Protein in INSANE! Membrane UpperLeaflet>POPC=1.0 LowerLeaflet>POPC=1.0
239324
    1AU     AUC    1   1.492  13.459   7.505
    1AU     AUC    2   1.751  13.453   7.343
    1AU     AUC    3   1.738  13.444   7.662
    1AU     AUC    4   1.242  13.463   7.337
    1AU     AUC    5   1.231  13.486   7.656
    1AU     AUC    6   1.348  13.719   7.502
    1AU     AUC    7   1.656  13.708   7.491
    1AU     AUC    8   1.328  13.215   7.517
    1AU     AUC    9   1.628  13.192   7.520
    1AU     AUC   10   1.487  13.308   7.765
    1AU     AUC   11   1.507  13.621   7.762
    1AU     AUC   12   1.487  13.297   7.245
    1AU     AUC   13   1.493  13.602   7.243
    1AU     AUC   14   2.009  13.449   7.188
    1AU     AUC   15   2.009  13.449   7.491
    1AU     AUC   16   1.993  13.443   7.818
    1AU     AUC   17   0.986  13.458   7.182
    1AU     AUC   18   0.975  13.488   7.485
    1AU     AUC   19   0.980  13.514   7.812
    1AU     AUC   20   1.208  13.985   7.503
    1AU     AUC   21   1.522  13.980   7.500
    1AU     AUC   22   1.826  13.967   7.490
    1AU     AUC   23   1.148  12.967   7.525
    1AU     AUC   24   1.456  12.939   7.510
    1AU     AUC   25   1.770  12.927   7.532
    1AU     AUC   26   1.485  13.161   8.019
    1AU     AUC   27   1.504  13.470   8.033
    1AU     AUC   28   1.514  13.773   8.021
    1AU     AUC   29   1.489  13.117   7.008
    1AU     AUC   30   1.495  13.433   6.982
    1AU     AUC   31   1.494  13.749   6.982
    1AU     AUC   32   1.751  13.302   7.930
    1AU     AUC   33   1.762  13.606   7.930
    1AU     AUC   34   1.761  13.282   7.088
    1AU     AUC   35   1.766  13.587   7.073
    1AU     AUC   36   1.223  13.343   7.931
    1AU     AUC   37   1.241  13.646   7.929
    1AU     AUC   38   1.239  13.298   7.074
    1AU     AUC   39   1.234  13.608   7.078
    1AU     AUC   40   1.915  13.707   7.323
    1AU     AUC   41   1.921  13.692   7.656
    1AU     AUC   42   1.082  13.729   7.347
    1AU     AUC   43   1.090  13.751   7.666
    1AU     AUC   44   1.907  13.181   7.367
    1AU     AUC   45   1.877  13.160   7.670
    1AU     AUC   46   1.068  13.210   7.348
    1AU     AUC   47   1.064  13.240   7.690
    1AU     AUC   48   1.352  13.884   7.771
    1AU     AUC   49   1.672  13.884   7.742
    1AU     AUC   50   1.294  13.054   7.766
    1AU     AUC   51   1.610  13.034   7.779
    1AU     AUC   52   1.348  13.874   7.239
    1AU     AUC   53   1.666  13.855   7.228
    1AU     AUC   54   1.318  13.052   7.248
    1AU     AUC   55   1.648  13.034   7.265
    1AU    AUSL   56   1.993  13.356   8.184
    1AU    AUSL   57   1.766  12.982   8.132
    1AU     AUL   58   2.075  13.048   8.371
    1AU       S   59   2.074  12.636   8.146
    1AU     LIG   60   1.909  12.358   8.398
    1AU     LIG   61   2.052  11.980   8.604
    1AU     LIG   62   2.322  11.729   8.896
    1AU     LIG   63   2.542  11.523   9.252
    1AU     LIG   64   2.717  11.431   9.676
    1AU     LIG   65   2.652  11.249  10.108
    1AU       S   66   1.956  13.418   8.634
    1AU     LIG   67   1.980  13.483   9.047
    1AU     LIG   68   2.278  13.277   9.337
    1AU     LIG   69   2.679  13.173   9.555
    1AU     LIG   70   2.983  13.276   9.908
    1AU     LIG   71   3.319  13.195  10.230
    1AU     LIG   72   3.471  13.098  10.657
    1AU    AUSL   73   1.603  13.304   8.329
    1AU    AUSL   74   1.412  13.669   8.279
    1AU     AUL   75   1.530  13.630   8.686
    1AU       S   76   1.674  13.242   8.513
    1AU     LIG   77   1.578  13.156   8.923
    1AU     LIG   78   1.839  12.992   9.286
    1AU     LIG   79   2.005  12.770   9.691
    1AU     LIG   80   2.098  12.584  10.139
    1AU     LIG   81   2.288  12.513  10.581
    1AU     LIG   82   2.489  12.540  11.009
    1AU       S   83   1.149  13.395   8.646
    1AU     LIG   84   1.046  13.310   9.096
    1AU     LIG   85   0.830  13.257   9.522
    1AU     LIG   86   0.610  13.317   9.955
    1AU     LIG   87   0.637  13.598  10.371
    1AU     LIG   88   0.718  13.859  10.784
    1AU     LIG   89   0.618  14.068  11.213
    1AU    AUSL   90   1.809  13.709   8.283
    1AU    AUSL   91   2.141  13.692   7.999
    1AU     AUL   92   2.249  13.514   8.279
    1AU       S   93   1.872  13.752   8.425
    1AU     LIG   94   1.914  14.048   8.712
    1AU     LIG   95   2.050  14.134   9.170
    1AU     LIG   96   2.045  14.177   9.670
    1AU     LIG   97   2.016  14.270  10.157
    1AU     LIG   98   2.209  14.332  10.602
    1AU     LIG   99   2.577  14.266  10.930
    1AU       S  100   2.374  13.957   8.156
    1AU     LIG  101   2.770  14.069   8.271
    1AU     LIG  102   2.996  14.097   8.674
    1AU     LIG  103   3.203  14.224   9.070
    1AU     LIG  104   3.470  14.520   9.315
    1AU     LIG  105   3.803  14.567   9.639
    1AU     LIG  106   4.095  14.770   9.950
    1AU    AUSL  107   2.011  13.453   6.862
    1AU    AUSL  108   1.789  13.867   6.821
    1AU     AUL  109   2.138  13.791   6.445
    1AU       S  110   2.075  13.472   6.721
    1AU     LIG  111   2.344  13.338   6.382
    1AU     LIG  112   2.424  13.214   5.946
    1AU     LIG  113   2.581  13.115   5.503
    1AU     LIG  114   2.935  13.041   5.174
    1AU     LIG  115   3.324  13.014   4.878
    1AU     LIG  116   3.554  13.168   4.485
    1AU       S  117   1.790  13.945   6.651
    1AU     LIG  118   2.122  14.280   6.570
    1AU     LIG  119   2.454  14.374   6.245
    1AU     LIG  120   2.720  14.497   5.849
    1AU     LIG  121   2.923  14.674   5.435
    1AU     LIG  122   3.066  14.928   5.026
    1AU     LIG  123   3.185  15.270   4.696
    1AU    AUSL  124   1.728  13.163   6.701
    1AU    AUSL  125   2.144  13.108   7.026
    1AU     AUL  126   2.046  13.043   6.668
    1AU       S  127   2.309  12.729   6.904
    1AU     LIG  128   2.394  12.297   6.681
    1AU     LIG  129   2.531  11.905   6.433
    1AU     LIG  130   2.809  11.649   6.133
    1AU     LIG  131   3.162  11.529   5.826
    1AU     LIG  132   3.547  11.532   5.522
    1AU     LIG  133   3.849  11.717   5.181
    1AU       S  134   1.837  13.405   6.433
    1AU     LIG  135   1.937  13.054   6.176
    1AU     LIG  136   2.095  12.854   5.783
    1AU     LIG  137   2.179  12.834   5.326
    1AU     LIG  138   2.194  12.736   4.861
    1AU     LIG  139   2.257  12.550   4.423
    1AU     LIG  140   2.488  12.561   4.010
    1AU    AUSL  141   1.609  13.515   6.887
    1AU    AUSL  142   1.334  13.277   6.687
    1AU     AUL  143   1.528  13.080   6.543
    1AU       S  144   1.100  13.371   6.391
    1AU     LIG  145   0.923  13.105   6.081
    1AU     LIG  146   0.794  12.919   5.669
    1AU     LIG  147   0.634  12.704   5.267
    1AU     LIG  148   0.456  12.529   4.858
    1AU     LIG  149   0.406  12.336   4.416
    1AU     LIG  150   0.516  12.360   3.948
    1AU       S  151   1.735  13.503   6.499
    1AU     LIG  152   1.996  13.535   6.003
    1AU     LIG  153   2.098  13.329   5.565
    1AU     LIG  154   2.262  13.300   5.110
    1AU     LIG  155   2.311  13.506   4.677
    1AU     LIG  156   2.250  13.764   4.268
    1AU     LIG  157   2.412  13.977   3.870
    1AU    AUSL  158   1.033  13.542   8.218
    1AU    AUSL  159   1.165  13.952   8.135
    1AU     AUL  160   1.231  13.875   8.447
    1AU       S  161   0.956  13.545   8.634
    1AU     LIG  162   0.697  13.179   8.715
    1AU     LIG  163   0.555  13.032   9.137
    1AU     LIG  164   0.350  13.056   9.571
    1AU     LIG  165   0.114  13.049   9.981
    1AU     LIG  166  44.727  13.055  10.274
    1AU     LIG  167  44.479  13.140  10.673
    1AU       S  168   0.780  13.932   8.338
    1AU     LIG  169   0.806  14.022   8.775
    1AU     LIG  170   0.705  14.394   9.041
    1AU     LIG  171   0.489  14.719   9.311
    1AU     LIG  172   0.476  14.978   9.719
    1AU     LIG  173   0.237  15.244  10.046
    1AU     LIG  174  44.970  15.468  10.382
    1AU    AUSL  175   1.327  13.330   8.037
    1AU    AUSL  176   0.778  13.322   7.989
    1AU     AUL  177   0.891  13.316   8.242
    1AU       S  178   0.598  12.960   8.248
    1AU     LIG  179   0.240  12.789   8.025
    1AU     LIG  180  44.874  12.488   8.099
    1AU     LIG  181  44.686  12.159   8.401
    1AU     LIG  182  44.493  11.904   8.757
    1AU     LIG  183  44.074  11.751   8.918
    1AU     LIG  184  43.678  11.809   9.180
    1AU       S  185   1.203  13.275   8.580
    1AU     LIG  186   1.126  12.895   8.810
    1AU     LIG  187   1.000  12.811   9.270
    1AU     LIG  188   0.762  12.772   9.695
    1AU     LIG  189   0.502  12.707  10.097
    1AU     LIG  190   0.340  12.504  10.512
    1AU     LIG  191   0.104  12.551  10.931
    1AU    AUSL  192   1.050  13.433   6.926
    1AU    AUSL  193   1.242  12.980   6.946
    1AU     AUL  194   1.087  13.016   6.673
    1AU       S  195   0.795  13.339   6.576
    1AU     LIG  196   0.641  13.518   6.203
    1AU     LIG  197   0.456  13.323   5.831
    1AU     LIG  198   0.446  13.174   5.385
    1AU     LIG  199   0.194  12.964   5.046
    1AU     LIG  200  44.773  13.040   4.829
    1AU     LIG  201  44.468  13.087   4.458
    1AU       S  202   0.792  12.675   6.851
    1AU     LIG  203   0.494  12.302   6.822
    1AU     LIG  204   0.197  12.008   6.572
    1AU     LIG  205   0.147  11.837   6.117
    1AU     LIG  206   0.253  11.540   5.747
    1AU     LIG  207   0.310  11.191   5.426
    1AU     LIG  208   0.098  11.077   5.030
    1AU    AUSL  209   1.321  13.708   6.679
    1AU    AUSL  210   0.863  13.790   6.962
    1AU     AUL  211   0.969  13.734   6.678
    1AU       S  212   0.715  14.105   6.774
    1AU     LIG  213   0.677  14.019   6.333
    1AU     LIG  214   0.422  14.070   5.924
    1AU     LIG  215   0.174  14.322   5.586
    1AU     LIG  216  44.897  14.426   5.194
    1AU     LIG  217  44.451  14.466   5.007
    1AU     LIG  218  44.020  14.663   4.980
    1AU       S  219   1.258  13.474   6.440
    1AU     LIG  220   1.097  13.596   5.964
    1AU     LIG  221   0.886  13.427   5.572
    1AU     LIG  222   0.806  13.429   5.098
    1AU     LIG  223   0.912  13.615   4.661
    1AU     LIG  224   0.802  13.853   4.261
    1AU     LIG  225   0.684  14.091   3.862
    1AU    AUSL  226   2.182  13.966   7.422
    1AU    AUSL  227   2.135  13.793   7.046
    1AU     AUL  228   2.240  14.230   7.267
    1AU       S  229   2.266  13.920   6.867
    1AU     LIG  230   2.609  13.949   6.535
    1AU     LIG  231   2.901  14.116   6.178
    1AU     LIG  232   3.194  14.275   5.832
    1AU     LIG  233   3.595  14.319   5.582
    1AU     LIG  234   3.981  14.504   5.380
    1AU     LIG  235   4.323  14.537   5.041
    1AU       S  236   2.595  13.936   7.272
    1AU     LIG  237   3.050  14.118   7.366
    1AU     LIG  238   3.493  14.047   7.515
    1AU     LIG  239   3.961  14.112   7.466
    1AU     LIG  240   4.388  14.323   7.537
    1AU     LIG  241   4.646  14.744   7.521
    1AU     LIG  242   4.916  15.127   7.657
    1AU    AUSL  243   2.321  13.529   7.292
    1AU    AUSL  244   2.317  13.322   7.720
    1AU     AUL  245   2.589  13.378   7.533
    1AU       S  246   2.590  13.636   7.140
    1AU     LIG  247   3.085  13.616   7.231
    1AU     LIG  248   3.584  13.615   7.250
    1AU     LIG  249   4.067  13.659   7.232
    1AU     LIG  250   4.461  13.671   6.958
    1AU     LIG  251   4.882  13.772   6.777
    1AU     LIG  252   5.294  13.967   6.756
    1AU       S  253   2.637  12.925   7.678
    1AU     LIG  254   3.050  12.708   7.687
    1AU     LIG  255   3.471  12.487   7.700
    1AU     LIG  256   3.891  12.281   7.710
    1AU     LIG  257   4.313  12.419   7.820
    1AU     LIG  258   4.727  12.245   8.000
    1AU     LIG  259   5.082  12.175   8.287
    1AU    AUSL  260   2.070  13.624   7.611
    1AU    AUSL  261   2.038  14.037   7.793
    1AU     AUL  262   2.360  13.800   7.718
    1AU       S  263   2.257  14.176   7.957
    1AU     LIG  264   2.382  14.477   8.256
    1AU     LIG  265   2.764  14.536   8.520
    1AU     LIG  266   3.127  14.651   8.797
    1AU     LIG  267   3.374  14.964   9.065
    1AU     LIG  268   3.630  15.371   9.091
    1AU     LIG  269   3.815  15.804   9.164
    1AU       S  270   2.650  13.834   7.376
    1AU     LIG  271   2.921  13.734   7.710
    1AU     LIG  272   3.370  13.588   7.724
    1AU     LIG  273   3.844  13.667   7.709
    1AU     LIG  274   4.259  13.876   7.817
    1AU     LIG  275   4.719  13.944   7.933
    1AU     LIG  276   5.124  14.033   8.172
    1AU    AUSL  277   0.850  14.016   7.572
    1AU    AUSL  278   0.885  13.760   7.910
    1AU     AUL  279   0.843  14.208   7.828
    1AU       S  280   0.667  13.826   8.109
    1AU     LIG  281   0.340  13.863   8.515
    1AU     LIG  282   0.283  14.131   8.895
    1AU     LIG  283   0.127  14.334   9.296
    1AU     LIG  284  44.860  14.344   9.702
    1AU     LIG  285  44.551  14.557  10.000
    1AU     LIG  286  44.108  14.675  10.139
    1AU       S  287   0.457  14.058   7.634
    1AU     LIG  288   0.518  14.487   7.467
    1AU     LIG  289   0.259  14.946   7.486
    1AU     LIG  290  44.933  15.345   7.555
    1AU     LIG  291  44.525  15.477   7.830
    1AU     LIG  292  44.046  15.525   7.802
    1AU     LIG  293  43.608  15.543   7.603
    1AU    AUSL  294   0.915  13.683   7.343
    1AU    AUSL  295   1.029  14.104   7.213
    1AU     AUL  296   0.734  14.025   7.239
    1AU       S  297   0.334  13.953   7.465
    1AU     LIG  298   0.099  13.951   7.032
    1AU     LIG  299  44.676  14.122   6.796
    1AU     LIG  300  44.250  14.417   6.783
    1AU     LIG  301  43.790  14.610   6.673
    1AU     LIG  302  43.308  14.509   6.590
    1AU     LIG  303  42.920  14.834   6.569
    1AU       S  304   0.851  14.309   6.876
    1AU     LIG  305   0.660  14.533   6.502
    1AU     LIG  306   0.610  14.877   6.186
    1AU     LIG  307   0.286  15.135   5.942
    1AU     LIG  308  44.997  15.517   5.922
    1AU     LIG  309  44.895  15.924   5.677
    1AU     LIG  310  44.626  16.290   5.885
    1AU    AUSL  311   0.634  13.618   7.638
    1AU    AUSL  312   0.679  13.353   7.305
    1AU     AUL  313   0.530  13.616   7.230
    1AU       S  314   0.330  13.174   7.450
    1AU     LIG  315  44.901  13.063   7.736
    1AU     LIG  316  44.402  12.988   7.805
    1AU     LIG  317  43.951  13.107   7.684
    1AU     LIG  318  43.613  12.877   7.419
    1AU     LIG  319  43.196  12.652   7.369
    1AU     LIG  320  42.843  12.451   7.069
    1AU       S  321   0.456  13.686   7.700
    1AU     LIG  322   0.189  13.952   8.034
    1AU     LIG  323  44.725  13.900   8.149
    1AU     LIG  324  44.241  14.026   8.162
    1AU     LIG  325  43.768  14.195   8.273
    1AU     LIG  326  43.299  14.391   8.368
    1AU     LIG  327  42.770  14.502   8.365
    1AU    AUSL  328   2.180  12.948   7.586
    1AU    AUSL  329   1.942  13.204   7.826
    1AU     AUL  330   2.317  13.128   7.954
    1AU       S  331   2.358  12.692   7.586
    1AU     LIG  332   2.648  12.381   7.713
    1AU     LIG  333   3.071  12.184   7.569
    1AU     LIG  334   3.523  12.008   7.457
    1AU     LIG  335   3.932  11.718   7.426
    1AU     LIG  336   4.300  11.401   7.513
    1AU     LIG  337   4.745  11.218   7.421
    1AU       S  338   2.176  12.711   8.062
    1AU     LIG  339   2.462  12.367   8.268
    1AU     LIG  340   2.579  12.079   8.609
    1AU     LIG  341   2.834  11.803   8.911
    1AU     LIG  342   3.056  11.631   9.296
    1AU     LIG  343   3.405  11.661   9.627
    1AU     LIG  344   3.807  11.621   9.892
    1AU    AUSL  345   2.036  13.264   7.382
    1AU    AUSL  346   1.965  12.810   7.269
    1AU     AUL  347   2.339  13.061   7.243
    1AU       S  348   2.341  12.820   7.613
    1AU     LIG  349   2.731  12.669   7.266
    1AU     LIG  350   3.229  12.542   7.229
    1AU     LIG  351   3.729  12.463   7.255
    1AU     LIG  352   4.216  12.353   7.287
    1AU     LIG  353   4.646  12.232   7.052
    1AU     LIG  354   5.075  12.004   7.066
    1AU       S  355   2.230  12.598   7.110
    1AU     LIG  356   2.009  12.159   7.001
    1AU     LIG  357   2.129  11.746   6.752
    1AU     LIG  358   2.391  11.384   6.525
    1AU     LIG  359   2.812  11.151   6.396
    1AU     LIG  360   3.128  10.839   6.197
    1AU     LIG  361   3.614  10.756   6.197
    1AU    AUSL  362   0.786  12.986   7.503
    1AU    AUSL  363   0.868  13.098   7.062
    1AU     AUL  364   0.590  13.170   7.043
    1AU       S  365   0.779  12.755   7.075
    1AU     LIG  366   0.298  12.734   7.022
    1AU     LIG  367  44.976  12.446   6.797
    1AU     LIG  368  44.704  12.152   6.517
    1AU     LIG  369  44.361  11.982   6.247
    1AU     LIG  370  44.021  11.906   5.969
    1AU     LIG  371  44.014  11.690   5.563
    1AU       S  372   0.482  12.951   7.433
    1AU     LIG  373   0.151  12.682   7.527
    1AU     LIG  374  44.694  12.595   7.585
    1AU     LIG  375  44.331  12.439   7.848
    1AU     LIG  376  43.957  12.133   7.822
    1AU     LIG  377  43.602  11.803   7.775
    1AU     LIG  378  43.201  11.696   7.537
    1AU    AUSL  379   0.941  13.355   7.627
    1AU    AUSL  380   1.015  13.012   7.866
    1AU     AUL  381   0.645  13.137   7.814
    1AU       S  382   0.768  12.843   8.138
    1AU     LIG  383   0.646  12.588   7.787
    1AU     LIG  384   0.258  12.268   7.834
    1AU     LIG  385  44.937  11.903   8.021
    1AU     LIG  386  44.687  11.635   8.361
    1AU     LIG  387  44.426  11.388   8.697
    1AU     LIG  388  44.164  10.982   8.808
    1AU       S  389   0.381  13.243   7.464
    1AU     LIG  390  44.918  13.056   7.233
    1AU     LIG  391  44.450  12.987   7.300
    1AU     LIG  392  44.105  12.684   7.459
    1AU     LIG  393  43.812  12.645   7.845
    1AU     LIG  394  43.353  12.670   7.881
    1AU     LIG  395  42.929  12.549   7.968
    1AU    AUSL  396   1.521  14.119   8.034
    1AU    AUSL  397   1.215  13.933   7.735
    1AU     AUL  398   1.232  14.242   8.095
    1AU       S  399   0.840  14.063   8.258
    1AU     LIG  400   0.539  14.358   8.492
    1AU     LIG  401   0.323  14.656   8.804
    1AU     LIG  402   0.097  15.075   8.871
    1AU     LIG  403   0.050  15.503   9.064
    1AU     LIG  404  44.721  15.847   9.094
    1AU     LIG  405  44.512  16.288   9.145
    1AU       S  406   1.605  14.532   7.983
    1AU     LIG  407   1.867  14.655   8.316
    1AU     LIG  408   1.892  15.091   8.526
    1AU     LIG  409   1.856  15.521   8.752
    1AU     LIG  410   1.818  15.764   9.175
    1AU     LIG  411   1.813  16.037   9.579
    1AU     LIG  412   1.848  16.441   9.826
    1AU    AUSL  413   1.285  14.317   7.652
    1AU    AUSL  414   1.750  14.286   7.281
    1AU     AUL  415   1.450  14.542   7.439
    1AU       S  416   1.453  14.613   7.891
    1AU     LIG  417   1.601  15.043   8.063
    1AU     LIG  418   1.644  15.485   8.273
    1AU     LIG  419   1.673  15.955   8.432
    1AU     LIG  420   1.484  16.423   8.487
    1AU     LIG  421   1.254  16.871   8.580
    1AU     LIG  422   1.100  17.353   8.586
    1AU       S  423   1.786  14.625   7.118
    1AU     LIG  424   1.978  15.016   7.108
    1AU     LIG  425   2.216  15.311   6.847
    1AU     LIG  426   2.126  15.728   6.660
    1AU     LIG  427   2.237  16.190   6.601
    1AU     LIG  428   2.405  16.643   6.558
    1AU     LIG  429   2.475  17.123   6.575
    1AU    AUSL  430   1.681  14.163   7.662
    1AU    AUSL  431   1.726  13.795   7.906
    1AU     AUL  432   1.817  14.140   8.088
    1AU       S  433   2.222  13.982   8.218
    1AU     LIG  434   2.424  14.135   8.647
    1AU     LIG  435   2.688  14.358   8.998
    1AU     LIG  436   2.964  14.638   9.282
    1AU     LIG  437   3.212  14.924   9.569
    1AU     LIG  438   3.153  15.229   9.947
    1AU     LIG  439   3.203  15.382  10.402
    1AU       S  440   1.788  14.461   7.747
    1AU     LIG  441   2.039  14.826   7.870
    1AU     LIG  442   2.081  15.264   8.080
    1AU     LIG  443   2.119  15.696   8.322
    1AU     LIG  444   2.191  16.185   8.407
    1AU     LIG  445   2.412  16.644   8.458
    1AU     LIG  446   2.639  17.094   8.516
    1AU    AUSL  447   1.448  12.900   7.882
    1AU    AUSL  448   1.849  12.804   7.766
    1AU     AUL  449   1.624  12.719   8.151
    1AU       S  450   1.478  12.313   8.010
    1AU     LIG  451   1.652  11.935   8.148
    1AU     LIG  452   1.383  11.633   8.312
    1AU     LIG  453   1.300  11.213   8.450
    1AU     LIG  454   1.310  10.760   8.517
    1AU     LIG  455   1.277  10.434   8.852
    1AU     LIG  456   1.141  10.365   9.296
    1AU       S  457   1.979  12.589   7.867
    1AU     LIG  458   2.090  12.155   7.959
    1AU     LIG  459   2.319  11.815   8.204
    1AU     LIG  460   2.630  11.586   8.484
    1AU     LIG  461   2.723  11.281   8.835
    1AU     LIG  462   2.940  10.931   9.071
    1AU     LIG  463   3.259  10.564   9.054
    1AU    AUSL  464   1.155  12.706   7.654
    1AU    AUSL  465   1.235  12.990   8.220
    1AU     AUL  466   1.175  12.686   8.003
    1AU       S  467   1.276  12.253   7.888
    1AU     LIG  468   1.127  11.850   7.905
    1AU     LIG  469   1.028  11.409   8.019
    1AU     LIG  470   0.795  11.032   8.125
    1AU     LIG  471   0.733  10.573   8.127
    1AU     LIG  472   0.663  10.136   8.258
    1AU     LIG  473   0.897   9.743   8.283
    1AU       S  474   0.911  12.862   8.338
    1AU     LIG  475   0.567  12.442   8.298
    1AU     LIG  476   0.204  12.165   8.383
    1AU     LIG  477   0.019  11.863   8.701
    1AU     LIG  478   0.135  11.614   9.099
    1AU     LIG  479   0.159  11.306   9.477
    1AU     LIG  480   0.031  10.960   9.787
    1AU    AUSL  481   1.548  12.572   7.633
    1AU    AUSL  482   1.277  12.652   7.268
    1AU     AUL  483   1.107  12.447   7.507
    1AU       S  484   1.353  12.277   7.122
    1AU     LIG  485   0.949  12.164   7.063
    1AU     LIG  486   0.773  11.720   7.006
    1AU     LIG  487   0.677  11.250   6.918
    1AU     LIG  488   0.391  10.849   6.890
    1AU     LIG  489   0.332  10.362   6.836
    1AU     LIG  490   0.385   9.902   6.705
    1AU       S  491   1.518  12.423   7.744
    1AU     LIG  492   1.585  11.965   7.641
    1AU     LIG  493   1.499  11.518   7.801
    1AU     LIG  494   1.418  11.067   7.974
    1AU     LIG  495   1.430  10.587   8.046
    1AU     LIG  496   1.566  10.132   8.139
    1AU     LIG  497   1.686   9.849   8.494
    1AU    AUSL  498   1.500  14.113   6.965
    1AU    AUSL  499   1.811  13.889   7.262
    1AU     AUL  500   1.874  14.190   7.008
    1AU       S  501   1.543  14.422   6.781
    1AU     LIG  502   1.792  14.657   6.494
    1AU     LIG  503   1.799  14.993   6.174
    1AU     LIG  504   1.961  15.339   5.912
    1AU     LIG  505   1.827  15.622   5.564
    1AU     LIG  506   1.849  16.057   5.383
    1AU     LIG  507   1.690  16.499   5.285
    1AU       S  508   2.222  13.890   6.944
    1AU     LIG  509   2.557  14.301   6.889
    1AU     LIG  510   2.853  14.456   6.564
    1AU     LIG  511   3.090  14.647   6.198
    1AU     LIG  512   3.362  15.030   6.061
    1AU     LIG  513   3.536  15.474   5.947
    1AU     LIG  514   3.632  15.912   5.765
    1AU    AUSL  515   1.405  14.067   7.359
    1AU    AUSL  516   1.264  13.801   7.063
    1AU     AUL  517   1.243  14.286   7.123
    1AU       S  518   1.595  14.570   7.007
    1AU     LIG  519   1.559  14.965   6.811
    1AU     LIG  520   1.716  15.396   6.833
    1AU     LIG  521   1.597  15.798   6.638
    1AU     LIG  522   1.363  16.215   6.548
    1AU     LIG  523   1.071  16.592   6.429
    1AU     LIG  524   0.751  16.961   6.348
    1AU       S  525   1.088  14.169   6.709
    1AU     LIG  526   1.087  14.351   6.300
    1AU     LIG  527   0.784  14.453   5.944
    1AU     LIG  528   0.613  14.610   5.510
    1AU     LIG  529   0.506  14.909   5.136
    1AU     LIG  530   0.221  15.204   4.868
    1AU     LIG  531  44.928  15.573   4.796
    1AU    AUSL  532   1.580  12.758   6.993
    1AU    AUSL  533   1.154  13.029   7.345
    1AU     AUL  534   1.232  12.700   6.984
    1AU       S  535   0.808  12.643   7.194
    1AU     LIG  536   0.497  12.364   7.335
    1AU     LIG  537   0.028  12.250   7.272
    1AU     LIG  538  44.633  12.091   7.024
    1AU     LIG  539  44.388  11.797   6.722
    1AU     LIG  540  44.421  11.343   6.616
    1AU     LIG  541  44.134  11.070   6.345
    1AU       S  542   1.538  12.367   6.918
    1AU     LIG  543   1.582  12.012   6.687
    1AU     LIG  544   1.245  11.749   6.796
    1AU     LIG  545   1.191  11.307   6.726
    1AU     LIG  546   1.444  11.056   6.416
    1AU     LIG  547   1.494  10.920   5.950
    1AU     LIG  548   1.596  10.605   5.600
    1AU    AUSL  549   1.587  12.889   7.404
    1AU    AUSL  550   1.736  13.111   7.091
    1AU     AUL  551   1.783  12.617   7.213
    1AU       S  552   1.464  12.312   7.243
    1AU     LIG  553   1.613  11.850   7.158
    1AU     LIG  554   1.423  11.435   7.181
    1AU     LIG  555   1.569  11.026   6.982
    1AU     LIG  556   1.794  10.591   6.884
    1AU     LIG  557   1.925  10.101   6.924
    1AU     LIG  558   1.956   9.606   6.933
    1AU       S  559   2.029  12.629   6.834
    1AU     LIG  560   1.910  12.362   6.511
    1AU     LIG  561   2.027  11.954   6.300
    1AU     LIG  562   2.289  11.618   6.071
    1AU     LIG  563   2.553  11.517   5.695
    1AU     LIG  564   2.593  11.183   5.354
    1AU     LIG  565   2.724  11.038   4.903
    2AU     AUC  566  44.157  36.838   7.500
    2AU     AUC  567  44.416  36.837   7.339
    2AU     AUC  568  44.402  36.824   7.658
    2AU     AUC  569  43.908  36.843   7.333
    2AU     AUC  570  43.895  36.858   7.651
    2AU     AUC  571  44.010  37.096   7.501
    2AU     AUC  572  44.318  37.089   7.490
    2AU     AUC  573  43.996  36.592   7.508
    2AU     AUC  574  44.295  36.571   7.512
    2AU     AUC  575  44.152  36.683   7.758
    2AU     AUC  576  44.169  36.996   7.760
    2AU     AUC  577  44.156  36.681   7.237
    2AU     AUC  578  44.158  36.985   7.241
    2AU     AUC  579  44.676  36.837   7.186
    2AU     AUC  580  44.674  36.833   7.489
    2AU     AUC  581  44.657  36.823   7.816
    2AU     AUC  582  43.652  36.837   7.178
    2AU     AUC  583  43.640  36.861   7.480
    2AU     AUC  584  43.643  36.880   7.806
    2AU     AUC  585  43.867  37.361   7.505
    2AU     AUC  586  44.181  37.360   7.504
    2AU     AUC  587  44.486  37.349   7.493
    2AU     AUC  588  43.820  36.341   7.511
    2AU     AUC  589  44.128  36.317   7.498
    2AU     AUC  590  44.441  36.307   7.519
    2AU     AUC  591  44.151  36.533   8.011
    2AU     AUC  592  44.167  36.842   8.029
    2AU     AUC  593  44.173  37.145   8.021
    2AU     AUC  594  44.161  36.505   6.998
    2AU     AUC  595  44.161  36.819   6.977
    2AU     AUC  596  44.157  37.136   6.982
    2AU     AUC  597  44.416  36.679   7.925
    2AU     AUC  598  44.424  36.982   7.928
    2AU     AUC  599  44.427  36.669   7.081
    2AU     AUC  600  44.430  36.973   7.070
    2AU     AUC  601  43.887  36.712   7.924
    2AU     AUC  602  43.902  37.015   7.926
    2AU     AUC  603  43.907  36.681   7.067
    2AU     AUC  604  43.899  36.991   7.077
    2AU     AUC  605  44.578  37.092   7.322
    2AU     AUC  606  44.582  37.075   7.655
    2AU     AUC  607  43.744  37.106   7.346
    2AU     AUC  608  43.750  37.121   7.665
    2AU     AUC  609  44.576  36.565   7.362
    2AU     AUC  610  44.544  36.540   7.663
    2AU     AUC  611  43.737  36.586   7.339
    2AU     AUC  612  43.730  36.611   7.680
    2AU     AUC  613  44.011  37.257   7.773
    2AU     AUC  614  44.331  37.262   7.744
    2AU     AUC  615  43.963  36.426   7.754
    2AU     AUC  616  44.279  36.410   7.769
    2AU     AUC  617  44.010  37.255   7.242
    2AU     AUC  618  44.328  37.240   7.231
    2AU     AUC  619  43.989  36.433   7.235
    2AU     AUC  620  44.319  36.419   7.255
    2AU    AUSL  621  44.657  36.736   8.178
    2AU    AUSL  622  44.433  36.356   8.125
    2AU     AUL  623  44.742  36.425   8.362
    2AU       S  624  44.738  36.005   8.145
    2AU     LIG  625  44.566  35.731   8.412
    2AU     LIG  626  44.648  35.314   8.603
    2AU     LIG  627  44.918  35.112   8.934
    2AU     LIG  628   0.190  34.821   9.182
    2AU     LIG  629   0.436  34.853   9.585
    2AU     LIG  630   0.479  34.751  10.046
    2AU       S  631  44.618  36.790   8.633
    2AU     LIG  632  44.656  36.784   9.073
    2AU     LIG  633  44.909  36.570   9.402
    2AU     LIG  634   0.194  36.340   9.686
    2AU     LIG  635   0.590  36.265   9.927
    2AU     LIG  636   0.958  36.275  10.221
    2AU     LIG  637   1.194  36.445  10.586
    2AU    AUSL  638  44.268  36.676   8.323
    2AU    AUSL  639  44.071  37.038   8.275
    2AU     AUL  640  44.187  36.998   8.681
    2AU       S  641  44.343  36.614   8.510
    2AU     LIG  642  44.235  36.522   8.920
    2AU     LIG  643  44.461  36.328   9.288
    2AU     LIG  644  44.708  36.130   9.656
    2AU     LIG  645  44.730  35.896  10.083
    2AU     LIG  646  44.930  35.821  10.512
    2AU     LIG  647   0.085  35.868  10.955
    2AU       S  648  43.819  36.744   8.633
    2AU     LIG  649  43.741  36.656   9.092
    2AU     LIG  650  43.553  36.578   9.524
    2AU     LIG  651  43.414  36.558   9.980
    2AU     LIG  652  43.388  36.799  10.402
    2AU     LIG  653  43.419  37.023  10.838
    2AU     LIG  654  43.478  37.168  11.300
    2AU    AUSL  655  44.467  37.083   8.282
    2AU    AUSL  656  44.802  37.078   8.001
    2AU     AUL  657  44.909  36.892   8.278
    2AU       S  658  44.532  37.128   8.427
    2AU     LIG  659  44.560  37.505   8.625
    2AU     LIG  660  44.743  37.592   9.078
    2AU     LIG  661  44.726  37.610   9.585
    2AU     LIG  662  44.712  37.652  10.088
    2AU     LIG  663  44.862  37.691  10.550
    2AU     LIG  664   0.214  37.644  10.884
    2AU       S  665   0.025  37.341   8.157
    2AU     LIG  666   0.415  37.455   8.274
    2AU     LIG  667   0.620  37.433   8.679
    2AU     LIG  668   0.839  37.594   9.043
    2AU     LIG  669   1.102  37.901   9.275
    2AU     LIG  670   1.483  37.939   9.553
    2AU     LIG  671   1.855  38.035   9.833
    2AU    AUSL  672  44.672  36.836   6.858
    2AU    AUSL  673  44.452  37.255   6.820
    2AU     AUL  674  44.799  37.179   6.447
    2AU       S  675  44.744  36.851   6.716
    2AU     LIG  676  44.993  36.711   6.371
    2AU     LIG  677   0.023  36.624   5.920
    2AU     LIG  678   0.140  36.459   5.489
    2AU     LIG  679   0.366  36.399   5.068
    2AU     LIG  680   0.773  36.336   4.798
    2AU     LIG  681   1.072  36.318   4.416
    2AU       S  682  44.444  37.331   6.646
    2AU     LIG  683  44.731  37.680   6.560
    2AU     LIG  684   0.084  37.730   6.257
    2AU     LIG  685   0.360  37.892   5.888
    2AU     LIG  686   0.577  38.101   5.501
    2AU     LIG  687   0.752  38.341   5.120
    2AU     LIG  688   0.869  38.695   4.814
    2AU    AUSL  689  44.386  36.551   6.693
    2AU    AUSL  690  44.824  36.499   7.026
    2AU     AUL  691  44.690  36.422   6.677
    2AU       S  692  44.994  36.127   6.900
    2AU     LIG  693   0.061  35.656   6.707
    2AU     LIG  694   0.141  35.301   6.386
    2AU     LIG  695   0.404  35.024   6.080
    2AU     LIG  696   0.761  35.049   5.744
    2AU     LIG  697   1.109  35.148   5.410
    2AU     LIG  698   1.484  35.075   5.111
    2AU       S  699  44.503  36.789   6.427
    2AU     LIG  700  44.561  36.451   6.165
    2AU     LIG  701  44.684  36.278   5.743
    2AU     LIG  702  44.721  36.245   5.274
    2AU     LIG  703  44.928  36.199   4.849
    2AU     LIG  704   0.034  35.969   4.438
    2AU     LIG  705   0.168  35.944   3.977
    2AU    AUSL  706  44.271  36.904   6.879
    2AU    AUSL  707  43.995  36.671   6.674
    2AU     AUL  708  44.178  36.477   6.532
    2AU       S  709  43.828  36.775   6.348
    2AU     LIG  710  43.873  36.369   6.140
    2AU     LIG  711  43.679  36.132   5.762
    2AU     LIG  712  43.478  36.064   5.321
    2AU     LIG  713  43.327  35.879   4.895
    2AU     LIG  714  43.393  35.733   4.431
    2AU     LIG  715  43.326  35.820   3.970
    2AU       S  716  44.407  36.888   6.492
    2AU     LIG  717  44.602  36.936   5.982
    2AU     LIG  718  44.700  36.752   5.531
    2AU     LIG  719  44.893  36.688   5.090
    2AU     LIG  720  44.861  36.832   4.647
    2AU     LIG  721  44.832  37.158   4.308
    2AU     LIG  722   0.082  37.443   4.034
    2AU    AUSL  723  43.695  36.904   8.212
    2AU    AUSL  724  43.818  37.318   8.135
    2AU     AUL  725  43.878  37.235   8.446
    2AU       S  726  43.626  36.891   8.641
    2AU     LIG  727  43.377  36.515   8.734
    2AU     LIG  728  43.235  36.373   9.169
    2AU     LIG  729  43.068  36.373   9.627
    2AU     LIG  730  42.749  36.351   9.995
    2AU     LIG  731  42.392  36.447  10.305
    2AU     LIG  732  42.223  36.466  10.746
    2AU       S  733  43.420  37.267   8.351
    2AU     LIG  734  43.488  37.437   8.769
    2AU     LIG  735  43.391  37.792   9.078
    2AU     LIG  736  43.221  38.136   9.365
    2AU     LIG  737  43.019  38.193   9.805
    2AU     LIG  738  42.752  38.373  10.160
    2AU     LIG  739  42.663  38.747  10.454
    2AU    AUSL  740  43.992  36.700   8.029
    2AU    AUSL  741  43.443  36.683   7.979
    2AU     AUL  742  43.554  36.690   8.235
    2AU       S  743  43.289  36.318   8.240
    2AU     LIG  744  42.911  36.156   8.157
    2AU     LIG  745  42.559  35.886   8.162
    2AU     LIG  746  42.355  35.595   8.470
    2AU     LIG  747  42.127  35.313   8.770
    2AU     LIG  748  41.879  35.161   9.139
    2AU     LIG  749  41.485  35.239   9.411
    2AU       S  750  43.869  36.633   8.570
    2AU     LIG  751  43.812  36.243   8.798
    2AU     LIG  752  43.693  36.149   9.255
    2AU     LIG  753  43.503  36.087   9.704
    2AU     LIG  754  43.395  35.874  10.131
    2AU     LIG  755  43.308  35.767  10.600
    2AU     LIG  756  43.135  35.844  11.035
    2AU    AUSL  757  43.718  36.814   6.928
    2AU    AUSL  758  43.914  36.369   6.930
    2AU     AUL  759  43.721  36.447   6.655
    2AU       S  760  43.579  36.765   6.361
    2AU     LIG  761  43.388  36.485   6.068
    2AU     LIG  762  43.261  36.420   5.636
    2AU     LIG  763  43.025  36.314   5.246
    2AU     LIG  764  42.706  36.340   4.900
    2AU     LIG  765  42.291  36.366   4.668
    2AU     LIG  766  42.162  36.562   4.249
    2AU       S  767  43.491  36.055   6.822
    2AU     LIG  768  43.265  35.687   6.789
    2AU     LIG  769  42.889  35.649   6.523
    2AU     LIG  770  42.620  35.434   6.219
    2AU     LIG  771  42.435  35.181   5.874
    2AU     LIG  772  42.328  35.090   5.420
    2AU     LIG  773  42.185  34.890   5.007
    2AU    AUSL  774  43.977  37.098   6.680
    2AU    AUSL  775  43.529  37.172   6.965
    2AU     AUL  776  43.591  37.052   6.703
    2AU       S  777  43.403  37.473   6.767
    2AU     LIG  778  43.109  37.510   6.404
    2AU     LIG  779  42.939  37.705   5.993
    2AU     LIG  780  42.722  37.787   5.566
    2AU     LIG  781  42.364  37.932   5.280
    2AU     LIG  782  42.001  38.219   5.169
    2AU     LIG  783  41.556  38.327   5.032
    2AU       S  784  43.948  36.924   6.433
    2AU     LIG  785  44.097  36.793   5.958
    2AU     LIG  786  43.755  36.628   5.632
    2AU     LIG  787  43.494  36.599   5.200
    2AU     LIG  788  43.407  36.789   4.737
    2AU     LIG  789  43.384  37.033   4.289
    2AU     LIG  790  43.272  37.242   3.851
    2AU    AUSL  791  44.846  37.345   7.421
    2AU    AUSL  792  44.797  37.174   7.044
    2AU     AUL  793  44.906  37.609   7.265
    2AU       S  794  44.927  37.317   6.863
    2AU     LIG  795   0.282  37.334   6.558
    2AU     LIG  796   0.552  37.502   6.183
    2AU     LIG  797   0.831  37.683   5.826
    2AU     LIG  798   1.207  37.663   5.524
    2AU     LIG  799   1.635  37.762   5.338
    2AU     LIG  800   2.070  37.888   5.242
    2AU       S  801   0.266  37.317   7.258
    2AU     LIG  802   0.750  37.479   7.285
    2AU     LIG  803   1.225  37.474   7.435
    2AU     LIG  804   1.708  37.557   7.519
    2AU     LIG  805   2.027  37.940   7.576
    2AU     LIG  806   2.259  38.392   7.617
    2AU     LIG  807   2.503  38.741   7.858
    2AU    AUSL  808  44.988  36.920   7.297
    2AU    AUSL  809  44.981  36.706   7.722
    2AU     AUL  810   0.257  36.763   7.550
    2AU       S  811   0.231  37.008   7.152
    2AU     LIG  812   0.665  37.040   7.030
    2AU     LIG  813   1.124  37.058   7.150
    2AU     LIG  814   1.600  37.138   7.233
    2AU     LIG  815   2.001  37.364   7.063
    2AU     LIG  816   2.488  37.337   6.947
    2AU     LIG  817   2.897  37.520   6.781
    2AU       S  818   0.306  36.305   7.674
    2AU     LIG  819   0.724  36.083   7.715
    2AU     LIG  820   1.156  35.872   7.746
    2AU     LIG  821   1.556  35.641   7.835
    2AU     LIG  822   2.021  35.544   7.856
    2AU     LIG  823   2.439  35.777   7.969
    2AU     LIG  824   2.845  35.794   8.209
    2AU    AUSL  825  44.731  37.006   7.613
    2AU    AUSL  826  44.695  37.421   7.788
    2AU     AUL  827   0.018  37.188   7.718
    2AU       S  828  44.917  37.564   7.960
    2AU     LIG  829   0.035  37.844   8.297
    2AU     LIG  830   0.421  37.898   8.564
    2AU     LIG  831   0.806  38.047   8.800
    2AU     LIG  832   1.051  38.369   9.052
    2AU     LIG  833   1.258  38.790   9.152
    2AU     LIG  834   1.551  39.168   9.150
    2AU       S  835   0.334  37.210   7.398
    2AU     LIG  836   0.767  37.036   7.546
    2AU     LIG  837   1.263  37.001   7.644
    2AU     LIG  838   1.750  36.971   7.718
    2AU     LIG  839   2.134  37.060   8.007
    2AU     LIG  840   2.553  37.198   8.211
    2AU     LIG  841   2.973  37.397   8.279
    2AU    AUSL  842  43.506  37.386   7.575
    2AU    AUSL  843  43.543  37.123   7.906
    2AU     AUL  844  43.497  37.577   7.831
    2AU       S  845  43.326  37.193   8.089
    2AU     LIG  846  42.973  37.455   8.327
    2AU     LIG  847  42.986  37.653   8.774
    2AU     LIG  848  42.847  37.825   9.210
    2AU     LIG  849  42.591  37.984   9.605
    2AU     LIG  850  42.270  38.153   9.923
    2AU     LIG  851  41.851  38.364  10.033
    2AU       S  852  43.108  37.412   7.660
    2AU     LIG  853  43.053  37.808   7.407
    2AU     LIG  854  42.699  38.151   7.347
    2AU     LIG  855  42.326  38.476   7.328
    2AU     LIG  856  41.882  38.654   7.269
    2AU     LIG  857  41.530  38.735   7.576
    2AU     LIG  858  41.283  38.690   7.979
    2AU    AUSL  859  43.579  37.058   7.343
    2AU    AUSL  860  43.690  37.483   7.220
    2AU     AUL  861  43.388  37.404   7.242
    2AU       S  862  42.999  37.312   7.487
    2AU     LIG  863  42.847  37.442   7.080
    2AU     LIG  864  42.387  37.585   6.933
    2AU     LIG  865  41.893  37.721   6.934
    2AU     LIG  866  41.412  37.871   6.960
    2AU     LIG  867  40.953  37.872   6.835
    2AU     LIG  868  40.542  37.764   6.625
    2AU       S  869  43.512  37.690   6.876
    2AU     LIG  870  43.383  37.940   6.484
    2AU     LIG  871  43.272  38.296   6.170
    2AU     LIG  872  43.229  38.783   6.077
    2AU     LIG  873  43.000  39.211   6.014
    2AU     LIG  874  42.580  39.437   5.928
    2AU     LIG  875  42.090  39.484   5.877
    2AU    AUSL  876  43.295  36.980   7.632
    2AU    AUSL  877  43.346  36.728   7.293
    2AU     AUL  878  43.189  36.993   7.221
    2AU       S  879  43.011  36.555   7.411
    2AU     LIG  880  42.687  36.632   7.781
    2AU     LIG  881  42.187  36.657   7.823
    2AU     LIG  882  41.719  36.603   7.679
    2AU     LIG  883  41.357  36.579   7.323
    2AU     LIG  884  41.057  36.208   7.274
    2AU     LIG  885  40.752  35.999   6.996
    2AU       S  886  43.109  37.014   7.700
    2AU     LIG  887  42.742  37.140   7.930
    2AU     LIG  888  42.266  37.183   8.029
    2AU     LIG  889  41.847  37.453   8.125
    2AU     LIG  890  41.455  37.768   8.111
    2AU     LIG  891  41.030  37.890   8.325
    2AU     LIG  892  40.583  38.098   8.282
    2AU    AUSL  893  44.849  36.333   7.579
    2AU    AUSL  894  44.605  36.583   7.820
    2AU     AUL  895  44.980  36.504   7.947
    2AU       S  896   0.034  36.077   7.587
    2AU     LIG  897   0.302  35.771   7.760
    2AU     LIG  898   0.728  35.563   7.660
    2AU     LIG  899   1.174  35.377   7.577
    2AU     LIG  900   1.647  35.218   7.559
    2AU     LIG  901   1.961  34.881   7.703
    2AU     LIG  902   2.336  34.619   7.544
    2AU       S  903  44.843  36.084   8.057
    2AU     LIG  904   0.127  35.735   8.257
    2AU     LIG  905   0.169  35.405   8.578
    2AU     LIG  906   0.428  35.106   8.819
    2AU     LIG  907   0.705  35.036   9.183
    2AU     LIG  908   1.091  35.046   9.461
    2AU     LIG  909   1.520  35.007   9.667
    2AU    AUSL  910  44.703  36.651   7.379
    2AU    AUSL  911  44.638  36.194   7.259
    2AU     AUL  912   0.013  36.453   7.245
    2AU       S  913   0.005  36.197   7.605
    2AU     LIG  914   0.425  35.997   7.298
    2AU     LIG  915   0.938  35.847   7.281
    2AU     LIG  916   1.454  35.708   7.309
    2AU     LIG  917   1.927  35.502   7.225
    2AU     LIG  918   2.407  35.491   7.024
    2AU     LIG  919   2.895  35.603   6.923
    2AU       S  920  44.904  35.988   7.116
    2AU     LIG  921  44.673  35.543   7.045
    2AU     LIG  922  44.784  35.150   6.749
    2AU     LIG  923   0.034  34.798   6.467
    2AU     LIG  924   0.360  34.483   6.261
    2AU     LIG  925   0.649  34.110   6.106
    2AU     LIG  926   0.984  33.793   5.981
    2AU    AUSL  927  43.460  36.354   7.483
    2AU    AUSL  928  43.539  36.473   7.055
    2AU     AUL  929  43.267  36.554   7.013
    2AU       S  930  43.471  36.143   7.045
    2AU     LIG  931  43.006  36.110   6.890
    2AU     LIG  932  42.581  35.873   6.853
    2AU     LIG  933  42.297  35.727   6.502
    2AU     LIG  934  42.111  35.513   6.111
    2AU     LIG  935  41.941  35.260   5.735
    2AU     LIG  936  41.716  35.161   5.321
    2AU       S  937  43.163  36.321   7.397
    2AU     LIG  938  42.862  36.159   7.668
    2AU     LIG  939  42.390  36.207   7.655
    2AU     LIG  940  41.945  36.139   7.780
    2AU     LIG  941  41.613  35.803   7.636
    2AU     LIG  942  41.150  35.646   7.572
    2AU     LIG  943  40.783  35.302   7.606
    2AU    AUSL  944  43.605  36.721   7.617
    2AU    AUSL  945  43.683  36.377   7.852
    2AU     AUL  946  43.312  36.487   7.796
    2AU       S  947  43.441  36.213   8.139
    2AU     LIG  948  43.326  35.969   7.796
    2AU     LIG  949  42.937  35.687   7.850
    2AU     LIG  950  42.600  35.383   8.048
    2AU     LIG  951  42.344  35.090   8.348
    2AU     LIG  952  42.103  34.792   8.650
    2AU     LIG  953  41.839  34.367   8.667
    2AU       S  954  43.060  36.606   7.440
    2AU     LIG  955  42.559  36.713   7.300
    2AU     LIG  956  42.106  36.542   7.314
    2AU     LIG  957  41.731  36.234   7.335
    2AU     LIG  958  41.361  36.231   7.685
    2AU     LIG  959  40.920  36.094   7.786
    2AU     LIG  960  40.504  35.921   7.926
    2AU    AUSL  961  44.176  37.485   8.048
    2AU    AUSL  962  43.872  37.302   7.735
    2AU     AUL  963  43.879  37.604   8.104
    2AU       S  964  43.488  37.414   8.255
    2AU     LIG  965  43.360  37.807   8.428
    2AU     LIG  966  43.204  38.131   8.745
    2AU     LIG  967  43.202  38.534   8.993
    2AU     LIG  968  42.982  38.934   9.097
    2AU     LIG  969  42.600  39.187   9.199
    2AU     LIG  970  42.214  39.449   9.268
    2AU       S  971  44.243  37.902   8.029
    2AU     LIG  972  44.439  38.074   8.395
    2AU     LIG  973  44.423  38.523   8.570
    2AU     LIG  974  44.393  38.970   8.755
    2AU     LIG  975  44.615  39.193   9.128
    2AU     LIG  976  44.627  39.440   9.559
    2AU     LIG  977  44.347  39.731   9.831
    2AU    AUSL  978  43.933  37.689   7.662
    2AU    AUSL  979  44.411  37.670   7.297
    2AU     AUL  980  44.063  37.929   7.449
    2AU       S  981  44.105  37.972   7.902
    2AU     LIG  982  44.254  38.411   8.041
    2AU     LIG  983  44.259  38.857   8.209
    2AU     LIG  984  44.288  39.299   8.341
    2AU     LIG  985  44.080  39.658   8.558
    2AU     LIG  986  43.685  39.930   8.579
    2AU     LIG  987  43.466  40.354   8.649
    2AU       S  988  44.481  37.968   7.231
    2AU     LIG  989  44.774  38.119   6.939
    2AU     LIG  990  44.794  38.588   6.794
    2AU     LIG  991  44.738  39.055   6.628
    2AU     LIG  992  44.840  39.546   6.638
    2AU     LIG  993   0.057  40.010   6.650
    2AU     LIG  994   0.237  40.476   6.593
    2AU    AUSL  995  44.331  37.546   7.676
    2AU    AUSL  996  44.389  37.173   7.905
    2AU     AUL  997  44.477  37.516   8.089
    2AU       S  998  44.881  37.357   8.212
    2AU     LIG  999   0.071  37.470   8.655
    2AU     LIG 1000   0.304  37.683   9.017
    2AU     LIG 1001   0.583  37.989   9.259
    2AU     LIG 1002   0.816  38.311   9.514
    2AU     LIG 1003   0.758  38.680   9.818
    2AU     LIG 1004   0.757  39.053  10.121
    2AU       S 1005  44.412  37.837   7.755
    2AU     LIG 1006  44.705  38.118   7.963
    2AU     LIG 1007  44.734  38.565   8.164
    2AU     LIG 1008  44.739  39.018   8.360
    2AU     LIG 1009  44.904  39.482   8.463
    2AU     LIG 1010   0.182  39.907   8.550
    2AU     LIG 1011   0.424  40.318   8.720
    2AU    AUSL 1012  44.118  36.272   7.871
    2AU    AUSL 1013  44.521  36.182   7.758
    2AU     AUL 1014  44.290  36.092   8.138
    2AU       S 1015  44.147  35.690   7.990
    2AU     LIG 1016  44.287  35.355   8.202
    2AU     LIG 1017  44.007  35.054   8.352
    2AU     LIG 1018  43.994  34.615   8.381
    2AU     LIG 1019  43.824  34.215   8.544
    2AU     LIG 1020  43.792  33.920   8.912
    2AU     LIG 1021  43.832  33.598   9.263
    2AU       S 1022  44.652  35.958   7.861
    2AU     LIG 1023  44.747  35.504   7.989
    2AU     LIG 1024  44.938  35.120   8.225
    2AU     LIG 1025   0.087  34.799   8.565
    2AU     LIG 1026   0.351  34.480   8.816
    2AU     LIG 1027   0.712  34.172   8.880
    2AU     LIG 1028   1.067  33.878   9.021
    2AU    AUSL 1029  43.832  36.080   7.634
    2AU    AUSL 1030  43.900  36.357   8.207
    2AU     AUL 1031  43.839  36.051   7.981
    2AU       S 1032  43.964  35.619   7.858
    2AU     LIG 1033  43.841  35.234   7.681
    2AU     LIG 1034  43.725  34.842   7.945
    2AU     LIG 1035  43.532  34.481   8.183
    2AU     LIG 1036  43.378  34.052   8.305
    2AU     LIG 1037  43.348  33.579   8.329
    2AU     LIG 1038  43.557  33.145   8.359
    2AU       S 1039  43.599  36.236   8.329
    2AU     LIG 1040  43.269  35.804   8.318
    2AU     LIG 1041  42.881  35.558   8.443
    2AU     LIG 1042  42.646  35.246   8.736
    2AU     LIG 1043  42.399  34.981   9.061
    2AU     LIG 1044  42.362  34.737   9.476
    2AU     LIG 1045  42.410  34.534   9.911
    2AU    AUSL 1046  44.225  35.951   7.615
    2AU    AUSL 1047  43.951  36.033   7.247
    2AU     AUL 1048  43.773  35.834   7.502
    2AU       S 1049  43.980  35.675   7.104
    2AU     LIG 1050  43.612  35.500   7.147
    2AU     LIG 1051  43.617  35.048   7.132
    2AU     LIG 1052  43.622  34.614   6.959
    2AU     LIG 1053  43.593  34.208   6.711
    2AU     LIG 1054  43.471  33.748   6.616
    2AU     LIG 1055  43.511  33.292   6.451
    2AU       S 1056  44.194  35.801   7.722
    2AU     LIG 1057  44.355  35.357   7.684
    2AU     LIG 1058  44.218  34.951   7.889
    2AU     LIG 1059  44.319  34.492   8.013
    2AU     LIG 1060  44.456  34.086   8.225
    2AU     LIG 1061  44.470  33.616   8.340
    2AU     LIG 1062  44.600  33.248   8.614
    2AU    AUSL 1063  44.167  37.501   6.972
    2AU    AUSL 1064  44.474  37.275   7.260
    2AU     AUL 1065  44.539  37.571   7.006
    2AU       S 1066  44.233  37.866   6.828
    2AU     LIG 1067  44.458  38.137   6.542
    2AU     LIG 1068  44.461  38.585   6.412
    2AU     LIG 1069  44.423  38.993   6.198
    2AU     LIG 1070  44.353  39.215   5.780
    2AU     LIG 1071  44.316  39.634   5.557
    2AU     LIG 1072  44.372  40.073   5.392
    2AU       S 1073  44.886  37.271   6.938
    2AU     LIG 1074   0.158  37.735   6.846
    2AU     LIG 1075   0.492  37.875   6.534
    2AU     LIG 1076   0.774  38.076   6.194
    2AU     LIG 1077   1.095  38.456   6.117
    2AU     LIG 1078   1.375  38.876   6.086
    2AU     LIG 1079   1.636  39.303   6.036
    2AU    AUSL 1080  44.066  37.451   7.364
    2AU    AUSL 1081  43.930  37.187   7.065
    2AU     AUL 1082  43.912  37.664   7.108
    2AU       S 1083  44.289  37.957   7.060
    2AU     LIG 1084  44.322  38.423   6.947
    2AU     LIG 1085  44.273  38.891   6.788
    2AU     LIG 1086  44.278  39.340   6.595
    2AU     LIG 1087  43.873  39.652   6.522
    2AU     LIG 1088  43.564  40.037   6.621
    2AU     LIG 1089  43.335  40.481   6.626
    2AU       S 1090  43.747  37.509   6.707
    2AU     LIG 1091  43.611  37.525   6.278
    2AU     LIG 1092  43.429  37.836   5.944
    2AU     LIG 1093  43.189  38.013   5.538
    2AU     LIG 1094  42.969  38.224   5.127
    2AU     LIG 1095  42.898  38.567   4.763
    2AU     LIG 1096  42.657  38.893   4.502
    2AU    AUSL 1097  44.254  36.148   6.976
    2AU    AUSL 1098  43.830  36.408   7.331
    2AU     AUL 1099  43.926  36.101   6.937
    2AU       S 1100  43.495  36.015   7.159
    2AU     LIG 1101  43.129  35.817   7.296
    2AU     LIG 1102  42.863  35.504   7.056
    2AU     LIG 1103  42.538  35.339   6.741
    2AU     LIG 1104  42.271  35.103   6.411
    2AU     LIG 1105  42.037  34.701   6.279
    2AU     LIG 1106  41.896  34.267   6.128
    2AU       S 1107  44.186  35.721   6.935
    2AU     LIG 1108  44.261  35.324   6.757
    2AU     LIG 1109  43.977  34.981   6.727
    2AU     LIG 1110  44.021  34.535   6.639
    2AU     LIG 1111  43.918  34.262   6.271
    2AU     LIG 1112  43.997  34.153   5.810
    2AU     LIG 1113  44.051  33.953   5.379
    2AU    AUSL 1114  44.259  36.270   7.389
    2AU    AUSL 1115  44.414  36.497   7.082
    2AU     AUL 1116  44.448  36.004   7.184
    2AU       S 1117  44.125  35.699   7.229
    2AU     LIG 1118  44.154  35.214   7.240
    2AU     LIG 1119  44.080  34.760   7.166
    2AU     LIG 1120  44.310  34.359   7.061
    2AU     LIG 1121  44.517  33.918   7.029
    2AU     LIG 1122  44.463  33.421   7.031
    2AU     LIG 1123  44.503  32.948   6.913
    2AU       S 1124  44.731  36.005   6.833
    2AU     LIG 1125  44.562  35.689   6.556
    2AU     LIG 1126  44.621  35.294   6.291
    2AU     LIG 1127  44.892  35.023   6.008
    2AU     LIG 1128   0.125  34.692   5.763
    2AU     LIG 1129   0.367  34.564   5.365
    2AU     LIG 1130   0.438  34.517   4.889
    3AU     AUC 1131   5.402  26.589   7.509
    3AU     AUC 1132   5.660  26.585   7.345
    3AU     AUC 1133   5.648  26.568   7.663
    3AU     AUC 1134   5.153  26.598   7.346
    3AU     AUC 1135   5.141  26.615   7.662
    3AU     AUC 1136   5.259  26.850   7.511
    3AU     AUC 1137   5.567  26.838   7.496
    3AU     AUC 1138   5.236  26.346   7.517
    3AU     AUC 1139   5.535  26.320   7.520
    3AU     AUC 1140   5.396  26.434   7.766
    3AU     AUC 1141   5.419  26.745   7.769
    3AU     AUC 1142   5.396  26.431   7.245
    3AU     AUC 1143   5.403  26.734   7.249
    3AU     AUC 1144   5.915  26.579   7.188
    3AU     AUC 1145   5.918  26.575   7.489
    3AU     AUC 1146   5.905  26.563   7.816
    3AU     AUC 1147   4.896  26.597   7.192
    3AU     AUC 1148   4.885  26.624   7.492
    3AU     AUC 1149   4.890  26.646   7.819
    3AU     AUC 1150   5.121  27.118   7.513
    3AU     AUC 1151   5.434  27.111   7.511
    3AU     AUC 1152   5.737  27.095   7.499
    3AU     AUC 1153   5.052  26.101   7.522
    3AU     AUC 1154   5.359  26.069   7.507
    3AU     AUC 1155   5.674  26.054   7.525
    3AU     AUC 1156   5.393  26.284   8.018
    3AU     AUC 1157   5.416  26.591   8.037
    3AU     AUC 1158   5.430  26.895   8.029
    3AU     AUC 1159   5.395  26.254   7.009
    3AU     AUC 1160   5.407  26.567   6.985
    3AU     AUC 1161   5.403  26.885   6.989
    3AU     AUC 1162   5.661  26.423   7.929
    3AU     AUC 1163   5.675  26.726   7.933
    3AU     AUC 1164   5.668  26.416   7.087
    3AU     AUC 1165   5.672  26.722   7.076
    3AU     AUC 1166   5.132  26.471   7.934
    3AU     AUC 1167   5.154  26.773   7.937
    3AU     AUC 1168   5.150  26.431   7.078
    3AU     AUC 1169   5.147  26.744   7.085
    3AU     AUC 1170   5.825  26.838   7.328
    3AU     AUC 1171   5.833  26.816   7.659
    3AU     AUC 1172   4.994  26.863   7.356
    3AU     AUC 1173   5.002  26.882   7.675
    3AU     AUC 1174   5.812  26.309   7.364
    3AU     AUC 1175   5.784  26.284   7.666
    3AU     AUC 1176   4.973  26.345   7.352
    3AU     AUC 1177   4.972  26.371   7.693
    3AU     AUC 1178   5.268  27.011   7.783
    3AU     AUC 1179   5.587  27.008   7.751
    3AU     AUC 1180   5.200  26.182   7.763
    3AU     AUC 1181   5.517  26.159   7.775
    3AU     AUC 1182   5.260  27.009   7.251
    3AU     AUC 1183   5.577  26.988   7.237
    3AU     AUC 1184   5.221  26.185   7.245
    3AU     AUC 1185   5.551  26.163   7.263
    3AU    AUSL 1186   5.905  26.471   8.183
    3AU    AUSL 1187   5.676  26.098   8.126
    3AU     AUL 1188   5.988  26.156   8.362
    3AU       S 1189   5.980  25.748   8.125
    3AU     LIG 1190   5.806  25.503   8.409
    3AU     LIG 1191   5.957  25.132   8.614
    3AU     LIG 1192   6.222  24.848   8.892
    3AU     LIG 1193   6.308  24.577   9.288
    3AU     LIG 1194   6.414  24.502   9.759
    3AU     LIG 1195   6.554  24.347  10.184
    3AU       S 1196   5.871  26.522   8.633
    3AU     LIG 1197   5.904  26.542   9.058
    3AU     LIG 1198   6.207  26.306   9.305
    3AU     LIG 1199   6.438  26.135   9.659
    3AU     LIG 1200   6.840  26.086   9.894
    3AU     LIG 1201   7.149  26.210  10.219
    3AU     LIG 1202   7.360  26.207  10.626
    3AU    AUSL 1203   5.516  26.419   8.327
    3AU    AUSL 1204   5.327  26.787   8.287
    3AU     AUL 1205   5.448  26.737   8.690
    3AU       S 1206   5.590  26.347   8.516
    3AU     LIG 1207   5.476  26.268   8.937
    3AU     LIG 1208   5.721  26.121   9.328
    3AU     LIG 1209   5.957  25.921   9.703
    3AU     LIG 1210   5.987  25.671  10.128
    3AU     LIG 1211   6.068  25.600  10.597
    3AU     LIG 1212   6.168  25.467  11.040
    3AU       S 1213   5.054  26.522   8.652
    3AU     LIG 1214   4.952  26.417   9.091
    3AU     LIG 1215   4.734  26.340   9.502
    3AU     LIG 1216   4.582  26.395   9.938
    3AU     LIG 1217   4.657  26.658  10.337
    3AU     LIG 1218   4.619  26.933  10.722
    3AU     LIG 1219   4.473  27.185  11.093
    3AU    AUSL 1220   5.724  26.824   8.287
    3AU    AUSL 1221   6.056  26.807   8.000
    3AU     AUL 1222   6.162  26.622   8.278
    3AU       S 1223   5.792  26.865   8.433
    3AU     LIG 1224   5.718  27.233   8.631
    3AU     LIG 1225   5.925  27.366   9.060
    3AU     LIG 1226   5.944  27.395   9.560
    3AU     LIG 1227   5.994  27.458  10.049
    3AU     LIG 1228   6.052  27.480  10.528
    3AU     LIG 1229   6.137  27.521  10.995
    3AU       S 1230   6.307  27.064   8.160
    3AU     LIG 1231   6.670  27.230   8.341
    3AU     LIG 1232   6.913  27.284   8.724
    3AU     LIG 1233   7.186  27.462   9.047
    3AU     LIG 1234   7.395  27.453   9.463
    3AU     LIG 1235   7.745  27.522   9.771
    3AU     LIG 1236   8.183  27.636   9.902
    3AU    AUSL 1237   5.921  26.593   6.866
    3AU    AUSL 1238   5.692  27.004   6.829
    3AU     AUL 1239   6.030  26.936   6.448
    3AU       S 1240   5.986  26.614   6.725
    3AU     LIG 1241   6.234  26.498   6.342
    3AU     LIG 1242   6.319  26.281   5.956
    3AU     LIG 1243   6.439  26.143   5.522
    3AU     LIG 1244   6.632  26.006   5.103
    3AU     LIG 1245   6.993  25.917   4.777
    3AU     LIG 1246   7.232  26.006   4.375
    3AU       S 1247   5.674  27.079   6.649
    3AU     LIG 1248   5.966  27.437   6.571
    3AU     LIG 1249   6.359  27.506   6.348
    3AU     LIG 1250   6.628  27.665   5.982
    3AU     LIG 1251   6.824  27.800   5.550
    3AU     LIG 1252   7.072  28.039   5.197
    3AU     LIG 1253   7.235  28.417   4.937
    3AU    AUSL 1254   5.648  26.297   6.704
    3AU    AUSL 1255   6.036  26.235   7.016
    3AU     AUL 1256   5.990  26.190   6.643
    3AU       S 1257   6.195  25.853   6.896
    3AU     LIG 1258   6.265  25.604   6.496
    3AU     LIG 1259   6.471  25.244   6.264
    3AU     LIG 1260   6.710  24.952   5.973
    3AU     LIG 1261   7.081  24.917   5.675
    3AU     LIG 1262   7.496  24.934   5.449
    3AU     LIG 1263   7.825  24.953   5.095
    3AU       S 1264   5.731  26.529   6.439
    3AU     LIG 1265   5.832  26.166   6.157
    3AU     LIG 1266   6.009  25.922   5.752
    3AU     LIG 1267   6.186  25.741   5.317
    3AU     LIG 1268   6.316  25.509   4.901
    3AU     LIG 1269   6.302  25.474   4.407
    3AU     LIG 1270   6.209  25.469   3.922
    3AU    AUSL 1271   5.516  26.649   6.880
    3AU    AUSL 1272   5.251  26.407   6.678
    3AU     AUL 1273   5.448  26.179   6.565
    3AU       S 1274   5.199  26.510   6.354
    3AU     LIG 1275   5.139  26.134   6.130
    3AU     LIG 1276   4.880  25.943   5.756
    3AU     LIG 1277   4.673  25.865   5.314
    3AU     LIG 1278   4.443  25.648   4.935
    3AU     LIG 1279   4.404  25.518   4.460
    3AU     LIG 1280   4.386  25.514   3.974
    3AU       S 1281   5.648  26.627   6.507
    3AU     LIG 1282   5.816  26.655   5.990
    3AU     LIG 1283   5.980  26.422   5.596
    3AU     LIG 1284   6.171  26.391   5.150
    3AU     LIG 1285   6.214  26.625   4.723
    3AU     LIG 1286   6.298  26.906   4.336
    3AU     LIG 1287   6.359  27.035   3.886
    3AU    AUSL 1288   4.943  26.674   8.224
    3AU    AUSL 1289   5.086  27.078   8.145
    3AU     AUL 1290   5.154  26.992   8.456
    3AU       S 1291   4.858  26.675   8.634
    3AU     LIG 1292   4.603  26.296   8.717
    3AU     LIG 1293   4.427  26.149   9.136
    3AU     LIG 1294   4.244  26.135   9.587
    3AU     LIG 1295   3.855  26.122   9.884
    3AU     LIG 1296   3.575  26.229  10.258
    3AU     LIG 1297   3.229  26.330  10.562
    3AU       S 1298   4.709  27.093   8.365
    3AU     LIG 1299   4.975  27.431   8.643
    3AU     LIG 1300   4.882  27.787   8.948
    3AU     LIG 1301   4.730  27.905   9.397
    3AU     LIG 1302   4.460  27.969   9.805
    3AU     LIG 1303   4.186  28.197  10.141
    3AU     LIG 1304   3.906  28.438  10.460
    3AU    AUSL 1305   5.230  26.454   8.043
    3AU    AUSL 1306   4.689  26.453   7.994
    3AU     AUL 1307   4.802  26.436   8.246
    3AU       S 1308   4.507  26.082   8.243
    3AU     LIG 1309   4.132  25.900   8.072
    3AU     LIG 1310   3.775  25.635   8.217
    3AU     LIG 1311   3.568  25.364   8.555
    3AU     LIG 1312   3.357  25.070   8.864
    3AU     LIG 1313   3.044  24.984   9.211
    3AU     LIG 1314   2.735  25.174   9.530
    3AU       S 1315   5.117  26.397   8.577
    3AU     LIG 1316   5.037  26.012   8.791
    3AU     LIG 1317   4.878  25.911   9.229
    3AU     LIG 1318   4.670  25.845   9.661
    3AU     LIG 1319   4.551  25.587  10.056
    3AU     LIG 1320   4.536  25.393  10.499
    3AU     LIG 1321   4.477  25.391  10.973
    3AU    AUSL 1322   5.000  26.558   6.957
    3AU    AUSL 1323   5.136  26.119   6.936
    3AU     AUL 1324   4.948  26.240   6.649
    3AU       S 1325   4.980  26.599   6.329
    3AU     LIG 1326   4.696  26.370   6.020
    3AU     LIG 1327   4.456  26.224   5.614
    3AU     LIG 1328   4.152  25.983   5.297
    3AU     LIG 1329   3.770  25.970   4.985
    3AU     LIG 1330   3.475  26.171   4.666
    3AU     LIG 1331   3.251  26.285   4.264
    3AU       S 1332   4.686  25.849   6.813
    3AU     LIG 1333   4.422  25.473   6.788
    3AU     LIG 1334   4.111  25.181   6.560
    3AU     LIG 1335   3.818  24.892   6.298
    3AU     LIG 1336   3.640  24.749   5.866
    3AU     LIG 1337   3.805  24.606   5.422
    3AU     LIG 1338   4.029  24.310   5.101
    3AU    AUSL 1339   5.205  26.835   6.694
    3AU    AUSL 1340   4.794  26.909   6.959
    3AU     AUL 1341   4.783  26.681   6.729
    3AU       S 1342   4.790  27.151   6.750
    3AU     LIG 1343   4.633  27.383   6.340
    3AU     LIG 1344   4.414  27.567   5.928
    3AU     LIG 1345   4.169  27.678   5.505
    3AU     LIG 1346   3.756  27.764   5.237
    3AU     LIG 1347   3.322  27.780   5.008
    3AU     LIG 1348   2.962  27.975   4.759
    3AU       S 1349   5.195  26.764   6.472
    3AU     LIG 1350   5.250  26.641   5.906
    3AU     LIG 1351   4.963  26.421   5.572
    3AU     LIG 1352   4.773  26.394   5.126
    3AU     LIG 1353   4.771  26.591   4.659
    3AU     LIG 1354   4.724  26.791   4.201
    3AU     LIG 1355   4.514  27.020   3.827
    3AU    AUSL 1356   6.093  27.096   7.428
    3AU    AUSL 1357   6.042  26.933   7.049
    3AU     AUL 1358   6.147  27.370   7.266
    3AU       S 1359   6.164  27.077   6.863
    3AU     LIG 1360   6.522  27.046   6.576
    3AU     LIG 1361   6.835  27.307   6.303
    3AU     LIG 1362   7.091  27.431   5.895
    3AU     LIG 1363   7.503  27.479   5.639
    3AU     LIG 1364   7.878  27.590   5.361
    3AU     LIG 1365   8.128  27.843   5.041
    3AU       S 1366   6.494  27.068   7.282
    3AU     LIG 1367   6.921  27.289   7.368
    3AU     LIG 1368   7.357  27.162   7.493
    3AU     LIG 1369   7.816  27.293   7.520
    3AU     LIG 1370   8.136  27.667   7.552
    3AU     LIG 1371   8.420  28.064   7.610
    3AU     LIG 1372   8.635  28.473   7.760
    3AU    AUSL 1373   6.226  26.659   7.285
    3AU    AUSL 1374   6.226  26.442   7.713
    3AU     AUL 1375   6.492  26.500   7.523
    3AU       S 1376   6.493  26.772   7.137
    3AU     LIG 1377   6.981  26.838   7.100
    3AU     LIG 1378   7.461  26.751   7.192
    3AU     LIG 1379   7.942  26.648   7.231
    3AU     LIG 1380   8.428  26.625   7.199
    3AU     LIG 1381   8.868  26.804   7.084
    3AU     LIG 1382   9.220  27.145   6.925
    3AU       S 1383   6.542  26.047   7.655
    3AU     LIG 1384   6.981  25.904   7.647
    3AU     LIG 1385   7.408  25.714   7.641
    3AU     LIG 1386   7.810  25.527   7.690
    3AU     LIG 1387   8.134  25.605   7.987
    3AU     LIG 1388   8.570  25.671   7.939
    3AU     LIG 1389   9.002  25.551   7.934
    3AU    AUSL 1390   5.983  26.749   7.610
    3AU    AUSL 1391   5.953  27.158   7.802
    3AU     AUL 1392   6.270  26.923   7.718
    3AU       S 1393   6.187  27.293   7.975
    3AU     LIG 1394   6.365  27.630   8.221
    3AU     LIG 1395   6.679  27.717   8.568
    3AU     LIG 1396   7.004  27.925   8.847
    3AU     LIG 1397   7.315  28.288   8.914
    3AU     LIG 1398   7.586  28.667   9.019
    3AU     LIG 1399   7.641  29.128   8.912
    3AU       S 1400   6.572  26.947   7.385
    3AU     LIG 1401   6.972  26.800   7.609
    3AU     LIG 1402   7.451  26.683   7.704
    3AU     LIG 1403   7.928  26.539   7.734
    3AU     LIG 1404   8.404  26.602   7.756
    3AU     LIG 1405   8.807  26.824   7.916
    3AU     LIG 1406   9.231  27.086   7.970
    3AU    AUSL 1407   4.769  27.157   7.582
    3AU    AUSL 1408   4.796  26.899   7.920
    3AU     AUL 1409   4.771  27.352   7.845
    3AU       S 1410   4.590  26.973   8.106
    3AU     LIG 1411   4.270  26.872   8.458
    3AU     LIG 1412   3.981  27.033   8.832
    3AU     LIG 1413   3.732  27.262   9.193
    3AU     LIG 1414   3.474  27.476   9.556
    3AU     LIG 1415   3.151  27.728   9.837
    3AU     LIG 1416   2.908  27.876  10.231
    3AU       S 1417   4.393  27.194   7.648
    3AU     LIG 1418   4.312  27.609   7.460
    3AU     LIG 1419   4.101  28.044   7.522
    3AU     LIG 1420   3.702  28.285   7.655
    3AU     LIG 1421   3.297  28.557   7.628
    3AU     LIG 1422   2.852  28.707   7.756
    3AU     LIG 1423   2.430  28.703   7.964
    3AU    AUSL 1424   4.820  26.824   7.350
    3AU    AUSL 1425   4.941  27.232   7.215
    3AU     AUL 1426   4.646  27.166   7.224
    3AU       S 1427   4.269  27.103   7.500
    3AU     LIG 1428   3.948  27.126   7.165
    3AU     LIG 1429   3.640  27.317   6.856
    3AU     LIG 1430   3.178  27.257   6.748
    3AU     LIG 1431   2.690  27.311   6.748
    3AU     LIG 1432   2.245  27.534   6.782
    3AU     LIG 1433   1.817  27.642   6.559
    3AU       S 1434   4.774  27.436   6.852
    3AU     LIG 1435   4.707  27.833   6.598
    3AU     LIG 1436   4.687  28.228   6.324
    3AU     LIG 1437   4.457  28.611   6.156
    3AU     LIG 1438   4.007  28.779   6.095
    3AU     LIG 1439   3.590  29.001   6.004
    3AU     LIG 1440   3.343  29.327   5.778
    3AU    AUSL 1441   4.546  26.751   7.650
    3AU    AUSL 1442   4.586  26.493   7.314
    3AU     AUL 1443   4.436  26.763   7.242
    3AU       S 1444   4.247  26.308   7.432
    3AU     LIG 1445   3.925  26.281   7.788
    3AU     LIG 1446   3.437  26.281   7.839
    3AU     LIG 1447   2.990  26.112   7.805
    3AU     LIG 1448   2.662  25.798   7.606
    3AU     LIG 1449   2.246  25.808   7.368
    3AU     LIG 1450   1.866  25.869   7.099
    3AU       S 1451   4.361  26.792   7.723
    3AU     LIG 1452   4.066  27.029   8.001
    3AU     LIG 1453   3.610  27.112   8.193
    3AU     LIG 1454   3.135  27.192   8.128
    3AU     LIG 1455   2.805  27.559   8.130
    3AU     LIG 1456   2.353  27.711   8.087
    3AU     LIG 1457   1.947  27.650   8.324
    3AU    AUSL 1458   6.084  26.070   7.576
    3AU    AUSL 1459   5.852  26.324   7.822
    3AU     AUL 1460   6.228  26.245   7.945
    3AU       S 1461   6.249  25.815   7.564
    3AU     LIG 1462   6.535  25.560   7.807
    3AU     LIG 1463   6.964  25.388   7.690
    3AU     LIG 1464   7.387  25.183   7.598
    3AU     LIG 1465   7.721  24.841   7.471
    3AU     LIG 1466   8.001  24.421   7.433
    3AU     LIG 1467   8.411  24.161   7.387
    3AU       S 1468   6.083  25.827   8.047
    3AU     LIG 1469   6.343  25.657   8.429
    3AU     LIG 1470   6.462  25.273   8.654
    3AU     LIG 1471   6.734  24.947   8.859
    3AU     LIG 1472   7.087  24.894   9.183
    3AU     LIG 1473   7.429  24.937   9.525
    3AU     LIG 1474   7.712  24.965   9.916
    3AU    AUSL 1475   5.944  26.391   7.378
    3AU    AUSL 1476   5.862  25.939   7.261
    3AU     AUL 1477   6.239  26.188   7.230
    3AU       S 1478   6.248  25.942   7.599
    3AU     LIG 1479   6.651  25.711   7.301
    3AU     LIG 1480   7.149  25.559   7.236
    3AU     LIG 1481   7.646  25.395   7.214
    3AU     LIG 1482   8.170  25.449   7.210
    3AU     LIG 1483   8.673  25.338   7.092
    3AU     LIG 1484   9.158  25.180   6.976
    3AU       S 1485   6.121  25.729   7.086
    3AU     LIG 1486   6.047  25.295   6.844
    3AU     LIG 1487   6.239  24.909   6.582
    3AU     LIG 1488   6.494  24.548   6.342
    3AU     LIG 1489   6.695  24.073   6.321
    3AU     LIG 1490   7.045  23.741   6.185
    3AU     LIG 1491   7.483  23.682   5.975
    3AU    AUSL 1492   4.694  26.121   7.500
    3AU    AUSL 1493   4.767  26.244   7.061
    3AU     AUL 1494   4.499  26.328   7.034
    3AU       S 1495   4.678  25.906   7.061
    3AU     LIG 1496   4.202  25.900   7.008
    3AU     LIG 1497   3.905  25.638   6.736
    3AU     LIG 1498   3.624  25.352   6.457
    3AU     LIG 1499   3.336  25.050   6.207
    3AU     LIG 1500   3.096  24.897   5.836
    3AU     LIG 1501   2.977  25.016   5.390
    3AU       S 1502   4.399  26.094   7.423
    3AU     LIG 1503   4.061  25.835   7.553
    3AU     LIG 1504   3.604  25.817   7.673
    3AU     LIG 1505   3.147  25.616   7.683
    3AU     LIG 1506   2.779  25.267   7.767
    3AU     LIG 1507   2.416  24.913   7.852
    3AU     LIG 1508   2.013  24.662   7.921
    3AU    AUSL 1509   4.851  26.487   7.632
    3AU    AUSL 1510   4.919  26.139   7.867
    3AU     AUL 1511   4.550  26.271   7.814
    3AU       S 1512   4.671  25.966   8.130
    3AU     LIG 1513   4.524  25.718   7.793
    3AU     LIG 1514   4.125  25.408   7.904
    3AU     LIG 1515   3.750  25.114   8.138
    3AU     LIG 1516   3.413  24.828   8.402
    3AU     LIG 1517   3.184  24.401   8.529
    3AU     LIG 1518   3.001  24.032   8.779
    3AU       S 1519   4.295  26.375   7.457
    3AU     LIG 1520   3.780  26.213   7.314
    3AU     LIG 1521   3.293  26.132   7.367
    3AU     LIG 1522   2.817  26.265   7.357
    3AU     LIG 1523   2.417  26.237   7.648
    3AU     LIG 1524   2.087  25.959   7.845
    3AU     LIG 1525   1.612  25.955   7.933
    3AU    AUSL 1526   5.447  27.238   8.052
    3AU    AUSL 1527   5.131  27.058   7.743
    3AU     AUL 1528   5.163  27.359   8.122
    3AU       S 1529   4.762  27.194   8.268
    3AU     LIG 1530   4.800  27.689   8.244
    3AU     LIG 1531   4.589  28.004   8.533
    3AU     LIG 1532   4.542  28.398   8.792
    3AU     LIG 1533   4.272  28.762   8.968
    3AU     LIG 1534   3.868  28.991   9.059
    3AU     LIG 1535   3.394  28.970   9.155
    3AU       S 1536   5.529  27.655   8.015
    3AU     LIG 1537   5.353  27.740   8.422
    3AU     LIG 1538   5.559  28.079   8.671
    3AU     LIG 1539   5.642  28.454   8.928
    3AU     LIG 1540   5.547  28.789   9.246
    3AU     LIG 1541   5.583  29.127   9.590
    3AU     LIG 1542   5.682  29.524   9.838
    3AU    AUSL 1543   5.204  27.445   7.682
    3AU    AUSL 1544   5.666  27.419   7.299
    3AU     AUL 1545   5.328  27.678   7.454
    3AU       S 1546   5.378  27.721   7.905
    3AU     LIG 1547   5.407  28.147   8.098
    3AU     LIG 1548   5.373  28.503   8.381
    3AU     LIG 1549   5.294  28.970   8.444
    3AU     LIG 1550   4.924  29.260   8.338
    3AU     LIG 1551   4.799  29.718   8.355
    3AU     LIG 1552   4.717  30.171   8.511
    3AU       S 1553   5.742  27.731   7.220
    3AU     LIG 1554   5.948  28.118   7.054
    3AU     LIG 1555   6.048  28.346   6.653
    3AU     LIG 1556   6.198  28.765   6.501
    3AU     LIG 1557   6.231  29.260   6.544
    3AU     LIG 1558   6.250  29.762   6.546
    3AU     LIG 1559   6.236  30.264   6.552
    3AU    AUSL 1560   5.595  27.286   7.676
    3AU    AUSL 1561   5.641  26.914   7.912
    3AU     AUL 1562   5.742  27.258   8.096
    3AU       S 1563   6.144  27.087   8.215
    3AU     LIG 1564   6.241  27.247   8.634
    3AU     LIG 1565   6.485  27.453   8.973
    3AU     LIG 1566   6.778  27.689   9.254
    3AU     LIG 1567   7.096  27.868   9.555
    3AU     LIG 1568   7.160  28.143   9.936
    3AU     LIG 1569   7.261  28.530  10.185
    3AU       S 1570   5.683  27.576   7.753
    3AU     LIG 1571   5.840  27.987   7.740
    3AU     LIG 1572   6.171  28.231   7.985
    3AU     LIG 1573   6.403  28.621   8.177
    3AU     LIG 1574   6.527  29.074   8.210
    3AU     LIG 1575   6.557  29.503   8.410
    3AU     LIG 1576   6.380  29.952   8.488
    3AU    AUSL 1577   5.354  26.028   7.876
    3AU    AUSL 1578   5.753  25.926   7.756
    3AU     AUL 1579   5.531  25.834   8.132
    3AU       S 1580   5.359  25.432   8.002
    3AU     LIG 1581   5.557  25.088   8.192
    3AU     LIG 1582   5.417  24.651   8.258
    3AU     LIG 1583   5.149  24.349   8.472
    3AU     LIG 1584   5.157  23.932   8.650
    3AU     LIG 1585   4.945  23.692   9.001
    3AU     LIG 1586   4.872  23.478   9.419
    3AU       S 1587   5.892  25.680   7.859
    3AU     LIG 1588   6.154  25.283   8.100
    3AU     LIG 1589   6.325  24.875   8.360
    3AU     LIG 1590   6.518  24.501   8.627
    3AU     LIG 1591   6.702  24.034   8.700
    3AU     LIG 1592   7.063  23.711   8.807
    3AU     LIG 1593   7.547  23.632   8.874
    3AU    AUSL 1594   5.060  25.841   7.645
    3AU    AUSL 1595   5.144  26.108   8.218
    3AU     AUL 1596   5.077  25.811   7.993
    3AU       S 1597   5.166  25.374   7.867
    3AU     LIG 1598   5.080  24.963   8.002
    3AU     LIG 1599   4.944  24.530   8.017
    3AU     LIG 1600   4.810  24.101   8.139
    3AU     LIG 1601   4.482  23.755   8.105
    3AU     LIG 1602   4.429  23.298   8.067
    3AU     LIG 1603   4.192  22.916   8.166
    3AU       S 1604   4.816  25.980   8.333
    3AU     LIG 1605   4.475  25.568   8.319
    3AU     LIG 1606   4.109  25.298   8.450
    3AU     LIG 1607   3.855  24.966   8.693
    3AU     LIG 1608   3.737  24.872   9.146
    3AU     LIG 1609   3.700  24.722   9.590
    3AU     LIG 1610   3.601  24.381   9.899
    3AU    AUSL 1611   5.448  25.698   7.630
    3AU    AUSL 1612   5.170  25.788   7.257
    3AU     AUL 1613   4.991  25.595   7.507
    3AU       S 1614   5.235  25.458   7.121
    3AU     LIG 1615   4.857  25.288   7.080
    3AU     LIG 1616   4.821  24.815   7.041
    3AU     LIG 1617   4.880  24.346   7.035
    3AU     LIG 1618   4.849  23.933   6.818
    3AU     LIG 1619   4.798  23.489   6.661
    3AU     LIG 1620   4.653  23.035   6.695
    3AU       S 1621   5.412  25.543   7.732
    3AU     LIG 1622   5.488  25.054   7.671
    3AU     LIG 1623   5.389  24.580   7.743
    3AU     LIG 1624   5.326  24.187   8.026
    3AU     LIG 1625   5.530  23.784   8.125
    3AU     LIG 1626   5.723  23.402   8.324
    3AU     LIG 1627   6.175  23.244   8.337
    3AU    AUSL 1628   5.414  27.258   6.979
    3AU    AUSL 1629   5.719  27.022   7.271
    3AU     AUL 1630   5.776  27.321   7.008
    3AU       S 1631   5.470  27.620   6.832
    3AU     LIG 1632   5.712  27.932   6.614
    3AU     LIG 1633   5.706  28.249   6.263
    3AU     LIG 1634   5.788  28.620   6.002
    3AU     LIG 1635   5.795  28.877   5.598
    3AU     LIG 1636   5.907  29.241   5.309
    3AU     LIG 1637   5.704  29.628   5.105
    3AU       S 1638   6.129  27.028   6.944
    3AU     LIG 1639   6.477  27.437   6.890
    3AU     LIG 1640   6.720  27.744   6.628
    3AU     LIG 1641   6.900  28.045   6.334
    3AU     LIG 1642   7.136  28.431   6.161
    3AU     LIG 1643   7.546  28.652   6.027
    3AU     LIG 1644   7.842  29.016   6.089
    3AU    AUSL 1645   5.314  27.212   7.372
    3AU    AUSL 1646   5.192  26.937   7.078
    3AU     AUL 1647   5.156  27.417   7.116
    3AU       S 1648   5.536  27.709   7.059
    3AU     LIG 1649   5.452  28.113   7.047
    3AU     LIG 1650   5.536  28.415   6.719
    3AU     LIG 1651   5.476  28.860   6.737
    3AU     LIG 1652   5.403  29.325   6.648
    3AU     LIG 1653   5.130  29.696   6.565
    3AU     LIG 1654   4.757  29.935   6.733
    3AU       S 1655   5.018  27.253   6.705
    3AU     LIG 1656   5.109  27.576   6.407
    3AU     LIG 1657   4.860  27.810   6.063
    3AU     LIG 1658   4.633  27.967   5.651
    3AU     LIG 1659   4.504  28.194   5.233
    3AU     LIG 1660   4.285  28.487   4.911
    3AU     LIG 1661   4.002  28.783   4.661
    3AU    AUSL 1662   5.475  25.895   6.986
    3AU    AUSL 1663   5.059  26.167   7.337
    3AU     AUL 1664   5.126  25.866   6.938
    3AU       S 1665   4.710  25.786   7.170
    3AU     LIG 1666   4.387  25.514   7.301
    3AU     LIG 1667   4.026  25.263   7.074
    3AU     LIG 1668   3.698  24.978   6.807
    3AU     LIG 1669   3.374  24.677   6.564
    3AU     LIG 1670   3.144  24.290   6.360
    3AU     LIG 1671   2.939  23.935   6.120
    3AU       S 1672   5.404  25.502   6.924
    3AU     LIG 1673   5.523  25.121   6.768
    3AU     LIG 1674   5.256  24.737   6.737
    3AU     LIG 1675   5.176  24.298   6.614
    3AU     LIG 1676   5.091  23.926   6.351
    3AU     LIG 1677   5.137  23.685   5.951
    3AU     LIG 1678   4.976  23.505   5.539
    3AU    AUSL 1679   5.486  26.013   7.400
    3AU    AUSL 1680   5.629  26.246   7.093
    3AU     AUL 1681   5.675  25.743   7.203
    3AU       S 1682   5.344  25.447   7.241
    3AU     LIG 1683   5.290  24.963   7.209
    3AU     LIG 1684   5.354  24.484   7.182
    3AU     LIG 1685   5.330  24.028   7.015
    3AU     LIG 1686   5.279  23.656   6.748
    3AU     LIG 1687   5.566  23.327   6.644
    3AU     LIG 1688   6.000  23.292   6.804
    3AU       S 1689   5.904  25.785   6.815
    3AU     LIG 1690   5.737  25.553   6.510
    3AU     LIG 1691   5.945  25.205   6.282
    3AU     LIG 1692   6.196  24.868   6.030
    3AU     LIG 1693   6.412  24.651   5.642
    3AU     LIG 1694   6.488  24.348   5.251
    3AU     LIG 1695   6.734  24.079   4.924
    4AU     AUC 1696  30.536  23.644   7.509
    4AU     AUC 1697  30.795  23.639   7.348
    4AU     AUC 1698  30.782  23.626   7.666
    4AU     AUC 1699  30.287  23.651   7.343
    4AU     AUC 1700  30.275  23.671   7.662
    4AU     AUC 1701  30.394  23.905   7.508
    4AU     AUC 1702  30.701  23.893   7.497
    4AU     AUC 1703  30.370  23.401   7.519
    4AU     AUC 1704  30.670  23.376   7.524
    4AU     AUC 1705  30.529  23.491   7.768
    4AU     AUC 1706  30.552  23.803   7.768
    4AU     AUC 1707  30.531  23.485   7.248
    4AU     AUC 1708  30.538  23.789   7.249
    4AU     AUC 1709  31.052  23.632   7.191
    4AU     AUC 1710  31.053  23.631   7.494
    4AU     AUC 1711  31.037  23.622   7.821
    4AU     AUC 1712  30.030  23.648   7.188
    4AU     AUC 1713  30.019  23.677   7.491
    4AU     AUC 1714  30.024  23.701   7.818
    4AU     AUC 1715  30.256  24.173   7.511
    4AU     AUC 1716  30.568  24.166   7.508
    4AU     AUC 1717  30.872  24.151   7.499
    4AU     AUC 1718  30.187  23.155   7.526
    4AU     AUC 1719  30.495  23.124   7.512
    4AU     AUC 1720  30.810  23.111   7.531
    4AU     AUC 1721  30.527  23.342   8.021
    4AU     AUC 1722  30.548  23.650   8.038
    4AU     AUC 1723  30.560  23.953   8.028
    4AU     AUC 1724  30.531  23.307   7.011
    4AU     AUC 1725  30.542  23.622   6.985
    4AU     AUC 1726  30.541  23.937   6.989
    4AU     AUC 1727  30.794  23.482   7.933
    4AU     AUC 1728  30.807  23.785   7.935
    4AU     AUC 1729  30.805  23.469   7.091
    4AU     AUC 1730  30.811  23.774   7.079
    4AU     AUC 1731  30.265  23.527   7.935
    4AU     AUC 1732  30.286  23.829   7.935
    4AU     AUC 1733  30.284  23.487   7.078
    4AU     AUC 1734  30.281  23.796   7.084
    4AU     AUC 1735  30.960  23.892   7.330
    4AU     AUC 1736  30.966  23.873   7.662
    4AU     AUC 1737  30.128  23.917   7.353
    4AU     AUC 1738  30.136  23.938   7.673
    4AU     AUC 1739  30.948  23.365   7.369
    4AU     AUC 1740  30.919  23.341   7.671
    4AU     AUC 1741  30.110  23.399   7.351
    4AU     AUC 1742  30.106  23.426   7.693
    4AU     AUC 1743  30.399  24.067   7.779
    4AU     AUC 1744  30.719  24.066   7.750
    4AU     AUC 1745  30.335  23.238   7.767
    4AU     AUC 1746  30.652  23.216   7.780
    4AU     AUC 1747  30.394  24.062   7.247
    4AU     AUC 1748  30.712  24.041   7.236
    4AU     AUC 1749  30.357  23.240   7.249
    4AU     AUC 1750  30.687  23.219   7.268
    4AU    AUSL 1751  31.036  23.533   8.187
    4AU    AUSL 1752  30.809  23.160   8.131
    4AU     AUL 1753  31.118  23.224   8.373
    4AU       S 1754  31.122  22.821   8.136
    4AU     LIG 1755  30.972  22.516   8.355
    4AU     LIG 1756  31.139  22.260   8.683
    4AU     LIG 1757  31.368  21.980   8.966
    4AU     LIG 1758  31.535  21.695   9.299
    4AU     LIG 1759  31.509  21.477   9.733
    4AU     LIG 1760  31.596  21.288  10.162
    4AU       S 1761  31.000  23.593   8.636
    4AU     LIG 1762  31.032  23.715   9.024
    4AU     LIG 1763  31.235  23.443   9.336
    4AU     LIG 1764  31.516  23.201   9.616
    4AU     LIG 1765  31.917  23.179   9.865
    4AU     LIG 1766  32.247  23.388  10.139
    4AU     LIG 1767  32.391  23.594  10.536
    4AU    AUSL 1768  30.647  23.481   8.331
    4AU    AUSL 1769  30.457  23.847   8.286
    4AU     AUL 1770  30.575  23.806   8.694
    4AU       S 1771  30.717  23.420   8.513
    4AU     LIG 1772  30.656  23.331   8.920
    4AU     LIG 1773  30.826  23.121   9.298
    4AU     LIG 1774  31.061  22.937   9.671
    4AU     LIG 1775  31.262  22.717  10.045
    4AU     LIG 1776  31.294  22.611  10.513
    4AU     LIG 1777  31.287  22.512  10.975
    4AU       S 1778  30.201  23.564   8.641
    4AU     LIG 1779  30.204  23.495   9.100
    4AU     LIG 1780  29.983  23.415   9.509
    4AU     LIG 1781  29.792  23.382   9.947
    4AU     LIG 1782  29.726  23.673  10.336
    4AU     LIG 1783  29.665  23.992  10.700
    4AU     LIG 1784  29.459  24.249  11.050
    4AU    AUSL 1785  30.854  23.886   8.289
    4AU    AUSL 1786  31.186  23.870   8.005
    4AU     AUL 1787  31.293  23.688   8.283
    4AU       S 1788  30.917  23.927   8.432
    4AU     LIG 1789  30.945  24.277   8.658
    4AU     LIG 1790  31.150  24.342   9.100
    4AU     LIG 1791  31.242  24.377   9.589
    4AU     LIG 1792  31.167  24.525  10.059
    4AU     LIG 1793  31.234  24.674  10.518
    4AU     LIG 1794  31.356  24.583  10.971
    4AU       S 1795  31.421  24.132   8.166
    4AU     LIG 1796  31.805  24.258   8.301
    4AU     LIG 1797  31.991  24.216   8.709
    4AU     LIG 1798  32.206  24.443   9.033
    4AU     LIG 1799  32.444  24.629   9.385
    4AU     LIG 1800  32.805  24.680   9.700
    4AU     LIG 1801  33.223  24.701   9.942
    4AU    AUSL 1802  31.062  23.646   6.866
    4AU    AUSL 1803  30.835  24.056   6.830
    4AU     AUL 1804  31.193  23.994   6.456
    4AU       S 1805  31.112  23.671   6.723
    4AU     LIG 1806  31.372  23.551   6.322
    4AU     LIG 1807  31.395  23.336   5.912
    4AU     LIG 1808  31.553  23.235   5.469
    4AU     LIG 1809  31.863  23.119   5.106
    4AU     LIG 1810  32.241  23.030   4.797
    4AU     LIG 1811  32.519  23.063   4.400
    4AU       S 1812  30.834  24.126   6.661
    4AU     LIG 1813  31.132  24.484   6.587
    4AU     LIG 1814  31.512  24.542   6.331
    4AU     LIG 1815  31.836  24.745   6.021
    4AU     LIG 1816  32.024  24.938   5.598
    4AU     LIG 1817  32.149  25.255   5.236
    4AU     LIG 1818  32.308  25.357   4.786
    4AU    AUSL 1819  30.786  23.348   6.708
    4AU    AUSL 1820  31.173  23.289   7.021
    4AU     AUL 1821  31.147  23.250   6.642
    4AU       S 1822  31.321  22.902   6.902
    4AU     LIG 1823  31.384  22.677   6.497
    4AU     LIG 1824  31.590  22.311   6.293
    4AU     LIG 1825  31.834  22.030   6.001
    4AU     LIG 1826  32.236  22.038   5.727
    4AU     LIG 1827  32.635  22.050   5.450
    4AU     LIG 1828  33.015  22.063   5.150
    4AU       S 1829  30.883  23.590   6.436
    4AU     LIG 1830  30.932  23.206   6.185
    4AU     LIG 1831  31.024  23.006   5.759
    4AU     LIG 1832  31.144  22.968   5.296
    4AU     LIG 1833  31.055  22.753   4.865
    4AU     LIG 1834  31.108  22.654   4.388
    4AU     LIG 1835  31.279  22.796   3.952
    4AU    AUSL 1836  30.658  23.702   6.890
    4AU    AUSL 1837  30.390  23.464   6.685
    4AU     AUL 1838  30.572  23.264   6.555
    4AU       S 1839  30.248  23.565   6.359
    4AU     LIG 1840  30.265  23.160   6.149
    4AU     LIG 1841  30.091  22.940   5.740
    4AU     LIG 1842  29.869  22.837   5.303
    4AU     LIG 1843  29.561  22.703   4.930
    4AU     LIG 1844  29.484  22.534   4.480
    4AU     LIG 1845  29.361  22.687   4.039
    4AU       S 1846  30.798  23.685   6.498
    4AU     LIG 1847  30.978  23.671   5.974
    4AU     LIG 1848  31.073  23.470   5.530
    4AU     LIG 1849  31.262  23.467   5.083
    4AU     LIG 1850  31.336  23.737   4.668
    4AU     LIG 1851  31.431  23.948   4.230
    4AU     LIG 1852  31.682  24.049   3.818
    4AU    AUSL 1853  30.076  23.726   8.223
    4AU    AUSL 1854  30.213  24.134   8.143
    4AU     AUL 1855  30.270  24.049   8.458
    4AU       S 1856  30.005  23.709   8.650
    4AU     LIG 1857  29.788  23.328   8.846
    4AU     LIG 1858  29.605  23.161   9.267
    4AU     LIG 1859  29.410  23.105   9.707
    4AU     LIG 1860  29.168  23.083  10.118
    4AU     LIG 1861  28.830  23.257  10.401
    4AU     LIG 1862  28.566  23.512  10.701
    4AU       S 1863  29.815  24.098   8.361
    4AU     LIG 1864  29.857  24.334   8.758
    4AU     LIG 1865  29.765  24.652   9.102
    4AU     LIG 1866  29.554  24.978   9.369
    4AU     LIG 1867  29.407  25.186   9.778
    4AU     LIG 1868  29.250  25.437  10.166
    4AU     LIG 1869  29.036  25.731  10.498
    4AU    AUSL 1870  30.368  23.512   8.042
    4AU    AUSL 1871  29.822  23.507   7.993
    4AU     AUL 1872  29.931  23.498   8.247
    4AU       S 1873  29.661  23.124   8.226
    4AU     LIG 1874  29.301  22.960   8.002
    4AU     LIG 1875  28.966  22.665   8.143
    4AU     LIG 1876  28.767  22.385   8.481
    4AU     LIG 1877  28.566  22.107   8.809
    4AU     LIG 1878  28.259  21.942   9.129
    4AU     LIG 1879  27.882  22.003   9.422
    4AU       S 1880  30.248  23.452   8.579
    4AU     LIG 1881  30.228  23.066   8.775
    4AU     LIG 1882  30.094  22.989   9.220
    4AU     LIG 1883  29.897  22.928   9.661
    4AU     LIG 1884  29.668  22.833  10.076
    4AU     LIG 1885  29.605  22.661  10.523
    4AU     LIG 1886  29.606  22.709  10.988
    4AU    AUSL 1887  30.109  23.618   6.931
    4AU    AUSL 1888  30.277  23.174   6.943
    4AU     AUL 1889  30.094  23.259   6.667
    4AU       S 1890  30.009  23.577   6.346
    4AU     LIG 1891  29.804  23.335   6.026
    4AU     LIG 1892  29.642  23.183   5.630
    4AU     LIG 1893  29.389  23.064   5.257
    4AU     LIG 1894  29.038  22.964   4.949
    4AU     LIG 1895  28.621  23.105   4.777
    4AU     LIG 1896  28.481  23.349   4.408
    4AU       S 1897  29.831  22.884   6.836
    4AU     LIG 1898  29.574  22.522   6.763
    4AU     LIG 1899  29.269  22.274   6.502
    4AU     LIG 1900  28.990  22.022   6.205
    4AU     LIG 1901  28.794  21.820   5.815
    4AU     LIG 1902  28.881  21.619   5.369
    4AU     LIG 1903  28.955  21.532   4.896
    4AU    AUSL 1904  30.365  23.894   6.686
    4AU    AUSL 1905  29.910  23.971   6.970
    4AU     AUL 1906  29.973  23.844   6.706
    4AU       S 1907  29.784  24.267   6.772
    4AU     LIG 1908  29.453  24.486   6.525
    4AU     LIG 1909  29.406  24.573   6.059
    4AU     LIG 1910  29.036  24.569   5.743
    4AU     LIG 1911  28.772  24.740   5.373
    4AU     LIG 1912  28.436  25.025   5.187
    4AU     LIG 1913  28.105  25.238   4.915
    4AU       S 1914  30.341  23.729   6.442
    4AU     LIG 1915  30.462  23.594   5.942
    4AU     LIG 1916  30.126  23.439   5.620
    4AU     LIG 1917  29.855  23.389   5.207
    4AU     LIG 1918  29.693  23.601   4.785
    4AU     LIG 1919  29.570  23.818   4.351
    4AU     LIG 1920  29.350  24.029   3.958
    4AU    AUSL 1921  31.229  24.149   7.432
    4AU    AUSL 1922  31.180  23.983   7.055
    4AU     AUL 1923  31.288  24.420   7.274
    4AU       S 1924  31.310  24.119   6.881
    4AU     LIG 1925  31.684  24.082   6.619
    4AU     LIG 1926  31.968  24.295   6.284
    4AU     LIG 1927  32.264  24.459   5.933
    4AU     LIG 1928  32.679  24.489   5.686
    4AU     LIG 1929  33.052  24.569   5.400
    4AU     LIG 1930  33.324  24.782   5.070
    4AU       S 1931  31.635  24.116   7.292
    4AU     LIG 1932  32.064  24.345   7.289
    4AU     LIG 1933  32.537  24.336   7.420
    4AU     LIG 1934  33.017  24.396   7.517
    4AU     LIG 1935  33.422  24.679   7.531
    4AU     LIG 1936  33.695  25.090   7.616
    4AU     LIG 1937  33.890  25.440   7.901
    4AU    AUSL 1938  31.366  23.713   7.296
    4AU    AUSL 1939  31.361  23.501   7.721
    4AU     AUL 1940  31.630  23.527   7.528
    4AU       S 1941  31.620  23.820   7.161
    4AU     LIG 1942  32.054  23.906   7.021
    4AU     LIG 1943  32.523  23.908   7.134
    4AU     LIG 1944  32.997  23.971   7.227
    4AU     LIG 1945  33.472  24.081   7.330
    4AU     LIG 1946  33.959  24.184   7.350
    4AU     LIG 1947  34.403  24.357   7.216
    4AU       S 1948  31.674  23.079   7.692
    4AU     LIG 1949  32.084  22.849   7.677
    4AU     LIG 1950  32.494  22.602   7.687
    4AU     LIG 1951  32.924  22.398   7.691
    4AU     LIG 1952  33.402  22.376   7.714
    4AU     LIG 1953  33.837  22.407   7.877
    4AU     LIG 1954  34.138  22.649   8.162
    4AU    AUSL 1955  31.115  23.805   7.616
    4AU    AUSL 1956  31.084  24.218   7.803
    4AU     AUL 1957  31.402  23.983   7.726
    4AU       S 1958  31.312  24.355   7.980
    4AU     LIG 1959  31.430  24.638   8.326
    4AU     LIG 1960  31.802  24.692   8.636
    4AU     LIG 1961  32.136  24.949   8.887
    4AU     LIG 1962  32.367  25.388   8.941
    4AU     LIG 1963  32.577  25.840   8.914
    4AU     LIG 1964  32.929  26.146   9.048
    4AU       S 1965  31.724  23.983   7.412
    4AU     LIG 1966  32.186  23.908   7.537
    4AU     LIG 1967  32.672  23.891   7.639
    4AU     LIG 1968  33.150  23.923   7.721
    4AU     LIG 1969  33.623  23.906   7.792
    4AU     LIG 1970  34.040  24.101   7.877
    4AU     LIG 1971  34.380  24.391   7.728
    4AU    AUSL 1972  29.898  24.208   7.582
    4AU    AUSL 1973  29.931  23.947   7.915
    4AU     AUL 1974  29.896  24.403   7.840
    4AU       S 1975  29.714  24.027   8.102
    4AU     LIG 1976  29.382  24.312   8.388
    4AU     LIG 1977  29.352  24.486   8.835
    4AU     LIG 1978  29.200  24.602   9.286
    4AU     LIG 1979  28.865  24.653   9.656
    4AU     LIG 1980  28.448  24.735   9.918
    4AU     LIG 1981  28.076  24.907  10.195
    4AU       S 1982  29.509  24.244   7.658
    4AU     LIG 1983  29.484  24.667   7.492
    4AU     LIG 1984  29.219  25.061   7.606
    4AU     LIG 1985  28.819  25.312   7.481
    4AU     LIG 1986  28.332  25.456   7.501
    4AU     LIG 1987  27.846  25.619   7.489
    4AU     LIG 1988  27.395  25.655   7.643
    4AU    AUSL 1989  29.961  23.875   7.354
    4AU    AUSL 1990  30.075  24.290   7.219
    4AU     AUL 1991  29.781  24.217   7.246
    4AU       S 1992  29.389  24.154   7.485
    4AU     LIG 1993  29.327  24.397   7.057
    4AU     LIG 1994  28.925  24.562   6.800
    4AU     LIG 1995  28.460  24.771   6.835
    4AU     LIG 1996  27.976  24.947   6.830
    4AU     LIG 1997  27.482  24.978   6.871
    4AU     LIG 1998  27.111  24.843   6.589
    4AU       S 1999  29.901  24.486   6.871
    4AU     LIG 2000  29.783  24.860   6.656
    4AU     LIG 2001  29.631  25.072   6.280
    4AU     LIG 2002  29.645  25.535   6.125
    4AU     LIG 2003  29.381  25.879   5.929
    4AU     LIG 2004  28.974  26.132   5.846
    4AU     LIG 2005  28.668  26.425   5.595
    4AU    AUSL 2006  29.678  23.807   7.645
    4AU    AUSL 2007  29.720  23.549   7.310
    4AU     AUL 2008  29.568  23.813   7.239
    4AU       S 2009  29.376  23.357   7.437
    4AU     LIG 2010  28.977  23.272   7.712
    4AU     LIG 2011  28.475  23.225   7.738
    4AU     LIG 2012  28.006  23.074   7.746
    4AU     LIG 2013  27.638  22.868   7.497
    4AU     LIG 2014  27.202  22.699   7.325
    4AU     LIG 2015  26.714  22.733   7.200
    4AU       S 2016  29.493  23.847   7.713
    4AU     LIG 2017  29.190  24.037   7.995
    4AU     LIG 2018  28.789  24.262   8.159
    4AU     LIG 2019  28.299  24.362   8.191
    4AU     LIG 2020  27.808  24.450   8.186
    4AU     LIG 2021  27.346  24.514   8.293
    4AU     LIG 2022  27.015  24.860   8.314
    4AU    AUSL 2023  31.221  23.129   7.583
    4AU    AUSL 2024  30.986  23.384   7.827
    4AU     AUL 2025  31.363  23.311   7.954
    4AU       S 2026  31.395  22.867   7.576
    4AU     LIG 2027  31.688  22.529   7.643
    4AU     LIG 2028  32.108  22.296   7.549
    4AU     LIG 2029  32.553  22.073   7.506
    4AU     LIG 2030  32.847  21.679   7.570
    4AU     LIG 2031  33.299  21.534   7.621
    4AU     LIG 2032  33.691  21.357   7.844
    4AU       S 2033  31.219  22.895   8.057
    4AU     LIG 2034  31.513  22.613   8.338
    4AU     LIG 2035  31.659  22.312   8.669
    4AU     LIG 2036  31.883  22.003   8.943
    4AU     LIG 2037  32.242  21.855   9.189
    4AU     LIG 2038  32.614  21.926   9.475
    4AU     LIG 2039  32.970  21.906   9.789
    4AU    AUSL 2040  31.078  23.448   7.381
    4AU    AUSL 2041  30.999  22.994   7.269
    4AU     AUL 2042  31.373  23.240   7.232
    4AU       S 2043  31.382  23.007   7.608
    4AU     LIG 2044  31.760  22.872   7.249
    4AU     LIG 2045  32.224  22.672   7.213
    4AU     LIG 2046  32.694  22.500   7.224
    4AU     LIG 2047  33.181  22.535   7.256
    4AU     LIG 2048  33.604  22.341   7.224
    4AU     LIG 2049  34.068  22.385   7.249
    4AU       S 2050  31.258  22.783   7.096
    4AU     LIG 2051  31.146  22.369   6.845
    4AU     LIG 2052  31.342  21.990   6.609
    4AU     LIG 2053  31.651  21.692   6.377
    4AU     LIG 2054  31.903  21.263   6.365
    4AU     LIG 2055  32.261  20.962   6.260
    4AU     LIG 2056  32.449  20.692   5.935
    4AU    AUSL 2057  29.827  23.177   7.502
    4AU    AUSL 2058  29.907  23.294   7.068
    4AU     AUL 2059  29.633  23.370   7.037
    4AU       S 2060  29.822  22.953   7.071
    4AU     LIG 2061  29.351  22.928   7.005
    4AU     LIG 2062  29.038  22.680   6.742
    4AU     LIG 2063  28.770  22.444   6.404
    4AU     LIG 2064  28.514  22.237   6.042
    4AU     LIG 2065  28.140  22.301   5.723
    4AU     LIG 2066  27.770  22.225   5.410
    4AU       S 2067  29.532  23.142   7.429
    4AU     LIG 2068  29.202  22.856   7.501
    4AU     LIG 2069  28.729  22.849   7.483
    4AU     LIG 2070  28.249  22.757   7.420
    4AU     LIG 2071  27.871  22.424   7.415
    4AU     LIG 2072  27.420  22.211   7.375
    4AU     LIG 2073  27.141  21.839   7.247
    4AU    AUSL 2074  29.984  23.543   7.631
    4AU    AUSL 2075  30.055  23.196   7.865
    4AU     AUL 2076  29.679  23.344   7.810
    4AU       S 2077  29.809  23.018   8.095
    4AU     LIG 2078  29.695  22.756   7.753
    4AU     LIG 2079  29.330  22.446   7.842
    4AU     LIG 2080  29.003  22.138   8.089
    4AU     LIG 2081  28.724  21.843   8.385
    4AU     LIG 2082  28.497  21.463   8.605
    4AU     LIG 2083  28.184  21.155   8.815
    4AU       S 2084  29.418  23.430   7.454
    4AU     LIG 2085  28.971  23.239   7.205
    4AU     LIG 2086  28.478  23.234   7.221
    4AU     LIG 2087  28.008  23.202   7.254
    4AU     LIG 2088  27.641  23.377   7.484
    4AU     LIG 2089  27.232  23.172   7.632
    4AU     LIG 2090  26.871  22.845   7.690
    4AU    AUSL 2091  30.570  24.299   8.045
    4AU    AUSL 2092  30.263  24.117   7.742
    4AU     AUL 2093  30.280  24.421   8.110
    4AU       S 2094  29.888  24.235   8.263
    4AU     LIG 2095  29.788  24.640   8.336
    4AU     LIG 2096  29.619  24.911   8.679
    4AU     LIG 2097  29.558  25.301   8.945
    4AU     LIG 2098  29.361  25.722   9.056
    4AU     LIG 2099  29.002  26.019   9.183
    4AU     LIG 2100  28.581  26.249   9.224
    4AU       S 2101  30.650  24.706   8.000
    4AU     LIG 2102  30.846  24.758   8.389
    4AU     LIG 2103  30.912  25.192   8.580
    4AU     LIG 2104  30.810  25.584   8.844
    4AU     LIG 2105  30.754  25.839   9.263
    4AU     LIG 2106  30.699  26.226   9.537
    4AU     LIG 2107  30.725  26.555   9.866
    4AU    AUSL 2108  30.334  24.502   7.665
    4AU    AUSL 2109  30.798  24.472   7.292
    4AU     AUL 2110  30.490  24.735   7.445
    4AU       S 2111  30.500  24.789   7.901
    4AU     LIG 2112  30.660  25.197   8.123
    4AU     LIG 2113  30.525  25.613   8.333
    4AU     LIG 2114  30.339  26.070   8.313
    4AU     LIG 2115  30.543  26.488   8.341
    4AU     LIG 2116  30.426  26.931   8.341
    4AU     LIG 2117  30.187  27.242   8.576
    4AU       S 2118  30.855  24.809   7.144
    4AU     LIG 2119  31.146  25.076   6.902
    4AU     LIG 2120  31.208  25.537   6.769
    4AU     LIG 2121  31.492  25.954   6.794
    4AU     LIG 2122  31.607  26.433   6.776
    4AU     LIG 2123  31.808  26.845   6.599
    4AU     LIG 2124  31.740  27.278   6.408
    4AU    AUSL 2125  30.727  24.344   7.671
    4AU    AUSL 2126  30.771  23.975   7.913
    4AU     AUL 2127  30.867  24.318   8.096
    4AU       S 2128  31.269  24.156   8.227
    4AU     LIG 2129  31.455  24.254   8.674
    4AU     LIG 2130  31.672  24.437   9.068
    4AU     LIG 2131  31.922  24.749   9.328
    4AU     LIG 2132  32.180  25.005   9.633
    4AU     LIG 2133  32.217  25.258  10.035
    4AU     LIG 2134  32.290  25.524  10.428
    4AU       S 2135  30.828  24.639   7.757
    4AU     LIG 2136  31.110  24.936   7.993
    4AU     LIG 2137  31.190  25.387   8.169
    4AU     LIG 2138  31.482  25.800   8.197
    4AU     LIG 2139  31.683  26.255   8.218
    4AU     LIG 2140  31.518  26.664   8.390
    4AU     LIG 2141  31.486  27.128   8.348
    4AU    AUSL 2142  30.490  23.084   7.882
    4AU    AUSL 2143  30.889  22.985   7.763
    4AU     AUL 2144  30.669  22.897   8.149
    4AU       S 2145  30.513  22.491   8.009
    4AU     LIG 2146  30.557  22.084   8.159
    4AU     LIG 2147  30.270  21.783   8.335
    4AU     LIG 2148  30.010  21.445   8.484
    4AU     LIG 2149  30.071  21.001   8.547
    4AU     LIG 2150  30.278  20.718   8.864
    4AU     LIG 2151  30.266  20.589   9.327
    4AU       S 2152  31.019  22.771   7.860
    4AU     LIG 2153  31.258  22.391   7.922
    4AU     LIG 2154  31.400  22.108   8.263
    4AU     LIG 2155  31.618  21.796   8.550
    4AU     LIG 2156  31.869  21.478   8.822
    4AU     LIG 2157  32.076  21.022   8.876
    4AU     LIG 2158  32.483  20.797   8.995
    4AU    AUSL 2159  30.196  22.893   7.652
    4AU    AUSL 2160  30.274  23.169   8.219
    4AU     AUL 2161  30.225  22.869   8.003
    4AU       S 2162  30.294  22.434   7.887
    4AU     LIG 2163  30.067  22.051   7.925
    4AU     LIG 2164  29.931  21.597   7.988
    4AU     LIG 2165  29.804  21.154   8.097
    4AU     LIG 2166  29.486  20.809   8.171
    4AU     LIG 2167  29.454  20.349   8.277
    4AU     LIG 2168  29.453  19.922   8.446
    4AU       S 2169  29.950  23.041   8.328
    4AU     LIG 2170  29.658  22.602   8.272
    4AU     LIG 2171  29.297  22.371   8.435
    4AU     LIG 2172  29.087  22.034   8.691
    4AU     LIG 2173  28.850  21.686   8.910
    4AU     LIG 2174  28.700  21.507   9.317
    4AU     LIG 2175  28.729  21.434   9.791
    4AU    AUSL 2176  30.586  22.754   7.636
    4AU    AUSL 2177  30.309  22.840   7.264
    4AU     AUL 2178  30.139  22.641   7.509
    4AU       S 2179  30.387  22.497   7.129
    4AU     LIG 2180  30.000  22.336   7.047
    4AU     LIG 2181  29.906  21.850   6.978
    4AU     LIG 2182  29.836  21.350   6.983
    4AU     LIG 2183  29.827  20.890   6.820
    4AU     LIG 2184  29.631  20.437   6.749
    4AU     LIG 2185  29.479  19.988   6.629
    4AU       S 2186  30.552  22.599   7.742
    4AU     LIG 2187  30.542  22.115   7.624
    4AU     LIG 2188  30.426  21.687   7.837
    4AU     LIG 2189  30.347  21.293   8.123
    4AU     LIG 2190  30.519  20.879   8.321
    4AU     LIG 2191  30.679  20.453   8.484
    4AU     LIG 2192  30.782  19.981   8.495
    4AU    AUSL 2193  30.547  24.303   6.974
    4AU    AUSL 2194  30.857  24.075   7.273
    4AU     AUL 2195  30.918  24.375   7.018
    4AU       S 2196  30.599  24.623   6.792
    4AU     LIG 2197  30.838  24.907   6.532
    4AU     LIG 2198  30.953  25.319   6.339
    4AU     LIG 2199  30.963  25.576   5.926
    4AU     LIG 2200  30.980  25.823   5.512
    4AU     LIG 2201  30.943  26.260   5.332
    4AU     LIG 2202  30.918  26.729   5.311
    4AU       S 2203  31.269  24.078   6.952
    4AU     LIG 2204  31.587  24.511   6.870
    4AU     LIG 2205  31.919  24.724   6.583
    4AU     LIG 2206  32.143  25.062   6.319
    4AU     LIG 2207  32.348  25.506   6.273
    4AU     LIG 2208  32.645  25.875   6.210
    4AU     LIG 2209  32.900  26.219   5.997
    4AU    AUSL 2210  30.451  24.256   7.366
    4AU    AUSL 2211  30.312  23.990   7.070
    4AU     AUL 2212  30.291  24.473   7.120
    4AU       S 2213  30.653  24.759   7.021
    4AU     LIG 2214  30.645  25.208   6.904
    4AU     LIG 2215  30.657  25.602   6.674
    4AU     LIG 2216  30.400  25.981   6.560
    4AU     LIG 2217  30.503  26.416   6.459
    4AU     LIG 2218  30.313  26.823   6.489
    4AU     LIG 2219  30.073  27.089   6.199
    4AU       S 2220  30.132  24.306   6.714
    4AU     LIG 2221  29.927  24.494   6.320
    4AU     LIG 2222  29.883  24.763   5.923
    4AU     LIG 2223  29.990  24.927   5.474
    4AU     LIG 2224  29.815  25.202   5.113
    4AU     LIG 2225  29.391  25.386   4.955
    4AU     LIG 2226  29.103  25.669   4.693
    4AU    AUSL 2227  30.612  22.948   6.992
    4AU    AUSL 2228  30.196  23.218   7.344
    4AU     AUL 2229  30.271  22.907   6.956
    4AU       S 2230  29.849  22.835   7.184
    4AU     LIG 2231  29.545  22.531   7.280
    4AU     LIG 2232  29.196  22.291   7.040
    4AU     LIG 2233  28.865  22.068   6.743
    4AU     LIG 2234  28.554  21.856   6.424
    4AU     LIG 2235  28.319  21.459   6.256
    4AU     LIG 2236  28.246  21.027   6.046
    4AU       S 2237  30.553  22.547   6.931
    4AU     LIG 2238  30.626  22.196   6.703
    4AU     LIG 2239  30.304  21.867   6.630
    4AU     LIG 2240  30.106  21.449   6.560
    4AU     LIG 2241  30.061  21.024   6.375
    4AU     LIG 2242  30.024  20.788   5.967
    4AU     LIG 2243  30.167  20.688   5.527
    4AU    AUSL 2244  30.623  23.069   7.406
    4AU    AUSL 2245  30.765  23.300   7.097
    4AU     AUL 2246  30.813  22.799   7.210
    4AU       S 2247  30.495  22.489   7.249
    4AU     LIG 2248  30.397  21.998   7.136
    4AU     LIG 2249  30.331  21.522   7.022
    4AU     LIG 2250  30.353  21.057   6.833
    4AU     LIG 2251  30.630  20.621   6.774
    4AU     LIG 2252  30.789  20.134   6.769
    4AU     LIG 2253  30.858  19.659   6.625
    4AU       S 2254  31.037  22.854   6.819
    4AU     LIG 2255  30.854  22.657   6.508
    4AU     LIG 2256  31.050  22.288   6.307
    4AU     LIG 2257  31.303  21.948   6.072
    4AU     LIG 2258  31.495  21.712   5.702
    4AU     LIG 2259  31.536  21.437   5.298
    4AU     LIG 2260  31.784  21.228   4.939
    5AU     AUC 2261  25.677  11.850   7.530
    5AU     AUC 2262  25.937  11.848   7.376
    5AU     AUC 2263  25.922  11.842   7.689
    5AU     AUC 2264  25.428  11.847   7.367
    5AU     AUC 2265  25.416  11.869   7.682
    5AU     AUC 2266  25.526  12.106   7.525
    5AU     AUC 2267  25.838  12.104   7.514
    5AU     AUC 2268  25.520  11.599   7.540
    5AU     AUC 2269  25.815  11.582   7.548
    5AU     AUC 2270  25.673  11.700   7.789
    5AU     AUC 2271  25.688  12.010   7.785
    5AU     AUC 2272  25.678  11.687   7.270
    5AU     AUC 2273  25.670  11.986   7.268
    5AU     AUC 2274  26.193  11.847   7.215
    5AU     AUC 2275  26.194  11.865   7.520
    5AU     AUC 2276  26.179  11.854   7.835
    5AU     AUC 2277  25.169  11.833   7.212
    5AU     AUC 2278  25.159  11.866   7.514
    5AU     AUC 2279  25.165  11.895   7.840
    5AU     AUC 2280  25.381  12.371   7.519
    5AU     AUC 2281  25.691  12.373   7.515
    5AU     AUC 2282  25.985  12.367   7.517
    5AU     AUC 2283  25.339  11.346   7.548
    5AU     AUC 2284  25.655  11.327   7.534
    5AU     AUC 2285  25.974  11.328   7.549
    5AU     AUC 2286  25.678  11.551   8.042
    5AU     AUC 2287  25.691  11.861   8.056
    5AU     AUC 2288  25.691  12.171   8.040
    5AU     AUC 2289  25.685  11.512   7.036
    5AU     AUC 2290  25.689  11.824   7.008
    5AU     AUC 2291  25.676  12.137   7.005
    5AU     AUC 2292  25.937  11.699   7.955
    5AU     AUC 2293  25.948  12.003   7.950
    5AU     AUC 2294  25.952  11.679   7.115
    5AU     AUC 2295  25.951  11.984   7.102
    5AU     AUC 2296  25.412  11.728   7.957
    5AU     AUC 2297  25.424  12.035   7.953
    5AU     AUC 2298  25.433  11.679   7.100
    5AU     AUC 2299  25.417  11.986   7.102
    5AU     AUC 2300  26.096  12.112   7.359
    5AU     AUC 2301  26.109  12.095   7.681
    5AU     AUC 2302  25.259  12.105   7.370
    5AU     AUC 2303  25.268  12.132   7.689
    5AU     AUC 2304  26.094  11.584   7.392
    5AU     AUC 2305  26.075  11.569   7.691
    5AU     AUC 2306  25.255  11.591   7.375
    5AU     AUC 2307  25.257  11.617   7.717
    5AU     AUC 2308  25.529  12.276   7.790
    5AU     AUC 2309  25.845  12.282   7.765
    5AU     AUC 2310  25.493  11.437   7.786
    5AU     AUC 2311  25.813  11.428   7.801
    5AU     AUC 2312  25.520  12.258   7.260
    5AU     AUC 2313  25.838  12.249   7.251
    5AU     AUC 2314  25.508  11.439   7.272
    5AU     AUC 2315  25.837  11.423   7.292
    5AU    AUSL 2316  26.201  11.744   8.224
    5AU    AUSL 2317  25.963  11.374   8.154
    5AU     AUL 2318  26.104  11.326   8.518
    5AU       S 2319  26.347  11.167   8.175
    5AU     LIG 2320  26.164  10.821   8.475
    5AU     LIG 2321  26.174  10.400   8.690
    5AU     LIG 2322  26.433  10.144   8.982
    5AU     LIG 2323  26.611   9.922   9.335
    5AU     LIG 2324  26.854   9.892   9.722
    5AU     LIG 2325  26.901   9.568  10.046
    5AU       S 2326  26.272  11.688   8.313
    5AU     LIG 2327  26.285  11.671   8.820
    5AU     LIG 2328  26.521  11.496   9.225
    5AU     LIG 2329  26.786  11.331   9.606
    5AU     LIG 2330  27.123  11.254   9.947
    5AU     LIG 2331  27.459  11.404  10.257
    5AU     LIG 2332  27.617  11.767  10.537
    5AU    AUSL 2333  25.800  11.702   8.343
    5AU    AUSL 2334  25.594  12.062   8.309
    5AU     AUL 2335  25.755  12.043   8.716
    5AU       S 2336  25.842  11.683   8.486
    5AU     LIG 2337  25.785  11.533   8.892
    5AU     LIG 2338  26.033  11.326   9.228
    5AU     LIG 2339  26.279  11.212   9.633
    5AU     LIG 2340  26.376  11.088  10.100
    5AU     LIG 2341  26.366  11.015  10.589
    5AU     LIG 2342  26.636  10.957  10.979
    5AU       S 2343  25.367  11.812   8.666
    5AU     LIG 2344  25.251  11.689   9.107
    5AU     LIG 2345  25.039  11.615   9.529
    5AU     LIG 2346  24.875  11.643   9.980
    5AU     LIG 2347  24.887  11.947  10.375
    5AU     LIG 2348  24.964  12.253  10.755
    5AU     LIG 2349  24.864  12.391  11.201
    5AU    AUSL 2350  25.994  12.104   8.299
    5AU    AUSL 2351  26.307  12.073   8.006
    5AU     AUL 2352  26.388  12.053   8.517
    5AU       S 2353  26.011  12.223   8.389
    5AU     LIG 2354  26.134  12.426   8.775
    5AU     LIG 2355  26.317  12.591   9.194
    5AU     LIG 2356  26.318  12.664   9.683
    5AU     LIG 2357  26.355  12.754  10.165
    5AU     LIG 2358  26.370  12.790  10.642
    5AU     LIG 2359  26.640  12.867  11.043
    5AU       S 2360  26.646  11.988   8.132
    5AU     LIG 2361  26.862  12.253   8.479
    5AU     LIG 2362  27.139  12.471   8.799
    5AU     LIG 2363  27.433  12.720   9.076
    5AU     LIG 2364  27.681  12.844   9.464
    5AU     LIG 2365  28.012  12.956   9.789
    5AU     LIG 2366  28.372  13.181  10.013
    5AU    AUSL 2367  26.195  11.883   6.906
    5AU    AUSL 2368  25.997  12.264   6.890
    5AU     AUL 2369  25.950  12.230   6.599
    5AU       S 2370  26.258  11.908   6.490
    5AU     LIG 2371  26.588  11.687   6.302
    5AU     LIG 2372  26.652  11.550   5.873
    5AU     LIG 2373  26.754  11.488   5.417
    5AU     LIG 2374  26.987  11.563   5.010
    5AU     LIG 2375  27.403  11.645   4.770
    5AU     LIG 2376  27.755  11.733   4.452
    5AU       S 2377  26.393  12.353   6.696
    5AU     LIG 2378  26.627  12.581   6.386
    5AU     LIG 2379  26.851  12.804   6.036
    5AU     LIG 2380  27.079  13.062   5.724
    5AU     LIG 2381  27.282  13.192   5.338
    5AU     LIG 2382  27.338  13.344   4.904
    5AU     LIG 2383  27.468  13.709   4.646
    5AU    AUSL 2384  25.968  11.573   6.741
    5AU    AUSL 2385  26.310  11.520   7.059
    5AU     AUL 2386  26.447  11.671   6.830
    5AU       S 2387  26.322  11.223   6.770
    5AU     LIG 2388  26.563  10.956   6.473
    5AU     LIG 2389  26.723  10.536   6.306
    5AU     LIG 2390  27.018  10.262   6.030
    5AU     LIG 2391  27.409  10.224   5.736
    5AU     LIG 2392  27.830  10.296   5.498
    5AU     LIG 2393  28.118  10.156   5.147
    5AU       S 2394  26.128  11.631   6.489
    5AU     LIG 2395  26.212  11.290   6.261
    5AU     LIG 2396  26.257  11.234   5.790
    5AU     LIG 2397  26.321  11.215   5.308
    5AU     LIG 2398  26.286  11.152   4.826
    5AU     LIG 2399  26.266  10.858   4.430
    5AU     LIG 2400  26.332  10.779   3.963
    5AU    AUSL 2401  25.792  11.914   6.904
    5AU    AUSL 2402  25.559  11.647   6.701
    5AU     AUL 2403  25.737  11.416   6.603
    5AU       S 2404  25.518  11.748   6.365
    5AU     LIG 2405  25.409  11.378   6.153
    5AU     LIG 2406  25.140  11.236   5.782
    5AU     LIG 2407  24.949  11.161   5.352
    5AU     LIG 2408  24.703  10.975   4.983
    5AU     LIG 2409  24.649  10.742   4.564
    5AU     LIG 2410  24.574  10.793   4.101
    5AU       S 2411  25.990  11.791   6.490
    5AU     LIG 2412  26.141  11.736   6.000
    5AU     LIG 2413  26.284  11.692   5.523
    5AU     LIG 2414  26.423  11.657   5.039
    5AU     LIG 2415  26.453  11.822   4.568
    5AU     LIG 2416  26.575  12.103   4.168
    5AU     LIG 2417  26.762  12.180   3.719
    5AU    AUSL 2418  25.213  11.943   8.248
    5AU    AUSL 2419  25.361  12.345   8.143
    5AU     AUL 2420  25.429  12.274   8.472
    5AU       S 2421  25.148  11.943   8.651
    5AU     LIG 2422  24.897  11.567   8.743
    5AU     LIG 2423  24.731  11.415   9.165
    5AU     LIG 2424  24.554  11.409   9.621
    5AU     LIG 2425  24.300  11.320  10.022
    5AU     LIG 2426  24.000  11.462  10.373
    5AU     LIG 2427  23.627  11.503  10.680
    5AU       S 2428  24.973  12.334   8.369
    5AU     LIG 2429  25.025  12.447   8.796
    5AU     LIG 2430  24.937  12.824   9.061
    5AU     LIG 2431  24.707  13.163   9.299
    5AU     LIG 2432  24.575  13.350   9.715
    5AU     LIG 2433  24.426  13.635  10.070
    5AU     LIG 2434  24.166  13.914  10.358
    5AU    AUSL 2435  25.504  11.725   8.070
    5AU    AUSL 2436  24.995  11.680   8.028
    5AU     AUL 2437  25.083  11.683   8.277
    5AU       S 2438  24.831  11.292   8.238
    5AU     LIG 2439  24.421  11.149   8.077
    5AU     LIG 2440  24.075  10.859   8.231
    5AU     LIG 2441  23.843  10.597   8.558
    5AU     LIG 2442  23.596  10.311   8.851
    5AU     LIG 2443  23.414  10.171   9.275
    5AU     LIG 2444  23.095  10.242   9.622
    5AU       S 2445  25.395  11.673   8.604
    5AU     LIG 2446  25.324  11.285   8.789
    5AU     LIG 2447  25.186  11.185   9.244
    5AU     LIG 2448  24.974  11.124   9.680
    5AU     LIG 2449  24.691  10.976  10.043
    5AU     LIG 2450  24.586  10.757  10.461
    5AU     LIG 2451  24.634  10.671  10.922
    5AU    AUSL 2452  25.280  11.794   6.960
    5AU    AUSL 2453  25.422  11.375   6.964
    5AU     AUL 2454  25.241  11.482   6.668
    5AU       S 2455  25.285  11.832   6.345
    5AU     LIG 2456  25.005  11.687   6.012
    5AU     LIG 2457  24.745  11.559   5.619
    5AU     LIG 2458  24.514  11.422   5.214
    5AU     LIG 2459  24.167  11.346   4.878
    5AU     LIG 2460  23.886  11.523   4.511
    5AU     LIG 2461  23.623  11.708   4.135
    5AU       S 2462  24.964  11.087   6.844
    5AU     LIG 2463  24.775  10.662   6.821
    5AU     LIG 2464  24.453  10.385   6.561
    5AU     LIG 2465  24.143  10.103   6.286
    5AU     LIG 2466  23.945   9.866   5.894
    5AU     LIG 2467  23.987   9.623   5.460
    5AU     LIG 2468  24.103   9.509   4.989
    5AU    AUSL 2469  25.479  12.078   6.706
    5AU    AUSL 2470  25.045  12.128   6.982
    5AU     AUL 2471  25.068  11.918   6.732
    5AU       S 2472  25.024  12.377   6.772
    5AU     LIG 2473  24.696  12.439   6.460
    5AU     LIG 2474  24.539  12.661   6.060
    5AU     LIG 2475  24.266  12.710   5.652
    5AU     LIG 2476  23.877  12.707   5.354
    5AU     LIG 2477  23.442  12.797   5.155
    5AU     LIG 2478  23.109  13.068   4.944
    5AU       S 2479  25.513  11.980   6.492
    5AU     LIG 2480  25.491  11.930   5.918
    5AU     LIG 2481  25.246  11.697   5.553
    5AU     LIG 2482  24.994  11.645   5.137
    5AU     LIG 2483  24.976  11.777   4.656
    5AU     LIG 2484  24.950  11.965   4.192
    5AU     LIG 2485  24.761  12.190   3.794
    5AU    AUSL 2486  26.292  12.471   7.451
    5AU    AUSL 2487  26.332  12.188   7.139
    5AU     AUL 2488  26.422  12.664   7.204
    5AU       S 2489  26.534  12.199   6.870
    5AU     LIG 2490  26.823  12.124   6.544
    5AU     LIG 2491  27.078  12.363   6.217
    5AU     LIG 2492  27.338  12.659   5.941
    5AU     LIG 2493  27.613  12.920   5.646
    5AU     LIG 2494  28.053  13.019   5.436
    5AU     LIG 2495  28.515  13.132   5.281
    5AU       S 2496  26.744  12.370   7.364
    5AU     LIG 2497  27.187  12.430   7.245
    5AU     LIG 2498  27.625  12.459   7.415
    5AU     LIG 2499  28.094  12.552   7.484
    5AU     LIG 2500  28.441  12.901   7.538
    5AU     LIG 2501  28.727  13.301   7.625
    5AU     LIG 2502  28.957  13.613   7.912
    5AU    AUSL 2503  26.540  11.882   7.310
    5AU    AUSL 2504  26.489  11.747   7.744
    5AU     AUL 2505  26.776  11.899   7.683
    5AU       S 2506  26.803  12.028   7.237
    5AU     LIG 2507  27.262  11.935   7.377
    5AU     LIG 2508  27.772  11.971   7.334
    5AU     LIG 2509  28.258  12.086   7.267
    5AU     LIG 2510  28.742  11.959   7.326
    5AU     LIG 2511  29.217  12.082   7.231
    5AU     LIG 2512  29.511  12.344   6.932
    5AU       S 2513  26.869  11.431   7.656
    5AU     LIG 2514  27.219  11.124   7.690
    5AU     LIG 2515  27.654  10.919   7.716
    5AU     LIG 2516  28.089  10.708   7.750
    5AU     LIG 2517  28.496  10.717   8.004
    5AU     LIG 2518  28.968  10.683   7.914
    5AU     LIG 2519  29.406  10.908   7.873
    5AU    AUSL 2520  26.316  12.087   7.598
    5AU    AUSL 2521  26.188  12.432   7.845
    5AU     AUL 2522  26.442  12.451   7.738
    5AU       S 2523  26.587  12.171   8.055
    5AU     LIG 2524  26.835  12.552   8.064
    5AU     LIG 2525  27.005  12.813   8.439
    5AU     LIG 2526  27.269  13.101   8.751
    5AU     LIG 2527  27.533  13.513   8.888
    5AU     LIG 2528  27.798  13.942   8.915
    5AU     LIG 2529  27.924  14.422   8.918
    5AU       S 2530  26.739  12.278   7.435
    5AU     LIG 2531  27.113  12.269   7.735
    5AU     LIG 2532  27.573  12.116   7.794
    5AU     LIG 2533  28.067  12.099   7.752
    5AU     LIG 2534  28.563  12.102   7.773
    5AU     LIG 2535  29.081  12.098   7.741
    5AU     LIG 2536  29.519  12.265   7.898
    5AU    AUSL 2537  25.021  12.399   7.593
    5AU    AUSL 2538  25.069  12.150   7.933
    5AU     AUL 2539  25.026  12.600   7.851
    5AU       S 2540  24.853  12.231   8.120
    5AU     LIG 2541  24.507  12.463   8.398
    5AU     LIG 2542  24.513  12.648   8.826
    5AU     LIG 2543  24.348  12.785   9.244
    5AU     LIG 2544  23.984  12.841   9.558
    5AU     LIG 2545  23.573  12.940   9.798
    5AU     LIG 2546  23.190  13.111  10.043
    5AU       S 2547  24.649  12.424   7.663
    5AU     LIG 2548  24.514  12.805   7.403
    5AU     LIG 2549  24.218  13.208   7.410
    5AU     LIG 2550  23.910  13.587   7.520
    5AU     LIG 2551  23.504  13.797   7.679
    5AU     LIG 2552  23.013  13.807   7.741
    5AU     LIG 2553  22.645  13.913   7.463
    5AU    AUSL 2554  25.088  12.061   7.374
    5AU    AUSL 2555  25.187  12.470   7.224
    5AU     AUL 2556  24.896  12.388   7.241
    5AU       S 2557  24.528  12.320   7.523
    5AU     LIG 2558  24.372  12.350   7.095
    5AU     LIG 2559  23.927  12.435   6.896
    5AU     LIG 2560  23.442  12.423   6.864
    5AU     LIG 2561  23.020  12.645   6.911
    5AU     LIG 2562  22.567  12.804   6.921
    5AU     LIG 2563  22.098  12.813   6.764
    5AU       S 2564  25.002  12.648   6.857
    5AU     LIG 2565  24.909  12.911   6.465
    5AU     LIG 2566  24.835  13.305   6.180
    5AU     LIG 2567  24.708  13.788   6.117
    5AU     LIG 2568  24.324  14.028   5.945
    5AU     LIG 2569  23.868  14.126   5.897
    5AU     LIG 2570  23.634  14.539   5.943
    5AU    AUSL 2571  24.817  11.983   7.676
    5AU    AUSL 2572  24.862  11.725   7.341
    5AU     AUL 2573  24.699  11.980   7.266
    5AU       S 2574  24.520  11.528   7.473
    5AU     LIG 2575  24.154  11.504   7.787
    5AU     LIG 2576  23.676  11.560   7.774
    5AU     LIG 2577  23.226  11.394   7.701
    5AU     LIG 2578  22.847  11.136   7.473
    5AU     LIG 2579  22.391  11.249   7.295
    5AU     LIG 2580  21.995  11.164   7.035
    5AU       S 2581  24.646  12.018   7.741
    5AU     LIG 2582  24.345  12.193   7.998
    5AU     LIG 2583  23.951  12.391   8.177
    5AU     LIG 2584  23.517  12.534   8.263
    5AU     LIG 2585  23.122  12.806   8.306
    5AU     LIG 2586  22.714  13.050   8.306
    5AU     LIG 2587  22.269  12.929   8.297
    5AU    AUSL 2588  26.378  11.386   7.567
    5AU    AUSL 2589  26.121  11.624   7.854
    5AU     AUL 2590  26.506  11.534   7.929
    5AU       S 2591  26.647  11.218   7.614
    5AU     LIG 2592  26.811  10.827   7.557
    5AU     LIG 2593  27.232  10.614   7.557
    5AU     LIG 2594  27.673  10.449   7.499
    5AU     LIG 2595  28.089  10.219   7.530
    5AU     LIG 2596  28.430   9.867   7.507
    5AU     LIG 2597  28.861   9.647   7.556
    5AU       S 2598  26.385  11.129   8.095
    5AU     LIG 2599  26.615  10.731   8.260
    5AU     LIG 2600  26.698  10.395   8.605
    5AU     LIG 2601  26.951  10.191   8.966
    5AU     LIG 2602  27.327  10.224   9.279
    5AU     LIG 2603  27.733  10.315   9.540
    5AU     LIG 2604  28.172  10.230   9.726
    5AU    AUSL 2605  26.197  11.706   7.398
    5AU    AUSL 2606  26.139  11.199   7.286
    5AU     AUL 2607  26.424  11.332   7.220
    5AU       S 2608  26.755  11.482   7.468
    5AU     LIG 2609  27.005  11.176   7.221
    5AU     LIG 2610  27.445  10.958   7.237
    5AU     LIG 2611  27.915  10.842   7.274
    5AU     LIG 2612  28.326  10.601   7.272
    5AU     LIG 2613  28.778  10.677   7.142
    5AU     LIG 2614  28.969  10.826   6.723
    5AU       S 2615  26.310  10.975   6.934
    5AU     LIG 2616  26.476  10.548   6.791
    5AU     LIG 2617  26.663  10.129   6.630
    5AU     LIG 2618  26.715   9.688   6.436
    5AU     LIG 2619  27.028   9.321   6.291
    5AU     LIG 2620  27.456   9.209   6.087
    5AU     LIG 2621  27.659   8.810   5.912
    5AU    AUSL 2622  24.979  11.357   7.528
    5AU    AUSL 2623  25.050  11.483   7.086
    5AU     AUL 2624  24.772  11.537   7.071
    5AU       S 2625  24.949  11.114   7.097
    5AU     LIG 2626  24.478  11.061   7.019
    5AU     LIG 2627  24.163  10.780   6.740
    5AU     LIG 2628  23.864  10.504   6.446
    5AU     LIG 2629  23.619  10.172   6.175
    5AU     LIG 2630  23.339  10.048   5.821
    5AU     LIG 2631  23.031  10.214   5.496
    5AU       S 2632  24.682  11.314   7.470
    5AU     LIG 2633  24.305  11.070   7.533
    5AU     LIG 2634  23.825  11.127   7.526
    5AU     LIG 2635  23.369  10.996   7.409
    5AU     LIG 2636  23.020  10.648   7.419
    5AU     LIG 2637  22.735  10.324   7.618
    5AU     LIG 2638  22.481  10.000   7.858
    5AU    AUSL 2639  25.130  11.728   7.657
    5AU    AUSL 2640  25.216  11.369   7.880
    5AU     AUL 2641  24.833  11.532   7.843
    5AU       S 2642  24.981  11.152   8.043
    5AU     LIG 2643  24.748  10.898   7.793
    5AU     LIG 2644  24.414  10.584   7.961
    5AU     LIG 2645  24.068  10.291   8.208
    5AU     LIG 2646  23.755   9.981   8.470
    5AU     LIG 2647  23.564   9.580   8.688
    5AU     LIG 2648  23.145   9.380   8.820
    5AU       S 2649  24.565  11.598   7.490
    5AU     LIG 2650  24.064  11.520   7.285
    5AU     LIG 2651  23.556  11.538   7.271
    5AU     LIG 2652  23.049  11.588   7.274
    5AU     LIG 2653  22.721  11.591   7.621
    5AU     LIG 2654  22.436  11.239   7.802
    5AU     LIG 2655  22.040  11.065   7.972
    5AU    AUSL 2656  25.713  12.527   8.044
    5AU    AUSL 2657  25.392  12.314   7.740
    5AU     AUL 2658  25.416  12.630   8.118
    5AU       S 2659  25.030  12.448   8.280
    5AU     LIG 2660  24.871  12.835   8.492
    5AU     LIG 2661  24.661  13.162   8.777
    5AU     LIG 2662  24.597  13.615   8.952
    5AU     LIG 2663  24.437  14.090   8.991
    5AU     LIG 2664  24.046  14.350   9.111
    5AU     LIG 2665  23.911  14.802   9.262
    5AU       S 2666  25.778  12.912   8.005
    5AU     LIG 2667  25.998  13.023   8.364
    5AU     LIG 2668  26.000  13.447   8.590
    5AU     LIG 2669  26.028  13.895   8.761
    5AU     LIG 2670  25.953  14.300   9.000
    5AU     LIG 2671  25.872  14.498   9.430
    5AU     LIG 2672  25.981  14.756   9.830
    5AU    AUSL 2673  25.456  12.701   7.677
    5AU    AUSL 2674  25.918  12.668   7.271
    5AU     AUL 2675  25.561  12.938   7.430
    5AU       S 2676  25.631  12.993   7.881
    5AU     LIG 2677  25.762  13.412   8.099
    5AU     LIG 2678  25.797  13.848   8.301
    5AU     LIG 2679  25.662  14.237   8.565
    5AU     LIG 2680  25.531  14.687   8.691
    5AU     LIG 2681  25.386  15.157   8.675
    5AU     LIG 2682  25.000  15.424   8.532
    5AU       S 2683  25.987  12.921   7.221
    5AU     LIG 2684  26.251  13.232   7.038
    5AU     LIG 2685  26.243  13.658   6.813
    5AU     LIG 2686  26.522  14.060   6.695
    5AU     LIG 2687  26.835  14.452   6.623
    5AU     LIG 2688  26.905  14.924   6.565
    5AU     LIG 2689  26.861  15.355   6.388
    5AU    AUSL 2690  25.856  12.561   7.661
    5AU    AUSL 2691  25.877  12.180   7.928
    5AU     AUL 2692  26.051  12.549   8.070
    5AU       S 2693  26.438  12.149   8.087
    5AU     LIG 2694  26.437  12.531   8.370
    5AU     LIG 2695  26.635  12.639   8.769
    5AU     LIG 2696  26.926  12.860   9.073
    5AU     LIG 2697  27.207  13.060   9.410
    5AU     LIG 2698  27.313  13.317   9.805
    5AU     LIG 2699  27.269  13.681  10.121
    5AU       S 2700  25.930  12.850   7.725
    5AU     LIG 2701  26.201  13.171   7.909
    5AU     LIG 2702  26.249  13.580   8.159
    5AU     LIG 2703  26.301  14.025   8.333
    5AU     LIG 2704  26.553  14.438   8.399
    5AU     LIG 2705  26.800  14.859   8.456
    5AU     LIG 2706  26.744  15.312   8.576
    5AU    AUSL 2707  25.654  11.297   7.899
    5AU    AUSL 2708  26.077  11.223   7.782
    5AU     AUL 2709  25.886  11.071   8.138
    5AU       S 2710  25.489  10.693   7.948
    5AU     LIG 2711  25.731  10.364   8.190
    5AU     LIG 2712  25.458  10.068   8.346
    5AU     LIG 2713  25.480   9.640   8.407
    5AU     LIG 2714  25.503   9.225   8.561
    5AU     LIG 2715  25.457   9.013   8.977
    5AU     LIG 2716  25.503   8.762   9.372
    5AU       S 2717  26.266  11.029   7.864
    5AU     LIG 2718  26.173  10.592   8.020
    5AU     LIG 2719  26.357  10.187   8.270
    5AU     LIG 2720  26.552   9.838   8.576
    5AU     LIG 2721  26.744   9.385   8.634
    5AU     LIG 2722  27.040   9.074   8.833
    5AU     LIG 2723  27.452   8.848   8.900
    5AU    AUSL 2724  25.388  11.078   7.667
    5AU    AUSL 2725  25.437  11.375   8.241
    5AU     AUL 2726  25.436  11.113   8.092
    5AU       S 2727  25.246  10.834   7.776
    5AU     LIG 2728  25.069  10.441   7.741
    5AU     LIG 2729  25.136  10.012   7.917
    5AU     LIG 2730  25.172   9.540   8.018
    5AU     LIG 2731  25.059   9.131   8.272
    5AU     LIG 2732  24.859   8.688   8.393
    5AU     LIG 2733  24.839   8.258   8.617
    5AU       S 2734  25.057  11.218   8.318
    5AU     LIG 2735  24.751  10.804   8.320
    5AU     LIG 2736  24.392  10.550   8.509
    5AU     LIG 2737  24.130  10.214   8.743
    5AU     LIG 2738  23.861   9.898   8.990
    5AU     LIG 2739  23.849   9.575   9.326
    5AU     LIG 2740  23.975   9.366   9.735
    5AU    AUSL 2741  25.792  10.962   7.688
    5AU    AUSL 2742  25.444  11.043   7.264
    5AU     AUL 2743  25.563  10.800   7.452
    5AU       S 2744  25.416  10.684   7.008
    5AU     LIG 2745  25.145  10.500   7.234
    5AU     LIG 2746  24.981  10.077   7.154
    5AU     LIG 2747  25.004   9.613   7.006
    5AU     LIG 2748  25.004   9.158   6.797
    5AU     LIG 2749  24.781   8.690   6.717
    5AU     LIG 2750  24.808   8.206   6.591
    5AU       S 2751  25.661  10.750   7.883
    5AU     LIG 2752  25.570  10.282   7.704
    5AU     LIG 2753  25.615   9.850   7.906
    5AU     LIG 2754  25.823   9.457   8.074
    5AU     LIG 2755  26.071   9.072   8.222
    5AU     LIG 2756  26.280   8.628   8.210
    5AU     LIG 2757  26.229   8.137   8.311
    5AU    AUSL 2758  25.666  12.486   6.960
    5AU    AUSL 2759  25.974  12.270   7.308
    5AU     AUL 2760  26.048  12.534   6.968
    5AU       S 2761  25.741  12.856   6.829
    5AU     LIG 2762  25.983  13.190   6.601
    5AU     LIG 2763  25.985  13.602   6.357
    5AU     LIG 2764  25.973  13.831   5.924
    5AU     LIG 2765  25.979  14.104   5.520
    5AU     LIG 2766  25.896  14.529   5.326
    5AU     LIG 2767  25.916  14.932   5.084
    5AU       S 2768  26.447  12.261   6.999
    5AU     LIG 2769  26.834  12.576   6.875
    5AU     LIG 2770  27.086  12.795   6.510
    5AU     LIG 2771  27.287  13.112   6.199
    5AU     LIG 2772  27.500  13.533   6.051
    5AU     LIG 2773  27.682  13.993   6.004
    5AU     LIG 2774  27.981  14.312   5.796
    5AU    AUSL 2775  25.568  12.474   7.362
    5AU    AUSL 2776  25.443  12.179   7.091
    5AU     AUL 2777  25.406  12.655   7.095
    5AU       S 2778  25.815  12.928   7.058
    5AU     LIG 2779  25.756  13.394   7.011
    5AU     LIG 2780  25.690  13.819   6.776
    5AU     LIG 2781  25.450  14.252   6.685
    5AU     LIG 2782  25.293  14.661   6.485
    5AU     LIG 2783  25.003  15.057   6.552
    5AU     LIG 2784  24.819  15.517   6.488
    5AU       S 2785  25.241  12.468   6.706
    5AU     LIG 2786  25.168  12.509   6.262
    5AU     LIG 2787  25.009  12.847   5.950
    5AU     LIG 2788  24.848  13.132   5.588
    5AU     LIG 2789  24.824  13.443   5.202
    5AU     LIG 2790  24.588  13.707   4.868
    5AU     LIG 2791  24.233  13.811   4.546
    5AU    AUSL 2792  25.762  11.155   7.007
    5AU    AUSL 2793  25.343  11.418   7.367
    5AU     AUL 2794  25.397  11.135   6.969
    5AU       S 2795  24.994  11.009   7.223
    5AU     LIG 2796  24.680  10.711   7.330
    5AU     LIG 2797  24.371  10.467   7.090
    5AU     LIG 2798  24.047  10.226   6.833
    5AU     LIG 2799  23.760   9.926   6.597
    5AU     LIG 2800  23.638   9.626   6.248
    5AU     LIG 2801  23.281   9.359   6.093
    5AU       S 2802  25.720  10.835   6.850
    5AU     LIG 2803  25.686  10.378   6.667
    5AU     LIG 2804  25.321  10.089   6.750
    5AU     LIG 2805  25.266   9.654   6.573
    5AU     LIG 2806  25.335   9.345   6.220
    5AU     LIG 2807  25.360   9.219   5.753
    5AU     LIG 2808  25.498   8.908   5.428
    5AU    AUSL 2809  25.761  11.253   7.422
    5AU    AUSL 2810  25.898  11.508   7.124
    5AU     AUL 2811  25.950  10.997   7.226
    5AU       S 2812  25.647  10.710   7.023
    5AU     LIG 2813  25.613  10.255   7.177
    5AU     LIG 2814  25.445   9.828   7.202
    5AU     LIG 2815  25.489   9.407   6.975
    5AU     LIG 2816  25.677   9.018   6.753
    5AU     LIG 2817  25.954   8.591   6.731
    5AU     LIG 2818  26.233   8.172   6.705
    5AU       S 2819  26.155  11.150   6.785
    5AU     LIG 2820  26.088  10.768   6.517
    5AU     LIG 2821  26.238  10.338   6.378
    5AU     LIG 2822  26.537  10.077   6.119
    5AU     LIG 2823  26.666   9.845   5.720
    5AU     LIG 2824  26.888   9.641   5.332
    5AU     LIG 2825  27.101   9.445   4.949
    6AU     AUC 2826  25.318  39.059   7.506
    6AU     AUC 2827  25.577  39.058   7.345
    6AU     AUC 2828  25.564  39.040   7.662
    6AU     AUC 2829  25.070  39.065   7.342
    6AU     AUC 2830  25.056  39.082   7.658
    6AU     AUC 2831  25.173  39.318   7.508
    6AU     AUC 2832  25.480  39.309   7.496
    6AU     AUC 2833  25.154  38.814   7.514
    6AU     AUC 2834  25.453  38.791   7.520
    6AU     AUC 2835  25.313  38.903   7.764
    6AU     AUC 2836  25.333  39.216   7.766
    6AU     AUC 2837  25.315  38.901   7.243
    6AU     AUC 2838  25.318  39.204   7.247
    6AU     AUC 2839  25.832  39.053   7.188
    6AU     AUC 2840  25.834  39.050   7.490
    6AU     AUC 2841  25.819  39.038   7.816
    6AU     AUC 2842  24.813  39.061   7.187
    6AU     AUC 2843  24.801  39.088   7.488
    6AU     AUC 2844  24.806  39.109   7.815
    6AU     AUC 2845  25.032  39.584   7.511
    6AU     AUC 2846  25.345  39.580   7.508
    6AU     AUC 2847  25.648  39.568   7.500
    6AU     AUC 2848  24.971  38.567   7.518
    6AU     AUC 2849  25.279  38.538   7.505
    6AU     AUC 2850  25.594  38.527   7.523
    6AU     AUC 2851  25.311  38.752   8.015
    6AU     AUC 2852  25.330  39.060   8.035
    6AU     AUC 2853  25.340  39.364   8.027
    6AU     AUC 2854  25.317  38.724   7.008
    6AU     AUC 2855  25.328  39.039   6.982
    6AU     AUC 2856  25.320  39.355   6.987
    6AU     AUC 2857  25.577  38.894   7.928
    6AU     AUC 2858  25.588  39.197   7.933
    6AU     AUC 2859  25.590  38.889   7.087
    6AU     AUC 2860  25.591  39.195   7.077
    6AU     AUC 2861  25.049  38.936   7.931
    6AU     AUC 2862  25.067  39.239   7.934
    6AU     AUC 2863  25.071  38.899   7.074
    6AU     AUC 2864  25.064  39.211   7.081
    6AU     AUC 2865  25.740  39.313   7.329
    6AU     AUC 2866  25.746  39.289   7.661
    6AU     AUC 2867  24.907  39.328   7.352
    6AU     AUC 2868  24.915  39.348   7.672
    6AU     AUC 2869  25.731  38.783   7.363
    6AU     AUC 2870  25.703  38.757   7.665
    6AU     AUC 2871  24.892  38.811   7.348
    6AU     AUC 2872  24.890  38.836   7.689
    6AU     AUC 2873  25.178  39.479   7.780
    6AU     AUC 2874  25.497  39.480   7.750
    6AU     AUC 2875  25.119  38.649   7.759
    6AU     AUC 2876  25.437  38.629   7.773
    6AU     AUC 2877  25.172  39.477   7.247
    6AU     AUC 2878  25.490  39.460   7.235
    6AU     AUC 2879  25.141  38.654   7.242
    6AU     AUC 2880  25.471  38.634   7.262
    6AU    AUSL 2881  25.819  38.943   8.184
    6AU    AUSL 2882  25.595  38.570   8.122
    6AU     AUL 2883  25.895  38.628   8.373
    6AU       S 2884  25.914  38.242   8.113
    6AU     LIG 2885  25.774  37.976   8.383
    6AU     LIG 2886  25.891  37.714   8.731
    6AU     LIG 2887  26.134  37.397   8.962
    6AU     LIG 2888  26.366  37.167   9.301
    6AU     LIG 2889  26.307  36.999   9.752
    6AU     LIG 2890  26.467  36.811  10.162
    6AU       S 2891  25.781  38.999   8.629
    6AU     LIG 2892  25.801  39.118   8.995
    6AU     LIG 2893  26.028  38.850   9.270
    6AU     LIG 2894  26.235  38.708   9.646
    6AU     LIG 2895  26.540  38.822   9.975
    6AU     LIG 2896  26.898  38.916  10.248
    6AU     LIG 2897  27.188  39.090  10.564
    6AU    AUSL 2898  25.429  38.887   8.327
    6AU    AUSL 2899  25.239  39.254   8.287
    6AU     AUL 2900  25.358  39.213   8.692
    6AU       S 2901  25.495  38.829   8.504
    6AU     LIG 2902  25.426  38.732   8.917
    6AU     LIG 2903  25.648  38.498   9.278
    6AU     LIG 2904  25.866  38.331   9.689
    6AU     LIG 2905  25.933  38.091  10.125
    6AU     LIG 2906  25.964  37.973  10.611
    6AU     LIG 2907  26.123  37.909  11.064
    6AU       S 2908  24.983  38.972   8.640
    6AU     LIG 2909  24.914  38.878   9.095
    6AU     LIG 2910  24.674  38.807   9.505
    6AU     LIG 2911  24.524  38.766   9.957
    6AU     LIG 2912  24.546  38.949  10.402
    6AU     LIG 2913  24.642  39.212  10.800
    6AU     LIG 2914  24.696  39.349  11.258
    6AU    AUSL 2915  25.635  39.295   8.287
    6AU    AUSL 2916  25.966  39.280   8.001
    6AU     AUL 2917  26.076  39.101   8.281
    6AU       S 2918  25.699  39.335   8.431
    6AU     LIG 2919  25.684  39.691   8.653
    6AU     LIG 2920  25.865  39.793   9.106
    6AU     LIG 2921  25.864  39.814   9.619
    6AU     LIG 2922  25.814  39.884  10.117
    6AU     LIG 2923  25.980  39.961  10.567
    6AU     LIG 2924  26.238  40.037  10.960
    6AU       S 2925  26.202  39.548   8.169
    6AU     LIG 2926  26.582  39.666   8.347
    6AU     LIG 2927  26.808  39.722   8.749
    6AU     LIG 2928  27.135  39.895   9.028
    6AU     LIG 2929  27.326  39.997   9.450
    6AU     LIG 2930  27.676  40.014   9.786
    6AU     LIG 2931  28.135  40.064   9.922
    6AU    AUSL 2932  25.848  39.074   6.869
    6AU    AUSL 2933  25.611  39.478   6.830
    6AU     AUL 2934  25.959  39.419   6.449
    6AU       S 2935  25.900  39.100   6.726
    6AU     LIG 2936  26.152  38.992   6.312
    6AU     LIG 2937  26.170  38.781   5.916
    6AU     LIG 2938  26.308  38.645   5.486
    6AU     LIG 2939  26.559  38.537   5.095
    6AU     LIG 2940  26.964  38.483   4.828
    6AU     LIG 2941  27.226  38.624   4.457
    6AU       S 2942  25.603  39.548   6.657
    6AU     LIG 2943  25.920  39.908   6.582
    6AU     LIG 2944  26.270  39.999   6.272
    6AU     LIG 2945  26.541  40.136   5.884
    6AU     LIG 2946  26.812  40.239   5.481
    6AU     LIG 2947  27.038  40.467   5.109
    6AU     LIG 2948  27.027  40.753   4.712
    6AU    AUSL 2949  25.584  38.770   6.705
    6AU    AUSL 2950  25.951  38.711   7.014
    6AU     AUL 2951  25.963  38.683   6.641
    6AU       S 2952  26.089  38.313   6.895
    6AU     LIG 2953  26.171  38.031   6.532
    6AU     LIG 2954  26.411  37.722   6.275
    6AU     LIG 2955  26.702  37.484   5.982
    6AU     LIG 2956  27.085  37.434   5.677
    6AU     LIG 2957  27.450  37.440   5.339
    6AU     LIG 2958  27.827  37.365   5.075
    6AU       S 2959  25.665  38.998   6.443
    6AU     LIG 2960  25.732  38.613   6.196
    6AU     LIG 2961  25.843  38.409   5.780
    6AU     LIG 2962  25.904  38.382   5.306
    6AU     LIG 2963  26.021  38.376   4.837
    6AU     LIG 2964  26.066  38.115   4.426
    6AU     LIG 2965  26.121  37.954   3.968
    6AU    AUSL 2966  25.442  39.119   6.882
    6AU    AUSL 2967  25.185  38.873   6.675
    6AU     AUL 2968  25.383  38.646   6.569
    6AU       S 2969  25.137  38.975   6.350
    6AU     LIG 2970  25.094  38.597   6.137
    6AU     LIG 2971  24.837  38.394   5.785
    6AU     LIG 2972  24.660  38.321   5.346
    6AU     LIG 2973  24.446  38.146   4.958
    6AU     LIG 2974  24.218  37.979   4.576
    6AU     LIG 2975  23.963  37.938   4.179
    6AU       S 2976  25.580  39.098   6.504
    6AU     LIG 2977  25.709  39.074   5.973
    6AU     LIG 2978  25.829  38.874   5.538
    6AU     LIG 2979  26.009  38.842   5.089
    6AU     LIG 2980  26.050  38.958   4.625
    6AU     LIG 2981  26.006  39.133   4.173
    6AU     LIG 2982  26.146  39.427   3.824
    6AU    AUSL 2983  24.859  39.132   8.219
    6AU    AUSL 2984  24.996  39.541   8.143
    6AU     AUL 2985  25.053  39.457   8.456
    6AU       S 2986  24.788  39.120   8.647
    6AU     LIG 2987  24.542  38.736   8.749
    6AU     LIG 2988  24.348  38.590   9.171
    6AU     LIG 2989  24.154  38.629   9.621
    6AU     LIG 2990  23.985  38.524  10.061
    6AU     LIG 2991  23.630  38.567  10.360
    6AU     LIG 2992  23.325  38.730  10.684
    6AU       S 2993  24.595  39.505   8.363
    6AU     LIG 2994  24.671  39.680   8.774
    6AU     LIG 2995  24.548  40.026   9.069
    6AU     LIG 2996  24.379  40.376   9.346
    6AU     LIG 2997  24.294  40.525   9.800
    6AU     LIG 2998  24.139  40.729  10.209
    6AU     LIG 2999  23.933  41.002  10.549
    6AU    AUSL 3000  25.152  38.922   8.036
    6AU    AUSL 3001  24.602  38.915   7.989
    6AU     AUL 3002  24.717  38.911   8.243
    6AU       S 3003  24.434  38.549   8.249
    6AU     LIG 3004  24.094  38.404   8.008
    6AU     LIG 3005  23.786  38.114   8.175
    6AU     LIG 3006  23.574  37.858   8.514
    6AU     LIG 3007  23.345  37.599   8.836
    6AU     LIG 3008  23.089  37.328   9.127
    6AU     LIG 3009  22.712  37.352   9.414
    6AU       S 3010  25.029  38.857   8.578
    6AU     LIG 3011  24.987  38.470   8.787
    6AU     LIG 3012  24.817  38.375   9.219
    6AU     LIG 3013  24.561  38.317   9.622
    6AU     LIG 3014  24.423  38.267  10.072
    6AU     LIG 3015  24.157  38.227  10.472
    6AU     LIG 3016  24.060  38.059  10.919
    6AU    AUSL 3017  24.925  39.025   6.946
    6AU    AUSL 3018  25.057  38.588   6.931
    6AU     AUL 3019  24.879  38.706   6.642
    6AU       S 3020  24.918  39.064   6.321
    6AU     LIG 3021  24.640  38.818   6.035
    6AU     LIG 3022  24.407  38.665   5.634
    6AU     LIG 3023  24.164  38.471   5.263
    6AU     LIG 3024  23.764  38.460   4.997
    6AU     LIG 3025  23.505  38.716   4.689
    6AU     LIG 3026  23.323  38.973   4.330
    6AU       S 3027  24.615  38.319   6.806
    6AU     LIG 3028  24.385  37.927   6.798
    6AU     LIG 3029  24.092  37.654   6.539
    6AU     LIG 3030  23.815  37.406   6.230
    6AU     LIG 3031  23.572  37.174   5.884
    6AU     LIG 3032  23.497  36.951   5.461
    6AU     LIG 3033  23.508  36.697   5.044
    6AU    AUSL 3034  25.134  39.303   6.689
    6AU    AUSL 3035  24.702  39.366   6.958
    6AU     AUL 3036  24.714  39.146   6.716
    6AU       S 3037  24.676  39.608   6.757
    6AU     LIG 3038  24.322  39.676   6.452
    6AU     LIG 3039  24.119  39.970   6.114
    6AU     LIG 3040  23.879  40.009   5.696
    6AU     LIG 3041  23.484  39.966   5.413
    6AU     LIG 3042  23.100  40.202   5.261
    6AU     LIG 3043  22.811  40.484   5.006
    6AU       S 3044  25.127  39.232   6.464
    6AU     LIG 3045  25.171  39.106   5.897
    6AU     LIG 3046  24.890  38.867   5.576
    6AU     LIG 3047  24.631  38.838   5.166
    6AU     LIG 3048  24.606  39.069   4.722
    6AU     LIG 3049  24.589  39.245   4.259
    6AU     LIG 3050  24.444  39.285   3.794
    6AU    AUSL 3051  26.002  39.576   7.435
    6AU    AUSL 3052  25.958  39.414   7.056
    6AU     AUL 3053  26.056  39.851   7.274
    6AU       S 3054  26.087  39.546   6.872
    6AU     LIG 3055  26.435  39.570   6.547
    6AU     LIG 3056  26.727  39.753   6.197
    6AU     LIG 3057  27.023  39.936   5.863
    6AU     LIG 3058  27.314  40.061   5.500
    6AU     LIG 3059  27.743  40.170   5.318
    6AU     LIG 3060  28.046  40.477   5.105
    6AU       S 3061  26.399  39.545   7.302
    6AU     LIG 3062  26.820  39.709   7.183
    6AU     LIG 3063  27.246  39.592   7.329
    6AU     LIG 3064  27.705  39.622   7.460
    6AU     LIG 3065  28.091  39.917   7.514
    6AU     LIG 3066  28.322  40.357   7.514
    6AU     LIG 3067  28.582  40.776   7.490
    6AU    AUSL 3068  26.144  39.135   7.287
    6AU    AUSL 3069  26.145  38.921   7.713
    6AU     AUL 3070  26.410  38.957   7.512
    6AU       S 3071  26.408  39.257   7.150
    6AU     LIG 3072  26.876  39.195   7.100
    6AU     LIG 3073  27.345  39.108   7.192
    6AU     LIG 3074  27.838  39.178   7.212
    6AU     LIG 3075  28.346  39.230   7.161
    6AU     LIG 3076  28.740  39.537   7.070
    6AU     LIG 3077  29.086  39.881   7.013
    6AU       S 3078  26.466  38.521   7.684
    6AU     LIG 3079  26.870  38.323   7.766
    6AU     LIG 3080  27.190  38.019   7.926
    6AU     LIG 3081  27.624  37.953   7.797
    6AU     LIG 3082  28.028  38.020   7.968
    6AU     LIG 3083  28.436  38.118   8.118
    6AU     LIG 3084  28.862  38.032   8.184
    6AU    AUSL 3085  25.898  39.225   7.610
    6AU    AUSL 3086  25.860  39.632   7.810
    6AU     AUL 3087  26.181  39.400   7.727
    6AU       S 3088  26.084  39.772   7.976
    6AU     LIG 3089  26.182  40.068   8.295
    6AU     LIG 3090  26.548  40.138   8.584
    6AU     LIG 3091  26.902  40.342   8.840
    6AU     LIG 3092  27.140  40.777   8.927
    6AU     LIG 3093  27.348  41.235   8.939
    6AU     LIG 3094  27.540  41.679   9.070
    6AU       S 3095  26.496  39.412   7.405
    6AU     LIG 3096  26.907  39.253   7.597
    6AU     LIG 3097  27.387  39.252   7.694
    6AU     LIG 3098  27.874  39.203   7.728
    6AU     LIG 3099  28.355  39.265   7.676
    6AU     LIG 3100  28.734  39.546   7.761
    6AU     LIG 3101  29.083  39.873   7.898
    6AU    AUSL 3102  24.677  39.618   7.581
    6AU    AUSL 3103  24.710  39.358   7.916
    6AU     AUL 3104  24.676  39.813   7.843
    6AU       S 3105  24.503  39.430   8.097
    6AU     LIG 3106  24.152  39.702   8.280
    6AU     LIG 3107  24.164  39.877   8.737
    6AU     LIG 3108  24.014  40.045   9.165
    6AU     LIG 3109  23.653  40.107   9.499
    6AU     LIG 3110  23.219  40.113   9.738
    6AU     LIG 3111  22.789  40.108   9.967
    6AU       S 3112  24.286  39.646   7.675
    6AU     LIG 3113  24.125  40.076   7.725
    6AU     LIG 3114  23.808  40.455   7.761
    6AU     LIG 3115  23.432  40.730   7.604
    6AU     LIG 3116  22.984  40.947   7.512
    6AU     LIG 3117  22.566  41.199   7.434
    6AU     LIG 3118  22.104  41.150   7.511
    6AU    AUSL 3119  24.736  39.287   7.349
    6AU    AUSL 3120  24.847  39.696   7.214
    6AU     AUL 3121  24.554  39.625   7.229
    6AU       S 3122  24.178  39.562   7.497
    6AU     LIG 3123  23.929  39.515   7.107
    6AU     LIG 3124  23.520  39.637   6.849
    6AU     LIG 3125  23.042  39.706   6.844
    6AU     LIG 3126  22.586  39.819   6.892
    6AU     LIG 3127  22.235  40.153   6.791
    6AU     LIG 3128  21.880  40.326   6.510
    6AU       S 3129  24.678  39.881   6.843
    6AU     LIG 3130  24.460  40.165   6.505
    6AU     LIG 3131  24.248  40.495   6.203
    6AU     LIG 3132  24.178  40.965   6.033
    6AU     LIG 3133  23.970  41.413   5.931
    6AU     LIG 3134  23.740  41.776   5.734
    6AU     LIG 3135  23.408  42.137   5.709
    6AU    AUSL 3136  24.460  39.212   7.646
    6AU    AUSL 3137  24.503  38.954   7.311
    6AU     AUL 3138  24.349  39.221   7.240
    6AU       S 3139  24.160  38.772   7.441
    6AU     LIG 3140  23.815  38.794   7.785
    6AU     LIG 3141  23.320  38.817   7.772
    6AU     LIG 3142  22.869  38.662   7.651
    6AU     LIG 3143  22.526  38.347   7.469
    6AU     LIG 3144  22.080  38.373   7.269
    6AU     LIG 3145  21.633  38.460   7.147
    6AU       S 3146  24.268  39.252   7.718
    6AU     LIG 3147  23.870  39.389   7.905
    6AU     LIG 3148  23.433  39.518   8.093
    6AU     LIG 3149  23.018  39.749   8.193
    6AU     LIG 3150  22.580  39.957   8.214
    6AU     LIG 3151  22.201  40.233   8.340
    6AU     LIG 3152  21.784  40.473   8.388
    6AU    AUSL 3153  26.008  38.548   7.575
    6AU    AUSL 3154  25.772  38.799   7.821
    6AU     AUL 3155  26.150  38.735   7.950
    6AU       S 3156  26.179  38.302   7.560
    6AU     LIG 3157  26.435  38.014   7.779
    6AU     LIG 3158  26.828  37.822   7.616
    6AU     LIG 3159  27.270  37.658   7.540
    6AU     LIG 3160  27.598  37.290   7.527
    6AU     LIG 3161  27.987  37.054   7.679
    6AU     LIG 3162  28.356  36.754   7.623
    6AU       S 3163  26.008  38.317   8.040
    6AU     LIG 3164  26.314  38.040   8.302
    6AU     LIG 3165  26.405  37.776   8.685
    6AU     LIG 3166  26.643  37.486   8.967
    6AU     LIG 3167  26.938  37.352   9.306
    6AU     LIG 3168  27.330  37.459   9.586
    6AU     LIG 3169  27.710  37.538   9.879
    6AU    AUSL 3170  25.861  38.866   7.377
    6AU    AUSL 3171  25.782  38.414   7.262
    6AU     AUL 3172  26.154  38.661   7.220
    6AU       S 3173  26.192  38.437   7.601
    6AU     LIG 3174  26.609  38.242   7.314
    6AU     LIG 3175  27.093  38.125   7.290
    6AU     LIG 3176  27.565  37.998   7.273
    6AU     LIG 3177  28.003  38.082   7.043
    6AU     LIG 3178  28.528  38.081   7.064
    6AU     LIG 3179  28.966  37.910   6.911
    6AU       S 3180  26.046  38.206   7.086
    6AU     LIG 3181  25.880  37.798   6.888
    6AU     LIG 3182  26.104  37.462   6.604
    6AU     LIG 3183  26.463  37.207   6.368
    6AU     LIG 3184  26.834  36.994   6.131
    6AU     LIG 3185  27.164  36.640   6.074
    6AU     LIG 3186  27.394  36.310   5.811
    6AU    AUSL 3187  24.613  38.584   7.497
    6AU    AUSL 3188  24.688  38.715   7.052
    6AU     AUL 3189  24.409  38.783   7.038
    6AU       S 3190  24.608  38.371   7.056
    6AU     LIG 3191  24.133  38.332   7.005
    6AU     LIG 3192  23.834  38.051   6.752
    6AU     LIG 3193  23.562  37.803   6.434
    6AU     LIG 3194  23.296  37.566   6.108
    6AU     LIG 3195  22.893  37.427   5.878
    6AU     LIG 3196  22.531  37.588   5.609
    6AU       S 3197  24.316  38.546   7.425
    6AU     LIG 3198  23.936  38.323   7.514
    6AU     LIG 3199  23.459  38.374   7.535
    6AU     LIG 3200  23.010  38.165   7.544
    6AU     LIG 3201  22.621  37.847   7.596
    6AU     LIG 3202  22.244  37.534   7.482
    6AU     LIG 3203  21.915  37.286   7.253
    6AU    AUSL 3204  24.769  38.952   7.629
    6AU    AUSL 3205  24.840  38.605   7.864
    6AU     AUL 3206  24.472  38.726   7.811
    6AU       S 3207  24.597  38.440   8.144
    6AU     LIG 3208  24.498  38.191   7.789
    6AU     LIG 3209  24.118  37.904   7.823
    6AU     LIG 3210  23.792  37.612   8.069
    6AU     LIG 3211  23.502  37.369   8.370
    6AU     LIG 3212  23.315  37.101   8.705
    6AU     LIG 3213  23.078  36.788   8.954
    6AU       S 3214  24.206  38.839   7.464
    6AU     LIG 3215  23.684  38.801   7.305
    6AU     LIG 3216  23.172  38.861   7.270
    6AU     LIG 3217  22.696  38.794   7.180
    6AU     LIG 3218  22.322  38.795   7.481
    6AU     LIG 3219  22.091  38.518   7.765
    6AU     LIG 3220  21.653  38.371   7.816
    6AU    AUSL 3221  25.351  39.711   8.045
    6AU    AUSL 3222  25.041  39.527   7.741
    6AU     AUL 3223  25.062  39.829   8.117
    6AU       S 3224  24.667  39.647   8.267
    6AU     LIG 3225  24.540  40.045   8.417
    6AU     LIG 3226  24.365  40.368   8.733
    6AU     LIG 3227  24.298  40.806   8.923
    6AU     LIG 3228  24.050  41.215   8.974
    6AU     LIG 3229  23.693  41.427   9.206
    6AU     LIG 3230  23.279  41.327   9.420
    6AU       S 3231  25.432  40.117   8.000
    6AU     LIG 3232  25.658  40.169   8.372
    6AU     LIG 3233  25.741  40.599   8.555
    6AU     LIG 3234  25.637  41.007   8.795
    6AU     LIG 3235  25.570  41.318   9.152
    6AU     LIG 3236  25.503  41.633   9.506
    6AU     LIG 3237  25.341  41.998   9.766
    6AU    AUSL 3238  25.113  39.913   7.676
    6AU    AUSL 3239  25.573  39.892   7.294
    6AU     AUL 3240  25.261  40.148   7.451
    6AU       S 3241  25.278  40.199   7.908
    6AU     LIG 3242  25.454  40.602   8.116
    6AU     LIG 3243  25.477  41.021   8.307
    6AU     LIG 3244  25.277  41.412   8.493
    6AU     LIG 3245  24.978  41.786   8.391
    6AU     LIG 3246  24.910  42.233   8.520
    6AU     LIG 3247  24.992  42.603   8.801
    6AU       S 3248  25.623  40.232   7.146
    6AU     LIG 3249  25.886  40.566   6.939
    6AU     LIG 3250  26.062  40.972   6.746
    6AU     LIG 3251  26.337  41.376   6.674
    6AU     LIG 3252  26.494  41.839   6.614
    6AU     LIG 3253  26.293  42.266   6.657
    6AU     LIG 3254  26.417  42.718   6.544
    6AU    AUSL 3255  25.506  39.754   7.671
    6AU    AUSL 3256  25.548  39.385   7.912
    6AU     AUL 3257  25.643  39.727   8.100
    6AU       S 3258  26.049  39.570   8.230
    6AU     LIG 3259  26.193  39.719   8.673
    6AU     LIG 3260  26.427  39.926   9.039
    6AU     LIG 3261  26.774  40.124   9.308
    6AU     LIG 3262  26.986  40.305   9.696
    6AU     LIG 3263  26.994  40.632  10.042
    6AU     LIG 3264  26.830  41.026  10.261
    6AU       S 3265  25.606  40.051   7.759
    6AU     LIG 3266  25.889  40.371   7.964
    6AU     LIG 3267  25.980  40.828   8.138
    6AU     LIG 3268  26.311  41.226   8.140
    6AU     LIG 3269  26.518  41.676   8.173
    6AU     LIG 3270  26.586  42.171   8.260
    6AU     LIG 3271  26.560  42.575   8.515
    6AU    AUSL 3272  25.274  38.494   7.875
    6AU    AUSL 3273  25.674  38.402   7.749
    6AU     AUL 3274  25.456  38.300   8.130
    6AU       S 3275  25.278  37.902   7.996
    6AU     LIG 3276  25.327  37.541   8.216
    6AU     LIG 3277  25.037  37.260   8.400
    6AU     LIG 3278  24.976  36.827   8.411
    6AU     LIG 3279  24.917  36.415   8.582
    6AU     LIG 3280  24.964  36.217   9.011
    6AU     LIG 3281  24.984  36.007   9.437
    6AU       S 3282  25.809  38.188   7.840
    6AU     LIG 3283  25.974  37.787   7.930
    6AU     LIG 3284  26.125  37.557   8.295
    6AU     LIG 3285  26.401  37.272   8.544
    6AU     LIG 3286  26.608  36.981   8.854
    6AU     LIG 3287  26.918  36.620   8.901
    6AU     LIG 3288  27.235  36.272   9.001
    6AU    AUSL 3289  24.982  38.308   7.641
    6AU    AUSL 3290  25.064  38.578   8.215
    6AU     AUL 3291  24.999  38.282   7.993
    6AU       S 3292  25.075  37.848   7.871
    6AU     LIG 3293  24.850  37.476   7.964
    6AU     LIG 3294  24.683  37.040   8.049
    6AU     LIG 3295  24.642  36.560   8.117
    6AU     LIG 3296  24.423  36.131   8.181
    6AU     LIG 3297  24.433  35.674   8.344
    6AU     LIG 3298  24.367  35.316   8.654
    6AU       S 3299  24.744  38.455   8.336
    6AU     LIG 3300  24.414  38.024   8.287
    6AU     LIG 3301  24.079  37.757   8.468
    6AU     LIG 3302  23.836  37.458   8.753
    6AU     LIG 3303  23.611  37.235   9.112
    6AU     LIG 3304  23.590  37.040   9.548
    6AU     LIG 3305  23.660  36.955  10.017
    6AU    AUSL 3306  25.371  38.166   7.627
    6AU    AUSL 3307  25.090  38.256   7.252
    6AU     AUL 3308  24.914  38.063   7.502
    6AU       S 3309  25.100  37.906   7.092
    6AU     LIG 3310  24.762  37.629   7.045
    6AU     LIG 3311  24.674  37.145   6.992
    6AU     LIG 3312  24.527  36.659   6.952
    6AU     LIG 3313  24.256  36.208   6.956
    6AU     LIG 3314  24.247  35.726   6.827
    6AU     LIG 3315  24.248  35.282   6.663
    6AU       S 3316  25.332  38.005   7.728
    6AU     LIG 3317  25.334  37.485   7.690
    6AU     LIG 3318  25.198  37.078   7.937
    6AU     LIG 3319  25.286  36.610   8.057
    6AU     LIG 3320  25.613  36.241   8.127
    6AU     LIG 3321  25.833  35.833   8.273
    6AU     LIG 3322  25.966  35.384   8.231
    6AU    AUSL 3323  25.324  39.725   6.975
    6AU    AUSL 3324  25.632  39.494   7.273
    6AU     AUL 3325  25.689  39.798   7.014
    6AU       S 3326  25.365  40.048   6.796
    6AU     LIG 3327  25.632  40.339   6.557
    6AU     LIG 3328  25.691  40.717   6.273
    6AU     LIG 3329  25.598  40.954   5.852
    6AU     LIG 3330  25.560  41.346   5.575
    6AU     LIG 3331  25.680  41.742   5.355
    6AU     LIG 3332  25.720  42.113   5.081
    6AU       S 3333  26.045  39.510   6.952
    6AU     LIG 3334  26.391  39.915   6.908
    6AU     LIG 3335  26.677  40.093   6.580
    6AU     LIG 3336  26.921  40.313   6.223
    6AU     LIG 3337  27.210  40.711   6.115
    6AU     LIG 3338  27.462  41.155   6.101
    6AU     LIG 3339  27.717  41.600   6.095
    6AU    AUSL 3340  25.223  39.679   7.367
    6AU    AUSL 3341  25.100  39.406   7.073
    6AU     AUL 3342  25.056  39.888   7.120
    6AU       S 3343  25.418  40.180   7.027
    6AU     LIG 3344  25.366  40.608   6.908
    6AU     LIG 3345  25.534  40.983   6.710
    6AU     LIG 3346  25.372  41.429   6.641
    6AU     LIG 3347  25.076  41.808   6.574
    6AU     LIG 3348  25.020  42.259   6.436
    6AU     LIG 3349  24.973  42.733   6.389
    6AU       S 3350  24.922  39.710   6.710
    6AU     LIG 3351  24.792  39.814   6.292
    6AU     LIG 3352  24.589  40.128   5.998
    6AU     LIG 3353  24.283  40.357   5.705
    6AU     LIG 3354  24.256  40.592   5.287
    6AU     LIG 3355  24.100  40.796   4.871
    6AU     LIG 3356  23.883  41.144   4.622
    6AU    AUSL 3357  25.396  38.365   6.985
    6AU    AUSL 3358  24.977  38.634   7.331
    6AU     AUL 3359  25.056  38.335   6.931
    6AU       S 3360  24.636  38.255   7.161
    6AU     LIG 3361  24.339  37.986   7.325
    6AU     LIG 3362  24.017  37.716   7.098
    6AU     LIG 3363  23.697  37.488   6.816
    6AU     LIG 3364  23.408  37.263   6.509
    6AU     LIG 3365  23.151  37.063   6.162
    6AU     LIG 3366  23.018  36.777   5.813
    6AU       S 3367  25.330  37.969   6.927
    6AU     LIG 3368  25.400  37.612   6.724
    6AU     LIG 3369  25.078  37.289   6.696
    6AU     LIG 3370  24.941  36.845   6.633
    6AU     LIG 3371  25.066  36.478   6.357
    6AU     LIG 3372  25.051  36.286   5.905
    6AU     LIG 3373  24.925  36.006   5.526
    6AU    AUSL 3374  25.404  38.482   7.398
    6AU    AUSL 3375  25.543  38.719   7.093
    6AU     AUL 3376  25.602  38.216   7.200
    6AU       S 3377  25.258  37.932   7.222
    6AU     LIG 3378  25.227  37.433   7.184
    6AU     LIG 3379  25.168  36.963   7.090
    6AU     LIG 3380  25.302  36.545   6.880
    6AU     LIG 3381  25.474  36.103   6.797
    6AU     LIG 3382  25.742  35.789   6.572
    6AU     LIG 3383  26.099  35.502   6.726
    6AU       S 3384  25.811  38.290   6.799
    6AU     LIG 3385  25.645  38.052   6.493
    6AU     LIG 3386  25.859  37.719   6.234
    6AU     LIG 3387  26.126  37.377   6.022
    6AU     LIG 3388  26.431  37.093   5.778
    6AU     LIG 3389  26.594  36.958   5.345
    6AU     LIG 3390  26.777  36.862   4.901
    7AU     AUC 3391  22.870  22.564   7.502
    7AU     AUC 3392  23.129  22.562   7.340
    7AU     AUC 3393  23.116  22.543   7.658
    7AU     AUC 3394  22.621  22.575   7.335
    7AU     AUC 3395  22.608  22.587   7.654
    7AU     AUC 3396  22.727  22.825   7.506
    7AU     AUC 3397  23.035  22.813   7.494
    7AU     AUC 3398  22.706  22.320   7.507
    7AU     AUC 3399  23.004  22.296   7.511
    7AU     AUC 3400  22.864  22.406   7.758
    7AU     AUC 3401  22.886  22.719   7.763
    7AU     AUC 3402  22.865  22.409   7.238
    7AU     AUC 3403  22.872  22.714   7.244
    7AU     AUC 3404  23.387  22.559   7.184
    7AU     AUC 3405  23.387  22.551   7.487
    7AU     AUC 3406  23.371  22.537   7.814
    7AU     AUC 3407  22.364  22.574   7.181
    7AU     AUC 3408  22.353  22.595   7.484
    7AU     AUC 3409  22.358  22.611   7.810
    7AU     AUC 3410  22.588  23.091   7.513
    7AU     AUC 3411  22.901  23.085   7.511
    7AU     AUC 3412  23.207  23.071   7.499
    7AU     AUC 3413  22.524  22.073   7.509
    7AU     AUC 3414  22.831  22.044   7.494
    7AU     AUC 3415  23.144  22.030   7.516
    7AU     AUC 3416  22.861  22.253   8.009
    7AU     AUC 3417  22.882  22.562   8.030
    7AU     AUC 3418  22.894  22.865   8.026
    7AU     AUC 3419  22.866  22.235   6.997
    7AU     AUC 3420  22.873  22.551   6.978
    7AU     AUC 3421  22.873  22.867   6.986
    7AU     AUC 3422  23.128  22.396   7.923
    7AU     AUC 3423  23.141  22.699   7.930
    7AU     AUC 3424  23.138  22.396   7.080
    7AU     AUC 3425  23.144  22.701   7.073
    7AU     AUC 3426  22.600  22.438   7.925
    7AU     AUC 3427  22.619  22.741   7.931
    7AU     AUC 3428  22.617  22.416   7.067
    7AU     AUC 3429  22.614  22.725   7.080
    7AU     AUC 3430  23.294  22.814   7.326
    7AU     AUC 3431  23.299  22.791   7.658
    7AU     AUC 3432  22.461  22.839   7.352
    7AU     AUC 3433  22.469  22.852   7.671
    7AU     AUC 3434  23.283  22.287   7.357
    7AU     AUC 3435  23.253  22.259   7.660
    7AU     AUC 3436  22.445  22.320   7.339
    7AU     AUC 3437  22.441  22.342   7.681
    7AU     AUC 3438  22.732  22.982   7.780
    7AU     AUC 3439  23.051  22.982   7.750
    7AU     AUC 3440  22.670  22.153   7.752
    7AU     AUC 3441  22.986  22.132   7.765
    7AU     AUC 3442  22.728  22.986   7.248
    7AU     AUC 3443  23.046  22.967   7.236
    7AU     AUC 3444  22.694  22.164   7.233
    7AU     AUC 3445  23.023  22.143   7.252
    7AU    AUSL 3446  23.369  22.445   8.178
    7AU    AUSL 3447  23.141  22.070   8.118
    7AU     AUL 3448  23.451  22.133   8.363
    7AU       S 3449  23.445  21.735   8.116
    7AU     LIG 3450  23.275  21.494   8.397
    7AU     LIG 3451  23.447  21.206   8.671
    7AU     LIG 3452  23.707  20.907   8.895
    7AU     LIG 3453  23.974  20.618   9.146
    7AU     LIG 3454  23.997  20.392   9.566
    7AU     LIG 3455  24.051  20.170   9.987
    7AU       S 3456  23.331  22.498   8.632
    7AU     LIG 3457  23.369  22.498   9.049
    7AU     LIG 3458  23.656  22.256   9.305
    7AU     LIG 3459  23.905  22.054   9.631
    7AU     LIG 3460  24.265  21.983   9.928
    7AU     LIG 3461  24.550  21.947  10.304
    7AU     LIG 3462  24.952  22.041  10.536
    7AU    AUSL 3463  22.981  22.389   8.322
    7AU    AUSL 3464  22.790  22.756   8.281
    7AU     AUL 3465  22.907  22.710   8.685
    7AU       S 3466  23.050  22.326   8.503
    7AU     LIG 3467  22.953  22.221   8.907
    7AU     LIG 3468  23.202  22.013   9.252
    7AU     LIG 3469  23.434  21.810   9.630
    7AU     LIG 3470  23.499  21.586  10.064
    7AU     LIG 3471  23.595  21.423  10.507
    7AU     LIG 3472  23.767  21.455  10.949
    7AU       S 3473  22.531  22.468   8.639
    7AU     LIG 3474  22.437  22.369   9.095
    7AU     LIG 3475  22.228  22.282   9.522
    7AU     LIG 3476  22.052  22.258   9.971
    7AU     LIG 3477  22.004  22.559  10.354
    7AU     LIG 3478  22.049  22.860  10.738
    7AU     LIG 3479  22.003  23.209  11.076
    7AU    AUSL 3480  23.187  22.796   8.286
    7AU    AUSL 3481  23.521  22.785   8.001
    7AU     AUL 3482  23.625  22.596   8.279
    7AU       S 3483  23.254  22.839   8.431
    7AU     LIG 3484  23.146  23.201   8.623
    7AU     LIG 3485  23.355  23.347   9.045
    7AU     LIG 3486  23.469  23.312   9.534
    7AU     LIG 3487  23.536  23.242  10.031
    7AU     LIG 3488  23.665  23.260  10.508
    7AU     LIG 3489  23.740  23.258  10.971
    7AU       S 3490  23.778  23.038   8.167
    7AU     LIG 3491  24.112  23.233   8.409
    7AU     LIG 3492  24.362  23.338   8.786
    7AU     LIG 3493  24.694  23.531   9.051
    7AU     LIG 3494  25.007  23.496   9.411
    7AU     LIG 3495  25.381  23.483   9.717
    7AU     LIG 3496  25.766  23.697   9.898
    7AU    AUSL 3497  23.388  22.570   6.855
    7AU    AUSL 3498  23.168  22.985   6.826
    7AU     AUL 3499  23.514  22.918   6.447
    7AU       S 3500  23.450  22.593   6.716
    7AU     LIG 3501  23.702  22.468   6.340
    7AU     LIG 3502  23.771  22.271   5.936
    7AU     LIG 3503  23.887  22.121   5.500
    7AU     LIG 3504  24.118  21.967   5.102
    7AU     LIG 3505  24.493  21.898   4.787
    7AU     LIG 3506  24.845  21.959   4.461
    7AU       S 3507  23.163  23.063   6.655
    7AU     LIG 3508  23.489  23.404   6.578
    7AU     LIG 3509  23.793  23.490   6.230
    7AU     LIG 3510  24.057  23.610   5.833
    7AU     LIG 3511  24.221  23.761   5.392
    7AU     LIG 3512  24.396  23.945   4.970
    7AU     LIG 3513  24.547  24.315   4.696
    7AU    AUSL 3514  23.105  22.282   6.693
    7AU    AUSL 3515  23.518  22.221   7.012
    7AU     AUL 3516  23.430  22.168   6.637
    7AU       S 3517  23.676  21.849   6.880
    7AU     LIG 3518  23.738  21.568   6.497
    7AU     LIG 3519  23.869  21.154   6.316
    7AU     LIG 3520  24.125  20.849   6.062
    7AU     LIG 3521  24.475  20.847   5.731
    7AU     LIG 3522  24.850  20.966   5.447
    7AU     LIG 3523  25.184  20.837   5.132
    7AU       S 3524  23.207  22.531   6.423
    7AU     LIG 3525  23.272  22.177   6.142
    7AU     LIG 3526  23.431  21.938   5.740
    7AU     LIG 3527  23.556  21.786   5.291
    7AU     LIG 3528  23.590  21.498   4.900
    7AU     LIG 3529  23.634  21.430   4.432
    7AU     LIG 3530  23.848  21.603   4.037
    7AU    AUSL 3531  22.987  22.633   6.884
    7AU    AUSL 3532  22.712  22.404   6.675
    7AU     AUL 3533  22.897  22.207   6.535
    7AU       S 3534  22.533  22.515   6.348
    7AU     LIG 3535  22.598  22.116   6.145
    7AU     LIG 3536  22.397  21.880   5.788
    7AU     LIG 3537  22.185  21.805   5.366
    7AU     LIG 3538  21.908  21.668   5.002
    7AU     LIG 3539  21.823  21.519   4.564
    7AU     LIG 3540  21.982  21.598   4.117
    7AU       S 3541  23.121  22.624   6.491
    7AU     LIG 3542  23.335  22.665   5.984
    7AU     LIG 3543  23.449  22.432   5.571
    7AU     LIG 3544  23.616  22.348   5.117
    7AU     LIG 3545  23.623  22.580   4.682
    7AU     LIG 3546  23.743  22.793   4.253
    7AU     LIG 3547  23.942  22.969   3.845
    7AU    AUSL 3548  22.412  22.629   8.216
    7AU    AUSL 3549  22.543  23.042   8.144
    7AU     AUL 3550  22.604  22.957   8.453
    7AU       S 3551  22.341  22.617   8.643
    7AU     LIG 3552  22.082  22.246   8.725
    7AU     LIG 3553  21.934  22.081   9.145
    7AU     LIG 3554  21.750  22.052   9.597
    7AU     LIG 3555  21.555  22.025  10.040
    7AU     LIG 3556  21.201  21.965  10.362
    7AU     LIG 3557  20.854  22.094  10.666
    7AU       S 3558  22.145  22.999   8.360
    7AU     LIG 3559  22.193  23.193   8.771
    7AU     LIG 3560  22.068  23.529   9.086
    7AU     LIG 3561  21.909  23.848   9.395
    7AU     LIG 3562  21.840  24.035   9.829
    7AU     LIG 3563  21.694  24.307  10.196
    7AU     LIG 3564  21.490  24.688  10.396
    7AU    AUSL 3565  22.706  22.423   8.029
    7AU    AUSL 3566  22.153  22.417   7.982
    7AU     AUL 3567  22.268  22.415   8.237
    7AU       S 3568  21.978  22.059   8.246
    7AU     LIG 3569  21.639  21.898   8.011
    7AU     LIG 3570  21.333  21.598   8.173
    7AU     LIG 3571  21.111  21.342   8.501
    7AU     LIG 3572  20.863  21.086   8.810
    7AU     LIG 3573  20.613  20.849   9.132
    7AU     LIG 3574  20.264  20.932   9.442
    7AU       S 3575  22.580  22.354   8.573
    7AU     LIG 3576  22.514  21.963   8.796
    7AU     LIG 3577  22.390  21.859   9.247
    7AU     LIG 3578  22.188  21.791   9.684
    7AU     LIG 3579  21.979  21.734  10.107
    7AU     LIG 3580  21.821  21.729  10.562
    7AU     LIG 3581  21.605  21.649  10.992
    7AU    AUSL 3582  22.434  22.553   6.925
    7AU    AUSL 3583  22.616  22.103   6.927
    7AU     AUL 3584  22.436  22.185   6.655
    7AU       S 3585  22.270  22.503   6.376
    7AU     LIG 3586  22.109  22.221   6.088
    7AU     LIG 3587  21.988  22.186   5.658
    7AU     LIG 3588  21.715  22.041   5.318
    7AU     LIG 3589  21.434  21.921   4.968
    7AU     LIG 3590  21.141  21.985   4.608
    7AU     LIG 3591  20.844  22.244   4.347
    7AU       S 3592  22.167  21.813   6.812
    7AU     LIG 3593  21.916  21.434   6.793
    7AU     LIG 3594  21.620  21.160   6.539
    7AU     LIG 3595  21.320  20.932   6.236
    7AU     LIG 3596  21.097  20.844   5.817
    7AU     LIG 3597  21.060  20.763   5.341
    7AU     LIG 3598  21.042  20.428   4.998
    7AU    AUSL 3599  22.696  22.832   6.683
    7AU    AUSL 3600  22.242  22.909   6.972
    7AU     AUL 3601  22.314  22.801   6.704
    7AU       S 3602  22.140  23.219   6.791
    7AU     LIG 3603  21.887  23.113   6.455
    7AU     LIG 3604  21.669  23.366   6.121
    7AU     LIG 3605  21.301  23.364   5.809
    7AU     LIG 3606  20.933  23.409   5.500
    7AU     LIG 3607  20.600  23.615   5.220
    7AU     LIG 3608  20.350  23.924   4.983
    7AU       S 3609  22.660  22.645   6.439
    7AU     LIG 3610  22.824  22.541   5.971
    7AU     LIG 3611  22.489  22.369   5.645
    7AU     LIG 3612  22.245  22.312   5.210
    7AU     LIG 3613  22.238  22.442   4.719
    7AU     LIG 3614  22.236  22.602   4.241
    7AU     LIG 3615  22.029  22.724   3.810
    7AU    AUSL 3616  23.566  23.063   7.429
    7AU    AUSL 3617  23.513  22.903   7.049
    7AU     AUL 3618  23.621  23.331   7.282
    7AU       S 3619  23.645  23.037   6.871
    7AU     LIG 3620  23.984  23.079   6.548
    7AU     LIG 3621  24.260  23.271   6.203
    7AU     LIG 3622  24.524  23.375   5.814
    7AU     LIG 3623  24.883  23.387   5.494
    7AU     LIG 3624  25.300  23.549   5.321
    7AU     LIG 3625  25.586  23.902   5.199
    7AU       S 3626  23.980  23.036   7.278
    7AU     LIG 3627  24.484  23.138   7.314
    7AU     LIG 3628  24.949  23.121   7.452
    7AU     LIG 3629  25.400  23.279   7.394
    7AU     LIG 3630  25.649  23.677   7.419
    7AU     LIG 3631  25.874  24.086   7.455
    7AU     LIG 3632  26.243  24.371   7.416
    7AU    AUSL 3633  23.699  22.637   7.293
    7AU    AUSL 3634  23.694  22.418   7.715
    7AU     AUL 3635  23.963  22.460   7.533
    7AU       S 3636  23.947  22.736   7.158
    7AU     LIG 3637  24.372  22.732   7.018
    7AU     LIG 3638  24.833  22.728   7.147
    7AU     LIG 3639  25.230  22.954   7.034
    7AU     LIG 3640  25.688  22.888   7.102
    7AU     LIG 3641  26.159  22.874   7.086
    7AU     LIG 3642  26.416  23.251   7.023
    7AU       S 3643  24.009  22.011   7.673
    7AU     LIG 3644  24.452  21.902   7.649
    7AU     LIG 3645  24.794  21.618   7.740
    7AU     LIG 3646  25.169  21.400   7.817
    7AU     LIG 3647  25.611  21.311   7.788
    7AU     LIG 3648  26.053  21.272   7.901
    7AU     LIG 3649  26.408  21.543   8.007
    7AU    AUSL 3650  23.447  22.721   7.613
    7AU    AUSL 3651  23.418  23.134   7.798
    7AU     AUL 3652  23.735  22.901   7.722
    7AU       S 3653  23.652  23.269   7.987
    7AU     LIG 3654  23.739  23.572   8.334
    7AU     LIG 3655  24.110  23.751   8.597
    7AU     LIG 3656  24.488  24.023   8.766
    7AU     LIG 3657  24.815  24.393   8.723
    7AU     LIG 3658  25.146  24.757   8.781
    7AU     LIG 3659  25.293  25.230   8.823
    7AU       S 3660  24.054  22.910   7.405
    7AU     LIG 3661  24.453  22.653   7.520
    7AU     LIG 3662  24.899  22.482   7.633
    7AU     LIG 3663  25.236  22.518   7.967
    7AU     LIG 3664  25.658  22.695   7.960
    7AU     LIG 3665  26.118  22.810   7.927
    7AU     LIG 3666  26.422  23.122   7.746
    7AU    AUSL 3667  22.228  23.121   7.586
    7AU    AUSL 3668  22.263  22.856   7.914
    7AU     AUL 3669  22.223  23.311   7.843
    7AU       S 3670  22.049  22.926   8.100
    7AU     LIG 3671  21.694  23.180   8.344
    7AU     LIG 3672  21.680  23.363   8.782
    7AU     LIG 3673  21.510  23.591   9.179
    7AU     LIG 3674  21.136  23.642   9.506
    7AU     LIG 3675  20.720  23.734   9.761
    7AU     LIG 3676  20.258  23.809   9.901
    7AU       S 3677  21.826  23.147   7.686
    7AU     LIG 3678  21.752  23.566   7.501
    7AU     LIG 3679  21.408  23.926   7.494
    7AU     LIG 3680  21.014  24.236   7.536
    7AU     LIG 3681  20.641  24.562   7.601
    7AU     LIG 3682  20.219  24.755   7.672
    7AU     LIG 3683  19.829  24.972   7.803
    7AU    AUSL 3684  22.294  22.794   7.350
    7AU    AUSL 3685  22.409  23.218   7.229
    7AU     AUL 3686  22.106  23.142   7.258
    7AU       S 3687  21.717  23.056   7.503
    7AU     LIG 3688  21.463  23.020   7.128
    7AU     LIG 3689  21.084  23.209   6.889
    7AU     LIG 3690  20.611  23.191   6.833
    7AU     LIG 3691  20.171  23.412   6.763
    7AU     LIG 3692  19.878  23.783   6.851
    7AU     LIG 3693  19.457  23.934   6.709
    7AU       S 3694  22.236  23.429   6.888
    7AU     LIG 3695  22.049  23.609   6.466
    7AU     LIG 3696  21.878  23.916   6.132
    7AU     LIG 3697  21.795  24.383   5.986
    7AU     LIG 3698  21.690  24.844   5.839
    7AU     LIG 3699  21.381  25.192   5.721
    7AU     LIG 3700  20.935  25.308   5.556
    7AU    AUSL 3701  22.012  22.718   7.640
    7AU    AUSL 3702  22.056  22.467   7.300
    7AU     AUL 3703  21.901  22.735   7.233
    7AU       S 3704  21.721  22.293   7.430
    7AU     LIG 3705  21.372  22.367   7.757
    7AU     LIG 3706  20.880  22.442   7.745
    7AU     LIG 3707  20.490  22.147   7.796
    7AU     LIG 3708  20.127  21.906   7.572
    7AU     LIG 3709  19.762  22.048   7.304
    7AU     LIG 3710  19.447  21.765   7.088
    7AU       S 3711  21.826  22.754   7.710
    7AU     LIG 3712  21.509  22.846   7.998
    7AU     LIG 3713  21.091  23.011   8.189
    7AU     LIG 3714  20.662  23.247   8.236
    7AU     LIG 3715  20.224  23.416   8.343
    7AU     LIG 3716  19.781  23.249   8.219
    7AU     LIG 3717  19.321  23.356   8.219
    7AU    AUSL 3718  23.555  22.047   7.572
    7AU    AUSL 3719  23.318  22.298   7.817
    7AU     AUL 3720  23.695  22.224   7.946
    7AU       S 3721  23.717  21.792   7.559
    7AU     LIG 3722  24.000  21.509   7.748
    7AU     LIG 3723  24.393  21.326   7.602
    7AU     LIG 3724  24.827  21.148   7.509
    7AU     LIG 3725  25.294  21.003   7.479
    7AU     LIG 3726  25.586  20.606   7.451
    7AU     LIG 3727  25.976  20.438   7.647
    7AU       S 3728  23.547  21.808   8.044
    7AU     LIG 3729  23.785  21.672   8.450
    7AU     LIG 3730  23.961  21.302   8.646
    7AU     LIG 3731  24.217  20.965   8.830
    7AU     LIG 3732  24.486  20.786   9.168
    7AU     LIG 3733  24.895  20.794   9.416
    7AU     LIG 3734  25.269  20.673   9.684
    7AU    AUSL 3735  23.414  22.368   7.374
    7AU    AUSL 3736  23.339  21.919   7.251
    7AU     AUL 3737  23.713  22.166   7.230
    7AU       S 3738  23.718  21.922   7.599
    7AU     LIG 3739  24.121  21.735   7.278
    7AU     LIG 3740  24.626  21.620   7.249
    7AU     LIG 3741  25.114  21.515   7.307
    7AU     LIG 3742  25.573  21.380   7.246
    7AU     LIG 3743  26.022  21.254   7.057
    7AU     LIG 3744  26.485  21.171   6.914
    7AU       S 3745  23.602  21.708   7.074
    7AU     LIG 3746  23.488  21.269   6.838
    7AU     LIG 3747  23.586  20.840   6.609
    7AU     LIG 3748  23.840  20.510   6.357
    7AU     LIG 3749  24.137  20.232   6.115
    7AU     LIG 3750  24.455  19.874   6.100
    7AU     LIG 3751  24.839  19.628   5.995
    7AU    AUSL 3752  22.165  22.091   7.485
    7AU    AUSL 3753  22.244  22.218   7.053
    7AU     AUL 3754  21.968  22.297   7.023
    7AU       S 3755  22.158  21.880   7.046
    7AU     LIG 3756  21.682  21.847   6.995
    7AU     LIG 3757  21.375  21.568   6.747
    7AU     LIG 3758  21.078  21.333   6.439
    7AU     LIG 3759  20.779  21.086   6.147
    7AU     LIG 3760  20.411  20.889   5.908
    7AU     LIG 3761  20.153  20.694   5.555
    7AU       S 3762  21.871  22.061   7.409
    7AU     LIG 3763  21.502  21.850   7.514
    7AU     LIG 3764  21.054  21.994   7.518
    7AU     LIG 3765  20.617  21.857   7.390
    7AU     LIG 3766  20.336  21.466   7.427
    7AU     LIG 3767  19.971  21.171   7.454
    7AU     LIG 3768  19.564  21.013   7.626
    7AU    AUSL 3769  22.319  22.456   7.621
    7AU    AUSL 3770  22.390  22.109   7.853
    7AU     AUL 3771  22.026  22.220   7.804
    7AU       S 3772  22.140  21.948   8.154
    7AU     LIG 3773  22.054  21.689   7.797
    7AU     LIG 3774  21.697  21.373   7.866
    7AU     LIG 3775  21.333  21.087   8.087
    7AU     LIG 3776  21.001  20.848   8.365
    7AU     LIG 3777  20.732  20.591   8.676
    7AU     LIG 3778  20.588  20.177   8.860
    7AU       S 3779  21.770  22.348   7.452
    7AU     LIG 3780  21.279  22.397   7.258
    7AU     LIG 3781  20.783  22.348   7.240
    7AU     LIG 3782  20.319  22.322   7.346
    7AU     LIG 3783  19.958  22.350   7.694
    7AU     LIG 3784  19.654  22.046   7.828
    7AU     LIG 3785  19.310  21.727   7.924
    7AU    AUSL 3786  22.904  23.205   8.055
    7AU    AUSL 3787  22.594  23.030   7.743
    7AU     AUL 3788  22.609  23.329   8.115
    7AU       S 3789  22.215  23.142   8.265
    7AU     LIG 3790  22.076  23.534   8.391
    7AU     LIG 3791  21.889  23.828   8.706
    7AU     LIG 3792  21.712  24.141   9.005
    7AU     LIG 3793  21.517  24.569   9.128
    7AU     LIG 3794  21.252  24.957   9.266
    7AU     LIG 3795  20.978  25.325   9.446
    7AU       S 3796  22.978  23.616   8.024
    7AU     LIG 3797  23.227  23.664   8.381
    7AU     LIG 3798  23.338  24.076   8.576
    7AU     LIG 3799  23.242  24.484   8.811
    7AU     LIG 3800  23.167  24.776   9.185
    7AU     LIG 3801  23.211  25.142   9.479
    7AU     LIG 3802  23.097  25.568   9.653
    7AU    AUSL 3803  22.662  23.416   7.674
    7AU    AUSL 3804  23.132  23.396   7.306
    7AU     AUL 3805  22.795  23.657   7.467
    7AU       S 3806  22.840  23.701   7.921
    7AU     LIG 3807  23.062  24.098   8.123
    7AU     LIG 3808  23.150  24.531   8.300
    7AU     LIG 3809  22.976  24.974   8.375
    7AU     LIG 3810  22.787  25.413   8.441
    7AU     LIG 3811  22.538  25.814   8.361
    7AU     LIG 3812  22.503  26.299   8.312
    7AU       S 3813  23.206  23.699   7.238
    7AU     LIG 3814  23.535  23.779   6.952
    7AU     LIG 3815  23.689  24.217   6.797
    7AU     LIG 3816  23.964  24.638   6.794
    7AU     LIG 3817  24.053  25.135   6.862
    7AU     LIG 3818  23.916  25.567   6.707
    7AU     LIG 3819  23.685  25.971   6.675
    7AU    AUSL 3820  23.057  23.263   7.682
    7AU    AUSL 3821  23.107  22.889   7.910
    7AU     AUL 3822  23.206  23.228   8.096
    7AU       S 3823  23.608  23.058   8.211
    7AU     LIG 3824  23.657  23.168   8.651
    7AU     LIG 3825  23.880  23.450   8.954
    7AU     LIG 3826  24.226  23.742   9.122
    7AU     LIG 3827  24.480  24.035   9.420
    7AU     LIG 3828  24.565  24.206   9.875
    7AU     LIG 3829  24.504  24.565  10.198
    7AU       S 3830  23.147  23.555   7.766
    7AU     LIG 3831  23.468  23.818   7.956
    7AU     LIG 3832  23.577  24.257   8.147
    7AU     LIG 3833  23.689  24.735   8.220
    7AU     LIG 3834  23.868  25.199   8.269
    7AU     LIG 3835  23.784  25.672   8.345
    7AU     LIG 3836  24.044  26.063   8.473
    7AU    AUSL 3837  22.821  21.995   7.866
    7AU    AUSL 3838  23.221  21.901   7.746
    7AU     AUL 3839  22.992  21.801   8.118
    7AU       S 3840  22.811  21.408   7.977
    7AU     LIG 3841  22.835  21.070   8.224
    7AU     LIG 3842  22.516  20.784   8.324
    7AU     LIG 3843  22.439  20.347   8.407
    7AU     LIG 3844  22.593  19.948   8.596
    7AU     LIG 3845  22.566  19.633   8.941
    7AU     LIG 3846  22.509  19.474   9.390
    7AU       S 3847  23.357  21.661   7.848
    7AU     LIG 3848  23.647  21.295   8.083
    7AU     LIG 3849  23.759  20.924   8.363
    7AU     LIG 3850  23.967  20.569   8.600
    7AU     LIG 3851  24.199  20.159   8.648
    7AU     LIG 3852  24.502  19.811   8.765
    7AU     LIG 3853  24.839  19.464   8.810
    7AU    AUSL 3854  22.529  21.811   7.629
    7AU    AUSL 3855  22.611  22.082   8.207
    7AU     AUL 3856  22.534  21.790   7.982
    7AU       S 3857  22.614  21.360   7.857
    7AU     LIG 3858  22.256  21.161   7.980
    7AU     LIG 3859  22.193  20.705   7.930
    7AU     LIG 3860  22.274  20.252   7.930
    7AU     LIG 3861  22.286  19.878   8.191
    7AU     LIG 3862  22.129  19.497   8.401
    7AU     LIG 3863  21.996  19.049   8.462
    7AU       S 3864  22.296  21.961   8.336
    7AU     LIG 3865  21.990  21.519   8.299
    7AU     LIG 3866  21.633  21.260   8.462
    7AU     LIG 3867  21.367  20.944   8.717
    7AU     LIG 3868  21.109  20.691   9.035
    7AU     LIG 3869  20.968  20.576   9.476
    7AU     LIG 3870  20.865  20.430   9.927
    7AU    AUSL 3871  22.919  21.673   7.612
    7AU    AUSL 3872  22.648  21.765   7.242
    7AU     AUL 3873  22.472  21.564   7.474
    7AU       S 3874  22.743  21.428   7.103
    7AU     LIG 3875  22.357  21.292   7.041
    7AU     LIG 3876  22.249  20.843   7.033
    7AU     LIG 3877  22.242  20.378   6.996
    7AU     LIG 3878  22.333  19.962   6.802
    7AU     LIG 3879  22.146  19.561   6.642
    7AU     LIG 3880  22.011  19.111   6.582
    7AU       S 3881  22.874  21.505   7.723
    7AU     LIG 3882  22.828  20.966   7.698
    7AU     LIG 3883  22.709  20.541   7.912
    7AU     LIG 3884  22.760  20.092   8.097
    7AU     LIG 3885  22.974  19.715   8.314
    7AU     LIG 3886  23.207  19.306   8.444
    7AU     LIG 3887  23.405  18.903   8.638
    7AU    AUSL 3888  22.887  23.234   6.981
    7AU    AUSL 3889  23.192  23.001   7.268
    7AU     AUL 3890  23.258  23.301   7.015
    7AU       S 3891  22.952  23.597   6.839
    7AU     LIG 3892  23.215  23.838   6.554
    7AU     LIG 3893  23.339  24.265   6.405
    7AU     LIG 3894  23.357  24.557   6.015
    7AU     LIG 3895  23.298  24.833   5.615
    7AU     LIG 3896  23.185  25.261   5.420
    7AU     LIG 3897  23.083  25.646   5.149
    7AU       S 3898  23.602  23.002   6.947
    7AU     LIG 3899  23.917  23.431   6.899
    7AU     LIG 3900  24.153  23.640   6.568
    7AU     LIG 3901  24.455  23.905   6.332
    7AU     LIG 3902  24.632  24.342   6.274
    7AU     LIG 3903  24.737  24.727   6.020
    7AU     LIG 3904  25.028  25.077   5.905
    7AU    AUSL 3905  22.786  23.178   7.372
    7AU    AUSL 3906  22.645  22.921   7.068
    7AU     AUL 3907  22.633  23.400   7.125
    7AU       S 3908  23.012  23.689   7.071
    7AU     LIG 3909  23.156  24.139   6.958
    7AU     LIG 3910  23.132  24.587   6.787
    7AU     LIG 3911  22.919  25.037   6.772
    7AU     LIG 3912  22.844  25.475   6.577
    7AU     LIG 3913  22.625  25.899   6.445
    7AU     LIG 3914  22.568  26.350   6.245
    7AU       S 3915  22.473  23.250   6.720
    7AU     LIG 3916  22.358  23.226   6.291
    7AU     LIG 3917  22.142  23.498   5.946
    7AU     LIG 3918  21.977  23.715   5.530
    7AU     LIG 3919  21.880  23.924   5.085
    7AU     LIG 3920  21.703  24.184   4.713
    7AU     LIG 3921  21.456  24.545   4.512
    7AU    AUSL 3922  22.952  21.877   6.971
    7AU    AUSL 3923  22.534  22.142   7.329
    7AU     AUL 3924  22.607  21.834   6.938
    7AU       S 3925  22.186  21.762   7.154
    7AU     LIG 3926  21.889  21.508   7.327
    7AU     LIG 3927  21.554  21.250   7.112
    7AU     LIG 3928  21.224  21.037   6.835
    7AU     LIG 3929  20.926  20.804   6.548
    7AU     LIG 3930  20.633  20.570   6.251
    7AU     LIG 3931  20.414  20.207   6.027
    7AU       S 3932  22.899  21.483   6.901
    7AU     LIG 3933  22.989  21.106   6.740
    7AU     LIG 3934  22.657  20.803   6.690
    7AU     LIG 3935  22.552  20.377   6.583
    7AU     LIG 3936  22.554  19.992   6.321
    7AU     LIG 3937  22.566  19.827   5.869
    7AU     LIG 3938  22.706  19.639   5.457
    7AU    AUSL 3939  22.961  21.992   7.387
    7AU    AUSL 3940  23.110  22.225   7.082
    7AU     AUL 3941  23.155  21.726   7.191
    7AU       S 3942  22.836  21.416   7.225
    7AU     LIG 3943  22.744  20.939   7.187
    7AU     LIG 3944  22.741  20.475   7.078
    7AU     LIG 3945  22.884  20.075   6.850
    7AU     LIG 3946  23.210  19.740   6.721
    7AU     LIG 3947  23.335  19.284   6.632
    7AU     LIG 3948  23.284  18.802   6.532
    7AU       S 3949  23.394  21.759   6.810
    7AU     LIG 3950  23.209  21.548   6.492
    7AU     LIG 3951  23.342  21.157   6.288
    7AU     LIG 3952  23.580  20.817   6.039
    7AU     LIG 3953  23.846  20.512   5.779
    7AU     LIG 3954  24.103  20.327   5.418
    7AU     LIG 3955  24.125  20.121   4.964
    8AU     AUC 3956  19.100  16.927   7.508
    8AU     AUC 3957  19.357  16.924   7.344
    8AU     AUC 3958  19.346  16.908   7.663
    8AU     AUC 3959  18.852  16.936   7.345
    8AU     AUC 3960  18.839  16.950   7.661
    8AU     AUC 3961  18.955  17.187   7.512
    8AU     AUC 3962  19.263  17.177   7.497
    8AU     AUC 3963  18.935  16.683   7.516
    8AU     AUC 3964  19.234  16.658   7.518
    8AU     AUC 3965  19.095  16.771   7.765
    8AU     AUC 3966  19.116  17.083   7.769
    8AU     AUC 3967  19.095  16.770   7.243
    8AU     AUC 3968  19.101  17.074   7.249
    8AU     AUC 3969  19.615  16.921   7.189
    8AU     AUC 3970  19.616  16.915   7.491
    8AU     AUC 3971  19.602  16.904   7.818
    8AU     AUC 3972  18.596  16.934   7.192
    8AU     AUC 3973  18.583  16.958   7.489
    8AU     AUC 3974  18.588  16.977   7.818
    8AU     AUC 3975  18.815  17.454   7.516
    8AU     AUC 3976  19.130  17.449   7.514
    8AU     AUC 3977  19.434  17.434   7.500
    8AU     AUC 3978  18.754  16.436   7.520
    8AU     AUC 3979  19.062  16.406   7.504
    8AU     AUC 3980  19.375  16.393   7.523
    8AU     AUC 3981  19.094  16.620   8.017
    8AU     AUC 3982  19.114  16.928   8.036
    8AU     AUC 3983  19.125  17.230   8.030
    8AU     AUC 3984  19.095  16.595   7.006
    8AU     AUC 3985  19.101  16.907   6.985
    8AU     AUC 3986  19.100  17.226   6.989
    8AU     AUC 3987  19.360  16.763   7.929
    8AU     AUC 3988  19.372  17.066   7.933
    8AU     AUC 3989  19.364  16.756   7.085
    8AU     AUC 3990  19.369  17.060   7.075
    8AU     AUC 3991  18.831  16.804   7.933
    8AU     AUC 3992  18.850  17.106   7.937
    8AU     AUC 3993  18.847  16.770   7.078
    8AU     AUC 3994  18.843  17.084   7.086
    8AU     AUC 3995  19.521  17.176   7.327
    8AU     AUC 3996  19.528  17.157   7.659
    8AU     AUC 3997  18.691  17.201   7.357
    8AU     AUC 3998  18.698  17.216   7.675
    8AU     AUC 3999  19.513  16.649   7.364
    8AU     AUC 4000  19.484  16.623   7.665
    8AU     AUC 4001  18.673  16.680   7.351
    8AU     AUC 4002  18.672  16.705   7.691
    8AU     AUC 4003  18.961  17.347   7.785
    8AU     AUC 4004  19.281  17.347   7.752
    8AU     AUC 4005  18.902  16.517   7.761
    8AU     AUC 4006  19.218  16.497   7.773
    8AU     AUC 4007  18.957  17.349   7.253
    8AU     AUC 4008  19.275  17.329   7.239
    8AU     AUC 4009  18.923  16.523   7.242
    8AU     AUC 4010  19.253  16.504   7.259
    8AU    AUSL 4011  19.605  16.816   8.180
    8AU    AUSL 4012  19.377  16.438   8.126
    8AU     AUL 4013  19.689  16.503   8.364
    8AU       S 4014  19.686  16.096   8.126
    8AU     LIG 4015  19.509  15.848   8.406
    8AU     LIG 4016  19.623  15.482   8.611
    8AU     LIG 4017  19.839  15.148   8.827
    8AU     LIG 4018  20.071  14.844   9.081
    8AU     LIG 4019  20.210  14.571   9.423
    8AU     LIG 4020  20.161  14.414   9.863
    8AU       S 4021  19.571  16.869   8.634
    8AU     LIG 4022  19.604  16.864   9.063
    8AU     LIG 4023  19.896  16.662   9.354
    8AU     LIG 4024  20.204  16.517   9.668
    8AU     LIG 4025  20.626  16.477   9.872
    8AU     LIG 4026  20.855  16.493  10.273
    8AU     LIG 4027  21.109  16.758  10.563
    8AU    AUSL 4028  19.217  16.758   8.327
    8AU    AUSL 4029  19.021  17.123   8.287
    8AU     AUL 4030  19.145  17.078   8.691
    8AU       S 4031  19.291  16.693   8.512
    8AU     LIG 4032  19.183  16.594   8.922
    8AU     LIG 4033  19.448  16.398   9.270
    8AU     LIG 4034  19.716  16.278   9.658
    8AU     LIG 4035  19.768  16.216  10.137
    8AU     LIG 4036  19.861  16.176  10.610
    8AU     LIG 4037  19.966  16.062  11.060
    8AU       S 4038  18.763  16.844   8.645
    8AU     LIG 4039  18.667  16.761   9.093
    8AU     LIG 4040  18.429  16.716   9.499
    8AU     LIG 4041  18.287  16.824   9.934
    8AU     LIG 4042  18.323  17.149  10.298
    8AU     LIG 4043  18.302  17.269  10.754
    8AU     LIG 4044  18.051  17.458  11.116
    8AU    AUSL 4045  19.418  17.165   8.288
    8AU    AUSL 4046  19.752  17.158   8.003
    8AU     AUL 4047  19.860  16.970   8.277
    8AU       S 4048  19.487  17.209   8.432
    8AU     LIG 4049  19.442  17.584   8.621
    8AU     LIG 4050  19.639  17.727   9.047
    8AU     LIG 4051  19.697  17.734   9.540
    8AU     LIG 4052  19.732  17.815  10.022
    8AU     LIG 4053  19.813  17.635  10.462
    8AU     LIG 4054  19.873  17.628  10.936
    8AU       S 4055  19.991  17.419   8.158
    8AU     LIG 4056  20.367  17.545   8.347
    8AU     LIG 4057  20.613  17.629   8.735
    8AU     LIG 4058  20.793  17.742   9.155
    8AU     LIG 4059  21.106  17.632   9.518
    8AU     LIG 4060  21.515  17.734   9.742
    8AU     LIG 4061  21.824  18.081   9.812
    8AU    AUSL 4062  19.607  16.923   6.863
    8AU    AUSL 4063  19.389  17.342   6.827
    8AU     AUL 4064  19.721  17.261   6.446
    8AU       S 4065  19.682  16.937   6.721
    8AU     LIG 4066  19.917  16.794   6.366
    8AU     LIG 4067  19.989  16.656   5.931
    8AU     LIG 4068  20.130  16.539   5.482
    8AU     LIG 4069  20.512  16.478   5.175
    8AU     LIG 4070  20.855  16.546   4.836
    8AU     LIG 4071  21.202  16.577   4.500
    8AU       S 4072  19.371  17.424   6.644
    8AU     LIG 4073  19.714  17.770   6.573
    8AU     LIG 4074  20.033  17.953   6.265
    8AU     LIG 4075  20.289  18.051   5.868
    8AU     LIG 4076  20.487  18.298   5.514
    8AU     LIG 4077  20.550  18.486   5.081
    8AU     LIG 4078  20.679  18.794   4.753
    8AU    AUSL 4079  19.324  16.636   6.698
    8AU    AUSL 4080  19.753  16.581   7.024
    8AU     AUL 4081  19.628  16.509   6.674
    8AU       S 4082  19.921  16.214   6.896
    8AU     LIG 4083  20.006  15.924   6.538
    8AU     LIG 4084  20.175  15.520   6.398
    8AU     LIG 4085  20.462  15.344   6.068
    8AU     LIG 4086  20.742  15.190   5.708
    8AU     LIG 4087  21.102  15.113   5.400
    8AU     LIG 4088  21.453  15.181   5.071
    8AU       S 4089  19.420  16.868   6.436
    8AU     LIG 4090  19.501  16.510   6.181
    8AU     LIG 4091  19.637  16.320   5.771
    8AU     LIG 4092  19.692  16.291   5.308
    8AU     LIG 4093  19.728  16.228   4.840
    8AU     LIG 4094  19.764  16.024   4.407
    8AU     LIG 4095  19.880  15.956   3.955
    8AU    AUSL 4096  19.205  16.991   6.875
    8AU    AUSL 4097  18.931  16.755   6.675
    8AU     AUL 4098  19.119  16.532   6.553
    8AU       S 4099  18.882  16.873   6.334
    8AU     LIG 4100  18.805  16.506   6.135
    8AU     LIG 4101  18.586  16.381   5.742
    8AU     LIG 4102  18.423  16.329   5.301
    8AU     LIG 4103  18.186  16.196   4.897
    8AU     LIG 4104  18.089  15.982   4.466
    8AU     LIG 4105  17.983  15.851   4.003
    8AU       S 4106  19.329  16.972   6.505
    8AU     LIG 4107  19.566  16.989   5.999
    8AU     LIG 4108  19.668  16.793   5.552
    8AU     LIG 4109  19.807  16.740   5.088
    8AU     LIG 4110  19.771  16.866   4.622
    8AU     LIG 4111  19.871  17.152   4.243
    8AU     LIG 4112  19.926  17.323   3.794
    8AU    AUSL 4113  18.641  16.999   8.222
    8AU    AUSL 4114  18.773  17.407   8.146
    8AU     AUL 4115  18.842  17.327   8.460
    8AU       S 4116  18.570  16.991   8.639
    8AU     LIG 4117  18.309  16.621   8.725
    8AU     LIG 4118  18.139  16.471   9.151
    8AU     LIG 4119  17.946  16.484   9.607
    8AU     LIG 4120  17.624  16.383   9.961
    8AU     LIG 4121  17.302  16.414  10.321
    8AU     LIG 4122  17.016  16.502  10.697
    8AU       S 4123  18.384  17.372   8.363
    8AU     LIG 4124  18.415  17.563   8.774
    8AU     LIG 4125  18.347  17.890   9.101
    8AU     LIG 4126  18.091  18.167   9.371
    8AU     LIG 4127  18.071  18.479   9.733
    8AU     LIG 4128  17.918  18.795  10.058
    8AU     LIG 4129  17.568  18.956  10.346
    8AU    AUSL 4130  18.934  16.788   8.040
    8AU    AUSL 4131  18.386  16.781   7.991
    8AU     AUL 4132  18.500  16.764   8.245
    8AU       S 4133  18.216  16.399   8.229
    8AU     LIG 4134  17.850  16.210   8.017
    8AU     LIG 4135  17.515  15.905   8.154
    8AU     LIG 4136  17.351  15.601   8.493
    8AU     LIG 4137  17.167  15.292   8.814
    8AU     LIG 4138  16.835  15.157   9.113
    8AU     LIG 4139  16.483  15.062   9.418
    8AU       S 4140  18.818  16.725   8.576
    8AU     LIG 4141  18.735  16.343   8.802
    8AU     LIG 4142  18.601  16.268   9.261
    8AU     LIG 4143  18.381  16.236   9.695
    8AU     LIG 4144  18.088  16.152  10.077
    8AU     LIG 4145  18.024  15.949  10.522
    8AU     LIG 4146  18.139  15.781  10.965
    8AU    AUSL 4147  18.692  16.898   6.968
    8AU    AUSL 4148  18.842  16.460   6.936
    8AU     AUL 4149  18.641  16.587   6.646
    8AU       S 4150  18.647  16.962   6.347
    8AU     LIG 4151  18.387  16.802   6.014
    8AU     LIG 4152  18.153  16.650   5.626
    8AU     LIG 4153  17.931  16.492   5.246
    8AU     LIG 4154  17.548  16.370   4.993
    8AU     LIG 4155  17.159  16.482   4.735
    8AU     LIG 4156  16.967  16.572   4.308
    8AU       S 4157  18.395  16.179   6.812
    8AU     LIG 4158  18.139  15.799   6.778
    8AU     LIG 4159  17.806  15.549   6.571
    8AU     LIG 4160  17.535  15.298   6.279
    8AU     LIG 4161  17.256  15.050   5.969
    8AU     LIG 4162  17.252  14.822   5.540
    8AU     LIG 4163  17.250  14.658   5.086
    8AU    AUSL 4164  18.890  17.177   6.698
    8AU    AUSL 4165  18.499  17.256   6.956
    8AU     AUL 4166  18.452  17.013   6.750
    8AU       S 4167  18.513  17.479   6.762
    8AU     LIG 4168  18.184  17.389   6.483
    8AU     LIG 4169  17.992  17.581   6.073
    8AU     LIG 4170  17.696  17.656   5.668
    8AU     LIG 4171  17.366  17.845   5.331
    8AU     LIG 4172  17.078  18.123   5.037
    8AU     LIG 4173  16.643  18.338   4.951
    8AU       S 4174  18.865  17.116   6.494
    8AU     LIG 4175  18.806  17.140   5.929
    8AU     LIG 4176  18.611  16.879   5.552
    8AU     LIG 4177  18.387  16.818   5.121
    8AU     LIG 4178  18.391  17.001   4.654
    8AU     LIG 4179  18.352  17.246   4.219
    8AU     LIG 4180  18.213  17.411   3.770
    8AU    AUSL 4181  19.794  17.424   7.424
    8AU    AUSL 4182  19.737  17.260   7.046
    8AU     AUL 4183  19.844  17.688   7.275
    8AU       S 4184  19.867  17.397   6.858
    8AU     LIG 4185  20.176  17.486   6.507
    8AU     LIG 4186  20.490  17.691   6.202
    8AU     LIG 4187  20.782  17.758   5.821
    8AU     LIG 4188  21.162  17.673   5.510
    8AU     LIG 4189  21.585  17.790   5.295
    8AU     LIG 4190  21.879  18.094   5.090
    8AU       S 4191  20.202  17.397   7.263
    8AU     LIG 4192  20.634  17.619   7.278
    8AU     LIG 4193  21.076  17.593   7.465
    8AU     LIG 4194  21.556  17.592   7.525
    8AU     LIG 4195  22.014  17.758   7.546
    8AU     LIG 4196  22.304  18.138   7.608
    8AU     LIG 4197  22.618  18.425   7.395
    8AU    AUSL 4198  19.927  17.000   7.295
    8AU    AUSL 4199  19.924  16.784   7.718
    8AU     AUL 4200  20.198  16.839   7.539
    8AU       S 4201  20.177  17.094   7.146
    8AU     LIG 4202  20.633  17.158   7.043
    8AU     LIG 4203  21.103  17.178   7.159
    8AU     LIG 4204  21.596  17.192   7.194
    8AU     LIG 4205  22.061  17.275   7.046
    8AU     LIG 4206  22.527  17.348   6.938
    8AU     LIG 4207  22.945  17.561   7.031
    8AU       S 4208  20.241  16.380   7.668
    8AU     LIG 4209  20.640  16.144   7.688
    8AU     LIG 4210  21.057  15.917   7.702
    8AU     LIG 4211  21.492  15.714   7.699
    8AU     LIG 4212  21.972  15.735   7.732
    8AU     LIG 4213  22.404  15.934   7.765
    8AU     LIG 4214  22.813  15.922   7.998
    8AU    AUSL 4215  19.676  17.087   7.616
    8AU    AUSL 4216  19.646  17.503   7.792
    8AU     AUL 4217  19.967  17.263   7.720
    8AU       S 4218  19.871  17.643   7.955
    8AU     LIG 4219  19.967  17.931   8.275
    8AU     LIG 4220  20.293  18.010   8.570
    8AU     LIG 4221  20.663  18.149   8.799
    8AU     LIG 4222  20.786  18.540   9.029
    8AU     LIG 4223  21.085  18.907   9.029
    8AU     LIG 4224  21.343  19.273   9.165
    8AU       S 4225  20.276  17.287   7.394
    8AU     LIG 4226  20.718  17.181   7.552
    8AU     LIG 4227  21.198  17.131   7.663
    8AU     LIG 4228  21.674  17.124   7.701
    8AU     LIG 4229  22.103  17.306   7.781
    8AU     LIG 4230  22.537  17.454   7.867
    8AU     LIG 4231  22.917  17.212   7.992
    8AU    AUSL 4232  18.462  17.487   7.584
    8AU    AUSL 4233  18.492  17.222   7.918
    8AU     AUL 4234  18.451  17.671   7.855
    8AU       S 4235  18.271  17.292   8.111
    8AU     LIG 4236  17.946  17.558   8.435
    8AU     LIG 4237  17.908  17.699   8.898
    8AU     LIG 4238  17.721  17.774   9.346
    8AU     LIG 4239  17.330  17.780   9.655
    8AU     LIG 4240  16.920  17.921   9.880
    8AU     LIG 4241  16.622  18.284  10.021
    8AU       S 4242  18.081  17.528   7.632
    8AU     LIG 4243  18.019  17.919   7.395
    8AU     LIG 4244  17.688  18.285   7.408
    8AU     LIG 4245  17.307  18.591   7.494
    8AU     LIG 4246  16.887  18.837   7.561
    8AU     LIG 4247  16.415  18.942   7.581
    8AU     LIG 4248  16.034  19.208   7.768
    8AU    AUSL 4249  18.517  17.159   7.344
    8AU    AUSL 4250  18.639  17.572   7.222
    8AU     AUL 4251  18.344  17.499   7.224
    8AU       S 4252  17.957  17.422   7.481
    8AU     LIG 4253  17.850  17.525   7.046
    8AU     LIG 4254  17.416  17.619   6.818
    8AU     LIG 4255  16.929  17.687   6.699
    8AU     LIG 4256  16.462  17.800   6.561
    8AU     LIG 4257  15.969  17.789   6.626
    8AU     LIG 4258  15.626  18.103   6.693
    8AU       S 4259  18.471  17.754   6.844
    8AU     LIG 4260  18.312  17.887   6.419
    8AU     LIG 4261  18.170  18.208   6.092
    8AU     LIG 4262  18.046  18.668   6.002
    8AU     LIG 4263  17.806  19.089   6.010
    8AU     LIG 4264  17.393  19.290   5.903
    8AU     LIG 4265  17.153  19.374   5.522
    8AU    AUSL 4266  18.242  17.085   7.643
    8AU    AUSL 4267  18.287  16.825   7.310
    8AU     AUL 4268  18.139  17.091   7.223
    8AU       S 4269  17.944  16.646   7.443
    8AU     LIG 4270  17.548  16.533   7.711
    8AU     LIG 4271  17.059  16.456   7.767
    8AU     LIG 4272  16.586  16.323   7.751
    8AU     LIG 4273  16.308  16.105   7.427
    8AU     LIG 4274  15.856  15.946   7.321
    8AU     LIG 4275  15.399  15.975   7.168
    8AU       S 4276  18.063  17.134   7.701
    8AU     LIG 4277  17.771  17.343   7.992
    8AU     LIG 4278  17.366  17.550   8.163
    8AU     LIG 4279  16.879  17.666   8.156
    8AU     LIG 4280  16.392  17.760   8.105
    8AU     LIG 4281  15.941  17.908   8.242
    8AU     LIG 4282  15.482  17.823   8.391
    8AU    AUSL 4283  19.786  16.412   7.577
    8AU    AUSL 4284  19.549  16.664   7.822
    8AU     AUL 4285  19.927  16.587   7.947
    8AU       S 4286  19.955  16.157   7.572
    8AU     LIG 4287  20.221  15.839   7.718
    8AU     LIG 4288  20.636  15.623   7.591
    8AU     LIG 4289  21.083  15.446   7.484
    8AU     LIG 4290  21.534  15.242   7.461
    8AU     LIG 4291  21.881  14.879   7.408
    8AU     LIG 4292  22.311  14.724   7.238
    8AU       S 4293  19.782  16.171   8.052
    8AU     LIG 4294  20.046  15.978   8.424
    8AU     LIG 4295  20.138  15.569   8.608
    8AU     LIG 4296  20.349  15.219   8.830
    8AU     LIG 4297  20.665  15.108   9.157
    8AU     LIG 4298  21.077  15.188   9.394
    8AU     LIG 4299  21.450  15.201   9.689
    8AU    AUSL 4300  19.642  16.733   7.380
    8AU    AUSL 4301  19.568  16.278   7.260
    8AU     AUL 4302  19.946  16.533   7.241
    8AU       S 4303  19.941  16.280   7.604
    8AU     LIG 4304  20.328  16.113   7.260
    8AU     LIG 4305  20.808  15.956   7.232
    8AU     LIG 4306  21.294  15.854   7.238
    8AU     LIG 4307  21.784  15.811   7.263
    8AU     LIG 4308  22.282  15.890   7.261
    8AU     LIG 4309  22.714  15.867   7.024
    8AU       S 4310  19.832  16.069   7.091
    8AU     LIG 4311  19.777  15.602   6.870
    8AU     LIG 4312  19.899  15.147   6.676
    8AU     LIG 4313  20.134  14.748   6.507
    8AU     LIG 4314  20.345  14.351   6.321
    8AU     LIG 4315  20.709  14.007   6.268
    8AU     LIG 4316  21.194  13.888   6.208
    8AU    AUSL 4317  18.394  16.454   7.499
    8AU    AUSL 4318  18.468  16.573   7.059
    8AU     AUL 4319  18.195  16.645   7.037
    8AU       S 4320  18.391  16.230   7.068
    8AU     LIG 4321  17.923  16.201   7.009
    8AU     LIG 4322  17.613  16.008   6.730
    8AU     LIG 4323  17.372  15.793   6.385
    8AU     LIG 4324  17.069  15.489   6.190
    8AU     LIG 4325  16.740  15.338   5.902
    8AU     LIG 4326  16.583  15.352   5.468
    8AU       S 4327  18.095  16.419   7.428
    8AU     LIG 4328  17.769  16.121   7.503
    8AU     LIG 4329  17.340  16.030   7.660
    8AU     LIG 4330  16.896  15.924   7.858
    8AU     LIG 4331  16.395  15.839   7.857
    8AU     LIG 4332  15.976  15.598   7.706
    8AU     LIG 4333  15.688  15.195   7.773
    8AU    AUSL 4334  18.550  16.823   7.630
    8AU    AUSL 4335  18.622  16.473   7.863
    8AU     AUL 4336  18.249  16.611   7.810
    8AU       S 4337  18.374  16.291   8.106
    8AU     LIG 4338  18.250  16.034   7.756
    8AU     LIG 4339  17.870  15.708   7.829
    8AU     LIG 4340  17.520  15.393   8.051
    8AU     LIG 4341  17.282  15.077   8.363
    8AU     LIG 4342  17.062  14.750   8.674
    8AU     LIG 4343  16.818  14.323   8.785
    8AU       S 4344  17.991  16.713   7.454
    8AU     LIG 4345  17.558  16.502   7.202
    8AU     LIG 4346  17.107  16.575   7.249
    8AU     LIG 4347  16.638  16.592   7.322
    8AU     LIG 4348  16.200  16.606   7.514
    8AU     LIG 4349  15.889  16.308   7.690
    8AU     LIG 4350  15.484  16.067   7.675
    8AU    AUSL 4351  19.135  17.569   8.063
    8AU    AUSL 4352  18.825  17.392   7.746
    8AU     AUL 4353  18.839  17.692   8.123
    8AU       S 4354  18.449  17.500   8.275
    8AU     LIG 4355  18.338  17.902   8.377
    8AU     LIG 4356  18.112  18.143   8.716
    8AU     LIG 4357  17.944  18.500   8.989
    8AU     LIG 4358  17.743  18.941   9.062
    8AU     LIG 4359  17.434  19.316   9.082
    8AU     LIG 4360  17.218  19.674   9.327
    8AU       S 4361  19.201  17.982   8.035
    8AU     LIG 4362  19.474  18.049   8.367
    8AU     LIG 4363  19.634  18.450   8.555
    8AU     LIG 4364  19.618  18.884   8.768
    8AU     LIG 4365  19.532  19.200   9.119
    8AU     LIG 4366  19.339  19.460   9.486
    8AU     LIG 4367  19.097  19.798   9.734
    8AU    AUSL 4368  18.884  17.780   7.684
    8AU    AUSL 4369  19.366  17.758   7.311
    8AU     AUL 4370  19.003  18.018   7.463
    8AU       S 4371  19.065  18.060   7.916
    8AU     LIG 4372  19.286  18.461   8.092
    8AU     LIG 4373  19.334  18.831   8.339
    8AU     LIG 4374  19.297  19.287   8.432
    8AU     LIG 4375  18.993  19.663   8.369
    8AU     LIG 4376  18.885  20.120   8.396
    8AU     LIG 4377  18.733  20.440   8.682
    8AU       S 4378  19.439  18.032   7.273
    8AU     LIG 4379  19.768  18.139   6.992
    8AU     LIG 4380  19.849  18.593   6.841
    8AU     LIG 4381  19.887  19.073   6.855
    8AU     LIG 4382  20.103  19.487   6.707
    8AU     LIG 4383  20.183  19.932   6.500
    8AU     LIG 4384  20.137  20.406   6.411
    8AU    AUSL 4385  19.281  17.631   7.688
    8AU    AUSL 4386  19.339  17.256   7.911
    8AU     AUL 4387  19.435  17.597   8.096
    8AU       S 4388  19.838  17.432   8.211
    8AU     LIG 4389  19.958  17.580   8.654
    8AU     LIG 4390  20.205  17.783   9.020
    8AU     LIG 4391  20.442  18.131   9.254
    8AU     LIG 4392  20.516  18.535   9.496
    8AU     LIG 4393  20.512  18.664   9.956
    8AU     LIG 4394  20.600  18.966  10.303
    8AU       S 4395  19.359  17.921   7.768
    8AU     LIG 4396  19.688  18.187   7.918
    8AU     LIG 4397  19.784  18.633   8.103
    8AU     LIG 4398  19.782  19.069   8.311
    8AU     LIG 4399  20.090  19.402   8.407
    8AU     LIG 4400  20.245  19.857   8.511
    8AU     LIG 4401  20.233  20.341   8.526
    8AU    AUSL 4402  19.057  16.362   7.875
    8AU    AUSL 4403  19.455  16.265   7.755
    8AU     AUL 4404  19.235  16.174   8.135
    8AU       S 4405  19.084  15.770   7.993
    8AU     LIG 4406  19.099  15.406   8.240
    8AU     LIG 4407  18.799  15.096   8.393
    8AU     LIG 4408  18.757  14.648   8.372
    8AU     LIG 4409  18.959  14.300   8.613
    8AU     LIG 4410  19.083  14.052   9.005
    8AU     LIG 4411  18.922  13.889   9.425
    8AU       S 4412  19.591  16.023   7.858
    8AU     LIG 4413  19.846  15.628   8.078
    8AU     LIG 4414  19.949  15.197   8.312
    8AU     LIG 4415  20.133  14.815   8.555
    8AU     LIG 4416  20.389  14.519   8.843
    8AU     LIG 4417  20.637  14.114   8.975
    8AU     LIG 4418  21.009  13.828   8.945
    8AU    AUSL 4419  18.764  16.175   7.641
    8AU    AUSL 4420  18.844  16.443   8.215
    8AU     AUL 4421  18.789  16.144   7.991
    8AU       S 4422  18.877  15.710   7.870
    8AU     LIG 4423  18.651  15.334   7.954
    8AU     LIG 4424  18.424  14.923   8.052
    8AU     LIG 4425  18.092  14.568   8.035
    8AU     LIG 4426  17.996  14.092   7.995
    8AU     LIG 4427  18.115  13.670   8.188
    8AU     LIG 4428  18.145  13.301   8.504
    8AU       S 4429  18.517  16.307   8.325
    8AU     LIG 4430  18.214  15.866   8.260
    8AU     LIG 4431  17.877  15.553   8.368
    8AU     LIG 4432  17.676  15.241   8.671
    8AU     LIG 4433  17.573  15.263   9.137
    8AU     LIG 4434  17.579  15.217   9.618
    8AU     LIG 4435  17.589  14.872   9.956
    8AU    AUSL 4436  19.153  16.037   7.621
    8AU    AUSL 4437  18.874  16.128   7.252
    8AU     AUL 4438  18.697  15.929   7.511
    8AU       S 4439  18.859  15.782   7.087
    8AU     LIG 4440  18.518  15.514   7.045
    8AU     LIG 4441  18.445  15.028   7.007
    8AU     LIG 4442  18.133  14.623   7.031
    8AU     LIG 4443  17.932  14.168   6.932
    8AU     LIG 4444  17.956  13.772   6.659
    8AU     LIG 4445  18.168  13.336   6.680
    8AU       S 4446  19.121  15.873   7.721
    8AU     LIG 4447  19.152  15.350   7.708
    8AU     LIG 4448  19.028  14.945   7.956
    8AU     LIG 4449  19.216  14.534   8.156
    8AU     LIG 4450  19.312  14.089   8.311
    8AU     LIG 4451  19.373  13.706   8.593
    8AU     LIG 4452  19.476  13.241   8.480
    8AU    AUSL 4453  19.118  17.601   6.985
    8AU    AUSL 4454  19.419  17.363   7.267
    8AU     AUL 4455  19.483  17.658   7.004
    8AU       S 4456  19.193  17.990   6.866
    8AU     LIG 4457  19.492  18.241   6.581
    8AU     LIG 4458  19.753  18.564   6.337
    8AU     LIG 4459  19.803  18.797   5.923
    8AU     LIG 4460  19.711  19.129   5.592
    8AU     LIG 4461  19.481  19.507   5.400
    8AU     LIG 4462  19.245  19.875   5.241
    8AU       S 4463  19.826  17.356   6.939
    8AU     LIG 4464  20.150  17.782   6.910
    8AU     LIG 4465  20.401  17.993   6.618
    8AU     LIG 4466  20.577  18.217   6.256
    8AU     LIG 4467  20.809  18.593   6.126
    8AU     LIG 4468  21.074  18.978   6.028
    8AU     LIG 4469  21.371  19.229   5.745
    8AU    AUSL 4470  19.013  17.552   7.376
    8AU    AUSL 4471  18.894  17.280   7.082
    8AU     AUL 4472  18.858  17.758   7.110
    8AU       S 4473  19.257  18.048   7.095
    8AU     LIG 4474  19.372  18.492   7.014
    8AU     LIG 4475  19.398  18.908   6.771
    8AU     LIG 4476  19.183  19.364   6.728
    8AU     LIG 4477  18.876  19.771   6.728
    8AU     LIG 4478  18.773  20.224   6.574
    8AU     LIG 4479  18.573  20.504   6.240
    8AU       S 4480  18.725  17.603   6.695
    8AU     LIG 4481  18.623  17.515   6.249
    8AU     LIG 4482  18.430  17.798   5.893
    8AU     LIG 4483  18.307  18.131   5.537
    8AU     LIG 4484  18.229  18.399   5.111
    8AU     LIG 4485  18.008  18.755   4.845
    8AU     LIG 4486  17.926  19.167   4.593
    8AU    AUSL 4487  19.180  16.237   6.981
    8AU    AUSL 4488  18.760  16.505   7.337
    8AU     AUL 4489  18.834  16.212   6.927
    8AU       S 4490  18.418  16.115   7.172
    8AU     LIG 4491  18.112  15.807   7.289
    8AU     LIG 4492  17.691  15.655   7.083
    8AU     LIG 4493  17.338  15.455   6.769
    8AU     LIG 4494  17.136  15.073   6.513
    8AU     LIG 4495  16.859  14.815   6.220
    8AU     LIG 4496  16.637  14.458   5.982
    8AU       S 4497  19.105  15.843   6.927
    8AU     LIG 4498  19.216  15.465   6.787
    8AU     LIG 4499  18.873  15.179   6.718
    8AU     LIG 4500  18.776  14.737   6.620
    8AU     LIG 4501  18.801  14.439   6.242
    8AU     LIG 4502  18.807  14.265   5.787
    8AU     LIG 4503  18.701  14.004   5.399
    8AU    AUSL 4504  19.190  16.355   7.394
    8AU    AUSL 4505  19.344  16.584   7.088
    8AU     AUL 4506  19.382  16.084   7.201
    8AU       S 4507  19.027  15.813   7.211
    8AU     LIG 4508  18.969  15.320   7.224
    8AU     LIG 4509  18.978  14.863   7.102
    8AU     LIG 4510  19.194  14.499   6.885
    8AU     LIG 4511  19.271  14.052   6.766
    8AU     LIG 4512  19.273  13.583   6.822
    8AU     LIG 4513  19.439  13.195   6.647
    8AU       S 4514  19.639  16.092   6.831
    8AU     LIG 4515  19.481  15.841   6.519
    8AU     LIG 4516  19.664  15.449   6.332
    8AU     LIG 4517  19.974  15.112   6.143
    8AU     LIG 4518  20.267  14.961   5.788
    8AU     LIG 4519  20.493  14.864   5.373
    8AU     LIG 4520  20.435  14.651   4.943
    9AU     AUC 4521  16.655  40.328   7.513
    9AU     AUC 4522  16.911  40.324   7.350
    9AU     AUC 4523  16.900  40.309   7.671
    9AU     AUC 4524  16.404  40.340   7.353
    9AU     AUC 4525  16.396  40.350   7.669
    9AU     AUC 4526  16.511  40.589   7.520
    9AU     AUC 4527  16.819  40.579   7.502
    9AU     AUC 4528  16.488  40.086   7.519
    9AU     AUC 4529  16.788  40.058   7.518
    9AU     AUC 4530  16.648  40.169   7.768
    9AU     AUC 4531  16.672  40.482   7.775
    9AU     AUC 4532  16.646  40.177   7.244
    9AU     AUC 4533  16.656  40.478   7.255
    9AU     AUC 4534  17.174  40.324   7.199
    9AU     AUC 4535  17.170  40.314   7.502
    9AU     AUC 4536  17.156  40.303   7.825
    9AU     AUC 4537  16.146  40.341   7.201
    9AU     AUC 4538  16.137  40.361   7.499
    9AU     AUC 4539  16.147  40.376   7.829
    9AU     AUC 4540  16.372  40.856   7.526
    9AU     AUC 4541  16.686  40.851   7.520
    9AU     AUC 4542  16.991  40.835   7.504
    9AU     AUC 4543  16.308  39.838   7.519
    9AU     AUC 4544  16.618  39.807   7.499
    9AU     AUC 4545  16.932  39.787   7.513
    9AU     AUC 4546  16.647  40.014   8.017
    9AU     AUC 4547  16.673  40.327   8.040
    9AU     AUC 4548  16.683  40.630   8.035
    9AU     AUC 4549  16.644  40.006   7.005
    9AU     AUC 4550  16.653  40.314   6.990
    9AU     AUC 4551  16.655  40.631   6.996
    9AU     AUC 4552  16.912  40.159   7.932
    9AU     AUC 4553  16.931  40.466   7.936
    9AU     AUC 4554  16.916  40.159   7.090
    9AU     AUC 4555  16.925  40.461   7.081
    9AU     AUC 4556  16.392  40.199   7.939
    9AU     AUC 4557  16.409  40.506   7.945
    9AU     AUC 4558  16.396  40.181   7.082
    9AU     AUC 4559  16.396  40.492   7.094
    9AU     AUC 4560  17.078  40.575   7.333
    9AU     AUC 4561  17.084  40.559   7.665
    9AU     AUC 4562  16.245  40.606   7.368
    9AU     AUC 4563  16.255  40.617   7.686
    9AU     AUC 4564  17.067  40.050   7.372
    9AU     AUC 4565  17.037  40.020   7.671
    9AU     AUC 4566  16.225  40.086   7.356
    9AU     AUC 4567  16.228  40.104   7.697
    9AU     AUC 4568  16.518  40.748   7.791
    9AU     AUC 4569  16.837  40.749   7.757
    9AU     AUC 4570  16.459  39.914   7.758
    9AU     AUC 4571  16.772  39.891   7.773
    9AU     AUC 4572  16.514  40.753   7.262
    9AU     AUC 4573  16.832  40.730   7.246
    9AU     AUC 4574  16.474  39.932   7.241
    9AU     AUC 4575  16.806  39.914   7.259
    9AU    AUSL 4576  17.189  40.216   8.182
    9AU    AUSL 4577  16.906  39.822   8.143
    9AU     AUL 4578  17.200  39.873   8.588
    9AU       S 4579  16.892  39.699   8.318
    9AU     LIG 4580  17.034  39.264   8.449
    9AU     LIG 4581  17.147  38.959   8.799
    9AU     LIG 4582  17.151  38.583   9.105
    9AU     LIG 4583  17.263  38.187   9.369
    9AU     LIG 4584  17.611  38.005   9.631
    9AU     LIG 4585  17.830  37.845  10.018
    9AU       S 4586  17.233  40.168   8.276
    9AU     LIG 4587  17.224  40.332   8.755
    9AU     LIG 4588  17.352  40.107   9.167
    9AU     LIG 4589  17.630  39.932   9.545
    9AU     LIG 4590  17.999  39.858   9.880
    9AU     LIG 4591  18.327  39.787  10.250
    9AU     LIG 4592  18.543  39.833  10.679
    9AU    AUSL 4593  16.786  40.172   8.321
    9AU    AUSL 4594  16.586  40.532   8.282
    9AU     AUL 4595  16.729  40.501   8.698
    9AU       S 4596  16.848  40.142   8.471
    9AU     LIG 4597  16.798  40.020   8.892
    9AU     LIG 4598  16.943  39.787   9.274
    9AU     LIG 4599  17.160  39.634   9.670
    9AU     LIG 4600  17.268  39.508  10.112
    9AU     LIG 4601  17.258  39.493  10.581
    9AU     LIG 4602  17.361  39.702  10.986
    9AU       S 4603  16.371  40.233   8.639
    9AU     LIG 4604  16.274  40.170   9.108
    9AU     LIG 4605  16.107  40.066   9.547
    9AU     LIG 4606  15.966  40.147   9.990
    9AU     LIG 4607  15.965  40.459  10.372
    9AU     LIG 4608  15.836  40.768  10.728
    9AU     LIG 4609  15.568  40.890  11.107
    9AU    AUSL 4610  16.986  40.566   8.291
    9AU    AUSL 4611  17.312  40.571   8.009
    9AU     AUL 4612  17.478  40.511   8.350
    9AU       S 4613  17.042  40.626   8.401
    9AU     LIG 4614  17.043  40.934   8.715
    9AU     LIG 4615  17.044  41.035   9.214
    9AU     LIG 4616  17.072  41.171   9.707
    9AU     LIG 4617  17.194  41.206  10.190
    9AU     LIG 4618  17.222  41.247  10.674
    9AU     LIG 4619  17.479  41.092  11.045
    9AU       S 4620  17.561  40.918   8.119
    9AU     LIG 4621  17.949  40.882   8.335
    9AU     LIG 4622  18.322  40.968   8.602
    9AU     LIG 4623  18.440  41.031   9.037
    9AU     LIG 4624  18.689  41.368   9.230
    9AU     LIG 4625  18.888  41.589   9.596
    9AU     LIG 4626  19.134  41.623  10.014
    9AU    AUSL 4627  17.156  40.310   6.866
    9AU    AUSL 4628  16.953  40.744   6.835
    9AU     AUL 4629  17.287  40.646   6.462
    9AU       S 4630  17.231  40.311   6.723
    9AU     LIG 4631  17.477  40.163   6.396
    9AU     LIG 4632  17.495  40.117   5.934
    9AU     LIG 4633  17.641  39.979   5.493
    9AU     LIG 4634  18.028  39.878   5.193
    9AU     LIG 4635  18.414  39.797   4.898
    9AU     LIG 4636  18.638  39.849   4.476
    9AU       S 4637  16.938  40.823   6.651
    9AU     LIG 4638  17.291  41.149   6.580
    9AU     LIG 4639  17.699  41.209   6.323
    9AU     LIG 4640  17.985  41.295   5.918
    9AU     LIG 4641  18.070  41.534   5.491
    9AU     LIG 4642  18.045  41.805   5.086
    9AU     LIG 4643  18.204  42.169   4.822
    9AU    AUSL 4644  16.859  40.038   6.697
    9AU    AUSL 4645  17.330  39.989   7.046
    9AU     AUL 4646  17.157  39.877   6.701
    9AU       S 4647  17.550  39.662   6.893
    9AU     LIG 4648  17.682  39.206   6.699
    9AU     LIG 4649  17.774  38.911   6.312
    9AU     LIG 4650  18.136  38.718   6.097
    9AU     LIG 4651  18.453  38.537   5.789
    9AU     LIG 4652  18.861  38.514   5.520
    9AU     LIG 4653  19.292  38.484   5.293
    9AU       S 4654  16.986  40.251   6.439
    9AU     LIG 4655  17.044  39.923   6.172
    9AU     LIG 4656  17.192  39.740   5.753
    9AU     LIG 4657  17.251  39.692   5.284
    9AU     LIG 4658  17.249  39.464   4.859
    9AU     LIG 4659  17.253  39.354   4.402
    9AU     LIG 4660  17.475  39.336   3.983
    9AU    AUSL 4661  16.758  40.399   6.876
    9AU    AUSL 4662  16.474  40.173   6.677
    9AU     AUL 4663  16.656  39.943   6.549
    9AU       S 4664  16.420  40.289   6.351
    9AU     LIG 4665  16.459  39.955   6.069
    9AU     LIG 4666  16.201  39.705   5.745
    9AU     LIG 4667  15.993  39.575   5.323
    9AU     LIG 4668  15.759  39.392   4.940
    9AU     LIG 4669  15.610  39.393   4.474
    9AU     LIG 4670  15.522  39.455   4.006
    9AU       S 4671  16.879  40.374   6.509
    9AU     LIG 4672  16.990  40.416   5.991
    9AU     LIG 4673  17.140  40.221   5.575
    9AU     LIG 4674  17.304  40.197   5.131
    9AU     LIG 4675  17.369  40.461   4.735
    9AU     LIG 4676  17.470  40.735   4.355
    9AU     LIG 4677  17.583  40.819   3.898
    9AU    AUSL 4678  16.204  40.402   8.243
    9AU    AUSL 4679  16.326  40.812   8.156
    9AU     AUL 4680  16.410  40.732   8.468
    9AU       S 4681  16.163  40.380   8.647
    9AU     LIG 4682  15.915  40.009   8.746
    9AU     LIG 4683  15.799  39.870   9.178
    9AU     LIG 4684  15.614  39.889   9.625
    9AU     LIG 4685  15.214  39.876   9.902
    9AU     LIG 4686  14.878  40.010  10.212
    9AU     LIG 4687  14.619  40.026  10.614
    9AU       S 4688  15.944  40.773   8.378
    9AU     LIG 4689  15.921  41.023   8.764
    9AU     LIG 4690  15.855  41.372   9.056
    9AU     LIG 4691  15.748  41.651   9.391
    9AU     LIG 4692  15.537  41.759   9.775
    9AU     LIG 4693  15.240  41.922  10.086
    9AU     LIG 4694  15.047  42.315  10.260
    9AU    AUSL 4695  16.487  40.186   8.051
    9AU    AUSL 4696  15.965  40.167   8.011
    9AU     AUL 4697  16.067  40.144   8.264
    9AU       S 4698  15.831  39.747   8.192
    9AU     LIG 4699  15.457  39.599   8.015
    9AU     LIG 4700  15.159  39.305   8.213
    9AU     LIG 4701  14.824  39.055   8.451
    9AU     LIG 4702  14.521  38.787   8.708
    9AU     LIG 4703  14.265  38.659   9.067
    9AU     LIG 4704  13.954  38.701   9.420
    9AU       S 4705  16.394  40.102   8.584
    9AU     LIG 4706  16.343  39.735   8.862
    9AU     LIG 4707  16.223  39.614   9.324
    9AU     LIG 4708  15.996  39.550   9.763
    9AU     LIG 4709  15.831  39.342  10.198
    9AU     LIG 4710  15.636  39.336  10.664
    9AU     LIG 4711  15.507  39.263  11.129
    9AU    AUSL 4712  16.239  40.312   6.974
    9AU    AUSL 4713  16.380  39.876   6.933
    9AU     AUL 4714  16.180  40.003   6.650
    9AU       S 4715  16.203  40.380   6.342
    9AU     LIG 4716  15.977  40.122   6.019
    9AU     LIG 4717  15.774  39.964   5.603
    9AU     LIG 4718  15.499  39.768   5.256
    9AU     LIG 4719  15.092  39.838   4.999
    9AU     LIG 4720  14.793  40.039   4.683
    9AU     LIG 4721  14.609  40.060   4.245
    9AU       S 4722  15.938  39.597   6.807
    9AU     LIG 4723  15.682  39.190   6.751
    9AU     LIG 4724  15.390  38.859   6.519
    9AU     LIG 4725  15.151  38.736   6.100
    9AU     LIG 4726  14.812  38.771   5.740
    9AU     LIG 4727  14.606  38.533   5.374
    9AU     LIG 4728  14.622  38.246   4.993
    9AU    AUSL 4729  16.444  40.596   6.707
    9AU    AUSL 4730  16.047  40.670   6.971
    9AU     AUL 4731  16.016  40.436   6.750
    9AU       S 4732  16.038  40.903   6.775
    9AU     LIG 4733  15.644  40.979   6.516
    9AU     LIG 4734  15.490  41.201   6.093
    9AU     LIG 4735  15.357  41.413   5.658
    9AU     LIG 4736  15.086  41.552   5.258
    9AU     LIG 4737  14.672  41.554   4.994
    9AU     LIG 4738  14.254  41.763   4.923
    9AU       S 4739  16.428  40.539   6.490
    9AU     LIG 4740  16.463  40.480   5.922
    9AU     LIG 4741  16.250  40.198   5.582
    9AU     LIG 4742  16.039  40.122   5.147
    9AU     LIG 4743  16.040  40.320   4.682
    9AU     LIG 4744  16.029  40.543   4.235
    9AU     LIG 4745  15.840  40.744   3.833
    9AU    AUSL 4746  17.356  40.819   7.427
    9AU    AUSL 4747  17.295  40.643   7.053
    9AU     AUL 4748  17.414  41.083   7.271
    9AU       S 4749  17.429  40.777   6.877
    9AU     LIG 4750  17.793  40.749   6.587
    9AU     LIG 4751  18.125  40.911   6.260
    9AU     LIG 4752  18.532  40.993   6.020
    9AU     LIG 4753  18.891  41.260   5.897
    9AU     LIG 4754  19.226  41.492   5.685
    9AU     LIG 4755  19.450  41.675   5.315
    9AU       S 4756  17.761  40.784   7.285
    9AU     LIG 4757  18.118  41.072   7.244
    9AU     LIG 4758  18.569  41.073   7.180
    9AU     LIG 4759  18.942  41.313   7.364
    9AU     LIG 4760  19.325  41.456   7.571
    9AU     LIG 4761  19.699  41.665   7.435
    9AU     LIG 4762  19.978  42.030   7.544
    9AU    AUSL 4763  17.488  40.396   7.314
    9AU    AUSL 4764  17.463  40.180   7.743
    9AU     AUL 4765  17.744  40.233   7.571
    9AU       S 4766  17.740  40.491   7.175
    9AU     LIG 4767  18.187  40.612   7.031
    9AU     LIG 4768  18.665  40.564   7.127
    9AU     LIG 4769  19.141  40.465   7.141
    9AU     LIG 4770  19.565  40.424   6.945
    9AU     LIG 4771  19.968  40.609   6.772
    9AU     LIG 4772  20.075  41.026   6.678
    9AU       S 4773  17.796  39.758   7.656
    9AU     LIG 4774  18.192  39.467   7.689
    9AU     LIG 4775  18.534  39.118   7.691
    9AU     LIG 4776  18.965  38.913   7.723
    9AU     LIG 4777  19.356  39.037   7.957
    9AU     LIG 4778  19.810  39.020   8.053
    9AU     LIG 4779  20.265  39.124   7.924
    9AU    AUSL 4780  17.229  40.488   7.627
    9AU    AUSL 4781  17.198  40.907   7.788
    9AU     AUL 4782  17.521  40.665   7.734
    9AU       S 4783  17.387  41.075   7.909
    9AU     LIG 4784  17.582  41.399   8.240
    9AU     LIG 4785  17.999  41.384   8.478
    9AU     LIG 4786  18.379  41.469   8.766
    9AU     LIG 4787  18.525  41.826   9.056
    9AU     LIG 4788  18.533  42.278   9.240
    9AU     LIG 4789  18.566  42.765   9.196
    9AU       S 4790  17.848  40.675   7.423
    9AU     LIG 4791  18.343  40.675   7.529
    9AU     LIG 4792  18.744  40.457   7.746
    9AU     LIG 4793  19.162  40.508   8.030
    9AU     LIG 4794  19.485  40.799   8.266
    9AU     LIG 4795  19.922  41.063   8.264
    9AU     LIG 4796  20.404  41.181   8.241
    9AU    AUSL 4797  16.017  40.886   7.601
    9AU    AUSL 4798  16.058  40.610   7.927
    9AU     AUL 4799  16.006  41.064   7.864
    9AU       S 4800  15.829  40.688   8.126
    9AU     LIG 4801  15.518  41.017   8.418
    9AU     LIG 4802  15.400  41.206   8.862
    9AU     LIG 4803  15.301  41.394   9.310
    9AU     LIG 4804  15.107  41.479   9.769
    9AU     LIG 4805  14.798  41.654  10.106
    9AU     LIG 4806  14.329  41.677  10.160
    9AU       S 4807  15.623  40.934   7.653
    9AU     LIG 4808  15.535  41.338   7.436
    9AU     LIG 4809  15.242  41.733   7.471
    9AU     LIG 4810  14.829  41.973   7.613
    9AU     LIG 4811  14.380  42.195   7.621
    9AU     LIG 4812  13.930  42.307   7.493
    9AU     LIG 4813  13.523  42.549   7.405
    9AU    AUSL 4814  16.072  40.562   7.356
    9AU    AUSL 4815  16.193  40.979   7.240
    9AU     AUL 4816  15.897  40.907   7.247
    9AU       S 4817  15.506  40.830   7.491
    9AU     LIG 4818  15.390  40.980   7.051
    9AU     LIG 4819  14.946  41.088   6.801
    9AU     LIG 4820  14.444  41.050   6.675
    9AU     LIG 4821  13.958  40.944   6.685
    9AU     LIG 4822  13.463  40.962   6.653
    9AU     LIG 4823  13.170  41.215   6.370
    9AU       S 4824  16.015  41.175   6.876
    9AU     LIG 4825  15.793  41.462   6.599
    9AU     LIG 4826  15.717  41.656   6.182
    9AU     LIG 4827  15.517  41.934   5.864
    9AU     LIG 4828  15.289  42.357   5.812
    9AU     LIG 4829  14.980  42.729   5.808
    9AU     LIG 4830  14.679  43.055   5.971
    9AU    AUSL 4831  15.796  40.492   7.655
    9AU    AUSL 4832  15.835  40.233   7.324
    9AU     AUL 4833  15.692  40.501   7.236
    9AU       S 4834  15.505  40.049   7.451
    9AU     LIG 4835  15.184  39.973   7.776
    9AU     LIG 4836  14.718  39.932   7.735
    9AU     LIG 4837  14.261  39.826   7.630
    9AU     LIG 4838  13.915  39.678   7.334
    9AU     LIG 4839  13.515  39.488   7.246
    9AU     LIG 4840  13.079  39.586   7.147
    9AU       S 4841  15.613  40.544   7.718
    9AU     LIG 4842  15.312  40.759   8.020
    9AU     LIG 4843  14.935  40.963   8.285
    9AU     LIG 4844  14.471  41.154   8.385
    9AU     LIG 4845  14.002  41.239   8.597
    9AU     LIG 4846  13.502  41.344   8.685
    9AU     LIG 4847  13.105  41.639   8.501
    9AU    AUSL 4848  17.336  39.813   7.583
    9AU    AUSL 4849  17.086  40.048   7.838
    9AU     AUL 4850  17.492  39.966   7.936
    9AU       S 4851  17.497  39.529   7.619
    9AU     LIG 4852  17.760  39.202   7.694
    9AU     LIG 4853  18.079  38.920   7.543
    9AU     LIG 4854  18.432  38.617   7.543
    9AU     LIG 4855  18.741  38.433   7.807
    9AU     LIG 4856  19.148  38.287   7.741
    9AU     LIG 4857  19.551  38.097   7.757
    9AU       S 4858  17.188  39.708   8.170
    9AU     LIG 4859  17.497  39.460   8.487
    9AU     LIG 4860  17.620  39.011   8.592
    9AU     LIG 4861  17.933  38.643   8.700
    9AU     LIG 4862  18.324  38.645   8.985
    9AU     LIG 4863  18.648  38.517   9.312
    9AU     LIG 4864  18.949  38.632   9.668
    9AU    AUSL 4865  17.193  40.137   7.393
    9AU    AUSL 4866  17.123  39.674   7.264
    9AU     AUL 4867  17.503  39.931   7.271
    9AU       S 4868  17.480  39.645   7.607
    9AU     LIG 4869  17.880  39.470   7.271
    9AU     LIG 4870  18.346  39.267   7.233
    9AU     LIG 4871  18.858  39.165   7.270
    9AU     LIG 4872  19.363  39.086   7.156
    9AU     LIG 4873  19.723  39.102   6.800
    9AU     LIG 4874  20.218  39.186   6.827
    9AU       S 4875  17.403  39.466   7.141
    9AU     LIG 4876  17.256  39.025   6.995
    9AU     LIG 4877  17.531  38.718   6.704
    9AU     LIG 4878  17.947  38.436   6.529
    9AU     LIG 4879  18.272  38.232   6.177
    9AU     LIG 4880  18.610  37.875   5.952
    9AU     LIG 4881  18.829  37.409   5.875
    9AU    AUSL 4882  15.946  39.858   7.504
    9AU    AUSL 4883  16.013  39.988   7.066
    9AU     AUL 4884  15.741  40.059   7.043
    9AU       S 4885  15.935  39.646   7.064
    9AU     LIG 4886  15.461  39.602   7.010
    9AU     LIG 4887  15.165  39.272   6.783
    9AU     LIG 4888  14.894  39.031   6.439
    9AU     LIG 4889  14.638  38.672   6.211
    9AU     LIG 4890  14.343  38.553   5.835
    9AU     LIG 4891  14.144  38.743   5.424
    9AU       S 4892  15.663  39.831   7.441
    9AU     LIG 4893  15.317  39.547   7.507
    9AU     LIG 4894  14.836  39.523   7.438
    9AU     LIG 4895  14.367  39.405   7.347
    9AU     LIG 4896  13.937  39.147   7.354
    9AU     LIG 4897  13.582  38.818   7.449
    9AU     LIG 4898  13.256  38.606   7.745
    9AU    AUSL 4899  16.100  40.225   7.640
    9AU    AUSL 4900  16.191  39.867   7.855
    9AU     AUL 4901  15.800  40.032   7.828
    9AU       S 4902  15.981  39.642   7.981
    9AU     LIG 4903  15.801  39.394   7.698
    9AU     LIG 4904  15.431  39.088   7.817
    9AU     LIG 4905  15.066  38.822   8.056
    9AU     LIG 4906  14.766  38.530   8.345
    9AU     LIG 4907  14.573  38.177   8.588
    9AU     LIG 4908  14.398  38.047   9.007
    9AU       S 4909  15.546  40.122   7.466
    9AU     LIG 4910  15.065  39.963   7.274
    9AU     LIG 4911  14.572  39.954   7.231
    9AU     LIG 4912  14.115  40.149   7.255
    9AU     LIG 4913  13.774  40.107   7.576
    9AU     LIG 4914  13.400  39.825   7.628
    9AU     LIG 4915  12.929  39.848   7.575
    9AU    AUSL 4916  16.688  40.970   8.068
    9AU    AUSL 4917  16.384  40.795   7.755
    9AU     AUL 4918  16.397  41.098   8.127
    9AU       S 4919  16.014  40.890   8.282
    9AU     LIG 4920  15.946  41.308   8.326
    9AU     LIG 4921  15.678  41.555   8.608
    9AU     LIG 4922  15.473  41.784   8.970
    9AU     LIG 4923  15.297  42.211   9.135
    9AU     LIG 4924  15.006  42.574   9.284
    9AU     LIG 4925  14.691  42.812   9.560
    9AU       S 4926  16.755  41.399   8.032
    9AU     LIG 4927  17.040  41.444   8.375
    9AU     LIG 4928  17.101  41.860   8.607
    9AU     LIG 4929  17.072  42.254   8.895
    9AU     LIG 4930  17.092  42.504   9.325
    9AU     LIG 4931  16.979  42.839   9.661
    9AU     LIG 4932  16.706  43.210   9.797
    9AU    AUSL 4933  16.434  41.183   7.685
    9AU    AUSL 4934  16.928  41.157   7.316
    9AU     AUL 4935  16.577  41.423   7.464
    9AU       S 4936  16.608  41.472   7.920
    9AU     LIG 4937  16.818  41.877   8.147
    9AU     LIG 4938  16.916  42.298   8.366
    9AU     LIG 4939  16.864  42.780   8.405
    9AU     LIG 4940  16.606  43.207   8.454
    9AU     LIG 4941  16.335  43.624   8.491
    9AU     LIG 4942  16.165  44.076   8.512
    9AU       S 4943  16.999  41.453   7.241
    9AU     LIG 4944  17.296  41.719   7.004
    9AU     LIG 4945  17.363  42.168   6.813
    9AU     LIG 4946  17.485  42.652   6.738
    9AU     LIG 4947  17.637  43.124   6.702
    9AU     LIG 4948  17.797  43.503   6.454
    9AU     LIG 4949  17.780  43.965   6.456
    9AU    AUSL 4950  16.833  41.039   7.694
    9AU    AUSL 4951  16.896  40.661   7.917
    9AU     AUL 4952  16.970  41.005   8.102
    9AU       S 4953  17.392  40.931   8.207
    9AU     LIG 4954  17.558  41.039   8.629
    9AU     LIG 4955  17.934  41.141   8.920
    9AU     LIG 4956  18.166  41.424   9.231
    9AU     LIG 4957  18.382  41.706   9.534
    9AU     LIG 4958  18.391  42.143   9.724
    9AU     LIG 4959  18.345  42.446  10.084
    9AU       S 4960  16.920  41.329   7.771
    9AU     LIG 4961  17.223  41.614   7.930
    9AU     LIG 4962  17.321  42.028   8.163
    9AU     LIG 4963  17.380  42.517   8.232
    9AU     LIG 4964  17.622  42.954   8.198
    9AU     LIG 4965  17.691  43.417   8.323
    9AU     LIG 4966  17.601  43.813   8.543
    9AU    AUSL 4967  16.618  39.748   7.861
    9AU    AUSL 4968  17.016  39.647   7.763
    9AU     AUL 4969  16.862  39.404   8.001
    9AU       S 4970  16.485  39.143   7.868
    9AU     LIG 4971  16.560  38.787   8.108
    9AU     LIG 4972  16.262  38.450   8.212
    9AU     LIG 4973  16.030  38.104   8.419
    9AU     LIG 4974  16.126  37.692   8.579
    9AU     LIG 4975  16.442  37.446   8.829
    9AU     LIG 4976  16.443  37.296   9.273
    9AU       S 4977  17.285  39.559   8.056
    9AU     LIG 4978  17.442  39.124   8.086
    9AU     LIG 4979  17.692  38.703   8.194
    9AU     LIG 4980  18.014  38.321   8.237
    9AU     LIG 4981  18.172  37.888   8.481
    9AU     LIG 4982  18.518  37.809   8.819
    9AU     LIG 4983  18.751  37.434   9.011
    9AU    AUSL 4984  16.321  39.563   7.636
    9AU    AUSL 4985  16.413  39.831   8.209
    9AU     AUL 4986  16.430  39.561   8.036
    9AU       S 4987  16.253  39.169   7.864
    9AU     LIG 4988  16.132  38.735   7.768
    9AU     LIG 4989  16.038  38.285   7.757
    9AU     LIG 4990  15.905  37.897   7.961
    9AU     LIG 4991  15.771  37.446   7.964
    9AU     LIG 4992  15.675  36.990   8.002
    9AU     LIG 4993  15.622  36.546   8.242
    9AU       S 4994  16.052  39.677   8.259
    9AU     LIG 4995  15.787  39.233   8.205
    9AU     LIG 4996  15.460  38.899   8.376
    9AU     LIG 4997  15.126  38.715   8.689
    9AU     LIG 4998  14.809  38.446   8.960
    9AU     LIG 4999  14.568  38.373   9.357
    9AU     LIG 5000  14.464  38.277   9.797
    9AU    AUSL 5001  16.716  39.437   7.585
    9AU    AUSL 5002  16.430  39.538   7.241
    9AU     AUL 5003  16.258  39.343   7.443
    9AU       S 5004  16.423  39.163   7.046
    9AU     LIG 5005  16.248  38.774   7.234
    9AU     LIG 5006  16.076  38.311   7.179
    9AU     LIG 5007  15.923  37.849   7.071
    9AU     LIG 5008  15.772  37.482   6.762
    9AU     LIG 5009  15.840  37.133   6.413
    9AU     LIG 5010  15.739  36.636   6.238
    9AU       S 5011  16.619  39.196   7.672
    9AU     LIG 5012  16.619  38.747   7.606
    9AU     LIG 5013  16.550  38.338   7.796
    9AU     LIG 5014  16.414  37.956   8.083
    9AU     LIG 5015  16.544  37.520   8.297
    9AU     LIG 5016  16.593  37.064   8.494
    9AU     LIG 5017  16.890  36.704   8.681
    9AU    AUSL 5018  16.675  40.998   6.988
    9AU    AUSL 5019  16.979  40.762   7.272
    9AU     AUL 5020  17.048  41.053   7.013
    9AU       S 5021  16.744  41.359   6.849
    9AU     LIG 5022  17.025  41.614   6.584
    9AU     LIG 5023  17.114  42.031   6.361
    9AU     LIG 5024  17.131  42.312   5.959
    9AU     LIG 5025  17.151  42.625   5.593
    9AU     LIG 5026  16.979  42.958   5.312
    9AU     LIG 5027  16.885  43.377   5.132
    9AU       S 5028  17.387  40.738   6.949
    9AU     LIG 5029  17.733  41.147   6.889
    9AU     LIG 5030  18.114  41.260   6.640
    9AU     LIG 5031  18.368  41.424   6.259
    9AU     LIG 5032  18.671  41.737   6.038
    9AU     LIG 5033  18.828  42.193   5.941
    9AU     LIG 5034  19.027  42.606   5.791
    9AU    AUSL 5035  16.573  40.957   7.381
    9AU    AUSL 5036  16.443  40.685   7.093
    9AU     AUL 5037  16.413  41.161   7.122
    9AU       S 5038  16.809  41.445   7.079
    9AU     LIG 5039  16.815  41.897   6.960
    9AU     LIG 5040  16.875  42.314   6.735
    9AU     LIG 5041  16.883  42.784   6.645
    9AU     LIG 5042  16.634  43.204   6.589
    9AU     LIG 5043  16.362  43.610   6.571
    9AU     LIG 5044  16.161  44.040   6.490
    9AU       S 5045  16.263  41.017   6.709
    9AU     LIG 5046  16.070  41.153   6.288
    9AU     LIG 5047  15.932  41.332   5.851
    9AU     LIG 5048  15.795  41.650   5.513
    9AU     LIG 5049  15.730  41.874   5.085
    9AU     LIG 5050  15.568  42.146   4.715
    9AU     LIG 5051  15.129  42.283   4.535
    9AU    AUSL 5052  16.723  39.663   6.965
    9AU    AUSL 5053  16.309  39.909   7.338
    9AU     AUL 5054  16.379  39.616   6.932
    9AU       S 5055  15.952  39.532   7.155
    9AU     LIG 5056  15.645  39.183   7.260
    9AU     LIG 5057  15.347  38.857   7.047
    9AU     LIG 5058  14.976  38.648   6.761
    9AU     LIG 5059  14.575  38.377   6.632
    9AU     LIG 5060  14.312  38.174   6.261
    9AU     LIG 5061  14.114  37.834   5.963
    9AU       S 5062  16.650  39.245   6.908
    9AU     LIG 5063  16.621  38.857   6.672
    9AU     LIG 5064  16.389  38.455   6.779
    9AU     LIG 5065  16.155  38.049   6.656
    9AU     LIG 5066  16.187  37.593   6.470
    9AU     LIG 5067  16.177  37.338   6.058
    9AU     LIG 5068  16.247  37.250   5.591
    9AU    AUSL 5069  16.745  39.770   7.381
    9AU    AUSL 5070  16.921  39.990   7.083
    9AU     AUL 5071  16.955  39.556   7.060
    9AU       S 5072  16.635  39.244   7.176
    9AU     LIG 5073  16.785  38.810   7.143
    9AU     LIG 5074  16.607  38.385   7.245
    9AU     LIG 5075  16.461  37.975   7.062
    9AU     LIG 5076  16.590  37.572   6.841
    9AU     LIG 5077  16.873  37.186   6.723
    9AU     LIG 5078  17.033  36.901   6.405
    9AU       S 5079  17.377  39.527   6.896
    9AU     LIG 5080  17.158  39.262   6.565
    9AU     LIG 5081  17.240  38.853   6.296
    9AU     LIG 5082  17.215  38.547   5.920
    9AU     LIG 5083  17.371  38.164   5.682
    9AU     LIG 5084  17.669  37.970   5.361
    9AU     LIG 5085  17.951  38.010   4.978
   10AU     AUC 5086  33.681  39.688   7.510
   10AU     AUC 5087  33.940  39.682   7.353
   10AU     AUC 5088  33.927  39.673   7.667
   10AU     AUC 5089  33.432  39.692   7.348
   10AU     AUC 5090  33.420  39.713   7.663
   10AU     AUC 5091  33.536  39.948   7.511
   10AU     AUC 5092  33.847  39.938   7.500
   10AU     AUC 5093  33.518  39.443   7.520
   10AU     AUC 5094  33.813  39.420   7.522
   10AU     AUC 5095  33.676  39.534   7.768
   10AU     AUC 5096  33.696  39.846   7.769
   10AU     AUC 5097  33.678  39.531   7.245
   10AU     AUC 5098  33.677  39.830   7.250
   10AU     AUC 5099  34.195  39.680   7.188
   10AU     AUC 5100  34.198  39.685   7.497
   10AU     AUC 5101  34.184  39.674   7.817
   10AU     AUC 5102  33.174  39.687   7.194
   10AU     AUC 5103  33.164  39.717   7.494
   10AU     AUC 5104  33.170  39.742   7.820
   10AU     AUC 5105  33.397  40.215   7.510
   10AU     AUC 5106  33.708  40.211   7.505
   10AU     AUC 5107  34.007  40.198   7.506
   10AU     AUC 5108  33.337  39.195   7.525
   10AU     AUC 5109  33.645  39.167   7.509
   10AU     AUC 5110  33.960  39.155   7.522
   10AU     AUC 5111  33.676  39.384   8.020
   10AU     AUC 5112  33.695  39.690   8.039
   10AU     AUC 5113  33.703  39.997   8.028
   10AU     AUC 5114  33.679  39.358   7.010
   10AU     AUC 5115  33.686  39.669   6.987
   10AU     AUC 5116  33.683  39.986   6.991
   10AU     AUC 5117  33.940  39.524   7.932
   10AU     AUC 5118  33.954  39.829   7.933
   10AU     AUC 5119  33.949  39.522   7.089
   10AU     AUC 5120  33.952  39.825   7.081
   10AU     AUC 5121  33.413  39.568   7.936
   10AU     AUC 5122  33.432  39.872   7.937
   10AU     AUC 5123  33.432  39.526   7.080
   10AU     AUC 5124  33.422  39.836   7.086
   10AU     AUC 5125  34.106  39.940   7.340
   10AU     AUC 5126  34.113  39.916   7.664
   10AU     AUC 5127  33.270  39.957   7.356
   10AU     AUC 5128  33.280  39.979   7.675
   10AU     AUC 5129  34.093  39.414   7.364
   10AU     AUC 5130  34.068  39.390   7.667
   10AU     AUC 5131  33.255  39.438   7.355
   10AU     AUC 5132  33.254  39.466   7.695
   10AU     AUC 5133  33.543  40.112   7.778
   10AU     AUC 5134  33.861  40.112   7.751
   10AU     AUC 5135  33.485  39.279   7.766
   10AU     AUC 5136  33.802  39.260   7.776
   10AU     AUC 5137  33.534  40.105   7.249
   10AU     AUC 5138  33.852  40.088   7.238
   10AU     AUC 5139  33.504  39.281   7.248
   10AU     AUC 5140  33.833  39.266   7.262
   10AU    AUSL 5141  34.184  39.570   8.189
   10AU    AUSL 5142  33.960  39.199   8.128
   10AU     AUL 5143  34.268  39.259   8.370
   10AU       S 5144  34.267  38.854   8.130
   10AU     LIG 5145  34.074  38.540   8.345
   10AU     LIG 5146  34.253  38.282   8.671
   10AU     LIG 5147  34.504  37.946   8.883
   10AU     LIG 5148  34.732  37.649   9.179
   10AU     LIG 5149  34.803  37.559   9.645
   10AU     LIG 5150  34.890  37.392  10.087
   10AU       S 5151  34.145  39.625   8.640
   10AU     LIG 5152  34.167  39.640   9.084
   10AU     LIG 5153  34.417  39.440   9.426
   10AU     LIG 5154  34.813  39.247   9.563
   10AU     LIG 5155  35.165  39.335   9.857
   10AU     LIG 5156  35.413  39.365  10.252
   10AU     LIG 5157  35.657  39.337  10.660
   10AU    AUSL 5158  33.794  39.518   8.329
   10AU    AUSL 5159  33.605  39.886   8.292
   10AU     AUL 5160  33.720  39.838   8.692
   10AU       S 5161  33.866  39.449   8.518
   10AU     LIG 5162  33.748  39.371   8.934
   10AU     LIG 5163  33.972  39.189   9.304
   10AU     LIG 5164  34.207  38.994   9.674
   10AU     LIG 5165  34.203  38.777  10.110
   10AU     LIG 5166  34.278  38.827  10.584
   10AU     LIG 5167  34.405  39.123  10.936
   10AU       S 5168  33.336  39.610   8.649
   10AU     LIG 5169  33.248  39.535   9.100
   10AU     LIG 5170  33.052  39.486   9.530
   10AU     LIG 5171  32.875  39.481   9.980
   10AU     LIG 5172  32.845  39.696  10.413
   10AU     LIG 5173  32.950  39.931  10.831
   10AU     LIG 5174  32.867  40.212  11.218
   10AU    AUSL 5175  34.003  39.925   8.287
   10AU    AUSL 5176  34.326  39.899   7.992
   10AU     AUL 5177  34.434  39.721   8.282
   10AU       S 5178  34.062  39.962   8.435
   10AU     LIG 5179  34.111  40.331   8.644
   10AU     LIG 5180  34.327  40.423   9.072
   10AU     LIG 5181  34.518  40.445   9.518
   10AU     LIG 5182  34.419  40.491   9.986
   10AU     LIG 5183  34.427  40.501  10.459
   10AU     LIG 5184  34.578  40.535  10.895
   10AU       S 5185  34.611  40.138   8.171
   10AU     LIG 5186  34.965  40.386   8.285
   10AU     LIG 5187  35.202  40.400   8.681
   10AU     LIG 5188  35.397  40.454   9.099
   10AU     LIG 5189  35.812  40.436   9.367
   10AU     LIG 5190  36.204  40.571   9.634
   10AU     LIG 5191  36.457  40.758  10.008
   10AU    AUSL 5192  34.186  39.725   6.871
   10AU    AUSL 5193  33.996  40.109   6.876
   10AU     AUL 5194  33.936  40.109   6.591
   10AU       S 5195  34.234  39.790   6.466
   10AU     LIG 5196  34.553  39.595   6.263
   10AU     LIG 5197  34.665  39.417   5.861
   10AU     LIG 5198  34.810  39.429   5.413
   10AU     LIG 5199  35.173  39.491   5.099
   10AU     LIG 5200  35.454  39.438   4.702
   10AU     LIG 5201  35.656  39.499   4.258
   10AU       S 5202  34.395  40.208   6.674
   10AU     LIG 5203  34.634  40.480   6.377
   10AU     LIG 5204  34.811  40.594   5.936
   10AU     LIG 5205  34.902  40.674   5.462
   10AU     LIG 5206  35.067  40.991   5.139
   10AU     LIG 5207  35.321  41.349   4.967
   10AU     LIG 5208  35.428  41.794   4.853
   10AU    AUSL 5209  33.950  39.422   6.701
   10AU    AUSL 5210  34.310  39.367   7.020
   10AU     AUL 5211  34.392  39.463   6.737
   10AU       S 5212  34.345  39.006   6.804
   10AU     LIG 5213  34.499  38.754   6.439
   10AU     LIG 5214  34.730  38.371   6.242
   10AU     LIG 5215  34.985  38.042   5.981
   10AU     LIG 5216  35.379  38.016   5.667
   10AU     LIG 5217  35.825  37.979   5.427
   10AU     LIG 5218  36.281  37.854   5.265
   10AU       S 5219  34.047  39.572   6.435
   10AU     LIG 5220  34.204  39.200   6.284
   10AU     LIG 5221  34.267  39.098   5.826
   10AU     LIG 5222  34.404  39.094   5.357
   10AU     LIG 5223  34.392  39.037   4.877
   10AU     LIG 5224  34.393  38.833   4.429
   10AU     LIG 5225  34.450  38.743   3.955
   10AU    AUSL 5226  33.785  39.762   6.874
   10AU    AUSL 5227  33.541  39.497   6.682
   10AU     AUL 5228  33.729  39.265   6.575
   10AU       S 5229  33.486  39.599   6.351
   10AU     LIG 5230  33.413  39.234   6.132
   10AU     LIG 5231  33.169  39.082   5.744
   10AU     LIG 5232  32.947  38.941   5.337
   10AU     LIG 5233  32.737  38.718   4.963
   10AU     LIG 5234  32.654  38.601   4.501
   10AU     LIG 5235  32.744  38.635   4.028
   10AU       S 5236  33.945  39.674   6.470
   10AU     LIG 5237  34.108  39.612   5.964
   10AU     LIG 5238  34.292  39.561   5.536
   10AU     LIG 5239  34.423  39.572   5.082
   10AU     LIG 5240  34.497  39.846   4.695
   10AU     LIG 5241  34.416  39.959   4.229
   10AU     LIG 5242  34.500  40.166   3.801
   10AU    AUSL 5243  33.222  39.773   8.226
   10AU    AUSL 5244  33.370  40.175   8.139
   10AU     AUL 5245  33.430  40.100   8.457
   10AU       S 5246  33.152  39.769   8.640
   10AU     LIG 5247  32.890  39.397   8.731
   10AU     LIG 5248  32.766  39.249   9.163
   10AU     LIG 5249  32.570  39.278   9.608
   10AU     LIG 5250  32.369  39.301  10.047
   10AU     LIG 5251  32.014  39.308  10.379
   10AU     LIG 5252  31.617  39.502  10.558
   10AU       S 5253  32.976  40.159   8.356
   10AU     LIG 5254  33.009  40.272   8.784
   10AU     LIG 5255  32.927  40.631   9.075
   10AU     LIG 5256  32.759  40.913   9.412
   10AU     LIG 5257  32.518  40.984   9.816
   10AU     LIG 5258  32.335  41.253  10.163
   10AU     LIG 5259  32.126  41.582  10.440
   10AU    AUSL 5260  33.510  39.555   8.045
   10AU    AUSL 5261  32.972  39.547   7.997
   10AU     AUL 5262  33.082  39.541   8.247
   10AU       S 5263  32.802  39.177   8.258
   10AU     LIG 5264  32.456  39.006   8.047
   10AU     LIG 5265  32.116  38.732   8.170
   10AU     LIG 5266  31.914  38.461   8.501
   10AU     LIG 5267  31.693  38.199   8.823
   10AU     LIG 5268  31.472  38.068   9.219
   10AU     LIG 5269  31.182  38.209   9.583
   10AU       S 5270  33.394  39.490   8.580
   10AU     LIG 5271  33.312  39.112   8.820
   10AU     LIG 5272  33.222  39.040   9.284
   10AU     LIG 5273  32.996  39.007   9.712
   10AU     LIG 5274  32.773  38.982  10.136
   10AU     LIG 5275  32.606  38.787  10.552
   10AU     LIG 5276  32.433  38.702  10.994
   10AU    AUSL 5277  33.278  39.645   6.956
   10AU    AUSL 5278  33.417  39.212   6.940
   10AU     AUL 5279  33.234  39.328   6.654
   10AU       S 5280  33.252  39.687   6.339
   10AU     LIG 5281  32.984  39.504   6.002
   10AU     LIG 5282  32.738  39.350   5.598
   10AU     LIG 5283  32.459  39.128   5.252
   10AU     LIG 5284  32.078  39.070   4.936
   10AU     LIG 5285  31.790  39.231   4.578
   10AU     LIG 5286  31.523  39.393   4.219
   10AU       S 5287  32.976  38.936   6.822
   10AU     LIG 5288  32.727  38.565   6.803
   10AU     LIG 5289  32.449  38.300   6.536
   10AU     LIG 5290  32.190  38.046   6.224
   10AU     LIG 5291  32.045  37.884   5.793
   10AU     LIG 5292  32.096  37.658   5.357
   10AU     LIG 5293  32.010  37.445   4.928
   10AU    AUSL 5294  33.464  39.928   6.694
   10AU    AUSL 5295  33.067  39.994   6.961
   10AU     AUL 5296  33.044  39.758   6.735
   10AU       S 5297  33.069  40.223   6.759
   10AU     LIG 5298  32.787  40.195   6.401
   10AU     LIG 5299  32.581  40.441   6.027
   10AU     LIG 5300  32.359  40.558   5.606
   10AU     LIG 5301  31.979  40.645   5.318
   10AU     LIG 5302  31.592  40.778   5.072
   10AU     LIG 5303  31.151  40.922   4.966
   10AU       S 5304  33.477  39.845   6.484
   10AU     LIG 5305  33.454  39.801   5.913
   10AU     LIG 5306  33.212  39.573   5.544
   10AU     LIG 5307  32.965  39.569   5.122
   10AU     LIG 5308  32.964  39.794   4.666
   10AU     LIG 5309  33.064  40.010   4.218
   10AU     LIG 5310  33.045  40.215   3.764
   10AU    AUSL 5311  34.334  40.266   7.443
   10AU    AUSL 5312  34.337  40.021   7.104
   10AU     AUL 5313  34.447  40.476   7.212
   10AU       S 5314  34.571  39.988   6.855
   10AU     LIG 5315  34.831  40.011   6.494
   10AU     LIG 5316  35.107  40.279   6.216
   10AU     LIG 5317  35.326  40.460   5.822
   10AU     LIG 5318  35.739  40.541   5.574
   10AU     LIG 5319  36.149  40.752   5.426
   10AU     LIG 5320  36.361  41.164   5.326
   10AU       S 5321  34.776  40.162   7.338
   10AU     LIG 5322  35.249  40.199   7.322
   10AU     LIG 5323  35.695  40.206   7.499
   10AU     LIG 5324  36.107  40.429   7.623
   10AU     LIG 5325  36.424  40.727   7.827
   10AU     LIG 5326  36.780  41.056   7.862
   10AU     LIG 5327  37.023  41.297   7.532
   10AU    AUSL 5328  34.534  39.719   7.286
   10AU    AUSL 5329  34.503  39.553   7.717
   10AU     AUL 5330  34.783  39.475   7.491
   10AU       S 5331  34.744  39.906   7.318
   10AU     LIG 5332  35.153  39.725   7.151
   10AU     LIG 5333  35.663  39.771   7.196
   10AU     LIG 5334  36.150  39.730   7.048
   10AU     LIG 5335  36.663  39.710   7.059
   10AU     LIG 5336  37.081  39.976   6.957
   10AU     LIG 5337  37.386  40.349   6.989
   10AU       S 5338  34.791  39.068   7.736
   10AU     LIG 5339  35.255  39.083   7.671
   10AU     LIG 5340  35.678  38.864   7.649
   10AU     LIG 5341  36.058  38.614   7.683
   10AU     LIG 5342  36.452  38.513   7.934
   10AU     LIG 5343  36.843  38.775   8.024
   10AU     LIG 5344  37.299  38.713   8.141
   10AU    AUSL 5345  34.300  39.883   7.589
   10AU    AUSL 5346  34.213  40.261   7.832
   10AU     AUL 5347  34.506  40.129   7.720
   10AU       S 5348  34.466  40.385   8.096
   10AU     LIG 5349  34.558  40.731   8.340
   10AU     LIG 5350  34.911  40.817   8.604
   10AU     LIG 5351  35.350  40.920   8.695
   10AU     LIG 5352  35.561  41.342   8.629
   10AU     LIG 5353  35.623  41.769   8.816
   10AU     LIG 5354  35.762  42.116   9.112
   10AU       S 5355  34.873  39.933   7.551
   10AU     LIG 5356  35.325  39.762   7.624
   10AU     LIG 5357  35.789  39.760   7.732
   10AU     LIG 5358  36.206  39.959   7.803
   10AU     LIG 5359  36.603  39.972   8.029
   10AU     LIG 5360  37.032  40.058   7.904
   10AU     LIG 5361  37.390  40.361   7.909
   10AU    AUSL 5362  33.040  40.250   7.581
   10AU    AUSL 5363  33.078  39.994   7.918
   10AU     AUL 5364  33.045  40.446   7.842
   10AU       S 5365  32.863  40.070   8.105
   10AU     LIG 5366  32.509  40.263   8.406
   10AU     LIG 5367  32.502  40.478   8.821
   10AU     LIG 5368  32.376  40.611   9.259
   10AU     LIG 5369  32.091  40.757   9.619
   10AU     LIG 5370  31.661  40.877   9.802
   10AU     LIG 5371  31.286  41.113   9.995
   10AU       S 5372  32.660  40.281   7.661
   10AU     LIG 5373  32.534  40.706   7.527
   10AU     LIG 5374  32.212  41.081   7.505
   10AU     LIG 5375  31.851  41.418   7.511
   10AU     LIG 5376  31.449  41.673   7.560
   10AU     LIG 5377  30.996  41.800   7.507
   10AU     LIG 5378  30.540  41.942   7.514
   10AU    AUSL 5379  33.097  39.916   7.353
   10AU    AUSL 5380  33.211  40.323   7.214
   10AU     AUL 5381  32.917  40.253   7.227
   10AU       S 5382  32.541  40.186   7.499
   10AU     LIG 5383  32.257  40.142   7.138
   10AU     LIG 5384  31.830  40.248   6.933
   10AU     LIG 5385  31.501  40.279   6.587
   10AU     LIG 5386  31.011  40.307   6.612
   10AU     LIG 5387  30.558  40.376   6.717
   10AU     LIG 5388  30.294  40.771   6.788
   10AU       S 5389  33.042  40.500   6.840
   10AU     LIG 5390  32.914  40.691   6.425
   10AU     LIG 5391  32.707  40.950   6.080
   10AU     LIG 5392  32.459  41.311   5.906
   10AU     LIG 5393  32.129  41.658   5.914
   10AU     LIG 5394  31.877  42.048   5.842
   10AU     LIG 5395  31.496  42.257   6.033
   10AU    AUSL 5396  32.825  39.842   7.653
   10AU    AUSL 5397  32.866  39.584   7.317
   10AU     AUL 5398  32.711  39.850   7.238
   10AU       S 5399  32.530  39.416   7.445
   10AU     LIG 5400  32.255  39.426   7.832
   10AU     LIG 5401  31.838  39.226   7.849
   10AU     LIG 5402  31.385  39.116   7.707
   10AU     LIG 5403  30.980  38.910   7.498
   10AU     LIG 5404  30.572  39.018   7.318
   10AU     LIG 5405  30.192  38.820   7.145
   10AU       S 5406  32.650  39.882   7.715
   10AU     LIG 5407  32.348  40.012   7.986
   10AU     LIG 5408  32.046  40.322   8.164
   10AU     LIG 5409  31.594  40.250   8.276
   10AU     LIG 5410  31.134  40.281   8.224
   10AU     LIG 5411  30.739  40.375   8.428
   10AU     LIG 5412  30.334  40.519   8.224
   10AU    AUSL 5413  34.365  39.185   7.564
   10AU    AUSL 5414  34.131  39.431   7.824
   10AU     AUL 5415  34.505  39.360   7.945
   10AU       S 5416  34.542  38.896   7.537
   10AU     LIG 5417  34.956  38.633   7.554
   10AU     LIG 5418  35.400  38.494   7.437
   10AU     LIG 5419  35.808  38.240   7.418
   10AU     LIG 5420  36.079  37.837   7.474
   10AU     LIG 5421  36.436  37.568   7.640
   10AU     LIG 5422  36.876  37.665   7.664
   10AU       S 5423  34.376  38.937   8.049
   10AU     LIG 5424  34.601  38.686   8.433
   10AU     LIG 5425  34.779  38.346   8.689
   10AU     LIG 5426  35.017  38.020   8.932
   10AU     LIG 5427  35.313  37.895   9.283
   10AU     LIG 5428  35.697  37.889   9.584
   10AU     LIG 5429  36.100  37.776   9.814
   10AU    AUSL 5430  34.209  39.510   7.383
   10AU    AUSL 5431  34.146  39.050   7.247
   10AU     AUL 5432  34.492  39.256   7.198
   10AU       S 5433  34.521  39.061   7.596
   10AU     LIG 5434  34.938  39.048   7.257
   10AU     LIG 5435  35.415  38.962   7.198
   10AU     LIG 5436  35.826  38.725   7.169
   10AU     LIG 5437  36.284  38.750   7.014
   10AU     LIG 5438  36.771  38.735   7.039
   10AU     LIG 5439  37.169  38.538   7.218
   10AU       S 5440  34.401  38.845   6.979
   10AU     LIG 5441  34.299  38.424   6.787
   10AU     LIG 5442  34.492  38.028   6.553
   10AU     LIG 5443  34.747  37.683   6.300
   10AU     LIG 5444  34.978  37.253   6.219
   10AU     LIG 5445  35.308  36.888   6.248
   10AU     LIG 5446  35.527  36.467   6.131
   10AU    AUSL 5447  32.978  39.213   7.505
   10AU    AUSL 5448  33.047  39.332   7.067
   10AU     AUL 5449  32.778  39.409   7.041
   10AU       S 5450  32.968  38.991   7.072
   10AU     LIG 5451  32.493  38.977   7.015
   10AU     LIG 5452  32.201  38.714   6.744
   10AU     LIG 5453  31.956  38.469   6.409
   10AU     LIG 5454  31.713  38.225   6.072
   10AU     LIG 5455  31.317  38.183   5.800
   10AU     LIG 5456  30.925  37.992   5.603
   10AU       S 5457  32.679  39.181   7.432
   10AU     LIG 5458  32.313  38.953   7.548
   10AU     LIG 5459  31.845  38.898   7.453
   10AU     LIG 5460  31.432  38.665   7.456
   10AU     LIG 5461  31.059  38.437   7.657
   10AU     LIG 5462  30.709  38.209   7.854
   10AU     LIG 5463  30.387  37.926   7.680
   10AU    AUSL 5464  33.132  39.581   7.634
   10AU    AUSL 5465  33.205  39.235   7.870
   10AU     AUL 5466  32.836  39.356   7.821
   10AU       S 5467  32.964  39.071   8.153
   10AU     LIG 5468  32.858  38.820   7.796
   10AU     LIG 5469  32.479  38.524   7.843
   10AU     LIG 5470  32.152  38.224   8.080
   10AU     LIG 5471  31.861  37.961   8.373
   10AU     LIG 5472  31.666  37.691   8.714
   10AU     LIG 5473  31.440  37.307   8.877
   10AU       S 5474  32.579  39.468   7.467
   10AU     LIG 5475  32.053  39.365   7.358
   10AU     LIG 5476  31.569  39.345   7.274
   10AU     LIG 5477  31.092  39.392   7.385
   10AU     LIG 5478  30.785  39.303   7.738
   10AU     LIG 5479  30.518  38.937   7.827
   10AU     LIG 5480  30.061  38.880   7.914
   10AU    AUSL 5481  33.717  40.355   8.029
   10AU    AUSL 5482  33.407  40.159   7.735
   10AU     AUL 5483  33.433  40.467   8.112
   10AU       S 5484  33.040  40.288   8.268
   10AU     LIG 5485  32.855  40.656   8.467
   10AU     LIG 5486  32.688  40.977   8.773
   10AU     LIG 5487  32.629  41.432   8.906
   10AU     LIG 5488  32.408  41.813   9.085
   10AU     LIG 5489  32.134  42.143   9.305
   10AU     LIG 5490  31.802  42.429   9.509
   10AU       S 5491  33.806  40.753   7.985
   10AU     LIG 5492  34.034  40.788   8.366
   10AU     LIG 5493  34.168  41.190   8.555
   10AU     LIG 5494  34.088  41.608   8.777
   10AU     LIG 5495  33.985  41.945   9.103
   10AU     LIG 5496  33.890  42.279   9.432
   10AU     LIG 5497  33.753  42.623   9.724
   10AU    AUSL 5498  33.481  40.545   7.670
   10AU    AUSL 5499  33.949  40.504   7.268
   10AU     AUL 5500  33.638  40.779   7.437
   10AU       S 5501  33.646  40.837   7.894
   10AU     LIG 5502  33.867  41.226   8.119
   10AU     LIG 5503  33.921  41.658   8.285
   10AU     LIG 5504  33.657  42.069   8.340
   10AU     LIG 5505  33.358  42.454   8.287
   10AU     LIG 5506  33.286  42.925   8.358
   10AU     LIG 5507  33.299  43.414   8.360
   10AU       S 5508  34.016  40.813   7.140
   10AU     LIG 5509  34.307  41.169   6.975
   10AU     LIG 5510  34.533  41.555   6.786
   10AU     LIG 5511  34.661  42.016   6.751
   10AU     LIG 5512  34.763  42.453   6.616
   10AU     LIG 5513  34.694  42.817   6.323
   10AU     LIG 5514  34.609  43.300   6.306
   10AU    AUSL 5515  33.879  40.392   7.656
   10AU    AUSL 5516  33.899  40.014   7.916
   10AU     AUL 5517  34.006  40.360   8.098
   10AU       S 5518  34.415  40.190   8.239
   10AU     LIG 5519  34.625  40.331   8.656
   10AU     LIG 5520  34.841  40.530   9.032
   10AU     LIG 5521  35.020  40.632   9.447
   10AU     LIG 5522  35.089  40.899   9.830
   10AU     LIG 5523  35.152  41.273  10.124
   10AU     LIG 5524  35.391  41.667  10.224
   10AU       S 5525  33.980  40.681   7.743
   10AU     LIG 5526  34.291  40.975   7.966
   10AU     LIG 5527  34.474  41.394   8.185
   10AU     LIG 5528  34.787  41.786   8.292
   10AU     LIG 5529  34.991  42.248   8.396
   10AU     LIG 5530  34.951  42.726   8.279
   10AU     LIG 5531  34.874  43.197   8.318
   10AU    AUSL 5532  33.641  39.128   7.877
   10AU    AUSL 5533  34.045  39.031   7.757
   10AU     AUL 5534  33.818  38.935   8.134
   10AU       S 5535  33.654  38.533   7.999
   10AU     LIG 5536  33.745  38.137   8.169
   10AU     LIG 5537  33.483  37.803   8.347
   10AU     LIG 5538  33.209  37.461   8.495
   10AU     LIG 5539  33.179  37.002   8.544
   10AU     LIG 5540  33.152  36.673   8.875
   10AU     LIG 5541  33.359  36.567   9.292
   10AU       S 5542  34.182  38.805   7.855
   10AU     LIG 5543  34.442  38.402   8.016
   10AU     LIG 5544  34.557  38.038   8.333
   10AU     LIG 5545  34.671  37.605   8.540
   10AU     LIG 5546  34.913  37.315   8.811
   10AU     LIG 5547  35.276  37.052   8.926
   10AU     LIG 5548  35.622  36.791   9.111
   10AU    AUSL 5549  33.348  38.935   7.651
   10AU    AUSL 5550  33.432  39.207   8.220
   10AU     AUL 5551  33.363  38.910   7.997
   10AU       S 5552  33.462  38.477   7.882
   10AU     LIG 5553  33.257  38.099   7.962
   10AU     LIG 5554  33.107  37.658   8.015
   10AU     LIG 5555  32.974  37.215   8.100
   10AU     LIG 5556  32.763  36.840   8.285
   10AU     LIG 5557  32.880  36.427   8.447
   10AU     LIG 5558  33.044  35.982   8.350
   10AU       S 5559  33.117  39.087   8.344
   10AU     LIG 5560  32.791  38.654   8.305
   10AU     LIG 5561  32.432  38.407   8.468
   10AU     LIG 5562  32.201  38.086   8.738
   10AU     LIG 5563  31.980  37.862   9.094
   10AU     LIG 5564  31.822  37.830   9.531
   10AU     LIG 5565  31.818  37.756   9.995
   10AU    AUSL 5566  33.740  38.800   7.630
   10AU    AUSL 5567  33.460  38.884   7.263
   10AU     AUL 5568  33.288  38.683   7.513
   10AU       S 5569  33.513  38.548   7.122
   10AU     LIG 5570  33.130  38.363   7.080
   10AU     LIG 5571  33.051  37.885   6.991
   10AU     LIG 5572  33.007  37.386   7.003
   10AU     LIG 5573  32.906  36.925   6.881
   10AU     LIG 5574  32.843  36.451   6.783
   10AU     LIG 5575  32.875  36.012   6.592
   10AU       S 5576  33.707  38.646   7.736
   10AU     LIG 5577  33.738  38.165   7.635
   10AU     LIG 5578  33.605  37.737   7.838
   10AU     LIG 5579  33.508  37.330   8.096
   10AU     LIG 5580  33.619  36.890   8.269
   10AU     LIG 5581  33.904  36.484   8.297
   10AU     LIG 5582  34.130  36.043   8.296
   10AU    AUSL 5583  33.677  40.343   6.956
   10AU    AUSL 5584  33.992  40.105   7.297
   10AU     AUL 5585  34.065  40.384   6.972
   10AU       S 5586  33.738  40.657   6.791
   10AU     LIG 5587  34.142  40.815   6.626
   10AU     LIG 5588  34.234  41.263   6.456
   10AU     LIG 5589  34.155  41.686   6.216
   10AU     LIG 5590  34.061  41.950   5.795
   10AU     LIG 5591  33.982  42.255   5.410
   10AU     LIG 5592  34.012  42.685   5.194
   10AU       S 5593  34.454  40.096   6.961
   10AU     LIG 5594  34.833  40.404   6.870
   10AU     LIG 5595  35.086  40.675   6.571
   10AU     LIG 5596  35.356  41.066   6.490
   10AU     LIG 5597  35.656  41.342   6.254
   10AU     LIG 5598  35.765  41.736   6.021
   10AU     LIG 5599  35.851  42.125   5.747
   10AU    AUSL 5600  33.591  40.316   7.357
   10AU    AUSL 5601  33.464  40.028   7.081
   10AU     AUL 5602  33.423  40.515   7.114
   10AU       S 5603  33.814  40.782   7.021
   10AU     LIG 5604  33.822  41.190   6.810
   10AU     LIG 5605  34.011  41.615   6.758
   10AU     LIG 5606  34.002  42.044   6.581
   10AU     LIG 5607  33.814  42.469   6.529
   10AU     LIG 5608  33.453  42.765   6.513
   10AU     LIG 5609  33.195  43.172   6.495
   10AU       S 5610  33.276  40.346   6.702
   10AU     LIG 5611  33.257  40.334   6.255
   10AU     LIG 5612  33.052  40.605   5.900
   10AU     LIG 5613  32.795  40.856   5.555
   10AU     LIG 5614  32.721  41.088   5.113
   10AU     LIG 5615  32.596  41.448   4.789
   10AU     LIG 5616  32.294  41.755   4.561
   10AU    AUSL 5617  33.759  38.993   6.989
   10AU    AUSL 5618  33.344  39.262   7.341
   10AU     AUL 5619  33.416  38.960   6.942
   10AU       S 5620  33.002  38.874   7.180
   10AU     LIG 5621  32.672  38.612   7.324
   10AU     LIG 5622  32.342  38.345   7.075
   10AU     LIG 5623  32.036  38.103   6.764
   10AU     LIG 5624  31.758  37.854   6.448
   10AU     LIG 5625  31.475  37.478   6.305
   10AU     LIG 5626  31.167  37.104   6.220
   10AU       S 5627  33.691  38.593   6.942
   10AU     LIG 5628  33.779  38.250   6.720
   10AU     LIG 5629  33.459  37.929   6.658
   10AU     LIG 5630  33.271  37.516   6.577
   10AU     LIG 5631  33.266  37.151   6.276
   10AU     LIG 5632  33.282  36.971   5.823
   10AU     LIG 5633  33.265  36.577   5.562
   10AU    AUSL 5634  33.775  39.116   7.400
   10AU    AUSL 5635  33.898  39.353   7.086
   10AU     AUL 5636  33.983  38.860   7.172
   10AU       S 5637  33.650  38.563   7.238
   10AU     LIG 5638  33.553  38.062   7.162
   10AU     LIG 5639  33.482  37.599   7.060
   10AU     LIG 5640  33.498  37.153   6.882
   10AU     LIG 5641  33.837  36.799   6.821
   10AU     LIG 5642  34.157  36.424   6.817
   10AU     LIG 5643  34.315  35.959   6.865
   10AU       S 5644  34.156  39.008   6.752
   10AU     LIG 5645  33.979  38.716   6.510
   10AU     LIG 5646  34.191  38.351   6.274
   10AU     LIG 5647  34.437  38.004   6.031
   10AU     LIG 5648  34.665  37.674   5.765
   10AU     LIG 5649  34.802  37.506   5.339
   10AU     LIG 5650  34.901  37.296   4.913
   11POPC   NC3 5651  17.811  45.000   9.612
   11POPC   PO4 5652  17.391   0.507   9.802
   11POPC   GL1 5653  17.500   0.417   9.357
   11POPC   GL2 5654  17.195   0.332   9.170
   11POPC   C1A 5655  17.596   0.447   8.892
   11POPC   D2A 5656  17.583   0.623   8.465
   11POPC   C3A 5657  17.556   0.407   8.065
   11POPC   C4A 5658  17.518   0.190   7.643
   11POPC   C1B 5659  17.096   0.577   8.734
   11POPC   C2B 5660  17.085   0.513   8.262
   11POPC   C3B 5661  17.087   0.461   7.816
   11POPC   C4B 5662  16.991   0.095   7.548
   12POPC   NC3 5663  26.590  24.811   9.383
   12POPC   PO4 5664  26.977  25.351   9.557
   12POPC   GL1 5665  26.955  25.436   9.157
   12POPC   GL2 5666  26.654  25.271   9.115
   12POPC   C1A 5667  26.993  25.296   8.735
   12POPC   D2A 5668  26.759  25.323   8.376
   12POPC   C3A 5669  27.085  25.311   8.076
   12POPC   C4A 5670  27.122  25.005   7.783
   12POPC   C1B 5671  26.619  25.640   8.807
   12POPC   C2B 5672  26.475  25.856   8.389
   12POPC   C3B 5673  26.523  25.602   8.009
   12POPC   C4B 5674  26.775  25.387   7.693
   13POPC   NC3 5675  24.808  28.441   9.655
   13POPC   PO4 5676  24.218  28.721   9.741
   13POPC   GL1 5677  24.236  28.507   9.284
   13POPC   GL2 5678  24.568  28.340   9.208
   13POPC   C1A 5679  24.260  28.347   8.817
   13POPC   D2A 5680  24.477  28.276   8.400
   13POPC   C3A 5681  24.242  28.312   8.038
   13POPC   C4A 5682  24.081  28.555   7.708
   13POPC   C1B 5683  24.794  28.250   8.804
   13POPC   C2B 5684  24.975  28.154   8.376
   13POPC   C3B 5685  24.825  28.289   7.939
   13POPC   C4B 5686  24.496  28.310   7.587
   14POPC   NC3 5687   9.742  12.389   9.231
   14POPC   PO4 5688   9.923  12.927   9.600
   14POPC   GL1 5689   9.901  13.047   9.181
   14POPC   GL2 5690   9.577  12.905   9.105
   14POPC   C1A 5691   9.953  12.923   8.739
   14POPC   D2A 5692   9.734  12.994   8.348
   14POPC   C3A 5693   9.912  13.094   7.956
   14POPC   C4A 5694   9.764  13.137   7.540
   14POPC   C1B 5695   9.455  12.750   8.716
   14POPC   C2B 5696   9.318  12.701   8.294
   14POPC   C3B 5697   9.472  12.751   7.864
   14POPC   C4B 5698   9.343  12.420   7.557
   15POPC   NC3 5699  37.913  35.733   9.531
   15POPC   PO4 5700  37.570  35.230   9.567
   15POPC   GL1 5701  37.555  35.198   9.144
   15POPC   GL2 5702  37.554  35.557   9.153
   15POPC   C1A 5703  37.644  35.120   8.712
   15POPC   D2A 5704  37.781  34.893   8.337
   15POPC   C3A 5705  37.751  35.215   7.993
   15POPC   C4A 5706  37.463  35.164   7.650
   15POPC   C1B 5707  37.719  35.776   8.795
   15POPC   C2B 5708  37.704  35.589   8.405
   15POPC   C3B 5709  37.714  35.779   8.008
   15POPC   C4B 5710  37.728  35.612   7.613
   16POPC   NC3 5711  23.383  34.017   9.480
   16POPC   PO4 5712  23.969  33.724   9.809
   16POPC   GL1 5713  23.804  33.605   9.350
   16POPC   GL2 5714  23.481  33.664   9.144
   16POPC   C1A 5715  23.871  33.447   8.913
   16POPC   D2A 5716  23.856  33.626   8.499
   16POPC   C3A 5717  24.061  33.390   8.207
   16POPC   C4A 5718  24.027  33.567   7.845
   16POPC   C1B 5719  23.530  33.932   8.792
   16POPC   C2B 5720  23.783  34.131   8.507
   16POPC   C3B 5721  23.833  34.023   8.112
   16POPC   C4B 5722  23.563  33.772   7.887
   17POPC   NC3 5723  12.580  14.051   9.530
   17POPC   PO4 5724  13.009  14.565   9.491
   17POPC   GL1 5725  12.918  14.369   9.104
   17POPC   GL2 5726  12.960  14.018   9.125
   17POPC   C1A 5727  12.717  14.498   8.696
   17POPC   D2A 5728  12.605  14.623   8.279
   17POPC   C3A 5729  12.890  14.446   7.956
   17POPC   C4A 5730  13.233  14.144   7.772
   17POPC   C1B 5731  13.037  14.096   8.676
   17POPC   C2B 5732  12.751  14.119   8.316
   17POPC   C3B 5733  12.762  13.975   7.871
   17POPC   C4B 5734  12.876  13.902   7.441
   18POPC   NC3 5735  21.541  39.208   9.772
   18POPC   PO4 5736  21.011  39.447   9.810
   18POPC   GL1 5737  21.205  39.241   9.380
   18POPC   GL2 5738  21.441  39.456   9.201
   18POPC   C1A 5739  21.166  39.069   8.880
   18POPC   D2A 5740  21.363  39.113   8.389
   18POPC   C3A 5741  21.196  38.906   7.947
   18POPC   C4A 5742  21.325  38.647   7.543
   18POPC   C1B 5743  21.191  39.561   8.785
   18POPC   C2B 5744  21.025  39.494   8.332
   18POPC   C3B 5745  21.115  39.428   7.866
   18POPC   C4B 5746  21.336  39.596   7.486
   19POPC   NC3 5747   8.562  21.213   9.557
   19POPC   PO4 5748   7.827  21.236   9.673
   19POPC   GL1 5749   8.030  21.423   9.267
   19POPC   GL2 5750   8.369  21.502   9.186
   19POPC   C1A 5751   7.941  21.687   8.871
   19POPC   D2A 5752   7.922  21.731   8.405
   19POPC   C3A 5753   8.047  21.350   8.167
   19POPC   C4A 5754   8.139  21.192   7.778
   19POPC   C1B 5755   8.610  21.705   8.861
   19POPC   C2B 5756   8.609  21.617   8.458
   19POPC   C3B 5757   8.455  21.664   8.053
   19POPC   C4B 5758   8.603  21.366   7.773
   20POPC   NC3 5759  24.716   7.659   9.447
   20POPC   PO4 5760  24.038   7.753   9.248
   20POPC   GL1 5761  24.423   7.554   9.022
   20POPC   GL2 5762  24.845   7.458   9.001
   20POPC   C1A 5763  24.494   7.277   8.672
   20POPC   D2A 5764  24.473   7.249   8.246
   20POPC   C3A 5765  24.190   7.515   7.997
   20POPC   C4A 5766  24.334   7.257   7.714
   20POPC   C1B 5767  24.764   7.745   8.695
   20POPC   C2B 5768  24.556   7.739   8.308
   20POPC   C3B 5769  24.687   7.577   7.903
   20POPC   C4B 5770  24.687   7.753   7.505
   21POPC   NC3 5771   2.339  31.900   9.545
   21POPC   PO4 5772   1.802  32.466   9.492
   21POPC   GL1 5773   1.893  32.168   9.195
   21POPC   GL2 5774   2.237  32.247   9.168
   21POPC   C1A 5775   1.948  32.090   8.751
   21POPC   D2A 5776   1.755  31.929   8.374
   21POPC   C3A 5777   2.009  32.061   8.024
   21POPC   C4A 5778   2.149  31.784   7.697
   21POPC   C1B 5779   2.401  32.503   8.833
   21POPC   C2B 5780   2.280  32.392   8.400
   21POPC   C3B 5781   2.353  32.471   7.974
   21POPC   C4B 5782   2.268  32.263   7.578
   22POPC   NC3 5783  24.760  34.745   9.231
   22POPC   PO4 5784  24.193  35.036   9.237
   22POPC   GL1 5785  24.301  34.680   8.977
   22POPC   GL2 5786  24.278  34.391   9.192
   22POPC   C1A 5787  24.616  34.523   8.625
   22POPC   D2A 5788  24.709  34.443   8.174
   22POPC   C3A 5789  24.638  34.825   7.911
   22POPC   C4A 5790  24.547  34.927   7.459
   22POPC   C1B 5791  24.230  34.229   8.749
   22POPC   C2B 5792  24.219  34.315   8.278
   22POPC   C3B 5793  24.353  34.399   7.820
   22POPC   C4B 5794  24.742  34.450   7.593
   23POPC   NC3 5795  30.709  13.501   9.598
   23POPC   PO4 5796  30.477  14.190   9.569
   23POPC   GL1 5797  30.623  13.896   9.233
   23POPC   GL2 5798  30.595  13.529   9.107
   23POPC   C1A 5799  30.903  13.871   8.872
   23POPC   D2A 5800  30.948  13.998   8.436
   23POPC   C3A 5801  30.908  13.707   8.112
   23POPC   C4A 5802  30.740  13.784   7.719
   23POPC   C1B 5803  30.377  13.387   8.750
   23POPC   C2B 5804  30.649  13.326   8.394
   23POPC   C3B 5805  30.487  13.392   7.992
   23POPC   C4B 5806  30.505  13.366   7.558
   24POPC   NC3 5807  31.007  10.489   9.549
   24POPC   PO4 5808  30.591  11.024   9.554
   24POPC   GL1 5809  30.556  10.762   9.164
   24POPC   GL2 5810  30.604  10.384   9.165
   24POPC   C1A 5811  30.560  10.814   8.714
   24POPC   D2A 5812  30.479  10.544   8.340
   24POPC   C3A 5813  30.516  10.756   7.940
   24POPC   C4A 5814  30.714  10.653   7.595
   24POPC   C1B 5815  30.727  10.307   8.729
   24POPC   C2B 5816  30.892  10.199   8.295
   24POPC   C3B 5817  30.626  10.234   7.898
   24POPC   C4B 5818  30.627  10.195   7.410
   25POPC   NC3 5819  35.445   6.874   9.393
   25POPC   PO4 5820  34.945   6.479   9.477
   25POPC   GL1 5821  35.100   6.612   9.131
   25POPC   GL2 5822  35.132   6.970   9.014
   25POPC   C1A 5823  35.340   6.548   8.793
   25POPC   D2A 5824  35.553   6.637   8.438
   25POPC   C3A 5825  35.363   6.694   8.053
   25POPC   C4A 5826  35.585   6.556   7.715
   25POPC   C1B 5827  35.530   7.049   8.749
   25POPC   C2B 5828  35.656   7.099   8.288
   25POPC   C3B 5829  35.657   7.063   7.833
   25POPC   C4B 5830  35.691   7.042   7.383
   26POPC   NC3 5831  40.301  36.096   9.594
   26POPC   PO4 5832  39.638  35.970   9.468
   26POPC   GL1 5833  39.749  36.151   9.068
   26POPC   GL2 5834  40.087  36.083   9.103
   26POPC   C1A 5835  39.890  36.280   8.656
   26POPC   D2A 5836  39.715  36.122   8.288
   26POPC   C3A 5837  39.970  35.908   7.994
   26POPC   C4A 5838  39.780  36.115   7.686
   26POPC   C1B 5839  40.385  36.203   8.750
   26POPC   C2B 5840  40.322  36.299   8.291
   26POPC   C3B 5841  40.265  36.364   7.834
   26POPC   C4B 5842  40.568  36.290   7.443
   27POPC   NC3 5843  39.667  38.166   9.372
   27POPC   PO4 5844  40.096  38.755   9.370
   27POPC   GL1 5845  39.985  38.461   9.063
   27POPC   GL2 5846  39.648  38.404   8.939
   27POPC   C1A 5847  40.037  38.429   8.627
   27POPC   D2A 5848  40.039  38.209   8.264
   27POPC   C3A 5849  40.142  38.470   7.922
   27POPC   C4A 5850  40.238  38.249   7.574
   27POPC   C1B 5851  39.554  38.224   8.541
   27POPC   C2B 5852  39.599  37.933   8.207
   27POPC   C3B 5853  39.734  38.201   7.835
   27POPC   C4B 5854  39.793  38.401   7.402
   28POPC   NC3 5855  32.027  35.540   9.626
   28POPC   PO4 5856  32.471  35.034   9.627
   28POPC   GL1 5857  32.219  35.158   9.256
   28POPC   GL2 5858  32.277  35.494   9.181
   28POPC   C1A 5859  32.138  35.154   8.798
   28POPC   D2A 5860  32.291  35.322   8.392
   28POPC   C3A 5861  32.041  35.288   8.024
   28POPC   C4A 5862  31.768  35.422   7.662
   28POPC   C1B 5863  32.166  35.663   8.775
   28POPC   C2B 5864  32.143  35.824   8.391
   28POPC   C3B 5865  32.310  35.735   8.026
   28POPC   C4B 5866  32.264  35.569   7.673
   29POPC   NC3 5867  40.392  15.774   9.573
   29POPC   PO4 5868  39.871  16.245   9.442
   29POPC   GL1 5869  39.983  16.080   9.084
   29POPC   GL2 5870  40.043  15.736   9.163
   29POPC   C1A 5871  40.174  16.144   8.689
   29POPC   D2A 5872  40.318  16.028   8.282
   29POPC   C3A 5873  40.039  16.116   7.905
   29POPC   C4A 5874  40.186  16.142   7.439
   29POPC   C1B 5875  39.827  15.692   8.773
   29POPC   C2B 5876  39.966  15.602   8.406
   29POPC   C3B 5877  40.149  15.627   8.013
   29POPC   C4B 5878  40.031  15.679   7.609
   30POPC   NC3 5879  43.207   7.024   9.729
   30POPC   PO4 5880  43.290   6.421   9.548
   30POPC   GL1 5881  43.130   6.611   9.181
   30POPC   GL2 5882  43.194   6.942   9.205
   30POPC   C1A 5883  43.239   6.483   8.792
   30POPC   D2A 5884  43.449   6.564   8.403
   30POPC   C3A 5885  43.263   6.642   8.008
   30POPC   C4A 5886  43.178   6.642   7.583
   30POPC   C1B 5887  43.326   6.981   8.789
   30POPC   C2B 5888  43.040   6.865   8.462
   30POPC   C3B 5889  42.966   7.042   8.084
   30POPC   C4B 5890  43.324   7.094   7.731
   31POPC   NC3 5891  17.305  35.781   9.362
   31POPC   PO4 5892  17.705  36.304   9.565
   31POPC   GL1 5893  17.720  36.102   9.108
   31POPC   GL2 5894  17.510  35.886   8.929
   31POPC   C1A 5895  17.793  36.171   8.634
   31POPC   D2A 5896  17.519  36.127   8.281
   31POPC   C3A 5897  17.608  36.275   7.885
   31POPC   C4A 5898  17.679  35.964   7.635
   31POPC   C1B 5899  17.202  35.933   8.636
   31POPC   C2B 5900  17.045  35.851   8.241
   31POPC   C3B 5901  17.204  35.933   7.847
   31POPC   C4B 5902  17.211  36.273   7.538
   32POPC   NC3 5903  11.542  20.715   9.276
   32POPC   PO4 5904  12.193  20.643   9.522
   32POPC   GL1 5905  12.051  20.600   9.117
   32POPC   GL2 5906  12.262  20.817   8.963
   32POPC   C1A 5907  11.966  20.525   8.666
   32POPC   D2A 5908  11.978  20.540   8.209
   32POPC   C3A 5909  11.693  20.715   7.884
   32POPC   C4A 5910  11.612  20.555   7.456
   32POPC   C1B 5911  12.309  20.914   8.512
   32POPC   C2B 5912  12.412  20.791   8.090
   32POPC   C3B 5913  12.158  20.755   7.692
   32POPC   C4B 5914  11.927  20.903   7.283
   33POPC   NC3 5915   7.118  44.501   9.450
   33POPC   PO4 5916   7.689  44.901   9.597
   33POPC   GL1 5917   7.484  44.779   9.224
   33POPC   GL2 5918   7.547  44.386   9.201
   33POPC   C1A 5919   7.502  44.693   8.792
   33POPC   D2A 5920   7.374  44.662   8.394
   33POPC   C3A 5921   7.413  44.915   8.013
   33POPC   C4A 5922   7.395  44.935   7.546
   33POPC   C1B 5923   7.614  44.187   8.794
   33POPC   C2B 5924   7.657  44.222   8.352
   33POPC   C3B 5925   7.790  44.177   7.941
   33POPC   C4B 5926   7.691  44.551   7.706
   34POPC   NC3 5927  20.000   5.699   9.502
   34POPC   PO4 5928  19.579   6.275   9.526
   34POPC   GL1 5929  19.752   6.047   9.200
   34POPC   GL2 5930  19.515   5.775   9.211
   34POPC   C1A 5931  19.894   5.840   8.824
   34POPC   D2A 5932  20.187   5.747   8.480
   34POPC   C3A 5933  20.018   5.740   8.060
   34POPC   C4A 5934  20.168   5.518   7.701
   34POPC   C1B 5935  19.534   5.508   8.845
   34POPC   C2B 5936  19.656   5.576   8.420
   34POPC   C3B 5937  19.527   5.736   8.016
   34POPC   C4B 5938  19.659   5.562   7.590
   35POPC   NC3 5939  42.046   5.055   9.384
   35POPC   PO4 5940  42.652   5.232   9.626
   35POPC   GL1 5941  42.498   5.368   9.253
   35POPC   GL2 5942  42.534   5.034   9.138
   35POPC   C1A 5943  42.324   5.391   8.835
   35POPC   D2A 5944  42.204   5.150   8.477
   35POPC   C3A 5945  42.301   5.268   8.053
   35POPC   C4A 5946  42.092   5.399   7.669
   35POPC   C1B 5947  42.411   4.757   8.788
   35POPC   C2B 5948  42.289   4.662   8.371
   35POPC   C3B 5949  42.413   4.696   7.964
   35POPC   C4B 5950  42.335   4.954   7.625
   36POPC   NC3 5951   5.608  32.810   9.533
   36POPC   PO4 5952   5.950  33.347   9.580
   36POPC   GL1 5953   5.878  33.157   9.204
   36POPC   GL2 5954   5.569  33.126   9.134
   36POPC   C1A 5955   6.057  33.052   8.790
   36POPC   D2A 5956   5.946  32.791   8.402
   36POPC   C3A 5957   6.171  32.822   8.019
   36POPC   C4A 5958   5.973  33.089   7.780
   36POPC   C1B 5959   5.420  33.154   8.748
   36POPC   C2B 5960   5.402  32.893   8.390
   36POPC   C3B 5961   5.573  32.766   7.988
   36POPC   C4B 5962   5.469  33.038   7.659
   37POPC   NC3 5963   3.208  33.890   9.596
   37POPC   PO4 5964   3.665  33.396   9.633
   37POPC   GL1 5965   3.671  33.555   9.196
   37POPC   GL2 5966   3.734  33.902   9.064
   37POPC   C1A 5967   3.542  33.471   8.772
   37POPC   D2A 5968   3.482  33.740   8.418
   37POPC   C3A 5969   3.691  33.720   8.035
   37POPC   C4A 5970   3.619  33.621   7.619
   37POPC   C1B 5971   3.314  33.930   8.867
   37POPC   C2B 5972   3.147  34.139   8.473
   37POPC   C3B 5973   3.203  34.219   8.012
   37POPC   C4B 5974   3.552  34.133   7.732
   38POPC   NC3 5975  20.390  26.815   9.421
   38POPC   PO4 5976  20.961  26.526   9.648
   38POPC   GL1 5977  20.851  26.756   9.200
   38POPC   GL2 5978  20.534  26.641   8.972
   38POPC   C1A 5979  20.879  26.925   8.738
   38POPC   D2A 5980  20.572  26.799   8.383
   38POPC   C3A 5981  20.636  26.679   7.953
   38POPC   C4A 5982  20.684  26.611   7.486
   38POPC   C1B 5983  20.403  27.068   8.776
   38POPC   C2B 5984  20.285  27.231   8.358
   38POPC   C3B 5985  20.208  26.994   7.955
   38POPC   C4B 5986  20.264  26.890   7.465
   39POPC   NC3 5987   1.361   1.337   9.562
   39POPC   PO4 5988   1.064   2.000   9.491
   39POPC   GL1 5989   1.042   1.779   9.151
   39POPC   GL2 5990   0.882   1.452   9.220
   39POPC   C1A 5991   1.009   1.973   8.762
   39POPC   D2A 5992   0.831   1.866   8.387
   39POPC   C3A 5993   1.061   2.066   8.067
   39POPC   C4A 5994   1.468   2.067   7.843
   39POPC   C1B 5995   1.020   1.443   8.780
   39POPC   C2B 5996   1.060   1.402   8.382
   39POPC   C3B 5997   0.850   1.527   8.022
   39POPC   C4B 5998   0.807   1.346   7.663
   40POPC   NC3 5999  43.088  29.721   9.532
   40POPC   PO4 6000  42.910  30.363   9.619
   40POPC   GL1 6001  42.935  30.228   9.173
   40POPC   GL2 6002  42.857  29.866   9.104
   40POPC   C1A 6003  43.192  30.085   8.818
   40POPC   D2A 6004  43.279  29.842   8.461
   40POPC   C3A 6005  43.016  29.980   8.108
   40POPC   C4A 6006  43.319  30.138   7.825
   40POPC   C1B 6007  42.906  29.610   8.738
   40POPC   C2B 6008  42.975  29.478   8.300
   40POPC   C3B 6009  43.061  29.550   7.850
   40POPC   C4B 6010  42.740  29.617   7.551
   41POPC   NC3 6011  34.798  33.908   9.603
   41POPC   PO4 6012  34.422  33.372   9.569
   41POPC   GL1 6013  34.504  33.537   9.147
   41POPC   GL2 6014  34.861  33.592   9.203
   41POPC   C1A 6015  34.408  33.552   8.682
   41POPC   D2A 6016  34.666  33.446   8.289
   41POPC   C3A 6017  34.552  33.530   7.859
   41POPC   C4A 6018  34.331  33.934   7.793
   41POPC   C1B 6019  34.891  33.751   8.797
   41POPC   C2B 6020  34.931  33.903   8.408
   41POPC   C3B 6021  34.860  33.895   8.009
   41POPC   C4B 6022  35.085  34.064   7.721
   42POPC   NC3 6023  10.236  14.010   9.326
   42POPC   PO4 6024  10.357  14.723   9.526
   42POPC   GL1 6025  10.325  14.516   9.153
   42POPC   GL2 6026  10.642  14.329   9.179
   42POPC   C1A 6027  10.524  14.560   8.734
   42POPC   D2A 6028  10.649  14.788   8.369
   42POPC   C3A 6029  10.459  14.505   8.053
   42POPC   C4A 6030  10.147  14.366   7.756
   42POPC   C1B 6031  10.851  14.150   8.814
   42POPC   C2B 6032  10.673  14.036   8.435
   42POPC   C3B 6033  10.825  14.104   8.030
   42POPC   C4B 6034  10.754  14.269   7.640
   43POPC   NC3 6035   0.109   4.896   9.677
   43POPC   PO4 6036   0.535   5.336   9.491
   43POPC   GL1 6037   0.300   5.162   9.201
   43POPC   GL2 6038   0.411   4.830   9.123
   43POPC   C1A 6039   0.369   5.193   8.764
   43POPC   D2A 6040   0.482   5.374   8.393
   43POPC   C3A 6041   0.407   5.121   8.061
   43POPC   C4A 6042   0.103   5.090   7.739
   43POPC   C1B 6043   0.724   4.823   8.755
   43POPC   C2B 6044   0.847   5.003   8.368
   43POPC   C3B 6045   0.900   4.904   7.942
   43POPC   C4B 6046   0.552   4.869   7.653
   44POPC   NC3 6047  30.960  27.571   9.462
   44POPC   PO4 6048  30.613  27.143   9.338
   44POPC   GL1 6049  30.643  27.476   9.017
   44POPC   GL2 6050  30.811  27.813   9.042
   44POPC   C1A 6051  30.578  27.628   8.599
   44POPC   D2A 6052  30.848  27.765   8.272
   44POPC   C3A 6053  30.758  27.540   7.877
   44POPC   C4A 6054  30.636  27.385   7.433
   44POPC   C1B 6055  30.549  28.104   8.792
   44POPC   C2B 6056  30.414  28.141   8.345
   44POPC   C3B 6057  30.627  28.056   7.928
   44POPC   C4B 6058  30.797  27.896   7.507
   45POPC   NC3 6059  38.933  12.497   9.624
   45POPC   PO4 6060  39.419  12.943   9.628
   45POPC   GL1 6061  39.317  12.806   9.210
   45POPC   GL2 6062  39.232  12.513   9.206
   45POPC   C1A 6063  39.442  12.741   8.731
   45POPC   D2A 6064  39.415  13.062   8.386
   45POPC   C3A 6065  39.277  12.854   7.972
   45POPC   C4A 6066  39.283  12.943   7.484
   45POPC   C1B 6067  38.974  12.655   8.870
   45POPC   C2B 6068  38.982  12.815   8.451
   45POPC   C3B 6069  38.735  12.951   8.106
   45POPC   C4B 6070  38.806  12.841   7.695
   46POPC   NC3 6071  17.944   4.863   9.611
   46POPC   PO4 6072  17.215   4.922   9.764
   46POPC   GL1 6073  17.472   5.018   9.347
   46POPC   GL2 6074  17.548   5.344   9.181
   46POPC   C1A 6075  17.584   4.921   8.890
   46POPC   D2A 6076  17.498   4.849   8.430
   46POPC   C3A 6077  17.711   5.034   8.047
   46POPC   C4A 6078  17.577   5.141   7.599
   46POPC   C1B 6079  17.822   5.367   8.858
   46POPC   C2B 6080  17.745   5.372   8.448
   46POPC   C3B 6081  17.906   5.542   8.105
   46POPC   C4B 6082  18.026   5.361   7.760
   47POPC   NC3 6083  36.390  31.674   9.478
   47POPC   PO4 6084  35.788  31.518   9.688
   47POPC   GL1 6085  36.014  31.468   9.200
   47POPC   GL2 6086  36.194  31.689   9.011
   47POPC   C1A 6087  36.183  31.293   8.748
   47POPC   D2A 6088  36.309  31.424   8.343
   47POPC   C3A 6089  36.024  31.208   8.118
   47POPC   C4A 6090  35.861  31.342   7.722
   47POPC   C1B 6091  35.806  31.660   8.777
   47POPC   C2B 6092  35.863  31.676   8.349
   47POPC   C3B 6093  35.892  31.838   7.938
   47POPC   C4B 6094  35.826  31.801   7.500
   48POPC   NC3 6095  38.492  21.771   9.452
   48POPC   PO4 6096  38.250  22.437   9.465
   48POPC   GL1 6097  38.230  22.122   9.185
   48POPC   GL2 6098  38.578  22.159   9.135
   48POPC   C1A 6099  38.185  22.083   8.766
   48POPC   D2A 6100  38.098  22.364   8.469
   48POPC   C3A 6101  38.223  22.235   8.046
   48POPC   C4A 6102  38.386  22.476   7.691
   48POPC   C1B 6103  38.665  22.353   8.779
   48POPC   C2B 6104  38.593  22.129   8.411
   48POPC   C3B 6105  38.734  22.188   8.005
   48POPC   C4B 6106  38.627  22.030   7.599
   49POPC   NC3 6107  39.226   1.017   9.421
   49POPC   PO4 6108  39.416   1.549   9.782
   49POPC   GL1 6109  39.541   1.403   9.251
   49POPC   GL2 6110  39.626   1.064   9.110
   49POPC   C1A 6111  39.334   1.344   8.805
   49POPC   D2A 6112  39.319   1.057   8.473
   49POPC   C3A 6113  39.171   1.200   8.077
   49POPC   C4A 6114  39.154   1.135   7.642
   49POPC   C1B 6115  39.530   0.724   8.848
   49POPC   C2B 6116  39.571   0.602   8.427
   49POPC   C3B 6117  39.547   0.809   8.025
   49POPC   C4B 6118  39.637   1.002   7.622
   50POPC   NC3 6119  13.242  29.364   9.707
   50POPC   PO4 6120  12.982  29.946   9.463
   50POPC   GL1 6121  12.681  29.972   9.142
   50POPC   GL2 6122  12.406  30.207   9.144
   50POPC   C1A 6123  12.868  29.908   8.739
   50POPC   D2A 6124  12.991  30.045   8.330
   50POPC   C3A 6125  12.999  29.668   8.079
   50POPC   C4A 6126  13.015  29.644   7.654
   50POPC   C1B 6127  12.527  30.315   8.737
   50POPC   C2B 6128  12.586  30.525   8.351
   50POPC   C3B 6129  12.537  30.281   8.018
   50POPC   C4B 6130  12.845  30.086   7.825
   51POPC   NC3 6131  27.392   0.249   9.503
   51POPC   PO4 6132  27.877   0.635   9.567
   51POPC   GL1 6133  27.688   0.648   9.169
   51POPC   GL2 6134  27.820   0.980   9.060
   51POPC   C1A 6135  27.452   0.367   8.868
   51POPC   D2A 6136  27.354   0.232   8.468
   51POPC   C3A 6137  27.482   0.440   8.111
   51POPC   C4A 6138  27.491   0.270   7.714
   51POPC   C1B 6139  27.947   0.776   8.669
   51POPC   C2B 6140  27.906   0.729   8.194
   51POPC   C3B 6141  28.078   0.908   7.819
   51POPC   C4B 6142  28.026   0.844   7.365
   52POPC   NC3 6143  10.370  41.790   9.513
   52POPC   PO4 6144  10.929  41.512   9.351
   52POPC   GL1 6145  10.626  41.592   9.079
   52POPC   GL2 6146  10.555  41.254   9.046
   52POPC   C1A 6147  10.594  41.819   8.704
   52POPC   D2A 6148  10.382  41.882   8.312
   52POPC   C3A 6149  10.466  41.727   7.897
   52POPC   C4A 6150  10.454  41.634   7.405
   52POPC   C1B 6151  10.412  41.336   8.604
   52POPC   C2B 6152  10.373  41.285   8.139
   52POPC   C3B 6153  10.616  41.271   7.746
   52POPC   C4B 6154  10.849  40.962   7.503
   53POPC   NC3 6155  29.770   8.241   9.409
   53POPC   PO4 6156  30.376   8.481   9.461
   53POPC   GL1 6157  30.227   8.285   9.119
   53POPC   GL2 6158  30.086   7.974   9.043
   53POPC   C1A 6159  30.102   8.394   8.722
   53POPC   D2A 6160  29.826   8.382   8.393
   53POPC   C3A 6161  30.006   8.463   8.033
   53POPC   C4A 6162  29.722   8.340   7.760
   53POPC   C1B 6163  29.706   8.045   8.772
   53POPC   C2B 6164  29.470   7.973   8.384
   53POPC   C3B 6165  29.533   7.911   7.992
   53POPC   C4B 6166  29.477   7.832   7.578
   54POPC   NC3 6167  27.774  27.509   9.668
   54POPC   PO4 6168  27.990  28.090   9.466
   54POPC   GL1 6169  28.113  27.825   9.130
   54POPC   GL2 6170  28.121  27.500   9.228
   54POPC   C1A 6171  28.266  27.834   8.702
   54POPC   D2A 6172  28.085  27.796   8.339
   54POPC   C3A 6173  28.311  27.732   7.994
   54POPC   C4A 6174  28.263  27.649   7.549
   54POPC   C1B 6175  28.385  27.382   8.862
   54POPC   C2B 6176  28.494  27.447   8.397
   54POPC   C3B 6177  28.438  27.252   7.940
   54POPC   C4B 6178  28.603  27.295   7.507
   55POPC   NC3 6179  28.915  30.838   9.398
   55POPC   PO4 6180  29.263  31.415   9.590
   55POPC   GL1 6181  29.042  31.322   9.229
   55POPC   GL2 6182  29.315  31.072   9.171
   55POPC   C1A 6183  28.879  31.510   8.834
   55POPC   D2A 6184  28.878  31.315   8.412
   55POPC   C3A 6185  28.679  31.502   8.058
   55POPC   C4A 6186  28.798  31.643   7.612
   55POPC   C1B 6187  29.197  31.126   8.768
   55POPC   C2B 6188  29.341  31.126   8.360
   55POPC   C3B 6189  29.177  31.340   7.992
   55POPC   C4B 6190  29.272  31.157   7.605
   56POPC   NC3 6191  32.940  35.135   9.668
   56POPC   PO4 6192  33.390  35.487   9.552
   56POPC   GL1 6193  33.119  35.266   9.214
   56POPC   GL2 6194  32.736  35.196   9.204
   56POPC   C1A 6195  33.035  35.074   8.816
   56POPC   D2A 6196  32.830  35.110   8.426
   56POPC   C3A 6197  33.082  35.084   8.061
   56POPC   C4A 6198  32.943  34.918   7.720
   56POPC   C1B 6199  32.624  35.416   8.804
   56POPC   C2B 6200  32.695  35.608   8.387
   56POPC   C3B 6201  32.722  35.450   7.972
   56POPC   C4B 6202  33.007  35.466   7.662
   57POPC   NC3 6203  20.736  37.578   9.584
   57POPC   PO4 6204  20.171  37.907   9.542
   57POPC   GL1 6205  20.462  37.860   9.231
   57POPC   GL2 6206  20.433  37.511   9.188
   57POPC   C1A 6207  20.655  37.816   8.825
   57POPC   D2A 6208  20.686  37.992   8.413
   57POPC   C3A 6209  20.836  37.943   8.001
   57POPC   C4A 6210  20.616  37.910   7.637
   57POPC   C1B 6211  20.298  37.436   8.782
   57POPC   C2B 6212  20.537  37.485   8.432
   57POPC   C3B 6213  20.624  37.493   8.031
   57POPC   C4B 6214  20.768  37.323   7.689
   58POPC   NC3 6215  15.321   6.771   9.595
   58POPC   PO4 6216  14.784   6.419   9.459
   58POPC   GL1 6217  15.005   6.726   9.187
   58POPC   GL2 6218  15.339   6.535   9.114
   58POPC   C1A 6219  15.158   6.906   8.808
   58POPC   D2A 6220  15.351   6.720   8.417
   58POPC   C3A 6221  15.312   7.000   8.060
   58POPC   C4A 6222  15.219   6.978   7.657
   58POPC   C1B 6223  15.008   6.425   8.760
   58POPC   C2B 6224  14.750   6.391   8.358
   58POPC   C3B 6225  14.871   6.325   7.943
   58POPC   C4B 6226  15.332   6.296   7.885
   59POPC   NC3 6227   9.565  26.444   9.903
   59POPC   PO4 6228  10.029  27.007   9.771
   59POPC   GL1 6229   9.991  26.921   9.300
   59POPC   GL2 6230   9.699  27.121   9.217
   59POPC   C1A 6231   9.887  26.707   8.843
   59POPC   D2A 6232  10.002  26.729   8.378
   59POPC   C3A 6233   9.658  26.785   8.067
   59POPC   C4A 6234   9.673  26.882   7.623
   59POPC   C1B 6235   9.967  27.194   8.825
   59POPC   C2B 6236   9.890  27.236   8.370
   59POPC   C3B 6237   9.972  27.158   7.929
   59POPC   C4B 6238  10.122  27.068   7.478
   60POPC   NC3 6239  31.979   7.343   9.327
   60POPC   PO4 6240  32.132   7.972   9.540
   60POPC   GL1 6241  32.269   7.750   9.144
   60POPC   GL2 6242  32.470   7.425   9.135
   60POPC   C1A 6243  32.189   7.552   8.723
   60POPC   D2A 6244  32.438   7.512   8.368
   60POPC   C3A 6245  32.372   7.297   8.007
   60POPC   C4A 6246  32.188   7.503   7.694
   60POPC   C1B 6247  32.634   7.195   8.738
   60POPC   C2B 6248  32.806   7.160   8.283
   60POPC   C3B 6249  32.826   7.167   7.815
   60POPC   C4B 6250  32.494   7.174   7.482
   61POPC   NC3 6251  14.185  18.633   9.506
   61POPC   PO4 6252  14.634  19.048   9.810
   61POPC   GL1 6253  14.609  19.140   9.342
   61POPC   GL2 6254  14.526  18.824   9.162
   61POPC   C1A 6255  14.512  19.250   8.883
   61POPC   D2A 6256  14.564  19.286   8.410
   61POPC   C3A 6257  14.286  19.102   8.052
   61POPC   C4A 6258  14.116  18.879   7.673
   61POPC   C1B 6259  14.491  18.740   8.700
   61POPC   C2B 6260  14.619  18.773   8.254
   61POPC   C3B 6261  14.589  18.719   7.780
   61POPC   C4B 6262  14.429  18.716   7.304
   62POPC   NC3 6263  44.002   8.427   9.613
   62POPC   PO4 6264  44.062   7.708   9.497
   62POPC   GL1 6265  43.844   7.853   9.177
   62POPC   GL2 6266  43.929   8.200   9.155
   62POPC   C1A 6267  43.735   7.972   8.766
   62POPC   D2A 6268  43.697   8.217   8.382
   62POPC   C3A 6269  43.748   7.979   8.020
   62POPC   C4A 6270  43.727   7.731   7.659
   62POPC   C1B 6271  44.235   8.134   8.780
   62POPC   C2B 6272  44.390   8.192   8.365
   62POPC   C3B 6273  44.302   8.325   7.952
   62POPC   C4B 6274  44.068   8.114   7.640
   63POPC   NC3 6275  11.737  14.908   9.682
   63POPC   PO4 6276  12.155  14.276   9.600
   63POPC   GL1 6277  12.044  14.398   9.206
   63POPC   GL2 6278  12.400  14.386   9.104
   63POPC   C1A 6279  12.037  14.511   8.770
   63POPC   D2A 6280  12.230  14.308   8.446
   63POPC   C3A 6281  11.939  14.339   8.110
   63POPC   C4A 6282  11.852  14.718   7.889
   63POPC   C1B 6283  12.535  14.027   8.828
   63POPC   C2B 6284  12.364  13.815   8.486
   63POPC   C3B 6285  12.305  13.972   8.066
   63POPC   C4B 6286  12.382  14.390   7.845
   64POPC   NC3 6287  34.576   4.321   9.509
   64POPC   PO4 6288  34.820   4.826   9.668
   64POPC   GL1 6289  34.803   4.431   9.106
   64POPC   GL2 6290  34.451   4.340   9.010
   64POPC   C1A 6291  34.789   4.480   8.634
   64POPC   D2A 6292  34.622   4.129   8.375
   64POPC   C3A 6293  34.754   4.092   7.933
   64POPC   C4A 6294  34.819   4.384   7.611
   64POPC   C1B 6295  34.299   4.623   8.689
   64POPC   C2B 6296  34.309   4.531   8.262
   64POPC   C3B 6297  34.245   4.641   7.829
   64POPC   C4B 6298  34.319   4.415   7.452
   65POPC   NC3 6299  19.070   9.026   9.451
   65POPC   PO4 6300  19.562   9.368   9.503
   65POPC   GL1 6301  19.447   9.083   9.121
   65POPC   GL2 6302  19.301   8.765   9.118
   65POPC   C1A 6303  19.163   9.091   8.758
   65POPC   D2A 6304  19.186   8.923   8.382
   65POPC   C3A 6305  19.093   9.203   8.102
   65POPC   C4A 6306  19.251   9.298   7.749
   65POPC   C1B 6307  19.049   8.606   8.798
   65POPC   C2B 6308  18.970   8.456   8.367
   65POPC   C3B 6309  18.870   8.739   8.021
   65POPC   C4B 6310  18.836   8.638   7.629
   66POPC   NC3 6311  37.212  44.897   9.554
   66POPC   PO4 6312  36.852  44.361   9.317
   66POPC   GL1 6313  36.876  44.784   9.133
   66POPC   GL2 6314  36.523  44.994   9.103
   66POPC   C1A 6315  37.132  44.813   8.759
   66POPC   D2A 6316  37.118  44.586   8.370
   66POPC   C3A 6317  37.104  44.860   8.022
   66POPC   C4A 6318  37.074  44.734   7.611
   66POPC   C1B 6319  36.634  44.951   8.662
   66POPC   C2B 6320  36.642   0.019   8.208
   66POPC   C3B 6321  36.594  44.806   7.819
   66POPC   C4B 6322  36.660  44.842   7.324
   67POPC   NC3 6323   4.971   8.649   9.244
   67POPC   PO4 6324   5.395   8.327   9.733
   67POPC   GL1 6325   5.210   8.208   9.271
   67POPC   GL2 6326   4.887   8.165   9.061
   67POPC   C1A 6327   5.327   8.269   8.810
   67POPC   D2A 6328   5.490   8.270   8.380
   67POPC   C3A 6329   5.357   8.492   7.999
   67POPC   C4A 6330   5.432   8.179   7.672
   67POPC   C1B 6331   4.872   8.185   8.609
   67POPC   C2B 6332   5.002   8.152   8.173
   67POPC   C3B 6333   4.931   8.066   7.751
   67POPC   C4B 6334   4.675   8.218   7.401
   68POPC   NC3 6335  24.217  33.951   9.505
   68POPC   PO4 6336  24.785  34.242   9.373
   68POPC   GL1 6337  24.543  33.965   9.069
   68POPC   GL2 6338  24.488  33.623   9.172
   68POPC   C1A 6339  24.284  33.739   8.743
   68POPC   D2A 6340  24.392  33.742   8.334
   68POPC   C3A 6341  24.422  33.921   7.956
   68POPC   C4A 6342  24.834  33.831   7.776
   68POPC   C1B 6343  24.716  33.455   8.759
   68POPC   C2B 6344  24.581  33.268   8.336
   68POPC   C3B 6345  24.547  33.432   7.875
   68POPC   C4B 6346  24.735  33.460   7.419
   69POPC   NC3 6347  28.506   2.175   9.440
   69POPC   PO4 6348  28.376   1.482   9.547
   69POPC   GL1 6349  28.546   1.689   9.174
   69POPC   GL2 6350  28.308   1.973   9.018
   69POPC   C1A 6351  28.556   1.638   8.719
   69POPC   D2A 6352  28.661   1.826   8.318
   69POPC   C3A 6353  28.356   1.922   8.016
   69POPC   C4A 6354  28.461   2.129   7.645
   69POPC   C1B 6355  28.035   2.257   8.752
   69POPC   C2B 6356  27.902   2.140   8.309
   69POPC   C3B 6357  27.994   2.248   7.832
   69POPC   C4B 6358  27.946   2.504   7.446
   70POPC   NC3 6359  31.275  43.707   9.750
   70POPC   PO4 6360  31.624  44.200   9.456
   70POPC   GL1 6361  31.607  43.885   9.140
   70POPC   GL2 6362  31.275  43.701   9.203
   70POPC   C1A 6363  31.545  44.085   8.737
   70POPC   D2A 6364  31.600  44.302   8.338
   70POPC   C3A 6365  31.627  44.042   7.987
   70POPC   C4A 6366  31.693  43.943   7.582
   70POPC   C1B 6367  31.035  43.853   8.810
   70POPC   C2B 6368  31.120  44.072   8.425
   70POPC   C3B 6369  31.018  43.857   8.066
   70POPC   C4B 6370  31.205  43.860   7.694
   71POPC   NC3 6371  35.433   1.473   9.826
   71POPC   PO4 6372  35.215   2.091   9.560
   71POPC   GL1 6373  35.149   2.107   9.148
   71POPC   GL2 6374  35.020   1.796   9.063
   71POPC   C1A 6375  35.085   2.231   8.743
   71POPC   D2A 6376  35.023   2.034   8.355
   71POPC   C3A 6377  35.156   2.213   8.004
   71POPC   C4A 6378  35.012   2.074   7.662
   71POPC   C1B 6379  35.320   1.763   8.706
   71POPC   C2B 6380  35.288   1.582   8.294
   71POPC   C3B 6381  35.294   1.667   7.859
   71POPC   C4B 6382  35.327   1.344   7.554
   72POPC   NC3 6383   4.459  10.857   9.467
   72POPC   PO4 6384   4.194  10.375   9.688
   72POPC   GL1 6385   4.327  10.314   9.264
   72POPC   GL2 6386   4.681  10.333   9.222
   72POPC   C1A 6387   4.223  10.285   8.806
   72POPC   D2A 6388   4.335  10.511   8.422
   72POPC   C3A 6389   4.165  10.491   7.985
   72POPC   C4A 6390   4.446  10.661   7.674
   72POPC   C1B 6391   4.700  10.504   8.823
   72POPC   C2B 6392   4.811  10.300   8.448
   72POPC   C3B 6393   4.638  10.316   8.036
   72POPC   C4B 6394   4.757  10.249   7.628
   73POPC   NC3 6395   5.807   5.589   9.468
   73POPC   PO4 6396   5.695   6.195   9.237
   73POPC   GL1 6397   5.964   5.843   9.037
   73POPC   GL2 6398   6.118   5.478   9.050
   73POPC   C1A 6399   6.143   5.828   8.630
   73POPC   D2A 6400   6.124   5.692   8.212
   73POPC   C3A 6401   6.071   5.993   7.874
   73POPC   C4A 6402   6.225   6.007   7.446
   73POPC   C1B 6403   5.827   5.419   8.691
   73POPC   C2B 6404   5.642   5.513   8.279
   73POPC   C3B 6405   5.729   5.591   7.829
   73POPC   C4B 6406   5.504   5.498   7.440
   74POPC   NC3 6407  41.476  42.802   9.474
   74POPC   PO4 6408  41.696  43.484   9.483
   74POPC   GL1 6409  41.458  43.219   9.201
   74POPC   GL2 6410  41.710  42.940   9.052
   74POPC   C1A 6411  41.247  43.001   8.850
   74POPC   D2A 6412  41.450  42.816   8.498
   74POPC   C3A 6413  41.257  43.012   8.145
   74POPC   C4A 6414  41.438  43.089   7.748
   74POPC   C1B 6415  41.669  43.276   8.743
   74POPC   C2B 6416  41.705  43.228   8.303
   74POPC   C3B 6417  41.896  43.173   7.925
   74POPC   C4B 6418  42.045  43.483   7.682
   75POPC   NC3 6419  11.463  22.043   9.719
   75POPC   PO4 6420  11.029  21.929   9.284
   75POPC   GL1 6421  11.174  22.324   9.220
   75POPC   GL2 6422  11.519  22.255   9.225
   75POPC   C1A 6423  11.251  22.435   8.816
   75POPC   D2A 6424  11.168  22.103   8.532
   75POPC   C3A 6425  11.041  22.236   8.147
   75POPC   C4A 6426  11.277  22.101   7.784
   75POPC   C1B 6427  11.628  22.113   8.763
   75POPC   C2B 6428  11.666  21.849   8.401
   75POPC   C3B 6429  11.738  21.979   7.979
   75POPC   C4B 6430  11.699  22.390   7.782
   76POPC   NC3 6431  23.234  38.980   9.935
   76POPC   PO4 6432  22.939  39.438   9.776
   76POPC   GL1 6433  22.881  39.219   9.363
   76POPC   GL2 6434  22.668  39.398   9.123
   76POPC   C1A 6435  23.054  39.125   8.913
   76POPC   D2A 6436  23.056  39.321   8.479
   76POPC   C3A 6437  23.009  39.227   8.014
   76POPC   C4A 6438  22.901  39.559   7.734
   76POPC   C1B 6439  22.578  39.137   8.736
   76POPC   C2B 6440  22.713  38.949   8.344
   76POPC   C3B 6441  22.552  38.986   7.919
   76POPC   C4B 6442  22.673  39.153   7.527
   77POPC   NC3 6443  10.827  36.169   9.532
   77POPC   PO4 6444  11.475  35.924   9.648
   77POPC   GL1 6445  11.278  35.946   9.204
   77POPC   GL2 6446  11.044  36.245   9.094
   77POPC   C1A 6447  11.290  35.952   8.741
   77POPC   D2A 6448  11.509  36.187   8.409
   77POPC   C3A 6449  11.373  36.004   8.030
   77POPC   C4A 6450  11.120  35.769   7.757
   77POPC   C1B 6451  11.346  36.445   8.847
   77POPC   C2B 6452  11.238  36.644   8.485
   77POPC   C3B 6453  11.160  36.583   8.088
   77POPC   C4B 6454  11.350  36.424   7.740
   78POPC   NC3 6455  31.533  18.596   9.658
   78POPC   PO4 6456  31.801  18.013   9.489
   78POPC   GL1 6457  31.803  18.337   9.166
   78POPC   GL2 6458  31.474  18.270   9.117
   78POPC   C1A 6459  31.745  18.305   8.677
   78POPC   D2A 6460  31.465  18.325   8.293
   78POPC   C3A 6461  31.593  18.260   7.863
   78POPC   C4A 6462  31.720  18.568   7.473
   78POPC   C1B 6463  31.253  18.120   8.742
   78POPC   C2B 6464  30.974  18.240   8.409
   78POPC   C3B 6465  30.938  18.517   8.113
   78POPC   C4B 6466  31.265  18.679   7.861
   79POPC   NC3 6467  42.767  31.383   9.560
   79POPC   PO4 6468  42.115  31.465   9.902
   79POPC   GL1 6469  42.168  31.534   9.421
   79POPC   GL2 6470  42.071  31.236   9.220
   79POPC   C1A 6471  42.418  31.582   9.019
   79POPC   D2A 6472  42.629  31.530   8.589
   79POPC   C3A 6473  42.396  31.612   8.182
   79POPC   C4A 6474  42.383  31.460   7.756
   79POPC   C1B 6475  42.302  31.159   8.794
   79POPC   C2B 6476  42.166  31.201   8.407
   79POPC   C3B 6477  42.181  31.063   7.993
   79POPC   C4B 6478  41.947  31.216   7.670
   80POPC   NC3 6479  25.677  32.349   9.579
   80POPC   PO4 6480  26.298  32.572   9.483
   80POPC   GL1 6481  26.110  32.320   9.191
   80POPC   GL2 6482  25.860  32.593   9.185
   80POPC   C1A 6483  26.150  32.036   8.813
   80POPC   D2A 6484  26.357  32.003   8.408
   80POPC   C3A 6485  26.169  31.851   8.026
   80POPC   C4A 6486  25.790  31.989   7.777
   80POPC   C1B 6487  25.786  32.382   8.807
   80POPC   C2B 6488  25.992  32.441   8.422
   80POPC   C3B 6489  26.079  32.347   7.993
   80POPC   C4B 6490  25.902  32.557   7.653
   81POPC   NC3 6491  13.690  16.367   9.472
   81POPC   PO4 6492  13.629  15.690   9.569
   81POPC   GL1 6493  13.715  15.865   9.187
   81POPC   GL2 6494  14.015  15.676   9.074
   81POPC   C1A 6495  13.450  15.960   8.800
   81POPC   D2A 6496  13.388  16.244   8.432
   81POPC   C3A 6497  13.430  16.107   7.992
   81POPC   C4A 6498  13.340  16.152   7.536
   81POPC   C1B 6499  13.964  15.999   8.763
   81POPC   C2B 6500  13.787  15.876   8.392
   81POPC   C3B 6501  13.972  15.886   7.983
   81POPC   C4B 6502  13.965  15.796   7.538
   82POPC   NC3 6503  10.747  11.780   9.949
   82POPC   PO4 6504  10.394  11.405   9.507
   82POPC   GL1 6505  10.579  11.285   9.129
   82POPC   GL2 6506  10.693  11.519   8.946
   82POPC   C1A 6507  10.641  11.072   8.713
   82POPC   D2A 6508  10.527  10.765   8.406
   82POPC   C3A 6509  10.395  10.889   7.998
   82POPC   C4A 6510  10.273  11.279   7.814
   82POPC   C1B 6511  10.297  11.500   8.706
   82POPC   C2B 6512  10.351  11.399   8.310
   82POPC   C3B 6513  10.692  11.347   8.105
   82POPC   C4B 6514  10.884  11.346   7.737
   83POPC   NC3 6515  42.148  23.447   9.465
   83POPC   PO4 6516  42.395  24.050   9.271
   83POPC   GL1 6517  42.343  23.865   8.925
   83POPC   GL2 6518  42.089  23.688   9.032
   83POPC   C1A 6519  42.544  23.547   8.695
   83POPC   D2A 6520  42.823  23.426   8.360
   83POPC   C3A 6521  42.631  23.503   7.968
   83POPC   C4A 6522  42.360  23.814   7.817
   83POPC   C1B 6523  42.036  23.570   8.643
   83POPC   C2B 6524  42.221  23.674   8.287
   83POPC   C3B 6525  42.101  23.412   7.977
   83POPC   C4B 6526  42.275  23.268   7.619
   84POPC   NC3 6527   8.558  17.192   9.484
   84POPC   PO4 6528   7.958  17.119   9.364
   84POPC   GL1 6529   7.995  16.850   9.028
   84POPC   GL2 6530   8.245  16.651   9.247
   84POPC   C1A 6531   8.044  16.886   8.568
   84POPC   D2A 6532   8.392  17.027   8.275
   84POPC   C3A 6533   8.335  16.923   7.830
   84POPC   C4A 6534   8.069  16.858   7.481
   84POPC   C1B 6535   8.269  16.429   8.866
   84POPC   C2B 6536   8.427  16.551   8.479
   84POPC   C3B 6537   8.402  16.477   8.072
   84POPC   C4B 6538   8.303  16.403   7.656
   85POPC   NC3 6539  41.724  36.953   9.682
   85POPC   PO4 6540  41.196  36.856   9.705
   85POPC   GL1 6541  41.386  36.682   9.333
   85POPC   GL2 6542  41.588  36.948   9.164
   85POPC   C1A 6543  41.408  36.585   8.859
   85POPC   D2A 6544  41.248  36.765   8.458
   85POPC   C3A 6545  41.295  36.666   8.012
   85POPC   C4A 6546  41.335  36.957   7.661
   85POPC   C1B 6547  41.653  37.016   8.678
   85POPC   C2B 6548  41.699  36.944   8.198
   85POPC   C3B 6549  41.838  37.079   7.776
   85POPC   C4B 6550  42.210  37.051   7.496
   86POPC   NC3 6551  11.020  12.673   9.658
   86POPC   PO4 6552  11.411  13.109   9.419
   86POPC   GL1 6553  11.195  12.820   9.182
   86POPC   GL2 6554  10.899  12.941   9.092
   86POPC   C1A 6555  11.255  12.755   8.742
   86POPC   D2A 6556  11.496  12.892   8.390
   86POPC   C3A 6557  11.280  12.735   8.036
   86POPC   C4A 6558  11.095  12.327   7.903
   86POPC   C1B 6559  10.997  13.214   8.777
   86POPC   C2B 6560  11.122  13.255   8.354
   86POPC   C3B 6561  10.948  13.165   7.962
   86POPC   C4B 6562  10.971  12.837   7.641
   87POPC   NC3 6563  12.383   1.491   9.493
   87POPC   PO4 6564  11.645   1.403   9.398
   87POPC   GL1 6565  11.789   1.088   9.109
   87POPC   GL2 6566  12.162   1.084   9.123
   87POPC   C1A 6567  11.852   1.160   8.667
   87POPC   D2A 6568  12.134   1.435   8.496
   87POPC   C3A 6569  12.147   1.485   8.048
   87POPC   C4A 6570  12.010   1.682   7.689
   87POPC   C1B 6571  12.333   1.018   8.695
   87POPC   C2B 6572  12.159   0.999   8.258
   87POPC   C3B 6573  12.130   0.981   7.786
   87POPC   C4B 6574  12.401   0.809   7.427
   88POPC   NC3 6575  34.425   5.145   9.592
   88POPC   PO4 6576  34.907   4.884   9.181
   88POPC   GL1 6577  34.523   5.050   9.064
   88POPC   GL2 6578  34.624   5.372   9.167
   88POPC   C1A 6579  34.245   5.141   8.684
   88POPC   D2A 6580  34.266   5.042   8.225
   88POPC   C3A 6581  34.666   4.860   8.040
   88POPC   C4A 6582  34.655   4.883   7.582
   88POPC   C1B 6583  34.810   5.420   8.759
   88POPC   C2B 6584  34.576   5.436   8.365
   88POPC   C3B 6585  34.584   5.342   7.925
   88POPC   C4B 6586  34.956   5.291   7.704
   89POPC   NC3 6587   9.108  12.070   9.467
   89POPC   PO4 6588   8.594  12.470   9.387
   89POPC   GL1 6589   8.813  12.217   9.062
   89POPC   GL2 6590   9.209  12.257   9.019
   89POPC   C1A 6591   8.987  11.873   8.786
   89POPC   D2A 6592   9.152  11.977   8.376
   89POPC   C3A 6593   8.889  11.934   8.037
   89POPC   C4A 6594   9.156  11.902   7.663
   89POPC   C1B 6595   9.090  12.397   8.660
   89POPC   C2B 6596   8.837  12.407   8.338
   89POPC   C3B 6597   9.050  12.396   7.973
   89POPC   C4B 6598   8.837  12.311   7.611
   90POPC   NC3 6599   5.920  17.027   9.900
   90POPC   PO4 6600   5.703  17.520   9.534
   90POPC   GL1 6601   5.675  17.559   9.155
   90POPC   GL2 6602   5.432  17.299   9.161
   90POPC   C1A 6603   5.955  17.665   8.810
   90POPC   D2A 6604   6.035  17.762   8.373
   90POPC   C3A 6605   5.897  17.463   8.034
   90POPC   C4A 6606   5.835  17.569   7.589
   90POPC   C1B 6607   5.613  17.280   8.759
   90POPC   C2B 6608   5.517  17.444   8.405
   90POPC   C3B 6609   5.419  17.268   8.052
   90POPC   C4B 6610   5.584  17.123   7.676
   91POPC   NC3 6611  14.293  13.991   9.516
   91POPC   PO4 6612  14.688  14.543   9.612
   91POPC   GL1 6613  14.532  14.332   9.220
   91POPC   GL2 6614  14.225  14.420   9.050
   91POPC   C1A 6615  14.675  14.156   8.848
   91POPC   D2A 6616  14.754  14.370   8.446
   91POPC   C3A 6617  14.344  14.380   8.231
   91POPC   C4A 6618  14.263  14.336   7.783
   91POPC   C1B 6619  14.480  14.671   8.780
   91POPC   C2B 6620  14.570  14.862   8.395
   91POPC   C3B 6621  14.521  14.757   7.943
   91POPC   C4B 6622  14.383  14.764   7.487
   92POPC   NC3 6623  14.248  32.537   9.703
   92POPC   PO4 6624  14.552  33.180   9.554
   92POPC   GL1 6625  14.357  33.156   9.160
   92POPC   GL2 6626  14.110  32.868   9.135
   92POPC   C1A 6627  14.404  33.085   8.714
   92POPC   D2A 6628  14.696  33.028   8.377
   92POPC   C3A 6629  14.509  33.019   7.956
   92POPC   C4A 6630  14.416  32.904   7.528
   92POPC   C1B 6631  14.092  32.677   8.719
   92POPC   C2B 6632  14.213  32.740   8.281
   92POPC   C3B 6633  14.039  32.806   7.857
   92POPC   C4B 6634  14.066  32.508   7.476
   93POPC   NC3 6635  31.937  42.995   9.984
   93POPC   PO4 6636  31.394  43.251   9.674
   93POPC   GL1 6637  31.366  43.174   9.235
   93POPC   GL2 6638  31.615  43.347   9.089
   93POPC   C1A 6639  31.387  43.018   8.785
   93POPC   D2A 6640  31.441  43.199   8.383
   93POPC   C3A 6641  31.517  43.011   7.996
   93POPC   C4A 6642  31.364  42.928   7.594
   93POPC   C1B 6643  31.472  43.559   8.756
   93POPC   C2B 6644  31.509  43.735   8.372
   93POPC   C3B 6645  31.493  43.558   8.001
   93POPC   C4B 6646  31.619  43.404   7.653
   94POPC   NC3 6647   6.658  11.588   9.663
   94POPC   PO4 6648   6.956  12.260   9.549
   94POPC   GL1 6649   6.861  12.397   9.187
   94POPC   GL2 6650   6.671  12.079   9.130
   94POPC   C1A 6651   6.973  12.403   8.794
   94POPC   D2A 6652   6.941  12.007   8.543
   94POPC   C3A 6653   6.975  12.103   8.111
   94POPC   C4A 6654   7.004  12.254   7.707
   94POPC   C1B 6655   6.513  12.191   8.740
   94POPC   C2B 6656   6.483  12.065   8.298
   94POPC   C3B 6657   6.517  12.143   7.838
   94POPC   C4B 6658   6.511  12.316   7.406
   95POPC   NC3 6659   4.484   3.698   9.706
   95POPC   PO4 6660   4.333   3.086   9.561
   95POPC   GL1 6661   4.419   3.382   9.217
   95POPC   GL2 6662   4.180   3.688   9.258
   95POPC   C1A 6663   4.541   3.436   8.762
   95POPC   D2A 6664   4.287   3.431   8.363
   95POPC   C3A 6665   4.536   3.485   7.994
   95POPC   C4A 6666   4.573   3.582   7.573
   95POPC   C1B 6667   4.047   3.614   8.812
   95POPC   C2B 6668   3.953   3.808   8.374
   95POPC   C3B 6669   4.218   3.892   7.958
   95POPC   C4B 6670   4.248   3.939   7.454
   96POPC   NC3 6671  34.543  10.724   9.480
   96POPC   PO4 6672  34.651  10.086   9.260
   96POPC   GL1 6673  34.666  10.423   9.015
   96POPC   GL2 6674  34.801  10.790   9.073
   96POPC   C1A 6675  34.445  10.340   8.623
   96POPC   D2A 6676  34.371  10.586   8.255
   96POPC   C3A 6677  34.671  10.397   7.990
   96POPC   C4A 6678  34.433  10.086   7.835
   96POPC   C1B 6679  34.649  10.800   8.684
   96POPC   C2B 6680  34.829  10.777   8.332
   96POPC   C3B 6681  34.665  10.914   7.965
   96POPC   C4B 6682  34.766  10.788   7.577
   97POPC   NC3 6683  36.126  11.004   9.555
   97POPC   PO4 6684  36.342  11.612   9.417
   97POPC   GL1 6685  36.156  11.319   9.153
   97POPC   GL2 6686  36.469  11.112   9.188
   97POPC   C1A 6687  35.883  11.269   8.778
   97POPC   D2A 6688  35.649  11.338   8.400
   97POPC   C3A 6689  35.905  11.297   8.049
   97POPC   C4A 6690  35.853  11.535   7.662
   97POPC   C1B 6691  36.504  11.363   8.808
   97POPC   C2B 6692  36.295  11.252   8.446
   97POPC   C3B 6693  36.438  11.120   8.087
   97POPC   C4B 6694  36.336  11.304   7.713
   98POPC   NC3 6695  14.455   0.496   9.557
   98POPC   PO4 6696  13.848   0.740   9.447
   98POPC   GL1 6697  14.180   0.656   9.105
   98POPC   GL2 6698  14.403   0.370   9.059
   98POPC   C1A 6699  14.188   0.563   8.635
   98POPC   D2A 6700  14.108   0.841   8.270
   98POPC   C3A 6701  14.309   0.686   7.906
   98POPC   C4A 6702  14.477   0.405   7.616
   98POPC   C1B 6703  14.620   0.267   8.631
   98POPC   C2B 6704  14.560   0.286   8.165
   98POPC   C3B 6705  14.894   0.228   7.838
   98POPC   C4B 6706  14.950   0.346   7.395
   99POPC   NC3 6707   6.188  40.296   9.489
   99POPC   PO4 6708   5.503  40.174   9.601
   99POPC   GL1 6709   5.694  40.138   9.158
   99POPC   GL2 6710   6.028  39.957   9.116
   99POPC   C1A 6711   5.911  40.298   8.775
   99POPC   D2A 6712   6.191  40.160   8.450
   99POPC   C3A 6713   5.932  40.167   8.085
   99POPC   C4A 6714   5.869  39.970   7.675
   99POPC   C1B 6715   6.302  39.764   8.801
   99POPC   C2B 6716   6.300  39.648   8.352
   99POPC   C3B 6717   6.286  39.826   7.920
   99POPC   C4B 6718   6.284  39.807   7.438
  100POPC   NC3 6719  28.187   2.906   9.564
  100POPC   PO4 6720  28.804   2.616   9.414
  100POPC   GL1 6721  28.459   2.660   9.182
  100POPC   GL2 6722  28.445   3.044   9.155
  100POPC   C1A 6723  28.522   2.450   8.786
  100POPC   D2A 6724  28.401   2.261   8.408
  100POPC   C3A 6725  28.515   2.447   8.055
  100POPC   C4A 6726  28.408   2.618   7.706
  100POPC   C1B 6727  28.252   2.897   8.782
  100POPC   C2B 6728  28.429   2.820   8.409
  100POPC   C3B 6729  28.335   2.999   8.034
  100POPC   C4B 6730  28.011   2.912   7.749
  101POPC   NC3 6731  21.227  27.358   9.493
  101POPC   PO4 6732  21.385  27.988   9.470
  101POPC   GL1 6733  21.393  27.704   9.133
  101POPC   GL2 6734  21.037  27.687   9.113
  101POPC   C1A 6735  21.406  27.809   8.706
  101POPC   D2A 6736  21.377  27.560   8.345
  101POPC   C3A 6737  21.167  27.656   8.011
  101POPC   C4A 6738  21.479  27.638   7.726
  101POPC   C1B 6739  21.005  27.498   8.700
  101POPC   C2B 6740  20.823  27.265   8.370
  101POPC   C3B 6741  21.002  27.115   8.050
  101POPC   C4B 6742  21.090  27.300   7.657
  102POPC   NC3 6743  41.480  22.565   9.433
  102POPC   PO4 6744  41.512  21.917   9.501
  102POPC   GL1 6745  41.665  22.166   9.166
  102POPC   GL2 6746  41.923  22.414   9.212
  102POPC   C1A 6747  41.454  22.206   8.781
  102POPC   D2A 6748  41.614  22.130   8.376
  102POPC   C3A 6749  41.420  22.322   8.052
  102POPC   C4A 6750  41.380  22.075   7.703
  102POPC   C1B 6751  41.744  22.623   8.824
  102POPC   C2B 6752  41.683  22.655   8.378
  102POPC   C3B 6753  41.936  22.411   8.087
  102POPC   C4B 6754  41.883  22.265   7.681
  103POPC   NC3 6755  23.456  32.455   9.507
  103POPC   PO4 6756  23.689  31.864   9.502
  103POPC   GL1 6757  23.750  32.129   9.187
  103POPC   GL2 6758  23.409  32.125   9.063
  103POPC   C1A 6759  23.819  32.306   8.801
  103POPC   D2A 6760  23.528  32.282   8.471
  103POPC   C3A 6761  23.716  32.307   8.081
  103POPC   C4A 6762  23.844  32.208   7.660
  103POPC   C1B 6763  23.365  32.559   8.881
  103POPC   C2B 6764  23.369  32.761   8.498
  103POPC   C3B 6765  23.367  32.684   8.097
  103POPC   C4B 6766  23.622  32.658   7.732
  104POPC   NC3 6767  10.727  11.754   9.395
  104POPC   PO4 6768  10.374  12.275   9.459
  104POPC   GL1 6769  10.114  12.050   9.158
  104POPC   GL2 6770  10.250  11.742   9.140
  104POPC   C1A 6771  10.019  11.960   8.708
  104POPC   D2A 6772  10.290  11.921   8.353
  104POPC   C3A 6773  10.310  12.204   8.022
  104POPC   C4A 6774  10.185  12.173   7.622
  104POPC   C1B 6775  10.512  11.963   8.813
  104POPC   C2B 6776  10.746  11.729   8.479
  104POPC   C3B 6777  10.714  11.859   8.047
  104POPC   C4B 6778  10.477  11.731   7.696
  105POPC   NC3 6779  24.421  14.798   9.791
  105POPC   PO4 6780  24.976  14.648   9.535
  105POPC   GL1 6781  24.727  14.637   9.150
  105POPC   GL2 6782  24.404  14.680   9.218
  105POPC   C1A 6783  24.605  14.531   8.709
  105POPC   D2A 6784  24.786  14.589   8.279
  105POPC   C3A 6785  24.638  14.503   7.846
  105POPC   C4A 6786  24.307  14.498   7.518
  105POPC   C1B 6787  24.152  14.749   8.804
  105POPC   C2B 6788  24.241  14.727   8.353
  105POPC   C3B 6789  24.162  14.416   8.009
  105POPC   C4B 6790  23.995  14.099   7.690
  106POPC   NC3 6791  32.409   3.406   9.655
  106POPC   PO4 6792  31.868   3.564   9.743
  106POPC   GL1 6793  32.146   3.653   9.289
  106POPC   GL2 6794  32.495   3.798   9.225
  106POPC   C1A 6795  32.238   3.495   8.860
  106POPC   D2A 6796  32.491   3.451   8.489
  106POPC   C3A 6797  32.268   3.449   8.106
  106POPC   C4A 6798  32.047   3.497   7.713
  106POPC   C1B 6799  32.527   3.920   8.759
  106POPC   C2B 6800  32.563   3.918   8.283
  106POPC   C3B 6801  32.562   3.768   7.863
  106POPC   C4B 6802  32.401   3.742   7.425
  107POPC   NC3 6803  24.715   5.683   9.382
  107POPC   PO4 6804  25.384   5.726   9.607
  107POPC   GL1 6805  25.258   5.641   9.177
  107POPC   GL2 6806  25.588   5.807   9.124
  107POPC   C1A 6807  24.986   5.559   8.773
  107POPC   D2A 6808  24.720   5.775   8.441
  107POPC   C3A 6809  24.876   5.708   7.996
  107POPC   C4A 6810  25.227   5.501   7.870
  107POPC   C1B 6811  25.377   5.909   8.743
  107POPC   C2B 6812  25.235   5.796   8.352
  107POPC   C3B 6813  25.355   5.986   7.998
  107POPC   C4B 6814  25.773   6.204   7.886
  108POPC   NC3 6815   9.574  29.612   9.411
  108POPC   PO4 6816   9.947  29.903   9.780
  108POPC   GL1 6817  10.058  29.799   9.317
  108POPC   GL2 6818   9.783  30.016   9.177
  108POPC   C1A 6819  10.149  29.850   8.842
  108POPC   D2A 6820   9.972  30.203   8.557
  108POPC   C3A 6821   9.866  30.194   8.113
  108POPC   C4A 6822   9.901  29.940   7.738
  108POPC   C1B 6823   9.639  29.865   8.776
  108POPC   C2B 6824   9.450  30.044   8.401
  108POPC   C3B 6825   9.374  30.064   7.964
  108POPC   C4B 6826   9.439  29.911   7.526
  109POPC   NC3 6827  20.975  35.997   9.417
  109POPC   PO4 6828  20.539  36.423   9.548
  109POPC   GL1 6829  20.450  36.120   9.188
  109POPC   GL2 6830  20.750  36.097   8.974
  109POPC   C1A 6831  20.255  36.084   8.758
  109POPC   D2A 6832  20.264  36.110   8.308
  109POPC   C3A 6833  20.550  35.983   8.054
  109POPC   C4A 6834  20.645  36.209   7.710
  109POPC   C1B 6835  20.710  36.168   8.540
  109POPC   C2B 6836  20.971  36.261   8.190
  109POPC   C3B 6837  21.063  36.465   7.839
  109POPC   C4B 6838  21.096  36.233   7.473
  110POPC   NC3 6839  35.422  42.486   9.624
  110POPC   PO4 6840  35.283  41.944   9.580
  110POPC   GL1 6841  35.270  42.235   9.187
  110POPC   GL2 6842  35.396  42.615   9.130
  110POPC   C1A 6843  35.406  42.254   8.753
  110POPC   D2A 6844  35.512  42.076   8.369
  110POPC   C3A 6845  35.285  42.183   7.988
  110POPC   C4A 6846  35.475  42.207   7.580
  110POPC   C1B 6847  35.278  42.737   8.695
  110POPC   C2B 6848  35.434  42.585   8.278
  110POPC   C3B 6849  35.418  42.656   7.821
  110POPC   C4B 6850  35.404  42.670   7.377
  111POPC   NC3 6851   9.803  16.216   9.645
  111POPC   PO4 6852   9.924  15.618   9.639
  111POPC   GL1 6853   9.751  15.882   9.273
  111POPC   GL2 6854   9.534  16.142   9.171
  111POPC   C1A 6855   9.863  15.884   8.849
  111POPC   D2A 6856   9.668  15.871   8.448
  111POPC   C3A 6857   9.901  15.899   8.074
  111POPC   C4A 6858   9.846  15.693   7.677
  111POPC   C1B 6859   9.303  16.088   8.760
  111POPC   C2B 6860   9.189  16.024   8.326
  111POPC   C3B 6861   9.438  16.035   7.947
  111POPC   C4B 6862   9.583  16.138   7.525
  112POPC   NC3 6863  17.964   1.646   9.534
  112POPC   PO4 6864  18.598   1.923   9.423
  112POPC   GL1 6865  18.309   1.971   9.062
  112POPC   GL2 6866  18.072   1.709   9.030
  112POPC   C1A 6867  18.325   2.108   8.639
  112POPC   D2A 6868  18.558   1.887   8.300
  112POPC   C3A 6869  18.372   1.948   7.893
  112POPC   C4A 6870  18.417   1.879   7.453
  112POPC   C1B 6871  18.117   1.656   8.556
  112POPC   C2B 6872  17.977   1.716   8.142
  112POPC   C3B 6873  18.011   1.645   7.703
  112POPC   C4B 6874  17.858   1.748   7.269
  113POPC   NC3 6875   6.574  16.443   9.459
  113POPC   PO4 6876   6.288  17.072   9.602
  113POPC   GL1 6877   6.370  16.839   9.209
  113POPC   GL2 6878   6.674  16.897   9.072
  113POPC   C1A 6879   6.441  16.495   8.848
  113POPC   D2A 6880   6.452  16.370   8.418
  113POPC   C3A 6881   6.669  16.564   8.068
  113POPC   C4A 6882   6.563  16.967   7.877
  113POPC   C1B 6883   6.874  16.721   8.687
  113POPC   C2B 6884   6.965  16.926   8.301
  113POPC   C3B 6885   7.058  16.878   7.883
  113POPC   C4B 6886   6.868  16.616   7.563
  114POPC   NC3 6887  12.637  14.864   9.576
  114POPC   PO4 6888  13.151  15.234   9.465
  114POPC   GL1 6889  12.971  15.038   9.115
  114POPC   GL2 6890  12.676  14.834   9.076
  114POPC   C1A 6891  13.007  14.972   8.688
  114POPC   D2A 6892  13.244  15.096   8.324
  114POPC   C3A 6893  13.128  15.340   7.978
  114POPC   C4A 6894  12.903  15.298   7.570
  114POPC   C1B 6895  12.490  14.975   8.679
  114POPC   C2B 6896  12.710  15.136   8.310
  114POPC   C3B 6897  12.850  14.942   7.960
  114POPC   C4B 6898  12.663  14.846   7.601
  115POPC   NC3 6899  39.453  41.131   9.510
  115POPC   PO4 6900  39.030  41.765   9.436
  115POPC   GL1 6901  39.270  41.671   9.073
  115POPC   GL2 6902  39.525  41.403   9.088
  115POPC   C1A 6903  38.997  41.598   8.734
  115POPC   D2A 6904  38.806  41.602   8.335
  115POPC   C3A 6905  39.178  41.600   8.142
  115POPC   C4A 6906  39.392  41.622   7.799
  115POPC   C1B 6907  39.404  41.280   8.683
  115POPC   C2B 6908  39.060  41.155   8.462
  115POPC   C3B 6909  38.971  41.135   8.078
  115POPC   C4B 6910  39.269  41.134   7.736
  116POPC   NC3 6911  30.309   4.255   9.598
  116POPC   PO4 6912  29.703   4.565   9.422
  116POPC   GL1 6913  29.728   4.252   9.107
  116POPC   GL2 6914  30.048   4.102   9.124
  116POPC   C1A 6915  29.637   4.281   8.694
  116POPC   D2A 6916  29.775   4.477   8.341
  116POPC   C3A 6917  29.512   4.434   8.012
  116POPC   C4A 6918  29.744   4.487   7.644
  116POPC   C1B 6919  30.149   4.329   8.766
  116POPC   C2B 6920  30.413   4.331   8.404
  116POPC   C3B 6921  30.225   4.414   8.001
  116POPC   C4B 6922  30.215   4.212   7.593
  117POPC   NC3 6923   1.644  22.271   9.375
  117POPC   PO4 6924   0.976  22.181   9.609
  117POPC   GL1 6925   1.181  22.095   9.163
  117POPC   GL2 6926   1.509  21.988   8.963
  117POPC   C1A 6927   1.160  22.207   8.691
  117POPC   D2A 6928   1.314  22.211   8.275
  117POPC   C3A 6929   1.017  21.980   8.051
  117POPC   C4A 6930   0.840  21.944   7.629
  117POPC   C1B 6931   1.646  22.355   8.702
  117POPC   C2B 6932   1.756  22.494   8.290
  117POPC   C3B 6933   1.537  22.530   7.908
  117POPC   C4B 6934   1.309  22.200   7.704
  118POPC   NC3 6935   0.585  27.571   9.365
  118POPC   PO4 6936  44.990  27.863   9.488
  118POPC   GL1 6937   0.150  27.686   9.107
  118POPC   GL2 6938   0.180  27.317   9.186
  118POPC   C1A 6939   0.371  27.524   8.746
  118POPC   D2A 6940   0.641  27.640   8.430
  118POPC   C3A 6941   0.526  27.591   8.050
  118POPC   C4A 6942   0.758  27.651   7.684
  118POPC   C1B 6943   0.197  27.012   8.853
  118POPC   C2B 6944   0.273  27.134   8.429
  118POPC   C3B 6945   0.381  27.090   8.032
  118POPC   C4B 6946   0.338  27.306   7.691
  119POPC   NC3 6947  10.375  15.852   9.678
  119POPC   PO4 6948  10.882  16.117   9.311
  119POPC   GL1 6949  10.424  16.093   9.201
  119POPC   GL2 6950  10.237  15.757   9.212
  119POPC   C1A 6951  10.298  16.200   8.776
  119POPC   D2A 6952  10.536  16.374   8.402
  119POPC   C3A 6953  10.314  16.205   8.054
  119POPC   C4A 6954  10.304  15.935   7.700
  119POPC   C1B 6955  10.390  15.699   8.834
  119POPC   C2B 6956  10.156  15.665   8.472
  119POPC   C3B 6957  10.285  15.564   8.075
  119POPC   C4B 6958  10.467  15.416   7.721
  120POPC   NC3 6959  36.001   5.060   9.460
  120POPC   PO4 6960  36.656   5.308   9.549
  120POPC   GL1 6961  36.383   5.316   9.235
  120POPC   GL2 6962  36.462   4.988   9.137
  120POPC   C1A 6963  36.176   5.460   8.905
  120POPC   D2A 6964  35.928   5.359   8.597
  120POPC   C3A 6965  36.178   5.209   8.268
  120POPC   C4A 6966  36.231   5.255   7.826
  120POPC   C1B 6967  36.233   4.960   8.759
  120POPC   C2B 6968  36.156   4.672   8.426
  120POPC   C3B 6969  36.265   4.745   8.026
  120POPC   C4B 6970  35.972   4.768   7.722
  121POPC   NC3 6971  42.462   3.701   9.457
  121POPC   PO4 6972  42.029   3.135   9.449
  121POPC   GL1 6973  42.337   3.329   9.149
  121POPC   GL2 6974  42.600   3.137   8.995
  121POPC   C1A 6975  42.525   3.605   8.812
  121POPC   D2A 6976  42.221   3.673   8.501
  121POPC   C3A 6977  42.359   3.815   8.112
  121POPC   C4A 6978  42.473   3.736   7.748
  121POPC   C1B 6979  42.262   3.182   8.683
  121POPC   C2B 6980  42.235   3.120   8.259
  121POPC   C3B 6981  42.298   3.294   7.881
  121POPC   C4B 6982  42.076   3.488   7.546
  122POPC   NC3 6983   7.772  43.815   9.353
  122POPC   PO4 6984   7.193  44.045   9.507
  122POPC   GL1 6985   7.314  43.906   9.125
  122POPC   GL2 6986   6.992  43.885   9.046
  122POPC   C1A 6987   7.354  43.745   8.703
  122POPC   D2A 6988   7.544  43.732   8.302
  122POPC   C3A 6989   7.314  43.860   7.936
  122POPC   C4A 6990   7.456  44.101   7.572
  122POPC   C1B 6991   7.092  44.241   8.784
  122POPC   C2B 6992   7.160  44.138   8.356
  122POPC   C3B 6993   7.307  44.381   7.988
  122POPC   C4B 6994   7.142  44.478   7.584
  123POPC   NC3 6995   1.403  32.238   9.447
  123POPC   PO4 6996   0.820  32.516   9.310
  123POPC   GL1 6997   1.057  32.220   9.054
  123POPC   GL2 6998   1.394  32.065   8.990
  123POPC   C1A 6999   1.119  32.239   8.614
  123POPC   D2A 7000   1.169  32.494   8.316
  123POPC   C3A 7001   1.027  32.300   7.987
  123POPC   C4A 7002   1.010  32.206   7.583
  123POPC   C1B 7003   1.563  32.421   8.793
  123POPC   C2B 7004   1.681  32.412   8.348
  123POPC   C3B 7005   1.522  32.250   7.985
  123POPC   C4B 7006   1.492  32.395   7.543
  124POPC   NC3 7007  37.234   7.244   9.423
  124POPC   PO4 7008  37.814   7.595   9.533
  124POPC   GL1 7009  37.649   7.584   9.141
  124POPC   GL2 7010  38.008   7.545   9.079
  124POPC   C1A 7011  37.407   7.452   8.780
  124POPC   D2A 7012  37.321   7.227   8.416
  124POPC   C3A 7013  37.389   7.457   8.031
  124POPC   C4A 7014  37.475   7.189   7.672
  124POPC   C1B 7015  37.912   7.340   8.750
  124POPC   C2B 7016  37.778   7.461   8.387
  124POPC   C3B 7017  37.864   7.279   8.016
  124POPC   C4B 7018  37.950   7.462   7.641
  125POPC   NC3 7019  17.079  30.188   9.335
  125POPC   PO4 7020  17.655  29.709   9.381
  125POPC   GL1 7021  17.383  29.843   9.094
  125POPC   GL2 7022  17.544  30.162   9.087
  125POPC   C1A 7023  17.409  29.791   8.653
  125POPC   D2A 7024  17.326  29.576   8.282
  125POPC   C3A 7025  17.286  29.772   7.887
  125POPC   C4A 7026  17.707  29.956   7.803
  125POPC   C1B 7027  17.327  30.270   8.734
  125POPC   C2B 7028  17.264  30.170   8.317
  125POPC   C3B 7029  17.325  30.277   7.895
  125POPC   C4B 7030  17.354  30.237   7.465
  126POPC   NC3 7031  32.072  30.534   9.511
  126POPC   PO4 7032  32.416  31.079   9.403
  126POPC   GL1 7033  32.568  30.769   9.144
  126POPC   GL2 7034  32.399  30.442   9.138
  126POPC   C1A 7035  32.509  30.742   8.718
  126POPC   D2A 7036  32.165  30.791   8.452
  126POPC   C3A 7037  32.290  30.718   8.040
  126POPC   C4A 7038  32.082  30.843   7.666
  126POPC   C1B 7039  32.187  30.357   8.752
  126POPC   C2B 7040  32.325  30.269   8.340
  126POPC   C3B 7041  32.076  30.231   7.947
  126POPC   C4B 7042  31.876  30.375   7.567
  127POPC   NC3 7043  10.885  43.602   9.535
  127POPC   PO4 7044  10.432  43.041   9.629
  127POPC   GL1 7045  10.336  43.065   9.226
  127POPC   GL2 7046  10.455  43.401   9.239
  127POPC   C1A 7047  10.545  42.918   8.849
  127POPC   D2A 7048  10.760  43.035   8.481
  127POPC   C3A 7049  10.551  42.871   8.099
  127POPC   C4A 7050  10.527  42.984   7.647
  127POPC   C1B 7051  10.754  43.401   8.897
  127POPC   C2B 7052  10.654  43.548   8.497
  127POPC   C3B 7053  10.723  43.370   8.083
  127POPC   C4B 7054  10.595  43.470   7.700
  128POPC   NC3 7055  30.104  10.060   9.578
  128POPC   PO4 7056  30.046   9.421   9.543
  128POPC   GL1 7057  30.212   9.471   9.165
  128POPC   GL2 7058  30.375   9.755   9.258
  128POPC   C1A 7059  30.027   9.570   8.771
  128POPC   D2A 7060  29.913   9.774   8.393
  128POPC   C3A 7061  29.879   9.531   8.026
  128POPC   C4A 7062  29.730   9.621   7.576
  128POPC   C1B 7063  30.396   9.941   8.865
  128POPC   C2B 7064  30.444   9.981   8.423
  128POPC   C3B 7065  30.264   9.902   8.028
  128POPC   C4B 7066  30.209   9.888   7.583
  129POPC   NC3 7067   1.387  18.323   9.597
  129POPC   PO4 7068   0.917  17.910   9.418
  129POPC   GL1 7069   1.130  18.200   9.166
  129POPC   GL2 7070   1.456  18.024   9.195
  129POPC   C1A 7071   1.429  18.324   8.795
  129POPC   D2A 7072   1.593  18.595   8.506
  129POPC   C3A 7073   1.433  18.463   8.106
  129POPC   C4A 7074   1.261  18.416   7.694
  129POPC   C1B 7075   1.225  17.857   8.797
  129POPC   C2B 7076   1.207  18.087   8.395
  129POPC   C3B 7077   1.113  18.003   7.959
  129POPC   C4B 7078   1.295  17.911   7.533
  130POPC   NC3 7079  12.286  38.079   9.491
  130POPC   PO4 7080  11.615  38.236   9.438
  130POPC   GL1 7081  11.918  38.253   9.156
  130POPC   GL2 7082  12.089  38.524   9.251
  130POPC   C1A 7083  12.037  38.067   8.771
  130POPC   D2A 7084  11.922  37.940   8.369
  130POPC   C3A 7085  11.923  38.273   8.082
  130POPC   C4A 7086  12.081  38.328   7.662
  130POPC   C1B 7087  12.181  38.534   8.804
  130POPC   C2B 7088  12.091  38.713   8.417
  130POPC   C3B 7089  12.290  38.637   8.027
  130POPC   C4B 7090  12.481  38.622   7.629
  131POPC   NC3 7091  38.358  33.298   9.358
  131POPC   PO4 7092  38.698  33.703   9.697
  131POPC   GL1 7093  38.717  33.651   9.217
  131POPC   GL2 7094  38.389  33.669   9.021
  131POPC   C1A 7095  38.782  33.541   8.752
  131POPC   D2A 7096  38.508  33.707   8.420
  131POPC   C3A 7097  38.601  33.765   7.972
  131POPC   C4A 7098  38.272  33.700   7.695
  131POPC   C1B 7099  38.428  34.079   8.862
  131POPC   C2B 7100  38.308  34.175   8.451
  131POPC   C3B 7101  38.123  33.998   8.099
  131POPC   C4B 7102  38.201  34.203   7.696
  132POPC   NC3 7103  31.939  43.364   9.460
  132POPC   PO4 7104  32.313  42.875   9.748
  132POPC   GL1 7105  32.351  43.110   9.295
  132POPC   GL2 7106  32.039  43.029   9.089
  132POPC   C1A 7107  32.410  43.231   8.801
  132POPC   D2A 7108  32.331  43.115   8.329
  132POPC   C3A 7109  32.600  43.170   7.925
  132POPC   C4A 7110  32.933  43.130   7.595
  132POPC   C1B 7111  31.885  43.217   8.690
  132POPC   C2B 7112  31.897  43.395   8.296
  132POPC   C3B 7113  31.993  43.171   7.937
  132POPC   C4B 7114  32.239  42.827   7.775
  133POPC   NC3 7115  39.627  36.445   9.451
  133POPC   PO4 7116  39.044  36.113   9.623
  133POPC   GL1 7117  39.210  36.045   9.199
  133POPC   GL2 7118  39.258  36.370   9.137
  133POPC   C1A 7119  38.991  36.093   8.822
  133POPC   D2A 7120  39.016  36.307   8.448
  133POPC   C3A 7121  38.964  36.126   8.072
  133POPC   C4A 7122  39.069  36.017   7.688
  133POPC   C1B 7123  39.414  36.422   8.745
  133POPC   C2B 7124  39.429  36.555   8.304
  133POPC   C3B 7125  39.400  36.363   7.898
  133POPC   C4B 7126  39.423  36.335   7.417
  134POPC   NC3 7127  16.617  30.325   9.681
  134POPC   PO4 7128  16.725  30.895   9.502
  134POPC   GL1 7129  16.737  30.577   9.188
  134POPC   GL2 7130  17.057  30.620   9.014
  134POPC   C1A 7131  16.558  30.621   8.771
  134POPC   D2A 7132  16.579  30.814   8.362
  134POPC   C3A 7133  16.503  30.526   8.017
  134POPC   C4A 7134  16.407  30.610   7.672
  134POPC   C1B 7135  17.025  30.616   8.551
  134POPC   C2B 7136  16.981  30.578   8.119
  134POPC   C3B 7137  16.844  30.873   7.825
  134POPC   C4B 7138  16.997  31.131   7.449
  135POPC   NC3 7139  39.763  23.974   9.528
  135POPC   PO4 7140  39.539  23.423   9.254
  135POPC   GL1 7141  39.952  23.669   9.141
  135POPC   GL2 7142  40.198  23.479   8.950
  135POPC   C1A 7143  40.168  23.927   8.762
  135POPC   D2A 7144  40.273  23.698   8.387
  135POPC   C3A 7145  40.000  23.726   8.056
  135POPC   C4A 7146  39.991  24.024   7.710
  135POPC   C1B 7147  39.834  23.544   8.665
  135POPC   C2B 7148  39.918  23.234   8.421
  135POPC   C3B 7149  40.224  23.163   8.199
  135POPC   C4B 7150  40.320  23.376   7.855
  136POPC   NC3 7151   6.126   1.721   9.413
  136POPC   PO4 7152   5.672   1.238   9.458
  136POPC   GL1 7153   5.572   1.474   9.067
  136POPC   GL2 7154   5.819   1.678   9.027
  136POPC   C1A 7155   5.644   1.433   8.619
  136POPC   D2A 7156   5.931   1.136   8.413
  136POPC   C3A 7157   5.737   1.018   8.050
  136POPC   C4A 7158   5.699   1.119   7.650
  136POPC   C1B 7159   6.133   1.498   8.752
  136POPC   C2B 7160   6.182   1.577   8.329
  136POPC   C3B 7161   5.986   1.485   7.914
  136POPC   C4B 7162   5.951   1.649   7.487
  137POPC   NC3 7163  15.529  20.631   9.461
  137POPC   PO4 7164  14.835  20.606   9.590
  137POPC   GL1 7165  15.073  20.627   9.207
  137POPC   GL2 7166  15.223  20.328   9.163
  137POPC   C1A 7167  15.207  20.673   8.782
  137POPC   D2A 7168  15.029  20.535   8.409
  137POPC   C3A 7169  15.038  20.777   8.046
  137POPC   C4A 7170  15.102  20.609   7.626
  137POPC   C1B 7171  15.480  20.232   8.782
  137POPC   C2B 7172  15.420  20.236   8.332
  137POPC   C3B 7173  15.433  20.424   7.944
  137POPC   C4B 7174  15.366  20.198   7.537
  138POPC   NC3 7175  44.657  27.411   9.658
  138POPC   PO4 7176  44.310  27.982   9.716
  138POPC   GL1 7177  44.364  27.612   9.309
  138POPC   GL2 7178  44.678  27.495   9.174
  138POPC   C1A 7179  44.424  27.672   8.790
  138POPC   D2A 7180  44.689  27.716   8.425
  138POPC   C3A 7181  44.483  27.536   8.065
  138POPC   C4A 7182  44.310  27.746   7.725
  138POPC   C1B 7183  44.857  27.383   8.780
  138POPC   C2B 7184  44.785  27.220   8.358
  138POPC   C3B 7185   0.006  27.462   8.075
  138POPC   C4B 7186  44.836  27.574   7.670
  139POPC   NC3 7187  44.623  29.057   9.465
  139POPC   PO4 7188  44.318  29.655   9.474
  139POPC   GL1 7189  44.238  29.324   9.134
  139POPC   GL2 7190  44.358  28.970   9.039
  139POPC   C1A 7191  44.377  29.318   8.677
  139POPC   D2A 7192  44.187  29.134   8.295
  139POPC   C3A 7193  44.417  29.329   7.979
  139POPC   C4A 7194  44.795  29.082   7.942
  139POPC   C1B 7195  44.712  28.855   8.751
  139POPC   C2B 7196  44.884  28.557   8.417
  139POPC   C3B 7197  44.791  28.579   7.958
  139POPC   C4B 7198  44.555  28.786   7.595
  140POPC   NC3 7199   3.195   3.338   9.579
  140POPC   PO4 7200   2.768   3.900   9.605
  140POPC   GL1 7201   2.847   3.772   9.165
  140POPC   GL2 7202   2.849   3.422   9.163
  140POPC   C1A 7203   3.017   3.702   8.716
  140POPC   D2A 7204   2.842   3.902   8.319
  140POPC   C3A 7205   2.900   3.681   7.935
  140POPC   C4A 7206   2.699   3.355   7.745
  140POPC   C1B 7207   2.807   3.247   8.762
  140POPC   C2B 7208   2.825   3.355   8.339
  140POPC   C3B 7209   3.058   3.124   8.038
  140POPC   C4B 7210   3.032   2.947   7.658
  141POPC   NC3 7211  10.703  31.849   9.515
  141POPC   PO4 7212  10.285  31.356   9.531
  141POPC   GL1 7213  10.479  31.510   9.197
  141POPC   GL2 7214  10.285  31.816   9.209
  141POPC   C1A 7215  10.708  31.446   8.810
  141POPC   D2A 7216  10.871  31.291   8.430
  141POPC   C3A 7217  10.693  31.446   8.050
  141POPC   C4A 7218  10.390  31.431   7.739
  141POPC   C1B 7219  10.256  31.716   8.800
  141POPC   C2B 7220  10.516  31.832   8.469
  141POPC   C3B 7221  10.375  31.856   8.071
  141POPC   C4B 7222  10.587  31.894   7.688
  142POPC   NC3 7223  40.243   0.085   9.988
  142POPC   PO4 7224  40.314  44.601   9.556
  142POPC   GL1 7225  40.187  44.724   9.163
  142POPC   GL2 7226  39.859  44.742   9.119
  142POPC   C1A 7227  40.184  44.888   8.737
  142POPC   D2A 7228  40.333  44.987   8.310
  142POPC   C3A 7229  40.117  44.767   7.949
  142POPC   C4A 7230  40.308  44.482   7.602
  142POPC   C1B 7231  39.901  44.455   8.761
  142POPC   C2B 7232  39.876  44.449   8.300
  142POPC   C3B 7233  39.888  44.324   7.875
  142POPC   C4B 7234  39.546  44.385   7.638
  143POPC   NC3 7235   6.079  15.096   9.723
  143POPC   PO4 7236   6.260  14.467   9.526
  143POPC   GL1 7237   6.097  14.448   9.078
  143POPC   GL2 7238   6.068  14.142   8.921
  143POPC   C1A 7239   6.268  14.559   8.685
  143POPC   D2A 7240   6.101  14.516   8.281
  143POPC   C3A 7241   5.933  14.538   7.856
  143POPC   C4A 7242   5.790  14.276   7.493
  143POPC   C1B 7243   5.774  14.327   8.632
  143POPC   C2B 7244   5.582  14.484   8.230
  143POPC   C3B 7245   5.407  14.420   7.808
  143POPC   C4B 7246   5.156  14.068   7.663
  144POPC   NC3 7247  25.626  43.771   9.571
  144POPC   PO4 7248  26.239  43.906   9.694
  144POPC   GL1 7249  26.220  43.978   9.269
  144POPC   GL2 7250  25.868  44.062   9.214
  144POPC   C1A 7251  26.142  43.892   8.834
  144POPC   D2A 7252  25.967  44.231   8.573
  144POPC   C3A 7253  25.978  44.141   8.140
  144POPC   C4A 7254  26.272  44.086   7.830
  144POPC   C1B 7255  25.621  43.948   8.870
  144POPC   C2B 7256  25.474  43.920   8.480
  144POPC   C3B 7257  25.600  43.752   8.076
  144POPC   C4B 7258  25.849  43.830   7.720
  145POPC   NC3 7259  31.634  44.739   9.540
  145POPC   PO4 7260  32.341  44.603   9.567
  145POPC   GL1 7261  32.222  44.575   9.129
  145POPC   GL2 7262  31.855  44.606   9.089
  145POPC   C1A 7263  32.246  44.714   8.700
  145POPC   D2A 7264  32.517  44.813   8.347
  145POPC   C3A 7265  32.517  44.551   7.976
  145POPC   C4A 7266  32.286  44.488   7.544
  145POPC   C1B 7267  31.835  44.995   8.775
  145POPC   C2B 7268  32.004  44.960   8.303
  145POPC   C3B 7269  32.110  44.858   7.854
  145POPC   C4B 7270  31.923  44.817   7.392
  146POPC   NC3 7271  18.610  31.971   9.216
  146POPC   PO4 7272  19.177  32.287   9.456
  146POPC   GL1 7273  19.027  32.357   9.097
  146POPC   GL2 7274  18.685  32.484   9.137
  146POPC   C1A 7275  19.208  32.215   8.732
  146POPC   D2A 7276  19.050  32.159   8.350
  146POPC   C3A 7277  19.250  32.215   8.009
  146POPC   C4A 7278  19.081  31.937   7.738
  146POPC   C1B 7279  18.711  32.394   8.693
  146POPC   C2B 7280  18.595  32.527   8.296
  146POPC   C3B 7281  18.839  32.472   7.924
  146POPC   C4B 7282  18.706  32.251   7.569
  147POPC   NC3 7283   3.386  38.843   9.506
  147POPC   PO4 7284   3.826  39.320   9.618
  147POPC   GL1 7285   3.605  39.215   9.240
  147POPC   GL2 7286   3.762  38.913   9.140
  147POPC   C1A 7287   3.432  39.280   8.817
  147POPC   D2A 7288   3.563  39.255   8.407
  147POPC   C3A 7289   3.475  39.457   8.046
  147POPC   C4A 7290   3.428  39.581   7.654
  147POPC   C1B 7291   3.698  38.842   8.676
  147POPC   C2B 7292   3.735  38.822   8.218
  147POPC   C3B 7293   3.522  38.959   7.872
  147POPC   C4B 7294   3.168  39.170   7.749
  148POPC   NC3 7295   2.531   0.324   9.411
  148POPC   PO4 7296   1.808   0.363   9.381
  148POPC   GL1 7297   2.080   0.500   9.068
  148POPC   GL2 7298   2.319   0.754   9.151
  148POPC   C1A 7299   2.014   0.456   8.633
  148POPC   D2A 7300   2.129   0.435   8.213
  148POPC   C3A 7301   1.800   0.498   7.935
  148POPC   C4A 7302   1.622   0.261   7.583
  148POPC   C1B 7303   2.171   0.922   8.754
  148POPC   C2B 7304   1.897   0.919   8.399
  148POPC   C3B 7305   2.073   0.913   8.011
  148POPC   C4B 7306   2.118   0.678   7.597
  149POPC   NC3 7307  37.306  28.343   9.412
  149POPC   PO4 7308  38.009  28.354   9.479
  149POPC   GL1 7309  37.867  28.475   9.119
  149POPC   GL2 7310  37.577  28.652   9.115
  149POPC   C1A 7311  37.740  28.239   8.812
  149POPC   D2A 7312  37.794  28.151   8.399
  149POPC   C3A 7313  37.600  28.285   7.987
  149POPC   C4A 7314  37.748  28.588   7.736
  149POPC   C1B 7315  37.402  28.596   8.691
  149POPC   C2B 7316  37.547  28.703   8.269
  149POPC   C3B 7317  37.298  28.786   7.898
  149POPC   C4B 7318  37.111  28.409   7.811
  150POPC   NC3 7319  23.831  28.780   9.478
  150POPC   PO4 7320  23.760  28.171   9.709
  150POPC   GL1 7321  23.745  28.277   9.223
  150POPC   GL2 7322  23.651  28.586   9.059
  150POPC   C1A 7323  23.773  28.234   8.741
  150POPC   D2A 7324  23.953  28.511   8.429
  150POPC   C3A 7325  23.740  28.461   8.079
  150POPC   C4A 7326  23.820  28.120   7.802
  150POPC   C1B 7327  23.556  28.762   8.667
  150POPC   C2B 7328  23.506  28.954   8.262
  150POPC   C3B 7329  23.438  28.809   7.837
  150POPC   C4B 7330  23.595  28.476   7.528
  151POPC   NC3 7331  35.921  43.631   9.455
  151POPC   PO4 7332  36.270  44.210   9.385
  151POPC   GL1 7333  36.155  43.866   9.075
  151POPC   GL2 7334  35.876  43.913   8.861
  151POPC   C1A 7335  36.279  43.634   8.687
  151POPC   D2A 7336  36.036  43.811   8.367
  151POPC   C3A 7337  36.135  43.694   7.993
  151POPC   C4A 7338  36.461  43.412   7.862
  151POPC   C1B 7339  36.317  44.137   8.695
  151POPC   C2B 7340  36.658  44.341   8.500
  151POPC   C3B 7341  36.627  44.361   8.062
  151POPC   C4B 7342  36.292  44.139   7.811
  152POPC   NC3 7343  14.238  34.519   9.580
  152POPC   PO4 7344  14.906  34.708   9.579
  152POPC   GL1 7345  14.634  34.558   9.216
  152POPC   GL2 7346  14.251  34.554   9.075
  152POPC   C1A 7347  14.660  34.682   8.800
  152POPC   D2A 7348  14.681  34.471   8.421
  152POPC   C3A 7349  14.501  34.503   8.061
  152POPC   C4A 7350  14.653  34.647   7.656
  152POPC   C1B 7351  14.149  34.545   8.596
  152POPC   C2B 7352  14.046  34.772   8.195
  152POPC   C3B 7353  14.126  34.684   7.769
  152POPC   C4B 7354  14.270  34.476   7.402
  153POPC   NC3 7355  41.971  44.155   9.639
  153POPC   PO4 7356  42.611  44.199   9.770
  153POPC   GL1 7357  42.507  44.085   9.291
  153POPC   GL2 7358  42.426  44.350   8.990
  153POPC   C1A 7359  42.495  43.847   8.882
  153POPC   D2A 7360  42.552  43.610   8.478
  153POPC   C3A 7361  42.322  43.708   8.075
  153POPC   C4A 7362  42.400  43.859   7.651
  153POPC   C1B 7363  42.208  44.206   8.575
  153POPC   C2B 7364  42.219  44.229   8.099
  153POPC   C3B 7365  42.086  44.253   7.672
  153POPC   C4B 7366  41.829  44.363   7.287
  154POPC   NC3 7367   4.860  38.275   9.699
  154POPC   PO4 7368   5.293  38.694   9.459
  154POPC   GL1 7369   5.056  38.499   9.173
  154POPC   GL2 7370   4.748  38.596   9.305
  154POPC   C1A 7371   5.128  38.551   8.731
  154POPC   D2A 7372   5.189  38.670   8.307
  154POPC   C3A 7373   5.117  38.344   8.007
  154POPC   C4A 7374   5.052  38.142   7.579
  154POPC   C1B 7375   4.659  38.690   8.886
  154POPC   C2B 7376   4.675  38.521   8.455
  154POPC   C3B 7377   4.741  38.706   8.044
  154POPC   C4B 7378   4.991  38.644   7.614
  155POPC   NC3 7379  22.273  31.824   9.587
  155POPC   PO4 7380  22.035  32.475   9.579
  155POPC   GL1 7381  22.181  32.388   9.178
  155POPC   GL2 7382  22.288  32.084   9.154
  155POPC   C1A 7383  22.079  32.477   8.745
  155POPC   D2A 7384  22.066  32.276   8.316
  155POPC   C3A 7385  22.485  32.343   8.052
  155POPC   C4A 7386  22.510  32.443   7.605
  155POPC   C1B 7387  22.193  31.947   8.780
  155POPC   C2B 7388  21.983  31.739   8.488
  155POPC   C3B 7389  21.956  31.833   8.071
  155POPC   C4B 7390  22.168  32.078   7.767
  156POPC   NC3 7391  39.320  38.874   9.565
  156POPC   PO4 7392  39.261  38.245   9.576
  156POPC   GL1 7393  39.203  38.515   9.206
  156POPC   GL2 7394  38.936  38.327   9.117
  156POPC   C1A 7395  39.260  38.633   8.751
  156POPC   D2A 7396  39.587  38.723   8.424
  156POPC   C3A 7397  39.472  38.780   7.994
  156POPC   C4A 7398  39.373  38.530   7.649
  156POPC   C1B 7399  38.856  38.366   8.668
  156POPC   C2B 7400  38.899  38.403   8.232
  156POPC   C3B 7401  39.275  38.277   8.064
  156POPC   C4B 7402  39.338  37.907   7.739
  157POPC   NC3 7403  14.905  21.060   9.411
  157POPC   PO4 7404  15.231  21.654   9.455
  157POPC   GL1 7405  15.135  21.424   9.103
  157POPC   GL2 7406  15.318  21.102   9.089
  157POPC   C1A 7407  14.913  21.543   8.754
  157POPC   D2A 7408  15.096  21.619   8.394
  157POPC   C3A 7409  14.877  21.420   8.063
  157POPC   C4A 7410  14.999  21.626   7.703
  157POPC   C1B 7411  15.253  21.155   8.622
  157POPC   C2B 7412  15.485  20.990   8.240
  157POPC   C3B 7413  15.479  20.939   7.813
  157POPC   C4B 7414  15.081  21.125   7.655
  158POPC   NC3 7415  32.317  11.464   9.402
  158POPC   PO4 7416  31.923  10.999   9.564
  158POPC   GL1 7417  32.125  11.038   9.136
  158POPC   GL2 7418  32.486  11.063   9.110
  158POPC   C1A 7419  31.943  11.133   8.709
  158POPC   D2A 7420  31.712  11.286   8.348
  158POPC   C3A 7421  31.921  11.296   7.969
  158POPC   C4A 7422  32.075  11.241   7.581
  158POPC   C1B 7423  32.420  11.353   8.741
  158POPC   C2B 7424  32.240  11.490   8.332
  158POPC   C3B 7425  32.439  11.406   7.904
  158POPC   C4B 7426  32.520  11.445   7.437
  159POPC   NC3 7427  15.974   7.217   9.802
  159POPC   PO4 7428  16.197   7.338   9.245
  159POPC   GL1 7429  15.841   7.286   9.089
  159POPC   GL2 7430  15.674   6.978   9.238
  159POPC   C1A 7431  15.854   7.424   8.650
  159POPC   D2A 7432  15.924   7.636   8.269
  159POPC   C3A 7433  16.263   7.724   8.036
  159POPC   C4A 7434  16.337   7.695   7.600
  159POPC   C1B 7435  15.670   6.935   8.764
  159POPC   C2B 7436  15.769   7.037   8.328
  159POPC   C3B 7437  15.873   7.228   7.942
  159POPC   C4B 7438  15.690   7.089   7.582
  160POPC   NC3 7439  13.208  12.156   9.341
  160POPC   PO4 7440  12.653  12.065   9.630
  160POPC   GL1 7441  12.741  12.073   9.194
  160POPC   GL2 7442  12.497  12.290   9.136
  160POPC   C1A 7443  12.977  12.061   8.750
  160POPC   D2A 7444  13.018  11.851   8.340
  160POPC   C3A 7445  12.683  11.809   8.013
  160POPC   C4A 7446  13.007  11.869   7.723
  160POPC   C1B 7447  12.470  12.044   8.783
  160POPC   C2B 7448  12.592  12.206   8.401
  160POPC   C3B 7449  12.805  12.283   8.046
  160POPC   C4B 7450  12.567  12.214   7.707
  161POPC   NC3 7451   5.771  12.244   9.817
  161POPC   PO4 7452   6.247  11.856   9.597
  161POPC   GL1 7453   5.912  12.032   9.319
  161POPC   GL2 7454   6.144  12.185   9.120
  161POPC   C1A 7455   5.667  12.275   8.940
  161POPC   D2A 7456   5.570  12.122   8.480
  161POPC   C3A 7457   5.528  12.134   8.002
  161POPC   C4A 7458   5.582  11.927   7.579
  161POPC   C1B 7459   6.044  12.044   8.705
  161POPC   C2B 7460   6.038  12.327   8.394
  161POPC   C3B 7461   6.033  12.092   8.048
  161POPC   C4B 7462   6.039  12.117   7.659
  162POPC   NC3 7463  23.524  29.627   9.478
  162POPC   PO4 7464  23.922  30.176   9.444
  162POPC   GL1 7465  23.816  30.018   9.086
  162POPC   GL2 7466  23.858  29.636   9.071
  162POPC   C1A 7467  23.770  30.252   8.679
  162POPC   D2A 7468  23.639  30.338   8.226
  162POPC   C3A 7469  23.895  30.119   7.900
  162POPC   C4A 7470  23.916  29.700   7.719
  162POPC   C1B 7471  23.507  29.771   8.798
  162POPC   C2B 7472  23.319  29.824   8.429
  162POPC   C3B 7473  23.526  29.830   8.071
  162POPC   C4B 7474  23.407  29.794   7.688
  163POPC   NC3 7475  40.257  16.475   9.323
  163POPC   PO4 7476  39.853  16.954   9.531
  163POPC   GL1 7477  40.003  16.897   9.117
  163POPC   GL2 7478  39.811  16.610   9.112
  163POPC   C1A 7479  40.109  16.674   8.703
  163POPC   D2A 7480  40.294  16.557   8.296
  163POPC   C3A 7481  40.045  16.782   7.984
  163POPC   C4A 7482  40.188  16.893   7.554
  163POPC   C1B 7483  39.690  16.372   8.770
  163POPC   C2B 7484  39.819  16.361   8.335
  163POPC   C3B 7485  39.617  16.433   7.940
  163POPC   C4B 7486  39.872  16.501   7.599
  164POPC   NC3 7487  17.918  29.316   9.365
  164POPC   PO4 7488  18.399  29.000   9.200
  164POPC   GL1 7489  18.249  29.329   8.948
  164POPC   GL2 7490  18.421  29.608   9.147
  164POPC   C1A 7491  18.081  29.162   8.554
  164POPC   D2A 7492  18.211  28.762   8.367
  164POPC   C3A 7493  18.254  28.766   7.921
  164POPC   C4A 7494  18.523  28.995   7.668
  164POPC   C1B 7495  18.715  29.490   8.791
  164POPC   C2B 7496  18.600  29.272   8.430
  164POPC   C3B 7497  18.321  29.241   8.091
  164POPC   C4B 7498  18.193  29.566   7.828
  165POPC   NC3 7499  37.213  43.184   9.502
  165POPC   PO4 7500  36.787  42.766   9.720
  165POPC   GL1 7501  36.748  43.047   9.286
  165POPC   GL2 7502  37.052  42.959   9.088
  165POPC   C1A 7503  36.770  43.286   8.842
  165POPC   D2A 7504  37.049  42.994   8.568
  165POPC   C3A 7505  37.035  42.884   8.139
  165POPC   C4A 7506  36.776  42.982   7.800
  165POPC   C1B 7507  37.282  43.320   8.878
  165POPC   C2B 7508  37.248  43.634   8.560
  165POPC   C3B 7509  37.186  43.552   8.124
  165POPC   C4B 7510  37.240  43.219   7.813
  166POPC   NC3 7511  15.653  31.740   9.534
  166POPC   PO4 7512  15.761  31.132   9.377
  166POPC   GL1 7513  15.797  31.495   9.099
  166POPC   GL2 7514  15.979  31.840   9.155
  166POPC   C1A 7515  15.766  31.433   8.683
  166POPC   D2A 7516  15.534  31.285   8.342
  166POPC   C3A 7517  15.647  31.460   7.947
  166POPC   C4A 7518  15.621  31.260   7.526
  166POPC   C1B 7519  16.084  31.824   8.713
  166POPC   C2B 7520  16.054  31.606   8.280
  166POPC   C3B 7521  16.139  31.399   7.863
  166POPC   C4B 7522  16.382  31.595   7.528
  167POPC   NC3 7523  43.619  24.270   9.538
  167POPC   PO4 7524  44.193  24.671   9.549
  167POPC   GL1 7525  43.906  24.587   9.228
  167POPC   GL2 7526  43.990  24.276   9.108
  167POPC   C1A 7527  43.709  24.636   8.820
  167POPC   D2A 7528  43.856  24.675   8.386
  167POPC   C3A 7529  43.550  24.692   8.059
  167POPC   C4A 7530  43.695  24.707   7.630
  167POPC   C1B 7531  43.894  24.138   8.674
  167POPC   C2B 7532  43.668  24.193   8.254
  167POPC   C3B 7533  43.902  24.321   7.921
  167POPC   C4B 7534  44.307  24.129   7.839
  168POPC   NC3 7535  35.633  18.077   9.380
  168POPC   PO4 7536  35.066  18.311   9.679
  168POPC   GL1 7537  35.228  18.393   9.229
  168POPC   GL2 7538  35.554  18.508   9.146
  168POPC   C1A 7539  35.176  18.327   8.766
  168POPC   D2A 7540  34.900  18.136   8.423
  168POPC   C3A 7541  35.011  18.173   7.998
  168POPC   C4A 7542  34.961  18.104   7.563
  168POPC   C1B 7543  35.723  18.338   8.787
  168POPC   C2B 7544  35.773  18.417   8.373
  168POPC   C3B 7545  35.513  18.239   8.093
  168POPC   C4B 7546  35.430  18.289   7.673
  169POPC   NC3 7547  32.970  18.199   9.729
  169POPC   PO4 7548  33.420  18.350   9.312
  169POPC   GL1 7549  33.175  18.164   9.035
  169POPC   GL2 7550  33.272  17.818   8.953
  169POPC   C1A 7551  33.016  18.393   8.672
  169POPC   D2A 7552  32.774  18.438   8.267
  169POPC   C3A 7553  33.015  18.380   7.835
  169POPC   C4A 7554  33.413  18.471   7.583
  169POPC   C1B 7555  33.312  17.974   8.587
  169POPC   C2B 7556  33.158  18.116   8.256
  169POPC   C3B 7557  33.163  17.890   7.928
  169POPC   C4B 7558  33.270  17.978   7.563
  170POPC   NC3 7559  20.025  37.445   9.542
  170POPC   PO4 7560  19.460  37.676   9.403
  170POPC   GL1 7561  19.731  37.521   9.117
  170POPC   GL2 7562  19.985  37.717   9.084
  170POPC   C1A 7563  19.774  37.440   8.688
  170POPC   D2A 7564  19.966  37.398   8.295
  170POPC   C3A 7565  19.715  37.678   8.039
  170POPC   C4A 7566  19.392  37.513   7.794
  170POPC   C1B 7567  20.153  37.903   8.685
  170POPC   C2B 7568  20.224  37.831   8.244
  170POPC   C3B 7569  20.189  37.691   7.862
  170POPC   C4B 7570  20.314  37.511   7.514
  171POPC   NC3 7571  24.742   4.694   9.528
  171POPC   PO4 7572  24.631   5.376   9.726
  171POPC   GL1 7573  24.366   5.308   9.322
  171POPC   GL2 7574  24.373   4.946   9.253
  171POPC   C1A 7575  24.457   5.352   8.862
  171POPC   D2A 7576  24.657   5.128   8.519
  171POPC   C3A 7577  24.592   5.301   8.124
  171POPC   C4A 7578  24.799   5.223   7.751
  171POPC   C1B 7579  24.305   4.830   8.804
  171POPC   C2B 7580  24.367   4.725   8.354
  171POPC   C3B 7581  24.567   4.803   7.954
  171POPC   C4B 7582  24.570   4.823   7.470
  172POPC   NC3 7583  18.358  10.103   9.534
  172POPC   PO4 7584  18.566  10.758   9.424
  172POPC   GL1 7585  18.332  10.436   9.148
  172POPC   GL2 7586  18.570  10.238   8.975
  172POPC   C1A 7587  18.116  10.331   8.734
  172POPC   D2A 7588  17.892  10.353   8.310
  172POPC   C3A 7589  18.017  10.561   7.937
  172POPC   C4A 7590  18.064  10.907   7.695
  172POPC   C1B 7591  18.495  10.684   8.742
  172POPC   C2B 7592  18.281  10.799   8.361
  172POPC   C3B 7593  18.509  10.832   7.989
  172POPC   C4B 7594  18.753  10.464   7.830
  173POPC   NC3 7595  13.068  23.831   9.471
  173POPC   PO4 7596  12.452  24.082   9.511
  173POPC   GL1 7597  12.528  23.928   9.106
  173POPC   GL2 7598  12.838  23.820   9.034
  173POPC   C1A 7599  12.502  23.842   8.669
  173POPC   D2A 7600  12.718  24.033   8.281
  173POPC   C3A 7601  12.745  23.856   7.913
  173POPC   C4A 7602  12.563  23.462   7.848
  173POPC   C1B 7603  13.006  23.852   8.645
  173POPC   C2B 7604  12.841  23.525   8.348
  173POPC   C3B 7605  13.046  23.448   7.982
  173POPC   C4B 7606  13.256  23.867   7.895
  174POPC   NC3 7607  14.481  36.030   9.524
  174POPC   PO4 7608  14.479  36.541   9.086
  174POPC   GL1 7609  14.564  36.098   9.026
  174POPC   GL2 7610  14.262  35.902   9.068
  174POPC   C1A 7611  14.567  35.922   8.614
  174POPC   D2A 7612  14.668  36.256   8.334
  174POPC   C3A 7613  14.799  36.286   7.911
  174POPC   C4A 7614  14.650  35.929   7.687
  174POPC   C1B 7615  14.140  36.172   8.720
  174POPC   C2B 7616  14.140  36.129   8.316
  174POPC   C3B 7617  14.234  35.912   7.956
  174POPC   C4B 7618  14.201  36.164   7.590
  175POPC   NC3 7619  41.077  19.368   9.393
  175POPC   PO4 7620  40.732  20.009   9.516
  175POPC   GL1 7621  40.704  19.718   9.199
  175POPC   GL2 7622  41.040  19.796   9.138
  175POPC   C1A 7623  40.626  19.608   8.791
  175POPC   D2A 7624  40.497  19.438   8.413
  175POPC   C3A 7625  40.615  19.703   8.063
  175POPC   C4A 7626  40.889  19.570   7.765
  175POPC   C1B 7627  40.911  20.042   8.823
  175POPC   C2B 7628  40.866  19.987   8.393
  175POPC   C3B 7629  41.063  20.025   7.991
  175POPC   C4B 7630  41.336  19.769   7.720
  176POPC   NC3 7631  13.457   9.041   9.909
  176POPC   PO4 7632  13.972   9.153   9.455
  176POPC   GL1 7633  13.808   9.123   9.027
  176POPC   GL2 7634  13.667   8.805   9.004
  176POPC   C1A 7635  13.810   9.108   8.577
  176POPC   D2A 7636  13.661   8.908   8.237
  176POPC   C3A 7637  13.650   9.191   7.907
  176POPC   C4A 7638  13.594   9.173   7.416
  176POPC   C1B 7639  14.042   8.699   8.757
  176POPC   C2B 7640  14.191   8.816   8.351
  176POPC   C3B 7641  14.034   8.785   7.917
  176POPC   C4B 7642  13.600   8.740   7.709
  177POPC   NC3 7643  17.973  22.166   9.509
  177POPC   PO4 7644  18.413  22.591   9.319
  177POPC   GL1 7645  18.304  22.233   9.121
  177POPC   GL2 7646  18.019  22.388   9.016
  177POPC   C1A 7647  18.141  21.956   8.765
  177POPC   D2A 7648  18.319  21.859   8.359
  177POPC   C3A 7649  18.130  21.955   7.978
  177POPC   C4A 7650  18.217  21.996   7.563
  177POPC   C1B 7651  18.271  22.420   8.631
  177POPC   C2B 7652  18.246  22.387   8.204
  177POPC   C3B 7653  18.517  22.304   7.844
  177POPC   C4B 7654  18.478  22.411   7.402
  178POPC   NC3 7655  22.888  30.161   9.704
  178POPC   PO4 7656  23.067  29.526   9.550
  178POPC   GL1 7657  22.904  29.825   9.273
  178POPC   GL2 7658  23.243  30.003   9.236
  178POPC   C1A 7659  22.635  29.738   8.881
  178POPC   D2A 7660  22.809  29.657   8.472
  178POPC   C3A 7661  22.739  29.817   8.046
  178POPC   C4A 7662  22.906  29.705   7.652
  178POPC   C1B 7663  23.050  30.019   8.825
  178POPC   C2B 7664  22.895  30.153   8.425
  178POPC   C3B 7665  23.150  30.160   8.057
  178POPC   C4B 7666  23.068  30.203   7.649
  179POPC   NC3 7667  17.545  25.486   9.554
  179POPC   PO4 7668  17.822  24.863   9.364
  179POPC   GL1 7669  17.544  25.116   9.142
  179POPC   GL2 7670  17.547  25.439   9.059
  179POPC   C1A 7671  17.460  25.057   8.730
  179POPC   D2A 7672  17.191  25.102   8.401
  179POPC   C3A 7673  17.456  25.043   8.073
  179POPC   C4A 7674  17.275  24.974   7.724
  179POPC   C1B 7675  17.483  25.590   8.698
  179POPC   C2B 7676  17.448  25.519   8.295
  179POPC   C3B 7677  17.309  25.527   7.907
  179POPC   C4B 7678  17.572  25.811   7.722
  180POPC   NC3 7679  37.912  17.601   9.530
  180POPC   PO4 7680  38.528  17.882   9.456
  180POPC   GL1 7681  38.560  17.606   9.103
  180POPC   GL2 7682  38.255  17.494   9.153
  180POPC   C1A 7683  38.735  17.412   8.739
  180POPC   D2A 7684  38.601  17.143   8.370
  180POPC   C3A 7685  38.511  17.303   7.935
  180POPC   C4A 7686  38.666  17.483   7.528
  180POPC   C1B 7687  38.009  17.574   8.802
  180POPC   C2B 7688  38.102  17.454   8.390
  180POPC   C3B 7689  38.162  17.686   8.023
  180POPC   C4B 7690  38.133  17.539   7.634
  181POPC   NC3 7691  12.692  13.145   9.457
  181POPC   PO4 7692  12.981  13.812   9.599
  181POPC   GL1 7693  13.006  13.518   9.294
  181POPC   GL2 7694  12.657  13.606   9.186
  181POPC   C1A 7695  13.046  13.486   8.866
  181POPC   D2A 7696  12.834  13.660   8.537
  181POPC   C3A 7697  13.101  13.732   8.183
  181POPC   C4A 7698  13.066  13.566   7.775
  181POPC   C1B 7699  12.515  13.374   8.828
  181POPC   C2B 7700  12.453  13.301   8.407
  181POPC   C3B 7701  12.600  13.510   8.054
  181POPC   C4B 7702  12.555  13.285   7.673
  182POPC   NC3 7703  34.896  32.915   9.666
  182POPC   PO4 7704  34.432  32.627   9.333
  182POPC   GL1 7705  34.440  33.015   9.179
  182POPC   GL2 7706  34.763  33.088   9.190
  182POPC   C1A 7707  34.320  33.063   8.794
  182POPC   D2A 7708  34.483  32.966   8.405
  182POPC   C3A 7709  34.285  33.070   8.043
  182POPC   C4A 7710  34.427  33.065   7.641
  182POPC   C1B 7711  34.812  33.250   8.763
  182POPC   C2B 7712  34.985  33.051   8.361
  182POPC   C3B 7713  34.859  33.038   7.898
  182POPC   C4B 7714  34.878  33.046   7.370
  183POPC   NC3 7715  30.786  16.204   9.364
  183POPC   PO4 7716  30.942  16.837   9.507
  183POPC   GL1 7717  30.672  16.843   9.124
  183POPC   GL2 7718  30.429  16.573   9.046
  183POPC   C1A 7719  30.784  16.750   8.710
  183POPC   D2A 7720  30.660  16.490   8.369
  183POPC   C3A 7721  30.692  16.710   7.986
  183POPC   C4A 7722  30.995  17.012   7.767
  183POPC   C1B 7723  30.250  16.367   8.677
  183POPC   C2B 7724  30.251  16.179   8.242
  183POPC   C3B 7725  30.243  16.452   7.859
  183POPC   C4B 7726  30.342  16.505   7.366
  184POPC   NC3 7727   1.264   6.408   9.666
  184POPC   PO4 7728   1.115   6.865   9.156
  184POPC   GL1 7729   1.365   6.523   9.105
  184POPC   GL2 7730   1.096   6.299   9.189
  184POPC   C1A 7731   1.474   6.634   8.689
  184POPC   D2A 7732   1.222   6.629   8.314
  184POPC   C3A 7733   1.374   6.670   7.898
  184POPC   C4A 7734   1.399   6.542   7.444
  184POPC   C1B 7735   1.053   6.335   8.749
  184POPC   C2B 7736   0.784   6.351   8.377
  184POPC   C3B 7737   0.951   6.276   7.967
  184POPC   C4B 7738   0.939   6.610   7.676
  185POPC   NC3 7739  37.924   2.864   9.663
  185POPC   PO4 7740  37.602   2.284   9.675
  185POPC   GL1 7741  37.532   2.576   9.295
  185POPC   GL2 7742  37.700   2.909   9.212
  185POPC   C1A 7743  37.464   2.687   8.829
  185POPC   D2A 7744  37.383   2.533   8.395
  185POPC   C3A 7745  37.734   2.492   8.101
  185POPC   C4A 7746  37.818   2.602   7.681
  185POPC   C1B 7747  37.753   3.132   8.824
  185POPC   C2B 7748  37.783   2.895   8.457
  185POPC   C3B 7749  37.550   2.966   8.124
  185POPC   C4B 7750  37.771   3.128   7.799
  186POPC   NC3 7751  18.687  30.380   9.470
  186POPC   PO4 7752  18.087  30.608   9.448
  186POPC   GL1 7753  18.180  30.661   9.036
  186POPC   GL2 7754  18.473  30.854   8.982
  186POPC   C1A 7755  18.179  30.672   8.584
  186POPC   D2A 7756  18.498  30.766   8.261
  186POPC   C3A 7757  18.269  30.644   7.894
  186POPC   C4A 7758  17.831  30.456   7.832
  186POPC   C1B 7759  18.645  30.520   8.750
  186POPC   C2B 7760  18.523  30.272   8.410
  186POPC   C3B 7761  18.740  30.369   8.043
  186POPC   C4B 7762  18.629  30.354   7.645
  187POPC   NC3 7763  35.558  10.779   9.560
  187POPC   PO4 7764  34.979  10.530   9.531
  187POPC   GL1 7765  35.169  10.443   9.154
  187POPC   GL2 7766  35.500  10.540   9.096
  187POPC   C1A 7767  35.119  10.565   8.738
  187POPC   D2A 7768  35.393  10.499   8.418
  187POPC   C3A 7769  35.172  10.497   8.063
  187POPC   C4A 7770  35.172  10.410   7.645
  187POPC   C1B 7771  35.542  10.872   8.759
  187POPC   C2B 7772  35.775  10.862   8.384
  187POPC   C3B 7773  35.604  10.768   7.998
  187POPC   C4B 7774  35.685  10.376   7.849
  188POPC   NC3 7775  40.960  27.174   9.474
  188POPC   PO4 7776  40.477  26.716   9.636
  188POPC   GL1 7777  40.339  26.790   9.211
  188POPC   GL2 7778  40.661  26.880   9.129
  188POPC   C1A 7779  40.333  26.749   8.730
  188POPC   D2A 7780  40.604  26.565   8.371
  188POPC   C3A 7781  40.561  26.709   7.928
  188POPC   C4A 7782  40.611  27.141   7.781
  188POPC   C1B 7783  40.866  26.788   8.771
  188POPC   C2B 7784  41.080  26.730   8.408
  188POPC   C3B 7785  41.016  26.892   8.028
  188POPC   C4B 7786  40.947  26.772   7.596
  189POPC   NC3 7787   5.386  35.127   9.458
  189POPC   PO4 7788   4.814  35.394   9.359
  189POPC   GL1 7789   5.104  35.252   9.046
  189POPC   GL2 7790   5.455  35.420   9.045
  189POPC   C1A 7791   5.089  35.388   8.625
  189POPC   D2A 7792   4.733  35.412   8.340
  189POPC   C3A 7793   4.813  35.136   7.993
  189POPC   C4A 7794   4.846  35.216   7.560
  189POPC   C1B 7795   5.506  35.087   8.767
  189POPC   C2B 7796   5.348  34.989   8.373
  189POPC   C3B 7797   5.351  35.153   7.953
  189POPC   C4B 7798   5.385  34.909   7.593
  190POPC   NC3 7799  17.692   9.973   9.565
  190POPC   PO4 7800  17.139   9.653   9.492
  190POPC   GL1 7801  17.417   9.784   9.175
  190POPC   GL2 7802  17.771   9.618   9.203
  190POPC   C1A 7803  17.337   9.927   8.780
  190POPC   D2A 7804  17.564   9.890   8.424
  190POPC   C3A 7805  17.415   9.668   8.084
  190POPC   C4A 7806  17.307   9.889   7.704
  190POPC   C1B 7807  17.866   9.894   8.861
  190POPC   C2B 7808  18.061   9.892   8.437
  190POPC   C3B 7809  17.900   9.889   8.010
  190POPC   C4B 7810  17.908  10.125   7.628
  191POPC   NC3 7811   9.490  13.138   9.548
  191POPC   PO4 7812   9.958  13.664   9.446
  191POPC   GL1 7813   9.683  13.759   9.132
  191POPC   GL2 7814   9.444  13.471   9.160
  191POPC   C1A 7815   9.817  13.873   8.737
  191POPC   D2A 7816  10.157  13.784   8.428
  191POPC   C3A 7817   9.939  13.827   8.001
  191POPC   C4A 7818   9.659  14.166   7.866
  191POPC   C1B 7819   9.677  13.349   8.806
  191POPC   C2B 7820   9.728  13.500   8.400
  191POPC   C3B 7821   9.542  13.480   8.025
  191POPC   C4B 7822   9.608  13.631   7.602
  192POPC   NC3 7823  37.113   5.423   9.530
  192POPC   PO4 7824  36.901   6.105   9.542
  192POPC   GL1 7825  36.970   5.831   9.210
  192POPC   GL2 7826  37.116   6.121   9.051
  192POPC   C1A 7827  37.044   5.697   8.776
  192POPC   D2A 7828  37.202   5.931   8.436
  192POPC   C3A 7829  37.061   5.819   8.045
  192POPC   C4A 7830  36.869   5.671   7.695
  192POPC   C1B 7831  36.836   6.197   8.695
  192POPC   C2B 7832  36.839   6.234   8.236
  192POPC   C3B 7833  36.774   6.193   7.802
  192POPC   C4B 7834  36.716   6.269   7.374
  193POPC   NC3 7835   0.796   4.882   9.453
  193POPC   PO4 7836   1.242   5.342   9.349
  193POPC   GL1 7837   1.113   5.054   9.050
  193POPC   GL2 7838   0.795   5.203   9.074
  193POPC   C1A 7839   1.270   5.130   8.619
  193POPC   D2A 7840   1.347   5.262   8.138
  193POPC   C3A 7841   1.400   4.967   7.767
  193POPC   C4A 7842   1.380   4.801   7.313
  193POPC   C1B 7843   0.842   5.438   8.765
  193POPC   C2B 7844   0.994   5.509   8.409
  193POPC   C3B 7845   0.833   5.398   8.022
  193POPC   C4B 7846   1.019   5.321   7.639
  194POPC   NC3 7847  29.773  34.822   9.399
  194POPC   PO4 7848  29.574  35.433   9.522
  194POPC   GL1 7849  29.776  35.485   9.120
  194POPC   GL2 7850  30.005  35.192   9.041
  194POPC   C1A 7851  29.772  35.463   8.681
  194POPC   D2A 7852  29.859  35.292   8.325
  194POPC   C3A 7853  29.728  35.552   8.041
  194POPC   C4A 7854  29.867  35.664   7.664
  194POPC   C1B 7855  30.272  35.121   8.642
  194POPC   C2B 7856  30.253  35.035   8.164
  194POPC   C3B 7857  29.883  35.098   7.833
  194POPC   C4B 7858  29.931  35.232   7.400
  195POPC   NC3 7859   4.335  17.242   9.350
  195POPC   PO4 7860   3.950  17.568   9.764
  195POPC   GL1 7861   3.957  17.685   9.288
  195POPC   GL2 7862   4.280  17.741   9.123
  195POPC   C1A 7863   3.924  17.606   8.807
  195POPC   D2A 7864   4.180  17.774   8.422
  195POPC   C3A 7865   4.288  17.509   8.037
  195POPC   C4A 7866   4.369  17.573   7.586
  195POPC   C1B 7867   4.475  17.510   8.765
  195POPC   C2B 7868   4.687  17.478   8.377
  195POPC   C3B 7869   4.781  17.175   8.063
  195POPC   C4B 7870   4.640  17.158   7.654
  196POPC   NC3 7871   7.203   2.841   9.439
  196POPC   PO4 7872   7.872   2.550   9.436
  196POPC   GL1 7873   7.570   2.703   9.119
  196POPC   GL2 7874   7.227   2.553   9.027
  196POPC   C1A 7875   7.420   2.961   8.756
  196POPC   D2A 7876   7.257   2.933   8.325
  196POPC   C3A 7877   7.557   2.923   8.000
  196POPC   C4A 7878   7.690   2.540   7.750
  196POPC   C1B 7879   6.995   2.628   8.664
  196POPC   C2B 7880   6.999   2.469   8.255
  196POPC   C3B 7881   7.154   2.631   7.878
  196POPC   C4B 7882   7.025   2.554   7.457
  197POPC   NC3 7883   0.574   0.887   9.519
  197POPC   PO4 7884   0.203   1.499   9.432
  197POPC   GL1 7885   0.394   1.252   9.135
  197POPC   GL2 7886   0.266   0.893   9.126
  197POPC   C1A 7887   0.678   1.075   8.848
  197POPC   D2A 7888   0.816   0.950   8.435
  197POPC   C3A 7889   0.631   1.067   8.047
  197POPC   C4A 7890   0.415   1.016   7.646
  197POPC   C1B 7891   0.118   1.058   8.756
  197POPC   C2B 7892   0.270   1.028   8.388
  197POPC   C3B 7893   0.072   1.036   8.012
  197POPC   C4B 7894  44.935   1.167   7.614
  198POPC   NC3 7895   7.159  33.314   9.495
  198POPC   PO4 7896   7.581  32.878   9.342
  198POPC   GL1 7897   7.507  33.229   9.114
  198POPC   GL2 7898   7.192  33.071   9.036
  198POPC   C1A 7899   7.478  33.358   8.704
  198POPC   D2A 7900   7.256  33.087   8.414
  198POPC   C3A 7901   7.533  32.976   8.079
  198POPC   C4A 7902   7.860  32.850   7.789
  198POPC   C1B 7903   6.975  33.393   8.824
  198POPC   C2B 7904   6.805  33.373   8.396
  198POPC   C3B 7905   7.050  33.330   8.004
  198POPC   C4B 7906   7.452  33.374   7.781
  199POPC   NC3 7907  10.138  43.412   9.678
  199POPC   PO4 7908   9.474  43.056   9.576
  199POPC   GL1 7909   9.784  43.076   9.258
  199POPC   GL2 7910   9.920  43.388   9.185
  199POPC   C1A 7911   9.702  43.064   8.810
  199POPC   D2A 7912   9.591  42.848   8.412
  199POPC   C3A 7913   9.601  43.110   8.029
  199POPC   C4A 7914   9.484  43.025   7.621
  199POPC   C1B 7915  10.183  43.325   8.805
  199POPC   C2B 7916  10.283  43.214   8.375
  199POPC   C3B 7917  10.121  43.188   7.958
  199POPC   C4B 7918  10.106  43.383   7.580
  200POPC   NC3 7919  25.734  31.655   9.208
  200POPC   PO4 7920  25.247  31.277   9.525
  200POPC   GL1 7921  25.205  31.551   9.176
  200POPC   GL2 7922  25.414  31.323   8.962
  200POPC   C1A 7923  25.017  31.574   8.751
  200POPC   D2A 7924  25.131  31.431   8.350
  200POPC   C3A 7925  25.165  31.753   8.059
  200POPC   C4A 7926  25.001  31.539   7.725
  200POPC   C1B 7927  25.558  31.585   8.584
  200POPC   C2B 7928  25.719  31.616   8.156
  200POPC   C3B 7929  25.533  31.569   7.753
  200POPC   C4B 7930  25.326  31.922   7.567
  201POPC   NC3 7931  33.377  32.733   9.532
  201POPC   PO4 7932  32.807  33.220   9.472
  201POPC   GL1 7933  32.918  33.011   9.115
  201POPC   GL2 7934  33.278  32.963   9.073
  201POPC   C1A 7935  32.898  33.013   8.681
  201POPC   D2A 7936  33.095  32.884   8.299
  201POPC   C3A 7937  32.834  32.849   7.929
  201POPC   C4A 7938  32.844  33.098   7.536
  201POPC   C1B 7939  33.363  33.215   8.721
  201POPC   C2B 7940  33.066  33.404   8.394
  201POPC   C3B 7941  33.136  33.277   7.964
  201POPC   C4B 7942  33.302  32.905   7.750
  202POPC   NC3 7943  41.226  18.037   9.633
  202POPC   PO4 7944  41.876  18.129   9.484
  202POPC   GL1 7945  41.637  18.313   9.173
  202POPC   GL2 7946  41.437  18.016   9.121
  202POPC   C1A 7947  41.545  18.451   8.739
  202POPC   D2A 7948  41.315  18.340   8.357
  202POPC   C3A 7949  41.597  18.404   8.023
  202POPC   C4A 7950  41.765  18.415   7.650
  202POPC   C1B 7951  41.786  17.985   8.786
  202POPC   C2B 7952  41.755  18.022   8.333
  202POPC   C3B 7953  41.783  17.943   7.870
  202POPC   C4B 7954  41.933  17.981   7.439
  203POPC   NC3 7955  22.465  35.558   9.479
  203POPC   PO4 7956  22.647  34.967   9.500
  203POPC   GL1 7957  22.360  35.159   9.160
  203POPC   GL2 7958  22.200  34.909   8.928
  203POPC   C1A 7959  22.071  35.381   8.845
  203POPC   D2A 7960  21.958  35.141   8.471
  203POPC   C3A 7961  21.917  35.325   8.041
  203POPC   C4A 7962  22.263  35.557   7.855
  203POPC   C1B 7963  22.527  34.766   8.749
  203POPC   C2B 7964  22.645  34.929   8.351
  203POPC   C3B 7965  22.366  35.083   8.069
  203POPC   C4B 7966  22.163  35.005   7.716
  204POPC   NC3 7967  38.189   5.929   9.568
  204POPC   PO4 7968  38.827   6.186   9.743
  204POPC   GL1 7969  38.601   6.180   9.311
  204POPC   GL2 7970  38.394   5.896   9.113
  204POPC   C1A 7971  38.678   6.208   8.856
  204POPC   D2A 7972  38.354   6.064   8.518
  204POPC   C3A 7973  38.528   5.867   8.176
  204POPC   C4A 7974  38.715   6.007   7.809
  204POPC   C1B 7975  38.269   5.616   8.748
  204POPC   C2B 7976  38.069   5.521   8.353
  204POPC   C3B 7977  38.047   5.754   8.002
  204POPC   C4B 7978  38.333   5.696   7.709
  205POPC   NC3 7979   0.671  32.916   9.499
  205POPC   PO4 7980   0.310  33.369   9.199
  205POPC   GL1 7981   0.512  32.980   9.016
  205POPC   GL2 7982   0.791  33.189   9.057
  205POPC   C1A 7983   0.679  32.678   8.662
  205POPC   D2A 7984   0.647  32.552   8.204
  205POPC   C3A 7985   0.287  32.677   7.933
  205POPC   C4A 7986  44.996  33.001   7.757
  205POPC   C1B 7987   0.915  33.158   8.633
  205POPC   C2B 7988   1.005  32.964   8.252
  205POPC   C3B 7989   0.719  32.993   7.917
  205POPC   C4B 7990   0.453  33.051   7.545
  206POPC   NC3 7991   0.004  20.469   9.391
  206POPC   PO4 7992  44.435  20.620   9.580
  206POPC   GL1 7993  44.507  20.844   9.196
  206POPC   GL2 7994  44.868  20.930   9.165
  206POPC   C1A 7995  44.456  20.666   8.767
  206POPC   D2A 7996  44.264  20.598   8.361
  206POPC   C3A 7997  44.483  20.708   7.990
  206POPC   C4A 7998  44.645  20.581   7.596
  206POPC   C1B 7999  44.954  20.802   8.773
  206POPC   C2B 8000  44.952  20.668   8.357
  206POPC   C3B 8001  44.969  20.904   7.979
  206POPC   C4B 8002   0.043  20.850   7.534
  207POPC   NC3 8003  26.472  34.651   9.536
  207POPC   PO4 8004  27.050  34.377   9.636
  207POPC   GL1 8005  26.979  34.362   9.161
  207POPC   GL2 8006  26.629  34.348   9.074
  207POPC   C1A 8007  27.095  34.500   8.695
  207POPC   D2A 8008  26.924  34.789   8.327
  207POPC   C3A 8009  26.932  34.667   7.880
  207POPC   C4A 8010  26.953  34.525   7.458
  207POPC   C1B 8011  26.644  34.250   8.611
  207POPC   C2B 8012  26.911  34.284   8.234
  207POPC   C3B 8013  26.785  34.175   7.822
  207POPC   C4B 8014  26.485  34.358   7.563
  208POPC   NC3 8015  29.667   0.930   9.661
  208POPC   PO4 8016  30.314   0.839   9.491
  208POPC   GL1 8017  30.123   1.096   9.148
  208POPC   GL2 8018  29.760   1.049   9.152
  208POPC   C1A 8019  29.985   1.177   8.704
  208POPC   D2A 8020  30.130   1.089   8.266
  208POPC   C3A 8021  29.955   1.351   7.900
  208POPC   C4A 8022  29.849   1.446   7.452
  208POPC   C1B 8023  29.645   0.768   8.799
  208POPC   C2B 8024  29.477   0.725   8.384
  208POPC   C3B 8025  29.712   0.880   8.044
  208POPC   C4B 8026  29.589   1.068   7.656
  209POPC   NC3 8027  33.405   8.015   9.530
  209POPC   PO4 8028  32.884   8.512   9.596
  209POPC   GL1 8029  33.090   8.363   9.244
  209POPC   GL2 8030  32.922   8.089   9.100
  209POPC   C1A 8031  33.418   8.323   8.948
  209POPC   D2A 8032  33.544   8.329   8.511
  209POPC   C3A 8033  33.298   8.526   8.183
  209POPC   C4A 8034  33.086   8.481   7.768
  209POPC   C1B 8035  33.185   7.929   8.744
  209POPC   C2B 8036  33.410   7.837   8.381
  209POPC   C3B 8037  33.224   8.013   8.056
  209POPC   C4B 8038  33.225   7.939   7.669
  210POPC   NC3 8039  39.987  37.189   9.482
  210POPC   PO4 8040  40.104  36.499   9.424
  210POPC   GL1 8041  39.867  36.655   9.057
  210POPC   GL2 8042  40.047  36.942   9.031
  210POPC   C1A 8043  39.753  36.780   8.631
  210POPC   D2A 8044  39.929  36.615   8.228
  210POPC   C3A 8045  39.812  36.654   7.795
  210POPC   C4A 8046  39.952  36.912   7.437
  210POPC   C1B 8047  40.247  36.689   8.687
  210POPC   C2B 8048  40.390  36.826   8.300
  210POPC   C3B 8049  40.263  36.894   7.891
  210POPC   C4B 8050  40.451  36.760   7.535
  211POPC   NC3 8051   9.969  36.525   9.591
  211POPC   PO4 8052  10.410  36.053   9.717
  211POPC   GL1 8053  10.435  36.059   9.213
  211POPC   GL2 8054  10.133  35.843   9.137
  211POPC   C1A 8055  10.704  36.037   8.773
  211POPC   D2A 8056  10.978  36.193   8.390
  211POPC   C3A 8057  10.868  36.164   7.920
  211POPC   C4A 8058  11.004  36.191   7.439
  211POPC   C1B 8059  10.182  36.070   8.767
  211POPC   C2B 8060  10.379  36.247   8.423
  211POPC   C3B 8061  10.339  36.122   8.029
  211POPC   C4B 8062  10.338  35.869   7.695
  212POPC   NC3 8063  37.116  27.766   9.793
  212POPC   PO4 8064  36.839  28.306   9.500
  212POPC   GL1 8065  36.900  28.244   9.107
  212POPC   GL2 8066  37.061  27.911   9.196
  212POPC   C1A 8067  36.895  28.400   8.678
  212POPC   D2A 8068  37.014  28.644   8.308
  212POPC   C3A 8069  36.682  28.606   8.021
  212POPC   C4A 8070  36.595  28.637   7.584
  212POPC   C1B 8071  37.258  28.060   8.802
  212POPC   C2B 8072  37.290  28.215   8.372
  212POPC   C3B 8073  37.227  27.952   8.001
  212POPC   C4B 8074  37.185  27.887   7.546
  213POPC   NC3 8075   5.745  39.776   9.513
  213POPC   PO4 8076   6.064  39.125   9.443
  213POPC   GL1 8077   5.809  39.317   9.151
  213POPC   GL2 8078   5.643  39.626   9.038
  213POPC   C1A 8079   5.729  39.192   8.741
  213POPC   D2A 8080   5.962  39.253   8.400
  213POPC   C3A 8081   5.840  39.020   8.049
  213POPC   C4A 8082   5.962  38.648   7.846
  213POPC   C1B 8083   5.799  39.736   8.590
  213POPC   C2B 8084   5.835  39.661   8.116
  213POPC   C3B 8085   5.903  39.468   7.704
  213POPC   C4B 8086   5.606  39.428   7.326
  214POPC   NC3 8087  33.485  11.312   9.436
  214POPC   PO4 8088  34.033  10.848   9.456
  214POPC   GL1 8089  33.980  11.288   9.259
  214POPC   GL2 8090  33.741  11.253   9.006
  214POPC   C1A 8091  34.116  11.578   8.893
  214POPC   D2A 8092  34.228  11.634   8.443
  214POPC   C3A 8093  33.908  11.474   8.135
  214POPC   C4A 8094  33.901  11.252   7.728
  214POPC   C1B 8095  33.945  11.025   8.672
  214POPC   C2B 8096  33.948  10.942   8.216
  214POPC   C3B 8097  33.598  10.895   7.929
  214POPC   C4B 8098  33.454  10.989   7.488
  215POPC   NC3 8099   5.911  31.945   9.528
  215POPC   PO4 8100   6.149  31.354   9.838
  215POPC   GL1 8101   6.002  31.470   9.384
  215POPC   GL2 8102   6.245  31.616   9.167
  215POPC   C1A 8103   5.787  31.544   8.944
  215POPC   D2A 8104   5.908  31.357   8.486
  215POPC   C3A 8105   5.861  31.424   8.021
  215POPC   C4A 8106   5.875  31.506   7.563
  215POPC   C1B 8107   6.185  31.738   8.697
  215POPC   C2B 8108   6.194  31.781   8.233
  215POPC   C3B 8109   6.333  31.542   7.870
  215POPC   C4B 8110   6.372  31.529   7.416
  216POPC   NC3 8111  20.347  27.736   9.600
  216POPC   PO4 8112  20.781  27.193   9.542
  216POPC   GL1 8113  20.668  27.327   9.103
  216POPC   GL2 8114  20.357  27.468   9.146
  216POPC   C1A 8115  20.522  27.561   8.670
  216POPC   D2A 8116  20.744  27.768   8.294
  216POPC   C3A 8117  20.663  27.532   7.899
  216POPC   C4A 8118  20.626  27.127   7.711
  216POPC   C1B 8119  20.274  27.897   8.937
  216POPC   C2B 8120  20.358  28.032   8.482
  216POPC   C3B 8121  20.297  27.910   8.030
  216POPC   C4B 8122  20.324  27.867   7.566
  217POPC   NC3 8123   5.464  34.229   9.468
  217POPC   PO4 8124   6.092  34.337   9.463
  217POPC   GL1 8125   5.969  34.550   9.148
  217POPC   GL2 8126   5.708  34.812   9.206
  217POPC   C1A 8127   6.101  34.422   8.739
  217POPC   D2A 8128   6.320  34.517   8.383
  217POPC   C3A 8129   6.110  34.586   7.993
  217POPC   C4A 8130   6.141  34.529   7.526
  217POPC   C1B 8131   5.621  34.607   8.808
  217POPC   C2B 8132   5.764  34.662   8.409
  217POPC   C3B 8133   5.587  34.685   8.026
  217POPC   C4B 8134   5.661  34.478   7.667
  218POPC   NC3 8135  41.211  41.865   9.301
  218POPC   PO4 8136  41.887  41.735   9.455
  218POPC   GL1 8137  41.646  41.618   9.079
  218POPC   GL2 8138  42.008  41.526   9.011
  218POPC   C1A 8139  41.353  41.572   8.684
  218POPC   D2A 8140  41.403  41.280   8.347
  218POPC   C3A 8141  41.291  41.310   7.936
  218POPC   C4A 8142  41.560  41.530   7.675
  218POPC   C1B 8143  41.852  41.722   8.630
  218POPC   C2B 8144  41.762  41.694   8.186
  218POPC   C3B 8145  41.722  41.995   7.835
  218POPC   C4B 8146  41.832  41.898   7.391
  219POPC   NC3 8147   9.521  32.524   9.686
  219POPC   PO4 8148  10.020  32.087   9.549
  219POPC   GL1 8149   9.991  32.252   9.152
  219POPC   GL2 8150   9.765  32.499   9.142
  219POPC   C1A 8151   9.833  32.100   8.766
  219POPC   D2A 8152   9.597  32.139   8.370
  219POPC   C3A 8153   9.820  32.178   7.958
  219POPC   C4A 8154   9.608  32.008   7.572
  219POPC   C1B 8155   9.547  32.563   8.722
  219POPC   C2B 8156   9.668  32.634   8.326
  219POPC   C3B 8157   9.451  32.519   7.984
  219POPC   C4B 8158   9.665  32.542   7.621
  220POPC   NC3 8159  29.657   7.255   9.525
  220POPC   PO4 8160  30.170   7.661   9.451
  220POPC   GL1 8161  29.876   7.517   9.145
  220POPC   GL2 8162  29.964   7.196   9.123
  220POPC   C1A 8163  29.687   7.530   8.736
  220POPC   D2A 8164  29.876   7.695   8.324
  220POPC   C3A 8165  29.785   7.481   7.905
  220POPC   C4A 8166  29.928   7.577   7.495
  220POPC   C1B 8167  30.110   7.218   8.752
  220POPC   C2B 8168  29.943   7.210   8.389
  220POPC   C3B 8169  30.230   7.360   8.094
  220POPC   C4B 8170  30.189   7.174   7.728
  221POPC   NC3 8171  43.656   9.779   9.589
  221POPC   PO4 8172  44.265  10.152   9.603
  221POPC   GL1 8173  43.992   9.970   9.245
  221POPC   GL2 8174  44.005   9.593   9.243
  221POPC   C1A 8175  43.777   9.966   8.830
  221POPC   D2A 8176  43.752   9.849   8.378
  221POPC   C3A 8177  43.831  10.024   7.965
  221POPC   C4A 8178  44.181   9.860   7.719
  221POPC   C1B 8179  43.720   9.460   8.896
  221POPC   C2B 8180  43.791   9.354   8.450
  221POPC   C3B 8181  43.908   9.457   8.005
  221POPC   C4B 8182  43.736   9.615   7.623
  222POPC   NC3 8183   3.517  17.736   9.647
  222POPC   PO4 8184   3.833  17.183   9.404
  222POPC   GL1 8185   3.502  17.478   9.193
  222POPC   GL2 8186   3.259  17.262   9.076
  222POPC   C1A 8187   3.414  17.805   8.866
  222POPC   D2A 8188   3.638  17.818   8.426
  222POPC   C3A 8189   3.461  17.737   7.987
  222POPC   C4A 8190   3.586  17.673   7.537
  222POPC   C1B 8191   3.494  17.333   8.679
  222POPC   C2B 8192   3.419  17.291   8.245
  222POPC   C3B 8193   3.364  17.280   7.785
  222POPC   C4B 8194   3.520  17.196   7.373
  223POPC   NC3 8195  35.816  24.353   9.425
  223POPC   PO4 8196  36.371  24.721   9.513
  223POPC   GL1 8197  36.223  24.514   9.149
  223POPC   GL2 8198  36.350  24.209   9.103
  223POPC   C1A 8199  35.951  24.337   8.801
  223POPC   D2A 8200  35.721  24.534   8.499
  223POPC   C3A 8201  35.910  24.734   8.141
  223POPC   C4A 8202  35.741  24.733   7.721
  223POPC   C1B 8203  36.398  24.156   8.667
  223POPC   C2B 8204  36.229  24.374   8.316
  223POPC   C3B 8205  36.135  24.359   7.861
  223POPC   C4B 8206  36.265  24.006   7.574
  224POPC   NC3 8207   9.205  14.657   9.432
  224POPC   PO4 8208   8.765  14.000   9.386
  224POPC   GL1 8209   8.930  14.323   9.152
  224POPC   GL2 8210   8.656  14.558   9.167
  224POPC   C1A 8211   9.024  14.320   8.720
  224POPC   D2A 8212   8.913  14.079   8.336
  224POPC   C3A 8213   8.745  14.251   7.920
  224POPC   C4A 8214   8.773  14.539   7.499
  224POPC   C1B 8215   8.741  14.769   8.777
  224POPC   C2B 8216   8.915  14.657   8.368
  224POPC   C3B 8217   8.800  14.749   7.982
  224POPC   C4B 8218   8.627  15.027   7.711
  225POPC   NC3 8219   9.334  39.815   9.852
  225POPC   PO4 8220   9.624  40.188   9.346
  225POPC   GL1 8221   9.847  40.180   9.043
  225POPC   GL2 8222   9.831  39.830   9.052
  225POPC   C1A 8223   9.931  40.119   8.628
  225POPC   D2A 8224   9.694  40.077   8.288
  225POPC   C3A 8225   9.796  40.102   7.889
  225POPC   C4A 8226   9.497  39.866   7.657
  225POPC   C1B 8227   9.674  39.683   8.661
  225POPC   C2B 8228   9.912  39.627   8.258
  225POPC   C3B 8229   9.971  39.629   7.800
  225POPC   C4B 8230   9.762  39.520   7.405
  226POPC   NC3 8231  16.308  32.278   9.282
  226POPC   PO4 8232  15.689  32.189   9.446
  226POPC   GL1 8233  15.786  32.341   9.072
  226POPC   GL2 8234  15.769  32.677   9.161
  226POPC   C1A 8235  15.824  32.322   8.632
  226POPC   D2A 8236  15.997  32.123   8.306
  226POPC   C3A 8237  15.849  32.019   7.933
  226POPC   C4A 8238  16.205  32.035   7.697
  226POPC   C1B 8239  15.514  32.701   8.783
  226POPC   C2B 8240  15.635  32.733   8.348
  226POPC   C3B 8241  15.617  32.488   7.983
  226POPC   C4B 8242  15.671  32.595   7.561
  227POPC   NC3 8243   0.142  24.192   9.357
  227POPC   PO4 8244   0.521  24.643   9.777
  227POPC   GL1 8245   0.595  24.572   9.301
  227POPC   GL2 8246   0.606  24.217   9.136
  227POPC   C1A 8247   0.475  24.592   8.846
  227POPC   D2A 8248   0.496  24.461   8.389
  227POPC   C3A 8249   0.298  24.725   8.046
  227POPC   C4A 8250   0.593  24.795   7.706
  227POPC   C1B 8251   0.253  24.145   8.732
  227POPC   C2B 8252   0.250  23.968   8.283
  227POPC   C3B 8253   0.299  24.229   7.907
  227POPC   C4B 8254   0.310  24.431   7.496
  228POPC   NC3 8255  24.349   5.551  10.070
  228POPC   PO4 8256  24.424   5.997   9.564
  228POPC   GL1 8257  24.272   5.823   9.167
  228POPC   GL2 8258  24.551   5.867   8.935
  228POPC   C1A 8259  24.093   5.748   8.761
  228POPC   D2A 8260  24.234   5.566   8.382
  228POPC   C3A 8261  24.385   5.866   8.065
  228POPC   C4A 8262  24.484   5.688   7.666
  228POPC   C1B 8263  24.736   6.255   8.797
  228POPC   C2B 8264  24.686   6.414   8.382
  228POPC   C3B 8265  24.881   6.213   8.051
  228POPC   C4B 8266  24.823   6.086   7.619
  229POPC   NC3 8267  30.304  43.676   9.554
  229POPC   PO4 8268  30.878  44.022   9.624
  229POPC   GL1 8269  30.634  43.913   9.202
  229POPC   GL2 8270  30.404  43.628   9.077
  229POPC   C1A 8271  30.437  44.025   8.791
  229POPC   D2A 8272  30.635  43.948   8.421
  229POPC   C3A 8273  30.424  43.901   8.045
  229POPC   C4A 8274  30.660  43.922   7.703
  229POPC   C1B 8275  30.596  43.518   8.688
  229POPC   C2B 8276  30.632  43.480   8.217
  229POPC   C3B 8277  30.620  43.429   7.761
  229POPC   C4B 8278  30.635  43.349   7.313
  230POPC   NC3 8279   6.025  23.920   9.540
  230POPC   PO4 8280   5.484  23.843   9.388
  230POPC   GL1 8281   5.830  23.724   9.093
  230POPC   GL2 8282   5.840  24.060   9.031
  230POPC   C1A 8283   6.059  23.613   8.691
  230POPC   D2A 8284   6.049  23.762   8.239
  230POPC   C3A 8285   6.082  23.466   7.874
  230POPC   C4A 8286   6.031  23.389   7.397
  230POPC   C1B 8287   5.695  23.976   8.598
  230POPC   C2B 8288   5.815  24.213   8.222
  230POPC   C3B 8289   5.760  24.152   7.770
  230POPC   C4B 8290   5.360  24.090   7.524
  231POPC   NC3 8291  41.610   8.847   9.435
  231POPC   PO4 8292  41.524   9.483   9.280
  231POPC   GL1 8293  41.439   9.156   9.054
  231POPC   GL2 8294  41.753   9.041   8.966
  231POPC   C1A 8295  41.222   9.027   8.745
  231POPC   D2A 8296  41.254   8.762   8.382
  231POPC   C3A 8297  41.285   8.949   7.983
  231POPC   C4A 8298  41.364   9.053   7.516
  231POPC   C1B 8299  41.610   8.688   8.767
  231POPC   C2B 8300  41.618   8.396   8.451
  231POPC   C3B 8301  41.696   8.633   8.127
  231POPC   C4B 8302  41.718   8.763   7.727
  232POPC   NC3 8303  44.040  17.592   9.569
  232POPC   PO4 8304  43.457  17.452   9.293
  232POPC   GL1 8305  43.908  17.501   9.094
  232POPC   GL2 8306  44.246  17.703   9.109
  232POPC   C1A 8307  43.938  17.736   8.704
  232POPC   D2A 8308  43.698  17.677   8.358
  232POPC   C3A 8309  43.835  17.581   7.955
  232POPC   C4A 8310  43.665  17.263   7.731
  232POPC   C1B 8311  44.288  17.380   8.770
  232POPC   C2B 8312  44.251  17.523   8.323
  232POPC   C3B 8313  44.291  17.896   8.035
  232POPC   C4B 8314  44.357  17.932   7.574
  233POPC   NC3 8315  28.258  19.127   9.439
  233POPC   PO4 8316  28.594  18.531   9.429
  233POPC   GL1 8317  28.622  18.772   9.045
  233POPC   GL2 8318  28.508  19.114   8.998
  233POPC   C1A 8319  28.496  18.837   8.595
  233POPC   D2A 8320  28.211  18.834   8.272
  233POPC   C3A 8321  28.487  19.033   8.016
  233POPC   C4A 8322  28.509  19.301   7.681
  233POPC   C1B 8323  28.177  19.247   8.726
  233POPC   C2B 8324  28.171  19.469   8.323
  233POPC   C3B 8325  28.050  19.295   7.939
  233POPC   C4B 8326  27.672  19.239   7.716
  234POPC   NC3 8327   6.889  23.421   9.610
  234POPC   PO4 8328   6.431  23.841   9.708
  234POPC   GL1 8329   6.491  23.684   9.279
  234POPC   GL2 8330   6.327  23.917   9.068
  234POPC   C1A 8331   6.567  23.522   8.833
  234POPC   D2A 8332   6.515  23.634   8.396
  234POPC   C3A 8333   6.735  23.427   8.049
  234POPC   C4A 8334   7.029  23.518   7.727
  234POPC   C1B 8335   6.195  24.099   8.662
  234POPC   C2B 8336   6.392  24.136   8.272
  234POPC   C3B 8337   6.434  23.865   7.919
  234POPC   C4B 8338   6.164  23.867   7.557
  235POPC   NC3 8339  29.872   2.678   9.503
  235POPC   PO4 8340  29.964   2.229   9.090
  235POPC   GL1 8341  30.033   2.706   9.003
  235POPC   GL2 8342  29.863   3.031   9.146
  235POPC   C1A 8343  30.213   2.950   8.670
  235POPC   D2A 8344  30.291   2.894   8.242
  235POPC   C3A 8345  29.959   2.636   8.086
  235POPC   C4A 8346  29.917   2.410   7.746
  235POPC   C1B 8347  29.735   3.122   8.774
  235POPC   C2B 8348  29.788   3.037   8.342
  235POPC   C3B 8349  29.955   3.131   7.928
  235POPC   C4B 8350  29.741   3.178   7.552
  236POPC   NC3 8351  27.076   1.439   9.450
  236POPC   PO4 8352  26.420   1.440   9.468
  236POPC   GL1 8353  26.696   1.372   9.108
  236POPC   GL2 8354  26.818   1.097   9.112
  236POPC   C1A 8355  27.004   1.387   8.718
  236POPC   D2A 8356  27.136   1.525   8.281
  236POPC   C3A 8357  26.787   1.607   7.966
  236POPC   C4A 8358  26.783   1.532   7.520
  236POPC   C1B 8359  26.904   0.873   8.742
  236POPC   C2B 8360  26.781   0.922   8.308
  236POPC   C3B 8361  26.954   1.120   7.965
  236POPC   C4B 8362  27.141   1.005   7.578
  237POPC   NC3 8363  11.427  35.493   9.502
  237POPC   PO4 8364  10.843  35.725   9.357
  237POPC   GL1 8365  11.076  35.400   9.150
  237POPC   GL2 8366  10.902  35.066   9.187
  237POPC   C1A 8367  11.402  35.454   8.811
  237POPC   D2A 8368  11.542  35.638   8.385
  237POPC   C3A 8369  11.474  35.444   7.954
  237POPC   C4A 8370  11.205  35.321   7.548
  237POPC   C1B 8371  11.055  35.078   8.758
  237POPC   C2B 8372  11.198  35.246   8.384
  237POPC   C3B 8373  11.001  35.231   8.002
  237POPC   C4B 8374  10.960  34.912   7.693
  238POPC   NC3 8375  10.821  44.311   9.897
  238POPC   PO4 8376  10.478  43.781   9.719
  238POPC   GL1 8377  10.479  43.902   9.320
  238POPC   GL2 8378  10.143  43.823   9.328
  238POPC   C1A 8379  10.632  43.907   8.894
  238POPC   D2A 8380  10.565  44.068   8.475
  238POPC   C3A 8381  10.751  43.899   8.131
  238POPC   C4A 8382  10.569  43.964   7.740
  238POPC   C1B 8383  10.133  43.877   8.909
  238POPC   C2B 8384  10.165  43.738   8.494
  238POPC   C3B 8385  10.281  43.667   8.083
  238POPC   C4B 8386  10.076  43.871   7.748
  239POPC   NC3 8387  22.735  28.402   9.615
  239POPC   PO4 8388  23.392  28.580   9.507
  239POPC   GL1 8389  23.175  28.396   9.152
  239POPC   GL2 8390  22.823  28.477   9.138
  239POPC   C1A 8391  23.258  28.298   8.714
  239POPC   D2A 8392  23.247  28.520   8.319
  239POPC   C3A 8393  23.279  28.310   7.940
  239POPC   C4A 8394  23.107  28.437   7.581
  239POPC   C1B 8395  22.827  28.592   8.733
  239POPC   C2B 8396  22.772  28.314   8.400
  239POPC   C3B 8397  22.789  28.465   8.009
  239POPC   C4B 8398  22.609  28.433   7.629
  240POPC   NC3 8399  16.539   2.291   9.488
  240POPC   PO4 8400  16.813   1.662   9.541
  240POPC   GL1 8401  16.533   1.850   9.230
  240POPC   GL2 8402  16.832   2.030   9.162
  240POPC   C1A 8403  16.390   2.075   8.830
  240POPC   D2A 8404  16.555   2.292   8.461
  240POPC   C3A 8405  16.469   2.152   8.051
  240POPC   C4A 8406  16.642   2.098   7.682
  240POPC   C1B 8407  16.928   2.206   8.793
  240POPC   C2B 8408  17.108   2.345   8.430
  240POPC   C3B 8409  16.999   2.210   8.042
  240POPC   C4B 8410  17.225   2.287   7.681
  241POPC   NC3 8411  41.698  33.242   9.485
  241POPC   PO4 8412  41.386  32.706   9.310
  241POPC   GL1 8413  41.742  32.746   9.058
  241POPC   GL2 8414  41.724  33.103   8.970
  241POPC   C1A 8415  41.830  32.689   8.620
  241POPC   D2A 8416  41.892  33.009   8.313
  241POPC   C3A 8417  41.822  32.900   7.901
  241POPC   C4A 8418  41.473  32.704   7.757
  241POPC   C1B 8419  41.440  33.038   8.625
  241POPC   C2B 8420  41.389  33.033   8.189
  241POPC   C3B 8421  41.402  33.198   7.807
  241POPC   C4B 8422  41.270  33.313   7.430
  242POPC   NC3 8423  14.551  12.373   9.288
  242POPC   PO4 8424  14.140  12.874   9.462
  242POPC   GL1 8425  14.404  12.863   9.134
  242POPC   GL2 8426  14.194  12.659   8.942
  242POPC   C1A 8427  14.455  13.043   8.731
  242POPC   D2A 8428  14.318  12.930   8.332
  242POPC   C3A 8429  14.526  13.032   7.927
  242POPC   C4A 8430  14.576  12.693   7.618
  242POPC   C1B 8431  13.883  12.857   8.675
  242POPC   C2B 8432  13.832  12.975   8.253
  242POPC   C3B 8433  14.058  12.796   7.904
  242POPC   C4B 8434  14.159  12.992   7.530
  243POPC   NC3 8435  14.188   9.566   9.473
  243POPC   PO4 8436  14.321  10.109   9.709
  243POPC   GL1 8437  14.399   9.902   9.189
  243POPC   GL2 8438  14.076   9.773   9.028
  243POPC   C1A 8439  14.511   9.721   8.786
  243POPC   D2A 8440  14.762   9.652   8.440
  243POPC   C3A 8441  14.518   9.628   8.078
  243POPC   C4A 8442  14.723   9.346   7.814
  243POPC   C1B 8443  14.035   9.948   8.623
  243POPC   C2B 8444  14.081   9.900   8.178
  243POPC   C3B 8445  14.072   9.733   7.776
  243POPC   C4B 8446  14.214   9.847   7.378
  244POPC   NC3 8447  41.314  43.783   9.579
  244POPC   PO4 8448  41.624  44.298   9.893
  244POPC   GL1 8449  41.517  44.245   9.401
  244POPC   GL2 8450  41.680  43.930   9.231
  244POPC   C1A 8451  41.362  44.176   8.954
  244POPC   D2A 8452  41.375  44.003   8.548
  244POPC   C3A 8453  41.688  44.141   8.238
  244POPC   C4A 8454  41.643  44.062   7.789
  244POPC   C1B 8455  41.359  43.654   8.925
  244POPC   C2B 8456  41.273  43.480   8.474
  244POPC   C3B 8457  41.225  43.538   8.007
  244POPC   C4B 8458  41.479  43.588   7.601
  245POPC   NC3 8459  44.895  31.516   9.465
  245POPC   PO4 8460  44.208  31.310   9.496
  245POPC   GL1 8461  44.477  31.431   9.154
  245POPC   GL2 8462  44.497  31.799   9.132
  245POPC   C1A 8463  44.799  31.316   8.834
  245POPC   D2A 8464  44.683  31.166   8.438
  245POPC   C3A 8465  44.782  31.294   8.040
  245POPC   C4A 8466  44.786  31.452   7.639
  245POPC   C1B 8467  44.493  31.690   8.691
  245POPC   C2B 8468  44.380  31.686   8.271
  245POPC   C3B 8469  44.312  31.588   7.845
  245POPC   C4B 8470  44.133  31.800   7.494
  246POPC   NC3 8471  24.231  29.840   9.396
  246POPC   PO4 8472  24.705  30.315   9.413
  246POPC   GL1 8473  24.452  30.168   9.085
  246POPC   GL2 8474  24.182  30.370   9.013
  246POPC   C1A 8475  24.194  29.913   8.758
  246POPC   D2A 8476  23.958  29.869   8.379
  246POPC   C3A 8477  24.254  29.762   8.065
  246POPC   C4A 8478  24.452  29.547   7.700
  246POPC   C1B 8479  24.382  30.370   8.622
  246POPC   C2B 8480  24.176  30.318   8.290
  246POPC   C3B 8481  24.398  30.242   7.939
  246POPC   C4B 8482  24.312  30.017   7.606
  247POPC   NC3 8483   0.383  26.896   9.503
  247POPC   PO4 8484   0.640  26.273   9.637
  247POPC   GL1 8485   0.712  26.413   9.181
  247POPC   GL2 8486   0.622  26.768   9.090
  247POPC   C1A 8487   0.698  26.473   8.712
  247POPC   D2A 8488   0.425  26.647   8.409
  247POPC   C3A 8489   0.552  26.609   7.980
  247POPC   C4A 8490   0.353  26.807   7.596
  247POPC   C1B 8491   0.688  27.024   8.723
  247POPC   C2B 8492   0.789  27.047   8.315
  247POPC   C3B 8493   0.874  27.222   7.925
  247POPC   C4B 8494   0.806  27.123   7.513
  248POPC   NC3 8495  31.065  32.657   9.340
  248POPC   PO4 8496  30.622  33.137   9.575
  248POPC   GL1 8497  30.676  33.116   9.127
  248POPC   GL2 8498  30.606  32.795   9.026
  248POPC   C1A 8499  30.591  33.204   8.698
  248POPC   D2A 8500  30.730  33.065   8.341
  248POPC   C3A 8501  30.490  33.205   8.035
  248POPC   C4A 8502  30.671  33.104   7.667
  248POPC   C1B 8503  30.978  32.874   8.745
  248POPC   C2B 8504  31.072  32.678   8.366
  248POPC   C3B 8505  30.958  32.777   7.953
  248POPC   C4B 8506  30.659  32.606   7.697
  249POPC   NC3 8507  14.004   1.185   9.399
  249POPC   PO4 8508  13.421   1.443   9.387
  249POPC   GL1 8509  13.619   1.312   9.050
  249POPC   GL2 8510  13.482   0.971   9.161
  249POPC   C1A 8511  13.576   1.423   8.599
  249POPC   D2A 8512  13.496   1.108   8.273
  249POPC   C3A 8513  13.690   1.187   7.929
  249POPC   C4A 8514  14.091   1.141   7.843
  249POPC   C1B 8515  13.346   0.999   8.746
  249POPC   C2B 8516  13.145   0.739   8.469
  249POPC   C3B 8517  13.069   0.606   8.079
  249POPC   C4B 8518  13.319   0.862   7.814
  250POPC   NC3 8519  18.790  36.402   9.432
  250POPC   PO4 8520  19.354  36.098   9.684
  250POPC   GL1 8521  19.210  36.193   9.233
  250POPC   GL2 8522  19.276  36.540   9.275
  250POPC   C1A 8523  19.021  36.129   8.774
  250POPC   D2A 8524  18.670  35.960   8.501
  250POPC   C3A 8525  18.762  35.892   8.044
  250POPC   C4A 8526  19.000  36.111   7.741
  250POPC   C1B 8527  19.157  36.633   8.846
  250POPC   C2B 8528  19.366  36.619   8.452
  250POPC   C3B 8529  19.182  36.456   8.094
  250POPC   C4B 8530  19.247  36.566   7.707
  251POPC   NC3 8531   9.377   1.702   9.641
  251POPC   PO4 8532   9.823   2.192   9.408
  251POPC   GL1 8533   9.682   1.980   9.106
  251POPC   GL2 8534  10.001   1.812   9.040
  251POPC   C1A 8535   9.707   2.199   8.718
  251POPC   D2A 8536   9.940   2.100   8.338
  251POPC   C3A 8537   9.794   2.247   7.945
  251POPC   C4A 8538   9.664   2.099   7.503
  251POPC   C1B 8539   9.750   1.706   8.666
  251POPC   C2B 8540   9.628   1.704   8.230
  251POPC   C3B 8541   9.868   1.729   7.850
  251POPC   C4B 8542   9.796   1.485   7.473
  252POPC   NC3 8543  33.374   1.169   9.358
  252POPC   PO4 8544  33.883   0.868   9.273
  252POPC   GL1 8545  34.192   1.078   9.037
  252POPC   GL2 8546  34.045   1.416   9.126
  252POPC   C1A 8547  34.184   1.112   8.612
  252POPC   D2A 8548  33.825   1.083   8.401
  252POPC   C3A 8549  33.804   1.166   8.021
  252POPC   C4A 8550  33.926   0.896   7.745
  252POPC   C1B 8551  33.750   1.329   8.835
  252POPC   C2B 8552  33.531   1.514   8.557
  252POPC   C3B 8553  33.507   1.602   8.165
  252POPC   C4B 8554  33.674   1.581   7.787
  253POPC   NC3 8555   9.543  34.104   9.539
  253POPC   PO4 8556  10.064  33.665   9.458
  253POPC   GL1 8557   9.876  33.934   9.185
  253POPC   GL2 8558   9.593  33.748   9.150
  253POPC   C1A 8559   9.948  33.912   8.757
  253POPC   D2A 8560   9.794  33.553   8.551
  253POPC   C3A 8561   9.796  33.566   8.085
  253POPC   C4A 8562   9.894  33.969   7.913
  253POPC   C1B 8563   9.460  33.873   8.772
  253POPC   C2B 8564   9.540  33.958   8.336
  253POPC   C3B 8565   9.370  33.888   7.902
  253POPC   C4B 8566   9.461  33.948   7.449
  254POPC   NC3 8567   0.147   5.642   9.493
  254POPC   PO4 8568   0.408   6.232   9.472
  254POPC   GL1 8569   0.640   5.997   9.147
  254POPC   GL2 8570   0.495   5.649   9.090
  254POPC   C1A 8571   0.723   5.932   8.705
  254POPC   D2A 8572   0.646   5.845   8.276
  254POPC   C3A 8573   0.376   6.104   8.089
  254POPC   C4A 8574   0.433   6.179   7.682
  254POPC   C1B 8575   0.256   5.688   8.731
  254POPC   C2B 8576   0.105   5.721   8.331
  254POPC   C3B 8577   0.306   5.620   7.931
  254POPC   C4B 8578   0.140   5.757   7.539
  255POPC   NC3 8579  33.631  16.703   9.458
  255POPC   PO4 8580  34.172  16.773   9.722
  255POPC   GL1 8581  34.027  16.733   9.169
  255POPC   GL2 8582  33.817  17.007   9.116
  255POPC   C1A 8583  33.786  16.669   8.745
  255POPC   D2A 8584  33.476  16.770   8.397
  255POPC   C3A 8585  33.663  16.706   7.960
  255POPC   C4A 8586  33.704  16.331   7.680
  255POPC   C1B 8587  33.885  17.190   8.735
  255POPC   C2B 8588  33.888  17.070   8.329
  255POPC   C3B 8589  34.003  17.161   7.912
  255POPC   C4B 8590  33.698  17.137   7.585
  256POPC   NC3 8591  38.358  25.393   9.795
  256POPC   PO4 8592  38.670  25.115   9.254
  256POPC   GL1 8593  38.308  25.373   9.171
  256POPC   GL2 8594  38.012  25.201   9.068
  256POPC   C1A 8595  38.315  25.577   8.754
  256POPC   D2A 8596  38.369  25.415   8.343
  256POPC   C3A 8597  38.738  25.341   8.103
  256POPC   C4A 8598  38.798  25.414   7.682
  256POPC   C1B 8599  38.268  25.057   8.742
  256POPC   C2B 8600  38.547  24.963   8.423
  256POPC   C3B 8601  38.379  24.980   7.999
  256POPC   C4B 8602  38.135  25.000   7.632
  257POPC   NC3 8603  15.925  36.860   9.404
  257POPC   PO4 8604  15.795  37.457   9.188
  257POPC   GL1 8605  15.669  37.054   8.963
  257POPC   GL2 8606  15.864  36.709   8.927
  257POPC   C1A 8607  15.723  36.967   8.514
  257POPC   D2A 8608  16.082  36.752   8.279
  257POPC   C3A 8609  15.950  36.591   7.870
  257POPC   C4A 8610  15.944  36.814   7.507
  257POPC   C1B 8611  16.150  37.040   8.758
  257POPC   C2B 8612  16.119  37.246   8.325
  257POPC   C3B 8613  16.177  37.118   7.867
  257POPC   C4B 8614  16.158  37.255   7.389
  258POPC   NC3 8615   9.804  26.425   9.402
  258POPC   PO4 8616   9.417  26.006   9.801
  258POPC   GL1 8617   9.588  25.977   9.291
  258POPC   GL2 8618   9.951  25.946   9.188
  258POPC   C1A 8619   9.688  26.206   8.815
  258POPC   D2A 8620   9.962  26.213   8.404
  258POPC   C3A 8621   9.823  26.309   7.947
  258POPC   C4A 8622   9.982  26.082   7.543
  258POPC   C1B 8623   9.764  25.719   8.827
  258POPC   C2B 8624   9.695  25.777   8.388
  258POPC   C3B 8625   9.745  25.815   7.937
  258POPC   C4B 8626   9.446  25.625   7.686
  259POPC   NC3 8627  42.858  43.694   9.627
  259POPC   PO4 8628  42.979  44.304   9.368
  259POPC   GL1 8629  43.154  43.922   9.259
  259POPC   GL2 8630  42.948  43.688   9.096
  259POPC   C1A 8631  43.345  43.879   8.847
  259POPC   D2A 8632  43.322  44.074   8.442
  259POPC   C3A 8633  43.375  43.830   8.068
  259POPC   C4A 8634  43.391  43.973   7.661
  259POPC   C1B 8635  42.994  43.406   8.716
  259POPC   C2B 8636  42.967  43.425   8.249
  259POPC   C3B 8637  42.833  43.768   7.973
  259POPC   C4B 8638  42.904  43.904   7.537
  260POPC   NC3 8639  18.376  44.177   9.546
  260POPC   PO4 8640  18.045  43.642   9.522
  260POPC   GL1 8641  18.260  43.839   9.171
  260POPC   GL2 8642  18.104  44.151   9.081
  260POPC   C1A 8643  18.541  44.029   8.833
  260POPC   D2A 8644  18.436  44.127   8.382
  260POPC   C3A 8645  18.502  43.920   7.960
  260POPC   C4A 8646  18.470  43.763   7.497
  260POPC   C1B 8647  18.091  43.847   8.686
  260POPC   C2B 8648  18.024  43.840   8.225
  260POPC   C3B 8649  18.039  43.950   7.773
  260POPC   C4B 8650  17.909  44.337   7.568
  261POPC   NC3 8651  39.608  19.860   9.424
  261POPC   PO4 8652  38.989  19.460   9.543
  261POPC   GL1 8653  39.058  19.694   9.152
  261POPC   GL2 8654  39.069  20.044   9.143
  261POPC   C1A 8655  39.303  19.762   8.752
  261POPC   D2A 8656  39.277  19.558   8.341
  261POPC   C3A 8657  39.345  19.739   7.910
  261POPC   C4A 8658  39.418  19.470   7.480
  261POPC   C1B 8659  39.199  20.250   8.727
  261POPC   C2B 8660  39.409  20.279   8.331
  261POPC   C3B 8661  39.312  20.309   7.895
  261POPC   C4B 8662  39.048  20.088   7.667
  262POPC   NC3 8663   8.659   7.646   9.520
  262POPC   PO4 8664   8.970   6.998   9.553
  262POPC   GL1 8665   8.900   7.281   9.180
  262POPC   GL2 8666   9.166   7.493   9.067
  262POPC   C1A 8667   8.715   7.136   8.763
  262POPC   D2A 8668   8.574   7.245   8.316
  262POPC   C3A 8669   8.860   7.413   8.027
  262POPC   C4A 8670   9.171   7.104   7.878
  262POPC   C1B 8671   9.143   7.387   8.635
  262POPC   C2B 8672   9.352   7.447   8.252
  262POPC   C3B 8673   9.301   7.620   7.813
  262POPC   C4B 8674   9.386   7.739   7.369
  263POPC   NC3 8675  43.057  41.996   9.538
  263POPC   PO4 8676  43.043  42.629   9.521
  263POPC   GL1 8677  43.336  42.451   9.208
  263POPC   GL2 8678  43.198  42.139   9.050
  263POPC   C1A 8679  43.409  42.580   8.774
  263POPC   D2A 8680  43.166  42.374   8.460
  263POPC   C3A 8681  43.163  42.494   8.043
  263POPC   C4A 8682  43.346  42.328   7.693
  263POPC   C1B 8683  42.839  42.401   8.849
  263POPC   C2B 8684  42.723  42.613   8.422
  263POPC   C3B 8685  42.650  42.470   8.014
  263POPC   C4B 8686  42.823  42.271   7.630
  264POPC   NC3 8687  21.703   0.257   9.543
  264POPC   PO4 8688  22.109   0.857   9.561
  264POPC   GL1 8689  21.973   0.740   9.180
  264POPC   GL2 8690  22.010   0.378   9.153
  264POPC   C1A 8691  22.150   0.753   8.784
  264POPC   D2A 8692  22.066   0.523   8.410
  264POPC   C3A 8693  22.048   0.755   8.017
  264POPC   C4A 8694  22.010   0.423   7.718
  264POPC   C1B 8695  22.299   0.166   8.869
  264POPC   C2B 8696  22.256   0.054   8.449
  264POPC   C3B 8697  22.347   0.227   8.059
  264POPC   C4B 8698  22.574  44.937   7.854
  265POPC   NC3 8699  32.204  13.131   9.508
  265POPC   PO4 8700  32.289  12.520   9.378
  265POPC   GL1 8701  32.333  12.855   9.063
  265POPC   GL2 8702  32.002  12.975   9.067
  265POPC   C1A 8703  32.344  12.865   8.603
  265POPC   D2A 8704  32.125  12.976   8.231
  265POPC   C3A 8705  32.341  12.887   7.865
  265POPC   C4A 8706  32.696  12.634   7.772
  265POPC   C1B 8707  31.999  13.251   8.724
  265POPC   C2B 8708  31.737  13.310   8.374
  265POPC   C3B 8709  31.907  13.380   7.973
  265POPC   C4B 8710  31.850  13.023   7.770
  266POPC   NC3 8711  23.952   0.337   9.528
  266POPC   PO4 8712  24.442   0.874   9.519
  266POPC   GL1 8713  24.302   0.537   9.191
  266POPC   GL2 8714  24.541   0.268   9.234
  266POPC   C1A 8715  24.325   0.300   8.760
  266POPC   D2A 8716  24.687   0.299   8.419
  266POPC   C3A 8717  24.500   0.323   7.994
  266POPC   C4A 8718  24.267   0.685   7.802
  266POPC   C1B 8719  24.734   0.550   8.899
  266POPC   C2B 8720  24.499   0.749   8.582
  266POPC   C3B 8721  24.641   0.788   8.175
  266POPC   C4B 8722  24.912   0.582   7.876
  267POPC   NC3 8723   0.919   4.034   9.372
  267POPC   PO4 8724   1.208   4.603   9.384
  267POPC   GL1 8725   1.384   4.253   9.142
  267POPC   GL2 8726   1.137   4.109   8.907
  267POPC   C1A 8727   1.585   4.223   8.730
  267POPC   D2A 8728   1.337   4.237   8.340
  267POPC   C3A 8729   1.161   4.021   7.954
  267POPC   C4A 8730   1.339   4.141   7.553
  267POPC   C1B 8731   1.186   4.569   8.724
  267POPC   C2B 8732   1.299   4.743   8.297
  267POPC   C3B 8733   1.244   4.518   7.922
  267POPC   C4B 8734   0.990   4.552   7.569
  268POPC   NC3 8735   2.820   7.215   9.394
  268POPC   PO4 8736   2.440   7.741   9.400
  268POPC   GL1 8737   2.591   7.499   9.010
  268POPC   GL2 8738   2.897   7.246   8.912
  268POPC   C1A 8739   2.599   7.441   8.567
  268POPC   D2A 8740   2.965   7.567   8.379
  268POPC   C3A 8741   2.775   7.840   8.128
  268POPC   C4A 8742   2.766   7.617   7.800
  268POPC   C1B 8743   2.463   7.026   8.840
  268POPC   C2B 8744   2.424   6.967   8.394
  268POPC   C3B 8745   2.730   7.201   8.108
  268POPC   C4B 8746   2.781   7.152   7.636
  269POPC   NC3 8747  34.352   9.882   9.529
  269POPC   PO4 8748  34.885   9.648   9.657
  269POPC   GL1 8749  34.640   9.584   9.187
  269POPC   GL2 8750  34.255   9.558   9.161
  269POPC   C1A 8751  34.703   9.760   8.732
  269POPC   D2A 8752  34.831  10.026   8.362
  269POPC   C3A 8753  34.754   9.748   8.008
  269POPC   C4A 8754  34.568   9.626   7.610
  269POPC   C1B 8755  34.203   9.873   8.780
  269POPC   C2B 8756  34.325   9.903   8.316
  269POPC   C3B 8757  34.155   9.677   7.933
  269POPC   C4B 8758  34.113   9.398   7.558
  270POPC   NC3 8759  14.967   1.004   9.598
  270POPC   PO4 8760  14.981   1.612   9.683
  270POPC   GL1 8761  14.876   1.385   9.258
  270POPC   GL2 8762  15.220   1.282   9.146
  270POPC   C1A 8763  14.839   1.255   8.804
  270POPC   D2A 8764  15.194   1.381   8.536
  270POPC   C3A 8765  15.294   1.368   8.106
  270POPC   C4A 8766  15.324   1.530   7.704
  270POPC   C1B 8767  15.265   0.949   8.811
  270POPC   C2B 8768  15.112   0.886   8.381
  270POPC   C3B 8769  15.311   0.854   7.965
  270POPC   C4B 8770  15.555   1.083   7.664
  271POPC   NC3 8771  39.153   8.319   9.538
  271POPC   PO4 8772  39.414   7.752   9.362
  271POPC   GL1 8773  39.158   8.020   9.116
  271POPC   GL2 8774  39.365   8.335   9.073
  271POPC   C1A 8775  39.157   8.090   8.676
  271POPC   D2A 8776  39.217   7.770   8.408
  271POPC   C3A 8777  39.371   7.898   8.044
  271POPC   C4A 8778  39.126   7.986   7.731
  271POPC   C1B 8779  38.986   8.538   8.881
  271POPC   C2B 8780  38.854   8.639   8.455
  271POPC   C3B 8781  39.153   8.609   8.139
  271POPC   C4B 8782  39.446   8.383   7.876
  272POPC   NC3 8783  23.520  18.417   9.402
  272POPC   PO4 8784  23.886  17.788   9.407
  272POPC   GL1 8785  23.845  18.105   9.126
  272POPC   GL2 8786  23.536  18.036   9.070
  272POPC   C1A 8787  23.877  18.036   8.692
  272POPC   D2A 8788  23.659  18.087   8.313
  272POPC   C3A 8789  23.964  18.107   7.994
  272POPC   C4A 8790  24.151  18.521   7.947
  272POPC   C1B 8791  23.537  18.394   8.760
  272POPC   C2B 8792  23.764  18.588   8.401
  272POPC   C3B 8793  23.625  18.510   7.977
  272POPC   C4B 8794  23.464  18.117   7.840
  273POPC   NC3 8795  20.776  40.460   9.617
  273POPC   PO4 8796  20.945  41.060   9.869
  273POPC   GL1 8797  20.740  40.921   9.329
  273POPC   GL2 8798  20.817  40.620   9.133
  273POPC   C1A 8799  20.544  40.946   8.850
  273POPC   D2A 8800  20.438  40.698   8.425
  273POPC   C3A 8801  20.563  40.723   7.955
  273POPC   C4A 8802  20.584  40.445   7.556
  273POPC   C1B 8803  20.917  40.661   8.665
  273POPC   C2B 8804  20.872  40.933   8.295
  273POPC   C3B 8805  21.135  40.991   7.938
  273POPC   C4B 8806  21.056  40.616   7.751
  274POPC   NC3 8807  37.920  37.950   9.450
  274POPC   PO4 8808  37.387  37.545   9.507
  274POPC   GL1 8809  37.789  37.477   9.212
  274POPC   GL2 8810  37.848  37.747   8.949
  274POPC   C1A 8811  38.075  37.302   8.854
  274POPC   D2A 8812  38.119  37.430   8.397
  274POPC   C3A 8813  37.787  37.598   8.182
  274POPC   C4A 8814  37.644  37.431   7.794
  274POPC   C1B 8815  38.099  37.911   8.559
  274POPC   C2B 8816  38.001  38.066   8.112
  274POPC   C3B 8817  37.681  37.980   7.780
  274POPC   C4B 8818  37.580  38.226   7.405
  275POPC   NC3 8819  44.198   4.538   9.458
  275POPC   PO4 8820  44.564   4.010   9.681
  275POPC   GL1 8821  44.536   4.193   9.258
  275POPC   GL2 8822  44.334   4.035   9.038
  275POPC   C1A 8823  44.704   4.290   8.821
  275POPC   D2A 8824   0.045   4.259   8.510
  275POPC   C3A 8825  44.892   4.311   8.091
  275POPC   C4A 8826  44.670   4.062   7.755
  275POPC   C1B 8827  44.189   4.090   8.646
  275POPC   C2B 8828  44.368   4.327   8.353
  275POPC   C3B 8829  44.316   4.374   7.943
  275POPC   C4B 8830  44.604   4.589   7.789
  276POPC   NC3 8831  14.254  26.403   9.917
  276POPC   PO4 8832  14.326  26.989   9.602
  276POPC   GL1 8833  14.421  26.902   9.186
  276POPC   GL2 8834  14.687  27.081   9.057
  276POPC   C1A 8835  14.360  26.751   8.768
  276POPC   D2A 8836  14.332  26.735   8.326
  276POPC   C3A 8837  14.624  26.596   8.014
  276POPC   C4A 8838  14.363  26.801   7.751
  276POPC   C1B 8839  14.504  27.231   8.723
  276POPC   C2B 8840  14.693  27.125   8.376
  276POPC   C3B 8841  14.638  27.162   7.991
  276POPC   C4B 8842  14.417  27.293   7.637
  277POPC   NC3 8843  31.413  16.922   9.598
  277POPC   PO4 8844  31.825  16.377   9.600
  277POPC   GL1 8845  31.619  16.607   9.261
  277POPC   GL2 8846  31.806  16.961   9.269
  277POPC   C1A 8847  31.298  16.651   8.924
  277POPC   D2A 8848  31.143  16.396   8.572
  277POPC   C3A 8849  31.154  16.640   8.197
  277POPC   C4A 8850  31.444  16.634   7.877
  277POPC   C1B 8851  31.781  16.840   8.843
  277POPC   C2B 8852  31.561  16.860   8.480
  277POPC   C3B 8853  31.817  16.826   8.145
  277POPC   C4B 8854  31.874  16.869   7.704
  278POPC   NC3 8855   0.162  16.566   9.399
  278POPC   PO4 8856  44.663  16.824   9.610
  278POPC   GL1 8857  44.642  16.797   9.195
  278POPC   GL2 8858  44.888  16.976   9.142
  278POPC   C1A 8859  44.741  16.600   8.798
  278POPC   D2A 8860  44.489  16.500   8.449
  278POPC   C3A 8861  44.700  16.471   8.053
  278POPC   C4A 8862  44.754  16.789   7.764
  278POPC   C1B 8863  44.749  17.099   8.748
  278POPC   C2B 8864  44.850  16.889   8.346
  278POPC   C3B 8865   0.061  17.112   8.010
  278POPC   C4B 8866  44.925  17.267   7.618
  279POPC   NC3 8867  34.308  30.320   9.507
  279POPC   PO4 8868  34.630  29.612   9.443
  279POPC   GL1 8869  34.670  29.772   9.085
  279POPC   GL2 8870  34.396  29.989   9.127
  279POPC   C1A 8871  34.758  29.851   8.660
  279POPC   D2A 8872  34.522  29.869   8.285
  279POPC   C3A 8873  34.664  30.099   7.916
  279POPC   C4A 8874  34.849  29.765   7.662
  279POPC   C1B 8875  34.232  29.826   8.755
  279POPC   C2B 8876  34.009  29.876   8.395
  279POPC   C3B 8877  34.146  30.039   7.994
  279POPC   C4B 8878  34.328  29.838   7.617
  280POPC   NC3 8879  41.411  24.952   9.630
  280POPC   PO4 8880  41.212  25.551   9.393
  280POPC   GL1 8881  41.561  25.404   9.147
  280POPC   GL2 8882  41.596  25.064   9.182
  280POPC   C1A 8883  41.712  25.458   8.717
  280POPC   D2A 8884  41.549  25.326   8.314
  280POPC   C3A 8885  41.698  25.590   8.000
  280POPC   C4A 8886  41.820  25.471   7.616
  280POPC   C1B 8887  41.495  24.994   8.782
  280POPC   C2B 8888  41.426  24.833   8.399
  280POPC   C3B 8889  41.234  24.852   8.013
  280POPC   C4B 8890  41.450  24.738   7.664
  281POPC   NC3 8891   6.522  34.223   9.573
  281POPC   PO4 8892   6.880  33.694   9.468
  281POPC   GL1 8893   6.743  33.938   9.145
  281POPC   GL2 8894   6.400  33.910   9.180
  281POPC   C1A 8895   6.737  33.821   8.710
  281POPC   D2A 8896   6.954  33.871   8.354
  281POPC   C3A 8897   6.748  33.748   8.021
  281POPC   C4A 8898   6.566  33.709   7.669
  281POPC   C1B 8899   6.247  33.936   8.757
  281POPC   C2B 8900   6.420  34.014   8.324
  281POPC   C3B 8901   6.428  34.171   7.870
  281POPC   C4B 8902   6.268  34.037   7.429
  282POPC   NC3 8903  34.858  15.604   9.476
  282POPC   PO4 8904  35.299  15.016   9.526
  282POPC   GL1 8905  35.351  15.215   9.150
  282POPC   GL2 8906  35.119  15.480   9.047
  282POPC   C1A 8907  35.491  15.314   8.716
  282POPC   D2A 8908  35.499  15.498   8.317
  282POPC   C3A 8909  35.739  15.300   7.978
  282POPC   C4A 8910  35.555  15.288   7.601
  282POPC   C1B 8911  35.029  15.078   8.806
  282POPC   C2B 8912  35.260  14.927   8.448
  282POPC   C3B 8913  35.289  15.086   8.032
  282POPC   C4B 8914  34.990  15.268   7.763
  283POPC   NC3 8915  40.964  29.850   9.494
  283POPC   PO4 8916  41.722  29.638   9.509
  283POPC   GL1 8917  41.503  29.719   9.140
  283POPC   GL2 8918  41.184  29.576   9.116
  283POPC   C1A 8919  41.667  29.603   8.742
  283POPC   D2A 8920  41.890  29.728   8.394
  283POPC   C3A 8921  41.577  29.795   8.123
  283POPC   C4A 8922  41.528  29.753   7.712
  283POPC   C1B 8923  41.148  29.723   8.683
  283POPC   C2B 8924  41.192  30.062   8.356
  283POPC   C3B 8925  41.191  30.081   7.895
  283POPC   C4B 8926  41.117  29.857   7.448
  284POPC   NC3 8927  40.942  18.721   9.673
  284POPC   PO4 8928  40.619  19.234   9.452
  284POPC   GL1 8929  40.738  19.166   9.041
  284POPC   GL2 8930  40.886  18.865   9.134
  284POPC   C1A 8931  40.680  18.938   8.629
  284POPC   D2A 8932  40.359  18.926   8.304
  284POPC   C3A 8933  40.518  19.191   7.969
  284POPC   C4A 8934  40.903  19.034   7.807
  284POPC   C1B 8935  41.086  18.683   8.767
  284POPC   C2B 8936  41.045  18.779   8.294
  284POPC   C3B 8937  41.151  18.594   7.884
  284POPC   C4B 8938  41.102  18.475   7.446
  285POPC   NC3 8939  10.058  39.027   9.523
  285POPC   PO4 8940   9.718  39.613   9.652
  285POPC   GL1 8941   9.638  39.306   9.277
  285POPC   GL2 8942   9.894  39.143   9.067
  285POPC   C1A 8943   9.429  39.181   8.859
  285POPC   D2A 8944   9.695  39.208   8.471
  285POPC   C3A 8945   9.516  39.192   8.052
  285POPC   C4A 8946   9.211  39.473   7.853
  285POPC   C1B 8947  10.237  39.040   8.825
  285POPC   C2B 8948  10.142  38.955   8.436
  285POPC   C3B 8949  10.071  39.175   8.075
  285POPC   C4B 8950   9.906  39.078   7.691
  286POPC   NC3 8951  16.136  33.022   9.626
  286POPC   PO4 8952  15.469  32.979   9.509
  286POPC   GL1 8953  15.824  33.182   9.213
  286POPC   GL2 8954  16.181  33.020   9.132
  286POPC   C1A 8955  15.890  33.172   8.745
  286POPC   D2A 8956  16.141  33.055   8.378
  286POPC   C3A 8957  15.928  33.273   8.046
  286POPC   C4A 8958  15.614  33.012   7.857
  286POPC   C1B 8959  16.146  32.713   8.802
  286POPC   C2B 8960  16.272  32.551   8.417
  286POPC   C3B 8961  16.129  32.572   7.993
  286POPC   C4B 8962  16.090  32.921   7.727
  287POPC   NC3 8963  34.916  13.250   9.496
  287POPC   PO4 8964  34.381  13.757   9.570
  287POPC   GL1 8965  34.452  13.621   9.143
  287POPC   GL2 8966  34.714  13.444   9.075
  287POPC   C1A 8967  34.496  13.800   8.745
  287POPC   D2A 8968  34.490  13.680   8.325
  287POPC   C3A 8969  34.473  13.988   8.005
  287POPC   C4A 8970  34.692  13.823   7.655
  287POPC   C1B 8971  34.835  13.157   8.745
  287POPC   C2B 8972  34.816  13.255   8.286
  287POPC   C3B 8973  34.692  13.273   7.849
  287POPC   C4B 8974  34.575  13.386   7.426
  288POPC   NC3 8975  16.959   8.308   9.522
  288POPC   PO4 8976  16.505   7.865   9.608
  288POPC   GL1 8977  16.554   8.093   9.209
  288POPC   GL2 8978  16.887   7.987   9.134
  288POPC   C1A 8979  16.581   8.308   8.771
  288POPC   D2A 8980  16.596   8.638   8.414
  288POPC   C3A 8981  16.657   8.503   7.956
  288POPC   C4A 8982  16.930   8.347   7.593
  288POPC   C1B 8983  17.016   8.016   8.728
  288POPC   C2B 8984  16.921   8.211   8.338
  288POPC   C3B 8985  17.150   8.111   7.980
  288POPC   C4B 8986  17.168   7.744   7.750
  289POPC   NC3 8987  40.891   7.632   9.365
  289POPC   PO4 8988  40.615   8.235   9.495
  289POPC   GL1 8989  40.715   8.394   9.100
  289POPC   GL2 8990  40.875   8.087   9.062
  289POPC   C1A 8991  40.654   8.259   8.650
  289POPC   D2A 8992  40.433   8.229   8.277
  289POPC   C3A 8993  40.700   8.162   7.956
  289POPC   C4A 8994  40.898   8.276   7.600
  289POPC   C1B 8995  41.044   7.895   8.713
  289POPC   C2B 8996  40.952   7.800   8.307
  289POPC   C3B 8997  41.141   7.915   7.917
  289POPC   C4B 8998  40.902   7.750   7.571
  290POPC   NC3 8999  35.361  41.502   9.528
  290POPC   PO4 9000  35.556  41.050   9.318
  290POPC   GL1 9001  35.271  41.339   9.047
  290POPC   GL2 9002  35.192  41.714   9.098
  290POPC   C1A 9003  35.041  41.332   8.650
  290POPC   D2A 9004  35.152  41.136   8.257
  290POPC   C3A 9005  35.091  41.363   7.856
  290POPC   C4A 9006  35.354  41.405   7.469
  290POPC   C1B 9007  35.142  41.825   8.668
  290POPC   C2B 9008  35.288  41.636   8.280
  290POPC   C3B 9009  35.442  41.730   7.860
  290POPC   C4B 9010  35.109  41.859   7.564
  291POPC   NC3 9011   8.398  38.267   9.393
  291POPC   PO4 9012   7.798  38.572   9.435
  291POPC   GL1 9013   8.081  38.526   9.082
  291POPC   GL2 9014   8.400  38.726   9.085
  291POPC   C1A 9015   8.064  38.222   8.717
  291POPC   D2A 9016   7.908  38.046   8.319
  291POPC   C3A 9017   7.829  38.365   8.005
  291POPC   C4A 9018   7.950  38.424   7.562
  291POPC   C1B 9019   8.402  38.619   8.669
  291POPC   C2B 9020   8.220  38.523   8.283
  291POPC   C3B 9021   8.343  38.324   7.908
  291POPC   C4B 9022   8.605  38.224   7.570
  292POPC   NC3 9023  41.975  26.734   9.292
  292POPC   PO4 9024  42.618  26.992   9.496
  292POPC   GL1 9025  42.644  26.735   9.143
  292POPC   GL2 9026  42.471  26.415   9.193
  292POPC   C1A 9027  42.472  26.849   8.761
  292POPC   D2A 9028  42.108  26.846   8.497
  292POPC   C3A 9029  42.307  26.968   8.134
  292POPC   C4A 9030  42.636  26.911   7.840
  292POPC   C1B 9031  42.297  26.370   8.745
  292POPC   C2B 9032  42.424  26.480   8.296
  292POPC   C3B 9033  42.279  26.521   7.853
  292POPC   C4B 9034  42.191  26.278   7.461
  293POPC   NC3 9035  16.811   9.969   9.444
  293POPC   PO4 9036  16.388   9.434   9.504
  293POPC   GL1 9037  16.326   9.619   9.122
  293POPC   GL2 9038  16.131   9.329   9.054
  293POPC   C1A 9039  16.651   9.702   8.771
  293POPC   D2A 9040  17.020   9.579   8.489
  293POPC   C3A 9041  16.903   9.606   8.040
  293POPC   C4A 9042  16.795   9.702   7.611
  293POPC   C1B 9043  16.195   9.469   8.650
  293POPC   C2B 9044  16.434   9.526   8.307
  293POPC   C3B 9045  16.390   9.590   7.900
  293POPC   C4B 9046  16.417  10.045   7.800
  294POPC   NC3 9047   0.695  21.067   9.460
  294POPC   PO4 9048   0.215  21.588   9.549
  294POPC   GL1 9049   0.320  21.331   9.204
  294POPC   GL2 9050   0.653  21.477   9.134
  294POPC   C1A 9051   0.398  21.090   8.820
  294POPC   D2A 9052   0.201  21.107   8.418
  294POPC   C3A 9053   0.419  21.230   8.050
  294POPC   C4A 9054   0.317  21.248   7.626
  294POPC   C1B 9055   0.489  21.594   8.722
  294POPC   C2B 9056   0.750  21.523   8.350
  294POPC   C3B 9057   0.816  21.525   7.912
  294POPC   C4B 9058   0.730  21.459   7.452
  295POPC   NC3 9059   1.306  19.910   9.538
  295POPC   PO4 9060   0.973  19.400   9.196
  295POPC   GL1 9061   1.105  19.836   9.071
  295POPC   GL2 9062   1.432  20.033   9.069
  295POPC   C1A 9063   1.140  19.891   8.646
  295POPC   D2A 9064   1.015  19.627   8.325
  295POPC   C3A 9065   0.983  19.945   8.060
  295POPC   C4A 9066   1.028  19.957   7.665
  295POPC   C1B 9067   1.583  19.661   8.868
  295POPC   C2B 9068   1.525  19.529   8.451
  295POPC   C3B 9069   1.467  19.733   8.058
  295POPC   C4B 9070   1.471  19.738   7.621
  296POPC   NC3 9071  27.522  18.453   9.452
  296POPC   PO4 9072  27.776  17.859   9.509
  296POPC   GL1 9073  27.827  18.151   9.141
  296POPC   GL2 9074  27.872  18.541   9.092
  296POPC   C1A 9075  27.640  18.259   8.737
  296POPC   D2A 9076  27.725  18.426   8.323
  296POPC   C3A 9077  27.559  18.159   7.994
  296POPC   C4A 9078  27.343  18.274   7.633
  296POPC   C1B 9079  28.086  18.529   8.711
  296POPC   C2B 9080  28.164  18.155   8.460
  296POPC   C3B 9081  28.055  18.159   8.036
  296POPC   C4B 9082  27.879  18.445   7.749
  297POPC   NC3 9083   9.769   5.828   9.718
  297POPC   PO4 9084   9.580   6.368   9.370
  297POPC   GL1 9085   9.813   5.999   9.238
  297POPC   GL2 9086   9.505   5.984   9.017
  297POPC   C1A 9087   9.896   5.667   8.905
  297POPC   D2A 9088   9.679   5.758   8.500
  297POPC   C3A 9089   9.879   5.779   8.085
  297POPC   C4A 9090   9.793   5.751   7.661
  297POPC   C1B 9091   9.459   6.300   8.661
  297POPC   C2B 9092   9.615   6.264   8.255
  297POPC   C3B 9093   9.457   6.063   7.903
  297POPC   C4B 9094   9.474   6.077   7.450
  298POPC   NC3 9095  24.952  26.110   9.378
  298POPC   PO4 9096  25.353  25.552   9.462
  298POPC   GL1 9097  25.242  25.779   9.118
  298POPC   GL2 9098  25.387  26.091   9.124
  298POPC   C1A 9099  25.212  25.914   8.680
  298POPC   D2A 9100  25.368  26.159   8.329
  298POPC   C3A 9101  25.152  26.016   7.955
  298POPC   C4A 9102  25.128  25.839   7.536
  298POPC   C1B 9103  25.637  26.256   8.790
  298POPC   C2B 9104  25.750  26.512   8.424
  298POPC   C3B 9105  25.694  26.390   7.983
  298POPC   C4B 9106  25.582  26.082   7.650
  299POPC   NC3 9107  13.383  18.963   9.537
  299POPC   PO4 9108  14.075  19.142   9.405
  299POPC   GL1 9109  13.986  18.845   9.103
  299POPC   GL2 9110  13.626  18.866   9.108
  299POPC   C1A 9111  13.984  18.876   8.696
  299POPC   D2A 9112  13.646  19.035   8.462
  299POPC   C3A 9113  13.778  18.977   8.042
  299POPC   C4A 9114  13.663  19.102   7.625
  299POPC   C1B 9115  13.221  18.708   8.916
  299POPC   C2B 9116  13.211  18.735   8.476
  299POPC   C3B 9117  13.279  19.001   8.104
  299POPC   C4B 9118  13.230  18.835   7.696
  300POPC   NC3 9119  15.634   2.544   9.444
  300POPC   PO4 9120  16.106   3.103   9.486
  300POPC   GL1 9121  15.805   2.962   9.171
  300POPC   GL2 9122  16.117   2.897   8.981
  300POPC   C1A 9123  15.684   2.768   8.754
  300POPC   D2A 9124  15.834   2.949   8.363
  300POPC   C3A 9125  15.861   2.747   7.953
  300POPC   C4A 9126  15.973   2.917   7.568
  300POPC   C1B 9127  16.234   2.682   8.583
  300POPC   C2B 9128  16.329   2.637   8.130
  300POPC   C3B 9129  16.284   2.485   7.689
  300POPC   C4B 9130  16.417   2.300   7.268
  301POPC   NC3 9131   1.080   7.237   9.431
  301POPC   PO4 9132   0.521   7.514   9.581
  301POPC   GL1 9133   0.597   7.459   9.163
  301POPC   GL2 9134   0.707   7.147   9.085
  301POPC   C1A 9135   0.345   7.528   8.785
  301POPC   D2A 9136   0.072   7.465   8.447
  301POPC   C3A 9137   0.217   7.589   8.055
  301POPC   C4A 9138   0.364   7.437   7.665
  301POPC   C1B 9139   0.839   7.395   8.726
  301POPC   C2B 9140   0.590   7.337   8.383
  301POPC   C3B 9141   0.709   7.379   8.029
  301POPC   C4B 9142   0.857   7.596   7.721
  302POPC   NC3 9143  44.589  23.577   9.584
  302POPC   PO4 9144  44.747  24.052   9.200
  302POPC   GL1 9145  44.585  23.880   8.923
  302POPC   GL2 9146  44.544  23.537   9.085
  302POPC   C1A 9147  44.789  23.948   8.539
  302POPC   D2A 9148  44.828  23.665   8.224
  302POPC   C3A 9149  44.724  23.836   7.832
  302POPC   C4A 9150  44.994  24.041   7.541
  302POPC   C1B 9151  44.646  23.436   8.683
  302POPC   C2B 9152  44.354  23.315   8.402
  302POPC   C3B 9153  44.412  23.447   8.031
  302POPC   C4B 9154  44.292  23.612   7.683
  303POPC   NC3 9155  31.581  14.772   9.329
  303POPC   PO4 9156  31.657  15.392   9.619
  303POPC   GL1 9157  31.477  15.245   9.175
  303POPC   GL2 9158  31.116  15.396   9.094
  303POPC   C1A 9159  31.676  15.125   8.794
  303POPC   D2A 9160  31.600  15.277   8.415
  303POPC   C3A 9161  31.745  15.097   8.047
  303POPC   C4A 9162  31.675  15.175   7.639
  303POPC   C1B 9163  31.161  15.229   8.696
  303POPC   C2B 9164  31.172  15.013   8.306
  303POPC   C3B 9165  31.259  15.219   7.946
  303POPC   C4B 9166  31.189  15.291   7.541
  304POPC   NC3 9167  11.428  31.993   9.473
  304POPC   PO4 9168  11.567  32.608   9.390
  304POPC   GL1 9169  11.367  32.434   9.070
  304POPC   GL2 9170  11.148  32.194   9.103
  304POPC   C1A 9171  11.299  32.402   8.650
  304POPC   D2A 9172  11.581  32.212   8.434
  304POPC   C3A 9173  11.357  32.120   8.104
  304POPC   C4A 9174  11.478  32.091   7.712
  304POPC   C1B 9175  11.180  31.912   8.708
  304POPC   C2B 9176  11.045  31.753   8.303
  304POPC   C3B 9177  11.082  31.769   7.854
  304POPC   C4B 9178  11.199  31.826   7.391
  305POPC   NC3 9179   1.585   4.931   9.351
  305POPC   PO4 9180   2.166   5.322   9.218
  305POPC   GL1 9181   2.035   4.979   9.069
  305POPC   GL2 9182   2.367   4.808   9.122
  305POPC   C1A 9183   1.792   5.060   8.671
  305POPC   D2A 9184   1.855   5.314   8.286
  305POPC   C3A 9185   1.850   5.236   7.827
  305POPC   C4A 9186   1.849   4.954   7.475
  305POPC   C1B 9187   2.322   4.945   8.670
  305POPC   C2B 9188   2.289   4.725   8.277
  305POPC   C3B 9189   2.141   4.808   7.882
  305POPC   C4B 9190   2.364   5.022   7.597
  306POPC   NC3 9191   9.889   9.698   9.346
  306POPC   PO4 9192   9.244   9.801   9.510
  306POPC   GL1 9193   9.459   9.894   9.129
  306POPC   GL2 9194   9.516   9.557   8.969
  306POPC   C1A 9195   9.539   9.975   8.699
  306POPC   D2A 9196   9.512   9.722   8.339
  306POPC   C3A 9197   9.642   9.869   7.938
  306POPC   C4A 9198   9.689   9.704   7.555
  306POPC   C1B 9199   9.909   9.600   8.694
  306POPC   C2B 9200  10.032   9.794   8.296
  306POPC   C3B 9201  10.123   9.660   7.864
  306POPC   C4B 9202  10.185   9.697   7.410
  307POPC   NC3 9203  39.744   5.205   9.434
  307POPC   PO4 9204  40.377   4.829   9.418
  307POPC   GL1 9205  40.151   5.085   9.162
  307POPC   GL2 9206  40.401   5.025   8.934
  307POPC   C1A 9207  40.012   5.325   8.796
  307POPC   D2A 9208  40.235   5.204   8.427
  307POPC   C3A 9209  40.003   5.269   8.080
  307POPC   C4A 9210  39.820   5.201   7.686
  307POPC   C1B 9211  40.343   4.727   8.628
  307POPC   C2B 9212  40.126   4.691   8.265
  307POPC   C3B 9213  40.101   4.786   7.872
  307POPC   C4B 9214  39.896   4.719   7.510
  308POPC   NC3 9215  13.941  23.343   9.483
  308POPC   PO4 9216  13.488  22.779   9.493
  308POPC   GL1 9217  13.508  22.760   9.104
  308POPC   GL2 9218  13.875  22.782   9.106
  308POPC   C1A 9219  13.610  22.622   8.719
  308POPC   D2A 9220  13.846  22.729   8.386
  308POPC   C3A 9221  13.699  23.034   8.143
  308POPC   C4A 9222  13.381  23.046   7.821
  308POPC   C1B 9223  13.737  23.124   8.796
  308POPC   C2B 9224  13.828  23.428   8.470
  308POPC   C3B 9225  14.032  23.469   8.058
  308POPC   C4B 9226  13.875  23.281   7.683
  309POPC   NC3 9227  23.664   1.863   9.644
  309POPC   PO4 9228  23.852   2.416   9.495
  309POPC   GL1 9229  23.822   2.158   9.130
  309POPC   GL2 9230  23.763   1.815   9.144
  309POPC   C1A 9231  23.627   2.096   8.726
  309POPC   D2A 9232  23.859   2.082   8.346
  309POPC   C3A 9233  23.656   2.210   7.970
  309POPC   C4A 9234  23.992   2.247   7.673
  309POPC   C1B 9235  23.626   1.573   8.726
  309POPC   C2B 9236  23.562   1.668   8.264
  309POPC   C3B 9237  23.822   1.736   7.854
  309POPC   C4B 9238  23.856   1.663   7.383
  310POPC   NC3 9239  27.686  23.907   9.769
  310POPC   PO4 9240  27.553  23.459   9.774
  310POPC   GL1 9241  27.559  23.657   9.323
  310POPC   GL2 9242  27.442  24.004   9.286
  310POPC   C1A 9243  27.660  23.690   8.826
  310POPC   D2A 9244  27.844  23.637   8.360
  310POPC   C3A 9245  27.591  23.641   7.949
  310POPC   C4A 9246  27.256  23.713   7.622
  310POPC   C1B 9247  27.442  24.156   8.820
  310POPC   C2B 9248  27.519  24.035   8.365
  310POPC   C3B 9249  27.473  24.151   7.914
  310POPC   C4B 9250  27.308  24.263   7.499
  311POPC   NC3 9251   1.772  11.274  10.070
  311POPC   PO4 9252   2.115  10.985   9.747
  311POPC   GL1 9253   1.985  11.028   9.268
  311POPC   GL2 9254   2.273  11.119   9.065
  311POPC   C1A 9255   1.787  11.119   8.794
  311POPC   D2A 9256   1.812  11.372   8.355
  311POPC   C3A 9257   1.899  11.230   7.915
  311POPC   C4A 9258   1.709  11.133   7.493
  311POPC   C1B 9259   2.238  11.300   8.640
  311POPC   C2B 9260   2.320  11.289   8.194
  311POPC   C3B 9261   2.369  11.403   7.752
  311POPC   C4B 9262   2.374  11.331   7.293
  312POPC   NC3 9263  40.965  42.449   9.645
  312POPC   PO4 9264  40.711  41.894   9.513
  312POPC   GL1 9265  40.799  42.175   9.181
  312POPC   GL2 9266  40.605  42.457   9.256
  312POPC   C1A 9267  40.710  42.252   8.738
  312POPC   D2A 9268  40.881  42.218   8.306
  312POPC   C3A 9269  40.604  42.186   7.973
  312POPC   C4A 9270  40.667  42.471   7.662
  312POPC   C1B 9271  40.839  42.695   8.962
  312POPC   C2B 9272  40.915  42.684   8.526
  312POPC   C3B 9273  40.793  42.740   8.096
  312POPC   C4B 9274  41.107  42.702   7.760
  313POPC   NC3 9275  32.099  44.222   9.494
  313POPC   PO4 9276  32.322  43.603   9.556
  313POPC   GL1 9277  32.170  43.859   9.148
  313POPC   GL2 9278  32.089  43.556   9.023
  313POPC   C1A 9279  32.089  44.217   8.764
  313POPC   D2A 9280  32.098  44.431   8.300
  313POPC   C3A 9281  32.186  44.167   7.926
  313POPC   C4A 9282  32.194  43.975   7.505
  313POPC   C1B 9283  31.934  43.742   8.692
  313POPC   C2B 9284  31.992  43.906   8.310
  313POPC   C3B 9285  32.001  43.693   7.900
  313POPC   C4B 9286  32.276  43.465   7.647
  314POPC   NC3 9287  36.427  14.462   9.535
  314POPC   PO4 9288  35.773  14.419   9.413
  314POPC   GL1 9289  36.065  14.549   9.130
  314POPC   GL2 9290  36.235  14.866   9.217
  314POPC   C1A 9291  35.986  14.368   8.765
  314POPC   D2A 9292  36.192  14.088   8.464
  314POPC   C3A 9293  36.054  14.111   8.049
  314POPC   C4A 9294  36.222  14.083   7.659
  314POPC   C1B 9295  36.246  14.860   8.743
  314POPC   C2B 9296  36.187  14.610   8.369
  314POPC   C3B 9297  36.317  14.542   7.954
  314POPC   C4B 9298  36.167  14.757   7.619
  315POPC   NC3 9299  40.909  13.465   9.528
  315POPC   PO4 9300  40.732  14.164   9.306
  315POPC   GL1 9301  40.834  13.756   9.103
  315POPC   GL2 9302  40.582  13.466   9.137
  315POPC   C1A 9303  41.104  13.545   8.717
  315POPC   D2A 9304  41.250  13.362   8.288
  315POPC   C3A 9305  40.972  13.510   7.911
  315POPC   C4A 9306  40.591  13.768   7.801
  315POPC   C1B 9307  40.587  13.563   8.711
  315POPC   C2B 9308  40.740  13.341   8.383
  315POPC   C3B 9309  40.574  13.236   8.037
  315POPC   C4B 9310  40.512  13.284   7.668
  316POPC   NC3 9311  21.905  29.984   9.735
  316POPC   PO4 9312  22.483  30.023   9.539
  316POPC   GL1 9313  22.237  29.934   9.185
  316POPC   GL2 9314  22.198  29.629   9.143
  316POPC   C1A 9315  22.153  29.965   8.720
  316POPC   D2A 9316  22.359  30.066   8.308
  316POPC   C3A 9317  22.220  29.827   7.920
  316POPC   C4A 9318  22.080  29.991   7.499
  316POPC   C1B 9319  21.812  29.592   8.890
  316POPC   C2B 9320  21.865  29.633   8.406
  316POPC   C3B 9321  21.791  29.514   7.955
  316POPC   C4B 9322  21.776  29.599   7.500
  317POPC   NC3 9323   9.346   3.559   9.460
  317POPC   PO4 9324   8.808   3.884   9.562
  317POPC   GL1 9325   8.830   3.652   9.202
  317POPC   GL2 9326   9.004   3.317   9.142
  317POPC   C1A 9327   8.844   3.811   8.816
  317POPC   D2A 9328   8.723   3.682   8.415
  317POPC   C3A 9329   8.944   3.793   8.041
  317POPC   C4A 9330   8.998   3.614   7.641
  317POPC   C1B 9331   9.275   3.565   8.829
  317POPC   C2B 9332   9.258   3.607   8.398
  317POPC   C3B 9333   9.330   3.437   7.992
  317POPC   C4B 9334   9.524   3.660   7.645
  318POPC   NC3 9335   3.252  44.857   9.786
  318POPC   PO4 9336   3.853  44.819   9.448
  318POPC   GL1 9337   3.848  44.672   9.047
  318POPC   GL2 9338   3.575  44.431   8.986
  318POPC   C1A 9339   3.728  44.926   8.687
  318POPC   D2A 9340   3.653  44.860   8.247
  318POPC   C3A 9341   3.553  44.440   8.075
  318POPC   C4A 9342   3.696  44.364   7.673
  318POPC   C1B 9343   3.399  44.534   8.592
  318POPC   C2B 9344   3.161  44.699   8.245
  318POPC   C3B 9345   3.345  44.835   7.801
  318POPC   C4B 9346   3.284   0.045   7.363
  319POPC   NC3 9347  18.422   7.848   9.333
  319POPC   PO4 9348  18.303   7.237   9.564
  319POPC   GL1 9349  18.218   7.357   9.139
  319POPC   GL2 9350  18.567   7.379   9.122
  319POPC   C1A 9351  18.186   7.486   8.694
  319POPC   D2A 9352  18.241   7.628   8.259
  319POPC   C3A 9353  17.929   7.491   7.962
  319POPC   C4A 9354  17.893   7.246   7.612
  319POPC   C1B 9355  18.554   7.114   8.756
  319POPC   C2B 9356  18.332   7.080   8.359
  319POPC   C3B 9357  18.322   7.186   7.924
  319POPC   C4B 9358  18.553   7.468   7.657
  320POPC   NC3 9359   8.239  34.605   9.939
  320POPC   PO4 9360   8.380  34.142   9.474
  320POPC   GL1 9361   8.099  34.480   9.313
  320POPC   GL2 9362   8.371  34.538   9.102
  320POPC   C1A 9363   7.936  34.682   8.895
  320POPC   D2A 9364   8.154  34.667   8.468
  320POPC   C3A 9365   7.999  34.748   8.085
  320POPC   C4A 9366   8.063  34.634   7.643
  320POPC   C1B 9367   8.568  34.726   8.754
  320POPC   C2B 9368   8.580  34.912   8.297
  320POPC   C3B 9369   8.468  34.859   7.852
  320POPC   C4B 9370   8.456  34.852   7.376
  321POPC   NC3 9371  18.641  22.289   9.572
  321POPC   PO4 9372  19.278  22.061   9.836
  321POPC   GL1 9373  19.154  22.256   9.340
  321POPC   GL2 9374  18.834  22.350   9.134
  321POPC   C1A 9375  19.191  22.307   8.805
  321POPC   D2A 9376  19.196  22.072   8.371
  321POPC   C3A 9377  19.182  22.226   7.929
  321POPC   C4A 9378  19.259  22.005   7.495
  321POPC   C1B 9379  18.673  22.129   8.779
  321POPC   C2B 9380  18.703  22.192   8.339
  321POPC   C3B 9381  18.770  21.899   8.002
  321POPC   C4B 9382  18.750  21.945   7.550
  322POPC   NC3 9383   9.475  28.658   9.695
  322POPC   PO4 9384   9.263  29.285   9.391
  322POPC   GL1 9385   9.334  29.464   8.982
  322POPC   GL2 9386   9.045  29.301   8.877
  322POPC   C1A 9387   9.274  29.586   8.532
  322POPC   D2A 9388   8.908  29.551   8.252
  322POPC   C3A 9389   8.879  29.301   7.880
  322POPC   C4A 9390   8.827  29.421   7.454
  322POPC   C1B 9391   9.330  29.078   8.554
  322POPC   C2B 9392   9.220  28.776   8.228
  322POPC   C3B 9393   9.055  28.820   7.813
  322POPC   C4B 9394   9.110  28.974   7.390
  323POPC   NC3 9395  39.257  26.691   9.389
  323POPC   PO4 9396  38.774  27.123   9.655
  323POPC   GL1 9397  38.845  26.931   9.203
  323POPC   GL2 9398  39.015  27.207   9.108
  323POPC   C1A 9399  39.090  26.793   8.764
  323POPC   D2A 9400  39.367  26.640   8.395
  323POPC   C3A 9401  39.149  26.734   8.007
  323POPC   C4A 9402  39.236  26.816   7.589
  323POPC   C1B 9403  39.203  27.307   8.716
  323POPC   C2B 9404  39.233  27.128   8.332
  323POPC   C3B 9405  39.113  27.238   7.918
  323POPC   C4B 9406  38.854  27.174   7.544
  324POPC   NC3 9407  34.831  16.267   9.716
  324POPC   PO4 9408  35.251  15.746   9.710
  324POPC   GL1 9409  35.409  15.850   9.260
  324POPC   GL2 9410  35.657  15.610   9.107
  324POPC   C1A 9411  35.377  15.898   8.791
  324POPC   D2A 9412  35.498  16.037   8.355
  324POPC   C3A 9413  35.196  15.893   8.025
  324POPC   C4A 9414  35.235  15.689   7.620
  324POPC   C1B 9415  35.856  15.703   8.702
  324POPC   C2B 9416  35.937  15.760   8.269
  324POPC   C3B 9417  35.679  15.782   7.907
  324POPC   C4B 9418  35.724  15.763   7.488
  325POPC   NC3 9419  34.247  20.901   9.419
  325POPC   PO4 9420  33.696  20.658   9.633
  325POPC   GL1 9421  33.927  20.548   9.221
  325POPC   GL2 9422  34.092  20.224   9.300
  325POPC   C1A 9423  33.979  20.735   8.763
  325POPC   D2A 9424  33.988  20.773   8.274
  325POPC   C3A 9425  33.581  20.869   8.006
  325POPC   C4A 9426  33.443  20.997   7.553
  325POPC   C1B 9427  34.107  20.253   8.840
  325POPC   C2B 9428  33.868  20.279   8.459
  325POPC   C3B 9429  34.022  20.308   8.037
  325POPC   C4B 9430  33.935  20.648   7.741
  326POPC   NC3 9431  14.174  15.741   9.552
  326POPC   PO4 9432  14.125  16.308   9.321
  326POPC   GL1 9433  14.402  16.045   9.160
  326POPC   GL2 9434  14.635  16.335   9.112
  326POPC   C1A 9435  14.453  15.843   8.769
  326POPC   D2A 9436  14.307  16.003   8.376
  326POPC   C3A 9437  14.508  15.835   8.061
  326POPC   C4A 9438  14.372  15.601   7.744
  326POPC   C1B 9439  14.397  16.375   8.720
  326POPC   C2B 9440  14.459  16.503   8.297
  326POPC   C3B 9441  14.596  16.382   7.881
  326POPC   C4B 9442  14.318  16.125   7.661
  327POPC   NC3 9443  28.872  44.731   9.495
  327POPC   PO4 9444  29.571  44.763   9.563
  327POPC   GL1 9445  29.306  44.561   9.259
  327POPC   GL2 9446  29.147  44.873   9.084
  327POPC   C1A 9447  29.346  44.489   8.816
  327POPC   D2A 9448  29.212  44.820   8.546
  327POPC   C3A 9449  29.152  44.784   8.078
  327POPC   C4A 9450  29.346  44.465   7.817
  327POPC   C1B 9451  28.860  44.590   8.833
  327POPC   C2B 9452  28.698  44.733   8.452
  327POPC   C3B 9453  28.711  44.542   8.071
  327POPC   C4B 9454  28.864  44.548   7.678
  328POPC   NC3 9455   7.474  12.002   9.554
  328POPC   PO4 9456   7.821  11.459   9.375
  328POPC   GL1 9457   7.559  11.762   9.106
  328POPC   GL2 9458   7.176  11.868   9.133
  328POPC   C1A 9459   7.485  12.129   8.822
  328POPC   D2A 9460   7.333  12.311   8.454
  328POPC   C3A 9461   7.518  12.151   8.103
  328POPC   C4A 9462   7.585  12.376   7.733
  328POPC   C1B 9463   7.274  11.650   8.705
  328POPC   C2B 9464   7.277  11.695   8.247
  328POPC   C3B 9465   7.360  11.764   7.790
  328POPC   C4B 9466   7.224  11.643   7.359
  329POPC   NC3 9467  11.532  38.620   9.668
  329POPC   PO4 9468  10.986  38.237   9.606
  329POPC   GL1 9469  11.179  38.400   9.207
  329POPC   GL2 9470  11.414  38.678   9.186
  329POPC   C1A 9471  11.161  38.511   8.750
  329POPC   D2A 9472  11.117  38.771   8.362
  329POPC   C3A 9473  11.167  38.500   7.992
  329POPC   C4A 9474  11.125  38.587   7.557
  329POPC   C1B 9475  11.667  38.559   8.849
  329POPC   C2B 9476  11.599  38.577   8.422
  329POPC   C3B 9477  11.641  38.689   7.998
  329POPC   C4B 9478  11.602  38.475   7.591
  330POPC   NC3 9479  15.083  14.497   9.863
  330POPC   PO4 9480  15.561  14.167   9.555
  330POPC   GL1 9481  15.329  14.173   9.151
  330POPC   GL2 9482  15.037  14.323   9.250
  330POPC   C1A 9483  15.170  14.168   8.696
  330POPC   D2A 9484  15.293  14.401   8.305
  330POPC   C3A 9485  14.980  14.466   7.975
  330POPC   C4A 9486  14.758  14.425   7.598
  330POPC   C1B 9487  14.972  14.595   8.887
  330POPC   C2B 9488  15.057  14.840   8.514
  330POPC   C3B 9489  14.976  14.976   8.095
  330POPC   C4B 9490  15.293  14.851   7.815
  331POPC   NC3 9491   7.959   4.561   9.337
  331POPC   PO4 9492   7.301   4.251   9.433
  331POPC   GL1 9493   7.597   4.243   9.097
  331POPC   GL2 9494   7.767   3.915   9.036
  331POPC   C1A 9495   7.471   4.418   8.681
  331POPC   D2A 9496   7.163   4.675   8.405
  331POPC   C3A 9497   7.213   4.473   7.993
  331POPC   C4A 9498   7.616   4.219   7.968
  331POPC   C1B 9499   7.360   3.904   8.776
  331POPC   C2B 9500   7.252   3.782   8.350
  331POPC   C3B 9501   7.210   3.926   7.912
  331POPC   C4B 9502   6.908   4.136   7.705
  332POPC   NC3 9503  37.941  44.840   9.369
  332POPC   PO4 9504  37.715  44.344   9.711
  332POPC   GL1 9505  37.453  44.479   9.317
  332POPC   GL2 9506  37.473  44.793   9.141
  332POPC   C1A 9507  37.527  44.410   8.841
  332POPC   D2A 9508  37.728  44.516   8.445
  332POPC   C3A 9509  37.519  44.528   8.040
  332POPC   C4A 9510  37.692  44.755   7.681
  332POPC   C1B 9511  37.669  44.909   8.768
  332POPC   C2B 9512  37.489  44.968   8.394
  332POPC   C3B 9513  37.576   0.097   8.030
  332POPC   C4B 9514  37.364   0.170   7.682
  333POPC   NC3 9515  28.229  19.829   9.550
  333POPC   PO4 9516  28.707  19.335   9.407
  333POPC   GL1 9517  28.357  19.575   9.146
  333POPC   GL2 9518  28.484  19.961   9.140
  333POPC   C1A 9519  28.160  19.781   8.796
  333POPC   D2A 9520  28.112  20.133   8.505
  333POPC   C3A 9521  28.041  19.998   8.085
  333POPC   C4A 9522  28.333  19.724   7.883
  333POPC   C1B 9523  28.574  20.099   8.725
  333POPC   C2B 9524  28.541  19.967   8.284
  333POPC   C3B 9525  28.564  20.172   7.864
  333POPC   C4B 9526  28.218  20.139   7.554
  334POPC   NC3 9527  40.385   6.963   9.324
  334POPC   PO4 9528  40.834   6.619   9.712
  334POPC   GL1 9529  40.832   6.693   9.235
  334POPC   GL2 9530  41.021   6.412   9.143
  334POPC   C1A 9531  40.913   6.938   8.811
  334POPC   D2A 9532  40.701   6.909   8.413
  334POPC   C3A 9533  40.946   6.882   8.021
  334POPC   C4A 9534  40.806   6.771   7.603
  334POPC   C1B 9535  40.792   6.467   8.738
  334POPC   C2B 9536  40.952   6.454   8.313
  334POPC   C3B 9537  41.055   6.357   7.847
  334POPC   C4B 9538  41.022   6.398   7.355
  335POPC   NC3 9539  22.142  41.437   9.513
  335POPC   PO4 9540  22.422  40.913   9.480
  335POPC   GL1 9541  22.040  40.934   9.230
  335POPC   GL2 9542  22.181  41.188   9.056
  335POPC   C1A 9543  21.933  40.809   8.780
  335POPC   D2A 9544  22.153  40.899   8.364
  335POPC   C3A 9545  22.082  40.622   8.017
  335POPC   C4A 9546  21.966  40.684   7.624
  335POPC   C1B 9547  21.987  41.308   8.685
  335POPC   C2B 9548  21.982  41.439   8.243
  335POPC   C3B 9549  22.294  41.258   7.957
  335POPC   C4B 9550  22.459  40.849   7.778
  336POPC   NC3 9551  27.782   3.496   9.487
  336POPC   PO4 9552  27.129   3.279   9.495
  336POPC   GL1 9553  27.373   3.546   9.179
  336POPC   GL2 9554  27.572   3.355   8.991
  336POPC   C1A 9555  27.445   3.788   8.773
  336POPC   D2A 9556  27.673   3.622   8.432
  336POPC   C3A 9557  27.625   3.676   8.022
  336POPC   C4A 9558  27.573   3.483   7.617
  336POPC   C1B 9559  27.856   3.219   8.655
  336POPC   C2B 9560  27.863   3.131   8.228
  336POPC   C3B 9561  28.017   3.377   7.888
  336POPC   C4B 9562  28.026   3.340   7.415
  337POPC   NC3 9563  31.902  12.284   9.309
  337POPC   PO4 9564  31.677  11.838   9.776
  337POPC   GL1 9565  31.679  11.864   9.227
  337POPC   GL2 9566  31.435  12.140   9.160
  337POPC   C1A 9567  31.715  12.106   8.750
  337POPC   D2A 9568  31.925  12.290   8.394
  337POPC   C3A 9569  31.636  12.206   8.043
  337POPC   C4A 9570  31.821  12.148   7.632
  337POPC   C1B 9571  31.212  11.977   8.828
  337POPC   C2B 9572  31.302  12.081   8.416
  337POPC   C3B 9573  31.141  11.955   8.036
  337POPC   C4B 9574  30.981  12.104   7.666
  338POPC   NC3 9575  36.446  33.934   9.660
  338POPC   PO4 9576  37.083  33.701   9.502
  338POPC   GL1 9577  37.029  33.938   9.152
  338POPC   GL2 9578  36.784  34.191   9.257
  338POPC   C1A 9579  36.976  33.681   8.768
  338POPC   D2A 9580  36.954  33.457   8.369
  338POPC   C3A 9581  36.854  33.667   7.972
  338POPC   C4A 9582  36.697  33.474   7.614
  338POPC   C1B 9583  36.624  34.037   8.848
  338POPC   C2B 9584  36.638  33.865   8.412
  338POPC   C3B 9585  36.505  34.057   8.006
  338POPC   C4B 9586  36.543  33.949   7.573
  339POPC   NC3 9587   9.738  27.386   9.833
  339POPC   PO4 9588   9.799  27.975   9.692
  339POPC   GL1 9589   9.795  27.668   9.300
  339POPC   GL2 9590  10.052  27.485   9.258
  339POPC   C1A 9591   9.589  27.541   8.881
  339POPC   D2A 9592   9.411  27.424   8.448
  339POPC   C3A 9593   9.567  27.485   8.008
  339POPC   C4A 9594   9.429  27.474   7.562
  339POPC   C1B 9595  10.069  27.678   8.840
  339POPC   C2B 9596   9.849  27.735   8.436
  339POPC   C3B 9597  10.022  27.689   8.013
  339POPC   C4B 9598   9.937  27.522   7.558
  340POPC   NC3 9599  10.040  23.061   9.446
  340POPC   PO4 9600   9.618  22.623   9.750
  340POPC   GL1 9601   9.679  22.725   9.268
  340POPC   GL2 9602   9.966  22.686   9.103
  340POPC   C1A 9603   9.500  22.833   8.828
  340POPC   D2A 9604   9.614  22.928   8.369
  340POPC   C3A 9605   9.771  22.807   7.945
  340POPC   C4A 9606   9.817  23.203   7.819
  340POPC   C1B 9607   9.993  22.919   8.730
  340POPC   C2B 9608  10.091  22.770   8.341
  340POPC   C3B 9609  10.298  22.942   7.994
  340POPC   C4B 9610  10.261  23.090   7.557
  341POPC   NC3 9611  12.233  12.224   9.551
  341POPC   PO4 9612  12.200  11.623   9.300
  341POPC   GL1 9613  12.042  12.026   9.107
  341POPC   GL2 9614  11.733  12.200   9.183
  341POPC   C1A 9615  11.962  12.111   8.686
  341POPC   D2A 9616  12.180  11.871   8.419
  341POPC   C3A 9617  12.196  12.036   8.051
  341POPC   C4A 9618  12.085  11.971   7.673
  341POPC   C1B 9619  11.720  12.529   8.827
  341POPC   C2B 9620  11.916  12.575   8.408
  341POPC   C3B 9621  11.786  12.677   8.007
  341POPC   C4B 9622  11.571  12.569   7.620
  342POPC   NC3 9623  36.994  17.199   9.520
  342POPC   PO4 9624  36.728  16.590   9.491
  342POPC   GL1 9625  36.942  16.782   9.175
  342POPC   GL2 9626  36.663  17.003   9.127
  342POPC   C1A 9627  36.921  16.694   8.744
  342POPC   D2A 9628  36.771  16.846   8.368
  342POPC   C3A 9629  36.888  16.656   7.998
  342POPC   C4A 9630  37.116  16.747   7.653
  342POPC   C1B 9631  36.513  17.165   8.715
  342POPC   C2B 9632  36.703  17.340   8.314
  342POPC   C3B 9633  36.627  17.318   7.849
  342POPC   C4B 9634  36.425  17.243   7.432
  343POPC   NC3 9635  16.547  33.751   9.578
  343POPC   PO4 9636  17.147  33.477   9.673
  343POPC   GL1 9637  16.755  33.474   9.240
  343POPC   GL2 9638  16.845  33.862   9.174
  343POPC   C1A 9639  16.724  33.565   8.757
  343POPC   D2A 9640  16.905  33.653   8.353
  343POPC   C3A 9641  16.703  33.520   7.990
  343POPC   C4A 9642  16.884  33.684   7.644
  343POPC   C1B 9643  16.755  34.111   8.809
  343POPC   C2B 9644  16.525  33.981   8.473
  343POPC   C3B 9645  16.583  34.007   8.055
  343POPC   C4B 9646  16.718  34.160   7.696
  344POPC   NC3 9647  41.775  19.298   9.572
  344POPC   PO4 9648  41.279  18.931   9.455
  344POPC   GL1 9649  41.417  19.103   9.080
  344POPC   GL2 9650  41.786  19.105   9.114
  344POPC   C1A 9651  41.377  19.067   8.630
  344POPC   D2A 9652  41.548  18.820   8.304
  344POPC   C3A 9653  41.469  19.007   7.895
  344POPC   C4A 9654  41.293  19.272   7.548
  344POPC   C1B 9655  41.847  18.886   8.752
  344POPC   C2B 9656  42.003  19.013   8.365
  344POPC   C3B 9657  41.958  18.816   7.928
  344POPC   C4B 9658  41.993  18.802   7.440
  345POPC   NC3 9659  28.049   6.304   9.444
  345POPC   PO4 9660  28.521   6.769   9.701
  345POPC   GL1 9661  28.294   6.772   9.305
  345POPC   GL2 9662  28.578   6.625   9.168
  345POPC   C1A 9663  28.181   6.718   8.851
  345POPC   D2A 9664  28.244   6.558   8.425
  345POPC   C3A 9665  28.183   6.723   8.025
  345POPC   C4A 9666  27.957   6.526   7.722
  345POPC   C1B 9667  28.660   6.576   8.752
  345POPC   C2B 9668  28.726   6.737   8.343
  345POPC   C3B 9669  28.667   6.582   7.942
  345POPC   C4B 9670  28.878   6.370   7.635
  346POPC   NC3 9671  29.068  43.000   9.452
  346POPC   PO4 9672  29.233  43.685   9.437
  346POPC   GL1 9673  29.037  43.576   9.042
  346POPC   GL2 9674  29.248  43.313   9.069
  346POPC   C1A 9675  29.025  43.429   8.602
  346POPC   D2A 9676  29.364  43.335   8.289
  346POPC   C3A 9677  29.277  43.415   7.862
  346POPC   C4A 9678  28.906  43.188   7.770
  346POPC   C1B 9679  29.188  42.954   8.798
  346POPC   C2B 9680  29.401  42.847   8.421
  346POPC   C3B 9681  29.339  42.918   7.976
  346POPC   C4B 9682  29.359  42.980   7.547
  347POPC   NC3 9683  16.776  27.944   9.353
  347POPC   PO4 9684  16.328  27.507   9.451
  347POPC   GL1 9685  16.571  27.518   9.044
  347POPC   GL2 9686  16.898  27.683   8.928
  347POPC   C1A 9687  16.484  27.715   8.633
  347POPC   D2A 9688  16.299  28.027   8.372
  347POPC   C3A 9689  16.478  27.954   7.971
  347POPC   C4A 9690  16.462  27.640   7.619
  347POPC   C1B 9691  16.982  27.929   8.576
  347POPC   C2B 9692  16.969  27.944   8.144
  347POPC   C3B 9693  16.978  27.635   7.828
  347POPC   C4B 9694  16.947  27.711   7.403
  348POPC   NC3 9695  22.485  33.578   9.497
  348POPC   PO4 9696  23.139  33.528   9.510
  348POPC   GL1 9697  22.937  33.624   9.180
  348POPC   GL2 9698  22.786  33.936   9.287
  348POPC   C1A 9699  23.113  33.631   8.777
  348POPC   D2A 9700  23.349  33.668   8.392
  348POPC   C3A 9701  23.050  33.600   8.099
  348POPC   C4A 9702  23.099  33.773   7.718
  348POPC   C1B 9703  22.659  33.897   8.845
  348POPC   C2B 9704  22.864  33.941   8.440
  348POPC   C3B 9705  22.773  34.014   8.018
  348POPC   C4B 9706  22.577  33.725   7.768
  349POPC   NC3 9707  36.667  36.439   9.461
  349POPC   PO4 9708  36.758  35.792   9.407
  349POPC   GL1 9709  37.035  35.870   9.096
  349POPC   GL2 9710  37.007  36.240   9.087
  349POPC   C1A 9711  36.900  35.893   8.677
  349POPC   D2A 9712  36.991  36.164   8.341
  349POPC   C3A 9713  36.819  36.063   7.949
  349POPC   C4A 9714  36.836  35.693   7.731
  349POPC   C1B 9715  36.750  36.402   8.718
  349POPC   C2B 9716  36.713  36.570   8.242
  349POPC   C3B 9717  36.861  36.533   7.791
  349POPC   C4B 9718  36.702  36.377   7.392
  350POPC   NC3 9719   8.367   3.759   9.508
  350POPC   PO4 9720   7.849   3.459   9.686
  350POPC   GL1 9721   8.009   3.480   9.228
  350POPC   GL2 9722   8.363   3.387   9.178
  350POPC   C1A 9723   8.118   3.581   8.767
  350POPC   D2A 9724   8.101   3.673   8.329
  350POPC   C3A 9725   8.012   3.343   8.014
  350POPC   C4A 9726   7.868   3.448   7.577
  350POPC   C1B 9727   8.590   3.344   8.810
  350POPC   C2B 9728   8.426   3.265   8.397
  350POPC   C3B 9729   8.497   3.497   8.000
  350POPC   C4B 9730   8.371   3.403   7.599
  351POPC   NC3 9731   6.321   3.232   9.564
  351POPC   PO4 9732   5.836   3.642   9.319
  351POPC   GL1 9733   5.907   3.397   9.012
  351POPC   GL2 9734   6.241   3.361   9.094
  351POPC   C1A 9735   5.728   3.387   8.604
  351POPC   D2A 9736   5.534   3.686   8.280
  351POPC   C3A 9737   5.582   3.573   7.838
  351POPC   C4A 9738   5.720   3.145   7.781
  351POPC   C1B 9739   6.291   3.724   8.851
  351POPC   C2B 9740   6.088   3.719   8.473
  351POPC   C3B 9741   5.978   3.438   8.149
  351POPC   C4B 9742   6.151   3.522   7.783
  352POPC   NC3 9743  15.994  34.106   9.644
  352POPC   PO4 9744  16.150  33.496   9.597
  352POPC   GL1 9745  16.061  33.787   9.246
  352POPC   GL2 9746  16.344  33.922   9.085
  352POPC   C1A 9747  15.839  33.932   8.855
  352POPC   D2A 9748  16.001  33.922   8.408
  352POPC   C3A 9749  15.767  33.906   8.024
  352POPC   C4A 9750  15.851  33.930   7.564
  352POPC   C1B 9751  16.224  33.597   8.777
  352POPC   C2B 9752  16.325  33.527   8.342
  352POPC   C3B 9753  16.215  33.685   7.927
  352POPC   C4B 9754  16.382  33.814   7.543
  353POPC   NC3 9755   7.049  15.306   9.604
  353POPC   PO4 9756   6.425  15.447   9.772
  353POPC   GL1 9757   6.742  15.560   9.288
  353POPC   GL2 9758   6.941  15.278   9.089
  353POPC   C1A 9759   6.696  15.579   8.802
  353POPC   D2A 9760   6.492  15.426   8.412
  353POPC   C3A 9761   6.679  15.276   8.003
  353POPC   C4A 9762   6.437  15.505   7.663
  353POPC   C1B 9763   7.002  14.898   8.836
  353POPC   C2B 9764   6.858  14.788   8.404
  353POPC   C3B 9765   7.023  14.777   7.978
  353POPC   C4B 9766   6.940  14.933   7.573
  354POPC   NC3 9767  24.887   0.691   9.506
  354POPC   PO4 9768  25.307   0.198   9.533
  354POPC   GL1 9769  25.208   0.429   9.185
  354POPC   GL2 9770  25.013   0.147   9.066
  354POPC   C1A 9771  25.214   0.755   8.878
  354POPC   D2A 9772  25.102   0.585   8.490
  354POPC   C3A 9773  25.289   0.784   8.167
  354POPC   C4A 9774  25.365   0.776   7.750
  354POPC   C1B 9775  25.398   0.014   8.877
  354POPC   C2B 9776  25.387  44.869   8.470
  354POPC   C3B 9777  25.165   0.106   8.183
  354POPC   C4B 9778  25.227   0.190   7.807
  355POPC   NC3 9779  13.630   7.116   9.395
  355POPC   PO4 9780  13.849   7.741   9.534
  355POPC   GL1 9781  13.799   7.533   9.126
  355POPC   GL2 9782  13.440   7.491   9.099
  355POPC   C1A 9783  13.717   7.443   8.663
  355POPC   D2A 9784  13.812   7.647   8.267
  355POPC   C3A 9785  13.694   7.425   7.862
  355POPC   C4A 9786  13.936   7.252   7.530
  355POPC   C1B 9787  13.348   7.117   8.831
  355POPC   C2B 9788  13.341   6.962   8.447
  355POPC   C3B 9789  13.484   6.992   8.070
  355POPC   C4B 9790  13.285   7.081   7.705
  356POPC   NC3 9791  16.478   1.334   9.504
  356POPC   PO4 9792  15.842   1.262   9.486
  356POPC   GL1 9793  15.984   1.265   9.094
  356POPC   GL2 9794  16.257   1.032   9.097
  356POPC   C1A 9795  15.691   1.272   8.755
  356POPC   D2A 9796  15.591   1.067   8.392
  356POPC   C3A 9797  15.808   1.241   8.082
  356POPC   C4A 9798  16.211   1.186   7.894
  356POPC   C1B 9799  16.398   1.298   8.758
  356POPC   C2B 9800  16.141   1.501   8.429
  356POPC   C3B 9801  16.103   1.681   8.014
  356POPC   C4B 9802  15.873   1.514   7.663
  357POPC   NC3 9803  19.388   0.643   9.509
  357POPC   PO4 9804  19.176  44.954   9.492
  357POPC   GL1 9805  19.188   0.104   9.050
  357POPC   GL2 9806  19.309   0.417   9.068
  357POPC   C1A 9807  18.910   0.389   8.747
  357POPC   D2A 9808  18.662   0.581   8.400
  357POPC   C3A 9809  18.762   0.355   8.025
  357POPC   C4A 9810  19.060   0.312   7.711
  357POPC   C1B 9811  19.447   0.506   8.677
  357POPC   C2B 9812  19.259   0.463   8.286
  357POPC   C3B 9813  19.038   0.765   8.095
  357POPC   C4B 9814  18.933   0.800   7.678
  358POPC   NC3 9815  25.651  31.428   9.735
  358POPC   PO4 9816  26.147  31.725   9.391
  358POPC   GL1 9817  26.310  31.595   9.031
  358POPC   GL2 9818  26.093  31.327   9.039
  358POPC   C1A 9819  26.129  31.569   8.602
  358POPC   D2A 9820  26.119  31.281   8.279
  358POPC   C3A 9821  26.293  31.378   7.901
  358POPC   C4A 9822  26.098  31.590   7.573
  358POPC   C1B 9823  25.831  31.153   8.699
  358POPC   C2B 9824  25.628  31.132   8.282
  358POPC   C3B 9825  25.808  31.164   7.847
  358POPC   C4B 9826  25.707  31.191   7.375
  359POPC   NC3 9827  39.533  22.325   9.488
  359POPC   PO4 9828  38.911  22.007   9.497
  359POPC   GL1 9829  39.230  22.033   9.197
  359POPC   GL2 9830  39.075  22.328   9.108
  359POPC   C1A 9831  39.394  22.158   8.750
  359POPC   D2A 9832  39.597  22.096   8.339
  359POPC   C3A 9833  39.531  22.314   7.958
  359POPC   C4A 9834  39.349  22.236   7.572
  359POPC   C1B 9835  38.932  21.935   8.814
  359POPC   C2B 9836  39.070  21.906   8.396
  359POPC   C3B 9837  39.188  21.943   7.992
  359POPC   C4B 9838  39.156  21.632   7.727
  360POPC   NC3 9839  24.705  31.105   9.721
  360POPC   PO4 9840  24.375  31.700   9.575
  360POPC   GL1 9841  24.325  31.562   9.179
  360POPC   GL2 9842  24.371  31.215   9.230
  360POPC   C1A 9843  24.499  31.646   8.799
  360POPC   D2A 9844  24.346  31.708   8.390
  360POPC   C3A 9845  24.640  31.695   8.065
  360POPC   C4A 9846  24.528  31.709   7.638
  360POPC   C1B 9847  24.378  31.140   8.798
  360POPC   C2B 9848  24.643  31.285   8.468
  360POPC   C3B 9849  24.475  31.211   8.100
  360POPC   C4B 9850  24.599  31.207   7.715
  361POPC   NC3 9851  10.649   2.931   9.779
  361POPC   PO4 9852  10.776   2.327   9.618
  361POPC   GL1 9853  10.508   2.621   9.340
  361POPC   GL2 9854  10.577   2.961   9.256
  361POPC   C1A 9855  10.338   2.702   8.899
  361POPC   D2A 9856  10.214   2.511   8.516
  361POPC   C3A 9857  10.478   2.598   8.137
  361POPC   C4A 9858  10.538   2.688   7.679
  361POPC   C1B 9859  10.710   3.095   8.842
  361POPC   C2B 9860  10.645   3.054   8.367
  361POPC   C3B 9861  10.790   3.074   7.904
  361POPC   C4B 9862  10.674   3.123   7.396
  362POPC   NC3 9863  31.405  34.868   9.261
  362POPC   PO4 9864  31.574  35.471   9.557
  362POPC   GL1 9865  31.740  35.346   9.206
  362POPC   GL2 9866  31.797  35.669   9.118
  362POPC   C1A 9867  31.639  35.298   8.785
  362POPC   D2A 9868  31.787  35.457   8.433
  362POPC   C3A 9869  31.544  35.308   8.113
  362POPC   C4A 9870  31.289  35.193   7.756
  362POPC   C1B 9871  31.331  35.678   8.938
  362POPC   C2B 9872  31.214  35.527   8.518
  362POPC   C3B 9873  31.120  35.563   8.072
  362POPC   C4B 9874  31.377  35.723   7.803
  363POPC   NC3 9875   8.881  10.055   9.379
  363POPC   PO4 9876   8.792  10.682   9.502
  363POPC   GL1 9877   8.930  10.527   9.151
  363POPC   GL2 9878   9.267  10.669   9.166
  363POPC   C1A 9879   8.708  10.370   8.770
  363POPC   D2A 9880   8.502  10.598   8.433
  363POPC   C3A 9881   8.744  10.650   8.101
  363POPC   C4A 9882   9.071  10.576   7.783
  363POPC   C1B 9883   9.246  10.397   8.795
  363POPC   C2B 9884   9.156  10.429   8.360
  363POPC   C3B 9885   9.196  10.136   8.006
  363POPC   C4B 9886   9.381  10.137   7.564
  364POPC   NC3 9887  19.937   7.457   9.470
  364POPC   PO4 9888  19.184   7.458   9.387
  364POPC   GL1 9889  19.558   7.443   9.097
  364POPC   GL2 9890  19.725   7.735   9.041
  364POPC   C1A 9891  19.748   7.330   8.683
  364POPC   D2A 9892  20.051   7.200   8.353
  364POPC   C3A 9893  19.954   7.159   7.915
  364POPC   C4A 9894  19.749   7.142   7.505
  364POPC   C1B 9895  19.853   7.835   8.654
  364POPC   C2B 9896  19.709   7.754   8.250
  364POPC   C3B 9897  19.889   7.660   7.871
  364POPC   C4B 9898  19.750   7.641   7.473
  365POPC   NC3 9899  11.876  30.762   9.675
  365POPC   PO4 9900  12.349  30.341   9.626
  365POPC   GL1 9901  12.271  30.673   9.347
  365POPC   GL2 9902  11.931  30.612   9.184
  365POPC   C1A 9903  12.350  30.824   8.954
  365POPC   D2A 9904  12.156  30.734   8.588
  365POPC   C3A 9905  12.291  30.934   8.231
  365POPC   C4A 9906  12.278  30.681   7.865
  365POPC   C1B 9907  11.753  30.890   8.857
  365POPC   C2B 9908  11.630  30.799   8.468
  365POPC   C3B 9909  11.867  30.634   8.162
  365POPC   C4B 9910  11.870  31.003   7.914
  366POPC   NC3 9911   9.006   0.224   9.537
  366POPC   PO4 9912   8.711   0.876   9.488
  366POPC   GL1 9913   8.812   0.604   9.166
  366POPC   GL2 9914   9.151   0.575   9.162
  366POPC   C1A 9915   8.795   0.401   8.761
  366POPC   D2A 9916   8.570   0.249   8.409
  366POPC   C3A 9917   8.712   0.463   8.048
  366POPC   C4A 9918   9.061   0.537   7.776
  366POPC   C1B 9919   9.284   0.298   8.816
  366POPC   C2B 9920   9.178   0.379   8.369
  366POPC   C3B 9921   9.361   0.159   8.028
  366POPC   C4B 9922   9.498   0.269   7.623
  367POPC   NC3 9923  42.494   2.959   9.461
  367POPC   PO4 9924  42.177   2.293   9.325
  367POPC   GL1 9925  42.366   2.596   9.127
  367POPC   GL2 9926  42.185   2.827   9.039
  367POPC   C1A 9927  42.591   2.696   8.739
  367POPC   D2A 9928  42.535   2.418   8.375
  367POPC   C3A 9929  42.415   2.658   7.999
  367POPC   C4A 9930  42.567   2.901   7.625
  367POPC   C1B 9931  42.111   2.713   8.582
  367POPC   C2B 9932  41.791   2.853   8.289
  367POPC   C3B 9933  41.799   3.158   7.975
  367POPC   C4B 9934  42.039   2.899   7.710
  368POPC   NC3 9935  43.141  13.222   9.639
  368POPC   PO4 9936  42.718  12.667   9.515
  368POPC   GL1 9937  42.770  12.735   9.126
  368POPC   GL2 9938  42.849  13.073   9.170
  368POPC   C1A 9939  42.948  12.599   8.732
  368POPC   D2A 9940  43.210  12.696   8.383
  368POPC   C3A 9941  43.041  13.025   8.144
  368POPC   C4A 9942  42.909  13.140   7.751
  368POPC   C1B 9943  43.307  13.148   9.007
  368POPC   C2B 9944  43.469  13.342   8.609
  368POPC   C3B 9945  43.547  13.089   8.230
  368POPC   C4B 9946  43.432  13.143   7.803
  369POPC   NC3 9947  13.344  18.145   9.738
  369POPC   PO4 9948  13.729  18.650   9.623
  369POPC   GL1 9949  13.796  18.373   9.233
  369POPC   GL2 9950  13.526  18.115   9.222
  369POPC   C1A 9951  13.646  18.486   8.791
  369POPC   D2A 9952  13.769  18.531   8.388
  369POPC   C3A 9953  13.493  18.526   8.082
  369POPC   C4A 9954  13.678  18.585   7.712
  369POPC   C1B 9955  13.728  18.008   8.834
  369POPC   C2B 9956  13.846  18.035   8.434
  369POPC   C3B 9957  13.889  18.081   8.010
  369POPC   C4B 9958  13.982  17.670   7.804
  370POPC   NC3 9959  12.912  21.844   9.333
  370POPC   PO4 9960  12.678  22.510   9.359
  370POPC   GL1 9961  12.540  22.192   9.048
  370POPC   GL2 9962  12.410  21.831   9.158
  370POPC   C1A 9963  12.627  22.240   8.590
  370POPC   D2A 9964  13.009  22.149   8.321
  370POPC   C3A 9965  13.012  22.394   7.936
  370POPC   C4A 9966  12.589  22.466   7.713
  370POPC   C1B 9967  12.573  21.762   8.747
  370POPC   C2B 9968  12.631  21.789   8.319
  370POPC   C3B 9969  12.670  22.008   7.937
  370POPC   C4B 9970  13.071  21.925   7.759
  371POPC   NC3 9971   3.057   2.615   9.524
  371POPC   PO4 9972   2.629   3.125   9.516
  371POPC   GL1 9973   2.671   2.925   9.133
  371POPC   GL2 9974   2.750   2.595   9.118
  371POPC   C1A 9975   2.544   2.808   8.710
  371POPC   D2A 9976   2.855   2.834   8.429
  371POPC   C3A 9977   2.728   2.735   8.040
  371POPC   C4A 9978   2.524   2.844   7.675
  371POPC   C1B 9979   2.769   2.351   8.750
  371POPC   C2B 9980   2.565   2.291   8.355
  371POPC   C3B 9981   2.809   2.241   7.991
  371POPC   C4B 9982   2.870   2.466   7.621
  372POPC   NC3 9983  10.188  30.915   9.493
  372POPC   PO4 9984  10.585  30.408   9.494
  372POPC   GL1 9985  10.494  30.635   9.123
  372POPC   GL2 9986  10.583  30.990   9.153
  372POPC   C1A 9987  10.280  30.598   8.721
  372POPC   D2A 9988  10.082  30.676   8.331
  372POPC   C3A 9989  10.260  30.581   7.914
  372POPC   C4A 9990  10.204  30.295   7.546
  372POPC   C1B 9991  10.675  30.911   8.690
  372POPC   C2B 9992  10.534  30.934   8.218
  372POPC   C3B 9993  10.626  30.985   7.751
  372POPC   C4B 9994  10.807  31.047   7.269
  373POPC   NC3 9995   8.712  34.799   9.391
  373POPC   PO4 9996   9.305  34.511   9.561
  373POPC   GL1 9997   9.198  34.738   9.175
  373POPC   GL2 9998   8.936  34.464   9.078
  373POPC   C1A 9999   9.080  34.797   8.727
  373POPC   D2A10000   8.850  34.486   8.427
  373POPC   C3A10001   8.911  34.479   8.008
  373POPC   C4A10002   8.963  34.796   7.728
  373POPC   C1B10003   8.654  34.204   8.835
  373POPC   C2B10004   8.537  34.069   8.412
  373POPC   C3B10005   8.413  34.365   8.118
  373POPC   C4B10006   8.508  34.378   7.703
  374POPC   NC310007   6.805  32.462   9.684
  374POPC   PO410008   6.338  31.938   9.748
  374POPC   GL110009   6.394  32.072   9.314
  374POPC   GL210010   6.689  32.248   9.256
  374POPC   C1A10011   6.421  32.148   8.852
  374POPC   D2A10012   6.497  32.473   8.532
  374POPC   C3A10013   6.380  32.365   8.129
  374POPC   C4A10014   6.640  32.430   7.786
  374POPC   C1B10015   6.865  32.405   8.882
  374POPC   C2B10016   7.018  32.266   8.491
  374POPC   C3B10017   7.055  32.298   8.049
  374POPC   C4B10018   7.003  32.047   7.683
  375POPC   NC310019  35.746  13.944   9.291
  375POPC   PO410020  35.363  13.409   9.557
  375POPC   GL110021  35.212  13.491   9.112
  375POPC   GL210022  35.418  13.745   8.942
  375POPC   C1A10023  35.015  13.612   8.676
  375POPC   D2A10024  35.295  13.491   8.346
  375POPC   C3A10025  35.191  13.405   7.924
  375POPC   C4A10026  35.165  13.660   7.540
  375POPC   C1B10027  35.669  13.957   8.667
  375POPC   C2B10028  35.711  13.812   8.309
  375POPC   C3B10029  35.485  13.826   7.993
  375POPC   C4B10030  35.738  13.908   7.689
  376POPC   NC310031  10.439  35.645   9.526
  376POPC   PO410032   9.993  35.201   9.400
  376POPC   GL110033  10.394  35.253   9.170
  376POPC   GL210034  10.542  35.559   8.994
  376POPC   C1A10035  10.552  35.104   8.772
  376POPC   D2A10036  10.680  35.301   8.393
  376POPC   C3A10037  10.478  35.199   8.028
  376POPC   C4A10038  10.227  35.393   7.769
  376POPC   C1B10039  10.925  35.588   8.713
  376POPC   C2B10040  11.019  35.705   8.294
  376POPC   C3B10041  10.691  35.675   8.010
  376POPC   C4B10042  10.722  35.473   7.619
  377POPC   NC310043  36.885  21.785   9.581
  377POPC   PO410044  36.567  22.362   9.455
  377POPC   GL110045  36.885  22.245   9.157
  377POPC   GL210046  37.219  22.435   9.050
  377POPC   C1A10047  36.699  22.019   8.816
  377POPC   D2A10048  36.517  22.002   8.409
  377POPC   C3A10049  36.702  22.023   8.001
  377POPC   C4A10050  36.406  22.210   7.732
  377POPC   C1B10051  37.182  22.132   8.762
  377POPC   C2B10052  37.222  21.989   8.385
  377POPC   C3B10053  37.356  22.112   8.014
  377POPC   C4B10054  37.318  22.518   7.850
  378POPC   NC310055  37.145  35.563   9.520
  378POPC   PO410056  36.538  35.132   9.455
  378POPC   GL110057  36.768  35.184   9.098
  378POPC   GL210058  37.067  35.338   9.091
  378POPC   C1A10059  36.774  35.372   8.690
  378POPC   D2A10060  36.990  35.315   8.345
  378POPC   C3A10061  36.774  35.261   8.011
  378POPC   C4A10062  36.936  35.202   7.628
  378POPC   C1B10063  37.269  35.537   8.732
  378POPC   C2B10064  37.241  35.740   8.310
  378POPC   C3B10065  37.275  35.556   7.906
  378POPC   C4B10066  37.239  35.580   7.428
  379POPC   NC310067  16.807   5.140   9.852
  379POPC   PO410068  16.517   4.847   9.303
  379POPC   GL110069  16.726   5.053   8.991
  379POPC   GL210070  17.078   5.183   9.010
  379POPC   C1A10071  16.554   5.244   8.678
  379POPC   D2A10072  16.572   5.333   8.270
  379POPC   C3A10073  16.703   5.059   7.928
  379POPC   C4A10074  16.458   4.726   7.721
  379POPC   C1B10075  17.286   5.287   8.654
  379POPC   C2B10076  17.240   5.499   8.239
  379POPC   C3B10077  17.155   5.391   7.793
  379POPC   C4B10078  17.034   5.128   7.408
  380POPC   NC310079  39.501  13.417   9.425
  380POPC   PO410080  40.169  13.566   9.423
  380POPC   GL110081  39.930  13.564   9.096
  380POPC   GL210082  39.697  13.852   9.156
  380POPC   C1A10083  40.091  13.395   8.710
  380POPC   D2A10084  40.251  13.548   8.320
  380POPC   C3A10085  40.066  13.425   7.944
  380POPC   C4A10086  39.945  13.738   7.668
  380POPC   C1B10087  39.915  13.909   8.721
  380POPC   C2B10088  39.893  13.969   8.259
  380POPC   C3B10089  39.569  13.941   7.911
  380POPC   C4B10090  39.514  13.912   7.435
  381POPC   NC310091  37.704  41.607   9.716
  381POPC   PO410092  37.332  41.281   9.249
  381POPC   GL110093  37.797  41.439   9.227
  381POPC   GL210094  37.903  41.805   9.283
  381POPC   C1A10095  37.983  41.529   8.831
  381POPC   D2A10096  37.904  41.290   8.444
  381POPC   C3A10097  37.837  41.502   8.035
  381POPC   C4A10098  37.432  41.465   7.806
  381POPC   C1B10099  37.581  41.828   8.945
  381POPC   C2B10100  37.576  41.832   8.485
  381POPC   C3B10101  37.593  41.983   8.044
  381POPC   C4B10102  37.961  41.979   7.772
  382POPC   NC310103   0.716   3.260   9.648
  382POPC   PO410104   0.492   3.916   9.530
  382POPC   GL110105   0.411   3.568   9.289
  382POPC   GL210106   0.079   3.406   9.368
  382POPC   C1A10107   0.546   3.490   8.861
  382POPC   D2A10108   0.500   3.320   8.409
  382POPC   C3A10109   0.349   3.578   8.062
  382POPC   C4A10110   0.506   3.666   7.647
  382POPC   C1B10111   0.073   3.318   8.929
  382POPC   C2B10112   0.001   3.368   8.485
  382POPC   C3B10113   0.016   3.194   8.093
  382POPC   C4B10114   0.194   3.238   7.712
  383POPC   NC310115  28.835   6.012   9.683
  383POPC   PO410116  29.312   5.580   9.335
  383POPC   GL110117  29.071   5.800   9.103
  383POPC   GL210118  28.768   5.790   9.188
  383POPC   C1A10119  28.958   5.631   8.721
  383POPC   D2A10120  29.054   5.873   8.385
  383POPC   C3A10121  29.168   5.709   7.989
  383POPC   C4A10122  29.269   6.080   7.793
  383POPC   C1B10123  28.749   6.083   8.811
  383POPC   C2B10124  28.643   6.216   8.392
  383POPC   C3B10125  28.757   6.054   8.019
  383POPC   C4B10126  28.781   5.876   7.646
  384POPC   NC310127   1.518   0.538   9.712
  384POPC   PO410128   1.047   1.001   9.499
  384POPC   GL110129   1.158   1.035   9.086
  384POPC   GL210130   1.412   1.286   9.065
  384POPC   C1A10131   1.290   0.989   8.654
  384POPC   D2A10132   1.375   0.888   8.237
  384POPC   C3A10133   1.154   1.101   7.992
  384POPC   C4A10134   1.280   1.199   7.643
  384POPC   C1B10135   1.474   1.688   8.829
  384POPC   C2B10136   1.365   1.819   8.407
  384POPC   C3B10137   1.345   1.606   7.998
  384POPC   C4B10138   1.535   1.610   7.570
  385POPC   NC310139  17.408  30.985   9.840
  385POPC   PO410140  17.429  30.302   9.590
  385POPC   GL110141  17.522  30.641   9.269
  385POPC   GL210142  17.749  30.934   9.267
  385POPC   C1A10143  17.680  30.615   8.835
  385POPC   D2A10144  17.704  30.475   8.390
  385POPC   C3A10145  17.455  30.722   8.097
  385POPC   C4A10146  17.293  30.736   7.651
  385POPC   C1B10147  17.895  31.058   8.832
  385POPC   C2B10148  17.788  30.987   8.392
  385POPC   C3B10149  17.846  30.973   7.913
  385POPC   C4B10150  17.651  31.161   7.543
  386POPC   NC310151  19.520  36.607   9.753
  386POPC   PO410152  18.962  36.889   9.531
  386POPC   GL110153  19.000  37.011   9.146
  386POPC   GL210154  19.366  37.014   9.123
  386POPC   C1A10155  18.759  36.945   8.772
  386POPC   D2A10156  18.844  36.693   8.400
  386POPC   C3A10157  18.792  36.784   7.958
  386POPC   C4A10158  18.922  36.970   7.584
  386POPC   C1B10159  19.555  36.976   8.778
  386POPC   C2B10160  19.484  37.132   8.363
  386POPC   C3B10161  19.267  36.988   8.037
  386POPC   C4B10162  19.440  37.029   7.667
  387POPC   NC310163   3.198   4.020   9.503
  387POPC   PO410164   3.589   4.542   9.460
  387POPC   GL110165   3.507   4.261   9.123
  387POPC   GL210166   3.237   4.063   9.014
  387POPC   C1A10167   3.610   4.203   8.702
  387POPC   D2A10168   3.640   4.567   8.433
  387POPC   C3A10169   3.462   4.508   8.050
  387POPC   C4A10170   3.485   4.292   7.682
  387POPC   C1B10171   2.966   4.203   8.737
  387POPC   C2B10172   3.206   4.250   8.398
  387POPC   C3B10173   3.280   4.011   8.050
  387POPC   C4B10174   2.968   4.169   7.761
  388POPC   NC310175  15.227  13.026   9.425
  388POPC   PO410176  15.001  12.418   9.450
  388POPC   GL110177  15.227  12.623   9.100
  388POPC   GL210178  15.522  12.887   9.029
  388POPC   C1A10179  15.036  12.859   8.771
  388POPC   D2A10180  14.787  12.783   8.421
  388POPC   C3A10181  14.922  12.736   8.018
  388POPC   C4A10182  14.997  12.420   7.747
  388POPC   C1B10183  15.481  12.608   8.659
  388POPC   C2B10184  15.599  12.446   8.273
  388POPC   C3B10185  15.431  12.663   7.923
  388POPC   C4B10186  15.588  13.081   7.774
  389POPC   NC310187   8.468   6.859   9.461
  389POPC   PO410188   7.828   6.740   9.757
  389POPC   GL110189   7.961   6.810   9.317
  389POPC   GL210190   8.181   6.516   9.203
  389POPC   C1A10191   8.066   6.926   8.887
  389POPC   D2A10192   8.341   6.853   8.515
  389POPC   C3A10193   8.164   6.871   8.101
  389POPC   C4A10194   7.870   6.595   7.881
  389POPC   C1B10195   8.379   6.436   8.788
  389POPC   C2B10196   8.326   6.308   8.330
  389POPC   C3B10197   8.367   6.427   7.863
  389POPC   C4B10198   8.458   6.412   7.386
  390POPC   NC310199  21.763  33.526   9.390
  390POPC   PO410200  22.279  34.037   9.488
  390POPC   GL110201  22.143  33.802   9.141
  390POPC   GL210202  21.798  33.956   9.108
  390POPC   C1A10203  22.267  33.565   8.746
  390POPC   D2A10204  22.443  33.670   8.348
  390POPC   C3A10205  22.110  33.744   8.070
  390POPC   C4A10206  22.065  33.703   7.641
  390POPC   C1B10207  21.961  33.990   8.696
  390POPC   C2B10208  21.845  34.184   8.316
  390POPC   C3B10209  21.860  34.142   7.851
  390POPC   C4B10210  21.838  34.105   7.401
  391POPC   NC310211   2.292  43.316   9.410
  391POPC   PO410212   1.700  42.888   9.514
  391POPC   GL110213   1.995  42.962   9.191
  391POPC   GL210214   1.977  43.292   9.003
  391POPC   C1A10215   2.268  42.892   8.844
  391POPC   D2A10216   2.406  43.011   8.440
  391POPC   C3A10217   2.173  42.891   8.088
  391POPC   C4A10218   2.442  43.015   7.790
  391POPC   C1B10219   1.654  43.483   8.722
  391POPC   C2B10220   1.779  43.587   8.312
  391POPC   C3B10221   2.100  43.405   8.076
  391POPC   C4B10222   1.959  43.211   7.725
  392POPC   NC310223   5.094  20.628   9.385
  392POPC   PO410224   5.389  20.057   9.496
  392POPC   GL110225   5.314  20.252   9.064
  392POPC   GL210226   4.982  20.423   8.942
  392POPC   C1A10227   5.368  20.348   8.611
  392POPC   D2A10228   5.373  20.760   8.390
  392POPC   C3A10229   5.217  20.737   7.993
  392POPC   C4A10230   5.035  20.407   7.782
  392POPC   C1B10231   4.890  20.711   8.637
  392POPC   C2B10232   4.684  20.586   8.287
  392POPC   C3B10233   4.608  20.685   7.893
  392POPC   C4B10234   4.850  20.876   7.626
  393POPC   NC310235  27.543  21.377   9.464
  393POPC   PO410236  27.016  21.090   9.542
  393POPC   GL110237  27.276  21.031   9.129
  393POPC   GL210238  27.620  21.078   9.046
  393POPC   C1A10239  27.332  21.188   8.661
  393POPC   D2A10240  27.686  21.319   8.363
  393POPC   C3A10241  27.570  21.407   7.922
  393POPC   C4A10242  27.179  21.543   7.673
  393POPC   C1B10243  27.744  20.902   8.664
  393POPC   C2B10244  27.532  20.851   8.249
  393POPC   C3B10245  27.771  20.897   7.871
  393POPC   C4B10246  27.955  21.208   7.582
  394POPC   NC310247  22.542   0.697   9.468
  394POPC   PO410248  22.901   0.117   9.390
  394POPC   GL110249  22.834   0.467   9.101
  394POPC   GL210250  22.991   0.780   9.237
  394POPC   C1A10251  22.671   0.485   8.659
  394POPC   D2A10252  22.784   0.164   8.321
  394POPC   C3A10253  22.988   0.242   7.910
  394POPC   C4A10254  22.770   0.323   7.511
  394POPC   C1B10255  23.102   0.784   8.805
  394POPC   C2B10256  23.099   0.594   8.385
  394POPC   C3B10257  22.977   0.747   8.022
  394POPC   C4B10258  23.080   0.682   7.633
  395POPC   NC310259  11.523  43.926   9.673
  395POPC   PO410260  10.940  44.097   9.488
  395POPC   GL110261  11.168  43.866   9.182
  395POPC   GL210262  11.445  44.086   9.193
  395POPC   C1A10263  11.098  43.815   8.730
  395POPC   D2A10264  11.159  44.123   8.409
  395POPC   C3A10265  11.238  43.997   7.992
  395POPC   C4A10266  11.045  43.687   7.754
  395POPC   C1B10267  11.571  43.996   8.746
  395POPC   C2B10268  11.521  43.742   8.389
  395POPC   C3B10269  11.739  43.980   8.131
  395POPC   C4B10270  11.775  44.150   7.760
  396POPC   NC310271   5.619  36.206   9.662
  396POPC   PO410272   6.185  35.952   9.512
  396POPC   GL110273   5.917  36.234   9.226
  396POPC   GL210274   5.553  36.266   9.158
  396POPC   C1A10275   5.822  36.085   8.778
  396POPC   D2A10276   5.953  35.857   8.366
  396POPC   C3A10277   6.036  35.959   7.896
  396POPC   C4A10278   5.970  35.824   7.419
  396POPC   C1B10279   5.522  36.540   8.759
  396POPC   C2B10280   5.649  36.325   8.375
  396POPC   C3B10281   5.544  36.019   8.095
  396POPC   C4B10282   5.625  36.153   7.683
  397POPC   NC310283  17.601   0.869   9.583
  397POPC   PO410284  17.479   1.550   9.575
  397POPC   GL110285  17.647   1.438   9.195
  397POPC   GL210286  17.669   1.115   9.152
  397POPC   C1A10287  17.682   1.494   8.767
  397POPC   D2A10288  17.433   1.442   8.417
  397POPC   C3A10289  17.608   1.370   8.013
  397POPC   C4A10290  17.277   1.369   7.720
  397POPC   C1B10291  17.436   1.028   8.770
  397POPC   C2B10292  17.231   0.978   8.383
  397POPC   C3B10293  17.183   0.941   7.979
  397POPC   C4B10294  17.542   0.904   7.766
  398POPC   NC310295  35.822  26.004   9.708
  398POPC   PO410296  35.413  26.388   9.339
  398POPC   GL110297  35.367  26.115   9.000
  398POPC   GL210298  35.735  26.119   9.026
  398POPC   C1A10299  35.210  25.915   8.601
  398POPC   D2A10300  35.493  25.967   8.219
  398POPC   C3A10301  35.376  26.151   7.817
  398POPC   C4A10302  35.123  25.999   7.463
  398POPC   C1B10303  35.692  25.800   8.713
  398POPC   C2B10304  35.740  25.542   8.367
  398POPC   C3B10305  35.686  25.568   7.934
  398POPC   C4B10306  35.574  25.739   7.534
  399POPC   NC310307  38.295  36.512   9.424
  399POPC   PO410308  38.662  36.945   9.727
  399POPC   GL110309  38.599  37.114   9.242
  399POPC   GL210310  38.457  36.828   9.079
  399POPC   C1A10311  38.699  37.094   8.757
  399POPC   D2A10312  38.360  36.995   8.447
  399POPC   C3A10313  38.567  36.905   8.085
  399POPC   C4A10314  38.795  37.018   7.707
  399POPC   C1B10315  38.149  36.677   8.796
  399POPC   C2B10316  38.119  36.508   8.402
  399POPC   C3B10317  38.133  36.663   7.992
  399POPC   C4B10318  38.297  36.899   7.649
  400POPC   NC310319  42.685   5.692   9.690
  400POPC   PO410320  42.361   6.283   9.552
  400POPC   GL110321  42.535   6.122   9.149
  400POPC   GL210322  42.741   5.822   9.197
  400POPC   C1A10323  42.415   5.899   8.743
  400POPC   D2A10324  42.152   5.669   8.406
  400POPC   C3A10325  42.233   5.805   7.966
  400POPC   C4A10326  42.478   6.164   7.779
  400POPC   C1B10327  42.839   5.577   8.822
  400POPC   C2B10328  42.640   5.475   8.441
  400POPC   C3B10329  42.740   5.560   8.031
  400POPC   C4B10330  42.602   5.521   7.631
  401POPC   NC310331  40.171  10.312   9.556
  401POPC   PO410332  39.661  10.765   9.709
  401POPC   GL110333  39.966  10.668   9.269
  401POPC   GL210334  39.916  10.308   9.123
  401POPC   C1A10335  40.019  10.658   8.793
  401POPC   D2A10336  39.673  10.422   8.552
  401POPC   C3A10337  39.628  10.521   8.119
  401POPC   C4A10338  39.820  10.628   7.679
  401POPC   C1B10339  40.063  10.152   8.741
  401POPC   C2B10340  40.188  10.339   8.359
  401POPC   C3B10341  40.047  10.273   7.952
  401POPC   C4B10342  39.943  10.141   7.505
  402POPC   NC310343  18.265   4.273   9.443
  402POPC   PO410344  18.293   3.642   9.679
  402POPC   GL110345  18.186   3.751   9.216
  402POPC   GL210346  17.984   4.066   9.071
  402POPC   C1A10347  18.303   3.814   8.765
  402POPC   D2A10348  18.292   4.096   8.390
  402POPC   C3A10349  18.546   4.032   7.987
  402POPC   C4A10350  18.623   3.898   7.544
  402POPC   C1B10351  18.096   4.405   8.769
  402POPC   C2B10352  18.001   4.663   8.386
  402POPC   C3B10353  18.234   4.469   8.062
  402POPC   C4B10354  18.238   4.281   7.668
  403POPC   NC310355  42.830  20.190   9.392
  403POPC   PO410356  43.193  19.637   9.546
  403POPC   GL110357  43.123  19.756   9.137
  403POPC   GL210358  42.774  19.650   9.047
  403POPC   C1A10359  43.381  19.824   8.748
  403POPC   D2A10360  43.609  19.612   8.409
  403POPC   C3A10361  43.476  19.704   7.982
  403POPC   C4A10362  43.053  19.655   7.794
  403POPC   C1B10363  42.879  19.943   8.683
  403POPC   C2B10364  43.142  20.079   8.307
  403POPC   C3B10365  43.024  20.137   7.865
  403POPC   C4B10366  42.934  20.001   7.393
  404POPC   NC310367  35.137   0.873   9.485
  404POPC   PO410368  34.525   0.827   9.481
  404POPC   GL110369  34.595   0.479   9.163
  404POPC   GL210370  34.286   0.366   8.996
  404POPC   C1A10371  34.673   0.527   8.712
  404POPC   D2A10372  34.611   0.780   8.322
  404POPC   C3A10373  34.849   0.650   7.958
  404POPC   C4A10374  34.902   0.266   7.708
  404POPC   C1B10375  34.232   0.105   8.649
  404POPC   C2B10376  34.463   0.288   8.307
  404POPC   C3B10377  34.406   0.320   7.896
  404POPC   C4B10378  34.213  44.918   7.859
  405POPC   NC310379  34.267  44.174   9.461
  405POPC   PO410380  34.793  43.746   9.691
  405POPC   GL110381  34.692  43.913   9.266
  405POPC   GL210382  34.855  44.197   9.226
  405POPC   C1A10383  34.502  44.000   8.825
  405POPC   D2A10384  34.689  43.937   8.388
  405POPC   C3A10385  34.389  43.928   8.033
  405POPC   C4A10386  34.309  43.665   7.652
  405POPC   C1B10387  34.981  44.160   8.802
  405POPC   C2B10388  34.944  44.381   8.395
  405POPC   C3B10389  34.849  44.236   7.980
  405POPC   C4B10390  34.833  43.810   7.802
  406POPC   NC310391  20.095  35.108   9.382
  406POPC   PO410392  19.571  34.635   9.389
  406POPC   GL110393  19.765  34.415   9.080
  406POPC   GL210394  20.122  34.564   9.190
  406POPC   C1A10395  19.652  34.488   8.630
  406POPC   D2A10396  19.643  34.856   8.316
  406POPC   C3A10397  19.615  34.749   7.885
  406POPC   C4A10398  19.680  34.340   7.726
  406POPC   C1B10399  20.186  34.260   8.867
  406POPC   C2B10400  19.943  34.072   8.523
  406POPC   C3B10401  19.908  34.370   8.176
  406POPC   C4B10402  20.131  34.640   7.883
  407POPC   NC310403   8.830  18.615   9.423
  407POPC   PO410404   9.259  18.130   9.593
  407POPC   GL110405   9.145  18.177   9.114
  407POPC   GL210406   8.954  18.462   8.977
  407POPC   C1A10407   9.293  18.286   8.674
  407POPC   D2A10408   9.385  18.134   8.339
  407POPC   C3A10409   9.284  18.363   8.047
  407POPC   C4A10410   9.207  18.193   7.674
  407POPC   C1B10411   8.829  18.670   8.617
  407POPC   C2B10412   8.753  18.689   8.173
  407POPC   C3B10413   8.687  18.489   7.787
  407POPC   C4B10414   8.486  18.628   7.420
  408POPC   NC310415  37.725  39.574   9.577
  408POPC   PO410416  37.435  38.989   9.734
  408POPC   GL110417  37.550  39.179   9.311
  408POPC   GL210418  37.902  39.285   9.174
  408POPC   C1A10419  37.520  39.185   8.845
  408POPC   D2A10420  37.802  39.009   8.496
  408POPC   C3A10421  37.737  38.971   8.024
  408POPC   C4A10422  37.971  38.623   7.783
  408POPC   C1B10423  37.929  39.465   8.754
  408POPC   C2B10424  37.842  39.473   8.300
  408POPC   C3B10425  37.836  39.472   7.864
  408POPC   C4B10426  37.586  39.266   7.579
  409POPC   NC310427  15.033   3.336   9.535
  409POPC   PO410428  15.183   3.936   9.460
  409POPC   GL110429  15.166   3.663   9.121
  409POPC   GL210430  15.419   3.412   9.185
  409POPC   C1A10431  15.289   3.718   8.677
  409POPC   D2A10432  15.236   3.771   8.239
  409POPC   C3A10433  15.158   3.505   7.943
  409POPC   C4A10434  14.740   3.439   7.815
  409POPC   C1B10435  15.542   3.262   8.795
  409POPC   C2B10436  15.385   3.259   8.377
  409POPC   C3B10437  15.468   3.081   7.984
  409POPC   C4B10438  15.512   3.287   7.631
  410POPC   NC310439  15.713  14.609   9.656
  410POPC   PO410440  16.244  14.395   9.444
  410POPC   GL110441  15.884  14.205   9.162
  410POPC   GL210442  15.744  13.855   9.183
  410POPC   C1A10443  15.668  14.293   8.775
  410POPC   D2A10444  15.867  14.352   8.372
  410POPC   C3A10445  15.970  14.416   7.941
  410POPC   C4A10446  16.017  14.199   7.569
  410POPC   C1B10447  15.494  13.806   8.803
  410POPC   C2B10448  15.545  13.955   8.393
  410POPC   C3B10449  15.625  14.021   7.984
  410POPC   C4B10450  15.482  14.372   7.806
  411POPC   NC310451  12.303   9.031   9.307
  411POPC   PO410452  11.606   9.257   9.360
  411POPC   GL110453  11.839   9.109   9.043
  411POPC   GL210454  11.954   8.779   9.023
  411POPC   C1A10455  11.767   9.017   8.621
  411POPC   D2A10456  11.858   8.904   8.215
  411POPC   C3A10457  11.740   9.254   7.980
  411POPC   C4A10458  11.946   9.379   7.612
  411POPC   C1B10459  12.324   8.802   8.689
  411POPC   C2B10460  12.435   8.559   8.302
  411POPC   C3B10461  12.277   8.734   7.935
  411POPC   C4B10462  12.288   9.183   7.905
  412POPC   NC310463   6.292  35.668   9.164
  412POPC   PO410464   6.561  35.128   9.528
  412POPC   GL110465   6.612  35.254   9.068
  412POPC   GL210466   6.803  35.546   8.973
  412POPC   C1A10467   6.477  35.332   8.633
  412POPC   D2A10468   6.258  35.446   8.254
  412POPC   C3A10469   6.373  35.114   7.979
  412POPC   C4A10470   6.620  35.344   7.724
  412POPC   C1B10471   6.888  35.708   8.585
  412POPC   C2B10472   6.786  35.639   8.150
  412POPC   C3B10473   7.024  35.669   7.769
  412POPC   C4B10474   6.890  35.792   7.341
  413POPC   NC310475   9.879  22.291   9.547
  413POPC   PO410476   9.746  21.634   9.817
  413POPC   GL110477   9.646  21.881   9.326
  413POPC   GL210478   9.792  22.200   9.084
  413POPC   C1A10479   9.566  21.872   8.834
  413POPC   D2A10480   9.844  21.769   8.509
  413POPC   C3A10481   9.786  21.980   8.152
  413POPC   C4A10482   9.680  22.160   7.757
  413POPC   C1B10483   9.791  22.428   8.685
  413POPC   C2B10484   9.612  22.431   8.284
  413POPC   C3B10485   9.346  22.523   7.953
  413POPC   C4B10486   9.488  22.557   7.532
  414POPC   NC310487  35.812  21.058   9.276
  414POPC   PO410488  35.172  21.001   9.513
  414POPC   GL110489  35.305  21.351   9.202
  414POPC   GL210490  35.641  21.496   9.124
  414POPC   C1A10491  35.165  21.347   8.767
  414POPC   D2A10492  35.359  21.181   8.394
  414POPC   C3A10493  35.279  21.450   8.050
  414POPC   C4A10494  35.321  21.332   7.622
  414POPC   C1B10495  35.663  21.393   8.735
  414POPC   C2B10496  35.558  21.656   8.419
  414POPC   C3B10497  35.613  21.864   8.066
  414POPC   C4B10498  35.723  21.612   7.741
  415POPC   NC310499   6.214  22.657   9.551
  415POPC   PO410500   6.883  22.952   9.635
  415POPC   GL110501   6.797  22.749   9.258
  415POPC   GL210502   7.105  22.788   9.135
  415POPC   C1A10503   6.622  22.788   8.826
  415POPC   D2A10504   6.673  23.105   8.469
  415POPC   C3A10505   6.520  22.968   8.047
  415POPC   C4A10506   6.297  23.026   7.636
  415POPC   C1B10507   7.103  22.753   8.691
  415POPC   C2B10508   6.990  22.749   8.265
  415POPC   C3B10509   7.013  22.949   7.885
  415POPC   C4B10510   6.801  23.088   7.541
  416POPC   NC310511  40.819   4.687   9.511
  416POPC   PO410512  40.461   4.162   9.687
  416POPC   GL110513  40.516   4.104   9.248
  416POPC   GL210514  40.281   3.852   9.144
  416POPC   C1A10515  40.820   4.244   8.930
  416POPC   D2A10516  40.837   4.519   8.564
  416POPC   C3A10517  40.855   4.361   8.127
  416POPC   C4A10518  40.847   4.539   7.727
  416POPC   C1B10519  40.596   3.802   8.796
  416POPC   C2B10520  40.815   3.970   8.476
  416POPC   C3B10521  40.744   3.863   8.086
  416POPC   C4B10522  40.679   4.045   7.708
  417POPC   NC310523  30.995   4.859   9.804
  417POPC   PO410524  30.505   5.078   9.375
  417POPC   GL110525  30.608   5.264   9.038
  417POPC   GL210526  30.858   5.529   9.054
  417POPC   C1A10527  30.591   5.031   8.659
  417POPC   D2A10528  30.726   5.105   8.255
  417POPC   C3A10529  30.454   4.942   7.984
  417POPC   C4A10530  30.350   5.071   7.575
  417POPC   C1B10531  30.999   5.341   8.679
  417POPC   C2B10532  31.211   5.044   8.407
  417POPC   C3B10533  31.094   4.834   8.008
  417POPC   C4B10534  30.865   5.016   7.662
  418POPC   NC310535  37.753   9.773   9.546
  418POPC   PO410536  37.184   9.609   9.293
  418POPC   GL110537  37.571   9.715   9.067
  418POPC   GL210538  37.785  10.031   9.123
  418POPC   C1A10539  37.625   9.505   8.689
  418POPC   D2A10540  37.416   9.692   8.373
  418POPC   C3A10541  37.487   9.493   8.019
  418POPC   C4A10542  37.888   9.502   7.803
  418POPC   C1B10543  37.885   9.924   8.700
  418POPC   C2B10544  37.921   9.801   8.263
  418POPC   C3B10545  37.693   9.969   7.911
  418POPC   C4B10546  37.885  10.271   7.661
  419POPC   NC310547  40.739  39.943   9.555
  419POPC   PO410548  40.371  40.471   9.456
  419POPC   GL110549  40.520  40.165   9.130
  419POPC   GL210550  40.680  39.844   9.062
  419POPC   C1A10551  40.678  40.203   8.686
  419POPC   D2A10552  40.844  40.330   8.277
  419POPC   C3A10553  40.768  40.045   7.940
  419POPC   C4A10554  40.652  39.645   7.911
  419POPC   C1B10555  41.060  39.881   8.799
  419POPC   C2B10556  41.169  39.944   8.354
  419POPC   C3B10557  41.202  39.759   7.938
  419POPC   C4B10558  41.162  39.782   7.517
  420POPC   NC310559   4.577  35.002   9.357
  420POPC   PO410560   5.119  34.567   9.473
  420POPC   GL110561   5.182  34.674   9.091
  420POPC   GL210562   4.938  34.375   8.999
  420POPC   C1A10563   4.996  34.827   8.736
  420POPC   D2A10564   4.937  34.520   8.430
  420POPC   C3A10565   5.063  34.688   8.048
  420POPC   C4A10566   4.894  34.737   7.651
  420POPC   C1B10567   5.308  34.234   8.790
  420POPC   C2B10568   5.433  34.282   8.374
  420POPC   C3B10569   5.316  34.254   7.966
  420POPC   C4B10570   4.925  34.254   7.802
  421POPC   NC310571  41.569   3.253   9.511
  421POPC   PO410572  41.334   3.909   9.596
  421POPC   GL110573  41.411   3.648   9.225
  421POPC   GL210574  41.189   3.375   9.216
  421POPC   C1A10575  41.575   3.457   8.837
  421POPC   D2A10576  41.803   3.339   8.472
  421POPC   C3A10577  41.876   3.630   8.126
  421POPC   C4A10578  41.632   3.647   7.774
  421POPC   C1B10579  41.096   3.290   8.811
  421POPC   C2B10580  41.239   3.355   8.415
  421POPC   C3B10581  41.192   3.460   8.007
  421POPC   C4B10582  41.204   3.230   7.665
  422POPC   NC310583   1.484  24.179   9.312
  422POPC   PO410584   1.166  24.657   9.493
  422POPC   GL110585   1.036  24.538   9.035
  422POPC   GL210586   1.084  24.171   8.925
  422POPC   C1A10587   0.895  24.751   8.626
  422POPC   D2A10588   0.774  24.878   8.188
  422POPC   C3A10589   1.069  24.671   7.908
  422POPC   C4A10590   1.482  24.793   7.803
  422POPC   C1B10591   1.507  24.072   8.708
  422POPC   C2B10592   1.686  24.292   8.363
  422POPC   C3B10593   1.574  24.288   7.929
  422POPC   C4B10594   1.555  23.954   7.587
  423POPC   NC310595  26.380  27.358   9.437
  423POPC   PO410596  27.083  27.616   9.320
  423POPC   GL110597  26.878  27.773   8.972
  423POPC   GL210598  26.556  27.718   9.112
  423POPC   C1A10599  26.794  27.713   8.534
  423POPC   D2A10600  26.437  27.713   8.262
  423POPC   C3A10601  26.585  27.948   7.936
  423POPC   C4A10602  26.943  27.733   7.774
  423POPC   C1B10603  26.420  27.464   8.768
  423POPC   C2B10604  26.581  27.227   8.397
  423POPC   C3B10605  26.661  27.336   7.986
  423POPC   C4B10606  26.392  27.540   7.737
  424POPC   NC310607  20.377  13.010   9.302
  424POPC   PO410608  20.703  13.601   9.481
  424POPC   GL110609  20.539  13.497   9.092
  424POPC   GL210610  20.754  13.246   9.016
  424POPC   C1A10611  20.457  13.601   8.666
  424POPC   D2A10612  20.639  13.682   8.248
  424POPC   C3A10613  20.488  13.471   7.866
  424POPC   C4A10614  20.365  13.471   7.432
  424POPC   C1B10615  20.972  13.439   8.633
  424POPC   C2B10616  21.154  13.641   8.256
  424POPC   C3B10617  21.000  13.454   7.863
  424POPC   C4B10618  20.876  13.594   7.460
  425POPC   NC310619   9.766   4.835   9.603
  425POPC   PO410620   9.952   5.445   9.572
  425POPC   GL110621   9.862   5.148   9.176
  425POPC   GL210622   9.907   4.774   9.117
  425POPC   C1A10623   9.619   5.049   8.761
  425POPC   D2A10624   9.414   5.052   8.323
  425POPC   C3A10625   9.497   5.405   8.011
  425POPC   C4A10626   9.428   5.413   7.554
  425POPC   C1B10627  10.159   4.961   8.768
  425POPC   C2B10628  10.238   4.995   8.285
  425POPC   C3B10629  10.022   4.811   7.887
  425POPC   C4B10630   9.983   4.788   7.399
  426POPC   NC310631  35.336  31.435   9.770
  426POPC   PO410632  35.105  32.031   9.587
  426POPC   GL110633  35.174  31.740   9.211
  426POPC   GL210634  35.475  31.525   9.186
  426POPC   C1A10635  35.279  31.705   8.739
  426POPC   D2A10636  35.126  31.434   8.374
  426POPC   C3A10637  35.072  31.646   7.967
  426POPC   C4A10638  35.402  31.826   7.786
  426POPC   C1B10639  35.293  31.221   8.840
  426POPC   C2B10640  35.598  31.219   8.483
  426POPC   C3B10641  35.533  31.400   8.086
  426POPC   C4B10642  35.292  31.219   7.779
  427POPC   NC310643  28.233   9.008   9.930
  427POPC   PO410644  28.626   8.660   9.619
  427POPC   GL110645  28.499   8.612   9.168
  427POPC   GL210646  28.345   8.940   9.151
  427POPC   C1A10647  28.508   8.744   8.707
  427POPC   D2A10648  28.486   8.595   8.297
  427POPC   C3A10649  28.624   8.911   7.997
  427POPC   C4A10650  28.526   8.818   7.576
  427POPC   C1B10651  28.105   9.047   8.750
  427POPC   C2B10652  28.209   9.051   8.284
  427POPC   C3B10653  28.244   9.203   7.822
  427POPC   C4B10654  28.472   9.315   7.419
  428POPC   NC310655  12.859  17.663   9.507
  428POPC   PO410656  13.033  17.084   9.548
  428POPC   GL110657  13.016  17.268   9.129
  428POPC   GL210658  12.910  17.613   9.026
  428POPC   C1A10659  12.846  17.269   8.673
  428POPC   D2A10660  12.993  17.576   8.330
  428POPC   C3A10661  13.053  17.355   7.933
  428POPC   C4A10662  12.752  17.215   7.593
  428POPC   C1B10663  12.686  17.760   8.709
  428POPC   C2B10664  12.473  17.520   8.380
  428POPC   C3B10665  12.602  17.571   7.958
  428POPC   C4B10666  12.974  17.873   7.881
  429POPC   NC310667  10.501  19.500   9.264
  429POPC   PO410668  10.301  20.064   9.520
  429POPC   GL110669  10.562  20.153   9.137
  429POPC   GL210670  10.679  19.858   8.951
  429POPC   C1A10671  10.622  20.301   8.718
  429POPC   D2A10672  10.532  19.985   8.410
  429POPC   C3A10673  10.633  19.865   8.019
  429POPC   C4A10674  10.506  19.682   7.632
  429POPC   C1B10675  10.886  19.621   8.625
  429POPC   C2B10676  10.741  19.415   8.288
  429POPC   C3B10677  10.738  19.318   7.879
  429POPC   C4B10678  11.000  19.506   7.521
  430POPC   NC310679   5.106  44.272   9.535
  430POPC   PO410680   5.367  43.603   9.555
  430POPC   GL110681   5.205  43.889   9.203
  430POPC   GL210682   4.913  44.110   9.096
  430POPC   C1A10683   5.139  43.710   8.804
  430POPC   D2A10684   5.351  43.464   8.498
  430POPC   C3A10685   5.344  43.701   8.124
  430POPC   C4A10686   5.090  43.779   7.777
  430POPC   C1B10687   4.736  44.007   8.690
  430POPC   C2B10688   4.822  43.960   8.249
  430POPC   C3B10689   4.713  44.102   7.819
  430POPC   C4B10690   4.800  43.981   7.408
  431POPC   NC310691   7.754  14.316   9.735
  431POPC   PO410692   7.239  14.657   9.595
  431POPC   GL110693   7.263  14.416   9.238
  431POPC   GL210694   7.454  14.697   9.081
  431POPC   C1A10695   7.304  14.263   8.814
  431POPC   D2A10696   7.476  14.077   8.432
  431POPC   C3A10697   7.480  14.400   8.091
  431POPC   C4A10698   7.590  14.316   7.669
  431POPC   C1B10699   7.711  14.574   8.735
  431POPC   C2B10700   7.878  14.670   8.332
  431POPC   C3B10701   7.884  14.666   7.903
  431POPC   C4B10702   7.930  14.652   7.460
  432POPC   NC310703  11.371  19.937   9.492
  432POPC   PO410704  10.970  19.463   9.253
  432POPC   GL110705  11.369  19.613   9.046
  432POPC   GL210706  11.618  19.876   9.059
  432POPC   C1A10707  11.438  19.716   8.613
  432POPC   D2A10708  11.276  19.451   8.306
  432POPC   C3A10709  11.106  19.662   8.008
  432POPC   C4A10710  11.399  19.774   7.748
  432POPC   C1B10711  11.569  20.206   8.766
  432POPC   C2B10712  11.474  20.257   8.313
  432POPC   C3B10713  11.430  20.263   7.852
  432POPC   C4B10714  11.351  20.138   7.410
  433POPC   NC310715   9.606  41.855   9.514
  433POPC   PO410716   9.963  41.255   9.534
  433POPC   GL110717   9.950  41.595   9.233
  433POPC   GL210718   9.617  41.504   9.134
  433POPC   C1A10719   9.949  41.770   8.818
  433POPC   D2A10720   9.947  41.611   8.403
  433POPC   C3A10721   9.684  41.837   8.123
  433POPC   C4A10722   9.732  41.831   7.686
  433POPC   C1B10723   9.627  41.323   8.738
  433POPC   C2B10724   9.461  41.427   8.330
  433POPC   C3B10725   9.682  41.361   7.953
  433POPC   C4B10726   9.597  41.372   7.501
  434POPC   NC310727  34.565   3.768   9.670
  434POPC   PO410728  34.274   3.253   9.454
  434POPC   GL110729  34.560   3.505   9.187
  434POPC   GL210730  34.540   3.865   9.172
  434POPC   C1A10731  34.763   3.595   8.786
  434POPC   D2A10732  34.943   3.724   8.412
  434POPC   C3A10733  34.605   3.650   8.133
  434POPC   C4A10734  34.504   3.267   7.934
  434POPC   C1B10735  34.328   3.887   8.763
  434POPC   C2B10736  34.118   4.005   8.363
  434POPC   C3B10737  34.229   4.023   7.902
  434POPC   C4B10738  34.461   3.910   7.520
  435POPC   NC310739   4.010   0.258   9.605
  435POPC   PO410740   4.563   0.683   9.793
  435POPC   GL110741   4.449   0.680   9.272
  435POPC   GL210742   4.103   0.546   9.188
  435POPC   C1A10743   4.431   0.561   8.801
  435POPC   D2A10744   4.619   0.461   8.391
  435POPC   C3A10745   4.407   0.433   7.996
  435POPC   C4A10746   4.340   0.628   7.576
  435POPC   C1B10747   4.159   0.129   8.908
  435POPC   C2B10748   4.205  44.923   8.500
  435POPC   C3B10749   4.123   0.014   8.083
  435POPC   C4B10750   4.016   0.182   7.675
  436POPC   NC310751  13.846  17.822   9.492
  436POPC   PO410752  14.279  18.168   9.495
  436POPC   GL110753  14.396  18.297   9.121
  436POPC   GL210754  14.623  17.984   9.061
  436POPC   C1A10755  14.138  18.372   8.787
  436POPC   D2A10756  14.267  18.316   8.375
  436POPC   C3A10757  14.159  18.547   8.049
  436POPC   C4A10758  14.144  18.366   7.647
  436POPC   C1B10759  14.676  18.240   8.667
  436POPC   C2B10760  14.752  18.282   8.186
  436POPC   C3B10761  14.752  18.224   7.717
  436POPC   C4B10762  14.892  17.977   7.338
  437POPC   NC310763  13.654  34.395   9.508
  437POPC   PO410764  13.387  33.774   9.592
  437POPC   GL110765  13.408  33.887   9.163
  437POPC   GL210766  13.730  33.981   9.192
  437POPC   C1A10767  13.584  33.716   8.740
  437POPC   D2A10768  13.977  33.642   8.465
  437POPC   C3A10769  14.000  33.774   8.031
  437POPC   C4A10770  13.703  33.732   7.716
  437POPC   C1B10771  13.965  34.040   8.823
  437POPC   C2B10772  13.862  34.141   8.419
  437POPC   C3B10773  14.015  34.284   8.060
  437POPC   C4B10774  13.920  34.197   7.658
  438POPC   NC310775   1.858  23.172   9.488
  438POPC   PO410776   2.023  22.522   9.407
  438POPC   GL110777   1.844  22.652   9.071
  438POPC   GL210778   1.727  22.977   9.061
  438POPC   C1A10779   2.027  22.706   8.688
  438POPC   D2A10780   2.266  22.729   8.325
  438POPC   C3A10781   2.023  22.829   7.964
  438POPC   C4A10782   2.095  23.112   7.626
  438POPC   C1B10783   1.547  22.880   8.721
  438POPC   C2B10784   1.716  22.987   8.366
  438POPC   C3B10785   1.712  23.231   8.055
  438POPC   C4B10786   1.614  22.984   7.675
  439POPC   NC310787  19.144  31.132   9.504
  439POPC   PO410788  18.849  31.699   9.512
  439POPC   GL110789  19.085  31.804   9.119
  439POPC   GL210790  19.294  31.514   9.160
  439POPC   C1A10791  19.120  31.702   8.637
  439POPC   D2A10792  19.169  31.296   8.389
  439POPC   C3A10793  18.990  31.339   7.968
  439POPC   C4A10794  18.664  31.607   7.807
  439POPC   C1B10795  19.543  31.811   8.878
  439POPC   C2B10796  19.582  31.920   8.449
  439POPC   C3B10797  19.325  31.723   8.153
  439POPC   C4B10798  19.423  31.545   7.784
  440POPC   NC310799  11.356  33.611   9.582
  440POPC   PO410800  11.363  34.303   9.816
  440POPC   GL110801  11.193  34.050   9.358
  440POPC   GL210802  11.468  33.817   9.137
  440POPC   C1A10803  11.123  34.058   8.859
  440POPC   D2A10804  11.303  34.248   8.456
  440POPC   C3A10805  11.297  34.078   8.018
  440POPC   C4A10806  11.181  33.834   7.615
  440POPC   C1B10807  11.640  33.658   8.745
  440POPC   C2B10808  11.390  33.718   8.382
  440POPC   C3B10809  11.485  33.603   7.963
  440POPC   C4B10810  11.573  33.501   7.550
  441POPC   NC310811  14.810  23.672   9.518
  441POPC   PO410812  14.200  24.115   9.410
  441POPC   GL110813  14.144  23.751   9.178
  441POPC   GL210814  14.429  23.552   9.178
  441POPC   C1A10815  14.089  23.769   8.741
  441POPC   D2A10816  14.308  24.051   8.455
  441POPC   C3A10817  14.318  23.909   8.038
  441POPC   C4A10818  14.240  24.017   7.638
  441POPC   C1B10819  14.578  23.726   8.794
  441POPC   C2B10820  14.477  23.545   8.376
  441POPC   C3B10821  14.496  23.321   7.980
  441POPC   C4B10822  14.349  23.488   7.612
  442POPC   NC310823  38.118  21.213   9.531
  442POPC   PO410824  38.717  21.371   9.546
  442POPC   GL110825  38.509  21.315   9.160
  442POPC   GL210826  38.224  21.433   9.087
  442POPC   C1A10827  38.582  21.442   8.720
  442POPC   D2A10828  38.536  21.372   8.283
  442POPC   C3A10829  38.712  21.658   7.973
  442POPC   C4A10830  38.700  21.542   7.495
  442POPC   C1B10831  38.008  21.609   8.773
  442POPC   C2B10832  38.100  21.634   8.359
  442POPC   C3B10833  38.027  21.439   7.982
  442POPC   C4B10834  38.277  21.670   7.732
  443POPC   NC310835  44.863   8.904   9.565
  443POPC   PO410836  44.285   8.592   9.279
  443POPC   GL110837  44.491   8.952   9.052
  443POPC   GL210838  44.847   9.043   9.068
  443POPC   C1A10839  44.468   9.178   8.711
  443POPC   D2A10840  44.634   9.166   8.334
  443POPC   C3A10841  44.258   9.032   8.140
  443POPC   C4A10842  44.415   8.887   7.777
  443POPC   C1B10843  44.927   8.817   8.676
  443POPC   C2B10844   0.085   8.804   8.249
  443POPC   C3B10845  44.957   9.001   7.857
  443POPC   C4B10846  44.928   8.759   7.444
  444POPC   NC310847  40.404  37.664  10.012
  444POPC   PO410848  39.862  37.869   9.664
  444POPC   GL110849  39.724  37.675   9.228
  444POPC   GL210850  39.494  37.394   9.113
  444POPC   C1A10851  39.735  37.804   8.774
  444POPC   D2A10852  39.985  37.659   8.397
  444POPC   C3A10853  39.982  37.738   7.921
  444POPC   C4A10854  40.275  37.738   7.552
  444POPC   C1B10855  39.779  37.283   8.746
  444POPC   C2B10856  39.984  37.140   8.336
  444POPC   C3B10857  39.821  37.175   7.902
  444POPC   C4B10858  39.860  37.405   7.512
  445POPC   NC310859  21.473   3.449   9.667
  445POPC   PO410860  21.207   4.113   9.560
  445POPC   GL110861  21.348   3.767   9.293
  445POPC   GL210862  21.093   3.536   9.340
  445POPC   C1A10863  21.545   3.446   9.002
  445POPC   D2A10864  21.702   3.169   8.665
  445POPC   C3A10865  21.681   3.340   8.229
  445POPC   C4A10866  21.633   3.407   7.774
  445POPC   C1B10867  21.062   3.564   8.912
  445POPC   C2B10868  21.290   3.498   8.528
  445POPC   C3B10869  21.248   3.568   8.092
  445POPC   C4B10870  21.145   3.496   7.674
  446POPC   NC310871  32.214  18.253   9.507
  446POPC   PO410872  32.807  18.600   9.557
  446POPC   GL110873  32.727  18.393   9.150
  446POPC   GL210874  32.538  18.124   9.143
  446POPC   C1A10875  32.523  18.375   8.723
  446POPC   D2A10876  32.203  18.408   8.437
  446POPC   C3A10877  32.309  18.316   8.068
  446POPC   C4A10878  32.079  18.382   7.766
  446POPC   C1B10879  32.146  18.081   8.875
  446POPC   C2B10880  32.040  17.899   8.457
  446POPC   C3B10881  31.962  17.924   8.015
  446POPC   C4B10882  32.262  17.889   7.675
  447POPC   NC310883  34.412   1.275   9.446
  447POPC   PO410884  35.129   1.361   9.491
  447POPC   GL110885  34.848   1.186   9.171
  447POPC   GL210886  34.634   1.461   9.028
  447POPC   C1A10887  34.673   1.041   8.768
  447POPC   D2A10888  34.610   1.310   8.393
  447POPC   C3A10889  34.314   1.133   8.106
  447POPC   C4A10890  34.422   0.849   7.782
  447POPC   C1B10891  34.309   1.578   8.737
  447POPC   C2B10892  34.039   1.547   8.353
  447POPC   C3B10893  34.184   1.588   7.927
  447POPC   C4B10894  34.479   1.371   7.677
  448POPC   NC310895  44.275   2.122   9.590
  448POPC   PO410896  43.853   1.648   9.408
  448POPC   GL110897  43.755   1.998   9.089
  448POPC   GL210898  43.537   2.321   9.113
  448POPC   C1A10899  43.791   1.877   8.675
  448POPC   D2A10900  43.897   1.546   8.378
  448POPC   C3A10901  43.822   1.790   8.032
  448POPC   C4A10902  44.096   1.999   7.767
  448POPC   C1B10903  43.443   2.261   8.658
  448POPC   C2B10904  43.436   2.381   8.211
  448POPC   C3B10905  43.765   2.354   7.887
  448POPC   C4B10906  43.861   2.328   7.418
  449POPC   NC310907  32.300  16.462   9.626
  449POPC   PO410908  32.138  15.799   9.524
  449POPC   GL110909  32.098  16.017   9.159
  449POPC   GL210910  32.420  16.172   9.196
  449POPC   C1A10911  32.238  15.950   8.718
  449POPC   D2A10912  32.099  15.999   8.291
  449POPC   C3A10913  32.409  15.784   8.059
  449POPC   C4A10914  32.413  15.816   7.649
  449POPC   C1B10915  32.537  16.370   8.796
  449POPC   C2B10916  32.579  16.188   8.368
  449POPC   C3B10917  32.508  16.294   7.959
  449POPC   C4B10918  32.724  16.303   7.582
  450POPC   NC310919  25.203  18.950   9.523
  450POPC   PO410920  25.612  19.432   9.598
  450POPC   GL110921  25.552  19.196   9.220
  450POPC   GL210922  25.651  18.865   9.307
  450POPC   C1A10923  25.295  19.182   8.822
  450POPC   D2A10924  25.128  19.279   8.394
  450POPC   C3A10925  25.165  18.994   8.017
  450POPC   C4A10926  25.025  18.877   7.573
  450POPC   C1B10927  25.707  18.856   8.871
  450POPC   C2B10928  25.477  18.837   8.480
  450POPC   C3B10929  25.642  18.795   8.079
  450POPC   C4B10930  25.608  18.992   7.719
  451POPC   NC310931  32.124   9.828   9.546
  451POPC   PO410932  32.838   9.845   9.656
  451POPC   GL110933  32.559   9.837   9.284
  451POPC   GL210934  32.712   9.620   9.105
  451POPC   C1A10935  32.270   9.784   8.872
  451POPC   D2A10936  32.306   9.648   8.405
  451POPC   C3A10937  31.972   9.642   8.075
  451POPC   C4A10938  31.988  10.009   7.787
  451POPC   C1B10939  32.733  10.001   8.815
  451POPC   C2B10940  32.629  10.140   8.383
  451POPC   C3B10941  32.622   9.904   8.001
  451POPC   C4B10942  32.366   9.663   7.752
  452POPC   NC310943  41.719  31.301   9.628
  452POPC   PO410944  41.278  31.826   9.492
  452POPC   GL110945  41.665  31.642   9.234
  452POPC   GL210946  41.545  31.307   9.138
  452POPC   C1A10947  41.889  31.509   8.828
  452POPC   D2A10948  41.673  31.378   8.449
  452POPC   C3A10949  41.876  31.492   8.083
  452POPC   C4A10950  41.741  31.708   7.717
  452POPC   C1B10951  41.335  31.131   8.758
  452POPC   C2B10952  41.237  31.115   8.296
  452POPC   C3B10953  41.375  31.373   7.928
  452POPC   C4B10954  41.463  31.156   7.532
  453POPC   NC310955  42.944  14.589   9.575
  453POPC   PO410956  43.560  14.299   9.433
  453POPC   GL110957  43.175  14.307   9.131
  453POPC   GL210958  42.858  14.503   9.083
  453POPC   C1A10959  42.981  14.168   8.705
  453POPC   D2A10960  42.941  14.062   8.234
  453POPC   C3A10961  43.076  14.343   7.899
  453POPC   C4A10962  42.940  13.991   7.711
  453POPC   C1B10963  42.957  14.770   8.745
  453POPC   C2B10964  43.100  14.861   8.289
  453POPC   C3B10965  42.842  14.785   7.910
  453POPC   C4B10966  42.985  14.812   7.496
  454POPC   NC310967   0.382   6.647   9.647
  454POPC   PO410968   1.055   6.825   9.686
  454POPC   GL110969   0.708   6.627   9.283
  454POPC   GL210970   0.331   6.767   9.173
  454POPC   C1A10971   0.623   6.585   8.820
  454POPC   D2A10972   0.823   6.899   8.575
  454POPC   C3A10973   0.788   6.870   8.151
  454POPC   C4A10974   0.537   6.586   7.979
  454POPC   C1B10975   0.315   7.007   8.791
  454POPC   C2B10976   0.308   6.894   8.370
  454POPC   C3B10977   0.282   7.036   7.953
  454POPC   C4B10978   0.230   7.006   7.448
  455POPC   NC310979  21.629   4.240   9.452
  455POPC   PO410980  21.042   4.643   9.431
  455POPC   GL110981  21.368   4.537   9.132
  455POPC   GL210982  21.343   4.199   9.048
  455POPC   C1A10983  21.518   4.505   8.717
  455POPC   D2A10984  21.198   4.386   8.502
  455POPC   C3A10985  21.294   4.333   8.083
  455POPC   C4A10986  21.487   4.420   7.680
  455POPC   C1B10987  21.442   3.968   8.690
  455POPC   C2B10988  21.582   3.928   8.244
  455POPC   C3B10989  21.432   3.921   7.786
  455POPC   C4B10990  21.315   4.039   7.363
  456POPC   NC310991  26.109   3.105   9.317
  456POPC   PO410992  25.734   3.602   9.522
  456POPC   GL110993  25.799   3.471   9.124
  456POPC   GL210994  26.124   3.579   9.079
  456POPC   C1A10995  25.845   3.502   8.675
  456POPC   D2A10996  26.204   3.534   8.404
  456POPC   C3A10997  26.032   3.533   8.014
  456POPC   C4A10998  25.763   3.544   7.642
  456POPC   C1B10999  26.339   3.898   8.811
  456POPC   C2B11000  26.509   3.964   8.384
  456POPC   C3B11001  26.326   3.953   7.993
  456POPC   C4B11002  26.182   3.810   7.593
  457POPC   NC311003   8.134  44.735   9.500
  457POPC   PO411004   8.166  44.050   9.379
  457POPC   GL111005   8.046  44.346   9.045
  457POPC   GL211006   7.950  44.693   9.042
  457POPC   C1A11007   8.009  44.483   8.602
  457POPC   D2A11008   8.165  44.284   8.267
  457POPC   C3A11009   8.165  44.548   7.930
  457POPC   C4A11010   8.586  44.599   7.894
  457POPC   C1B11011   8.389  44.701   8.860
  457POPC   C2B11012   8.476  44.706   8.405
  457POPC   C3B11013   8.177  44.982   8.182
  457POPC   C4B11014   7.903   0.005   7.790
  458POPC   NC311015   7.625  32.432   9.427
  458POPC   PO411016   7.091  32.070   9.668
  458POPC   GL111017   7.198  32.187   9.255
  458POPC   GL211018   7.154  32.574   9.249
  458POPC   C1A11019   7.376  32.078   8.847
  458POPC   D2A11020   7.690  32.019   8.505
  458POPC   C3A11021   7.509  32.015   8.075
  458POPC   C4A11022   7.520  32.078   7.614
  458POPC   C1B11023   7.317  32.616   8.778
  458POPC   C2B11024   7.467  32.503   8.330
  458POPC   C3B11025   7.481  32.514   7.864
  458POPC   C4B11026   7.183  32.493   7.532
  459POPC   NC311027  38.649  42.542   9.814
  459POPC   PO411028  38.238  42.237   9.335
  459POPC   GL111029  38.419  42.646   9.223
  459POPC   GL211030  38.771  42.673   9.336
  459POPC   C1A11031  38.500  42.669   8.787
  459POPC   D2A11032  38.386  42.405   8.449
  459POPC   C3A11033  38.439  42.580   8.079
  459POPC   C4A11034  38.709  42.458   7.741
  459POPC   C1B11035  38.900  42.415   8.987
  459POPC   C2B11036  38.923  42.410   8.530
  459POPC   C3B11037  38.807  42.169   8.165
  459POPC   C4B11038  39.058  42.035   7.825
  460POPC   NC311039  37.159   2.238   9.517
  460POPC   PO411040  36.573   1.813   9.587
  460POPC   GL111041  36.777   1.963   9.221
  460POPC   GL211042  37.084   1.784   9.051
  460POPC   C1A11043  36.622   1.933   8.814
  460POPC   D2A11044  36.872   1.788   8.498
  460POPC   C3A11045  36.773   1.847   8.069
  460POPC   C4A11046  36.714   2.132   7.719
  460POPC   C1B11047  37.030   2.222   8.846
  460POPC   C2B11048  36.931   2.277   8.408
  460POPC   C3B11049  37.117   2.269   8.004
  460POPC   C4B11050  37.334   2.585   7.800
  461POPC   NC311051  31.878  12.247   9.842
  461POPC   PO411052  32.238  11.928   9.370
  461POPC   GL111053  32.314  12.112   9.012
  461POPC   GL211054  32.151  12.406   8.882
  461POPC   C1A11055  32.217  11.925   8.631
  461POPC   D2A11056  32.369  11.981   8.219
  461POPC   C3A11057  32.145  11.828   7.889
  461POPC   C4A11058  32.238  11.912   7.421
  461POPC   C1B11059  32.479  12.370   8.593
  461POPC   C2B11060  32.406  12.488   8.180
  461POPC   C3B11061  32.337  12.291   7.773
  461POPC   C4B11062  32.478  12.383   7.353
  462POPC   NC311063  12.568  20.911   9.491
  462POPC   PO411064  12.950  20.330   9.496
  462POPC   GL111065  12.716  20.519   9.203
  462POPC   GL211066  12.957  20.832   9.191
  462POPC   C1A11067  12.477  20.379   8.862
  462POPC   D2A11068  12.435  20.413   8.437
  462POPC   C3A11069  12.782  20.379   8.142
  462POPC   C4A11070  12.785  20.626   7.748
  462POPC   C1B11071  12.739  20.847   8.807
  462POPC   C2B11072  12.845  20.818   8.390
  462POPC   C3B11073  12.971  21.030   8.010
  462POPC   C4B11074  13.015  21.058   7.557
  463POPC   NC311075   8.334  15.044   9.574
  463POPC   PO411076   7.809  15.392   9.386
  463POPC   GL111077   7.959  15.064   9.123
  463POPC   GL211078   8.338  14.960   9.076
  463POPC   C1A11079   8.013  15.007   8.698
  463POPC   D2A11080   8.347  14.857   8.452
  463POPC   C3A11081   8.266  14.998   8.070
  463POPC   C4A11082   8.113  15.104   7.672
  463POPC   C1B11083   8.461  15.275   8.751
  463POPC   C2B11084   8.312  15.436   8.341
  463POPC   C3B11085   8.487  15.489   7.909
  463POPC   C4B11086   8.657  15.821   7.622
  464POPC   NC311087   0.292  25.962   9.775
  464POPC   PO411088   0.626  25.495   9.426
  464POPC   GL111089   0.396  25.789   9.215
  464POPC   GL211090   0.260  26.146   9.242
  464POPC   C1A11091   0.401  25.927   8.803
  464POPC   D2A11092   0.470  26.117   8.432
  464POPC   C3A11093   0.607  25.971   8.053
  464POPC   C4A11094   0.536  26.172   7.669
  464POPC   C1B11095   0.157  26.367   8.790
  464POPC   C2B11096   0.034  26.293   8.310
  464POPC   C3B11097   0.101  26.389   7.821
  464POPC   C4B11098   0.200  26.403   7.337
  465POPC   NC311099  12.614  32.202   9.565
  465POPC   PO411100  13.114  32.614   9.324
  465POPC   GL111101  12.814  32.322   9.109
  465POPC   GL211102  12.714  31.970   9.129
  465POPC   C1A11103  12.848  32.248   8.692
  465POPC   D2A11104  12.945  32.546   8.394
  465POPC   C3A11105  12.754  32.365   8.082
  465POPC   C4A11106  12.860  32.284   7.714
  465POPC   C1B11107  12.626  31.773   8.756
  465POPC   C2B11108  12.574  31.940   8.352
  465POPC   C3B11109  12.395  31.869   7.951
  465POPC   C4B11110  12.508  31.959   7.566
  466POPC   NC311111  21.547   5.798   9.787
  466POPC   PO411112  21.091   6.034   9.245
  466POPC   GL111113  21.414   5.787   9.133
  466POPC   GL211114  21.178   5.491   9.053
  466POPC   C1A11115  21.664   5.803   8.733
  466POPC   D2A11116  21.535   5.629   8.291
  466POPC   C3A11117  21.407   5.914   7.949
  466POPC   C4A11118  21.520   5.971   7.498
  466POPC   C1B11119  21.171   5.720   8.674
  466POPC   C2B11120  20.985   5.781   8.288
  466POPC   C3B11121  20.950   5.538   7.936
  466POPC   C4B11122  21.137   5.655   7.574
  467POPC   NC311123  24.384  15.735   9.680
  467POPC   PO411124  24.770  16.162   9.428
  467POPC   GL111125  24.539  16.117   9.029
  467POPC   GL211126  24.236  15.944   9.092
  467POPC   C1A11127  24.290  16.305   8.675
  467POPC   D2A11128  24.102  16.287   8.221
  467POPC   C3A11129  24.394  16.194   7.865
  467POPC   C4A11130  24.824  16.013   7.927
  467POPC   C1B11131  24.025  15.676   8.745
  467POPC   C2B11132  23.945  15.690   8.287
  467POPC   C3B11133  24.171  15.697   7.900
  467POPC   C4B11134  24.512  15.738   7.608
  468POPC   NC311135  29.277  27.518   9.449
  468POPC   PO411136  29.102  26.946   9.846
  468POPC   GL111137  29.143  26.964   9.305
  468POPC   GL211138  29.298  27.198   9.047
  468POPC   C1A11139  29.073  26.797   8.836
  468POPC   D2A11140  28.845  26.669   8.430
  468POPC   C3A11141  29.015  26.637   8.003
  468POPC   C4A11142  28.918  26.947   7.696
  468POPC   C1B11143  29.357  27.151   8.598
  468POPC   C2B11144  29.177  27.074   8.190
  468POPC   C3B11145  29.410  27.049   7.801
  468POPC   C4B11146  29.672  27.285   7.484
  469POPC   NC311147   4.668  30.835   9.455
  469POPC   PO411148   4.148  30.478   9.776
  469POPC   GL111149   3.980  30.455   9.259
  469POPC   GL211150   4.128  30.752   9.054
  469POPC   C1A11151   3.799  30.488   8.782
  469POPC   D2A11152   3.996  30.854   8.498
  469POPC   C3A11153   4.041  30.933   8.031
  469POPC   C4A11154   4.051  30.615   7.738
  469POPC   C1B11155   4.453  30.757   8.695
  469POPC   C2B11156   4.475  30.931   8.281
  469POPC   C3B11157   4.540  30.668   7.907
  469POPC   C4B11158   4.885  30.764   7.640
  470POPC   NC311159   4.192  20.730   9.622
  470POPC   PO411160   4.860  20.950   9.629
  470POPC   GL111161   4.589  20.724   9.250
  470POPC   GL211162   4.227  20.864   9.138
  470POPC   C1A11163   4.454  20.474   8.853
  470POPC   D2A11164   4.171  20.537   8.477
  470POPC   C3A11165   4.268  20.339   8.077
  470POPC   C4A11166   4.216  20.236   7.635
  470POPC   C1B11167   4.439  20.968   8.750
  470POPC   C2B11168   4.395  21.022   8.302
  470POPC   C3B11169   4.141  20.876   7.975
  470POPC   C4B11170   4.209  20.726   7.558
  471POPC   NC311171  25.629  34.824   9.331
  471POPC   PO411172  26.060  34.418   9.507
  471POPC   GL111173  25.849  34.397   9.129
  471POPC   GL211174  25.729  34.113   9.152
  471POPC   C1A11175  25.861  34.514   8.698
  471POPC   D2A11176  26.082  34.380   8.320
  471POPC   C3A11177  26.466  34.557   8.097
  471POPC   C4A11178  26.467  34.841   7.731
  471POPC   C1B11179  25.558  34.055   8.779
  471POPC   C2B11180  25.618  34.166   8.371
  471POPC   C3B11181  25.589  34.302   7.954
  471POPC   C4B11182  25.658  34.715   7.740
  472POPC   NC311183   6.349  18.941   9.551
  472POPC   PO411184   6.979  18.692   9.309
  472POPC   GL111185   6.715  19.012   9.175
  472POPC   GL211186   6.918  19.298   9.058
  472POPC   C1A11187   6.455  19.016   8.813
  472POPC   D2A11188   6.609  18.878   8.400
  472POPC   C3A11189   6.372  19.143   8.124
  472POPC   C4A11190   6.295  19.072   7.718
  472POPC   C1B11191   6.982  19.131   8.658
  472POPC   C2B11192   6.865  19.311   8.237
  472POPC   C3B11193   6.826  19.107   7.853
  472POPC   C4B11194   7.085  19.088   7.470
  473POPC   NC311195   9.494  20.852   9.515
  473POPC   PO411196  10.084  20.599   9.517
  473POPC   GL111197   9.826  20.677   9.166
  473POPC   GL211198  10.040  20.972   9.075
  473POPC   C1A11199   9.569  20.436   8.838
  473POPC   D2A11200   9.420  20.190   8.460
  473POPC   C3A11201   9.695  20.253   8.107
  473POPC   C4A11202   9.842  20.381   7.714
  473POPC   C1B11203   9.899  20.830   8.679
  473POPC   C2B11204   9.625  20.688   8.368
  473POPC   C3B11205   9.481  20.694   7.938
  473POPC   C4B11206   9.616  20.836   7.520
  474POPC   NC311207  17.304  26.445   9.353
  474POPC   PO411208  17.568  25.938   9.734
  474POPC   GL111209  17.476  25.923   9.271
  474POPC   GL211210  17.663  26.146   9.111
  474POPC   C1A11211  17.271  26.029   8.838
  474POPC   D2A11212  17.496  26.025   8.440
  474POPC   C3A11213  17.252  26.005   8.100
  474POPC   C4A11214  17.104  25.999   7.721
  474POPC   C1B11215  17.649  26.427   8.754
  474POPC   C2B11216  17.541  26.513   8.325
  474POPC   C3B11217  17.622  26.302   7.929
  474POPC   C4B11218  17.983  26.104   7.741
  475POPC   NC311219   8.327  14.185   9.359
  475POPC   PO411220   7.990  14.710   9.615
  475POPC   GL111221   7.985  14.562   9.206
  475POPC   GL211222   7.767  14.305   9.203
  475POPC   C1A11223   8.216  14.518   8.819
  475POPC   D2A11224   8.505  14.355   8.528
  475POPC   C3A11225   8.314  14.436   8.137
  475POPC   C4A11226   8.354  14.608   7.748
  475POPC   C1B11227   7.815  14.065   8.848
  475POPC   C2B11228   7.991  14.177   8.469
  475POPC   C3B11229   7.895  14.089   8.059
  475POPC   C4B11230   8.104  14.179   7.710
  476POPC   NC311231  42.581  30.570   9.383
  476POPC   PO411232  41.953  30.373   9.441
  476POPC   GL111233  42.170  30.421   9.083
  476POPC   GL211234  42.243  30.768   9.081
  476POPC   C1A11235  42.048  30.547   8.680
  476POPC   D2A11236  42.224  30.696   8.337
  476POPC   C3A11237  42.104  30.548   7.946
  476POPC   C4A11238  42.210  30.755   7.556
  476POPC   C1B11239  42.567  30.687   8.733
  476POPC   C2B11240  42.698  30.513   8.334
  476POPC   C3B11241  42.602  30.677   7.904
  476POPC   C4B11242  42.701  30.733   7.447
  477POPC   NC311243   7.691   0.320   9.413
  477POPC   PO411244   7.090   0.746   9.422
  477POPC   GL111245   7.290   0.493   9.145
  477POPC   GL211246   7.552   0.722   9.052
  477POPC   C1A11247   7.493   0.220   8.820
  477POPC   D2A11248   7.760   0.032   8.501
  477POPC   C3A11249   7.765   0.314   8.168
  477POPC   C4A11250   7.488   0.402   7.862
  477POPC   C1B11251   7.273   0.709   8.683
  477POPC   C2B11252   7.115   0.934   8.324
  477POPC   C3B11253   7.122   0.781   7.901
  477POPC   C4B11254   7.365   0.732   7.511
  478POPC   NC311255  20.148  33.045   9.899
  478POPC   PO411256  19.564  33.208   9.505
  478POPC   GL111257  19.759  33.237   9.101
  478POPC   GL211258  19.576  32.960   8.929
  478POPC   C1A11259  20.026  33.111   8.732
  478POPC   D2A11260  19.883  32.840   8.402
  478POPC   C3A11261  19.815  33.087   8.062
  478POPC   C4A11262  19.984  33.120   7.688
  478POPC   C1B11263  19.170  32.754   8.789
  478POPC   C2B11264  19.083  32.671   8.370
  478POPC   C3B11265  19.343  32.909   8.103
  478POPC   C4B11266  19.523  32.884   7.674
  479POPC   NC311267  32.591   8.095   9.572
  479POPC   PO411268  32.048   8.526   9.660
  479POPC   GL111269  32.169   8.410   9.229
  479POPC   GL211270  32.532   8.455   9.201
  479POPC   C1A11271  32.078   8.138   8.860
  479POPC   D2A11272  31.994   7.960   8.450
  479POPC   C3A11273  31.969   8.300   8.158
  479POPC   C4A11274  31.976   8.369   7.717
  479POPC   C1B11275  32.574   8.273   8.794
  479POPC   C2B11276  32.506   8.016   8.435
  479POPC   C3B11277  32.431   8.091   8.013
  479POPC   C4B11278  32.600   8.486   7.886
  480POPC   NC311279  10.810  39.524   9.526
  480POPC   PO411280  11.251  38.996   9.574
  480POPC   GL111281  11.094  39.167   9.206
  480POPC   GL211282  11.452  39.185   9.131
  480POPC   C1A11283  11.150  39.503   8.877
  480POPC   D2A11284  11.366  39.439   8.498
  480POPC   C3A11285  11.256  39.250   8.094
  480POPC   C4A11286  11.378  39.493   7.702
  480POPC   C1B11287  11.427  38.996   8.732
  480POPC   C2B11288  11.701  39.077   8.357
  480POPC   C3B11289  11.732  39.193   7.914
  480POPC   C4B11290  11.441  38.988   7.598
  481POPC   NC311291   4.898  20.134  10.005
  481POPC   PO411292   5.047  19.521   9.686
  481POPC   GL111293   5.140  19.651   9.254
  481POPC   GL211294   4.918  19.386   9.121
  481POPC   C1A11295   5.309  19.793   8.850
  481POPC   D2A11296   5.122  19.903   8.471
  481POPC   C3A11297   5.316  20.078   8.132
  481POPC   C4A11298   5.186  19.892   7.750
  481POPC   C1B11299   4.946  19.457   8.678
  481POPC   C2B11300   4.718  19.601   8.323
  481POPC   C3B11301   4.732  19.585   7.881
  481POPC   C4B11302   4.765  19.629   7.432
  482POPC   NC311303  33.102  17.802   9.414
  482POPC   PO411304  33.262  17.113   9.486
  482POPC   GL111305  33.059  17.358   9.146
  482POPC   GL211306  32.740  17.591   9.145
  482POPC   C1A11307  32.970  17.442   8.724
  482POPC   D2A11308  32.980  17.655   8.346
  482POPC   C3A11309  32.835  17.474   7.956
  482POPC   C4A11310  33.102  17.470   7.596
  482POPC   C1B11311  32.796  17.910   8.782
  482POPC   C2B11312  32.564  17.972   8.415
  482POPC   C3B11313  32.673  17.979   8.008
  482POPC   C4B11314  32.772  17.855   7.617
  483POPC   NC311315  33.638  20.244   9.866
  483POPC   PO411316  34.091  19.746   9.518
  483POPC   GL111317  34.057  19.546   9.111
  483POPC   GL211318  34.241  19.812   9.015
  483POPC   C1A11319  33.984  19.523   8.680
  483POPC   D2A11320  34.145  19.856   8.442
  483POPC   C3A11321  34.101  19.751   8.019
  483POPC   C4A11322  33.743  19.502   7.852
  483POPC   C1B11323  33.760  19.906   8.908
  483POPC   C2B11324  33.560  19.817   8.497
  483POPC   C3B11325  33.632  19.961   8.071
  483POPC   C4B11326  33.522  20.318   7.809
  484POPC   NC311327  35.790  13.563   9.677
  484POPC   PO411328  36.394  13.752   9.480
  484POPC   GL111329  36.184  13.597   9.140
  484POPC   GL211330  36.106  13.882   8.932
  484POPC   C1A11331  36.371  13.512   8.732
  484POPC   D2A11332  36.151  13.586   8.367
  484POPC   C3A11333  36.280  13.661   7.981
  484POPC   C4A11334  36.122  13.591   7.598
  484POPC   C1B11335  35.844  13.492   8.771
  484POPC   C2B11336  35.761  13.268   8.360
  484POPC   C3B11337  35.737  13.405   7.899
  484POPC   C4B11338  35.637  13.489   7.427
  485POPC   NC311339  17.713   8.440   9.470
  485POPC   PO411340  17.246   7.891   9.496
  485POPC   GL111341  17.361   8.196   9.179
  485POPC   GL211342  17.706   8.142   9.033
  485POPC   C1A11343  17.335   8.419   8.794
  485POPC   D2A11344  17.441   8.216   8.419
  485POPC   C3A11345  17.582   8.361   8.015
  485POPC   C4A11346  17.418   8.550   7.623
  485POPC   C1B11347  17.936   8.021   8.640
  485POPC   C2B11348  17.775   7.880   8.239
  485POPC   C3B11349  17.635   7.877   7.802
  485POPC   C4B11350  17.615   7.637   7.411
  486POPC   NC311351  27.833   4.440   9.624
  486POPC   PO411352  27.408   3.948   9.492
  486POPC   GL111353  27.633   4.220   9.183
  486POPC   GL211354  27.493   4.565   9.162
  486POPC   C1A11355  27.763   4.362   8.770
  486POPC   D2A11356  27.684   4.507   8.348
  486POPC   C3A11357  27.455   4.181   8.116
  486POPC   C4A11358  27.441   4.005   7.693
  486POPC   C1B11359  27.397   4.737   8.758
  486POPC   C2B11360  27.155   4.736   8.401
  486POPC   C3B11361  27.324   4.699   8.027
  486POPC   C4B11362  27.336   4.504   7.668
  487POPC   NC311363  11.587  11.156   9.722
  487POPC   PO411364  11.041  11.543   9.672
  487POPC   GL111365  11.149  11.486   9.206
  487POPC   GL211366  11.478  11.607   9.100
  487POPC   C1A11367  11.175  11.521   8.719
  487POPC   D2A11368  11.167  11.381   8.287
  487POPC   C3A11369  11.384  11.065   8.049
  487POPC   C4A11370  11.380  11.308   7.689
  487POPC   C1B11371  11.776  11.631   8.768
  487POPC   C2B11372  11.689  11.800   8.350
  487POPC   C3B11373  11.691  11.649   7.927
  487POPC   C4B11374  11.713  11.696   7.474
  488POPC   NC311375  25.736   4.742   9.620
  488POPC   PO411376  26.199   5.250   9.500
  488POPC   GL111377  26.060   5.088   9.115
  488POPC   GL211378  25.778   4.843   9.129
  488POPC   C1A11379  26.155   5.232   8.715
  488POPC   D2A11380  25.967   5.458   8.405
  488POPC   C3A11381  26.170   5.333   8.056
  488POPC   C4A11382  26.087   5.302   7.619
  488POPC   C1B11383  25.849   4.831   8.720
  488POPC   C2B11384  25.760   4.919   8.322
  488POPC   C3B11385  25.935   4.902   7.960
  488POPC   C4B11386  26.128   4.804   7.645
  489POPC   NC311387  29.793   6.268   9.502
  489POPC   PO411388  30.091   6.883   9.502
  489POPC   GL111389  29.909   6.689   9.168
  489POPC   GL211390  29.559   6.589   9.177
  489POPC   C1A11391  29.771   6.834   8.766
  489POPC   D2A11392  29.904   6.703   8.351
  489POPC   C3A11393  29.782   6.942   7.980
  489POPC   C4A11394  29.795   6.663   7.660
  489POPC   C1B11395  29.777   6.325   8.845
  489POPC   C2B11396  29.822   6.203   8.432
  489POPC   C3B11397  30.066   6.249   8.073
  489POPC   C4B11398  29.780   6.170   7.787
  490POPC   NC311399  36.888  19.543   9.322
  490POPC   PO411400  37.235  20.065   9.042
  490POPC   GL111401  36.789  19.997   8.964
  490POPC   GL211402  36.765  19.650   8.862
  490POPC   C1A11403  36.569  20.008   8.580
  490POPC   D2A11404  36.927  19.922   8.305
  490POPC   C3A11405  36.868  20.065   7.907
  490POPC   C4A11406  36.969  20.087   7.477
  490POPC   C1B11407  37.081  19.508   8.656
  490POPC   C2B11408  36.957  19.406   8.274
  490POPC   C3B11409  37.038  19.553   7.874
  490POPC   C4B11410  36.842  19.472   7.500
  491POPC   NC311411  38.099  44.164   9.891
  491POPC   PO411412  38.651  44.015   9.521
  491POPC   GL111413  38.352  44.067   9.202
  491POPC   GL211414  38.259  44.412   9.213
  491POPC   C1A11415  38.356  43.826   8.827
  491POPC   D2A11416  38.491  43.578   8.486
  491POPC   C3A11417  38.157  43.564   8.201
  491POPC   C4A11418  38.217  43.783   7.855
  491POPC   C1B11419  38.515  44.369   8.810
  491POPC   C2B11420  38.510  44.110   8.417
  491POPC   C3B11421  38.415  44.226   7.987
  491POPC   C4B11422  38.300  44.181   7.544
  492POPC   NC311423  10.484  29.973   9.614
  492POPC   PO411424  10.695  29.350   9.575
  492POPC   GL111425  10.570  29.652   9.202
  492POPC   GL211426  10.541  30.036   9.122
  492POPC   C1A11427  10.732  29.717   8.772
  492POPC   D2A11428  10.727  29.918   8.365
  492POPC   C3A11429  10.319  29.948   8.142
  492POPC   C4A11430  10.418  29.875   7.708
  492POPC   C1B11431  10.708  30.283   8.785
  492POPC   C2B11432  10.656  30.442   8.353
  492POPC   C3B11433  10.647  30.260   7.936
  492POPC   C4B11434  10.789  30.183   7.513
  493POPC   NC311435  32.927  31.841   9.503
  493POPC   PO411436  33.355  31.280   9.511
  493POPC   GL111437  33.101  31.403   9.149
  493POPC   GL211438  33.113  31.735   9.043
  493POPC   C1A11439  33.247  31.386   8.707
  493POPC   D2A11440  33.293  31.453   8.286
  493POPC   C3A11441  33.053  31.312   7.968
  493POPC   C4A11442  32.710  31.402   7.748
  493POPC   C1B11443  33.078  31.949   8.634
  493POPC   C2B11444  33.192  31.947   8.212
  493POPC   C3B11445  33.323  31.716   7.850
  493POPC   C4B11446  33.128  31.689   7.478
  494POPC   NC311447  22.368   3.911   9.452
  494POPC   PO411448  21.952   4.590   9.484
  494POPC   GL111449  21.886   4.434   9.070
  494POPC   GL211450  22.198   4.245   9.093
  494POPC   C1A11451  21.915   4.205   8.673
  494POPC   D2A11452  22.159   4.269   8.336
  494POPC   C3A11453  21.970   4.305   7.956
  494POPC   C4A11454  22.304   4.104   7.736
  494POPC   C1B11455  22.293   4.646   8.860
  494POPC   C2B11456  22.431   4.734   8.453
  494POPC   C3B11457  22.534   4.542   8.094
  494POPC   C4B11458  22.411   4.586   7.715
  495POPC   NC311459  33.759   0.029   9.569
  495POPC   PO411460  33.942  44.361   9.731
  495POPC   GL111461  34.006  44.610   9.314
  495POPC   GL211462  33.691  44.747   9.159
  495POPC   C1A11463  34.104  44.628   8.847
  495POPC   D2A11464  33.941  44.653   8.411
  495POPC   C3A11465  33.902  44.378   8.066
  495POPC   C4A11466  33.902  44.576   7.641
  495POPC   C1B11467  33.668  44.913   8.758
  495POPC   C2B11468  33.795   0.131   8.368
  495POPC   C3B11469  33.711  44.905   7.991
  495POPC   C4B11470  33.409  44.803   7.694
  496POPC   NC311471  36.505  30.683   9.400
  496POPC   PO411472  37.150  30.507   9.413
  496POPC   GL111473  36.908  30.636   9.051
  496POPC   GL211474  36.842  30.960   9.138
  496POPC   C1A11475  36.753  30.465   8.644
  496POPC   D2A11476  36.889  30.300   8.238
  496POPC   C3A11477  36.648  30.409   7.879
  496POPC   C4A11478  36.848  30.666   7.565
  496POPC   C1B11479  37.014  31.086   8.771
  496POPC   C2B11480  37.085  30.811   8.455
  496POPC   C3B11481  36.966  30.791   8.057
  496POPC   C4B11482  36.929  31.161   7.791
  497POPC   NC311483  18.609  34.421   9.578
  497POPC   PO411484  18.013  34.850   9.522
  497POPC   GL111485  18.125  34.695   9.039
  497POPC   GL211486  18.340  34.384   9.060
  497POPC   C1A11487  18.122  34.512   8.617
  497POPC   D2A11488  18.207  34.247   8.286
  497POPC   C3A11489  18.280  34.552   7.981
  497POPC   C4A11490  17.939  34.703   7.715
  497POPC   C1B11491  18.655  34.233   8.851
  497POPC   C2B11492  18.651  34.441   8.494
  497POPC   C3B11493  18.795  34.487   8.101
  497POPC   C4B11494  18.666  34.244   7.763
  498POPC   NC311495   6.277   9.954   9.562
  498POPC   PO411496   6.775   9.510   9.421
  498POPC   GL111497   6.653   9.494   9.029
  498POPC   GL211498   6.343   9.596   9.098
  498POPC   C1A11499   6.671   9.573   8.584
  498POPC   D2A11500   6.842   9.897   8.346
  498POPC   C3A11501   6.765   9.861   7.917
  498POPC   C4A11502   6.747   9.394   7.857
  498POPC   C1B11503   6.229   9.784   8.690
  498POPC   C2B11504   6.308   9.780   8.243
  498POPC   C3B11505   6.311   9.655   7.798
  498POPC   C4B11506   6.612   9.647   7.441
  499POPC   NC311507  15.300  31.095   9.388
  499POPC   PO411508  15.187  31.685   9.584
  499POPC   GL111509  15.284  31.576   9.170
  499POPC   GL211510  14.964  31.710   9.100
  499POPC   C1A11511  15.268  31.331   8.780
  499POPC   D2A11512  15.008  31.389   8.405
  499POPC   C3A11513  15.024  31.124   8.081
  499POPC   C4A11514  15.183  31.345   7.745
  499POPC   C1B11515  15.126  31.813   8.671
  499POPC   C2B11516  14.921  31.917   8.279
  499POPC   C3B11517  14.858  31.738   7.855
  499POPC   C4B11518  14.853  31.605   7.426
  500POPC   NC311519   4.673  19.711   9.475
  500POPC   PO411520   4.433  20.309   9.641
  500POPC   GL111521   4.536  20.167   9.251
  500POPC   GL211522   4.894  20.131   9.338
  500POPC   C1A11523   4.312  19.965   8.872
  500POPC   D2A11524   4.153  19.959   8.429
  500POPC   C3A11525   4.325  19.831   8.037
  500POPC   C4A11526   4.282  19.728   7.590
  500POPC   C1B11527   4.826  19.943   8.898
  500POPC   C2B11528   4.651  20.112   8.515
  500POPC   C3B11529   4.783  20.087   8.108
  500POPC   C4B11530   4.682  20.053   7.703
  501POPC   NC311531  35.981   9.447   9.457
  501POPC   PO411532  35.980   8.671   9.462
  501POPC   GL111533  36.175   8.779   9.086
  501POPC   GL211534  36.407   8.516   9.039
  501POPC   C1A11535  36.006   8.861   8.691
  501POPC   D2A11536  35.830   8.944   8.291
  501POPC   C3A11537  36.072   9.228   8.069
  501POPC   C4A11538  36.079   9.282   7.669
  501POPC   C1B11539  36.511   8.633   8.637
  501POPC   C2B11540  36.339   8.840   8.300
  501POPC   C3B11541  36.176   8.753   7.899
  501POPC   C4B11542  36.430   8.660   7.553
  502POPC   NC311543  17.872  36.796   9.481
  502POPC   PO411544  17.251  36.912   9.261
  502POPC   GL111545  17.518  36.581   9.124
  502POPC   GL211546  17.322  36.378   8.878
  502POPC   C1A11547  17.852  36.643   8.819
  502POPC   D2A11548  17.877  36.715   8.362
  502POPC   C3A11549  17.453  36.658   8.164
  502POPC   C4A11550  17.308  36.718   7.742
  502POPC   C1B11551  17.395  36.771   8.648
  502POPC   C2B11552  17.539  37.111   8.401
  502POPC   C3B11553  17.450  37.163   7.964
  502POPC   C4B11554  17.589  37.149   7.534
  503POPC   NC311555  19.610  44.829   9.353
  503POPC   PO411556  19.971  44.418   9.802
  503POPC   GL111557  20.037  44.612   9.247
  503POPC   GL211558  20.016  44.951   9.103
  503POPC   C1A11559  19.920  44.535   8.796
  503POPC   D2A11560  19.915  44.769   8.413
  503POPC   C3A11561  19.794  44.657   7.985
  503POPC   C4A11562  19.952  44.478   7.602
  503POPC   C1B11563  19.666   0.048   8.767
  503POPC   C2B11564  19.477  45.000   8.339
  503POPC   C3B11565  19.473   0.087   7.895
  503POPC   C4B11566  19.476   0.194   7.390
  504POPC   NC311567   1.104  26.534   9.522
  504POPC   PO411568   0.775  27.153   9.397
  504POPC   GL111569   1.072  27.040   9.047
  504POPC   GL211570   1.133  26.690   9.035
  504POPC   C1A11571   1.210  27.011   8.628
  504POPC   D2A11572   1.098  26.653   8.384
  504POPC   C3A11573   1.115  26.783   7.958
  504POPC   C4A11574   1.472  27.014   7.856
  504POPC   C1B11575   1.509  26.640   8.795
  504POPC   C2B11576   1.609  26.755   8.374
  504POPC   C3B11577   1.503  26.470   8.065
  504POPC   C4B11578   1.401  26.426   7.647
  505POPC   NC311579  10.220  39.079  10.200
  505POPC   PO411580  10.535  39.129   9.600
  505POPC   GL111581  10.419  39.299   9.227
  505POPC   GL211582  10.156  39.531   9.311
  505POPC   C1A11583  10.660  39.345   8.852
  505POPC   D2A11584  10.854  39.428   8.442
  505POPC   C3A11585  10.735  39.157   8.096
  505POPC   C4A11586  10.912  39.132   7.675
  505POPC   C1B11587  10.160  39.539   8.838
  505POPC   C2B11588  10.341  39.423   8.447
  505POPC   C3B11589  10.441  39.585   8.057
  505POPC   C4B11590  10.388  39.338   7.709
  506POPC   NC311591  42.668   1.162   9.462
  506POPC   PO411592  43.306   1.347   9.565
  506POPC   GL111593  43.161   1.302   9.141
  506POPC   GL211594  43.514   1.333   9.096
  506POPC   C1A11595  43.094   1.046   8.740
  506POPC   D2A11596  43.135   0.799   8.334
  506POPC   C3A11597  43.133   1.060   7.946
  506POPC   C4A11598  42.966   1.439   7.838
  506POPC   C1B11599  43.518   1.421   8.716
  506POPC   C2B11600  43.360   1.277   8.377
  506POPC   C3B11601  43.578   1.300   8.065
  506POPC   C4B11602  43.464   1.499   7.775
  507POPC   NC311603  41.670  41.259   9.434
  507POPC   PO411604  41.357  40.610   9.366
  507POPC   GL111605  41.470  40.709   8.994
  507POPC   GL211606  41.431  41.043   9.038
  507POPC   C1A11607  41.391  40.829   8.580
  507POPC   D2A11608  41.653  40.852   8.203
  507POPC   C3A11609  41.455  40.658   7.846
  507POPC   C4A11610  41.119  40.401   7.846
  507POPC   C1B11611  41.697  41.214   8.768
  507POPC   C2B11612  41.930  41.255   8.448
  507POPC   C3B11613  41.990  41.207   8.024
  507POPC   C4B11614  41.756  41.037   7.718
  508POPC   NC311615  12.385  39.134   9.603
  508POPC   PO411616  12.985  38.882   9.571
  508POPC   GL111617  12.754  39.082   9.188
  508POPC   GL211618  12.470  38.861   9.182
  508POPC   C1A11619  12.749  39.331   8.740
  508POPC   D2A11620  12.537  39.460   8.307
  508POPC   C3A11621  12.741  39.327   7.906
  508POPC   C4A11622  13.133  39.370   7.618
  508POPC   C1B11623  12.443  38.945   8.771
  508POPC   C2B11624  12.583  38.913   8.369
  508POPC   C3B11625  12.799  38.792   7.992
  508POPC   C4B11626  12.848  38.958   7.567
  509POPC   NC311627  29.925  38.075   9.583
  509POPC   PO411628  30.007  37.526   9.541
  509POPC   GL111629  30.098  37.541   9.113
  509POPC   GL211630  30.294  37.258   9.059
  509POPC   C1A11631  30.057  37.584   8.645
  509POPC   D2A11632  29.782  37.726   8.285
  509POPC   C3A11633  29.931  37.778   7.860
  509POPC   C4A11634  29.982  37.706   7.414
  509POPC   C1B11635  30.194  37.080   8.639
  509POPC   C2B11636  30.215  37.269   8.213
  509POPC   C3B11637  30.272  37.389   7.769
  509POPC   C4B11638  30.465  37.521   7.370
  510POPC   NC311639   4.695   7.069   9.543
  510POPC   PO411640   5.067   6.541   9.626
  510POPC   GL111641   4.914   6.633   9.185
  510POPC   GL211642   4.752   6.946   9.059
  510POPC   C1A11643   5.021   6.537   8.746
  510POPC   D2A11644   5.297   6.336   8.424
  510POPC   C3A11645   5.219   6.536   8.043
  510POPC   C4A11646   4.922   6.482   7.738
  510POPC   C1B11647   5.200   6.982   8.916
  510POPC   C2B11648   5.364   6.905   8.489
  510POPC   C3B11649   5.279   7.056   8.056
  510POPC   C4B11650   5.264   6.902   7.637
  511POPC   NC311651  18.377  19.414   9.664
  511POPC   PO411652  18.329  20.086   9.533
  511POPC   GL111653  18.312  19.979   9.140
  511POPC   GL211654  18.216  19.657   9.185
  511POPC   C1A11655  18.312  20.147   8.742
  511POPC   D2A11656  18.415  19.940   8.376
  511POPC   C3A11657  18.245  20.058   8.001
  511POPC   C4A11658  18.377  20.010   7.608
  511POPC   C1B11659  18.185  19.621   8.728
  511POPC   C2B11660  18.022  19.647   8.278
  511POPC   C3B11661  18.281  19.566   7.888
  511POPC   C4B11662  18.290  19.521   7.425
  512POPC   NC311663   3.782  21.688   9.521
  512POPC   PO411664   3.205  21.242   9.446
  512POPC   GL111665   3.496  21.438   9.132
  512POPC   GL211666   3.252  21.618   9.097
  512POPC   C1A11667   3.549  21.198   8.716
  512POPC   D2A11668   3.372  21.177   8.288
  512POPC   C3A11669   3.639  21.021   7.940
  512POPC   C4A11670   3.762  20.947   7.548
  512POPC   C1B11671   3.254  21.604   8.691
  512POPC   C2B11672   3.606  21.630   8.431
  512POPC   C3B11673   3.588  21.587   8.013
  512POPC   C4B11674   3.497  21.380   7.640
  513POPC   NC311675   9.738  37.279   9.713
  513POPC   PO411676  10.073  37.838   9.695
  513POPC   GL111677  10.028  37.798   9.230
  513POPC   GL211678   9.834  38.104   9.166
  513POPC   C1A11679  10.059  37.581   8.776
  513POPC   D2A11680   9.776  37.428   8.460
  513POPC   C3A11681   9.872  37.520   8.039
  513POPC   C4A11682   9.498  37.460   7.762
  513POPC   C1B11683   9.689  37.941   8.738
  513POPC   C2B11684   9.553  37.871   8.306
  513POPC   C3B11685   9.624  37.942   7.887
  513POPC   C4B11686   9.989  37.932   7.699
  514POPC   NC311687  41.108   8.312   9.467
  514POPC   PO411688  41.693   8.028   9.720
  514POPC   GL111689  41.706   8.152   9.236
  514POPC   GL211690  41.448   8.359   9.104
  514POPC   C1A11691  41.687   8.004   8.796
  514POPC   D2A11692  41.457   7.903   8.409
  514POPC   C3A11693  41.630   8.091   8.022
  514POPC   C4A11694  41.871   7.881   7.701
  514POPC   C1B11695  41.171   8.390   8.740
  514POPC   C2B11696  41.119   8.288   8.283
  514POPC   C3B11697  41.294   8.443   7.866
  514POPC   C4B11698  41.274   8.560   7.414
  515POPC   NC311699  15.545  10.303   9.463
  515POPC   PO411700  14.886  10.442   9.543
  515POPC   GL111701  15.110  10.319   9.164
  515POPC   GL211702  15.290  10.617   9.059
  515POPC   C1A11703  15.376  10.184   8.769
  515POPC   D2A11704  15.479  10.444   8.375
  515POPC   C3A11705  15.208  10.458   8.007
  515POPC   C4A11706  14.909  10.281   7.738
  515POPC   C1B11707  15.024  10.537   8.683
  515POPC   C2B11708  14.750  10.551   8.311
  515POPC   C3B11709  14.777  10.739   7.920
  515POPC   C4B11710  14.845  10.710   7.463
  516POPC   NC311711  36.276  17.288   9.420
  516POPC   PO411712  35.894  17.767   9.604
  516POPC   GL111713  35.929  17.626   9.207
  516POPC   GL211714  36.276  17.748   9.191
  516POPC   C1A11715  35.986  17.352   8.839
  516POPC   D2A11716  35.858  17.333   8.410
  516POPC   C3A11717  36.184  17.197   8.123
  516POPC   C4A11718  35.990  17.163   7.723
  516POPC   C1B11719  36.178  17.873   8.820
  516POPC   C2B11720  36.289  17.619   8.509
  516POPC   C3B11721  36.386  17.680   8.128
  516POPC   C4B11722  36.178  17.625   7.780
  517POPC   NC311723  15.926  27.234   9.492
  517POPC   PO411724  15.593  27.814   9.752
  517POPC   GL111725  15.790  27.714   9.294
  517POPC   GL211726  16.033  27.954   9.169
  517POPC   C1A11727  16.040  27.505   8.885
  517POPC   D2A11728  16.296  27.239   8.590
  517POPC   C3A11729  16.276  27.471   8.186
  517POPC   C4A11730  16.010  27.361   7.828
  517POPC   C1B11731  15.756  27.909   8.791
  517POPC   C2B11732  15.845  27.730   8.395
  517POPC   C3B11733  15.619  27.637   8.013
  517POPC   C4B11734  15.766  27.746   7.590
  518POPC   NC311735   2.365  23.742   9.493
  518POPC   PO411736   1.667  23.787   9.449
  518POPC   GL111737   1.837  23.748   9.026
  518POPC   GL211738   2.049  23.435   9.083
  518POPC   C1A11739   2.002  23.917   8.586
  518POPC   D2A11740   2.091  24.117   8.129
  518POPC   C3A11741   2.340  23.951   7.792
  518POPC   C4A11742   2.538  23.844   7.416
  518POPC   C1B11743   1.833  23.360   8.696
  518POPC   C2B11744   1.601  23.641   8.445
  518POPC   C3B11745   1.679  23.796   8.060
  518POPC   C4B11746   1.959  23.595   7.777
  519POPC   NC311747  33.513  44.167   9.688
  519POPC   PO411748  33.923  43.941   9.268
  519POPC   GL111749  33.849  44.228   9.015
  519POPC   GL211750  33.495  44.284   9.145
  519POPC   C1A11751  33.954  44.168   8.564
  519POPC   D2A11752  33.700  43.888   8.284
  519POPC   C3A11753  33.680  43.889   7.836
  519POPC   C4A11754  33.811  43.728   7.426
  519POPC   C1B11755  33.519  44.415   8.694
  519POPC   C2B11756  33.350  44.256   8.300
  519POPC   C3B11757  33.435  44.340   7.870
  519POPC   C4B11758  33.630  44.210   7.441
  520POPC   NC311759  16.972   4.845   9.376
  520POPC   PO411760  16.888   4.152   9.436
  520POPC   GL111761  16.593   4.356   9.186
  520POPC   GL211762  16.845   4.512   9.031
  520POPC   C1A11763  16.450   4.511   8.754
  520POPC   D2A11764  16.503   4.306   8.375
  520POPC   C3A11765  16.742   4.490   8.071
  520POPC   C4A11766  16.797   4.304   7.663
  520POPC   C1B11767  17.073   4.758   8.740
  520POPC   C2B11768  16.969   4.986   8.387
  520POPC   C3B11769  17.194   4.936   8.021
  520POPC   C4B11770  17.024   4.729   7.696
  521POPC   NC311771   4.933   0.258   9.234
  521POPC   PO411772   5.078  44.746   9.637
  521POPC   GL111773   5.222  44.607   9.162
  521POPC   GL211774   5.121  44.883   8.936
  521POPC   C1A11775   5.301  44.340   8.782
  521POPC   D2A11776   5.220  44.559   8.406
  521POPC   C3A11777   5.120  44.326   8.040
  521POPC   C4A11778   5.052  44.420   7.622
  521POPC   C1B11779   4.719   0.019   8.675
  521POPC   C2B11780   4.633  44.972   8.243
  521POPC   C3B11781   4.922  44.785   8.026
  521POPC   C4B11782   5.230  44.857   7.806
  522POPC   NC311783  37.447  43.994   9.569
  522POPC   PO411784  38.055  43.701   9.809
  522POPC   GL111785  37.883  43.797   9.328
  522POPC   GL211786  37.820  44.142   9.211
  522POPC   C1A11787  37.658  43.801   8.865
  522POPC   D2A11788  37.525  44.055   8.467
  522POPC   C3A11789  37.492  43.960   8.020
  522POPC   C4A11790  37.553  43.620   7.740
  522POPC   C1B11791  38.002  44.197   8.764
  522POPC   C2B11792  38.005  44.084   8.293
  522POPC   C3B11793  37.901  44.208   7.857
  522POPC   C4B11794  37.869  43.910   7.502
  523POPC   NC311795  38.653  16.617   9.549
  523POPC   PO411796  38.194  17.210   9.580
  523POPC   GL111797  38.459  17.029   9.227
  523POPC   GL211798  38.218  16.795   9.263
  523POPC   C1A11799  38.708  16.905   8.825
  523POPC   D2A11800  38.761  16.638   8.413
  523POPC   C3A11801  38.629  16.788   7.985
  523POPC   C4A11802  38.775  16.952   7.602
  523POPC   C1B11803  38.274  16.617   8.871
  523POPC   C2B11804  38.251  16.728   8.451
  523POPC   C3B11805  38.234  16.513   8.085
  523POPC   C4B11806  38.048  16.779   7.775
  524POPC   NC311807  18.706   8.471   9.583
  524POPC   PO411808  18.097   8.181   9.366
  524POPC   GL111809  18.298   8.202   8.996
  524POPC   GL211810  18.588   8.390   9.103
  524POPC   C1A11811  18.458   7.933   8.678
  524POPC   D2A11812  18.437   8.121   8.317
  524POPC   C3A11813  18.055   8.329   8.219
  524POPC   C4A11814  18.045   8.146   7.832
  524POPC   C1B11815  18.552   8.502   8.673
  524POPC   C2B11816  18.457   8.639   8.281
  524POPC   C3B11817  18.460   8.421   7.881
  524POPC   C4B11818  18.293   8.473   7.424
  525POPC   NC311819  36.502   5.753   9.538
  525POPC   PO411820  35.905   6.199   9.551
  525POPC   GL111821  36.155   6.017   9.213
  525POPC   GL211822  36.529   6.139   9.196
  525POPC   C1A11823  35.983   5.923   8.792
  525POPC   D2A11824  36.157   5.774   8.404
  525POPC   C3A11825  35.952   5.757   7.980
  525POPC   C4A11826  35.910   6.092   7.668
  525POPC   C1B11827  36.530   5.826   8.854
  525POPC   C2B11828  36.674   5.773   8.418
  525POPC   C3B11829  36.483   5.702   8.023
  525POPC   C4B11830  36.404   5.882   7.663
  526POPC   NC311831   7.165  39.167   9.769
  526POPC   PO411832   7.686  39.172   9.406
  526POPC   GL111833   7.530  39.353   9.077
  526POPC   GL211834   7.316  39.643   9.146
  526POPC   C1A11835   7.462  39.075   8.741
  526POPC   D2A11836   7.417  38.882   8.359
  526POPC   C3A11837   7.271  39.057   7.978
  526POPC   C4A11838   7.363  39.126   7.539
  526POPC   C1B11839   7.223  39.524   8.709
  526POPC   C2B11840   7.523  39.423   8.375
  526POPC   C3B11841   7.523  39.516   7.944
  526POPC   C4B11842   7.501  39.643   7.510
  527POPC   NC311843  36.657  26.985   9.369
  527POPC   PO411844  35.992  27.160   9.492
  527POPC   GL111845  36.023  26.884   9.140
  527POPC   GL211846  36.359  26.864   8.982
  527POPC   C1A11847  35.783  26.648   8.814
  527POPC   D2A11848  35.634  26.697   8.379
  527POPC   C3A11849  36.000  26.902   8.197
  527POPC   C4A11850  36.278  26.911   7.824
  527POPC   C1B11851  36.609  27.121   8.703
  527POPC   C2B11852  36.456  27.177   8.274
  527POPC   C3B11853  36.468  27.392   7.883
  527POPC   C4B11854  36.542  27.238   7.467
  528POPC   NC311855  18.572  27.617   9.834
  528POPC   PO411856  18.005  27.497   9.546
  528POPC   GL111857  18.169  27.836   9.299
  528POPC   GL211858  18.527  27.792   9.258
  528POPC   C1A11859  18.185  27.913   8.844
  528POPC   D2A11860  18.373  27.868   8.399
  528POPC   C3A11861  18.037  27.849   8.091
  528POPC   C4A11862  17.907  27.729   7.675
  528POPC   C1B11863  18.666  27.752   8.805
  528POPC   C2B11864  18.695  27.411   8.460
  528POPC   C3B11865  18.592  27.252   8.034
  528POPC   C4B11866  18.347  27.536   7.817
  529POPC   NC311867  40.213  27.084   9.767
  529POPC   PO411868  39.843  26.718   9.432
  529POPC   GL111869  39.860  26.689   9.028
  529POPC   GL211870  39.529  26.704   8.971
  529POPC   C1A11871  39.831  26.481   8.633
  529POPC   D2A11872  40.124  26.423   8.350
  529POPC   C3A11873  40.121  26.782   8.140
  529POPC   C4A11874  40.123  26.898   7.719
  529POPC   C1B11875  39.615  27.004   8.699
  529POPC   C2B11876  39.758  27.045   8.368
  529POPC   C3B11877  39.622  26.971   7.986
  529POPC   C4B11878  39.621  26.577   7.851
  530POPC   NC311879  18.685  20.324   9.385
  530POPC   PO411880  18.371  20.830   9.522
  530POPC   GL111881  18.184  20.796   9.125
  530POPC   GL211882  18.109  20.447   9.212
  530POPC   C1A11883  18.318  20.731   8.699
  530POPC   D2A11884  18.320  20.456   8.314
  530POPC   C3A11885  18.374  20.534   7.818
  530POPC   C4A11886  18.326  20.443   7.328
  530POPC   C1B11887  17.913  20.465   8.820
  530POPC   C2B11888  17.757  20.628   8.448
  530POPC   C3B11889  17.908  20.567   8.021
  530POPC   C4B11890  17.956  20.290   7.656
  531POPC   NC311891   6.061   4.005   9.494
  531POPC   PO411892   5.452   4.341   9.522
  531POPC   GL111893   5.698   4.505   9.143
  531POPC   GL211894   6.061   4.444   9.151
  531POPC   C1A11895   5.681   4.548   8.685
  531POPC   D2A11896   5.431   4.513   8.287
  531POPC   C3A11897   5.711   4.440   7.962
  531POPC   C4A11898   5.897   4.687   7.696
  531POPC   C1B11899   5.954   4.133   8.815
  531POPC   C2B11900   5.794   4.130   8.384
  531POPC   C3B11901   5.908   3.951   7.995
  531POPC   C4B11902   5.753   4.066   7.602
  532POPC   NC311903  39.000  13.120   9.522
  532POPC   PO411904  39.199  13.811   9.509
  532POPC   GL111905  39.080  13.614   9.142
  532POPC   GL211906  39.203  13.285   9.029
  532POPC   C1A11907  39.019  13.702   8.719
  532POPC   D2A11908  39.298  13.827   8.356
  532POPC   C3A11909  39.091  13.716   7.976
  532POPC   C4A11910  39.087  13.291   7.810
  532POPC   C1B11911  39.505  13.571   8.773
  532POPC   C2B11912  39.716  13.511   8.393
  532POPC   C3B11913  39.534  13.448   8.030
  532POPC   C4B11914  39.585  13.326   7.636
  533POPC   NC311915  37.903  16.162   9.650
  533POPC   PO411916  37.698  15.577   9.581
  533POPC   GL111917  37.677  15.929   9.239
  533POPC   GL211918  37.459  16.194   9.158
  533POPC   C1A11919  37.576  15.887   8.774
  533POPC   D2A11920  37.784  15.992   8.407
  533POPC   C3A11921  37.612  15.888   8.030
  533POPC   C4A11922  37.879  15.856   7.720
  533POPC   C1B11923  37.276  16.318   8.772
  533POPC   C2B11924  37.296  16.172   8.348
  533POPC   C3B11925  37.284  16.324   7.953
  533POPC   C4B11926  37.463  16.168   7.585
  534POPC   NC311927  44.252  16.971   9.491
  534POPC   PO411928  43.680  16.993   9.681
  534POPC   GL111929  43.805  17.004   9.213
  534POPC   GL211930  44.011  16.688   9.146
  534POPC   C1A11931  43.821  17.153   8.736
  534POPC   D2A11932  43.879  17.165   8.264
  534POPC   C3A11933  43.640  16.854   8.036
  534POPC   C4A11934  43.637  16.722   7.618
  534POPC   C1B11935  44.285  16.869   8.831
  534POPC   C2B11936  44.357  17.004   8.421
  534POPC   C3B11937  44.286  16.786   8.047
  534POPC   C4B11938  44.073  16.974   7.747
  535POPC   NC311939  43.316   9.168   9.496
  535POPC   PO411940  42.899   8.681   9.465
  535POPC   GL111941  43.054   8.915   9.090
  535POPC   GL211942  43.414   8.997   9.026
  535POPC   C1A11943  43.039   8.778   8.647
  535POPC   D2A11944  42.743   8.609   8.311
  535POPC   C3A11945  42.967   8.670   7.919
  535POPC   C4A11946  42.992   9.098   7.774
  535POPC   C1B11947  43.274   9.247   8.711
  535POPC   C2B11948  43.192   9.126   8.277
  535POPC   C3B11949  43.425   9.292   7.933
  535POPC   C4B11950  43.427   9.197   7.512
  536POPC   NC311951  27.547   1.934   9.590
  536POPC   PO411952  28.010   2.408   9.465
  536POPC   GL111953  27.810   2.070   9.168
  536POPC   GL211954  27.435   2.038   9.108
  536POPC   C1A11955  27.814   1.796   8.770
  536POPC   D2A11956  27.629   1.685   8.352
  536POPC   C3A11957  27.681   1.857   7.942
  536POPC   C4A11958  27.630   1.745   7.529
  536POPC   C1B11959  27.290   1.891   8.701
  536POPC   C2B11960  27.330   2.091   8.278
  536POPC   C3B11961  27.173   1.938   7.881
  536POPC   C4B11962  27.154   1.872   7.425
  537POPC   NC311963  38.231   0.409   9.526
  537POPC   PO411964  37.605   0.139   9.479
  537POPC   GL111965  37.680   0.283   9.106
  537POPC   GL211966  38.032   0.254   9.090
  537POPC   C1A11967  37.506   0.394   8.705
  537POPC   D2A11968  37.690   0.515   8.316
  537POPC   C3A11969  37.473   0.623   7.918
  537POPC   C4A11970  37.327   0.665   7.472
  537POPC   C1B11971  38.223   0.208   8.723
  537POPC   C2B11972  38.018   0.069   8.379
  537POPC   C3B11973  38.039   0.298   8.015
  537POPC   C4B11974  38.067   0.148   7.651
  538POPC   NC311975   8.338  10.584   9.598
  538POPC   PO411976   7.684  10.609   9.333
  538POPC   GL111977   8.084  10.508   9.156
  538POPC   GL211978   8.432  10.659   9.116
  538POPC   C1A11979   8.127  10.442   8.729
  538POPC   D2A11980   8.025  10.234   8.320
  538POPC   C3A11981   8.300  10.381   7.996
  538POPC   C4A11982   8.648  10.270   7.790
  538POPC   C1B11983   8.366  10.932   8.815
  538POPC   C2B11984   8.096  10.985   8.468
  538POPC   C3B11985   7.978  10.761   8.105
  538POPC   C4B11986   8.051  10.700   7.642
  539POPC   NC311987  10.337  34.073   9.454
  539POPC   PO411988  10.817  33.541   9.465
  539POPC   GL111989  10.698  33.845   9.149
  539POPC   GL211990  10.360  33.780   9.054
  539POPC   C1A11991  10.738  33.772   8.702
  539POPC   D2A11992  10.878  33.980   8.344
  539POPC   C3A11993  10.968  33.661   8.048
  539POPC   C4A11994  10.737  33.511   7.705
  539POPC   C1B11995  10.286  33.536   8.725
  539POPC   C2B11996  10.225  33.736   8.339
  539POPC   C3B11997  10.478  33.836   8.044
  539POPC   C4B11998  10.332  33.801   7.688
  540POPC   NC311999  20.120  12.059   9.383
  540POPC   PO412000  19.482  12.143   9.265
  540POPC   GL112001  19.752  11.862   9.057
  540POPC   GL212002  19.934  12.150   8.913
  540POPC   C1A12003  19.974  11.700   8.695
  540POPC   D2A12004  19.703  11.865   8.358
  540POPC   C3A12005  19.906  11.978   8.005
  540POPC   C4A12006  19.683  12.319   7.861
  540POPC   C1B12007  19.669  12.344   8.579
  540POPC   C2B12008  19.755  12.684   8.228
  540POPC   C3B12009  19.864  12.797   7.788
  540POPC   C4B12010  19.997  12.493   7.480
  541POPC   NC312011  35.163  34.609   9.541
  541POPC   PO412012  35.869  34.440   9.357
  541POPC   GL112013  35.610  34.519   9.064
  541POPC   GL212014  35.355  34.346   9.161
  541POPC   C1A12015  35.599  34.636   8.643
  541POPC   D2A12016  35.406  34.849   8.306
  541POPC   C3A12017  35.576  34.723   7.945
  541POPC   C4A12018  35.633  34.859   7.509
  541POPC   C1B12019  35.125  34.564   8.846
  541POPC   C2B12020  35.119  34.433   8.421
  541POPC   C3B12021  35.082  34.516   8.007
  541POPC   C4B12022  35.257  34.538   7.600
  542POPC   NC312023  40.793   6.063   9.481
  542POPC   PO412024  40.241   6.475   9.376
  542POPC   GL112025  40.503   6.203   9.055
  542POPC   GL212026  40.675   5.879   9.045
  542POPC   C1A12027  40.566   6.040   8.589
  542POPC   D2A12028  40.707   6.028   8.166
  542POPC   C3A12029  40.422   5.898   7.848
  542POPC   C4A12030  40.502   5.596   7.492
  542POPC   C1B12031  41.027   6.022   8.801
  542POPC   C2B12032  41.304   5.925   8.486
  542POPC   C3B12033  41.162   5.706   8.115
  542POPC   C4B12034  40.920   5.820   7.739
  543POPC   NC312035  43.286  32.481   9.441
  543POPC   PO412036  42.842  31.892   9.533
  543POPC   GL112037  43.008  32.100   9.168
  543POPC   GL212038  43.040  32.439   8.985
  543POPC   C1A12039  43.300  32.043   8.854
  543POPC   D2A12040  43.281  32.348   8.517
  543POPC   C3A12041  43.180  32.199   8.112
  543POPC   C4A12042  43.426  32.078   7.733
  543POPC   C1B12043  42.793  32.187   8.656
  543POPC   C2B12044  42.474  32.120   8.302
  543POPC   C3B12045  42.651  32.192   7.873
  543POPC   C4B12046  43.022  32.422   7.678
  544POPC   NC312047  34.219  32.905   9.625
  544POPC   PO412048  33.592  33.166   9.402
  544POPC   GL112049  33.795  33.103   9.027
  544POPC   GL212050  33.954  32.831   9.144
  544POPC   C1A12051  33.860  33.140   8.589
  544POPC   D2A12052  33.571  33.063   8.271
  544POPC   C3A12053  33.757  33.106   7.906
  544POPC   C4A12054  33.563  33.407   7.685
  544POPC   C1B12055  33.679  32.698   8.776
  544POPC   C2B12056  33.871  32.657   8.378
  544POPC   C3B12057  33.651  32.607   7.988
  544POPC   C4B12058  33.755  32.704   7.564
  545POPC   NC312059  35.776  23.579   9.442
  545POPC   PO412060  35.128  23.797   9.501
  545POPC   GL112061  35.351  23.760   9.067
  545POPC   GL212062  35.703  23.876   9.043
  545POPC   C1A12063  35.374  23.711   8.579
  545POPC   D2A12064  35.220  23.350   8.325
  545POPC   C3A12065  35.062  23.504   7.925
  545POPC   C4A12066  35.161  23.926   7.783
  545POPC   C1B12067  35.715  23.448   8.820
  545POPC   C2B12068  35.817  23.501   8.367
  545POPC   C3B12069  35.544  23.637   8.043
  545POPC   C4B12070  35.472  23.230   7.842
  546POPC   NC312071  12.031  25.227   9.632
  546POPC   PO412072  12.188  25.853   9.463
  546POPC   GL112073  12.006  25.502   9.164
  546POPC   GL212074  12.046  25.108   9.147
  546POPC   C1A12075  12.195  25.389   8.757
  546POPC   D2A12076  12.242  25.160   8.378
  546POPC   C3A12077  12.177  25.369   8.011
  546POPC   C4A12078  12.438  25.433   7.705
  546POPC   C1B12079  11.964  24.909   8.741
  546POPC   C2B12080  11.932  24.625   8.408
  546POPC   C3B12081  11.986  24.836   8.038
  546POPC   C4B12082  11.726  25.172   7.903
  547POPC   NC312083   2.402  33.576   9.904
  547POPC   PO412084   1.935  33.485   9.341
  547POPC   GL112085   2.170  33.585   8.993
  547POPC   GL212086   2.375  33.811   9.111
  547POPC   C1A12087   2.013  33.709   8.622
  547POPC   D2A12088   1.994  33.641   8.209
  547POPC   C3A12089   1.748  33.695   7.896
  547POPC   C4A12090   2.073  33.568   7.621
  547POPC   C1B12091   2.411  34.016   8.727
  547POPC   C2B12092   2.335  33.994   8.290
  547POPC   C3B12093   2.131  34.049   7.868
  547POPC   C4B12094   2.234  34.036   7.419
  548POPC   NC312095   2.203   6.745   9.594
  548POPC   PO412096   1.709   6.346   9.537
  548POPC   GL112097   1.895   6.622   9.188
  548POPC   GL212098   2.283   6.592   9.124
  548POPC   C1A12099   1.981   6.793   8.751
  548POPC   D2A12100   1.748   6.951   8.391
  548POPC   C3A12101   1.826   6.880   7.987
  548POPC   C4A12102   1.827   6.456   7.848
  548POPC   C1B12103   2.443   6.507   8.743
  548POPC   C2B12104   2.222   6.480   8.380
  548POPC   C3B12105   2.292   6.623   7.978
  548POPC   C4B12106   2.446   6.762   7.581
  549POPC   NC312107  32.172  20.748   9.584
  549POPC   PO412108  32.335  20.179   9.523
  549POPC   GL112109  32.171  20.406   9.196
  549POPC   GL212110  31.988  20.176   9.106
  549POPC   C1A12111  32.173  20.485   8.743
  549POPC   D2A12112  32.035  20.624   8.351
  549POPC   C3A12113  32.359  20.764   8.050
  549POPC   C4A12114  32.430  20.952   7.631
  549POPC   C1B12115  32.019  19.993   8.758
  549POPC   C2B12116  32.171  20.096   8.386
  549POPC   C3B12117  32.187  20.276   8.005
  549POPC   C4B12118  32.362  20.437   7.648
  550POPC   NC312119  24.384  16.449   9.398
  550POPC   PO412120  24.754  17.010   9.467
  550POPC   GL112121  24.553  16.844   9.119
  550POPC   GL212122  24.794  16.578   9.106
  550POPC   C1A12123  24.266  16.841   8.748
  550POPC   D2A12124  24.410  16.698   8.343
  550POPC   C3A12125  24.245  16.692   7.891
  550POPC   C4A12126  24.411  16.664   7.488
  550POPC   C1B12127  24.966  16.378   8.748
  550POPC   C2B12128  25.052  16.527   8.324
  550POPC   C3B12129  24.757  16.578   7.985
  550POPC   C4B12130  24.847  16.416   7.604
  551POPC   NC312131  15.120  17.032   9.446
  551POPC   PO412132  15.130  17.647   9.553
  551POPC   GL112133  14.974  17.509   9.143
  551POPC   GL212134  15.206  17.248   9.004
  551POPC   C1A12135  15.071  17.628   8.707
  551POPC   D2A12136  15.309  17.323   8.454
  551POPC   C3A12137  15.275  17.481   8.057
  551POPC   C4A12138  14.872  17.758   7.955
  551POPC   C1B12139  14.905  17.152   8.721
  551POPC   C2B12140  14.803  17.391   8.322
  551POPC   C3B12141  14.872  17.253   7.865
  551POPC   C4B12142  15.254  17.249   7.588
  552POPC   NC312143  25.182  17.172   9.546
  552POPC   PO412144  25.445  17.825   9.395
  552POPC   GL112145  25.228  17.526   9.160
  552POPC   GL212146  25.484  17.296   9.125
  552POPC   C1A12147  25.055  17.462   8.752
  552POPC   D2A12148  25.219  17.536   8.340
  552POPC   C3A12149  25.042  17.702   7.972
  552POPC   C4A12150  25.167  17.579   7.531
  552POPC   C1B12151  25.432  17.136   8.717
  552POPC   C2B12152  25.626  17.228   8.353
  552POPC   C3B12153  25.497  17.264   7.944
  552POPC   C4B12154  25.473  17.158   7.508
  553POPC   NC312155  31.270  13.064   9.508
  553POPC   PO412156  31.564  12.469   9.584
  553POPC   GL112157  31.528  12.731   9.198
  553POPC   GL212158  31.676  12.571   8.973
  553POPC   C1A12159  31.394  12.969   8.789
  553POPC   D2A12160  31.196  13.154   8.386
  553POPC   C3A12161  31.366  13.019   7.993
  553POPC   C4A12162  31.368  12.607   7.851
  553POPC   C1B12163  31.833  12.756   8.629
  553POPC   C2B12164  31.688  12.722   8.242
  553POPC   C3B12165  31.946  12.567   7.932
  553POPC   C4B12166  32.005  12.599   7.499
  554POPC   NC312167  38.658   4.987   9.451
  554POPC   PO412168  38.535   5.609   9.540
  554POPC   GL112169  38.446   5.374   9.160
  554POPC   GL212170  38.184   5.175   9.218
  554POPC   C1A12171  38.639   5.240   8.746
  554POPC   D2A12172  38.944   5.435   8.426
  554POPC   C3A12173  38.749   5.423   8.021
  554POPC   C4A12174  38.385   5.204   7.868
  554POPC   C1B12175  38.110   5.123   8.769
  554POPC   C2B12176  38.243   5.031   8.338
  554POPC   C3B12177  37.993   4.912   7.956
  554POPC   C4B12178  38.121   4.886   7.500
  555POPC   NC312179  17.283  28.672   9.813
  555POPC   PO412180  16.718  28.500   9.370
  555POPC   GL112181  16.892  28.326   9.030
  555POPC   GL212182  16.612  28.145   8.897
  555POPC   C1A12183  16.977  28.431   8.630
  555POPC   D2A12184  16.699  28.352   8.310
  555POPC   C3A12185  16.896  28.556   8.019
  555POPC   C4A12186  17.094  28.544   7.631
  555POPC   C1B12187  16.500  28.569   8.733
  555POPC   C2B12188  16.220  28.573   8.375
  555POPC   C3B12189  16.270  28.488   7.960
  555POPC   C4B12190  16.559  28.643   7.675
  556POPC   NC312191  36.603   1.356   9.684
  556POPC   PO412192  37.182   1.043   9.416
  556POPC   GL112193  37.094   1.188   9.029
  556POPC   GL212194  36.765   1.044   9.094
  556POPC   C1A12195  37.173   1.398   8.629
  556POPC   D2A12196  37.188   1.519   8.196
  556POPC   C3A12197  36.905   1.365   7.877
  556POPC   C4A12198  36.925   0.984   7.623
  556POPC   C1B12199  36.693   1.422   8.832
  556POPC   C2B12200  36.692   1.320   8.386
  556POPC   C3B12201  36.589   1.006   8.085
  556POPC   C4B12202  36.455   1.193   7.695
  557POPC   NC312203  40.485   3.046   9.475
  557POPC   PO412204  40.678   2.492   9.267
  557POPC   GL112205  40.572   2.812   9.030
  557POPC   GL212206  40.865   2.977   9.140
  557POPC   C1A12207  40.504   2.653   8.645
  557POPC   D2A12208  40.359   2.503   8.299
  557POPC   C3A12209  40.613   2.679   7.980
  557POPC   C4A12210  40.644   2.473   7.596
  557POPC   C1B12211  40.998   2.768   8.773
  557POPC   C2B12212  40.894   2.968   8.429
  557POPC   C3B12213  41.139   2.939   8.095
  557POPC   C4B12214  41.047   2.754   7.716
  558POPC   NC312215  37.099  22.596   9.495
  558POPC   PO412216  36.896  23.253   9.503
  558POPC   GL112217  36.982  23.121   9.102
  558POPC   GL212218  36.828  22.782   9.091
  558POPC   C1A12219  36.785  23.114   8.694
  558POPC   D2A12220  36.817  22.914   8.293
  558POPC   C3A12221  36.650  23.113   7.954
  558POPC   C4A12222  36.703  23.124   7.529
  558POPC   C1B12223  36.922  22.574   8.674
  558POPC   C2B12224  36.956  22.410   8.247
  558POPC   C3B12225  36.803  22.582   7.852
  558POPC   C4B12226  37.027  22.734   7.480
  559POPC   NC312227  19.778  40.455   9.586
  559POPC   PO412228  20.374  40.694   9.595
  559POPC   GL112229  20.167  40.753   9.170
  559POPC   GL212230  19.783  40.720   9.145
  559POPC   C1A12231  20.035  40.805   8.706
  559POPC   D2A12232  19.935  40.551   8.304
  559POPC   C3A12233  19.853  40.745   7.875
  559POPC   C4A12234  20.197  40.790   7.595
  559POPC   C1B12235  19.618  40.507   8.756
  559POPC   C2B12236  19.501  40.285   8.366
  559POPC   C3B12237  19.607  40.303   7.916
  559POPC   C4B12238  19.444  40.567   7.562
  560POPC   NC312239   5.387  40.709   9.489
  560POPC   PO412240   4.756  41.055   9.707
  560POPC   GL112241   4.816  41.085   9.200
  560POPC   GL212242   5.080  40.855   9.103
  560POPC   C1A12243   4.743  40.984   8.750
  560POPC   D2A12244   4.942  40.659   8.510
  560POPC   C3A12245   4.813  40.686   8.086
  560POPC   C4A12246   4.862  40.736   7.674
  560POPC   C1B12247   5.395  40.688   8.806
  560POPC   C2B12248   5.502  40.745   8.375
  560POPC   C3B12249   5.375  40.716   7.948
  560POPC   C4B12250   5.564  40.365   7.752
  561POPC   NC312251  15.659   8.493   9.431
  561POPC   PO412252  15.765   9.203   9.431
  561POPC   GL112253  15.777   8.905   9.112
  561POPC   GL212254  15.487   8.686   9.016
  561POPC   C1A12255  16.049   8.898   8.761
  561POPC   D2A12256  16.203   9.021   8.382
  561POPC   C3A12257  16.188   8.693   8.111
  561POPC   C4A12258  16.177   8.819   7.740
  561POPC   C1B12259  15.564   8.820   8.632
  561POPC   C2B12260  15.692   8.694   8.251
  561POPC   C3B12261  15.685   8.932   7.888
  561POPC   C4B12262  15.740   8.831   7.461
  562POPC   NC312263  15.080  16.984   9.998
  562POPC   PO412264  14.801  16.707   9.459
  562POPC   GL112265  14.985  16.731   9.044
  562POPC   GL212266  15.362  16.767   9.083
  562POPC   C1A12267  14.863  16.623   8.589
  562POPC   D2A12268  14.970  16.919   8.253
  562POPC   C3A12269  14.999  16.755   7.851
  562POPC   C4A12270  15.084  16.814   7.401
  562POPC   C1B12271  15.309  16.816   8.637
  562POPC   C2B12272  15.339  16.579   8.211
  562POPC   C3B12273  15.469  16.601   7.757
  562POPC   C4B12274  15.510  16.447   7.321
  563POPC   NC312275  13.577  10.108   9.495
  563POPC   PO412276  13.494   9.454   9.711
  563POPC   GL112277  13.651   9.599   9.261
  563POPC   GL212278  13.510   9.906   9.052
  563POPC   C1A12279  13.694   9.547   8.777
  563POPC   D2A12280  13.709   9.565   8.317
  563POPC   C3A12281  13.348   9.606   8.045
  563POPC   C4A12282  13.557   9.614   7.670
  563POPC   C1B12283  13.355  10.193   8.717
  563POPC   C2B12284  13.495  10.301   8.282
  563POPC   C3B12285  13.671  10.059   7.915
  563POPC   C4B12286  13.727  10.022   7.435
  564POPC   NC312287  10.043  15.160   9.645
  564POPC   PO412288  10.595  15.442   9.683
  564POPC   GL112289  10.396  15.275   9.287
  564POPC   GL212290  10.697  15.400   9.144
  564POPC   C1A12291  10.160  15.257   8.852
  564POPC   D2A12292  10.130  14.931   8.503
  564POPC   C3A12293  10.301  15.036   8.082
  564POPC   C4A12294  10.439  14.877   7.685
  564POPC   C1B12295  10.610  15.056   8.856
  564POPC   C2B12296  10.519  15.291   8.475
  564POPC   C3B12297  10.788  15.361   8.132
  564POPC   C4B12298  10.911  15.100   7.766
  565POPC   NC312299   2.202  32.643   9.614
  565POPC   PO412300   2.093  33.243   9.775
  565POPC   GL112301   2.037  33.008   9.302
  565POPC   GL212302   2.018  32.704   9.108
  565POPC   C1A12303   2.111  33.117   8.831
  565POPC   D2A12304   1.855  33.230   8.474
  565POPC   C3A12305   1.800  33.201   8.005
  565POPC   C4A12306   2.053  33.006   7.706
  565POPC   C1B12307   1.963  32.691   8.653
  565POPC   C2B12308   2.000  32.783   8.205
  565POPC   C3B12309   1.885  32.554   7.819
  565POPC   C4B12310   1.943  32.601   7.361
  566POPC   NC312311  36.272   2.200   9.544
  566POPC   PO412312  35.813   1.677   9.634
  566POPC   GL112313  35.902   1.925   9.243
  566POPC   GL212314  35.772   1.697   8.999
  566POPC   C1A12315  36.134   2.096   8.860
  566POPC   D2A12316  36.379   2.247   8.479
  566POPC   C3A12317  36.296   2.093   8.050
  566POPC   C4A12318  36.000   1.910   7.765
  566POPC   C1B12319  36.189   1.598   8.851
  566POPC   C2B12320  36.336   1.708   8.448
  566POPC   C3B12321  36.330   1.562   8.037
  566POPC   C4B12322  36.447   1.700   7.657
  567POPC   NC312323  16.113  20.577   9.734
  567POPC   PO412324  15.680  21.067   9.490
  567POPC   GL112325  16.006  20.861   9.254
  567POPC   GL212326  16.015  20.503   9.229
  567POPC   C1A12327  15.895  20.882   8.817
  567POPC   D2A12328  15.685  20.630   8.512
  567POPC   C3A12329  15.856  20.639   8.100
  567POPC   C4A12330  16.033  20.800   7.764
  567POPC   C1B12331  15.964  20.341   8.817
  567POPC   C2B12332  15.910  20.146   8.421
  567POPC   C3B12333  15.835  20.130   7.992
  567POPC   C4B12334  16.110  20.301   7.714
  568POPC   NC312335  11.767  15.260   9.280
  568POPC   PO412336  12.200  15.009   9.674
  568POPC   GL112337  12.314  15.179   9.243
  568POPC   GL212338  12.157  14.908   9.097
  568POPC   C1A12339  12.257  15.424   8.818
  568POPC   D2A12340  12.235  15.326   8.352
  568POPC   C3A12341  11.918  15.274   8.023
  568POPC   C4A12342  11.934  15.174   7.592
  568POPC   C1B12343  11.968  15.012   8.693
  568POPC   C2B12344  12.092  14.807   8.327
  568POPC   C3B12345  12.317  14.930   7.973
  568POPC   C4B12346  12.479  15.328   7.879
  569POPC   NC312347  11.045  14.172   9.456
  569POPC   PO412348  11.341  14.835   9.437
  569POPC   GL112349  11.220  14.551   9.141
  569POPC   GL212350  11.492  14.277   9.208
  569POPC   C1A12351  11.042  14.654   8.739
  569POPC   D2A12352  11.011  14.424   8.376
  569POPC   C3A12353  10.950  14.620   7.964
  569POPC   C4A12354  11.167  14.539   7.580
  569POPC   C1B12355  11.375  14.206   8.783
  569POPC   C2B12356  11.525  14.462   8.449
  569POPC   C3B12357  11.411  14.404   8.040
  569POPC   C4B12358  11.598  14.330   7.685
  570POPC   NC312359  37.948  20.302   9.553
  570POPC   PO412360  38.594  20.378   9.540
  570POPC   GL112361  38.290  20.506   9.211
  570POPC   GL212362  38.248  20.867   9.177
  570POPC   C1A12363  38.310  20.390   8.787
  570POPC   D2A12364  38.507  20.225   8.417
  570POPC   C3A12365  38.293  20.365   8.038
  570POPC   C4A12366  38.417  20.628   7.681
  570POPC   C1B12367  38.399  20.906   8.772
  570POPC   C2B12368  38.460  20.729   8.365
  570POPC   C3B12369  38.668  20.893   8.033
  570POPC   C4B12370  38.498  21.192   7.805
  571POPC   NC312371  44.103  28.380   9.524
  571POPC   PO412372  43.385  28.361   9.692
  571POPC   GL112373  43.648  28.343   9.268
  571POPC   GL212374  43.591  28.032   9.079
  571POPC   C1A12375  43.866  28.457   8.841
  571POPC   D2A12376  44.178  28.701   8.591
  571POPC   C3A12377  44.119  28.616   8.144
  571POPC   C4A12378  43.835  28.573   7.773
  571POPC   C1B12379  43.781  27.948   8.674
  571POPC   C2B12380  43.855  28.152   8.307
  571POPC   C3B12381  44.074  28.150   7.935
  571POPC   C4B12382  43.854  28.134   7.547
  572POPC   NC312383  41.979  24.221   9.395
  572POPC   PO412384  41.288  24.531   9.489
  572POPC   GL112385  41.568  24.495   9.161
  572POPC   GL212386  41.908  24.681   9.193
  572POPC   C1A12387  41.401  24.329   8.752
  572POPC   D2A12388  41.388  24.083   8.355
  572POPC   C3A12389  41.399  24.333   7.984
  572POPC   C4A12390  41.377  24.210   7.546
  572POPC   C1B12391  41.840  24.608   8.751
  572POPC   C2B12392  41.743  24.445   8.365
  572POPC   C3B12393  41.839  24.610   7.980
  572POPC   C4B12394  41.772  25.042   7.918
  573POPC   NC312395  21.892  16.630  10.058
  573POPC   PO412396  22.366  16.866   9.886
  573POPC   GL112397  22.463  16.840   9.392
  573POPC   GL212398  22.681  17.093   9.210
  573POPC   C1A12399  22.429  16.719   8.926
  573POPC   D2A12400  22.509  16.516   8.494
  573POPC   C3A12401  22.329  16.557   8.086
  573POPC   C4A12402  22.016  16.791   7.892
  573POPC   C1B12403  22.710  17.077   8.697
  573POPC   C2B12404  22.479  17.033   8.247
  573POPC   C3B12405  22.497  16.954   7.783
  573POPC   C4B12406  22.577  17.189   7.413
  574POPC   NC312407  19.262  37.280   9.516
  574POPC   PO412408  18.845  37.882   9.499
  574POPC   GL112409  19.061  37.815   9.085
  574POPC   GL212410  19.241  37.494   9.009
  574POPC   C1A12411  19.004  37.733   8.642
  574POPC   D2A12412  19.282  37.596   8.330
  574POPC   C3A12413  19.172  37.878   8.042
  574POPC   C4A12414  18.795  37.877   7.841
  574POPC   C1B12415  19.139  37.248   8.704
  574POPC   C2B12416  18.907  37.201   8.348
  574POPC   C3B12417  18.916  37.384   7.970
  574POPC   C4B12418  18.940  37.469   7.550
  575POPC   NC312419   7.447  19.734   9.533
  575POPC   PO412420   7.066  20.243   9.324
  575POPC   GL112421   7.282  19.943   9.083
  575POPC   GL212422   7.614  19.913   9.091
  575POPC   C1A12423   7.264  19.608   8.819
  575POPC   D2A12424   7.325  19.431   8.433
  575POPC   C3A12425   7.383  19.662   8.051
  575POPC   C4A12426   7.682  19.864   7.785
  575POPC   C1B12427   7.665  20.118   8.702
  575POPC   C2B12428   7.652  20.073   8.263
  575POPC   C3B12429   7.311  20.176   7.945
  575POPC   C4B12430   7.135  20.026   7.530
  576POPC   NC312431   9.337  32.265   9.234
  576POPC   PO412432   8.846  32.184   9.638
  576POPC   GL112433   8.819  32.460   9.236
  576POPC   GL212434   8.845  32.148   9.102
  576POPC   C1A12435   9.002  32.565   8.761
  576POPC   D2A12436   9.095  32.378   8.321
  576POPC   C3A12437   8.923  32.566   7.909
  576POPC   C4A12438   8.907  32.661   7.427
  576POPC   C1B12439   8.893  32.073   8.691
  576POPC   C2B12440   8.627  32.085   8.319
  576POPC   C3B12441   8.815  32.074   7.925
  576POPC   C4B12442   9.270  32.018   7.965
  577POPC   NC312443  35.237  32.476   9.608
  577POPC   PO412444  35.294  33.115   9.768
  577POPC   GL112445  35.265  33.080   9.311
  577POPC   GL212446  35.352  32.792   9.200
  577POPC   C1A12447  35.292  33.099   8.819
  577POPC   D2A12448  35.493  33.022   8.420
  577POPC   C3A12449  35.355  33.152   8.017
  577POPC   C4A12450  35.639  33.218   7.699
  577POPC   C1B12451  35.284  32.580   8.811
  577POPC   C2B12452  35.300  32.516   8.389
  577POPC   C3B12453  35.173  32.637   7.976
  577POPC   C4B12454  35.280  32.841   7.596
  578POPC   NC312455  42.923  28.845   9.364
  578POPC   PO412456  43.438  29.279   9.584
  578POPC   GL112457  43.266  29.408   9.180
  578POPC   GL212458  42.931  29.331   9.161
  578POPC   C1A12459  43.326  29.280   8.760
  578POPC   D2A12460  43.237  28.921   8.471
  578POPC   C3A12461  43.239  29.104   8.067
  578POPC   C4A12462  43.461  29.228   7.699
  578POPC   C1B12463  42.847  29.091   8.771
  578POPC   C2B12464  42.741  29.042   8.358
  578POPC   C3B12465  42.824  28.826   8.001
  578POPC   C4B12466  42.895  29.100   7.662
  579POPC   NC312467  36.302  25.150   9.644
  579POPC   PO412468  36.151  25.730   9.493
  579POPC   GL112469  36.253  25.456   9.113
  579POPC   GL212470  36.288  25.067   9.124
  579POPC   C1A12471  36.209  25.308   8.668
  579POPC   D2A12472  36.092  25.214   8.231
  579POPC   C3A12473  36.189  25.453   7.892
  579POPC   C4A12474  35.978  25.438   7.526
  579POPC   C1B12475  36.166  24.811   8.743
  579POPC   C2B12476  36.431  24.875   8.398
  579POPC   C3B12477  36.526  25.078   8.008
  579POPC   C4B12478  36.202  24.961   7.709
  580POPC   NC312479   1.141  30.583   9.652
  580POPC   PO412480   1.397  31.169   9.522
  580POPC   GL112481   1.185  30.903   9.209
  580POPC   GL212482   1.381  30.617   9.179
  580POPC   C1A12483   0.951  30.819   8.801
  580POPC   D2A12484   0.839  30.913   8.341
  580POPC   C3A12485   1.167  30.837   7.996
  580POPC   C4A12486   1.243  30.861   7.537
  580POPC   C1B12487   1.481  30.745   8.755
  580POPC   C2B12488   1.549  30.661   8.299
  580POPC   C3B12489   1.575  30.545   7.838
  580POPC   C4B12490   1.504  30.452   7.387
  581POPC   NC312491   6.873   4.061   9.484
  581POPC   PO412492   6.709   4.645   9.541
  581POPC   GL112493   6.792   4.482   9.152
  581POPC   GL212494   6.541   4.203   9.113
  581POPC   C1A12495   6.966   4.330   8.778
  581POPC   D2A12496   6.906   4.165   8.359
  581POPC   C3A12497   6.689   4.432   8.081
  581POPC   C4A12498   6.760   4.623   7.705
  581POPC   C1B12499   6.467   4.179   8.669
  581POPC   C2B12500   6.350   4.090   8.261
  581POPC   C3B12501   6.420   3.980   7.851
  581POPC   C4B12502   6.232   4.345   7.797
  582POPC   NC312503  19.144   3.797   9.483
  582POPC   PO412504  19.202   3.274   9.875
  582POPC   GL112505  19.199   3.329   9.298
  582POPC   GL212506  19.424   3.547   9.132
  582POPC   C1A12507  19.044   3.437   8.795
  582POPC   D2A12508  18.972   3.344   8.333
  582POPC   C3A12509  18.816   3.397   7.881
  582POPC   C4A12510  18.841   3.402   7.388
  582POPC   C1B12511  19.261   3.920   8.854
  582POPC   C2B12512  19.135   4.084   8.435
  582POPC   C3B12513  19.040   3.848   8.066
  582POPC   C4B12514  19.141   3.724   7.636
  583POPC   NC312515   9.236   0.910   9.572
  583POPC   PO412516   8.901   1.519   9.599
  583POPC   GL112517   8.937   1.416   9.193
  583POPC   GL212518   9.030   1.087   9.144
  583POPC   C1A12519   9.088   1.403   8.768
  583POPC   D2A12520   9.038   1.233   8.381
  583POPC   C3A12521   9.091   1.538   8.075
  583POPC   C4A12522   8.939   1.445   7.683
  583POPC   C1B12523   8.857   0.919   8.762
  583POPC   C2B12524   8.652   0.866   8.370
  583POPC   C3B12525   8.809   0.984   7.957
  583POPC   C4B12526   8.601   1.069   7.583
  584POPC   NC312527  43.352  15.501   9.541
  584POPC   PO412528  42.922  15.009   9.732
  584POPC   GL112529  43.020  15.092   9.268
  584POPC   GL212530  43.308  14.858   9.148
  584POPC   C1A12531  43.052  15.469   8.952
  584POPC   D2A12532  43.350  15.563   8.564
  584POPC   C3A12533  43.198  15.519   8.116
  584POPC   C4A12534  43.209  15.139   7.865
  584POPC   C1B12535  43.331  15.085   8.724
  584POPC   C2B12536  42.935  15.266   8.514
  584POPC   C3B12537  42.756  15.243   8.116
  584POPC   C4B12538  42.696  15.227   7.655
  585POPC   NC312539  15.278  12.031   9.509
  585POPC   PO412540  14.661  11.925   9.264
  585POPC   GL112541  15.062  12.001   9.065
  585POPC   GL212542  15.408  11.732   9.128
  585POPC   C1A12543  15.086  12.292   8.726
  585POPC   D2A12544  15.085  12.350   8.297
  585POPC   C3A12545  14.914  11.958   8.145
  585POPC   C4A12546  14.985  11.904   7.724
  585POPC   C1B12547  15.500  11.967   8.790
  585POPC   C2B12548  15.361  11.933   8.400
  585POPC   C3B12549  15.405  12.065   7.979
  585POPC   C4B12550  15.534  11.801   7.641
  586POPC   NC312551   3.608  41.283   9.518
  586POPC   PO412552   3.047  41.759   9.565
  586POPC   GL112553   3.377  41.620   9.192
  586POPC   GL212554   3.571  41.278   9.021
  586POPC   C1A12555   3.482  41.665   8.730
  586POPC   D2A12556   3.425  41.356   8.379
  586POPC   C3A12557   3.401  41.550   7.960
  586POPC   C4A12558   3.554  41.694   7.569
  586POPC   C1B12559   3.870  41.326   8.625
  586POPC   C2B12560   3.886  41.529   8.184
  586POPC   C3B12561   3.840  41.307   7.784
  586POPC   C4B12562   4.002  40.997   7.483
  587POPC   NC312563   0.913   9.689   9.542
  587POPC   PO412564   1.477   9.796   9.349
  587POPC   GL112565   1.176   9.547   9.111
  587POPC   GL212566   0.919   9.762   9.025
  587POPC   C1A12567   1.105   9.425   8.682
  587POPC   D2A12568   1.355   9.500   8.310
  587POPC   C3A12569   1.273   9.748   7.928
  587POPC   C4A12570   1.411   9.576   7.524
  587POPC   C1B12571   1.195   9.938   8.691
  587POPC   C2B12572   1.146  10.266   8.378
  587POPC   C3B12573   1.067  10.222   7.943
  587POPC   C4B12574   0.702  10.046   7.736
  588POPC   NC312575   6.224  21.990   9.249
  588POPC   PO412576   5.786  22.406   9.548
  588POPC   GL112577   5.725  22.125   9.178
  588POPC   GL212578   5.731  21.798   9.314
  588POPC   C1A12579   5.885  22.101   8.719
  588POPC   D2A12580   6.067  22.232   8.305
  588POPC   C3A12581   6.039  21.982   7.922
  588POPC   C4A12582   6.092  21.761   7.534
  588POPC   C1B12583   5.597  21.699   8.905
  588POPC   C2B12584   5.702  21.654   8.509
  588POPC   C3B12585   5.629  21.739   8.111
  588POPC   C4B12586   5.547  21.867   7.717
  589POPC   NC312587   3.447  40.565   9.572
  589POPC   PO412588   3.982  40.804   9.669
  589POPC   GL112589   3.750  40.757   9.214
  589POPC   GL212590   3.477  40.540   9.079
  589POPC   C1A12591   3.686  40.853   8.745
  589POPC   D2A12592   3.676  40.651   8.336
  589POPC   C3A12593   3.589  40.879   7.950
  589POPC   C4A12594   3.683  40.611   7.589
  589POPC   C1B12595   3.175  40.529   8.760
  589POPC   C2B12596   3.168  40.356   8.372
  589POPC   C3B12597   3.297  40.466   7.971
  589POPC   C4B12598   3.159  40.755   7.658
  590POPC   NC312599  19.199   5.509   9.564
  590POPC   PO412600  18.742   5.008   9.563
  590POPC   GL112601  18.653   5.121   9.148
  590POPC   GL212602  18.736   5.460   9.148
  590POPC   C1A12603  18.733   5.077   8.714
  590POPC   D2A12604  18.990   4.881   8.409
  590POPC   C3A12605  18.846   5.016   8.007
  590POPC   C4A12606  19.080   4.757   7.758
  590POPC   C1B12607  19.106   5.282   8.964
  590POPC   C2B12608  19.164   5.355   8.521
  590POPC   C3B12609  19.298   5.275   8.120
  590POPC   C4B12610  19.272   5.233   7.699
  591POPC   NC312611  10.657  18.319   9.618
  591POPC   PO412612  10.070  18.075   9.591
  591POPC   GL112613  10.311  18.165   9.248
  591POPC   GL212614  10.314  18.534   9.275
  591POPC   C1A12615  10.386  18.257   8.816
  591POPC   D2A12616  10.181  18.146   8.441
  591POPC   C3A12617  10.452  18.235   8.091
  591POPC   C4A12618  10.228  18.228   7.724
  591POPC   C1B12619  10.219  18.762   8.894
  591POPC   C2B12620  10.224  18.665   8.476
  591POPC   C3B12621  10.130  18.612   8.051
  591POPC   C4B12622  10.034  18.717   7.619
  592POPC   NC312623  39.242  30.100   9.430
  592POPC   PO412624  39.487  29.435   9.491
  592POPC   GL112625  39.362  29.655   9.156
  592POPC   GL212626  39.075  29.581   9.034
  592POPC   C1A12627  39.411  29.875   8.756
  592POPC   D2A12628  39.294  29.710   8.342
  592POPC   C3A12629  39.376  29.949   7.943
  592POPC   C4A12630  39.355  29.850   7.514
  592POPC   C1B12631  38.911  29.788   8.713
  592POPC   C2B12632  38.751  29.817   8.342
  592POPC   C3B12633  38.915  29.695   7.969
  592POPC   C4B12634  38.867  29.937   7.617
  593POPC   NC312635  23.403  30.821   9.491
  593POPC   PO412636  24.064  30.969   9.535
  593POPC   GL112637  23.927  30.798   9.149
  593POPC   GL212638  23.682  30.529   9.154
  593POPC   C1A12639  24.010  30.742   8.692
  593POPC   D2A12640  24.040  30.961   8.283
  593POPC   C3A12641  23.979  30.652   7.937
  593POPC   C4A12642  24.084  30.449   7.548
  593POPC   C1B12643  23.503  30.819   8.838
  593POPC   C2B12644  23.551  30.839   8.402
  593POPC   C3B12645  23.589  30.976   7.977
  593POPC   C4B12646  23.524  30.938   7.511
  594POPC   NC312647  11.413  37.837   9.535
  594POPC   PO412648  11.099  37.342   9.175
  594POPC   GL112649  11.081  37.839   9.123
  594POPC   GL212650  11.437  37.967   9.046
  594POPC   C1A12651  11.061  37.977   8.689
  594POPC   D2A12652  11.340  37.665   8.459
  594POPC   C3A12653  11.188  37.446   8.091
  594POPC   C4A12654  11.325  37.477   7.674
  594POPC   C1B12655  11.547  38.114   8.665
  594POPC   C2B12656  11.446  38.126   8.255
  594POPC   C3B12657  11.129  37.966   8.065
  594POPC   C4B12658  11.216  37.977   7.677
  595POPC   NC312659  25.997  16.900   9.678
  595POPC   PO412660  25.667  16.433   9.354
  595POPC   GL112661  25.846  16.789   9.122
  595POPC   GL212662  26.189  16.887   9.191
  595POPC   C1A12663  26.096  16.732   8.728
  595POPC   D2A12664  26.235  16.552   8.319
  595POPC   C3A12665  25.911  16.477   7.989
  595POPC   C4A12666  25.685  16.713   7.641
  595POPC   C1B12667  26.413  17.160   8.884
  595POPC   C2B12668  26.316  17.086   8.451
  595POPC   C3B12669  26.029  16.988   8.136
  595POPC   C4B12670  26.164  16.835   7.755
  596POPC   NC312671  18.832   4.647   9.824
  596POPC   PO412672  19.302   4.233   9.608
  596POPC   GL112673  19.039   4.313   9.234
  596POPC   GL212674  18.734   4.527   9.332
  596POPC   C1A12675  19.145   4.462   8.795
  596POPC   D2A12676  19.414   4.549   8.425
  596POPC   C3A12677  19.290   4.385   8.023
  596POPC   C4A12678  18.990   4.219   7.714
  596POPC   C1B12679  18.642   4.596   8.909
  596POPC   C2B12680  18.702   4.392   8.520
  596POPC   C3B12681  18.789   4.482   8.113
  596POPC   C4B12682  18.606   4.604   7.739
  597POPC   NC312683   9.935  14.573   9.576
  597POPC   PO412684   9.475  14.274   9.378
  597POPC   GL112685   9.839  14.284   9.155
  597POPC   GL212686   9.730  14.599   9.062
  597POPC   C1A12687  10.056  14.327   8.753
  597POPC   D2A12688   9.897  14.227   8.348
  597POPC   C3A12689   9.876  14.592   8.133
  597POPC   C4A12690   9.699  14.660   7.750
  597POPC   C1B12691   9.541  14.335   8.739
  597POPC   C2B12692   9.418  14.480   8.380
  597POPC   C3B12693   9.223  14.364   8.059
  597POPC   C4B12694   9.226  14.427   7.663
  598POPC   NC312695  41.112   9.310   9.418
  598POPC   PO412696  41.493   9.773   9.717
  598POPC   GL112697  41.521   9.999   9.251
  598POPC   GL212698  41.800   9.856   9.003
  598POPC   C1A12699  41.426  10.113   8.805
  598POPC   D2A12700  41.777  10.069   8.478
  598POPC   C3A12701  41.619   9.897   8.071
  598POPC   C4A12702  41.268   9.894   7.760
  598POPC   C1B12703  41.841   9.482   8.715
  598POPC   C2B12704  41.616   9.168   8.445
  598POPC   C3B12705  41.733   9.191   8.015
  598POPC   C4B12706  41.649   9.512   7.717
  599POPC   NC312707  39.258  39.690   9.600
  599POPC   PO412708  38.919  39.086   9.521
  599POPC   GL112709  39.156  39.095   9.145
  599POPC   GL212710  39.217  39.417   9.162
  599POPC   C1A12711  39.417  39.100   8.770
  599POPC   D2A12712  39.518  39.248   8.363
  599POPC   C3A12713  39.157  39.170   8.088
  599POPC   C4A12714  39.114  39.280   7.659
  599POPC   C1B12715  39.326  39.583   8.771
  599POPC   C2B12716  39.159  39.622   8.393
  599POPC   C3B12717  39.266  39.668   7.994
  599POPC   C4B12718  39.383  39.729   7.586
  600POPC   NC312719  24.663   1.312   9.516
  600POPC   PO412720  24.032   1.591   9.551
  600POPC   GL112721  24.256   1.351   9.197
  600POPC   GL212722  24.340   1.026   9.045
  600POPC   C1A12723  24.470   1.476   8.804
  600POPC   D2A12724  24.471   1.229   8.446
  600POPC   C3A12725  24.306   1.167   8.033
  600POPC   C4A12726  24.174   1.339   7.659
  600POPC   C1B12727  24.784   1.070   8.872
  600POPC   C2B12728  24.978   1.091   8.460
  600POPC   C3B12729  24.817   1.276   8.075
  600POPC   C4B12730  24.711   1.032   7.721
  601POPC   NC312731   8.059  18.019   9.576
  601POPC   PO412732   8.388  18.621   9.602
  601POPC   GL112733   8.342  18.596   9.205
  601POPC   GL212734   8.014  18.455   9.212
  601POPC   C1A12735   8.466  18.373   8.856
  601POPC   D2A12736   8.361  18.430   8.448
  601POPC   C3A12737   8.372  18.189   8.128
  601POPC   C4A12738   8.327  18.094   7.735
  601POPC   C1B12739   7.976  18.251   8.823
  601POPC   C2B12740   7.996  18.002   8.461
  601POPC   C3B12741   7.973  17.861   8.048
  601POPC   C4B12742   7.788  18.023   7.684
  602POPC   NC312743  29.710  38.940   9.642
  602POPC   PO412744  29.993  39.531   9.482
  602POPC   GL112745  29.795  39.381   9.119
  602POPC   GL212746  29.785  39.012   9.014
  602POPC   C1A12747  29.830  39.393   8.673
  602POPC   D2A12748  29.921  39.315   8.237
  602POPC   C3A12749  29.678  39.212   7.886
  602POPC   C4A12750  29.610  39.367   7.476
  602POPC   C1B12751  30.123  38.996   8.626
  602POPC   C2B12752  30.402  39.214   8.273
  602POPC   C3B12753  30.259  39.368   7.852
  602POPC   C4B12754  30.115  39.228   7.475
  603POPC   NC312755  40.866   3.943   9.651
  603POPC   PO412756  40.431   3.491   9.500
  603POPC   GL112757  40.680   3.469   9.168
  603POPC   GL212758  40.910   3.782   9.172
  603POPC   C1A12759  40.605   3.269   8.775
  603POPC   D2A12760  40.713   3.452   8.397
  603POPC   C3A12761  40.730   3.234   8.006
  603POPC   C4A12762  40.760   3.513   7.686
  603POPC   C1B12763  41.172   3.797   8.787
  603POPC   C2B12764  41.298   3.841   8.334
  603POPC   C3B12765  41.191   3.955   7.884
  603POPC   C4B12766  41.213   3.702   7.497
  604POPC   NC312767  13.688   5.071   9.927
  604POPC   PO412768  13.419   4.645   9.510
  604POPC   GL112769  13.632   4.910   9.220
  604POPC   GL212770  13.712   5.258   9.165
  604POPC   C1A12771  13.664   4.907   8.767
  604POPC   D2A12772  13.399   4.986   8.409
  604POPC   C3A12773  13.478   5.153   8.010
  604POPC   C4A12774  13.515   4.838   7.690
  604POPC   C1B12775  14.007   5.322   8.857
  604POPC   C2B12776  14.015   5.173   8.459
  604POPC   C3B12777  13.961   5.056   8.056
  604POPC   C4B12778  13.842   5.241   7.646
  605POPC   NC312779  38.583  41.911   9.348
  605POPC   PO412780  38.208  41.444   9.628
  605POPC   GL112781  38.454  41.431   9.207
  605POPC   GL212782  38.830  41.357   9.219
  605POPC   C1A12783  38.490  41.568   8.778
  605POPC   D2A12784  38.271  41.632   8.395
  605POPC   C3A12785  38.428  41.818   8.038
  605POPC   C4A12786  38.287  41.595   7.712
  605POPC   C1B12787  38.751  41.139   8.860
  605POPC   C2B12788  38.541  41.169   8.456
  605POPC   C3B12789  38.487  41.272   8.041
  605POPC   C4B12790  38.803  41.518   7.781
  606POPC   NC312791  39.052   3.326   9.486
  606POPC   PO412792  39.498   3.833   9.589
  606POPC   GL112793  39.310   3.678   9.173
  606POPC   GL212794  38.931   3.566   9.048
  606POPC   C1A12795  39.331   3.559   8.732
  606POPC   D2A12796  39.192   3.358   8.349
  606POPC   C3A12797  39.243   3.526   7.943
  606POPC   C4A12798  39.368   3.588   7.511
  606POPC   C1B12799  38.732   3.383   8.638
  606POPC   C2B12800  38.734   3.142   8.202
  606POPC   C3B12801  38.876   3.119   7.732
  606POPC   C4B12802  38.922   3.219   7.267
  607POPC   NC312803  26.630  43.611   9.628
  607POPC   PO412804  27.220  44.077   9.599
  607POPC   GL112805  27.101  44.181   9.097
  607POPC   GL212806  26.676  44.082   9.020
  607POPC   C1A12807  27.032  43.991   8.689
  607POPC   D2A12808  27.119  43.984   8.292
  607POPC   C3A12809  27.244  43.643   8.066
  607POPC   C4A12810  26.950  43.853   7.791
  607POPC   C1B12811  26.521  44.136   8.622
  607POPC   C2B12812  26.394  43.835   8.347
  607POPC   C3B12813  26.524  43.654   7.974
  607POPC   C4B12814  26.425  43.693   7.533
  608POPC   NC312815  30.366  30.520   9.346
  608POPC   PO412816  30.102  31.127   9.338
  608POPC   GL112817  30.065  30.806   9.030
  608POPC   GL212818  29.726  30.744   9.134
  608POPC   C1A12819  29.838  30.583   8.670
  608POPC   D2A12820  29.631  30.696   8.263
  608POPC   C3A12821  29.950  30.695   7.945
  608POPC   C4A12822  29.962  30.370   7.630
  608POPC   C1B12823  29.708  31.095   8.783
  608POPC   C2B12824  29.834  31.236   8.352
  608POPC   C3B12825  29.639  31.103   7.944
  608POPC   C4B12826  29.761  31.123   7.465
  609POPC   NC312827  28.882  32.499   9.516
  609POPC   PO412828  28.784  33.215   9.395
  609POPC   GL112829  29.049  32.921   9.181
  609POPC   GL212830  29.416  32.879   9.226
  609POPC   C1A12831  29.153  32.990   8.757
  609POPC   D2A12832  28.995  32.824   8.383
  609POPC   C3A12833  28.933  33.103   8.086
  609POPC   C4A12834  28.961  32.985   7.663
  609POPC   C1B12835  29.551  32.670   8.828
  609POPC   C2B12836  29.482  32.633   8.373
  609POPC   C3B12837  29.356  32.839   7.988
  609POPC   C4B12838  29.420  32.858   7.514
  610POPC   NC312839   6.450   9.186   9.521
  610POPC   PO412840   7.076   8.934   9.650
  610POPC   GL112841   6.769   9.013   9.195
  610POPC   GL212842   6.552   8.794   9.061
  610POPC   C1A12843   6.891   9.136   8.727
  610POPC   D2A12844   6.773   9.130   8.291
  610POPC   C3A12845   6.939   8.817   7.987
  610POPC   C4A12846   6.920   8.627   7.560
  610POPC   C1B12847   6.396   9.138   8.772
  610POPC   C2B12848   6.285   9.276   8.376
  610POPC   C3B12849   6.313   9.145   7.938
  610POPC   C4B12850   6.331   9.215   7.489
  611POPC   NC312851  16.702  35.464   9.590
  611POPC   PO412852  17.066  34.978   9.413
  611POPC   GL112853  16.914  35.234   9.119
  611POPC   GL212854  16.596  35.347   9.106
  611POPC   C1A12855  16.871  35.120   8.716
  611POPC   D2A12856  17.017  35.310   8.369
  611POPC   C3A12857  16.753  35.445   8.100
  611POPC   C4A12858  16.817  35.411   7.694
  611POPC   C1B12859  16.363  35.089   8.836
  611POPC   C2B12860  16.449  35.196   8.436
  611POPC   C3B12861  16.432  35.047   8.057
  611POPC   C4B12862  16.330  35.210   7.694
  612POPC   NC312863  25.221  30.827   9.432
  612POPC   PO412864  25.633  30.366   9.384
  612POPC   GL112865  25.411  30.503   9.063
  612POPC   GL212866  25.066  30.477   9.101
  612POPC   C1A12867  25.485  30.781   8.734
  612POPC   D2A12868  25.625  30.630   8.337
  612POPC   C3A12869  25.449  30.745   7.927
  612POPC   C4A12870  25.307  31.113   7.684
  612POPC   C1B12871  25.068  30.488   8.665
  612POPC   C2B12872  24.846  30.333   8.314
  612POPC   C3B12873  24.868  30.435   7.907
  612POPC   C4B12874  25.173  30.342   7.615
  613POPC   NC312875   3.937  35.264   9.393
  613POPC   PO412876   4.265  35.817   9.372
  613POPC   GL112877   4.359  35.449   9.113
  613POPC   GL212878   4.651  35.486   8.896
  613POPC   C1A12879   4.271  35.166   8.755
  613POPC   D2A12880   4.066  35.126   8.355
  613POPC   C3A12881   4.322  35.233   8.032
  613POPC   C4A12882   4.366  35.114   7.610
  613POPC   C1B12883   4.366  35.694   8.603
  613POPC   C2B12884   4.345  35.762   8.140
  613POPC   C3B12885   4.512  35.596   7.733
  613POPC   C4B12886   4.465  35.534   7.257
  614POPC   NC312887  38.020  10.597  10.045
  614POPC   PO412888  38.710  10.538   9.702
  614POPC   GL112889  38.482  10.513   9.304
  614POPC   GL212890  38.176  10.296   9.357
  614POPC   C1A12891  38.336  10.753   8.936
  614POPC   D2A12892  38.250  10.640   8.513
  614POPC   C3A12893  38.618  10.478   8.270
  614POPC   C4A12894  38.823  10.636   7.876
  614POPC   C1B12895  38.189  10.281   8.896
  614POPC   C2B12896  38.288  10.135   8.473
  614POPC   C3B12897  38.164  10.297   8.093
  614POPC   C4B12898  38.359  10.444   7.749
  615POPC   NC312899  19.847  43.944   9.752
  615POPC   PO412900  19.629  44.353   9.368
  615POPC   GL112901  19.906  44.079   9.177
  615POPC   GL212902  20.172  43.822   9.349
  615POPC   C1A12903  19.845  44.032   8.705
  615POPC   D2A12904  19.780  44.273   8.325
  615POPC   C3A12905  19.709  44.125   7.888
  615POPC   C4A12906  19.334  43.949   7.724
  615POPC   C1B12907  20.259  43.845   8.920
  615POPC   C2B12908  20.289  43.872   8.475
  615POPC   C3B12909  20.039  43.774   8.103
  615POPC   C4B12910  20.145  43.771   7.668
  616POPC   NC312911  40.603  27.930   9.402
  616POPC   PO412912  40.482  27.235   9.427
  616POPC   GL112913  40.757  27.504   9.141
  616POPC   GL212914  40.946  27.269   8.970
  616POPC   C1A12915  40.908  27.775   8.773
  616POPC   D2A12916  40.938  27.831   8.302
  616POPC   C3A12917  41.014  27.417   8.079
  616POPC   C4A12918  41.091  27.252   7.656
  616POPC   C1B12919  40.606  27.216   8.714
  616POPC   C2B12920  40.482  27.174   8.289
  616POPC   C3B12921  40.522  27.570   8.055
  616POPC   C4B12922  40.757  27.648   7.677
  617POPC   NC312923  21.351  30.670   9.658
  617POPC   PO412924  21.995  30.723   9.589
  617POPC   GL112925  21.611  30.740   9.231
  617POPC   GL212926  21.209  30.790   9.170
  617POPC   C1A12927  21.547  30.772   8.779
  617POPC   D2A12928  21.359  30.884   8.361
  617POPC   C3A12929  21.634  30.920   8.038
  617POPC   C4A12930  21.563  31.037   7.604
  617POPC   C1B12931  21.083  30.585   8.746
  617POPC   C2B12932  21.373  30.384   8.440
  617POPC   C3B12933  21.474  30.440   8.005
  617POPC   C4B12934  21.249  30.597   7.621
  618POPC   NC312935  43.848  42.583   9.518
  618POPC   PO412936  43.526  41.957   9.568
  618POPC   GL112937  43.749  42.135   9.216
  618POPC   GL212938  43.670  41.859   9.058
  618POPC   C1A12939  43.920  42.403   8.882
  618POPC   D2A12940  44.221  42.479   8.523
  618POPC   C3A12941  44.053  42.601   8.127
  618POPC   C4A12942  43.884  42.454   7.744
  618POPC   C1B12943  43.560  42.105   8.685
  618POPC   C2B12944  43.593  42.234   8.228
  618POPC   C3B12945  43.672  41.987   7.873
  618POPC   C4B12946  43.776  42.066   7.433
  619POPC   NC312947  44.648   9.906   9.606
  619POPC   PO412948  44.682   9.317   9.492
  619POPC   GL112949  44.525   9.483   9.115
  619POPC   GL212950  44.462   9.843   9.119
  619POPC   C1A12951  44.686   9.644   8.695
  619POPC   D2A12952  44.541   9.979   8.408
  619POPC   C3A12953  44.656   9.905   7.969
  619POPC   C4A12954  44.931   9.540   7.839
  619POPC   C1B12955  44.188   9.678   8.763
  619POPC   C2B12956  44.276   9.542   8.348
  619POPC   C3B12957  44.439   9.449   7.933
  619POPC   C4B12958  44.238   9.371   7.583
  620POPC   NC312959  26.655   5.407   9.478
  620POPC   PO412960  27.137   4.909   9.432
  620POPC   GL112961  26.894   5.103   9.131
  620POPC   GL212962  26.557   4.990   9.190
  620POPC   C1A12963  26.682   5.272   8.784
  620POPC   D2A12964  26.725   5.071   8.427
  620POPC   C3A12965  26.950   5.155   8.068
  620POPC   C4A12966  26.930   5.450   7.716
  620POPC   C1B12967  26.394   4.789   8.803
  620POPC   C2B12968  26.255   4.876   8.368
  620POPC   C3B12969  26.479   4.916   7.996
  620POPC   C4B12970  26.596   5.070   7.600
  621POPC   NC312971  21.696  35.061   9.372
  621POPC   PO412972  21.210  35.586   9.461
  621POPC   GL112973  21.277  35.339   9.118
  621POPC   GL212974  21.242  34.971   9.127
  621POPC   C1A12975  21.508  35.423   8.767
  621POPC   D2A12976  21.292  35.402   8.393
  621POPC   C3A12977  21.461  35.561   8.033
  621POPC   C4A12978  21.347  35.295   7.756
  621POPC   C1B12979  21.536  34.913   8.729
  621POPC   C2B12980  21.555  34.957   8.233
  621POPC   C3B12981  21.657  34.889   7.775
  621POPC   C4B12982  21.805  34.989   7.335
  622POPC   NC312983  17.154  28.672   9.323
  622POPC   PO412984  17.552  28.222   9.669
  622POPC   GL112985  17.481  28.258   9.263
  622POPC   GL212986  17.774  28.107   9.113
  622POPC   C1A12987  17.344  28.167   8.862
  622POPC   D2A12988  17.537  28.123   8.481
  622POPC   C3A12989  17.332  28.319   8.169
  622POPC   C4A12990  17.491  28.275   7.757
  622POPC   C1B12991  17.743  28.509   8.878
  622POPC   C2B12992  17.700  28.652   8.446
  622POPC   C3B12993  17.810  28.548   8.057
  622POPC   C4B12994  17.820  28.643   7.602
  623POPC   NC312995  13.156  21.484   9.758
  623POPC   PO412996  12.462  21.561   9.592
  623POPC   GL112997  12.712  21.372   9.207
  623POPC   GL212998  13.060  21.357   9.223
  623POPC   C1A12999  12.857  21.340   8.745
  623POPC   D2A13000  12.654  21.280   8.330
  623POPC   C3A13001  12.796  21.503   7.933
  623POPC   C4A13002  12.532  21.641   7.595
  623POPC   C1B13003  13.329  21.529   8.883
  623POPC   C2B13004  13.330  21.777   8.512
  623POPC   C3B13005  13.320  21.605   8.109
  623POPC   C4B13006  13.288  21.454   7.724
  624POPC   NC313007  37.769  32.665   9.563
  624POPC   PO413008  37.197  32.859   9.377
  624POPC   GL113009  37.549  32.839   9.066
  624POPC   GL213010  37.940  32.875   9.078
  624POPC   C1A13011  37.713  32.906   8.627
  624POPC   D2A13012  38.066  32.857   8.335
  624POPC   C3A13013  37.969  33.002   7.950
  624POPC   C4A13014  37.570  33.172   7.886
  624POPC   C1B13015  38.126  33.169   8.760
  624POPC   C2B13016  37.926  33.363   8.381
  624POPC   C3B13017  37.870  33.560   7.978
  624POPC   C4B13018  37.860  33.467   7.507
  625POPC   NC313019  24.948  27.792   9.421
  625POPC   PO413020  25.289  27.322   9.678
  625POPC   GL113021  25.288  27.428   9.234
  625POPC   GL213022  25.350  27.771   9.111
  625POPC   C1A13023  25.388  27.366   8.792
  625POPC   D2A13024  25.562  27.521   8.401
  625POPC   C3A13025  25.363  27.310   8.052
  625POPC   C4A13026  25.425  27.469   7.667
  625POPC   C1B13027  25.051  27.765   8.734
  625POPC   C2B13028  25.083  27.669   8.277
  625POPC   C3B13029  25.193  27.891   7.900
  625POPC   C4B13030  25.222  27.902   7.420
  626POPC   NC313031  34.363  29.557   9.821
  626POPC   PO413032  33.738  29.445   9.480
  626POPC   GL113033  33.824  29.208   9.111
  626POPC   GL213034  34.003  28.919   9.231
  626POPC   C1A13035  33.591  28.994   8.790
  626POPC   D2A13036  33.332  29.029   8.430
  626POPC   C3A13037  33.614  28.948   8.102
  626POPC   C4A13038  33.786  29.258   7.865
  626POPC   C1B13039  34.030  28.723   8.832
  626POPC   C2B13040  34.070  28.893   8.424
  626POPC   C3B13041  34.221  28.994   8.036
  626POPC   C4B13042  33.972  28.824   7.710
  627POPC   NC313043  15.342  34.848   9.731
  627POPC   PO413044  15.309  35.570   9.654
  627POPC   GL113045  15.239  35.553   9.192
  627POPC   GL213046  14.929  35.474   9.037
  627POPC   C1A13047  15.401  35.508   8.775
  627POPC   D2A13048  15.443  35.658   8.348
  627POPC   C3A13049  15.182  35.385   8.085
  627POPC   C4A13050  15.356  35.241   7.747
  627POPC   C1B13051  14.981  35.112   8.765
  627POPC   C2B13052  14.972  34.934   8.358
  627POPC   C3B13053  15.039  34.860   7.925
  627POPC   C4B13054  14.907  35.102   7.550
  628POPC   NC313055  39.224  11.599   9.294
  628POPC   PO413056  39.502  12.173   9.500
  628POPC   GL113057  39.366  12.039   9.127
  628POPC   GL213058  38.982  12.058   9.248
  628POPC   C1A13059  39.370  11.937   8.707
  628POPC   D2A13060  39.249  12.301   8.433
  628POPC   C3A13061  39.242  12.086   8.035
  628POPC   C4A13062  39.526  12.100   7.712
  628POPC   C1B13063  38.925  12.168   8.821
  628POPC   C2B13064  38.722  12.384   8.457
  628POPC   C3B13065  38.914  12.473   8.052
  628POPC   C4B13066  39.145  12.455   7.652
  629POPC   NC313067  24.898   2.965   9.446
  629POPC   PO413068  24.542   2.427   9.394
  629POPC   GL113069  24.612   2.729   9.085
  629POPC   GL213070  24.851   2.539   8.934
  629POPC   C1A13071  24.457   2.998   8.745
  629POPC   D2A13072  24.116   2.968   8.432
  629POPC   C3A13073  24.290   2.984   8.000
  629POPC   C4A13074  24.318   2.625   7.727
  629POPC   C1B13075  24.978   2.948   8.792
  629POPC   C2B13076  24.904   2.949   8.394
  629POPC   C3B13077  24.746   2.666   8.065
  629POPC   C4B13078  24.804   2.709   7.632
  630POPC   NC313079  37.692  29.456   9.598
  630POPC   PO413080  37.950  30.013   9.386
  630POPC   GL113081  37.628  29.799   9.145
  630POPC   GL213082  37.444  29.468   9.160
  630POPC   C1A13083  37.654  29.947   8.713
  630POPC   D2A13084  37.675  30.082   8.276
  630POPC   C3A13085  37.947  30.049   7.908
  630POPC   C4A13086  37.851  29.847   7.499
  630POPC   C1B13087  37.683  29.426   8.783
  630POPC   C2B13088  37.928  29.607   8.456
  630POPC   C3B13089  37.766  29.605   8.052
  630POPC   C4B13090  37.566  29.487   7.689
  631POPC   NC313091  14.732   9.941   9.557
  631POPC   PO413092  15.454   9.792   9.505
  631POPC   GL113093  15.247   9.820   9.145
  631POPC   GL213094  14.917   9.701   9.105
  631POPC   C1A13095  15.344   9.675   8.764
  631POPC   D2A13096  15.297   9.680   8.360
  631POPC   C3A13097  15.493   9.961   8.088
  631POPC   C4A13098  15.332   9.985   7.678
  631POPC   C1B13099  14.895  10.041   8.789
  631POPC   C2B13100  15.031  10.114   8.358
  631POPC   C3B13101  14.959   9.848   7.991
  631POPC   C4B13102  14.655   9.848   7.630
  632POPC   NC313103  41.261  17.055   9.448
  632POPC   PO413104  41.506  16.424   9.430
  632POPC   GL113105  41.399  16.670   9.120
  632POPC   GL213106  41.668  16.826   9.152
  632POPC   C1A13107  41.499  16.691   8.692
  632POPC   D2A13108  41.498  16.888   8.350
  632POPC   C3A13109  41.571  16.612   8.079
  632POPC   C4A13110  41.482  16.844   7.708
  632POPC   C1B13111  41.935  16.531   8.856
  632POPC   C2B13112  41.927  16.321   8.454
  632POPC   C3B13113  42.049  16.338   8.019
  632POPC   C4B13114  41.936  16.661   7.735
  633POPC   NC313115   7.614  16.813   9.379
  633POPC   PO413116   6.963  16.690   9.440
  633POPC   GL113117   7.185  16.881   9.075
  633POPC   GL213118   7.476  16.736   8.899
  633POPC   C1A13119   7.246  17.139   8.684
  633POPC   D2A13120   7.437  17.136   8.273
  633POPC   C3A13121   7.457  16.693   8.151
  633POPC   C4A13122   7.342  16.477   7.765
  633POPC   C1B13123   7.756  16.425   8.711
  633POPC   C2B13124   7.934  16.415   8.298
  633POPC   C3B13125   7.902  16.624   7.910
  633POPC   C4B13126   7.785  16.445   7.521
  634POPC   NC313127   9.665  18.199   9.784
  634POPC   PO413128   9.334  18.609   9.283
  634POPC   GL113129   9.597  18.397   9.046
  634POPC   GL213130   9.700  18.159   9.231
  634POPC   C1A13131   9.877  18.415   8.761
  634POPC   D2A13132   9.743  18.493   8.378
  634POPC   C3A13133   9.822  18.206   8.059
  634POPC   C4A13134   9.715  18.273   7.642
  634POPC   C1B13135   9.692  17.956   8.785
  634POPC   C2B13136   9.729  17.771   8.351
  634POPC   C3B13137   9.493  17.828   7.933
  634POPC   C4B13138   9.520  17.837   7.447
  635POPC   NC313139  21.309  41.847   9.552
  635POPC   PO413140  21.572  42.477   9.571
  635POPC   GL113141  21.525  42.504   9.162
  635POPC   GL213142  21.378  42.189   9.159
  635POPC   C1A13143  21.639  42.455   8.734
  635POPC   D2A13144  21.483  42.243   8.389
  635POPC   C3A13145  21.588  42.381   7.980
  635POPC   C4A13146  21.754  42.352   7.579
  635POPC   C1B13147  21.137  42.322   8.794
  635POPC   C2B13148  20.988  42.331   8.377
  635POPC   C3B13149  21.115  42.148   7.974
  635POPC   C4B13150  21.248  42.362   7.579
  636POPC   NC313151  30.576   5.689   9.438
  636POPC   PO413152  30.852   6.254   9.346
  636POPC   GL113153  30.549   6.073   9.058
  636POPC   GL213154  30.351   5.752   8.999
  636POPC   C1A13155  30.715   5.961   8.681
  636POPC   D2A13156  30.882   6.135   8.337
  636POPC   C3A13157  30.614   6.054   8.025
  636POPC   C4A13158  30.756   5.931   7.634
  636POPC   C1B13159  30.482   5.521   8.632
  636POPC   C2B13160  30.712   5.614   8.264
  636POPC   C3B13161  30.592   5.469   7.836
  636POPC   C4B13162  30.483   5.592   7.400
  637POPC   NC313163  38.865   0.206   9.481
  637POPC   PO413164  38.452   0.805   9.554
  637POPC   GL113165  38.595   0.636   9.154
  637POPC   GL213166  38.553   0.338   9.109
  637POPC   C1A13167  38.570   0.623   8.674
  637POPC   D2A13168  38.722   0.346   8.294
  637POPC   C3A13169  38.516   0.463   7.944
  637POPC   C4A13170  38.248   0.807   7.999
  637POPC   C1B13171  38.763   0.165   8.757
  637POPC   C2B13172  38.571  44.883   8.493
  637POPC   C3B13173  38.431  44.962   8.068
  637POPC   C4B13174  38.768   0.021   7.801
  638POPC   NC313175  25.820   2.423   9.493
  638POPC   PO413176  26.390   2.754   9.228
  638POPC   GL113177  26.089   2.531   9.051
  638POPC   GL213178  25.829   2.744   9.089
  638POPC   C1A13179  25.870   2.404   8.683
  638POPC   D2A13180  25.706   2.662   8.355
  638POPC   C3A13181  26.021   2.745   8.046
  638POPC   C4A13182  25.846   2.523   7.754
  638POPC   C1B13183  25.996   2.939   8.685
  638POPC   C2B13184  25.841   3.153   8.310
  638POPC   C3B13185  25.744   3.117   7.889
  638POPC   C4B13186  25.832   2.976   7.518
  639POPC   NC313187  11.973  32.485   9.563
  639POPC   PO413188  11.838  31.788   9.410
  639POPC   GL113189  12.165  32.104   9.261
  639POPC   GL213190  11.921  32.343   9.078
  639POPC   C1A13191  12.356  32.216   8.860
  639POPC   D2A13192  12.081  32.297   8.522
  639POPC   C3A13193  12.251  32.325   8.134
  639POPC   C4A13194  12.122  32.293   7.707
  639POPC   C1B13195  11.732  32.620   8.761
  639POPC   C2B13196  11.594  32.713   8.360
  639POPC   C3B13197  11.703  32.501   7.992
  639POPC   C4B13198  11.840  32.709   7.631
  640POPC   NC313199  40.278  16.967   9.703
  640POPC   PO413200  40.835  16.918   9.353
  640POPC   GL113201  40.588  16.769   9.075
  640POPC   GL213202  40.734  16.444   9.120
  640POPC   C1A13203  40.618  16.762   8.649
  640POPC   D2A13204  40.701  17.007   8.283
  640POPC   C3A13205  40.572  16.820   7.918
  640POPC   C4A13206  40.390  16.462   7.763
  640POPC   C1B13207  41.038  16.499   8.821
  640POPC   C2B13208  41.059  16.655   8.417
  640POPC   C3B13209  41.083  16.762   8.014
  640POPC   C4B13210  41.086  16.518   7.635
  641POPC   NC313211   0.858  22.663   9.549
  641POPC   PO413212   1.382  23.089   9.507
  641POPC   GL113213   1.172  22.913   9.146
  641POPC   GL213214   1.309  22.583   9.075
  641POPC   C1A13215   1.036  22.909   8.712
  641POPC   D2A13216   1.242  22.708   8.357
  641POPC   C3A13217   1.256  22.975   8.029
  641POPC   C4A13218   0.989  23.209   7.772
  641POPC   C1B13219   0.851  22.506   8.928
  641POPC   C2B13220   0.760  22.517   8.456
  641POPC   C3B13221   0.920  22.478   8.007
  641POPC   C4B13222   1.068  22.703   7.638
  642POPC   NC313223  11.673  34.559   9.614
  642POPC   PO413224  12.220  34.747   9.453
  642POPC   GL113225  11.894  34.772   9.151
  642POPC   GL213226  11.795  34.552   8.907
  642POPC   C1A13227  12.061  34.914   8.722
  642POPC   D2A13228  12.230  34.725   8.363
  642POPC   C3A13229  12.081  34.711   7.977
  642POPC   C4A13230  12.096  34.483   7.593
  642POPC   C1B13231  12.175  34.407   8.758
  642POPC   C2B13232  12.225  34.211   8.361
  642POPC   C3B13233  12.450  34.346   8.018
  642POPC   C4B13234  12.567  34.314   7.605
  643POPC   NC313235  43.346  43.305   9.994
  643POPC   PO413236  43.907  43.053   9.656
  643POPC   GL113237  43.845  43.188   9.241
  643POPC   GL213238  43.873  42.868   9.101
  643POPC   C1A13239  44.109  43.252   8.854
  643POPC   D2A13240  43.933  43.268   8.424
  643POPC   C3A13241  43.972  43.145   7.976
  643POPC   C4A13242  44.351  43.261   7.705
  643POPC   C1B13243  43.866  42.839   8.665
  643POPC   C2B13244  43.626  42.773   8.323
  643POPC   C3B13245  43.540  42.824   7.894
  643POPC   C4B13246  43.542  42.709   7.448
  644POPC   NC313247  24.446  26.569   9.427
  644POPC   PO413248  24.965  26.991   9.248
  644POPC   GL113249  24.510  26.917   9.036
  644POPC   GL213250  24.361  26.563   8.940
  644POPC   C1A13251  24.238  26.946   8.636
  644POPC   D2A13252  24.313  26.746   8.227
  644POPC   C3A13253  24.677  26.881   8.021
  644POPC   C4A13254  24.884  27.218   7.804
  644POPC   C1B13255  24.600  26.448   8.592
  644POPC   C2B13256  24.882  26.340   8.266
  644POPC   C3B13257  24.760  26.376   7.876
  644POPC   C4B13258  24.387  26.549   7.745
  645POPC   NC313259   9.379  21.477   9.573
  645POPC   PO413260   8.782  21.644   9.484
  645POPC   GL113261   8.887  21.321   9.158
  645POPC   GL213262   9.266  21.202   9.132
  645POPC   C1A13263   8.952  21.259   8.711
  645POPC   D2A13264   8.803  21.160   8.286
  645POPC   C3A13265   8.976  21.525   8.084
  645POPC   C4A13266   8.915  21.783   7.741
  645POPC   C1B13267   9.369  20.929   8.788
  645POPC   C2B13268   9.306  21.086   8.340
  645POPC   C3B13269   9.347  21.188   7.912
  645POPC   C4B13270   9.087  21.325   7.602
  646POPC   NC313271  20.250  25.330   9.906
  646POPC   PO413272  19.731  25.430   9.488
  646POPC   GL113273  19.848  25.579   9.113
  646POPC   GL213274  20.202  25.581   9.196
  646POPC   C1A13275  19.812  25.591   8.667
  646POPC   D2A13276  19.902  25.403   8.279
  646POPC   C3A13277  19.803  25.539   7.894
  646POPC   C4A13278  19.579  25.345   7.518
  646POPC   C1B13279  20.236  25.339   8.791
  646POPC   C2B13280  20.382  25.273   8.337
  646POPC   C3B13281  20.258  25.253   7.870
  646POPC   C4B13282  20.448  25.153   7.434
  647POPC   NC313283  22.336   7.641   9.447
  647POPC   PO413284  21.979   7.104   9.389
  647POPC   GL113285  22.187   7.278   9.103
  647POPC   GL213286  21.966   7.550   9.097
  647POPC   C1A13287  22.347   7.183   8.683
  647POPC   D2A13288  22.206   7.404   8.299
  647POPC   C3A13289  22.359   7.249   7.906
  647POPC   C4A13290  22.575   7.590   7.725
  647POPC   C1B13291  22.184   7.682   8.764
  647POPC   C2B13292  21.994   7.875   8.444
  647POPC   C3B13293  21.820   7.806   8.088
  647POPC   C4B13294  21.976   7.596   7.756
  648POPC   NC313295  20.261  13.749   9.442
  648POPC   PO413296  19.610  13.954   9.488
  648POPC   GL113297  19.829  14.278   9.243
  648POPC   GL213298  20.142  14.146   9.138
  648POPC   C1A13299  19.869  14.437   8.807
  648POPC   D2A13300  19.689  14.549   8.392
  648POPC   C3A13301  19.697  14.260   8.017
  648POPC   C4A13302  19.617  14.253   7.552
  648POPC   C1B13303  20.220  14.063   8.697
  648POPC   C2B13304  20.159  14.340   8.305
  648POPC   C3B13305  20.161  14.221   7.818
  648POPC   C4B13306  20.093  14.253   7.341
  649POPC   NC313307  36.870   4.012   9.902
  649POPC   PO413308  37.004   3.689   9.415
  649POPC   GL113309  37.053   4.042   9.164
  649POPC   GL213310  36.784   4.265   9.213
  649POPC   C1A13311  37.179   4.435   8.896
  649POPC   D2A13312  37.222   4.639   8.470
  649POPC   C3A13313  37.064   4.360   8.133
  649POPC   C4A13314  36.994   4.275   7.665
  649POPC   C1B13315  36.771   4.165   8.762
  649POPC   C2B13316  36.614   4.274   8.350
  649POPC   C3B13317  36.667   4.014   7.971
  649POPC   C4B13318  36.685   3.897   7.522
  650POPC   NC313319   9.422  39.773   9.325
  650POPC   PO413320   8.955  40.116   9.724
  650POPC   GL113321   8.876  40.023   9.267
  650POPC   GL213322   9.160  40.100   9.080
  650POPC   C1A13323   8.783  39.951   8.789
  650POPC   D2A13324   9.047  39.854   8.394
  650POPC   C3A13325   8.857  39.854   7.959
  650POPC   C4A13326   8.602  40.147   7.710
  650POPC   C1B13327   9.410  40.172   8.729
  650POPC   C2B13328   9.339  40.408   8.381
  650POPC   C3B13329   9.270  40.190   7.996
  650POPC   C4B13330   9.086  40.157   7.596
  651POPC   NC313331   5.750  38.780   9.419
  651POPC   PO413332   6.052  38.126   9.492
  651POPC   GL113333   5.885  38.348   9.178
  651POPC   GL213334   5.542  38.306   9.249
  651POPC   C1A13335   6.003  38.602   8.825
  651POPC   D2A13336   5.968  38.644   8.392
  651POPC   C3A13337   6.286  38.406   8.153
  651POPC   C4A13338   6.290  38.277   7.706
  651POPC   C1B13339   5.507  38.193   8.842
  651POPC   C2B13340   5.656  38.200   8.441
  651POPC   C3B13341   5.604  38.426   8.105
  651POPC   C4B13342   5.527  38.357   7.693
  652POPC   NC313343  35.818  11.677   9.295
  652POPC   PO413344  36.282  12.067   9.682
  652POPC   GL113345  36.170  12.081   9.222
  652POPC   GL213346  36.351  12.362   9.082
  652POPC   C1A13347  36.260  11.818   8.816
  652POPC   D2A13348  36.009  11.675   8.469
  652POPC   C3A13349  35.997  11.818   8.064
  652POPC   C4A13350  36.272  11.807   7.769
  652POPC   C1B13351  36.367  12.271   8.656
  652POPC   C2B13352  36.401  12.049   8.298
  652POPC   C3B13353  36.312  12.278   7.926
  652POPC   C4B13354  36.356  12.223   7.501
  653POPC   NC313355  11.018  13.396   9.437
  653POPC   PO413356  11.403  13.886   9.533
  653POPC   GL113357  11.215  13.803   9.135
  653POPC   GL213358  11.347  13.482   9.076
  653POPC   C1A13359  11.127  13.719   8.689
  653POPC   D2A13360  11.212  13.922   8.334
  653POPC   C3A13361  11.210  13.660   7.979
  653POPC   C4A13362  11.192  14.011   7.704
  653POPC   C1B13363  11.510  13.294   8.740
  653POPC   C2B13364  11.545  13.504   8.381
  653POPC   C3B13365  11.619  13.271   8.037
  653POPC   C4B13366  11.380  13.140   7.716
  654POPC   NC313367   4.128   0.834   9.637
  654POPC   PO413368   4.187   1.514   9.626
  654POPC   GL113369   4.338   1.507   9.217
  654POPC   GL213370   4.435   1.178   9.187
  654POPC   C1A13371   4.244   1.525   8.801
  654POPC   D2A13372   4.413   1.351   8.440
  654POPC   C3A13373   4.213   1.455   8.065
  654POPC   C4A13374   4.403   1.422   7.715
  654POPC   C1B13375   4.164   1.002   8.863
  654POPC   C2B13376   4.221   0.872   8.427
  654POPC   C3B13377   4.308   0.948   7.999
  654POPC   C4B13378   4.042   1.057   7.654
  655POPC   NC313379  34.843  27.777   9.550
  655POPC   PO413380  34.495  27.169   9.616
  655POPC   GL113381  34.370  27.506   9.274
  655POPC   GL213382  34.487  27.844   9.163
  655POPC   C1A13383  34.286  27.511   8.831
  655POPC   D2A13384  34.482  27.390   8.451
  655POPC   C3A13385  34.215  27.329   8.132
  655POPC   C4A13386  34.251  27.506   7.756
  655POPC   C1B13387  34.803  27.720   8.883
  655POPC   C2B13388  34.866  27.728   8.458
  655POPC   C3B13389  34.624  27.787   8.090
  655POPC   C4B13390  34.671  27.753   7.666
  656POPC   NC313391  16.077  13.176   9.628
  656POPC   PO413392  16.470  12.628   9.413
  656POPC   GL113393  16.178  12.693   9.096
  656POPC   GL213394  16.023  13.007   9.115
  656POPC   C1A13395  15.973  12.702   8.698
  656POPC   D2A13396  15.784  12.971   8.400
  656POPC   C3A13397  15.922  12.794   8.037
  656POPC   C4A13398  16.007  12.764   7.631
  656POPC   C1B13399  16.156  13.180   8.694
  656POPC   C2B13400  16.236  13.399   8.303
  656POPC   C3B13401  16.298  13.234   7.908
  656POPC   C4B13402  16.063  13.284   7.555
  657POPC   NC313403  41.706  26.538   9.741
  657POPC   PO413404  41.406  27.081   9.577
  657POPC   GL113405  41.464  27.103   9.150
  657POPC   GL213406  41.205  26.855   9.134
  657POPC   C1A13407  41.676  27.066   8.737
  657POPC   D2A13408  41.568  26.888   8.331
  657POPC   C3A13409  41.864  26.772   8.014
  657POPC   C4A13410  41.857  26.673   7.549
  657POPC   C1B13411  41.403  26.610   8.811
  657POPC   C2B13412  41.444  26.384   8.423
  657POPC   C3B13413  41.402  26.527   7.992
  657POPC   C4B13414  41.449  26.919   7.778
  658POPC   NC313415  15.003  33.046   9.617
  658POPC   PO413416  15.036  33.732   9.397
  658POPC   GL113417  15.062  33.750   8.995
  658POPC   GL213418  15.322  33.961   8.879
  658POPC   C1A13419  14.843  33.891   8.634
  658POPC   D2A13420  14.886  34.059   8.229
  658POPC   C3A13421  14.979  33.790   7.923
  658POPC   C4A13422  15.360  33.878   7.724
  658POPC   C1B13423  15.430  33.511   8.713
  658POPC   C2B13424  15.502  33.247   8.351
  658POPC   C3B13425  15.429  33.460   7.990
  658POPC   C4B13426  15.562  33.441   7.560
  659POPC   NC313427  42.033  43.200   9.352
  659POPC   PO413428  42.677  43.351   9.344
  659POPC   GL113429  42.586  43.054   9.039
  659POPC   GL213430  42.273  42.950   9.005
  659POPC   C1A13431  42.541  43.068   8.590
  659POPC   D2A13432  42.270  43.229   8.281
  659POPC   C3A13433  42.546  43.257   7.918
  659POPC   C4A13434  42.716  42.940   7.589
  659POPC   C1B13435  42.021  42.935   8.648
  659POPC   C2B13436  41.975  42.766   8.270
  659POPC   C3B13437  42.270  42.837   7.965
  659POPC   C4B13438  42.214  43.021   7.538
  660POPC   NC313439  43.622  23.559   9.532
  660POPC   PO413440  44.036  24.030   9.581
  660POPC   GL113441  44.123  23.793   9.229
  660POPC   GL213442  43.787  23.786   9.114
  660POPC   C1A13443  44.151  23.668   8.777
  660POPC   D2A13444  44.320  23.832   8.396
  660POPC   C3A13445  44.014  23.811   8.113
  660POPC   C4A13446  43.850  23.854   7.704
  660POPC   C1B13447  43.530  23.771   8.764
  660POPC   C2B13448  43.342  23.621   8.425
  660POPC   C3B13449  43.508  23.737   8.064
  660POPC   C4B13450  43.346  23.948   7.717
  661POPC   NC313451   3.778  19.439   9.357
  661POPC   PO413452   3.472  18.907   9.503
  661POPC   GL113453   3.476  19.093   9.130
  661POPC   GL213454   3.775  18.981   9.063
  661POPC   C1A13455   3.368  18.989   8.725
  661POPC   D2A13456   3.338  19.174   8.321
  661POPC   C3A13457   3.327  18.976   7.901
  661POPC   C4A13458   3.619  19.037   7.556
  661POPC   C1B13459   3.865  18.803   8.679
  661POPC   C2B13460   4.001  18.823   8.269
  661POPC   C3B13461   3.814  19.119   8.026
  661POPC   C4B13462   3.898  19.450   7.730
  662POPC   NC313463  40.168  14.796   9.486
  662POPC   PO413464  40.064  15.450   9.588
  662POPC   GL113465  39.946  15.193   9.222
  662POPC   GL213466  39.674  15.362   9.131
  662POPC   C1A13467  40.039  14.901   8.851
  662POPC   D2A13468  40.102  15.037   8.417
  662POPC   C3A13469  40.070  14.843   8.001
  662POPC   C4A13470  40.153  14.981   7.599
  662POPC   C1B13471  39.622  15.175   8.772
  662POPC   C2B13472  39.544  15.258   8.390
  662POPC   C3B13473  39.801  15.275   8.053
  662POPC   C4B13474  39.754  15.253   7.659
  663POPC   NC313475  19.003   2.180   9.419
  663POPC   PO413476  19.445   1.674   9.663
  663POPC   GL113477  19.231   1.734   9.185
  663POPC   GL213478  18.876   1.761   9.038
  663POPC   C1A13479  19.246   1.768   8.701
  663POPC   D2A13480  19.157   2.051   8.336
  663POPC   C3A13481  19.264   1.957   7.907
  663POPC   C4A13482  18.964   1.780   7.614
  663POPC   C1B13483  18.834   2.150   8.751
  663POPC   C2B13484  18.745   2.378   8.336
  663POPC   C3B13485  18.811   2.194   7.899
  663POPC   C4B13486  18.859   2.206   7.401
  664POPC   NC313487  36.570   3.852   9.445
  664POPC   PO413488  35.960   3.590   9.393
  664POPC   GL113489  36.212   3.644   9.061
  664POPC   GL213490  36.330   3.991   9.018
  664POPC   C1A13491  35.998   3.635   8.662
  664POPC   D2A13492  35.957   3.745   8.238
  664POPC   C3A13493  36.002   3.367   8.033
  664POPC   C4A13494  36.151   3.217   7.659
  664POPC   C1B13495  36.487   3.757   8.648
  664POPC   C2B13496  36.499   3.432   8.349
  664POPC   C3B13497  36.484   3.509   7.912
  664POPC   C4B13498  36.228   3.811   7.775
  665POPC   NC313499  39.081  43.875   9.671
  665POPC   PO413500  39.647  43.980   9.475
  665POPC   GL113501  39.343  43.839   9.199
  665POPC   GL213502  39.050  44.026   9.186
  665POPC   C1A13503  39.315  43.734   8.770
  665POPC   D2A13504  39.437  43.630   8.350
  665POPC   C3A13505  39.236  43.715   7.969
  665POPC   C4A13506  39.204  43.746   7.516
  665POPC   C1B13507  38.861  43.991   8.801
  665POPC   C2B13508  38.987  43.903   8.395
  665POPC   C3B13509  38.723  43.782   8.065
  665POPC   C4B13510  38.724  43.931   7.656
  666POPC   NC313511  18.836  24.646   9.583
  666POPC   PO413512  19.436  24.596   9.418
  666POPC   GL113513  19.090  24.733   9.135
  666POPC   GL213514  18.844  24.457   9.105
  666POPC   C1A13515  19.053  24.666   8.683
  666POPC   D2A13516  19.098  24.876   8.284
  666POPC   C3A13517  19.046  24.583   7.969
  666POPC   C4A13518  18.707  24.411   7.765
  666POPC   C1B13519  18.736  24.254   8.685
  666POPC   C2B13520  18.794  24.172   8.216
  666POPC   C3B13521  19.023  24.013   7.827
  666POPC   C4B13522  19.198  23.859   7.406
  667POPC   NC313523  44.111  25.726   9.479
  667POPC   PO413524  44.003  26.373   9.477
  667POPC   GL113525  44.035  26.209   9.069
  667POPC   GL213526  43.843  25.890   9.072
  667POPC   C1A13527  43.997  26.329   8.636
  667POPC   D2A13528  43.833  26.481   8.229
  667POPC   C3A13529  44.143  26.335   7.946
  667POPC   C4A13530  44.303  25.891   7.823
  667POPC   C1B13531  43.890  25.740   8.666
  667POPC   C2B13532  44.036  25.932   8.287
  667POPC   C3B13533  43.813  25.927   7.925
  667POPC   C4B13534  43.420  25.804   7.946
  668POPC   NC313535  31.949  14.562   9.705
  668POPC   PO413536  31.411  14.314   9.481
  668POPC   GL113537  31.760  14.296   9.211
  668POPC   GL213538  31.487  14.418   8.983
  668POPC   C1A13539  31.864  14.160   8.802
  668POPC   D2A13540  31.487  14.132   8.541
  668POPC   C3A13541  31.393  14.066   8.090
  668POPC   C4A13542  31.399  14.232   7.652
  668POPC   C1B13543  31.350  14.749   8.731
  668POPC   C2B13544  31.608  14.751   8.409
  668POPC   C3B13545  31.569  14.579   8.023
  668POPC   C4B13546  31.348  14.756   7.678
  669POPC   NC313547  41.963   1.870   9.419
  669POPC   PO413548  41.554   2.380   9.542
  669POPC   GL113549  41.609   2.186   9.146
  669POPC   GL213550  41.662   1.828   9.024
  669POPC   C1A13551  41.392   2.159   8.748
  669POPC   D2A13552  41.490   1.862   8.441
  669POPC   C3A13553  41.535   2.092   8.088
  669POPC   C4A13554  41.326   2.060   7.707
  669POPC   C1B13555  41.766   1.521   8.728
  669POPC   C2B13556  41.725   1.379   8.307
  669POPC   C3B13557  41.554   1.612   7.972
  669POPC   C4B13558  41.809   1.857   7.700
  670POPC   NC313559  32.424  13.749   9.474
  670POPC   PO413560  31.845  13.415   9.422
  670POPC   GL113561  32.058  13.616   9.129
  670POPC   GL213562  32.346  13.401   9.107
  670POPC   C1A13563  32.227  13.750   8.756
  670POPC   D2A13564  32.605  13.805   8.570
  670POPC   C3A13565  32.399  13.900   8.193
  670POPC   C4A13566  32.224  13.821   7.786
  670POPC   C1B13567  32.516  13.318   8.760
  670POPC   C2B13568  32.412  13.384   8.336
  670POPC   C3B13569  32.498  13.401   7.908
  670POPC   C4B13570  32.273  13.314   7.587
  671POPC   NC313571  39.119  21.605   9.579
  671POPC   PO413572  39.329  20.987   9.412
  671POPC   GL113573  39.271  21.274   9.031
  671POPC   GL213574  38.986  21.493   9.098
  671POPC   C1A13575  39.160  21.428   8.609
  671POPC   D2A13576  39.437  21.544   8.248
  671POPC   C3A13577  39.506  21.303   7.848
  671POPC   C4A13578  39.571  21.586   7.435
  671POPC   C1B13579  38.860  21.049   8.920
  671POPC   C2B13580  38.864  21.024   8.484
  671POPC   C3B13581  39.009  21.273   8.112
  671POPC   C4B13582  39.014  21.139   7.696
  672POPC   NC313583   3.963  37.934   9.933
  672POPC   PO413584   4.089  37.576   9.394
  672POPC   GL113585   4.289  37.791   9.066
  672POPC   GL213586   4.637  37.831   9.146
  672POPC   C1A13587   4.402  37.734   8.631
  672POPC   D2A13588   4.346  37.440   8.277
  672POPC   C3A13589   4.072  37.611   7.932
  672POPC   C4A13590   4.164  37.991   7.783
  672POPC   C1B13591   4.845  37.568   8.820
  672POPC   C2B13592   4.772  37.222   8.530
  672POPC   C3B13593   4.734  37.157   8.066
  672POPC   C4B13594   4.458  37.371   7.722
  673POPC   NC313595  40.054  18.827   9.373
  673POPC   PO413596  39.899  19.457   9.535
  673POPC   GL113597  40.165  19.302   9.200
  673POPC   GL213598  39.855  19.179   9.056
  673POPC   C1A13599  40.266  19.153   8.778
  673POPC   D2A13600  40.000  19.302   8.422
  673POPC   C3A13601  39.991  19.135   8.004
  673POPC   C4A13602  39.773  19.100   7.618
  673POPC   C1B13603  39.866  18.846   8.727
  673POPC   C2B13604  39.884  18.704   8.354
  673POPC   C3B13605  39.626  18.771   8.012
  673POPC   C4B13606  39.652  18.623   7.657
  674POPC   NC313607  23.451   9.010   9.490
  674POPC   PO413608  23.985   8.727   9.465
  674POPC   GL113609  23.838   8.687   9.082
  674POPC   GL213610  23.503   8.781   9.037
  674POPC   C1A13611  23.895   8.756   8.662
  674POPC   D2A13612  23.577   8.596   8.403
  674POPC   C3A13613  23.623   8.680   7.959
  674POPC   C4A13614  23.811   8.820   7.540
  674POPC   C1B13615  23.477   9.041   8.657
  674POPC   C2B13616  23.271   8.989   8.253
  674POPC   C3B13617  23.296   9.090   7.815
  674POPC   C4B13618  23.294   8.886   7.434
  675POPC   NC313619  13.481   9.114   9.390
  675POPC   PO413620  12.781   9.142   9.331
  675POPC   GL113621  12.831   8.852   8.991
  675POPC   GL213622  13.154   8.797   9.093
  675POPC   C1A13623  12.863   8.826   8.566
  675POPC   D2A13624  12.633   9.057   8.265
  675POPC   C3A13625  12.745   8.923   7.865
  675POPC   C4A13626  13.105   8.639   7.761
  675POPC   C1B13627  13.279   9.131   8.803
  675POPC   C2B13628  13.322   9.252   8.425
  675POPC   C3B13629  13.174   9.073   8.095
  675POPC   C4B13630  13.177   9.132   7.684
  676POPC   NC313631  11.103  34.557   9.518
  676POPC   PO413632  11.638  34.267   9.267
  676POPC   GL113633  11.318  34.469   9.071
  676POPC   GL213634  11.353  34.804   9.095
  676POPC   C1A13635  11.015  34.571   8.761
  676POPC   D2A13636  11.191  34.743   8.384
  676POPC   C3A13637  11.022  34.525   8.048
  676POPC   C4A13638  11.198  34.445   7.669
  676POPC   C1B13639  11.551  34.960   8.735
  676POPC   C2B13640  11.660  35.039   8.321
  676POPC   C3B13641  11.438  34.932   7.950
  676POPC   C4B13642  11.660  34.717   7.670
  677POPC   NC313643  34.045  27.226   9.560
  677POPC   PO413644  33.587  27.794   9.547
  677POPC   GL113645  33.837  27.605   9.214
  677POPC   GL213646  33.981  27.914   9.114
  677POPC   C1A13647  33.752  27.429   8.779
  677POPC   D2A13648  33.572  27.627   8.389
  677POPC   C3A13649  33.774  27.563   8.000
  677POPC   C4A13650  33.606  27.439   7.637
  677POPC   C1B13651  33.959  27.893   8.650
  677POPC   C2B13652  34.129  27.884   8.223
  677POPC   C3B13653  34.063  27.974   7.774
  677POPC   C4B13654  33.968  27.713   7.393
  678POPC   NC313655  21.924  44.318   9.440
  678POPC   PO413656  22.130  44.950   9.497
  678POPC   GL113657  22.027  44.823   9.141
  678POPC   GL213658  22.234  44.575   9.073
  678POPC   C1A13659  21.799   0.014   8.838
  678POPC   D2A13660  21.674  44.917   8.460
  678POPC   C3A13661  21.849   0.085   8.098
  678POPC   C4A13662  22.066  44.899   7.757
  678POPC   C1B13663  22.156  44.587   8.637
  678POPC   C2B13664  22.166  44.378   8.223
  678POPC   C3B13665  22.171  44.406   7.769
  678POPC   C4B13666  22.106  44.560   7.340
  679POPC   NC313667   2.344  22.188   9.404
  679POPC   PO413668   1.704  21.866   9.577
  679POPC   GL113669   1.932  21.836   9.195
  679POPC   GL213670   2.005  22.154   9.030
  679POPC   C1A13671   1.989  21.746   8.735
  679POPC   D2A13672   1.799  21.963   8.406
  679POPC   C3A13673   1.953  21.860   8.001
  679POPC   C4A13674   1.726  21.891   7.662
  679POPC   C1B13675   2.213  22.213   8.648
  679POPC   C2B13676   2.193  22.245   8.219
  679POPC   C3B13677   2.055  22.345   7.819
  679POPC   C4B13678   2.156  22.636   7.460
  680POPC   NC313679   9.295  38.256   9.373
  680POPC   PO413680   8.689  38.650   9.491
  680POPC   GL113681   8.904  38.545   9.147
  680POPC   GL213682   9.182  38.745   9.141
  680POPC   C1A13683   8.878  38.401   8.719
  680POPC   D2A13684   8.718  38.432   8.296
  680POPC   C3A13685   8.956  38.462   7.947
  680POPC   C4A13686   9.252  38.253   7.711
  680POPC   C1B13687   9.328  38.645   8.796
  680POPC   C2B13688   9.351  38.298   8.534
  680POPC   C3B13689   9.478  38.365   8.136
  680POPC   C4B13690   9.427  38.717   7.852
  681POPC   NC313691  27.173  33.964   9.476
  681POPC   PO413692  27.102  33.301   9.335
  681POPC   GL113693  27.002  33.655   9.108
  681POPC   GL213694  26.735  33.854   9.233
  681POPC   C1A13695  27.032  33.969   8.800
  681POPC   D2A13696  26.884  33.820   8.418
  681POPC   C3A13697  27.110  33.838   8.027
  681POPC   C4A13698  26.955  33.700   7.620
  681POPC   C1B13699  26.548  33.712   8.822
  681POPC   C2B13700  26.538  33.440   8.434
  681POPC   C3B13701  26.623  33.624   8.005
  681POPC   C4B13702  26.465  33.820   7.587
  682POPC   NC313703  29.222   2.359   9.418
  682POPC   PO413704  29.420   3.010   9.429
  682POPC   GL113705  29.342   2.800   9.072
  682POPC   GL213706  29.561   2.545   9.092
  682POPC   C1A13707  29.066   2.576   8.777
  682POPC   D2A13708  28.931   2.387   8.370
  682POPC   C3A13709  29.006   2.641   7.964
  682POPC   C4A13710  28.879   2.556   7.525
  682POPC   C1B13711  29.658   2.629   8.652
  682POPC   C2B13712  29.480   2.544   8.244
  682POPC   C3B13713  29.497   2.883   7.941
  682POPC   C4B13714  29.223   3.042   7.626
  683POPC   NC313715  36.372  42.779   9.513
  683POPC   PO413716  36.363  43.489   9.345
  683POPC   GL113717  36.071  43.341   9.044
  683POPC   GL213718  36.241  43.012   9.060
  683POPC   C1A13719  35.807  43.450   8.645
  683POPC   D2A13720  36.039  43.263   8.266
  683POPC   C3A13721  35.803  42.956   7.972
  683POPC   C4A13722  35.900  42.854   7.508
  683POPC   C1B13723  36.584  42.823   8.795
  683POPC   C2B13724  36.567  42.988   8.345
  683POPC   C3B13725  36.306  42.922   7.959
  683POPC   C4B13726  36.366  42.610   7.627
  684POPC   NC313727  23.364  28.056   9.496
  684POPC   PO413728  22.786  27.882   9.636
  684POPC   GL113729  22.933  27.808   9.189
  684POPC   GL213730  22.657  27.560   9.102
  684POPC   C1A13731  23.026  27.698   8.713
  684POPC   D2A13732  23.231  27.542   8.258
  684POPC   C3A13733  22.956  27.569   7.887
  684POPC   C4A13734  22.898  28.002   7.751
  684POPC   C1B13735  22.739  27.259   8.750
  684POPC   C2B13736  22.875  27.189   8.315
  684POPC   C3B13737  22.723  27.082   7.906
  684POPC   C4B13738  22.539  27.340   7.601
  685POPC   NC313739  17.064   9.195   9.557
  685POPC   PO413740  17.662   8.829   9.711
  685POPC   GL113741  17.428   8.903   9.300
  685POPC   GL213742  17.396   9.266   9.193
  685POPC   C1A13743  17.511   8.917   8.828
  685POPC   D2A13744  17.559   8.712   8.412
  685POPC   C3A13745  17.599   8.885   8.010
  685POPC   C4A13746  17.913   8.640   7.752
  685POPC   C1B13747  17.492   9.440   8.778
  685POPC   C2B13748  17.396   9.218   8.420
  685POPC   C3B13749  17.141   9.151   8.109
  685POPC   C4B13750  17.276   9.278   7.750
  686POPC   NC313751  41.961  21.744   9.571
  686POPC   PO413752  41.913  21.121   9.250
  686POPC   GL113753  41.659  21.374   9.042
  686POPC   GL213754  41.812  21.685   9.093
  686POPC   C1A13755  41.387  21.270   8.688
  686POPC   D2A13756  41.319  21.115   8.285
  686POPC   C3A13757  41.583  21.176   7.952
  686POPC   C4A13758  41.461  21.519   7.742
  686POPC   C1B13759  41.645  21.719   8.679
  686POPC   C2B13760  41.654  21.597   8.261
  686POPC   C3B13761  41.793  21.840   7.935
  686POPC   C4B13762  41.794  21.800   7.483
  687POPC   NC313763  37.778  14.209   9.618
  687POPC   PO413764  37.821  14.676   9.165
  687POPC   GL113765  37.710  14.247   9.084
  687POPC   GL213766  37.490  14.369   8.839
  687POPC   C1A13767  37.759  13.950   8.711
  687POPC   D2A13768  37.536  13.943   8.308
  687POPC   C3A13769  37.694  14.291   8.031
  687POPC   C4A13770  37.941  14.325   7.623
  687POPC   C1B13771  37.308  14.787   8.664
  687POPC   C2B13772  37.398  15.074   8.347
  687POPC   C3B13773  37.288  14.913   7.959
  687POPC   C4B13774  37.527  14.666   7.690
  688POPC   NC313775  42.440  13.136   9.490
  688POPC   PO413776  41.987  12.649   9.588
  688POPC   GL113777  42.234  12.737   9.183
  688POPC   GL213778  42.215  13.082   9.052
  688POPC   C1A13779  42.043  12.733   8.731
  688POPC   D2A13780  42.143  12.556   8.319
  688POPC   C3A13781  42.023  12.748   7.941
  688POPC   C4A13782  42.207  12.754   7.547
  688POPC   C1B13783  42.524  12.954   8.756
  688POPC   C2B13784  42.631  12.784   8.364
  688POPC   C3B13785  42.516  12.891   7.968
  688POPC   C4B13786  42.284  13.247   7.875
  689POPC   NC313787  39.605  21.358   9.383
  689POPC   PO413788  40.091  21.015   9.115
  689POPC   GL113789  39.965  21.422   9.015
  689POPC   GL213790  40.290  21.549   9.147
  689POPC   C1A13791  39.668  21.294   8.683
  689POPC   D2A13792  39.843  20.937   8.445
  689POPC   C3A13793  39.955  21.180   8.115
  689POPC   C4A13794  39.985  21.421   7.727
  689POPC   C1B13795  40.328  21.708   8.723
  689POPC   C2B13796  40.645  21.826   8.423
  689POPC   C3B13797  40.557  21.742   7.983
  689POPC   C4B13798  40.229  21.892   7.730
  690POPC   NC313799  13.161  31.317   9.486
  690POPC   PO413800  12.712  31.735   9.581
  690POPC   GL113801  12.733  31.464   9.235
  690POPC   GL213802  13.009  31.544   9.063
  690POPC   C1A13803  12.612  31.264   8.843
  690POPC   D2A13804  12.441  31.396   8.440
  690POPC   C3A13805  12.717  31.490   8.107
  690POPC   C4A13806  12.763  31.548   7.687
  690POPC   C1B13807  13.159  31.861   8.832
  690POPC   C2B13808  13.058  31.727   8.423
  690POPC   C3B13809  13.025  31.908   8.027
  690POPC   C4B13810  13.182  31.821   7.626
  691POPC   NC313811  13.437  28.066   9.525
  691POPC   PO413812  13.854  28.573   9.485
  691POPC   GL113813  13.672  28.533   9.091
  691POPC   GL213814  13.331  28.413   9.148
  691POPC   C1A13815  13.824  28.436   8.706
  691POPC   D2A13816  13.680  28.280   8.359
  691POPC   C3A13817  13.887  28.474   8.046
  691POPC   C4A13818  13.819  28.363   7.695
  691POPC   C1B13819  13.290  28.328   8.701
  691POPC   C2B13820  13.133  28.160   8.304
  691POPC   C3B13821  13.335  28.347   7.939
  691POPC   C4B13822  13.371  28.448   7.486
  692POPC   NC313823  11.184  24.849   9.402
  692POPC   PO413824  10.982  24.219   9.590
  692POPC   GL113825  11.133  24.235   9.143
  692POPC   GL213826  11.378  24.484   9.107
  692POPC   C1A13827  11.095  24.351   8.692
  692POPC   D2A13828  11.070  24.572   8.284
  692POPC   C3A13829  11.197  24.354   7.886
  692POPC   C4A13830  11.094  24.097   7.511
  692POPC   C1B13831  11.470  24.722   8.707
  692POPC   C2B13832  11.555  24.980   8.348
  692POPC   C3B13833  11.366  24.830   7.951
  692POPC   C4B13834  10.915  24.824   7.777
  693POPC   NC313835  36.616  43.928   9.287
  693POPC   PO413836  37.186  43.637   9.434
  693POPC   GL113837  37.053  43.771   9.032
  693POPC   GL213838  37.257  44.056   9.088
  693POPC   C1A13839  36.765  43.793   8.645
  693POPC   D2A13840  36.527  43.892   8.259
  693POPC   C3A13841  36.721  43.872   7.841
  693POPC   C4A13842  37.043  43.666   7.633
  693POPC   C1B13843  37.093  44.176   8.696
  693POPC   C2B13844  37.030  44.061   8.250
  693POPC   C3B13845  37.090  44.238   7.827
  693POPC   C4B13846  37.412  44.360   7.541
  694POPC   NC313847  21.824  31.149   9.433
  694POPC   PO413848  22.441  31.394   9.659
  694POPC   GL113849  22.367  31.559   9.175
  694POPC   GL213850  22.000  31.578   9.123
  694POPC   C1A13851  22.358  31.447   8.723
  694POPC   D2A13852  22.219  31.260   8.331
  694POPC   C3A13853  22.477  31.331   7.975
  694POPC   C4A13854  22.270  31.585   7.683
  694POPC   C1B13855  21.861  31.290   8.771
  694POPC   C2B13856  21.705  31.336   8.349
  694POPC   C3B13857  21.815  31.375   7.933
  694POPC   C4B13858  22.083  31.066   7.792
  695POPC   NC313859   1.440  29.686   9.349
  695POPC   PO413860   1.056  30.105   9.721
  695POPC   GL113861   1.055  30.229   9.281
  695POPC   GL213862   1.046  29.914   9.147
  695POPC   C1A13863   1.164  30.323   8.820
  695POPC   D2A13864   1.014  30.124   8.421
  695POPC   C3A13865   1.127  30.263   7.982
  695POPC   C4A13866   1.257  30.045   7.579
  695POPC   C1B13867   0.962  29.731   8.771
  695POPC   C2B13868   0.920  29.590   8.362
  695POPC   C3B13869   1.120  29.723   7.981
  695POPC   C4B13870   1.023  29.591   7.579
  696POPC   NC313871  33.143  13.262   9.531
  696POPC   PO413872  33.574  13.735   9.499
  696POPC   GL113873  33.153  13.662   9.223
  696POPC   GL213874  32.785  13.787   9.095
  696POPC   C1A13875  33.023  13.408   8.867
  696POPC   D2A13876  32.917  13.385   8.463
  696POPC   C3A13877  32.875  13.644   8.141
  696POPC   C4A13878  32.970  13.568   7.704
  696POPC   C1B13879  33.095  13.884   8.730
  696POPC   C2B13880  33.239  13.947   8.325
  696POPC   C3B13881  33.165  13.993   7.886
  696POPC   C4B13882  32.724  14.021   7.818
  697POPC   NC313883  14.797  11.740   9.654
  697POPC   PO413884  14.162  11.881   9.572
  697POPC   GL113885  14.223  11.840   9.038
  697POPC   GL213886  14.238  12.158   8.923
  697POPC   C1A13887  14.583  11.888   8.645
  697POPC   D2A13888  14.584  12.298   8.419
  697POPC   C3A13889  14.565  12.274   7.966
  697POPC   C4A13890  14.471  11.864   7.750
  697POPC   C1B13891  14.096  11.938   8.548
  697POPC   C2B13892  14.306  11.699   8.235
  697POPC   C3B13893  14.028  11.630   7.919
  697POPC   C4B13894  13.940  11.924   7.634
  698POPC   NC313895  15.714  30.668   9.423
  698POPC   PO413896  16.202  30.228   9.511
  698POPC   GL113897  16.193  30.516   9.141
  698POPC   GL213898  15.877  30.510   8.946
  698POPC   C1A13899  16.171  30.925   8.870
  698POPC   D2A13900  16.110  31.120   8.462
  698POPC   C3A13901  16.182  30.924   8.057
  698POPC   C4A13902  15.976  30.914   7.674
  698POPC   C1B13903  15.555  30.419   8.616
  698POPC   C2B13904  15.493  30.306   8.185
  698POPC   C3B13905  15.677  30.507   7.824
  698POPC   C4B13906  15.986  30.428   7.482
  699POPC   NC313907  38.947  31.654   9.352
  699POPC   PO413908  39.587  31.363   9.584
  699POPC   GL113909  39.449  31.599   9.275
  699POPC   GL213910  39.404  31.292   9.097
  699POPC   C1A13911  39.452  31.813   8.887
  699POPC   D2A13912  39.644  31.883   8.488
  699POPC   C3A13913  39.425  31.875   8.121
  699POPC   C4A13914  39.284  31.541   7.840
  699POPC   C1B13915  39.245  31.390   8.711
  699POPC   C2B13916  39.229  31.240   8.313
  699POPC   C3B13917  38.946  31.201   8.029
  699POPC   C4B13918  39.076  31.105   7.665
  700POPC   NC313919  43.870  18.526   9.458
  700POPC   PO413920  44.249  18.003   9.556
  700POPC   GL113921  43.901  18.050   9.219
  700POPC   GL213922  43.602  17.894   9.051
  700POPC   C1A13923  43.867  18.256   8.807
  700POPC   D2A13924  43.978  18.152   8.378
  700POPC   C3A13925  43.854  18.459   8.058
  700POPC   C4A13926  44.156  18.370   7.752
  700POPC   C1B13927  43.375  18.139   8.746
  700POPC   C2B13928  43.481  18.220   8.354
  700POPC   C3B13929  43.608  18.026   7.997
  700POPC   C4B13930  43.606  18.254   7.670
  701POPC   NC313931  39.906  11.913   9.515
  701POPC   PO413932  40.204  12.567   9.455
  701POPC   GL113933  39.936  12.269   9.150
  701POPC   GL213934  39.864  11.900   9.019
  701POPC   C1A13935  39.714  12.299   8.751
  701POPC   D2A13936  39.708  12.106   8.319
  701POPC   C3A13937  39.937  12.308   7.955
  701POPC   C4A13938  39.903  12.354   7.493
  701POPC   C1B13939  40.222  11.651   8.891
  701POPC   C2B13940  40.352  11.693   8.447
  701POPC   C3B13941  40.042  11.788   8.091
  701POPC   C4B13942  40.101  11.893   7.652
  702POPC   NC313943  15.948  43.842  10.053
  702POPC   PO413944  16.091  44.317   9.744
  702POPC   GL113945  15.996  43.980   9.395
  702POPC   GL213946  15.669  44.021   9.218
  702POPC   C1A13947  16.029  43.787   8.931
  702POPC   D2A13948  15.816  43.698   8.502
  702POPC   C3A13949  15.994  43.831   8.080
  702POPC   C4A13950  15.982  43.822   7.604
  702POPC   C1B13951  15.688  44.141   8.746
  702POPC   C2B13952  15.703  44.226   8.270
  702POPC   C3B13953  15.740  44.239   7.789
  702POPC   C4B13954  15.635  44.115   7.335
  703POPC   NC313955  29.878   8.989   9.633
  703POPC   PO413956  30.484   8.936   9.777
  703POPC   GL113957  30.246   8.954   9.311
  703POPC   GL213958  29.963   8.712   9.201
  703POPC   C1A13959  30.182   9.046   8.871
  703POPC   D2A13960  29.975   9.147   8.477
  703POPC   C3A13961  30.102   9.024   8.087
  703POPC   C4A13962  29.975   9.188   7.676
  703POPC   C1B13963  29.751   8.752   8.774
  703POPC   C2B13964  29.568   8.850   8.367
  703POPC   C3B13965  29.656   8.831   7.949
  703POPC   C4B13966  29.727   8.787   7.517
  704POPC   NC313967  35.944  34.885   9.258
  704POPC   PO413968  36.350  34.394   9.635
  704POPC   GL113969  36.349  34.446   9.156
  704POPC   GL213970  36.400  34.790   9.078
  704POPC   C1A13971  36.345  34.465   8.683
  704POPC   D2A13972  36.035  34.523   8.343
  704POPC   C3A13973  36.017  34.251   7.986
  704POPC   C4A13974  35.883  34.447   7.628
  704POPC   C1B13975  36.589  34.906   8.703
  704POPC   C2B13976  36.459  34.806   8.283
  704POPC   C3B13977  36.432  34.575   7.914
  704POPC   C4B13978  36.520  34.874   7.594
  705POPC   NC313979  19.438  31.897   9.527
  705POPC   PO413980  19.975  32.304   9.594
  705POPC   GL113981  19.856  32.089   9.219
  705POPC   GL213982  19.555  32.245   9.134
  705POPC   C1A13983  19.988  32.062   8.779
  705POPC   D2A13984  20.038  32.339   8.432
  705POPC   C3A13985  20.020  32.139   8.070
  705POPC   C4A13986  19.674  31.988   7.892
  705POPC   C1B13987  19.651  32.472   8.776
  705POPC   C2B13988  19.531  32.432   8.370
  705POPC   C3B13989  19.695  32.527   8.000
  705POPC   C4B13990  20.094  32.642   7.927
  706POPC   NC313991  30.561   9.305   9.511
  706POPC   PO413992  30.719  10.032   9.527
  706POPC   GL113993  30.872   9.915   9.118
  706POPC   GL213994  30.803   9.551   9.088
  706POPC   C1A13995  30.891   9.802   8.668
  706POPC   D2A13996  30.847   9.466   8.371
  706POPC   C3A13997  30.764   9.731   8.067
  706POPC   C4A13998  30.694   9.772   7.667
  706POPC   C1B13999  30.515   9.444   8.760
  706POPC   C2B14000  30.336   9.482   8.339
  706POPC   C3B14001  30.374   9.425   7.907
  706POPC   C4B14002  30.442   9.358   7.501
  707POPC   NC314003   6.781  14.412   9.524
  707POPC   PO414004   6.657  15.059   9.413
  707POPC   GL114005   6.609  14.626   9.103
  707POPC   GL214006   6.536  14.206   9.150
  707POPC   C1A14007   6.802  14.400   8.747
  707POPC   D2A14008   7.038  14.315   8.341
  707POPC   C3A14009   6.797  14.317   7.941
  707POPC   C4A14010   6.467  14.660   7.901
  707POPC   C1B14011   6.519  13.964   8.789
  707POPC   C2B14012   6.568  14.114   8.379
  707POPC   C3B14013   6.325  14.157   8.033
  707POPC   C4B14014   6.287  14.244   7.644
  708POPC   NC314015  10.985  19.018   9.413
  708POPC   PO414016  11.701  18.876   9.377
  708POPC   GL114017  11.425  19.105   9.121
  708POPC   GL214018  11.200  18.915   8.965
  708POPC   C1A14019  11.508  19.218   8.701
  708POPC   D2A14020  11.570  19.020   8.308
  708POPC   C3A14021  11.777  19.241   8.038
  708POPC   C4A14022  11.719  19.404   7.647
  708POPC   C1B14023  10.999  19.099   8.641
  708POPC   C2B14024  11.055  19.008   8.228
  708POPC   C3B14025  11.187  19.099   7.849
  708POPC   C4B14026  10.860  19.037   7.475
  709POPC   NC314027   5.240   6.250   9.322
  709POPC   PO414028   4.866   5.805   9.527
  709POPC   GL114029   5.089   5.758   9.123
  709POPC   GL214030   5.455   5.669   9.107
  709POPC   C1A14031   5.012   6.011   8.738
  709POPC   D2A14032   4.753   6.248   8.414
  709POPC   C3A14033   4.916   6.075   8.047
  709POPC   C4A14034   4.904   5.630   7.842
  709POPC   C1B14035   5.540   5.853   8.693
  709POPC   C2B14036   5.758   6.045   8.340
  709POPC   C3B14037   5.559   6.105   7.961
  709POPC   C4B14038   5.248   5.991   7.681
  710POPC   NC314039  36.598  25.836   9.336
  710POPC   PO414040  36.260  26.329   9.677
  710POPC   GL114041  36.205  26.160   9.255
  710POPC   GL214042  36.194  26.400   9.091
  710POPC   C1A14043  36.170  25.914   8.845
  710POPC   D2A14044  36.211  25.747   8.425
  710POPC   C3A14045  36.028  25.912   8.087
  710POPC   C4A14046  36.013  25.969   7.670
  710POPC   C1B14047  36.227  26.401   8.679
  710POPC   C2B14048  35.881  26.250   8.439
  710POPC   C3B14049  35.857  26.390   7.991
  710POPC   C4B14050  36.302  26.390   7.809
  711POPC   NC314051  18.388  37.823   9.489
  711POPC   PO414052  18.102  37.222   9.524
  711POPC   GL114053  18.255  37.436   9.131
  711POPC   GL214054  18.054  37.738   9.062
  711POPC   C1A14055  18.405  37.339   8.680
  711POPC   D2A14056  18.594  37.610   8.351
  711POPC   C3A14057  18.396  37.544   7.993
  711POPC   C4A14058  18.481  37.176   7.786
  711POPC   C1B14059  18.170  38.166   8.941
  711POPC   C2B14060  18.414  38.319   8.586
  711POPC   C3B14061  18.494  38.131   8.161
  711POPC   C4B14062  18.334  38.115   7.719
  712POPC   NC314063  10.376  27.233   9.545
  712POPC   PO414064  10.400  27.879   9.452
  712POPC   GL114065  10.537  27.538   9.146
  712POPC   GL214066  10.867  27.517   9.049
  712POPC   C1A14067  10.477  27.366   8.748
  712POPC   D2A14068  10.362  27.646   8.422
  712POPC   C3A14069  10.539  27.719   8.049
  712POPC   C4A14070  10.388  27.402   7.805
  712POPC   C1B14071  10.825  27.720   8.674
  712POPC   C2B14072  10.847  27.442   8.342
  712POPC   C3B14073  11.038  27.563   7.990
  712POPC   C4B14074  10.975  28.008   7.923
  713POPC   NC314075  32.864  31.144   9.540
  713POPC   PO414076  33.154  30.458   9.668
  713POPC   GL114077  33.004  30.537   9.279
  713POPC   GL214078  33.110  30.870   9.214
  713POPC   C1A14079  33.042  30.518   8.832
  713POPC   D2A14080  32.843  30.530   8.414
  713POPC   C3A14081  32.770  30.261   8.064
  713POPC   C4A14082  32.874  30.449   7.669
  713POPC   C1B14083  32.903  31.037   8.851
  713POPC   C2B14084  32.980  31.038   8.418
  713POPC   C3B14085  32.825  30.861   8.016
  713POPC   C4B14086  33.170  30.884   7.720
  714POPC   NC314087  33.411  26.702   9.917
  714POPC   PO414088  32.910  27.061   9.608
  714POPC   GL114089  32.868  26.982   9.175
  714POPC   GL214090  32.988  26.654   9.240
  714POPC   C1A14091  33.072  27.138   8.796
  714POPC   D2A14092  33.315  27.149   8.403
  714POPC   C3A14093  33.219  26.928   7.998
  714POPC   C4A14094  33.180  26.681   7.603
  714POPC   C1B14095  33.010  26.629   8.790
  714POPC   C2B14096  32.955  26.649   8.347
  714POPC   C3B14097  32.834  26.535   7.933
  714POPC   C4B14098  32.676  26.540   7.488
  715POPC   NC314099   6.654  38.240   9.553
  715POPC   PO414100   6.860  38.896   9.559
  715POPC   GL114101   6.709  38.682   9.143
  715POPC   GL214102   6.612  38.304   9.046
  715POPC   C1A14103   6.678  38.656   8.671
  715POPC   D2A14104   6.903  38.787   8.297
  715POPC   C3A14105   6.698  38.643   7.908
  715POPC   C4A14106   6.657  38.557   7.457
  715POPC   C1B14107   6.871  38.175   8.675
  715POPC   C2B14108   6.949  38.267   8.255
  715POPC   C3B14109   6.980  38.144   7.815
  715POPC   C4B14110   6.676  38.020   7.493
  716POPC   NC314111  31.020  42.990   9.585
  716POPC   PO414112  30.327  43.190   9.558
  716POPC   GL114113  30.619  43.193   9.237
  716POPC   GL214114  30.853  43.444   9.323
  716POPC   C1A14115  30.646  43.020   8.832
  716POPC   D2A14116  30.871  43.055   8.451
  716POPC   C3A14117  30.645  42.983   8.065
  716POPC   C4A14118  30.739  42.940   7.639
  716POPC   C1B14119  31.024  43.357   8.900
  716POPC   C2B14120  31.064  43.514   8.446
  716POPC   C3B14121  31.064  43.301   8.011
  716POPC   C4B14122  31.102  43.367   7.554
  717POPC   NC314123   4.918  16.528   9.565
  717POPC   PO414124   5.479  17.021   9.670
  717POPC   GL114125   5.229  16.847   9.290
  717POPC   GL214126   5.206  16.494   9.135
  717POPC   C1A14127   5.259  16.933   8.846
  717POPC   D2A14128   5.136  17.073   8.438
  717POPC   C3A14129   5.171  16.836   8.079
  717POPC   C4A14130   5.053  16.863   7.663
  717POPC   C1B14131   5.166  16.461   8.677
  717POPC   C2B14132   5.401  16.431   8.327
  717POPC   C3B14133   5.170  16.343   8.022
  717POPC   C4B14134   4.979  16.374   7.671
  718POPC   NC314135  37.872  42.534   9.381
  718POPC   PO414136  37.441  42.084   9.704
  718POPC   GL114137  37.482  42.219   9.261
  718POPC   GL214138  37.359  42.555   9.221
  718POPC   C1A14139  37.529  42.314   8.792
  718POPC   D2A14140  37.874  42.426   8.530
  718POPC   C3A14141  37.899  42.428   8.071
  718POPC   C4A14142  38.167  42.443   7.681
  718POPC   C1B14143  37.484  42.822   8.841
  718POPC   C2B14144  37.451  42.696   8.409
  718POPC   C3B14145  37.525  42.799   7.975
  718POPC   C4B14146  37.687  42.601   7.613
  719POPC   NC314147  18.278  31.049   9.417
  719POPC   PO414148  18.233  31.742   9.346
  719POPC   GL114149  18.519  31.453   9.193
  719POPC   GL214150  18.283  31.336   8.995
  719POPC   C1A14151  18.740  31.433   8.809
  719POPC   D2A14152  18.666  31.460   8.339
  719POPC   C3A14153  18.269  31.665   8.134
  719POPC   C4A14154  17.931  31.473   7.890
  719POPC   C1B14155  18.343  31.167   8.609
  719POPC   C2B14156  18.221  31.178   8.218
  719POPC   C3B14157  18.330  31.179   7.810
  719POPC   C4B14158  18.137  30.980   7.467
  720POPC   NC314159  31.159  30.874   9.736
  720POPC   PO414160  31.632  30.459   9.440
  720POPC   GL114161  31.814  30.664   9.090
  720POPC   GL214162  31.885  31.004   9.050
  720POPC   C1A14163  31.717  30.638   8.684
  720POPC   D2A14164  31.826  30.397   8.364
  720POPC   C3A14165  31.769  30.634   8.021
  720POPC   C4A14166  31.455  30.612   7.760
  720POPC   C1B14167  31.498  31.101   8.768
  720POPC   C2B14168  31.262  31.228   8.432
  720POPC   C3B14169  31.268  31.040   8.021
  720POPC   C4B14170  31.342  31.061   7.569
  721POPC   NC314171   9.514  30.203   9.691
  721POPC   PO414172   9.709  30.888   9.543
  721POPC   GL114173   9.603  30.780   9.142
  721POPC   GL214174   9.491  30.455   9.232
  721POPC   C1A14175   9.806  30.865   8.747
  721POPC   D2A14176   9.702  31.066   8.349
  721POPC   C3A14177   9.839  30.883   7.938
  721POPC   C4A14178   9.970  30.745   7.515
  721POPC   C1B14179   9.503  30.376   8.794
  721POPC   C2B14180   9.578  30.560   8.381
  721POPC   C3B14181   9.428  30.584   7.959
  721POPC   C4B14182   9.654  30.383   7.677
  722POPC   NC314183  35.567  31.918   9.523
  722POPC   PO414184  35.707  32.654   9.511
  722POPC   GL114185  35.636  32.364   9.171
  722POPC   GL214186  35.338  32.239   9.184
  722POPC   C1A14187  35.595  32.148   8.752
  722POPC   D2A14188  35.449  31.975   8.346
  722POPC   C3A14189  35.550  32.239   8.039
  722POPC   C4A14190  35.527  32.398   7.651
  722POPC   C1B14191  35.069  32.131   8.898
  722POPC   C2B14192  34.954  32.082   8.500
  722POPC   C3B14193  35.034  32.156   8.080
  722POPC   C4B14194  35.061  32.186   7.632
  723POPC   NC314195  15.818   6.037   9.597
  723POPC   PO414196  16.436   5.751   9.520
  723POPC   GL114197  16.214   5.674   9.121
  723POPC   GL214198  15.897   5.739   9.199
  723POPC   C1A14199  16.293   5.718   8.652
  723POPC   D2A14200  16.239   6.006   8.300
  723POPC   C3A14201  16.054   5.889   7.915
  723POPC   C4A14202  15.799   6.203   7.731
  723POPC   C1B14203  15.713   5.875   8.860
  723POPC   C2B14204  15.769   5.854   8.461
  723POPC   C3B14205  15.580   5.886   8.100
  723POPC   C4B14206  15.493   5.777   7.723
  724POPC   NC314207  20.313  10.500   9.458
  724POPC   PO414208  20.897  10.834   9.388
  724POPC   GL114209  20.570  10.737   9.089
  724POPC   GL214210  20.681  10.388   9.064
  724POPC   C1A14211  20.546  10.839   8.647
  724POPC   D2A14212  20.715  10.501   8.369
  724POPC   C3A14213  20.784  10.650   7.959
  724POPC   C4A14214  20.415  10.725   7.719
  724POPC   C1B14215  20.351  10.394   8.775
  724POPC   C2B14216  20.236  10.240   8.370
  724POPC   C3B14217  20.427  10.283   7.965
  724POPC   C4B14218  20.285  10.215   7.527
  725POPC   NC314219  31.812   3.285   9.369
  725POPC   PO414220  31.274   2.991   9.519
  725POPC   GL114221  31.510   2.965   9.069
  725POPC   GL214222  31.747   3.208   8.873
  725POPC   C1A14223  31.543   2.779   8.628
  725POPC   D2A14224  31.824   2.774   8.240
  725POPC   C3A14225  31.636   2.526   7.917
  725POPC   C4A14226  31.245   2.556   7.656
  725POPC   C1B14227  31.324   3.271   8.721
  725POPC   C2B14228  31.107   3.073   8.422
  725POPC   C3B14229  31.252   2.858   8.079
  725POPC   C4B14230  31.283   3.091   7.698
  726POPC   NC314231  44.306   9.025   9.495
  726POPC   PO414232  43.726   9.311   9.634
  726POPC   GL114233  43.874   9.080   9.247
  726POPC   GL214234  43.792   8.704   9.202
  726POPC   C1A14235  43.961   9.011   8.812
  726POPC   D2A14236  43.608   8.877   8.536
  726POPC   C3A14237  43.741   8.960   8.133
  726POPC   C4A14238  43.911   8.991   7.714
  726POPC   C1B14239  43.882   8.511   8.767
  726POPC   C2B14240  44.050   8.586   8.339
  726POPC   C3B14241  43.829   8.506   7.931
  726POPC   C4B14242  43.458   8.735   7.771
  727POPC   NC314243  37.359  31.803   9.265
  727POPC   PO414244  37.661  32.224   9.684
  727POPC   GL114245  37.681  32.268   9.245
  727POPC   GL214246  37.780  31.988   9.078
  727POPC   C1A14247  37.794  32.450   8.863
  727POPC   D2A14248  37.782  32.427   8.436
  727POPC   C3A14249  37.611  32.698   8.153
  727POPC   C4A14250  37.592  32.705   7.717
  727POPC   C1B14251  37.500  32.072   8.696
  727POPC   C2B14252  37.648  31.942   8.297
  727POPC   C3B14253  37.840  31.951   7.908
  727POPC   C4B14254  37.620  31.850   7.563
  728POPC   NC314255  33.258  28.185   9.514
  728POPC   PO414256  32.847  28.658   9.774
  728POPC   GL114257  32.978  28.687   9.309
  728POPC   GL214258  32.710  28.671   9.074
  728POPC   C1A14259  33.175  28.490   8.888
  728POPC   D2A14260  33.276  28.146   8.546
  728POPC   C3A14261  33.139  28.227   8.099
  728POPC   C4A14262  32.884  28.153   7.725
  728POPC   C1B14263  32.868  28.875   8.674
  728POPC   C2B14264  32.951  28.719   8.244
  728POPC   C3B14265  32.785  28.622   7.817
  728POPC   C4B14266  32.866  28.525   7.338
  729POPC   NC314267   7.758  36.949   9.424
  729POPC   PO414268   8.467  36.831   9.524
  729POPC   GL114269   8.226  36.839   9.145
  729POPC   GL214270   7.964  36.544   9.156
  729POPC   C1A14271   8.250  37.073   8.699
  729POPC   D2A14272   7.980  37.103   8.292
  729POPC   C3A14273   8.297  37.124   7.974
  729POPC   C4A14274   8.236  37.076   7.543
  729POPC   C1B14275   8.059  36.610   8.736
  729POPC   C2B14276   8.285  36.710   8.352
  729POPC   C3B14277   8.209  36.598   7.951
  729POPC   C4B14278   8.467  36.557   7.618
  730POPC   NC314279  34.853  13.815   9.433
  730POPC   PO414280  34.822  14.500   9.710
  730POPC   GL114281  34.607  14.424   9.301
  730POPC   GL214282  34.922  14.310   9.209
  730POPC   C1A14283  34.563  14.307   8.848
  730POPC   D2A14284  34.720  14.170   8.448
  730POPC   C3A14285  34.588  14.456   8.171
  730POPC   C4A14286  34.335  14.451   7.792
  730POPC   C1B14287  35.048  14.093   8.825
  730POPC   C2B14288  35.226  14.013   8.416
  730POPC   C3B14289  34.996  13.980   8.042
  730POPC   C4B14290  34.819  14.292   7.753
  731POPC   NC314291  42.464  13.903   9.411
  731POPC   PO414292  42.078  13.432   9.428
  731POPC   GL114293  42.183  13.614   9.062
  731POPC   GL214294  42.521  13.501   9.081
  731POPC   C1A14295  42.106  13.817   8.652
  731POPC   D2A14296  42.199  13.637   8.227
  731POPC   C3A14297  42.261  13.918   7.844
  731POPC   C4A14298  42.531  13.981   7.435
  731POPC   C1B14299  42.449  13.437   8.641
  731POPC   C2B14300  42.629  13.334   8.230
  731POPC   C3B14301  42.662  13.578   7.819
  731POPC   C4B14302  42.815  13.569   7.373
  732POPC   NC314303  39.624  30.897   9.420
  732POPC   PO414304  39.023  31.198   9.433
  732POPC   GL114305  39.078  30.899   9.123
  732POPC   GL214306  39.203  30.609   9.261
  732POPC   C1A14307  39.172  30.884   8.700
  732POPC   D2A14308  38.985  30.656   8.385
  732POPC   C3A14309  39.143  30.720   8.004
  732POPC   C4A14310  38.869  30.637   7.658
  732POPC   C1B14311  39.150  30.388   8.845
  732POPC   C2B14312  39.122  30.177   8.438
  732POPC   C3B14313  38.982  30.238   8.019
  732POPC   C4B14314  39.253  30.333   7.638
  733POPC   NC314315  24.168  41.186   9.628
  733POPC   PO414316  24.292  41.806   9.533
  733POPC   GL114317  24.404  41.790   9.084
  733POPC   GL214318  24.506  41.457   9.035
  733POPC   C1A14319  24.518  41.892   8.647
  733POPC   D2A14320  24.484  41.636   8.281
  733POPC   C3A14321  24.440  41.757   7.864
  733POPC   C4A14322  24.654  41.797   7.460
  733POPC   C1B14323  24.765  41.400   8.661
  733POPC   C2B14324  24.862  41.290   8.217
  733POPC   C3B14325  24.791  41.387   7.771
  733POPC   C4B14326  24.788  41.321   7.302
  734POPC   NC314327  38.082   1.982   9.798
  734POPC   PO414328  37.531   1.886   9.312
  734POPC   GL114329  37.501   2.126   8.988
  734POPC   GL214330  37.790   2.334   8.911
  734POPC   C1A14331  37.374   1.949   8.593
  734POPC   D2A14332  37.535   2.038   8.213
  734POPC   C3A14333  37.421   1.808   7.857
  734POPC   C4A14334  37.051   1.770   7.606
  734POPC   C1B14335  37.896   1.966   8.693
  734POPC   C2B14336  38.030   1.925   8.289
  734POPC   C3B14337  37.938   2.056   7.888
  734POPC   C4B14338  37.643   2.150   7.560
  735POPC   NC314339  28.063  30.869   9.503
  735POPC   PO414340  28.699  30.517   9.660
  735POPC   GL114341  28.472  30.627   9.231
  735POPC   GL214342  28.119  30.511   9.130
  735POPC   C1A14343  28.476  30.588   8.750
  735POPC   D2A14344  28.620  30.346   8.391
  735POPC   C3A14345  28.560  30.435   7.949
  735POPC   C4A14346  28.680  30.136   7.612
  735POPC   C1B14347  27.972  30.683   8.747
  735POPC   C2B14348  28.163  30.661   8.342
  735POPC   C3B14349  28.023  30.565   7.986
  735POPC   C4B14350  28.106  30.711   7.596
  736POPC   NC314351  35.204  29.092   9.665
  736POPC   PO414352  35.617  29.560   9.468
  736POPC   GL114353  35.387  29.256   9.166
  736POPC   GL214354  35.432  28.895   9.132
  736POPC   C1A14355  35.323  29.229   8.717
  736POPC   D2A14356  35.431  29.359   8.313
  736POPC   C3A14357  35.225  29.348   7.912
  736POPC   C4A14358  35.533  29.320   7.542
  736POPC   C1B14359  35.031  28.846   8.852
  736POPC   C2B14360  35.139  28.842   8.393
  736POPC   C3B14361  35.369  28.855   7.978
  736POPC   C4B14362  35.180  28.976   7.558
  737POPC   NC314363  23.115   7.465   9.430
  737POPC   PO414364  22.489   7.221   9.572
  737POPC   GL114365  22.708   7.164   9.130
  737POPC   GL214366  22.641   7.477   9.019
  737POPC   C1A14367  22.872   7.231   8.654
  737POPC   D2A14368  22.724   7.460   8.261
  737POPC   C3A14369  22.925   7.262   7.919
  737POPC   C4A14370  23.360   7.242   7.910
  737POPC   C1B14371  22.781   7.734   8.701
  737POPC   C2B14372  23.089   7.848   8.367
  737POPC   C3B14373  23.064   7.752   7.946
  737POPC   C4B14374  23.052   7.651   7.509
  738POPC   NC314375  37.337  15.323   9.411
  738POPC   PO414376  37.785  14.861   9.672
  738POPC   GL114377  37.822  15.164   9.241
  738POPC   GL214378  37.666  15.462   9.067
  738POPC   C1A14379  37.742  15.123   8.727
  738POPC   D2A14380  37.800  15.456   8.403
  738POPC   C3A14381  37.905  15.343   7.962
  738POPC   C4A14382  37.933  14.985   7.647
  738POPC   C1B14383  37.328  15.430   8.740
  738POPC   C2B14384  37.325  15.613   8.345
  738POPC   C3B14385  37.395  15.429   7.965
  738POPC   C4B14386  37.528  15.277   7.593
  739POPC   NC314387  12.649  35.707   9.509
  739POPC   PO414388  12.943  36.350   9.538
  739POPC   GL114389  12.987  36.344   9.138
  739POPC   GL214390  12.995  35.978   9.179
  739POPC   C1A14391  12.780  36.392   8.745
  739POPC   D2A14392  12.487  36.174   8.508
  739POPC   C3A14393  12.630  36.318   8.147
  739POPC   C4A14394  12.634  36.370   7.718
  739POPC   C1B14395  12.794  35.882   8.798
  739POPC   C2B14396  12.934  35.927   8.351
  739POPC   C3B14397  12.767  35.888   7.932
  739POPC   C4B14398  12.905  35.913   7.530
  740POPC   NC314399  21.194  10.874   9.748
  740POPC   PO414400  21.458  11.493   9.405
  740POPC   GL114401  21.463  11.524   9.022
  740POPC   GL214402  21.676  11.242   8.995
  740POPC   C1A14403  21.308  11.422   8.636
  740POPC   D2A14404  21.153  11.657   8.317
  740POPC   C3A14405  21.078  11.445   7.926
  740POPC   C4A14406  21.218  11.362   7.487
  740POPC   C1B14407  21.680  11.077   8.579
  740POPC   C2B14408  21.430  11.148   8.205
  740POPC   C3B14409  21.581  11.389   7.867
  740POPC   C4B14410  21.882  11.285   7.525
  741POPC   NC314411  40.414   2.128   9.313
  741POPC   PO414412  39.777   2.130   9.505
  741POPC   GL114413  39.919   2.236   9.097
  741POPC   GL214414  39.595   2.201   8.946
  741POPC   C1A14415  40.130   2.193   8.676
  741POPC   D2A14416  39.948   2.184   8.246
  741POPC   C3A14417  40.250   2.194   7.895
  741POPC   C4A14418  40.233   2.254   7.449
  741POPC   C1B14419  39.723   1.878   8.667
  741POPC   C2B14420  40.063   1.684   8.420
  741POPC   C3B14421  39.986   1.717   7.998
  741POPC   C4B14422  39.778   1.979   7.701
  742POPC   NC314423   0.108   7.470   9.396
  742POPC   PO414424  44.554   7.752   9.676
  742POPC   GL114425  44.499   7.640   9.191
  742POPC   GL214426  44.609   7.312   9.138
  742POPC   C1A14427  44.627   7.615   8.729
  742POPC   D2A14428  44.458   7.478   8.369
  742POPC   C3A14429  44.672   7.491   7.980
  742POPC   C4A14430  44.841   7.159   7.725
  742POPC   C1B14431  44.341   7.161   8.807
  742POPC   C2B14432  44.360   6.982   8.437
  742POPC   C3B14433  44.237   7.140   8.053
  742POPC   C4B14434  44.330   7.083   7.656
  743POPC   NC314435   8.950   8.361   9.504
  743POPC   PO414436   9.135   7.713   9.536
  743POPC   GL114437   9.193   7.990   9.207
  743POPC   GL214438   8.860   7.976   9.138
  743POPC   C1A14439   9.182   7.907   8.758
  743POPC   D2A14440   9.006   7.813   8.352
  743POPC   C3A14441   8.944   8.038   7.969
  743POPC   C4A14442   9.262   8.145   7.670
  743POPC   C1B14443   8.679   8.159   8.786
  743POPC   C2B14444   8.711   8.294   8.382
  743POPC   C3B14445   8.638   8.516   8.004
  743POPC   C4B14446   8.638   8.291   7.616
  744POPC   NC314447  11.861   7.180   9.537
  744POPC   PO414448  12.353   7.580   9.392
  744POPC   GL114449  12.046   7.351   9.072
  744POPC   GL214450  11.770   7.087   9.054
  744POPC   C1A14451  12.191   7.022   8.755
  744POPC   D2A14452  12.406   7.017   8.338
  744POPC   C3A14453  12.399   7.463   8.175
  744POPC   C4A14454  12.131   7.592   7.839
  744POPC   C1B14455  11.695   7.118   8.622
  744POPC   C2B14456  11.938   7.228   8.232
  744POPC   C3B14457  11.896   7.145   7.782
  744POPC   C4B14458  11.807   7.437   7.416
  745POPC   NC314459  32.694  33.778   9.503
  745POPC   PO414460  32.041  33.581   9.356
  745POPC   GL114461  32.325  33.785   9.132
  745POPC   GL214462  32.555  33.523   9.089
  745POPC   C1A14463  32.356  33.922   8.730
  745POPC   D2A14464  32.419  33.801   8.315
  745POPC   C3A14465  32.129  33.980   8.028
  745POPC   C4A14466  32.309  34.136   7.763
  745POPC   C1B14467  32.618  33.451   8.671
  745POPC   C2B14468  32.425  33.257   8.324
  745POPC   C3B14469  32.112  33.468   8.064
  745POPC   C4B14470  32.150  33.632   7.639
  746POPC   NC314471  26.773  29.802   9.630
  746POPC   PO414472  26.203  29.693   9.284
  746POPC   GL114473  26.649  29.772   9.138
  746POPC   GL214474  26.813  30.110   9.197
  746POPC   C1A14475  26.962  29.786   8.820
  746POPC   D2A14476  26.936  29.583   8.436
  746POPC   C3A14477  26.776  29.829   8.113
  746POPC   C4A14478  26.914  29.672   7.735
  746POPC   C1B14479  26.996  30.299   8.799
  746POPC   C2B14480  27.134  30.109   8.400
  746POPC   C3B14481  27.059  30.220   7.970
  746POPC   C4B14482  26.778  30.165   7.675
  747POPC   NC314483  17.976  28.359   9.526
  747POPC   PO414484  18.468  28.617   9.735
  747POPC   GL114485  18.453  28.430   9.318
  747POPC   GL214486  18.767  28.232   9.355
  747POPC   C1A14487  18.262  28.432   8.869
  747POPC   D2A14488  18.046  28.273   8.502
  747POPC   C3A14489  18.252  28.306   8.123
  747POPC   C4A14490  18.035  28.220   7.739
  747POPC   C1B14491  18.762  28.409   8.927
  747POPC   C2B14492  18.665  28.310   8.507
  747POPC   C3B14493  18.728  28.156   8.109
  747POPC   C4B14494  18.510  28.044   7.752
  748POPC   NC314495  32.059   2.018   9.702
  748POPC   PO414496  32.482   2.050   9.239
  748POPC   GL114497  32.180   2.073   8.967
  748POPC   GL214498  31.957   2.209   9.227
  748POPC   C1A14499  32.208   2.023   8.515
  748POPC   D2A14500  32.590   2.079   8.263
  748POPC   C3A14501  32.466   2.038   7.862
  748POPC   C4A14502  32.226   1.699   7.757
  748POPC   C1B14503  31.750   2.325   8.849
  748POPC   C2B14504  31.752   2.301   8.415
  748POPC   C3B14505  31.836   2.035   8.086
  748POPC   C4B14506  31.992   2.140   7.714
  749POPC   NC314507  26.152   1.755   9.666
  749POPC   PO414508  26.256   2.416   9.608
  749POPC   GL114509  26.114   2.078   9.272
  749POPC   GL214510  25.955   1.739   9.197
  749POPC   C1A14511  26.211   2.028   8.847
  749POPC   D2A14512  26.378   2.115   8.459
  749POPC   C3A14513  26.140   2.260   8.108
  749POPC   C4A14514  26.286   2.284   7.660
  749POPC   C1B14515  25.760   1.814   8.789
  749POPC   C2B14516  25.916   1.795   8.379
  749POPC   C3B14517  25.790   1.630   7.980
  749POPC   C4B14518  25.879   1.986   7.722
  750POPC   NC314519  36.097  32.603   9.256
  750POPC   PO414520  36.006  31.951   9.385
  750POPC   GL114521  36.077  32.163   9.016
  750POPC   GL214522  36.433  32.229   9.112
  750POPC   C1A14523  36.127  32.065   8.598
  750POPC   D2A14524  36.282  32.351   8.307
  750POPC   C3A14525  36.037  32.359   7.979
  750POPC   C4A14526  35.999  32.276   7.575
  750POPC   C1B14527  36.591  31.922   8.828
  750POPC   C2B14528  36.596  31.870   8.379
  750POPC   C3B14529  36.382  31.948   7.997
  750POPC   C4B14530  36.327  31.885   7.559
  751POPC   NC314531   5.663  19.694   9.392
  751POPC   PO414532   6.213  20.175   9.501
  751POPC   GL114533   5.989  20.055   9.144
  751POPC   GL214534   6.110  19.704   9.141
  751POPC   C1A14535   5.839  20.074   8.710
  751POPC   D2A14536   5.631  19.764   8.463
  751POPC   C3A14537   5.637  19.679   8.057
  751POPC   C4A14538   5.559  19.536   7.632
  751POPC   C1B14539   6.051  19.572   8.710
  751POPC   C2B14540   6.121  19.666   8.268
  751POPC   C3B14541   6.025  19.463   7.847
  751POPC   C4B14542   6.135  19.536   7.409
  752POPC   NC314543   6.868  18.303   9.533
  752POPC   PO414544   7.590  17.966   9.480
  752POPC   GL114545   7.560  18.180   9.125
  752POPC   GL214546   7.226  18.320   9.068
  752POPC   C1A14547   7.496  18.040   8.732
  752POPC   D2A14548   7.225  18.047   8.413
  752POPC   C3A14549   7.495  18.095   8.105
  752POPC   C4A14550   7.307  18.213   7.748
  752POPC   C1B14551   7.167  18.518   8.655
  752POPC   C2B14552   7.197  18.521   8.193
  752POPC   C3B14553   7.204  18.701   7.792
  752POPC   C4B14554   7.202  18.557   7.374
  753POPC   NC314555  40.179  26.365   9.495
  753POPC   PO414556  39.709  25.862   9.681
  753POPC   GL114557  39.722  25.764   9.205
  753POPC   GL214558  40.085  25.800   9.172
  753POPC   C1A14559  39.804  25.992   8.808
  753POPC   D2A14560  40.012  25.926   8.394
  753POPC   C3A14561  39.753  26.160   8.132
  753POPC   C4A14562  39.651  26.063   7.717
  753POPC   C1B14563  40.322  26.010   8.796
  753POPC   C2B14564  40.511  26.054   8.388
  753POPC   C3B14565  40.423  26.205   7.985
  753POPC   C4B14566  40.072  26.368   7.778
  754POPC   NC314567   8.073  42.273   9.489
  754POPC   PO414568   8.701  42.438   9.435
  754POPC   GL114569   8.476  42.191   9.148
  754POPC   GL214570   8.336  42.500   9.061
  754POPC   C1A14571   8.147  42.103   8.835
  754POPC   D2A14572   8.115  42.382   8.464
  754POPC   C3A14573   7.963  42.268   8.065
  754POPC   C4A14574   7.948  42.321   7.617
  754POPC   C1B14575   8.581  42.400   8.688
  754POPC   C2B14576   8.560  42.546   8.259
  754POPC   C3B14577   8.417  42.406   7.825
  754POPC   C4B14578   8.338  42.539   7.373
  755POPC   NC314579  25.841   7.606   9.387
  755POPC   PO414580  26.197   7.048   9.395
  755POPC   GL114581  26.128   7.180   9.028
  755POPC   GL214582  26.157   7.506   8.975
  755POPC   C1A14583  26.242   7.161   8.597
  755POPC   D2A14584  25.962   7.197   8.238
  755POPC   C3A14585  26.109   7.117   7.833
  755POPC   C4A14586  26.418   7.281   7.578
  755POPC   C1B14587  25.779   7.399   8.690
  755POPC   C2B14588  25.652   7.588   8.268
  755POPC   C3B14589  25.943   7.602   7.876
  755POPC   C4B14590  26.359   7.773   7.681
  756POPC   NC314591  10.850  16.704   9.719
  756POPC   PO414592  10.238  16.391   9.644
  756POPC   GL114593  10.402  16.642   9.232
  756POPC   GL214594  10.159  16.888   9.161
  756POPC   C1A14595  10.572  16.973   8.852
  756POPC   D2A14596  10.783  17.157   8.451
  756POPC   C3A14597  10.820  16.828   8.119
  756POPC   C4A14598  10.658  16.485   7.801
  756POPC   C1B14599  10.147  16.686   8.780
  756POPC   C2B14600  10.049  16.500   8.401
  756POPC   C3B14601  10.114  16.748   8.077
  756POPC   C4B14602  10.397  16.919   7.810
  757POPC   NC314603  42.021   1.220   9.372
  757POPC   PO414604  42.433   0.793   9.646
  757POPC   GL114605  42.340   0.903   9.151
  757POPC   GL214606  42.412   1.269   9.050
  757POPC   C1A14607  42.491   0.959   8.681
  757POPC   D2A14608  42.269   1.134   8.324
  757POPC   C3A14609  42.544   1.153   7.968
  757POPC   C4A14610  42.333   1.138   7.580
  757POPC   C1B14611  42.281   1.487   8.708
  757POPC   C2B14612  42.422   1.622   8.313
  757POPC   C3B14613  42.348   1.613   7.858
  757POPC   C4B14614  42.255   1.630   7.420
  758POPC   NC314615   7.170   9.283   9.327
  758POPC   PO414616   7.705   9.624   9.501
  758POPC   GL114617   7.463   9.722   9.157
  758POPC   GL214618   7.102   9.779   9.151
  758POPC   C1A14619   7.611   9.912   8.790
  758POPC   D2A14620   7.894   9.723   8.481
  758POPC   C3A14621   7.734   9.726   8.091
  758POPC   C4A14622   7.612   9.689   7.683
  758POPC   C1B14623   7.147   9.597   8.754
  758POPC   C2B14624   7.207   9.414   8.384
  758POPC   C3B14625   7.191   9.582   8.011
  758POPC   C4B14626   7.113   9.642   7.573
  759POPC   NC314627  22.126  36.460   9.499
  759POPC   PO414628  22.051  35.812   9.516
  759POPC   GL114629  21.919  36.053   9.175
  759POPC   GL214630  21.691  36.311   9.267
  759POPC   C1A14631  21.858  35.864   8.783
  759POPC   D2A14632  21.792  35.658   8.410
  759POPC   C3A14633  21.927  35.923   8.078
  759POPC   C4A14634  22.335  36.079   7.914
  759POPC   C1B14635  21.668  36.338   8.817
  759POPC   C2B14636  21.666  36.363   8.350
  759POPC   C3B14637  21.937  36.445   7.985
  759POPC   C4B14638  22.307  36.587   7.727
  760POPC   NC314639  17.870  20.061   9.590
  760POPC   PO414640  17.930  19.436   9.562
  760POPC   GL114641  17.711  19.719   9.219
  760POPC   GL214642  17.809  20.028   9.097
  760POPC   C1A14643  17.394  19.817   8.856
  760POPC   D2A14644  17.397  20.018   8.408
  760POPC   C3A14645  17.165  19.957   7.975
  760POPC   C4A14646  16.995  19.908   7.529
  760POPC   C1B14647  17.838  19.979   8.693
  760POPC   C2B14648  17.891  20.155   8.343
  760POPC   C3B14649  17.727  19.974   7.986
  760POPC   C4B14650  17.894  19.775   7.622
  761POPC   NC314651  18.220  43.194   9.640
  761POPC   PO414652  17.880  42.712   9.362
  761POPC   GL114653  17.994  43.142   9.164
  761POPC   GL214654  18.321  43.315   9.158
  761POPC   C1A14655  18.035  43.305   8.706
  761POPC   D2A14656  18.122  43.152   8.257
  761POPC   C3A14657  18.017  43.436   7.916
  761POPC   C4A14658  18.058  43.467   7.468
  761POPC   C1B14659  18.489  43.521   8.783
  761POPC   C2B14660  18.430  43.558   8.326
  761POPC   C3B14661  18.518  43.407   7.878
  761POPC   C4B14662  18.783  43.365   7.481
  762POPC   NC314663  36.832  18.826   9.660
  762POPC   PO414664  37.277  19.268   9.334
  762POPC   GL114665  37.085  19.124   9.008
  762POPC   GL214666  36.764  19.126   9.065
  762POPC   C1A14667  37.169  18.833   8.706
  762POPC   D2A14668  37.421  18.854   8.351
  762POPC   C3A14669  37.203  19.041   8.032
  762POPC   C4A14670  37.070  18.870   7.668
  762POPC   C1B14671  36.710  19.140   8.657
  762POPC   C2B14672  36.599  19.031   8.278
  762POPC   C3B14673  36.698  19.162   7.890
  762POPC   C4B14674  36.571  18.949   7.523
  763POPC   NC314675  30.312  12.997   9.293
  763POPC   PO414676  30.265  13.594   9.478
  763POPC   GL114677  30.100  13.743   9.085
  763POPC   GL214678  29.731  13.774   9.153
  763POPC   C1A14679  30.113  13.869   8.660
  763POPC   D2A14680  30.093  13.555   8.339
  763POPC   C3A14681  29.968  13.683   7.981
  763POPC   C4A14682  30.232  13.751   7.697
  763POPC   C1B14683  29.616  13.989   8.753
  763POPC   C2B14684  29.688  13.988   8.306
  763POPC   C3B14685  29.463  13.771   7.949
  763POPC   C4B14686  29.665  13.635   7.564
  764POPC   NC314687  11.345  15.797   9.444
  764POPC   PO414688  11.257  16.506   9.516
  764POPC   GL114689  11.340  16.238   9.086
  764POPC   GL214690  11.322  15.848   8.951
  764POPC   C1A14691  11.177  16.208   8.638
  764POPC   D2A14692  11.170  15.843   8.340
  764POPC   C3A14693  11.284  15.969   7.945
  764POPC   C4A14694  11.391  15.834   7.538
  764POPC   C1B14695  10.904  15.730   8.768
  764POPC   C2B14696  10.635  15.845   8.402
  764POPC   C3B14697  10.731  15.864   7.973
  764POPC   C4B14698  10.985  15.599   7.720
  765POPC   NC314699  37.150  40.071   9.579
  765POPC   PO414700  37.817  40.022   9.527
  765POPC   GL114701  37.835  39.832   9.107
  765POPC   GL214702  37.532  39.647   9.080
  765POPC   C1A14703  37.863  39.966   8.633
  765POPC   D2A14704  38.017  40.123   8.191
  765POPC   C3A14705  37.815  40.015   7.800
  765POPC   C4A14706  37.580  40.231   7.452
  765POPC   C1B14707  37.458  39.646   8.621
  765POPC   C2B14708  37.505  39.839   8.201
  765POPC   C3B14709  37.378  39.699   7.804
  765POPC   C4B14710  37.196  39.894   7.441
  766POPC   NC314711  40.126  13.061   9.357
  766POPC   PO414712  40.766  12.959   9.611
  766POPC   GL114713  40.893  13.039   9.220
  766POPC   GL214714  40.758  12.733   9.120
  766POPC   C1A14715  40.942  13.071   8.784
  766POPC   D2A14716  40.966  12.859   8.404
  766POPC   C3A14717  41.021  12.990   7.984
  766POPC   C4A14718  41.176  12.718   7.635
  766POPC   C1B14719  40.705  12.527   8.745
  766POPC   C2B14720  40.542  12.567   8.335
  766POPC   C3B14721  40.759  12.548   7.943
  766POPC   C4B14722  40.680  12.821   7.590
  767POPC   NC314723  16.007  29.812   9.414
  767POPC   PO414724  15.523  30.287   9.244
  767POPC   GL114725  15.798  29.983   8.990
  767POPC   GL214726  15.707  29.579   9.084
  767POPC   C1A14727  16.194  30.152   8.758
  767POPC   D2A14728  16.158  30.459   8.388
  767POPC   C3A14729  16.099  30.220   7.946
  767POPC   C4A14730  16.137  29.928   7.552
  767POPC   C1B14731  15.894  29.382   8.729
  767POPC   C2B14732  15.938  29.439   8.270
  767POPC   C3B14733  15.776  29.555   7.859
  767POPC   C4B14734  15.820  29.559   7.396
  768POPC   NC314735  28.951  18.856   9.453
  768POPC   PO414736  29.538  19.209   9.322
  768POPC   GL114737  29.272  18.925   9.062
  768POPC   GL214738  29.011  19.137   9.024
  768POPC   C1A14739  29.013  18.750   8.706
  768POPC   D2A14740  28.909  18.884   8.267
  768POPC   C3A14741  29.234  18.896   7.928
  768POPC   C4A14742  29.184  18.903   7.450
  768POPC   C1B14743  29.028  19.294   8.591
  768POPC   C2B14744  29.154  19.385   8.142
  768POPC   C3B14745  29.001  19.287   7.707
  768POPC   C4B14746  28.801  19.239   7.264
  769POPC   NC314747  31.770  29.906   9.523
  769POPC   PO414748  31.125  29.671   9.579
  769POPC   GL114749  31.366  29.721   9.226
  769POPC   GL214750  31.409  30.083   9.175
  769POPC   C1A14751  31.347  29.751   8.794
  769POPC   D2A14752  31.549  29.582   8.460
  769POPC   C3A14753  31.412  29.644   8.071
  769POPC   C4A14754  31.466  29.650   7.641
  769POPC   C1B14755  31.345  30.270   8.756
  769POPC   C2B14756  31.431  30.073   8.352
  769POPC   C3B14757  31.575  30.115   7.908
  769POPC   C4B14758  31.396  30.158   7.474
  770POPC   NC314759  13.289  11.175   9.515
  770POPC   PO414760  13.973  11.088   9.378
  770POPC   GL114761  13.806  11.284   9.032
  770POPC   GL214762  13.438  11.263   9.028
  770POPC   C1A14763  13.887  10.984   8.696
  770POPC   D2A14764  13.663  10.795   8.405
  770POPC   C3A14765  13.620  11.048   8.085
  770POPC   C4A14766  13.891  11.071   7.726
  770POPC   C1B14767  13.507  11.292   8.577
  770POPC   C2B14768  13.623  11.550   8.235
  770POPC   C3B14769  13.523  11.693   7.808
  770POPC   C4B14770  13.272  11.611   7.384
  771POPC   NC314771  10.744   9.109   9.597
  771POPC   PO414772  10.379   8.613   9.409
  771POPC   GL114773  10.407   9.045   9.190
  771POPC   GL214774  10.723   9.272   9.098
  771POPC   C1A14775  10.318   9.218   8.786
  771POPC   D2A14776  10.358   9.027   8.390
  771POPC   C3A14777  10.040   8.811   8.156
  771POPC   C4A14778  10.090   8.796   7.713
  771POPC   C1B14779  10.887   9.339   8.689
  771POPC   C2B14780  10.867   9.150   8.280
  771POPC   C3B14781  10.586   9.039   7.935
  771POPC   C4B14782  10.379   9.269   7.621
  772POPC   NC314783  22.001  30.371   9.293
  772POPC   PO414784  22.266  31.057   9.258
  772POPC   GL114785  22.349  30.697   9.058
  772POPC   GL214786  22.022  30.742   8.925
  772POPC   C1A14787  22.367  30.577   8.600
  772POPC   D2A14788  22.079  30.739   8.266
  772POPC   C3A14789  22.323  30.630   7.938
  772POPC   C4A14790  22.686  30.367   7.998
  772POPC   C1B14791  21.876  30.412   8.641
  772POPC   C2B14792  21.842  30.147   8.288
  772POPC   C3B14793  21.951  30.267   7.902
  772POPC   C4B14794  21.845  30.620   7.690
  773POPC   NC314795  17.289   2.777   9.393
  773POPC   PO414796  17.895   3.089   9.404
  773POPC   GL114797  17.696   2.890   9.097
  773POPC   GL214798  17.708   2.526   9.203
  773POPC   C1A14799  17.450   3.003   8.738
  773POPC   D2A14800  17.275   2.832   8.363
  773POPC   C3A14801  17.353   2.993   7.998
  773POPC   C4A14802  17.232   2.805   7.621
  773POPC   C1B14803  17.500   2.493   8.774
  773POPC   C2B14804  17.641   2.466   8.339
  773POPC   C3B14805  17.646   2.571   7.875
  773POPC   C4B14806  17.602   2.516   7.429
  774POPC   NC314807  20.763   1.814   9.545
  774POPC   PO414808  20.116   2.049   9.658
  774POPC   GL114809  20.339   1.965   9.237
  774POPC   GL214810  20.353   2.293   9.100
  774POPC   C1A14811  20.643   1.848   8.873
  774POPC   D2A14812  20.754   1.944   8.414
  774POPC   C3A14813  20.660   1.741   8.013
  774POPC   C4A14814  20.480   1.796   7.558
  774POPC   C1B14815  20.582   2.346   8.696
  774POPC   C2B14816  20.620   2.412   8.228
  774POPC   C3B14817  20.678   2.201   7.837
  774POPC   C4B14818  20.779   2.183   7.377
  775POPC   NC314819  35.288  14.542   9.562
  775POPC   PO414820  35.301  13.905   9.401
  775POPC   GL114821  35.415  14.291   9.090
  775POPC   GL214822  35.284  14.671   9.064
  775POPC   C1A14823  35.455  14.422   8.660
  775POPC   D2A14824  35.721  14.342   8.343
  775POPC   C3A14825  35.570  14.337   7.976
  775POPC   C4A14826  35.303  14.173   7.682
  775POPC   C1B14827  34.975  14.579   8.689
  775POPC   C2B14828  35.098  14.480   8.239
  775POPC   C3B14829  35.185  14.637   7.833
  775POPC   C4B14830  35.242  14.909   7.513
  776POPC   NC314831  19.960  25.894   9.536
  776POPC   PO414832  19.315  26.085   9.675
  776POPC   GL114833  19.587  26.012   9.228
  776POPC   GL214834  19.739  26.324   9.144
  776POPC   C1A14835  19.625  26.060   8.722
  776POPC   D2A14836  19.867  25.965   8.317
  776POPC   C3A14837  19.677  26.062   7.921
  776POPC   C4A14838  19.662  25.846   7.501
  776POPC   C1B14839  20.043  26.471   8.844
  776POPC   C2B14840  20.204  26.302   8.491
  776POPC   C3B14841  20.111  26.360   8.068
  776POPC   C4B14842  20.226  26.426   7.662
  777POPC   NC314843  37.434   3.855   9.505
  777POPC   PO414844  37.701   3.274   9.570
  777POPC   GL114845  37.670   3.487   9.167
  777POPC   GL214846  37.367   3.613   9.058
  777POPC   C1A14847  37.766   3.630   8.700
  777POPC   D2A14848  37.843   3.388   8.313
  777POPC   C3A14849  38.014   3.550   7.953
  777POPC   C4A14850  37.763   3.613   7.591
  777POPC   C1B14851  37.347   3.932   8.748
  777POPC   C2B14852  37.458   3.883   8.307
  777POPC   C3B14853  37.242   3.923   7.951
  777POPC   C4B14854  37.309   3.886   7.557
  778POPC   NC314855  16.477   2.863   9.387
  778POPC   PO414856  16.989   2.418   9.499
  778POPC   GL114857  16.873   2.566   9.139
  778POPC   GL214858  16.548   2.552   8.983
  778POPC   C1A14859  16.998   2.724   8.766
  778POPC   D2A14860  16.754   2.750   8.400
  778POPC   C3A14861  16.888   2.707   7.993
  778POPC   C4A14862  16.777   2.573   7.578
  778POPC   C1B14863  16.572   3.015   8.783
  778POPC   C2B14864  16.326   3.202   8.477
  778POPC   C3B14865  16.213   3.140   8.059
  778POPC   C4B14866  16.473   2.960   7.737
  779POPC   NC314867  28.614  42.134   9.662
  779POPC   PO414868  28.085  42.518   9.733
  779POPC   GL114869  28.216  42.320   9.315
  779POPC   GL214870  28.563  42.384   9.222
  779POPC   C1A14871  28.140  42.368   8.827
  779POPC   D2A14872  27.985  42.419   8.354
  779POPC   C3A14873  28.276  42.359   7.953
  779POPC   C4A14874  28.512  42.535   7.577
  779POPC   C1B14875  28.621  42.176   8.827
  779POPC   C2B14876  28.556  42.324   8.396
  779POPC   C3B14877  28.791  42.368   8.001
  779POPC   C4B14878  28.824  42.131   7.626
  780POPC   NC314879  15.554  17.543   9.721
  780POPC   PO414880  16.093  17.828   9.752
  780POPC   GL114881  15.872  17.616   9.318
  780POPC   GL214882  15.647  17.282   9.269
  780POPC   C1A14883  15.747  17.628   8.828
  780POPC   D2A14884  15.810  17.429   8.388
  780POPC   C3A14885  15.968  17.490   7.958
  780POPC   C4A14886  16.040  17.855   7.695
  780POPC   C1B14887  15.671  17.124   8.796
  780POPC   C2B14888  15.657  16.965   8.316
  780POPC   C3B14889  15.654  17.092   7.882
  780POPC   C4B14890  16.028  17.108   7.589
  781POPC   NC314891  27.648  43.879   9.554
  781POPC   PO414892  26.929  43.784   9.325
  781POPC   GL114893  27.293  43.681   9.025
  781POPC   GL214894  27.667  43.759   9.049
  781POPC   C1A14895  27.423  43.643   8.581
  781POPC   D2A14896  27.606  43.999   8.334
  781POPC   C3A14897  27.564  43.991   7.889
  781POPC   C4A14898  27.357  43.721   7.554
  781POPC   C1B14899  27.516  44.121   8.813
  781POPC   C2B14900  27.369  44.427   8.483
  781POPC   C3B14901  27.206  44.402   8.018
  781POPC   C4B14902  27.248  44.244   7.589
  782POPC   NC314903  42.817   6.387   9.507
  782POPC   PO414904  43.131   5.716   9.538
  782POPC   GL114905  43.259   5.732   9.138
  782POPC   GL214906  43.176   6.094   9.160
  782POPC   C1A14907  43.356   5.883   8.710
  782POPC   D2A14908  43.077   5.775   8.365
  782POPC   C3A14909  43.237   5.677   7.922
  782POPC   C4A14910  43.244   5.808   7.467
  782POPC   C1B14911  42.904   6.096   8.791
  782POPC   C2B14912  43.013   6.282   8.388
  782POPC   C3B14913  43.305   6.154   8.091
  782POPC   C4B14914  43.023   6.177   7.746
  783POPC   NC314915  27.410   7.019   9.427
  783POPC   PO414916  27.514   6.293   9.418
  783POPC   GL114917  27.434   6.575   9.125
  783POPC   GL214918  27.774   6.689   9.164
  783POPC   C1A14919  27.217   6.656   8.735
  783POPC   D2A14920  27.343   6.882   8.401
  783POPC   C3A14921  27.508   6.572   8.141
  783POPC   C4A14922  27.348   6.623   7.755
  783POPC   C1B14923  27.698   6.872   8.774
  783POPC   C2B14924  27.854   6.934   8.356
  783POPC   C3B14925  27.731   6.963   7.883
  783POPC   C4B14926  27.995   6.957   7.469
  784POPC   NC314927  14.817   4.215   9.468
  784POPC   PO414928  14.185   4.005   9.448
  784POPC   GL114929  14.372   4.264   9.113
  784POPC   GL214930  14.492   4.608   9.192
  784POPC   C1A14931  14.374   4.135   8.681
  784POPC   D2A14932  14.069   3.878   8.429
  784POPC   C3A14933  14.044   4.027   7.991
  784POPC   C4A14934  14.224   4.258   7.648
  784POPC   C1B14935  14.676   4.726   8.762
  784POPC   C2B14936  14.660   4.454   8.353
  784POPC   C3B14937  14.438   4.599   7.955
  784POPC   C4B14938  14.536   4.758   7.517
  785POPC   NC314939  37.279  17.860   9.330
  785POPC   PO414940  36.665  17.570   9.524
  785POPC   GL114941  36.749  17.498   9.137
  785POPC   GL214942  37.105  17.443   9.096
  785POPC   C1A14943  36.756  17.627   8.748
  785POPC   D2A14944  37.069  17.716   8.450
  785POPC   C3A14945  36.904  17.773   8.044
  785POPC   C4A14946  37.055  17.574   7.706
  785POPC   C1B14947  37.035  17.186   8.772
  785POPC   C2B14948  37.205  17.194   8.389
  785POPC   C3B14949  37.091  17.135   8.001
  785POPC   C4B14950  37.365  17.182   7.683
  786POPC   NC314951  44.892  25.682   9.321
  786POPC   PO414952  44.645  26.170   9.646
  786POPC   GL114953  44.483  26.032   9.243
  786POPC   GL214954  44.759  26.143   9.061
  786POPC   C1A14955  44.381  25.897   8.787
  786POPC   D2A14956  44.534  25.921   8.326
  786POPC   C3A14957  44.775  26.016   7.959
  786POPC   C4A14958  44.609  26.332   7.690
  786POPC   C1B14959  44.896  25.919   8.687
  786POPC   C2B14960   0.078  25.758   8.319
  786POPC   C3B14961   0.204  25.718   7.882
  786POPC   C4B14962   0.062  25.951   7.506
  787POPC   NC314963  11.405  26.619   9.816
  787POPC   PO414964  11.199  25.940   9.581
  787POPC   GL114965  11.227  25.940   9.148
  787POPC   GL214966  11.069  26.208   9.011
  787POPC   C1A14967  11.536  25.859   8.824
  787POPC   D2A14968  11.643  26.008   8.416
  787POPC   C3A14969  11.306  25.955   8.100
  787POPC   C4A14970  11.450  25.986   7.615
  787POPC   C1B14971  11.216  26.239   8.607
  787POPC   C2B14972  10.998  26.344   8.241
  787POPC   C3B14973  11.090  26.303   7.806
  787POPC   C4B14974  11.015  26.201   7.390
  788POPC   NC314975  25.835  29.949   9.315
  788POPC   PO414976  26.364  30.206   9.658
  788POPC   GL114977  26.311  30.135   9.082
  788POPC   GL214978  26.065  29.943   8.866
  788POPC   C1A14979  26.526  29.996   8.698
  788POPC   D2A14980  26.367  29.716   8.415
  788POPC   C3A14981  26.275  29.953   8.059
  788POPC   C4A14982  26.411  29.825   7.655
  788POPC   C1B14983  25.658  30.016   8.687
  788POPC   C2B14984  25.481  30.155   8.316
  788POPC   C3B14985  25.578  30.172   7.894
  788POPC   C4B14986  25.808  29.803   7.758
  789POPC   NC314987  29.167  19.528   9.328
  789POPC   PO414988  29.311  20.120   9.272
  789POPC   GL114989  28.991  19.927   8.989
  789POPC   GL214990  28.826  19.612   8.973
  789POPC   C1A14991  28.966  19.831   8.533
  789POPC   D2A14992  29.026  20.078   8.172
  789POPC   C3A14993  29.341  19.839   7.928
  789POPC   C4A14994  29.454  19.826   7.472
  789POPC   C1B14995  28.576  19.534   8.633
  789POPC   C2B14996  28.667  19.481   8.193
  789POPC   C3B14997  28.833  19.734   7.843
  789POPC   C4B14998  28.964  19.705   7.404
  790POPC   NC314999   2.981  32.238  10.092
  790POPC   PO415000   2.534  32.329   9.575
  790POPC   GL115001   2.741  32.114   9.201
  790POPC   GL215002   2.547  31.831   9.095
  790POPC   C1A15003   2.885  32.316   8.795
  790POPC   D2A15004   2.799  32.510   8.388
  790POPC   C3A15005   2.972  32.293   8.066
  790POPC   C4A15006   2.781  32.382   7.707
  790POPC   C1B15007   2.466  32.011   8.749
  790POPC   C2B15008   2.624  32.030   8.379
  790POPC   C3B15009   2.535  32.009   7.984
  790POPC   C4B15010   2.648  31.894   7.596
  791POPC   NC315011  17.622   6.606   9.383
  791POPC   PO415012  17.185   7.184   9.492
  791POPC   GL115013  17.313   6.907   9.104
  791POPC   GL215014  17.279   6.523   9.039
  791POPC   C1A15015  17.457   6.799   8.663
  791POPC   D2A15016  17.388   6.842   8.255
  791POPC   C3A15017  17.241   6.463   8.043
  791POPC   C4A15018  17.161   6.455   7.613
  791POPC   C1B15019  17.561   6.279   8.791
  791POPC   C2B15020  17.613   6.380   8.389
  791POPC   C3B15021  17.780   6.457   8.021
  791POPC   C4B15022  17.644   6.259   7.677
  792POPC   NC315023  15.476  24.085   9.447
  792POPC   PO415024  15.233  23.444   9.604
  792POPC   GL115025  15.234  23.679   9.208
  792POPC   GL215026  14.962  23.501   9.052
  792POPC   C1A15027  15.323  23.876   8.783
  792POPC   D2A15028  15.453  23.652   8.384
  792POPC   C3A15029  15.280  23.703   7.958
  792POPC   C4A15030  15.434  23.963   7.652
  792POPC   C1B15031  14.983  23.540   8.567
  792POPC   C2B15032  14.888  23.837   8.261
  792POPC   C3B15033  14.766  23.769   7.839
  792POPC   C4B15034  14.871  23.475   7.555
  793POPC   NC315035   1.271  21.829   9.731
  793POPC   PO415036   1.135  21.196   9.550
  793POPC   GL115037   1.191  21.264   9.138
  793POPC   GL215038   1.351  21.586   9.239
  793POPC   C1A15039   1.094  21.221   8.679
  793POPC   D2A15040   1.346  21.272   8.288
  793POPC   C3A15041   1.209  21.197   7.879
  793POPC   C4A15042   0.829  21.042   7.742
  793POPC   C1B15043   1.086  21.691   8.873
  793POPC   C2B15044   1.229  21.741   8.472
  793POPC   C3B15045   1.453  21.743   8.090
  793POPC   C4B15046   1.262  21.680   7.707
  794POPC   NC315047  35.826  27.612   9.466
  794POPC   PO415048  36.477  27.375   9.526
  794POPC   GL115049  36.195  27.475   9.150
  794POPC   GL215050  35.889  27.374   9.037
  794POPC   C1A15051  36.212  27.731   8.792
  794POPC   D2A15052  36.451  27.659   8.444
  794POPC   C3A15053  36.250  27.804   8.103
  794POPC   C4A15054  36.105  27.802   7.699
  794POPC   C1B15055  36.107  27.219   8.712
  794POPC   C2B15056  36.000  27.406   8.368
  794POPC   C3B15057  35.952  27.382   7.979
  794POPC   C4B15058  36.052  27.301   7.590
  795POPC   NC315059   2.440   3.574   9.438
  795POPC   PO415060   1.778   3.643   9.422
  795POPC   GL115061   2.064   3.595   9.044
  795POPC   GL215062   2.350   3.335   8.989
  795POPC   C1A15063   2.004   3.535   8.601
  795POPC   D2A15064   1.773   3.567   8.238
  795POPC   C3A15065   1.965   3.582   7.858
  795POPC   C4A15066   2.212   3.242   7.741
  795POPC   C1B15067   2.495   3.655   8.652
  795POPC   C2B15068   2.322   3.832   8.237
  795POPC   C3B15069   2.388   3.855   7.775
  795POPC   C4B15070   2.334   3.570   7.380
  796POPC   NC315071  37.437  13.315   9.365
  796POPC   PO415072  37.370  13.971   9.481
  796POPC   GL115073  37.537  13.747   9.118
  796POPC   GL215074  37.875  13.587   9.189
  796POPC   C1A15075  37.430  13.529   8.718
  796POPC   D2A15076  37.311  13.303   8.324
  796POPC   C3A15077  37.459  13.544   7.985
  796POPC   C4A15078  37.779  13.837   7.822
  796POPC   C1B15079  37.949  13.478   8.758
  796POPC   C2B15080  37.835  13.442   8.316
  796POPC   C3B15081  37.862  13.270   7.862
  796POPC   C4B15082  37.857  13.488   7.440
  797POPC   NC315083  12.300   5.498   9.529
  797POPC   PO415084  12.256   6.198   9.548
  797POPC   GL115085  12.034   5.889   9.289
  797POPC   GL215086  11.670   5.904   9.284
  797POPC   C1A15087  12.161   5.762   8.879
  797POPC   D2A15088  12.270   6.024   8.536
  797POPC   C3A15089  12.244   5.883   8.121
  797POPC   C4A15090  12.198   5.763   7.684
  797POPC   C1B15091  11.769   6.097   8.850
  797POPC   C2B15092  11.820   6.243   8.403
  797POPC   C3B15093  11.824   6.095   7.966
  797POPC   C4B15094  11.855   6.113   7.513
  798POPC   NC315095  36.851   0.738   9.517
  798POPC   PO415096  36.760   0.055   9.598
  798POPC   GL115097  36.929   0.293   9.222
  798POPC   GL215098  36.650   0.511   9.115
  798POPC   C1A15099  36.984   0.324   8.738
  798POPC   D2A15100  37.175   0.383   8.299
  798POPC   C3A15101  36.951   0.507   7.921
  798POPC   C4A15102  36.863   0.194   7.656
  798POPC   C1B15103  36.649   0.723   8.724
  798POPC   C2B15104  36.642   0.516   8.357
  798POPC   C3B15105  36.419   0.457   8.005
  798POPC   C4B15106  36.475   0.690   7.679
  799POPC   NC315107   2.093  42.729   9.700
  799POPC   PO415108   2.104  42.072   9.447
  799POPC   GL115109   2.111  42.461   9.179
  799POPC   GL215110   2.468  42.537   9.157
  799POPC   C1A15111   1.906  42.567   8.716
  799POPC   D2A15112   1.760  42.632   8.268
  799POPC   C3A15113   1.892  42.342   7.941
  799POPC   C4A15114   1.662  41.949   7.838
  799POPC   C1B15115   2.324  42.292   8.771
  799POPC   C2B15116   2.272  42.447   8.340
  799POPC   C3B15117   2.406  42.450   7.909
  799POPC   C4B15118   2.358  42.257   7.492
  800POPC   NC315119   6.829   0.350   9.444
  800POPC   PO415120   6.241   0.669   9.411
  800POPC   GL115121   6.482   0.497   9.095
  800POPC   GL215122   6.795   0.676   8.984
  800POPC   C1A15123   6.442   0.431   8.683
  800POPC   D2A15124   6.759   0.585   8.424
  800POPC   C3A15125   6.609   0.665   8.007
  800POPC   C4A15126   6.355   0.491   7.675
  800POPC   C1B15127   6.967   0.293   8.807
  800POPC   C2B15128   7.159   0.146   8.442
  800POPC   C3B15129   6.996   0.278   8.090
  800POPC   C4B15130   7.019   0.238   7.719
  801POPC   NC315131  33.178   0.394   9.560
  801POPC   PO415132  32.544   0.563   9.629
  801POPC   GL115133  32.813   0.526   9.221
  801POPC   GL215134  33.047   0.215   9.101
  801POPC   C1A15135  33.051   0.680   8.868
  801POPC   D2A15136  33.145   0.686   8.446
  801POPC   C3A15137  32.953   0.587   8.073
  801POPC   C4A15138  33.042   0.800   7.720
  801POPC   C1B15139  33.309   0.269   8.719
  801POPC   C2B15140  33.313   0.246   8.272
  801POPC   C3B15141  33.349   0.276   7.880
  801POPC   C4B15142  33.024   0.206   7.661
  802POPC   NC315143  12.403   6.404   9.938
  802POPC   PO415144  12.165   6.777   9.477
  802POPC   GL115145  12.077   6.632   9.090
  802POPC   GL215146  12.211   6.306   9.034
  802POPC   C1A15147  11.796   6.613   8.770
  802POPC   D2A15148  11.942   6.750   8.392
  802POPC   C3A15149  11.886   6.670   7.996
  802POPC   C4A15150  12.314   6.800   7.819
  802POPC   C1B15151  12.334   6.522   8.638
  802POPC   C2B15152  12.287   6.422   8.190
  802POPC   C3B15153  12.280   6.279   7.745
  802POPC   C4B15154  12.283   6.235   7.270
  803POPC   NC315155  38.313  26.377   9.623
  803POPC   PO415156  38.618  25.766   9.668
  803POPC   GL115157  38.452  26.002   9.253
  803POPC   GL215158  38.379  26.383   9.126
  803POPC   C1A15159  38.546  26.039   8.796
  803POPC   D2A15160  38.454  26.163   8.372
  803POPC   C3A15161  38.359  25.855   8.066
  803POPC   C4A15162  38.362  25.733   7.639
  803POPC   C1B15163  38.618  26.558   8.774
  803POPC   C2B15164  38.909  26.385   8.458
  803POPC   C3B15165  38.769  26.400   8.031
  803POPC   C4B15166  38.574  26.187   7.694
  804POPC   NC315167  29.312  14.553   9.548
  804POPC   PO415168  29.434  13.922   9.574
  804POPC   GL115169  29.374  14.199   9.186
  804POPC   GL215170  29.025  14.201   9.231
  804POPC   C1A15171  29.113  14.583   8.919
  804POPC   D2A15172  28.851  14.723   8.563
  804POPC   C3A15173  29.023  14.667   8.140
  804POPC   C4A15174  29.004  14.789   7.706
  804POPC   C1B15175  29.096  14.079   8.774
  804POPC   C2B15176  29.168  13.981   8.319
  804POPC   C3B15177  29.050  14.124   7.897
  804POPC   C4B15178  28.727  14.025   7.577
  805POPC   NC315179  38.600   9.482   9.253
  805POPC   PO415180  38.606   8.932   9.660
  805POPC   GL115181  38.667   8.826   9.240
  805POPC   GL215182  38.371   9.042   9.152
  805POPC   C1A15183  38.497   8.705   8.813
  805POPC   D2A15184  38.418   9.010   8.479
  805POPC   C3A15185  38.705   9.036   8.132
  805POPC   C4A15186  38.686   8.671   7.871
  805POPC   C1B15187  38.074   9.253   8.836
  805POPC   C2B15188  37.994   9.298   8.384
  805POPC   C3B15189  38.209   9.150   7.993
  805POPC   C4B15190  38.079   9.075   7.587
  806POPC   NC315191  38.940  14.964   9.463
  806POPC   PO415192  39.237  15.471   9.444
  806POPC   GL115193  39.215  15.165   9.090
  806POPC   GL215194  39.400  14.867   9.198
  806POPC   C1A15195  39.110  15.105   8.651
  806POPC   D2A15196  38.961  15.191   8.223
  806POPC   C3A15197  39.277  15.260   7.951
  806POPC   C4A15198  39.268  15.217   7.530
  806POPC   C1B15199  39.441  14.685   8.790
  806POPC   C2B15200  39.673  14.766   8.410
  806POPC   C3B15201  39.574  14.840   8.004
  806POPC   C4B15202  39.696  14.740   7.613
  807POPC   NC315203  12.797   7.663   9.475
  807POPC   PO415204  13.127   7.049   9.439
  807POPC   GL115205  12.939   7.307   9.104
  807POPC   GL215206  12.986   7.702   9.015
  807POPC   C1A15207  12.783   7.138   8.721
  807POPC   D2A15208  12.900   7.229   8.319
  807POPC   C3A15209  12.781   7.246   7.919
  807POPC   C4A15210  12.661   7.643   7.744
  807POPC   C1B15211  13.163   7.530   8.633
  807POPC   C2B15212  13.336   7.462   8.225
  807POPC   C3B15213  13.186   7.567   7.802
  807POPC   C4B15214  13.068   7.782   7.405
  808POPC   NC315215  16.899   3.697   9.500
  808POPC   PO415216  16.899   3.030   9.352
  808POPC   GL115217  16.596   3.375   9.181
  808POPC   GL215218  16.488   3.769   9.199
  808POPC   C1A15219  16.776   3.518   8.799
  808POPC   D2A15220  16.983   3.229   8.530
  808POPC   C3A15221  16.756   3.191   8.157
  808POPC   C4A15222  16.932   3.180   7.766
  808POPC   C1B15223  16.623   4.017   8.813
  808POPC   C2B15224  16.851   3.930   8.430
  808POPC   C3B15225  16.756   3.888   7.994
  808POPC   C4B15226  16.599   3.878   7.523
  809POPC   NC315227   5.465  19.336   9.800
  809POPC   PO415228   5.160  18.711   9.552
  809POPC   GL115229   5.223  18.897   9.178
  809POPC   GL215230   5.353  19.184   9.334
  809POPC   C1A15231   5.050  18.941   8.747
  809POPC   D2A15232   4.997  19.078   8.306
  809POPC   C3A15233   5.129  18.805   7.993
  809POPC   C4A15234   4.842  18.794   7.671
  809POPC   C1B15235   5.404  19.296   8.915
  809POPC   C2B15236   5.402  19.313   8.477
  809POPC   C3B15237   5.186  19.503   8.123
  809POPC   C4B15238   5.093  19.268   7.750
  810POPC   NC315239  36.178   6.599   9.638
  810POPC   PO415240  35.859   7.110   9.376
  810POPC   GL115241  36.007   6.858   9.074
  810POPC   GL215242  35.958   6.523   9.155
  810POPC   C1A15243  36.001   6.768   8.635
  810POPC   D2A15244  36.277   6.819   8.272
  810POPC   C3A15245  36.053   6.760   7.876
  810POPC   C4A15246  36.174   6.858   7.428
  810POPC   C1B15247  36.266   6.385   8.864
  810POPC   C2B15248  36.390   6.331   8.463
  810POPC   C3B15249  36.303   6.214   8.045
  810POPC   C4B15250  36.323   6.415   7.636
  811POPC   NC315251  12.055  17.720   9.397
  811POPC   PO415252  11.696  17.275   9.384
  811POPC   GL115253  12.052  17.333   9.059
  811POPC   GL215254  12.386  17.538   9.055
  811POPC   C1A15255  12.018  17.372   8.625
  811POPC   D2A15256  11.634  17.502   8.409
  811POPC   C3A15257  11.786  17.348   8.031
  811POPC   C4A15258  12.214  17.193   7.887
  811POPC   C1B15259  12.185  17.833   8.739
  811POPC   C2B15260  12.052  17.779   8.288
  811POPC   C3B15261  12.119  17.717   7.853
  811POPC   C4B15262  12.202  17.925   7.454
  812POPC   NC315263  30.958   4.947   9.282
  812POPC   PO415264  30.647   4.550   9.722
  812POPC   GL115265  30.701   4.448   9.281
  812POPC   GL215266  31.055   4.431   9.179
  812POPC   C1A15267  30.621   4.550   8.840
  812POPC   D2A15268  30.866   4.635   8.455
  812POPC   C3A15269  30.763   4.450   8.045
  812POPC   C4A15270  30.571   4.575   7.661
  812POPC   C1B15271  30.911   4.144   8.872
  812POPC   C2B15272  30.901   4.109   8.442
  812POPC   C3B15273  30.851   3.927   8.048
  812POPC   C4B15274  30.781   4.107   7.641
  813POPC   NC315275  34.688  25.766   9.937
  813POPC   PO415276  34.967  25.496   9.408
  813POPC   GL115277  34.686  25.367   9.094
  813POPC   GL215278  34.967  25.226   8.958
  813POPC   C1A15279  34.431  25.261   8.700
  813POPC   D2A15280  34.289  25.301   8.246
  813POPC   C3A15281  34.504  25.096   7.898
  813POPC   C4A15282  34.685  24.798   7.618
  813POPC   C1B15283  34.867  25.497   8.612
  813POPC   C2B15284  34.803  25.168   8.337
  813POPC   C3B15285  35.019  24.944   8.038
  813POPC   C4B15286  34.983  25.203   7.700
  814POPC   NC315287  41.050   1.464   9.440
  814POPC   PO415288  40.957   0.835   9.431
  814POPC   GL115289  40.929   1.105   9.077
  814POPC   GL215290  40.780   1.483   9.016
  814POPC   C1A15291  40.754   1.099   8.700
  814POPC   D2A15292  40.717   1.425   8.398
  814POPC   C3A15293  40.780   1.181   8.019
  814POPC   C4A15294  40.955   1.114   7.597
  814POPC   C1B15295  40.548   1.808   8.754
  814POPC   C2B15296  40.508   1.998   8.356
  814POPC   C3B15297  40.497   1.728   8.027
  814POPC   C4B15298  40.606   1.494   7.669
  815POPC   NC315299  22.985  42.131   9.502
  815POPC   PO415300  23.219  42.758   9.580
  815POPC   GL115301  23.162  42.523   9.193
  815POPC   GL215302  22.808  42.538   9.169
  815POPC   C1A15303  23.152  42.413   8.734
  815POPC   D2A15304  23.051  42.597   8.318
  815POPC   C3A15305  23.043  42.362   7.936
  815POPC   C4A15306  23.222  42.114   7.593
  815POPC   C1B15307  22.766  42.743   8.748
  815POPC   C2B15308  22.578  42.820   8.342
  815POPC   C3B15309  22.622  42.677   7.922
  815POPC   C4B15310  22.494  42.685   7.450
  816POPC   NC315311   4.214  39.641   9.648
  816POPC   PO415312   4.522  39.015   9.516
  816POPC   GL115313   4.224  39.188   9.215
  816POPC   GL215314   4.034  39.508   9.186
  816POPC   C1A15315   4.415  39.312   8.820
  816POPC   D2A15316   4.556  39.018   8.491
  816POPC   C3A15317   4.505  39.207   8.121
  816POPC   C4A15318   4.359  39.287   7.736
  816POPC   C1B15319   3.924  39.278   8.822
  816POPC   C2B15320   4.071  39.185   8.434
  816POPC   C3B15321   3.948  39.253   8.036
  816POPC   C4B15322   3.849  39.278   7.619
  817POPC   NC315323   6.578  31.536   9.770
  817POPC   PO415324   7.111  31.290   9.573
  817POPC   GL115325   6.763  31.429   9.298
  817POPC   GL215326   6.823  31.762   9.348
  817POPC   C1A15327   6.616  31.459   8.856
  817POPC   D2A15328   6.458  31.375   8.429
  817POPC   C3A15329   6.795  31.432   8.134
  817POPC   C4A15330   6.827  31.575   7.725
  817POPC   C1B15331   6.887  31.890   8.913
  817POPC   C2B15332   6.671  31.864   8.491
  817POPC   C3B15333   6.649  31.941   8.041
  817POPC   C4B15334   6.427  32.000   7.631
  818POPC   NC315335  28.937   6.757   9.517
  818POPC   PO415336  29.351   6.219   9.613
  818POPC   GL115337  29.099   6.339   9.167
  818POPC   GL215338  29.080   6.719   9.036
  818POPC   C1A15339  29.141   6.383   8.663
  818POPC   D2A15340  29.097   6.387   8.184
  818POPC   C3A15341  29.297   6.625   7.818
  818POPC   C4A15342  29.372   6.852   7.399
  818POPC   C1B15343  28.886   7.029   8.756
  818POPC   C2B15344  28.913   7.238   8.350
  818POPC   C3B15345  28.956   7.014   7.949
  818POPC   C4B15346  28.871   6.860   7.525
  819POPC   NC315347  21.632   7.405   9.455
  819POPC   PO415348  21.176   7.876   9.528
  819POPC   GL115349  21.215   7.570   9.160
  819POPC   GL215350  21.137   7.258   9.246
  819POPC   C1A15351  21.468   7.347   8.815
  819POPC   D2A15352  21.712   7.421   8.423
  819POPC   C3A15353  21.578   7.326   7.974
  819POPC   C4A15354  21.571   7.416   7.498
  819POPC   C1B15355  20.995   7.171   8.846
  819POPC   C2B15356  21.089   7.357   8.445
  819POPC   C3B15357  20.869   7.482   8.074
  819POPC   C4B15358  21.108   7.434   7.734
  820POPC   NC315359  22.908   5.549   9.761
  820POPC   PO415360  22.797   4.881   9.710
  820POPC   GL115361  22.776   5.071   9.278
  820POPC   GL215362  22.915   5.362   9.122
  820POPC   C1A15363  22.683   5.016   8.839
  820POPC   D2A15364  22.925   4.868   8.528
  820POPC   C3A15365  22.846   4.951   8.108
  820POPC   C4A15366  22.846   4.851   7.683
  820POPC   C1B15367  23.124   5.374   8.724
  820POPC   C2B15368  23.226   5.250   8.319
  820POPC   C3B15369  23.249   5.383   7.919
  820POPC   C4B15370  23.187   5.202   7.546
  821POPC   NC315371  13.992   2.184   9.445
  821POPC   PO415372  14.601   2.343   9.793
  821POPC   GL115373  14.500   2.245   9.314
  821POPC   GL215374  14.358   1.988   9.124
  821POPC   C1A15375  14.630   2.303   8.850
  821POPC   D2A15376  14.562   2.357   8.387
  821POPC   C3A15377  14.389   2.062   8.094
  821POPC   C4A15378  14.505   1.954   7.694
  821POPC   C1B15379  14.272   1.957   8.693
  821POPC   C2B15380  13.978   1.878   8.394
  821POPC   C3B15381  13.898   1.832   7.983
  821POPC   C4B15382  14.093   1.732   7.566
  822POPC   NC315383  39.446  16.474   9.449
  822POPC   PO415384  38.932  16.968   9.492
  822POPC   GL115385  39.179  16.845   9.157
  822POPC   GL215386  39.479  17.028   9.183
  822POPC   C1A15387  39.144  16.626   8.775
  822POPC   D2A15388  39.333  16.532   8.382
  822POPC   C3A15389  39.104  16.594   7.989
  822POPC   C4A15390  38.923  16.468   7.573
  822POPC   C1B15391  39.585  16.876   8.773
  822POPC   C2B15392  39.733  16.876   8.397
  822POPC   C3B15393  39.506  16.934   8.059
  822POPC   C4B15394  39.387  16.869   7.660
  823POPC   NC315395  39.424   4.248   9.374
  823POPC   PO415396  38.888   4.623   9.646
  823POPC   GL115397  38.946   4.460   9.206
  823POPC   GL215398  39.029   4.105   9.056
  823POPC   C1A15399  39.074   4.531   8.763
  823POPC   D2A15400  39.411   4.561   8.440
  823POPC   C3A15401  39.256   4.496   8.015
  823POPC   C4A15402  39.412   4.552   7.599
  823POPC   C1B15403  39.333   4.069   8.669
  823POPC   C2B15404  39.562   3.835   8.296
  823POPC   C3B15405  39.461   3.983   7.871
  823POPC   C4B15406  38.996   4.044   7.873
  824POPC   NC315407  38.204  18.227   9.428
  824POPC   PO415408  38.699  18.547   9.452
  824POPC   GL115409  38.549  18.390   9.071
  824POPC   GL215410  38.711  18.091   9.024
  824POPC   C1A15411  38.666  18.391   8.629
  824POPC   D2A15412  38.536  18.167   8.253
  824POPC   C3A15413  38.634  18.376   7.886
  824POPC   C4A15414  38.259  18.432   7.623
  824POPC   C1B15415  38.436  17.903   8.701
  824POPC   C2B15416  38.580  17.666   8.338
  824POPC   C3B15417  38.760  17.763   7.965
  824POPC   C4B15418  38.481  17.947   7.656
  825POPC   NC315419   0.850   8.726   9.802
  825POPC   PO415420   0.266   8.670   9.454
  825POPC   GL115421   0.269   8.703   9.046
  825POPC   GL215422   0.399   9.023   9.036
  825POPC   C1A15423   0.446   8.712   8.623
  825POPC   D2A15424   0.635   8.738   8.217
  825POPC   C3A15425   0.423   8.823   7.843
  825POPC   C4A15426   0.386   8.947   7.399
  825POPC   C1B15427   0.516   9.227   8.629
  825POPC   C2B15428   0.409   9.215   8.174
  825POPC   C3B15429   0.393   9.355   7.731
  825POPC   C4B15430   0.149   9.468   7.354
  826POPC   NC315431   5.425   3.423   9.273
  826POPC   PO415432   4.864   3.533   9.526
  826POPC   GL115433   4.946   3.428   9.084
  826POPC   GL215434   4.911   3.094   8.937
  826POPC   C1A15435   5.067   3.589   8.663
  826POPC   D2A15436   4.991   3.423   8.248
  826POPC   C3A15437   5.024   3.687   7.876
  826POPC   C4A15438   5.039   3.582   7.437
  826POPC   C1B15439   5.289   3.128   8.661
  826POPC   C2B15440   5.438   3.178   8.223
  826POPC   C3B15441   5.217   3.214   7.811
  826POPC   C4B15442   5.404   3.233   7.372
  827POPC   NC315443  28.985  39.530   9.997
  827POPC   PO415444  29.263  39.011   9.770
  827POPC   GL115445  29.328  39.156   9.312
  827POPC   GL215446  29.030  39.027   9.106
  827POPC   C1A15447  29.372  39.287   8.856
  827POPC   D2A15448  29.460  39.180   8.406
  827POPC   C3A15449  29.238  38.949   8.080
  827POPC   C4A15450  29.294  38.974   7.604
  827POPC   C1B15451  28.959  39.118   8.622
  827POPC   C2B15452  29.035  39.404   8.239
  827POPC   C3B15453  29.212  39.401   7.826
  827POPC   C4B15454  29.131  39.544   7.417
  828POPC   NC315455  41.434  32.273   9.484
  828POPC   PO415456  42.087  32.310   9.369
  828POPC   GL115457  41.721  32.203   9.048
  828POPC   GL215458  41.369  32.017   9.043
  828POPC   C1A15459  41.444  32.376   8.721
  828POPC   D2A15460  41.409  32.553   8.347
  828POPC   C3A15461  41.715  32.436   8.111
  828POPC   C4A15462  41.693  32.232   7.732
  828POPC   C1B15463  41.545  31.859   8.677
  828POPC   C2B15464  41.523  31.846   8.220
  828POPC   C3B15465  41.291  31.925   7.848
  828POPC   C4B15466  41.388  31.958   7.426
  829POPC   NC315467   6.838  17.131   9.517
  829POPC   PO415468   6.737  17.849   9.462
  829POPC   GL115469   6.757  17.650   9.064
  829POPC   GL215470   6.985  17.362   9.083
  829POPC   C1A15471   6.570  17.706   8.656
  829POPC   D2A15472   6.662  17.845   8.252
  829POPC   C3A15473   6.356  17.658   7.992
  829POPC   C4A15474   6.351  17.447   7.596
  829POPC   C1B15475   6.752  17.234   8.696
  829POPC   C2B15476   6.618  17.315   8.269
  829POPC   C3B15477   6.803  17.403   7.849
  829POPC   C4B15478   6.851  17.115   7.467
  830POPC   NC315479  29.442  44.098   9.516
  830POPC   PO415480  28.819  44.246   9.424
  830POPC   GL115481  29.129  44.086   9.109
  830POPC   GL215482  29.465  43.878   9.048
  830POPC   C1A15483  29.102  44.045   8.691
  830POPC   D2A15484  29.136  44.338   8.356
  830POPC   C3A15485  29.020  44.132   7.999
  830POPC   C4A15486  29.077  44.120   7.571
  830POPC   C1B15487  29.470  43.664   8.679
  830POPC   C2B15488  29.341  43.837   8.277
  830POPC   C3B15489  29.468  43.899   7.847
  830POPC   C4B15490  29.335  43.742   7.440
  831POPC   NC315491  24.940  15.076   9.394
  831POPC   PO415492  24.331  15.260   9.723
  831POPC   GL115493  24.435  15.175   9.327
  831POPC   GL215494  24.458  15.492   9.218
  831POPC   C1A15495  24.546  15.045   8.883
  831POPC   D2A15496  24.647  15.064   8.450
  831POPC   C3A15497  24.539  14.982   8.029
  831POPC   C4A15498  24.397  15.258   7.729
  831POPC   C1B15499  24.523  15.546   8.772
  831POPC   C2B15500  24.473  15.544   8.314
  831POPC   C3B15501  24.782  15.441   8.015
  831POPC   C4B15502  24.918  15.356   7.596
  832POPC   NC315503  18.335  21.261   9.381
  832POPC   PO415504  18.367  21.897   9.539
  832POPC   GL115505  18.360  21.717   9.147
  832POPC   GL215506  18.074  21.486   8.981
  832POPC   C1A15507  18.535  21.622   8.765
  832POPC   D2A15508  18.319  21.354   8.500
  832POPC   C3A15509  18.055  21.457   8.140
  832POPC   C4A15510  18.311  21.530   7.761
  832POPC   C1B15511  17.945  21.091   8.718
  832POPC   C2B15512  18.113  20.946   8.295
  832POPC   C3B15513  18.139  21.014   7.876
  832POPC   C4B15514  17.743  21.132   7.799
  833POPC   NC315515  16.408  36.206   9.484
  833POPC   PO415516  15.808  35.959   9.498
  833POPC   GL115517  16.044  35.952   9.137
  833POPC   GL215518  16.436  35.866   9.101
  833POPC   C1A15519  15.826  35.805   8.772
  833POPC   D2A15520  15.780  36.053   8.412
  833POPC   C3A15521  15.799  35.886   8.017
  833POPC   C4A15522  15.727  36.154   7.680
  833POPC   C1B15523  16.274  36.086   8.707
  833POPC   C2B15524  16.230  36.261   8.284
  833POPC   C3B15525  16.231  36.159   7.866
  833POPC   C4B15526  16.155  36.353   7.469
  834POPC   NC315527  41.571  10.819   9.384
  834POPC   PO415528  41.226  11.401   9.482
  834POPC   GL115529  41.536  11.383   9.131
  834POPC   GL215530  41.784  11.142   9.061
  834POPC   C1A15531  41.621  11.596   8.734
  834POPC   D2A15532  41.657  11.737   8.327
  834POPC   C3A15533  41.429  11.511   7.980
  834POPC   C4A15534  41.539  11.156   7.776
  834POPC   C1B15535  41.531  11.092   8.693
  834POPC   C2B15536  41.656  11.120   8.272
  834POPC   C3B15537  41.962  10.951   7.947
  834POPC   C4B15538  41.800  10.728   7.583
  835POPC   NC315539  11.564   3.301   9.474
  835POPC   PO415540  10.979   3.110   9.502
  835POPC   GL115541  11.134   3.336   9.151
  835POPC   GL215542  11.309   3.671   9.228
  835POPC   C1A15543  11.408   3.337   8.781
  835POPC   D2A15544  11.521   3.256   8.332
  835POPC   C3A15545  11.221   3.392   8.026
  835POPC   C4A15546  11.097   3.375   7.592
  835POPC   C1B15547  11.090   3.750   8.844
  835POPC   C2B15548  11.268   3.747   8.435
  835POPC   C3B15549  11.565   3.765   8.118
  835POPC   C4B15550  11.385   3.808   7.731
  836POPC   NC315551   0.112  28.300   9.610
  836POPC   PO415552   0.752  28.691   9.599
  836POPC   GL115553   0.448  28.508   9.286
  836POPC   GL215554   0.521  28.140   9.325
  836POPC   C1A15555   0.312  28.542   8.847
  836POPC   D2A15556   0.420  28.716   8.448
  836POPC   C3A15557   0.292  28.472   8.087
  836POPC   C4A15558   0.233  28.631   7.639
  836POPC   C1B15559   0.509  28.039   8.895
  836POPC   C2B15560   0.554  28.179   8.498
  836POPC   C3B15561   0.680  28.066   8.104
  836POPC   C4B15562   0.520  28.175   7.740
  837POPC   NC315563  33.847  31.325   9.431
  837POPC   PO415564  34.109  31.899   9.729
  837POPC   GL115565  33.846  31.879   9.290
  837POPC   GL215566  33.588  31.629   9.139
  837POPC   C1A15567  33.899  31.833   8.816
  837POPC   D2A15568  33.619  31.786   8.473
  837POPC   C3A15569  33.753  31.591   8.076
  837POPC   C4A15570  33.772  31.730   7.604
  837POPC   C1B15571  33.744  31.334   8.782
  837POPC   C2B15572  33.635  31.107   8.395
  837POPC   C3B15573  33.566  31.141   7.939
  837POPC   C4B15574  33.946  31.244   7.682
  838POPC   NC315575  38.055  43.246   9.950
  838POPC   PO415576  37.567  42.870   9.544
  838POPC   GL115577  37.699  43.119   9.211
  838POPC   GL215578  38.058  43.056   9.239
  838POPC   C1A15579  37.774  43.283   8.786
  838POPC   D2A15580  37.510  43.205   8.413
  838POPC   C3A15581  37.726  43.263   8.037
  838POPC   C4A15582  37.687  43.108   7.580
  838POPC   C1B15583  38.022  42.844   8.819
  838POPC   C2B15584  38.093  42.860   8.360
  838POPC   C3B15585  38.047  42.902   7.906
  838POPC   C4B15586  38.128  43.311   7.681
  839POPC   NC315587  33.874   3.613   9.432
  839POPC   PO415588  33.562   3.023   9.479
  839POPC   GL115589  33.852   3.175   9.133
  839POPC   GL215590  34.091   3.488   9.005
  839POPC   C1A15591  33.764   3.278   8.707
  839POPC   D2A15592  33.754   3.453   8.316
  839POPC   C3A15593  34.101   3.563   8.114
  839POPC   C4A15594  34.145   3.540   7.681
  839POPC   C1B15595  33.800   3.782   8.759
  839POPC   C2B15596  33.574   3.979   8.423
  839POPC   C3B15597  33.692   3.882   8.016
  839POPC   C4B15598  33.698   3.825   7.604
  840POPC   NC315599  32.083   6.205   9.387
  840POPC   PO415600  31.922   5.515   9.503
  840POPC   GL115601  32.089   5.685   9.137
  840POPC   GL215602  32.393   5.839   9.181
  840POPC   C1A15603  32.165   5.801   8.709
  840POPC   D2A15604  32.389   5.713   8.350
  840POPC   C3A15605  32.220   5.857   7.984
  840POPC   C4A15606  32.403   6.078   7.661
  840POPC   C1B15607  32.442   6.199   8.840
  840POPC   C2B15608  32.342   6.233   8.435
  840POPC   C3B15609  32.607   6.175   8.117
  840POPC   C4B15610  32.810   6.361   7.777
  841POPC   NC315611  22.872   8.412   9.599
  841POPC   PO415612  22.770   7.795   9.378
  841POPC   GL115613  23.006   8.074   9.088
  841POPC   GL215614  23.010   8.458   9.104
  841POPC   C1A15615  22.893   8.218   8.673
  841POPC   D2A15616  22.647   8.086   8.333
  841POPC   C3A15617  22.811   8.198   7.940
  841POPC   C4A15618  22.744   8.035   7.554
  841POPC   C1B15619  23.156   8.636   8.698
  841POPC   C2B15620  23.130   8.429   8.278
  841POPC   C3B15621  23.111   8.625   7.885
  841POPC   C4B15622  22.832   8.897   7.618
  842POPC   NC315623  27.459  17.490   9.474
  842POPC   PO415624  28.097  17.148   9.497
  842POPC   GL115625  27.785  17.295   9.121
  842POPC   GL215626  27.371  17.259   9.044
  842POPC   C1A15627  27.676  17.245   8.658
  842POPC   D2A15628  27.315  17.397   8.424
  842POPC   C3A15629  27.527  17.397   7.995
  842POPC   C4A15630  27.856  17.721   7.845
  842POPC   C1B15631  27.484  17.684   8.845
  842POPC   C2B15632  27.537  17.856   8.434
  842POPC   C3B15633  27.233  17.801   8.113
  842POPC   C4B15634  27.343  17.786   7.713
  843POPC   NC315635  38.079   3.557   9.504
  843POPC   PO415636  38.611   3.190   9.461
  843POPC   GL115637  38.317   3.248   9.088
  843POPC   GL215638  38.160   3.592   9.014
  843POPC   C1A15639  38.224   3.266   8.638
  843POPC   D2A15640  38.308   3.605   8.373
  843POPC   C3A15641  38.560   3.601   8.024
  843POPC   C4A15642  38.432   3.344   7.716
  843POPC   C1B15643  38.481   3.814   8.799
  843POPC   C2B15644  38.463   4.094   8.408
  843POPC   C3B15645  38.355   4.068   7.930
  843POPC   C4B15646  38.229   3.816   7.569
  844POPC   NC315647   0.516  22.031   9.657
  844POPC   PO415648  44.878  22.173   9.684
  844POPC   GL115649   0.157  22.213   9.309
  844POPC   GL215650   0.341  21.912   9.191
  844POPC   C1A15651   0.333  22.388   8.913
  844POPC   D2A15652   0.163  22.416   8.479
  844POPC   C3A15653   0.381  22.486   8.091
  844POPC   C4A15654   0.500  22.296   7.723
  844POPC   C1B15655   0.694  22.016   8.943
  844POPC   C2B15656   0.724  22.015   8.496
  844POPC   C3B15657   0.529  21.956   8.098
  844POPC   C4B15658   0.380  21.747   7.757
  845POPC   NC315659  33.445  30.813   9.622
  845POPC   PO415660  34.039  30.914   9.573
  845POPC   GL115661  33.774  30.829   9.206
  845POPC   GL215662  33.520  30.565   9.174
  845POPC   C1A15663  33.869  30.651   8.797
  845POPC   D2A15664  34.026  30.760   8.412
  845POPC   C3A15665  33.758  30.691   8.065
  845POPC   C4A15666  33.799  30.729   7.637
  845POPC   C1B15667  33.419  30.880   8.825
  845POPC   C2B15668  33.359  30.685   8.435
  845POPC   C3B15669  33.240  30.504   8.066
  845POPC   C4B15670  33.367  30.429   7.656
  846POPC   NC315671  24.101  32.080   9.577
  846POPC   PO415672  24.643  32.329   9.422
  846POPC   GL115673  24.297  32.263   9.150
  846POPC   GL215674  24.055  32.545   9.226
  846POPC   C1A15675  24.381  32.133   8.743
  846POPC   D2A15676  24.721  32.053   8.461
  846POPC   C3A15677  24.526  32.194   8.095
  846POPC   C4A15678  24.180  31.985   7.958
  846POPC   C1B15679  24.222  32.619   8.802
  846POPC   C2B15680  24.123  32.404   8.390
  846POPC   C3B15681  24.141  32.532   7.967
  846POPC   C4B15682  24.426  32.502   7.670
  847POPC   NC315683  18.295   6.857   9.303
  847POPC   PO415684  17.966   6.298   9.492
  847POPC   GL115685  18.188   6.215   9.114
  847POPC   GL215686  18.438   6.447   9.035
  847POPC   C1A15687  18.084   6.308   8.670
  847POPC   D2A15688  18.017   6.690   8.440
  847POPC   C3A15689  18.249   6.681   8.044
  847POPC   C4A15690  18.037   6.729   7.623
  847POPC   C1B15691  18.520   6.608   8.626
  847POPC   C2B15692  18.844   6.827   8.406
  847POPC   C3B15693  18.788   6.996   8.037
  847POPC   C4B15694  18.597   6.833   7.683
  848POPC   NC315695   3.226  31.442   9.487
  848POPC   PO415696   3.794  31.799   9.409
  848POPC   GL115697   3.721  31.376   9.198
  848POPC   GL215698   3.390  31.289   9.043
  848POPC   C1A15699   3.810  31.378   8.766
  848POPC   D2A15700   3.737  31.744   8.524
  848POPC   C3A15701   3.636  31.641   8.127
  848POPC   C4A15702   3.834  31.383   7.815
  848POPC   C1B15703   3.281  31.404   8.624
  848POPC   C2B15704   3.129  31.191   8.251
  848POPC   C3B15705   3.282  31.346   7.868
  848POPC   C4B15706   3.462  31.690   7.649
  849POPC   NC315707   2.859  26.656   9.660
  849POPC   PO415708   2.322  26.507   9.615
  849POPC   GL115709   2.598  26.456   9.267
  849POPC   GL215710   2.633  26.804   9.200
  849POPC   C1A15711   2.686  26.471   8.809
  849POPC   D2A15712   2.466  26.568   8.427
  849POPC   C3A15713   2.413  26.676   8.001
  849POPC   C4A15714   2.716  26.651   7.686
  849POPC   C1B15715   2.449  26.934   8.783
  849POPC   C2B15716   2.609  27.064   8.350
  849POPC   C3B15717   2.656  27.121   7.907
  849POPC   C4B15718   2.588  27.499   7.661
  850POPC   NC315719   9.070  38.898   9.607
  850POPC   PO415720   9.045  39.600   9.556
  850POPC   GL115721   8.810  39.461   9.209
  850POPC   GL215722   8.810  39.085   9.181
  850POPC   C1A15723   8.860  39.430   8.761
  850POPC   D2A15724   8.985  39.317   8.340
  850POPC   C3A15725   8.687  39.365   7.983
  850POPC   C4A15726   8.813  39.392   7.547
  850POPC   C1B15727   8.887  38.911   8.752
  850POPC   C2B15728   9.117  38.792   8.347
  850POPC   C3B15729   9.021  38.984   7.941
  850POPC   C4B15730   9.182  39.035   7.531
  851POPC   NC315731   3.733  30.598   9.662
  851POPC   PO415732   3.258  30.956   9.449
  851POPC   GL115733   3.568  30.817   9.151
  851POPC   GL215734   3.466  30.493   9.185
  851POPC   C1A15735   3.550  30.946   8.699
  851POPC   D2A15736   3.630  31.139   8.269
  851POPC   C3A15737   3.557  30.933   7.843
  851POPC   C4A15738   3.202  30.892   7.553
  851POPC   C1B15739   3.258  30.540   8.774
  851POPC   C2B15740   3.287  30.710   8.337
  851POPC   C3B15741   3.686  30.574   8.167
  851POPC   C4B15742   3.738  30.245   7.873
  852POPC   NC315743   1.313  43.348   9.609
  852POPC   PO415744   0.821  42.901   9.549
  852POPC   GL115745   1.061  43.127   9.190
  852POPC   GL215746   1.428  43.155   9.151
  852POPC   C1A15747   1.121  43.043   8.732
  852POPC   D2A15748   1.193  43.280   8.335
  852POPC   C3A15749   1.149  43.109   7.879
  852POPC   C4A15750   1.080  43.301   7.409
  852POPC   C1B15751   1.639  42.983   8.821
  852POPC   C2B15752   1.888  43.089   8.485
  852POPC   C3B15753   1.646  43.122   8.120
  852POPC   C4B15754   1.605  42.862   7.775
  853POPC   NC315755  38.298   8.586   9.580
  853POPC   PO415756  38.656   7.939   9.564
  853POPC   GL115757  38.610   8.153   9.190
  853POPC   GL215758  38.313   7.964   9.074
  853POPC   C1A15759  38.659   8.164   8.754
  853POPC   D2A15760  38.625   7.937   8.384
  853POPC   C3A15761  38.795   8.193   8.068
  853POPC   C4A15762  38.696   8.215   7.620
  853POPC   C1B15763  38.174   8.301   8.804
  853POPC   C2B15764  38.363   8.399   8.397
  853POPC   C3B15765  38.271   8.195   7.995
  853POPC   C4B15766  38.251   8.453   7.626
  854POPC   NC315767   8.816  41.993   9.475
  854POPC   PO415768   9.279  41.509   9.527
  854POPC   GL115769   9.135  41.739   9.168
  854POPC   GL215770   8.778  41.778   9.021
  854POPC   C1A15771   9.187  41.607   8.756
  854POPC   D2A15772   9.012  41.255   8.538
  854POPC   C3A15773   8.948  41.369   8.119
  854POPC   C4A15774   9.237  41.566   7.817
  854POPC   C1B15775   8.540  41.847   8.624
  854POPC   C2B15776   8.457  42.029   8.205
  854POPC   C3B15777   8.677  41.924   7.812
  854POPC   C4B15778   8.752  41.519   7.655
  855POPC   NC315779  42.149  22.608   9.711
  855POPC   PO415780  42.535  23.130   9.638
  855POPC   GL115781  42.500  23.066   9.220
  855POPC   GL215782  42.249  22.812   9.205
  855POPC   C1A15783  42.424  23.040   8.778
  855POPC   D2A15784  42.342  23.197   8.378
  855POPC   C3A15785  42.509  23.017   8.001
  855POPC   C4A15786  42.638  22.833   7.604
  855POPC   C1B15787  42.263  22.548   8.844
  855POPC   C2B15788  42.228  22.693   8.428
  855POPC   C3B15789  42.028  22.910   8.095
  855POPC   C4B15790  42.134  22.784   7.715
  856POPC   NC315791  35.854  11.940   9.779
  856POPC   PO415792  35.365  11.819   9.368
  856POPC   GL115793  35.388  12.064   9.040
  856POPC   GL215794  35.697  12.163   9.070
  856POPC   C1A15795  35.348  11.987   8.625
  856POPC   D2A15796  35.537  11.863   8.274
  856POPC   C3A15797  35.235  11.984   7.985
  856POPC   C4A15798  35.178  12.380   7.800
  856POPC   C1B15799  35.856  12.104   8.681
  856POPC   C2B15800  35.917  12.268   8.281
  856POPC   C3B15801  35.691  12.210   7.858
  856POPC   C4B15802  35.515  12.315   7.404
  857POPC   NC315803  35.545  44.963   9.543
  857POPC   PO415804  35.008  44.554   9.580
  857POPC   GL115805  35.167  44.622   9.203
  857POPC   GL215806  35.517  44.591   9.164
  857POPC   C1A15807  35.107  44.676   8.797
  857POPC   D2A15808  35.202  44.976   8.491
  857POPC   C3A15809  35.147  44.783   8.097
  857POPC   C4A15810  35.226  44.863   7.675
  857POPC   C1B15811  35.611  44.768   8.736
  857POPC   C2B15812  35.765  44.836   8.351
  857POPC   C3B15813  35.653  44.734   7.959
  857POPC   C4B15814  35.723  44.735   7.555
  858POPC   NC315815  36.035  33.078   9.640
  858POPC   PO415816  35.843  33.556   9.220
  858POPC   GL115817  36.114  33.245   9.158
  858POPC   GL215818  35.809  33.035   9.166
  858POPC   C1A15819  36.214  33.060   8.767
  858POPC   D2A15820  36.018  32.983   8.372
  858POPC   C3A15821  36.265  32.829   8.045
  858POPC   C4A15822  36.296  33.123   7.717
  858POPC   C1B15823  35.739  32.786   8.789
  858POPC   C2B15824  35.798  32.524   8.430
  858POPC   C3B15825  35.684  32.731   8.040
  858POPC   C4B15826  35.897  32.771   7.684
  859POPC   NC315827  29.561  10.839   9.524
  859POPC   PO415828  29.067  11.389   9.676
  859POPC   GL115829  29.146  11.130   9.307
  859POPC   GL215830  29.378  11.327   9.190
  859POPC   C1A15831  29.094  11.105   8.805
  859POPC   D2A15832  29.216  11.144   8.323
  859POPC   C3A15833  28.971  11.178   7.897
  859POPC   C4A15834  29.065  10.979   7.483
  859POPC   C1B15835  29.410  11.505   8.767
  859POPC   C2B15836  29.463  11.614   8.329
  859POPC   C3B15837  29.382  11.464   7.902
  859POPC   C4B15838  29.220  11.463   7.490
  860POPC   NC315839  23.978  42.167   9.619
  860POPC   PO415840  23.405  41.973   9.568
  860POPC   GL115841  23.625  42.306   9.264
  860POPC   GL215842  23.844  42.616   9.323
  860POPC   C1A15843  23.645  42.513   8.848
  860POPC   D2A15844  23.745  42.366   8.432
  860POPC   C3A15845  23.575  42.473   8.045
  860POPC   C4A15846  23.455  42.568   7.641
  860POPC   C1B15847  24.104  42.694   8.939
  860POPC   C2B15848  24.074  42.767   8.485
  860POPC   C3B15849  24.107  42.516   8.100
  860POPC   C4B15850  23.983  42.523   7.704
  861POPC   NC315851  30.366  39.799   9.506
  861POPC   PO415852  30.977  39.675   9.587
  861POPC   GL115853  30.888  39.897   9.165
  861POPC   GL215854  30.575  40.108   9.129
  861POPC   C1A15855  30.751  39.900   8.699
  861POPC   D2A15856  30.867  39.835   8.261
  861POPC   C3A15857  30.582  39.745   7.910
  861POPC   C4A15858  30.883  39.804   7.607
  861POPC   C1B15859  30.326  40.186   8.725
  861POPC   C2B15860  30.403  40.023   8.301
  861POPC   C3B15861  30.683  40.227   7.938
  861POPC   C4B15862  30.553  40.538   7.625
  862POPC   NC315863   8.381  43.223   9.538
  862POPC   PO415864   7.997  42.707   9.678
  862POPC   GL115865   7.983  42.812   9.216
  862POPC   GL215866   8.182  43.049   9.094
  862POPC   C1A15867   7.869  42.687   8.782
  862POPC   D2A15868   7.758  42.761   8.324
  862POPC   C3A15869   7.964  42.971   7.948
  862POPC   C4A15870   8.081  43.304   7.635
  862POPC   C1B15871   8.339  42.887   8.727
  862POPC   C2B15872   8.280  43.017   8.347
  862POPC   C3B15873   8.426  43.252   8.011
  862POPC   C4B15874   8.419  42.917   7.688
  863POPC   NC315875   4.677  29.263   9.823
  863POPC   PO415876   4.255  29.581   9.628
  863POPC   GL115877   4.248  29.324   9.214
  863POPC   GL215878   4.563  29.193   9.045
  863POPC   C1A15879   4.169  29.309   8.749
  863POPC   D2A15880   4.395  29.390   8.347
  863POPC   C3A15881   4.544  29.089   8.004
  863POPC   C4A15882   4.736  28.873   7.623
  863POPC   C1B15883   4.558  28.981   8.606
  863POPC   C2B15884   4.498  28.616   8.307
  863POPC   C3B15885   4.581  28.458   7.870
  863POPC   C4B15886   4.411  28.489   7.433
  864POPC   NC315887   6.930   3.294   9.828
  864POPC   PO415888   6.455   3.747   9.606
  864POPC   GL115889   6.644   3.694   9.218
  864POPC   GL215890   6.773   3.406   9.231
  864POPC   C1A15891   6.827   3.826   8.831
  864POPC   D2A15892   6.627   3.727   8.466
  864POPC   C3A15893   6.789   3.730   8.095
  864POPC   C4A15894   6.879   3.614   7.677
  864POPC   C1B15895   6.628   3.326   8.803
  864POPC   C2B15896   6.400   3.282   8.405
  864POPC   C3B15897   6.568   3.287   7.956
  864POPC   C4B15898   6.525   3.326   7.477
  865POPC   NC315899  21.916  43.816   9.748
  865POPC   PO415900  22.380  44.216   9.418
  865POPC   GL115901  22.153  44.072   9.051
  865POPC   GL215902  21.981  43.776   9.105
  865POPC   C1A15903  22.066  44.052   8.621
  865POPC   D2A15904  22.294  43.844   8.276
  865POPC   C3A15905  22.102  43.905   7.873
  865POPC   C4A15906  22.441  44.000   7.578
  865POPC   C1B15907  21.848  43.594   8.701
  865POPC   C2B15908  21.921  43.496   8.240
  865POPC   C3B15909  21.812  43.346   7.814
  865POPC   C4B15910  21.756  43.666   7.465
  866POPC   NC315911  44.857   2.420   9.457
  866POPC   PO415912  44.631   1.845   9.670
  866POPC   GL115913  44.713   1.981   9.243
  866POPC   GL215914  44.874   1.709   9.115
  866POPC   C1A15915  44.736   2.074   8.781
  866POPC   D2A15916  44.809   1.916   8.349
  866POPC   C3A15917  44.584   2.008   7.969
  866POPC   C4A15918  44.806   2.144   7.609
  866POPC   C1B15919   0.072   1.587   8.732
  866POPC   C2B15920  44.909   1.407   8.353
  866POPC   C3B15921  44.858   1.568   7.916
  866POPC   C4B15922  44.914   1.650   7.452
  867POPC   NC315923   6.041  41.197   9.428
  867POPC   PO415924   5.824  40.579   9.381
  867POPC   GL115925   5.877  40.804   9.007
  867POPC   GL215926   6.047  41.123   8.948
  867POPC   C1A15927   5.979  40.777   8.579
  867POPC   D2A15928   6.040  40.996   8.223
  867POPC   C3A15929   5.900  40.684   7.976
  867POPC   C4A15930   6.096  40.426   7.676
  867POPC   C1B15931   5.722  41.203   8.648
  867POPC   C2B15932   5.597  41.233   8.219
  867POPC   C3B15933   5.723  41.138   7.800
  867POPC   C4B15934   6.139  41.015   7.677
  868POPC   NC315935   4.943  42.275   9.628
  868POPC   PO415936   4.685  41.642   9.348
  868POPC   GL115937   4.858  42.080   9.160
  868POPC   GL215938   5.236  42.260   9.211
  868POPC   C1A15939   5.010  42.212   8.744
  868POPC   D2A15940   4.948  41.983   8.357
  868POPC   C3A15941   5.219  42.109   8.034
  868POPC   C4A15942   5.045  42.461   7.846
  868POPC   C1B15943   5.443  42.497   8.855
  868POPC   C2B15944   5.346  42.573   8.398
  868POPC   C3B15945   5.457  42.728   7.976
  868POPC   C4B15946   5.519  42.420   7.627
  869POPC   NC315947   0.720   4.066   9.906
  869POPC   PO415948   0.450   4.575   9.607
  869POPC   GL115949   0.506   4.332   9.225
  869POPC   GL215950   0.805   4.468   9.114
  869POPC   C1A15951   0.302   4.033   8.915
  869POPC   D2A15952   0.344   3.818   8.525
  869POPC   C3A15953   0.400   4.080   8.167
  869POPC   C4A15954   0.171   4.017   7.795
  869POPC   C1B15955   0.715   4.301   8.715
  869POPC   C2B15956   0.839   4.481   8.334
  869POPC   C3B15957   0.516   4.597   8.087
  869POPC   C4B15958   0.536   4.361   7.736
  870POPC   NC315959  22.288   3.185   9.357
  870POPC   PO415960  21.911   2.597   9.464
  870POPC   GL115961  22.181   2.674   9.140
  870POPC   GL215962  22.123   2.360   9.019
  870POPC   C1A15963  22.096   2.788   8.720
  870POPC   D2A15964  21.836   2.754   8.350
  870POPC   C3A15965  22.146   2.778   8.034
  870POPC   C4A15966  22.426   2.983   7.760
  870POPC   C1B15967  21.898   2.300   8.637
  870POPC   C2B15968  21.825   2.236   8.177
  870POPC   C3B15969  21.864   2.429   7.772
  870POPC   C4B15970  21.973   2.653   7.389
  871POPC   NC315971   2.927   1.624   9.564
  871POPC   PO415972   2.672   2.323   9.540
  871POPC   GL115973   2.586   2.107   9.153
  871POPC   GL215974   2.857   1.918   9.148
  871POPC   C1A15975   2.510   1.905   8.729
  871POPC   D2A15976   2.531   1.741   8.300
  871POPC   C3A15977   2.352   1.979   7.964
  871POPC   C4A15978   2.354   2.362   7.731
  871POPC   C1B15979   2.826   1.552   8.906
  871POPC   C2B15980   2.978   1.549   8.510
  871POPC   C3B15981   3.029   1.678   8.113
  871POPC   C4B15982   2.809   1.785   7.797
  872POPC   NC315983  29.660  30.171   9.410
  872POPC   PO415984  30.225  29.771   9.544
  872POPC   GL115985  29.821  29.792   9.102
  872POPC   GL215986  29.620  30.121   8.933
  872POPC   C1A15987  29.694  29.678   8.706
  872POPC   D2A15988  29.839  29.349   8.453
  872POPC   C3A15989  30.030  29.522   8.119
  872POPC   C4A15990  29.812  29.707   7.775
  872POPC   C1B15991  29.500  30.139   8.536
  872POPC   C2B15992  29.513  30.008   8.114
  872POPC   C3B15993  29.527  30.115   7.678
  872POPC   C4B15994  29.658  30.184   7.234
  873POPC   NC315995  13.099   2.837   9.544
  873POPC   PO415996  12.420   2.663   9.549
  873POPC   GL115997  12.666   2.792   9.196
  873POPC   GL215998  12.922   2.568   9.139
  873POPC   C1A15999  12.892   3.002   8.846
  873POPC   D2A16000  12.995   2.842   8.438
  873POPC   C3A16001  12.979   3.084   8.053
  873POPC   C4A16002  12.773   2.956   7.670
  873POPC   C1B16003  12.669   2.529   8.757
  873POPC   C2B16004  12.514   2.392   8.361
  873POPC   C3B16005  12.729   2.572   8.025
  873POPC   C4B16006  12.775   2.429   7.613
  874POPC   NC316007  44.438  22.026   9.752
  874POPC   PO416008  43.690  22.120   9.605
  874POPC   GL116009  43.600  22.127   9.195
  874POPC   GL216010  43.491  21.790   9.174
  874POPC   C1A16011  43.798  22.316   8.809
  874POPC   D2A16012  43.920  22.387   8.366
  874POPC   C3A16013  44.112  22.121   8.050
  874POPC   C4A16014  43.857  22.234   7.704
  874POPC   C1B16015  43.749  21.807   8.809
  874POPC   C2B16016  43.906  21.813   8.404
  874POPC   C3B16017  43.732  21.794   7.961
  874POPC   C4B16018  43.956  21.786   7.524
  875POPC   NC316019  21.608  29.176   9.662
  875POPC   PO416020  20.983  29.454   9.568
  875POPC   GL116021  21.094  29.214   9.197
  875POPC   GL216022  21.489  29.207   9.181
  875POPC   C1A16023  21.252  29.026   8.805
  875POPC   D2A16024  21.492  29.313   8.535
  875POPC   C3A16025  21.333  29.416   8.126
  875POPC   C4A16026  21.299  29.310   7.720
  875POPC   C1B16027  21.753  28.969   8.831
  875POPC   C2B16028  21.618  28.844   8.373
  875POPC   C3B16029  21.619  28.933   7.919
  875POPC   C4B16030  21.335  28.779   7.598
  876POPC   NC316031  16.539  23.825   9.449
  876POPC   PO416032  17.088  24.317   9.387
  876POPC   GL116033  16.804  24.056   9.085
  876POPC   GL216034  16.388  24.111   9.077
  876POPC   C1A16035  16.718  23.811   8.682
  876POPC   D2A16036  16.983  23.555   8.376
  876POPC   C3A16037  16.842  23.651   7.955
  876POPC   C4A16038  16.650  23.603   7.512
  876POPC   C1B16039  16.257  24.034   8.676
  876POPC   C2B16040  16.473  23.955   8.250
  876POPC   C3B16041  16.477  23.982   7.806
  876POPC   C4B16042  16.178  23.714   7.694
  877POPC   NC316043  22.797  16.930   9.757
  877POPC   PO416044  23.193  16.388   9.592
  877POPC   GL116045  22.960  16.638   9.256
  877POPC   GL216046  23.133  16.906   9.085
  877POPC   C1A16047  22.928  16.604   8.760
  877POPC   D2A16048  22.916  16.784   8.308
  877POPC   C3A16049  22.803  16.576   7.898
  877POPC   C4A16050  22.755  16.673   7.416
  877POPC   C1B16051  23.259  17.010   8.691
  877POPC   C2B16052  23.418  16.761   8.363
  877POPC   C3B16053  23.304  16.822   7.935
  877POPC   C4B16054  23.208  16.524   7.617
  878POPC   NC316055   9.750  24.544   9.720
  878POPC   PO416056   9.400  24.020   9.579
  878POPC   GL116057   9.698  24.247   9.260
  878POPC   GL216058   9.603  24.609   9.228
  878POPC   C1A16059   9.851  24.222   8.807
  878POPC   D2A16060   9.970  24.419   8.381
  878POPC   C3A16061   9.814  24.404   7.911
  878POPC   C4A16062   9.895  24.721   7.575
  878POPC   C1B16063   9.802  24.725   8.806
  878POPC   C2B16064   9.673  24.872   8.376
  878POPC   C3B16065   9.513  24.815   7.955
  878POPC   C4B16066   9.173  24.568   7.788
  879POPC   NC316067  13.177  36.747   9.445
  879POPC   PO416068  12.582  37.006   9.639
  879POPC   GL116069  12.769  36.968   9.260
  879POPC   GL216070  13.012  37.201   9.216
  879POPC   C1A16071  12.714  36.880   8.849
  879POPC   D2A16072  12.910  36.916   8.472
  879POPC   C3A16073  12.739  36.827   8.076
  879POPC   C4A16074  12.980  36.759   7.715
  879POPC   C1B16075  13.101  37.247   8.835
  879POPC   C2B16076  13.211  37.339   8.434
  879POPC   C3B16077  13.153  37.144   8.058
  879POPC   C4B16078  13.328  37.137   7.674
  880POPC   NC316079  29.828  15.922   9.416
  880POPC   PO416080  30.170  15.305   9.280
  880POPC   GL116081  30.190  15.760   9.102
  880POPC   GL216082  29.866  16.009   8.947
  880POPC   C1A16083  30.207  15.842   8.658
  880POPC   D2A16084  29.905  15.753   8.373
  880POPC   C3A16085  30.024  15.799   7.957
  880POPC   C4A16086  30.265  15.477   7.798
  880POPC   C1B16087  29.775  16.193   8.564
  880POPC   C2B16088  29.699  16.176   8.120
  880POPC   C3B16089  29.746  16.263   7.690
  880POPC   C4B16090  29.597  16.057   7.294
  881POPC   NC316091  40.473  17.933   9.530
  881POPC   PO416092  40.952  18.316   9.874
  881POPC   GL116093  40.738  18.373   9.394
  881POPC   GL216094  41.080  18.395   9.218
  881POPC   C1A16095  40.628  18.452   8.935
  881POPC   D2A16096  40.734  18.406   8.485
  881POPC   C3A16097  40.635  18.542   8.059
  881POPC   C4A16098  40.808  18.224   7.809
  881POPC   C1B16099  41.080  18.176   8.790
  881POPC   C2B16100  41.023  17.865   8.479
  881POPC   C3B16101  41.143  17.895   8.051
  881POPC   C4B16102  41.318  18.108   7.699
  882POPC   NC316103  15.611  29.048   9.566
  882POPC   PO416104  16.200  29.353   9.432
  882POPC   GL116105  16.010  29.092   9.151
  882POPC   GL216106  15.681  29.019   9.058
  882POPC   C1A16107  16.095  28.874   8.792
  882POPC   D2A16108  15.877  28.950   8.444
  882POPC   C3A16109  16.057  28.971   8.079
  882POPC   C4A16110  16.144  28.950   7.669
  882POPC   C1B16111  15.435  29.078   8.675
  882POPC   C2B16112  15.470  29.186   8.219
  882POPC   C3B16113  15.631  29.043   7.811
  882POPC   C4B16114  15.699  28.998   7.372
  883POPC   NC316115  15.704  35.499   9.418
  883POPC   PO416116  16.345  35.156   9.518
  883POPC   GL116117  16.021  35.134   9.206
  883POPC   GL216118  16.105  35.455   9.125
  883POPC   C1A16119  15.856  35.213   8.757
  883POPC   D2A16120  15.975  35.009   8.357
  883POPC   C3A16121  15.883  35.251   7.971
  883POPC   C4A16122  15.788  35.070   7.566
  883POPC   C1B16123  16.257  35.567   8.739
  883POPC   C2B16124  16.050  35.559   8.371
  883POPC   C3B16125  16.252  35.596   8.011
  883POPC   C4B16126  16.234  35.716   7.622
  884POPC   NC316127   4.789   3.074   9.439
  884POPC   PO416128   4.409   2.484   9.531
  884POPC   GL116129   4.343   2.734   9.149
  884POPC   GL216130   4.066   2.958   9.148
  884POPC   C1A16131   4.111   2.574   8.767
  884POPC   D2A16132   4.151   2.423   8.363
  884POPC   C3A16133   4.461   2.613   8.120
  884POPC   C4A16134   4.499   2.348   7.791
  884POPC   C1B16135   4.177   3.087   8.759
  884POPC   C2B16136   4.114   2.939   8.358
  884POPC   C3B16137   4.216   3.086   7.947
  884POPC   C4B16138   4.425   3.104   7.518
  885POPC   NC316139  39.807   1.664   9.577
  885POPC   PO416140  39.995   1.106   9.437
  885POPC   GL116141  40.146   1.396   9.156
  885POPC   GL216142  39.953   1.699   9.077
  885POPC   C1A16143  40.323   1.349   8.750
  885POPC   D2A16144  40.341   1.085   8.390
  885POPC   C3A16145  40.261   1.280   8.024
  885POPC   C4A16146  40.045   1.298   7.646
  885POPC   C1B16147  39.827   1.363   8.760
  885POPC   C2B16148  39.827   1.129   8.380
  885POPC   C3B16149  39.686   1.307   8.026
  885POPC   C4B16150  39.476   1.549   7.728
  886POPC   NC316151  31.033  36.783   9.481
  886POPC   PO416152  30.390  36.660   9.582
  886POPC   GL116153  30.404  36.508   9.136
  886POPC   GL216154  30.745  36.551   9.094
  886POPC   C1A16155  30.349  36.574   8.660
  886POPC   D2A16156  30.472  36.819   8.305
  886POPC   C3A16157  30.472  36.796   7.867
  886POPC   C4A16158  30.729  37.122   7.678
  886POPC   C1B16159  30.823  36.376   8.683
  886POPC   C2B16160  30.802  36.440   8.248
  886POPC   C3B16161  30.988  36.643   7.904
  886POPC   C4B16162  31.177  36.468   7.544
  887POPC   NC316163   1.082  40.960   9.504
  887POPC   PO416164   1.484  40.387   9.537
  887POPC   GL116165   1.410  40.697   9.209
  887POPC   GL216166   1.669  40.867   9.163
  887POPC   C1A16167   1.288  40.889   8.800
  887POPC   D2A16168   1.208  40.670   8.413
  887POPC   C3A16169   1.314  40.869   8.051
  887POPC   C4A16170   1.308  41.055   7.656
  887POPC   C1B16171   1.787  40.736   8.794
  887POPC   C2B16172   1.682  40.874   8.415
  887POPC   C3B16173   1.815  40.745   8.015
  887POPC   C4B16174   1.662  40.505   7.705
  888POPC   NC316175  33.615  10.555   9.587
  888POPC   PO416176  33.951  10.003   9.711
  888POPC   GL116177  33.871  10.307   9.241
  888POPC   GL216178  33.671  10.699   9.123
  888POPC   C1A16179  33.931  10.446   8.779
  888POPC   D2A16180  33.989  10.264   8.386
  888POPC   C3A16181  33.936  10.455   7.991
  888POPC   C4A16182  33.970  10.213   7.631
  888POPC   C1B16183  33.465  10.771   8.740
  888POPC   C2B16184  33.583  10.602   8.369
  888POPC   C3B16185  33.422  10.392   8.026
  888POPC   C4B16186  33.527  10.477   7.654
  889POPC   NC316187   0.018  13.681   9.657
  889POPC   PO416188  44.475  13.751   9.538
  889POPC   GL116189  44.581  13.653   9.088
  889POPC   GL216190  44.243  13.589   9.017
  889POPC   C1A16191  44.811  13.651   8.628
  889POPC   D2A16192   0.108  13.471   8.265
  889POPC   C3A16193   0.018  13.538   7.832
  889POPC   C4A16194  44.850  13.918   7.637
  889POPC   C1B16195  44.290  13.805   8.660
  889POPC   C2B16196  44.384  13.567   8.341
  889POPC   C3B16197  44.583  13.406   8.021
  889POPC   C4B16198  44.582  13.431   7.568
  890POPC   NC316199  34.751   2.152   9.557
  890POPC   PO416200  34.273   1.739   9.451
  890POPC   GL116201  34.515   1.956   9.125
  890POPC   GL216202  34.660   2.286   9.089
  890POPC   C1A16203  34.671   1.929   8.710
  890POPC   D2A16204  34.507   1.806   8.318
  890POPC   C3A16205  34.757   1.724   7.989
  890POPC   C4A16206  34.524   1.915   7.660
  890POPC   C1B16207  34.347   2.342   8.793
  890POPC   C2B16208  34.511   2.320   8.400
  890POPC   C3B16209  34.656   2.245   8.035
  890POPC   C4B16210  34.599   2.417   7.659
  891POPC   NC316211  19.122   6.363   9.571
  891POPC   PO416212  18.740   5.736   9.593
  891POPC   GL116213  18.981   5.893   9.284
  891POPC   GL216214  18.775   6.147   9.247
  891POPC   C1A16215  19.091   5.784   8.865
  891POPC   D2A16216  19.206   5.855   8.420
  891POPC   C3A16217  18.995   5.669   8.065
  891POPC   C4A16218  19.180   5.742   7.664
  891POPC   C1B16219  18.861   6.230   8.802
  891POPC   C2B16220  18.847   6.285   8.378
  891POPC   C3B16221  18.716   6.431   7.982
  891POPC   C4B16222  18.790   6.358   7.527
  892POPC   NC316223  18.001   9.135   9.829
  892POPC   PO416224  18.642   8.987   9.596
  892POPC   GL116225  18.670   8.946   9.141
  892POPC   GL216226  18.828   9.264   9.102
  892POPC   C1A16227  18.364   8.965   8.801
  892POPC   D2A16228  18.001   8.944   8.532
  892POPC   C3A16229  18.102   8.955   8.110
  892POPC   C4A16230  18.351   8.886   7.735
  892POPC   C1B16231  18.705   9.341   8.750
  892POPC   C2B16232  18.691   9.084   8.415
  892POPC   C3B16233  18.578   9.222   8.034
  892POPC   C4B16234  18.761   9.161   7.663
  893POPC   NC316235  35.017   5.239   9.454
  893POPC   PO416236  35.716   5.435   9.386
  893POPC   GL116237  35.732   5.107   9.034
  893POPC   GL216238  35.449   4.888   9.106
  893POPC   C1A16239  35.721   4.891   8.630
  893POPC   D2A16240  35.571   5.154   8.303
  893POPC   C3A16241  35.723   5.173   7.902
  893POPC   C4A16242  35.441   5.215   7.574
  893POPC   C1B16243  35.261   5.106   8.721
  893POPC   C2B16244  35.060   5.214   8.321
  893POPC   C3B16245  35.199   4.962   7.981
  893POPC   C4B16246  35.154   4.769   7.604
  894POPC   NC316247  14.649   2.714   9.421
  894POPC   PO416248  15.316   2.975   9.495
  894POPC   GL116249  15.253   2.931   9.074
  894POPC   GL216250  14.929   3.047   9.133
  894POPC   C1A16251  15.178   2.854   8.618
  894POPC   D2A16252  15.413   2.657   8.260
  894POPC   C3A16253  15.149   2.606   7.897
  894POPC   C4A16254  14.795   2.332   7.875
  894POPC   C1B16255  15.005   3.310   8.793
  894POPC   C2B16256  14.860   3.360   8.375
  894POPC   C3B16257  14.958   3.049   8.064
  894POPC   C4B16258  15.051   3.080   7.623
  895POPC   NC316259  43.581  19.984   9.379
  895POPC   PO416260  44.192  19.650   9.571
  895POPC   GL116261  43.952  19.675   9.202
  895POPC   GL216262  43.619  19.499   9.235
  895POPC   C1A16263  43.897  19.871   8.783
  895POPC   D2A16264  43.733  20.122   8.429
  895POPC   C3A16265  44.060  20.159   8.132
  895POPC   C4A16266  43.879  20.019   7.778
  895POPC   C1B16267  43.798  19.350   8.847
  895POPC   C2B16268  44.085  19.458   8.524
  895POPC   C3B16269  44.028  19.606   8.100
  895POPC   C4B16270  44.272  19.696   7.750
  896POPC   NC316271  10.840  44.557   9.433
  896POPC   PO416272  10.243  44.754   9.655
  896POPC   GL116273  10.416  44.728   9.187
  896POPC   GL216274  10.521  44.366   9.104
  896POPC   C1A16275  10.502  44.794   8.709
  896POPC   D2A16276  10.665  44.981   8.302
  896POPC   C3A16277  10.581  44.782   7.920
  896POPC   C4A16278  10.412  44.814   7.519
  896POPC   C1B16279  10.832  44.389   8.767
  896POPC   C2B16280  10.828  44.500   8.322
  896POPC   C3B16281  10.858  44.357   7.895
  896POPC   C4B16282  10.674  44.379   7.471
  897POPC   NC316283   5.942   8.324   9.523
  897POPC   PO416284   5.399   8.742   9.386
  897POPC   GL116285   5.647   8.488   9.137
  897POPC   GL216286   5.682   8.115   9.144
  897POPC   C1A16287   5.822   8.379   8.758
  897POPC   D2A16288   6.029   8.271   8.424
  897POPC   C3A16289   5.879   8.395   8.030
  897POPC   C4A16290   5.983   8.236   7.656
  897POPC   C1B16291   5.677   7.873   8.792
  897POPC   C2B16292   5.802   7.823   8.388
  897POPC   C3B16293   5.651   7.888   8.012
  897POPC   C4B16294   5.755   7.769   7.587
  898POPC   NC316295  26.376  26.531   9.527
  898POPC   PO416296  25.944  27.060   9.436
  898POPC   GL116297  26.230  26.911   9.171
  898POPC   GL216298  26.081  26.591   9.101
  898POPC   C1A16299  26.261  26.991   8.735
  898POPC   D2A16300  26.148  26.852   8.358
  898POPC   C3A16301  26.234  27.034   7.972
  898POPC   C4A16302  26.079  26.797   7.633
  898POPC   C1B16303  26.449  26.549   8.852
  898POPC   C2B16304  26.420  26.423   8.419
  898POPC   C3B16305  26.258  26.503   8.009
  898POPC   C4B16306  26.484  26.479   7.600
  899POPC   NC316307  22.545  25.184   9.645
  899POPC   PO416308  22.208  25.580   9.584
  899POPC   GL116309  22.381  25.431   9.181
  899POPC   GL216310  22.470  25.082   9.120
  899POPC   C1A16311  22.351  25.460   8.717
  899POPC   D2A16312  22.105  25.521   8.329
  899POPC   C3A16313  22.180  25.433   7.882
  899POPC   C4A16314  21.945  25.197   7.553
  899POPC   C1B16315  22.539  24.992   8.659
  899POPC   C2B16316  22.446  25.109   8.210
  899POPC   C3B16317  22.374  24.969   7.764
  899POPC   C4B16318  22.363  25.042   7.298
  900POPC   NC316319  36.347  17.952   9.648
  900POPC   PO416320  35.849  18.418   9.598
  900POPC   GL116321  36.077  18.294   9.186
  900POPC   GL216322  36.380  18.495   9.213
  900POPC   C1A16323  36.217  18.375   8.711
  900POPC   D2A16324  36.168  18.095   8.323
  900POPC   C3A16325  35.992  18.201   7.917
  900POPC   C4A16326  35.842  18.602   7.845
  900POPC   C1B16327  36.594  18.151   9.011
  900POPC   C2B16328  36.631  18.078   8.572
  900POPC   C3B16329  36.632  18.198   8.177
  900POPC   C4B16330  36.471  18.060   7.822
  901POPC   NC316331   2.715  43.350   9.825
  901POPC   PO416332   2.659  43.896   9.542
  901POPC   GL116333   2.767  43.966   9.118
  901POPC   GL216334   3.075  44.192   9.098
  901POPC   C1A16335   2.880  43.738   8.721
  901POPC   D2A16336   3.070  43.658   8.276
  901POPC   C3A16337   3.098  43.564   7.800
  901POPC   C4A16338   2.956  43.769   7.399
  901POPC   C1B16339   2.859  44.259   8.703
  901POPC   C2B16340   2.690  44.017   8.322
  901POPC   C3B16341   2.825  44.036   7.893
  901POPC   C4B16342   3.056  44.405   7.818
  902POPC   NC316343  20.397  32.175   9.473
  902POPC   PO416344  21.080  32.357   9.516
  902POPC   GL116345  20.907  32.222   9.148
  902POPC   GL216346  20.858  32.558   9.085
  902POPC   C1A16347  20.670  32.181   8.749
  902POPC   D2A16348  20.459  32.049   8.360
  902POPC   C3A16349  20.534  32.240   7.964
  902POPC   C4A16350  20.727  31.978   7.654
  902POPC   C1B16351  21.052  32.552   8.688
  902POPC   C2B16352  20.904  32.525   8.263
  902POPC   C3B16353  20.697  32.714   7.886
  902POPC   C4B16354  20.380  32.601   7.526
  903POPC   NC316355  23.366   1.086   9.409
  903POPC   PO416356  22.721   1.185   9.487
  903POPC   GL116357  22.950   1.277   9.094
  903POPC   GL216358  23.242   1.490   9.045
  903POPC   C1A16359  23.019   1.283   8.663
  903POPC   D2A16360  22.837   1.024   8.435
  903POPC   C3A16361  22.737   1.227   8.119
  903POPC   C4A16362  22.760   1.116   7.740
  903POPC   C1B16363  23.187   1.785   8.673
  903POPC   C2B16364  23.037   1.637   8.257
  903POPC   C3B16365  23.229   1.419   7.897
  903POPC   C4B16366  23.377   1.589   7.473
  904POPC   NC316367  41.092   9.926   9.503
  904POPC   PO416368  40.643   9.323   9.443
  904POPC   GL116369  40.786   9.664   9.141
  904POPC   GL216370  41.121   9.605   9.024
  904POPC   C1A16371  40.844   9.782   8.674
  904POPC   D2A16372  40.683   9.578   8.319
  904POPC   C3A16373  40.798   9.748   7.937
  904POPC   C4A16374  40.779   9.802   7.493
  904POPC   C1B16375  41.318   9.550   8.639
  904POPC   C2B16376  41.241   9.533   8.206
  904POPC   C3B16377  41.160   9.405   7.811
  904POPC   C4B16378  41.209   9.521   7.360
  905POPC   NC316379  23.167   2.655   9.443
  905POPC   PO416380  22.529   2.904   9.653
  905POPC   GL116381  22.677   2.750   9.261
  905POPC   GL216382  22.896   3.021   9.193
  905POPC   C1A16383  22.660   2.778   8.803
  905POPC   D2A16384  22.515   2.839   8.397
  905POPC   C3A16385  22.716   2.661   8.065
  905POPC   C4A16386  22.843   2.689   7.656
  905POPC   C1B16387  23.163   2.931   8.809
  905POPC   C2B16388  23.137   3.015   8.351
  905POPC   C3B16389  23.286   2.834   7.964
  905POPC   C4B16390  23.283   2.912   7.534
  906POPC   NC316391  23.484  44.378   9.643
  906POPC   PO416392  23.892  44.910   9.729
  906POPC   GL116393  23.815  44.566   9.328
  906POPC   GL216394  23.490  44.617   9.158
  906POPC   C1A16395  23.943  44.412   8.920
  906POPC   D2A16396  24.034  44.656   8.565
  906POPC   C3A16397  24.077  44.523   8.131
  906POPC   C4A16398  23.855  44.673   7.781
  906POPC   C1B16399  23.532  44.723   8.687
  906POPC   C2B16400  23.631  44.970   8.285
  906POPC   C3B16401  23.433  44.942   7.855
  906POPC   C4B16402  23.478  44.790   7.421
  907POPC   NC316403  11.509   0.036   9.856
  907POPC   PO416404  11.231  44.458   9.720
  907POPC   GL116405  11.267  44.580   9.207
  907POPC   GL216406  11.538  44.825   9.129
  907POPC   C1A16407  11.340  44.437   8.816
  907POPC   D2A16408  11.327  44.614   8.438
  907POPC   C3A16409  11.477  44.433   8.104
  907POPC   C4A16410  11.313  44.480   7.717
  907POPC   C1B16411  11.208  44.946   8.843
  907POPC   C2B16412  11.143   0.077   8.424
  907POPC   C3B16413  11.226  44.919   7.997
  907POPC   C4B16414  11.562   0.137   7.765
  908POPC   NC316415  21.312  42.864   9.553
  908POPC   PO416416  21.685  43.500   9.478
  908POPC   GL116417  21.502  43.468   9.084
  908POPC   GL216418  21.275  43.197   9.142
  908POPC   C1A16419  21.474  43.251   8.662
  908POPC   D2A16420  21.468  43.237   8.209
  908POPC   C3A16421  21.652  42.895   8.018
  908POPC   C4A16422  21.640  42.837   7.604
  908POPC   C1B16423  21.269  42.826   8.851
  908POPC   C2B16424  21.357  42.739   8.418
  908POPC   C3B16425  21.166  42.676   8.031
  908POPC   C4B16426  21.188  43.007   7.791
  909POPC   NC316427  39.123  23.331   9.454
  909POPC   PO416428  39.221  22.675   9.488
  909POPC   GL116429  39.397  22.912   9.156
  909POPC   GL216430  39.589  22.620   9.073
  909POPC   C1A16431  39.294  23.147   8.756
  909POPC   D2A16432  39.431  23.159   8.372
  909POPC   C3A16433  39.229  23.343   8.074
  909POPC   C4A16434  39.068  23.072   7.809
  909POPC   C1B16435  39.225  22.645   8.756
  909POPC   C2B16436  39.030  22.435   8.411
  909POPC   C3B16437  39.090  22.563   7.984
  909POPC   C4B16438  38.899  22.493   7.616
  910POPC   NC316439  20.898  12.437   9.412
  910POPC   PO416440  20.311  12.536   9.321
  910POPC   GL116441  20.670  12.687   9.001
  910POPC   GL216442  20.927  12.445   8.921
  910POPC   C1A16443  20.880  12.942   8.633
  910POPC   D2A16444  20.731  13.169   8.223
  910POPC   C3A16445  20.395  12.956   7.891
  910POPC   C4A16446  20.284  12.900   7.421
  910POPC   C1B16447  20.845  12.464   8.534
  910POPC   C2B16448  20.636  12.666   8.242
  910POPC   C3B16449  20.904  12.800   7.910
  910POPC   C4B16450  21.167  12.402   7.829
  911POPC   NC316451  40.870  10.669   9.390
  911POPC   PO416452  40.614  10.055   9.499
  911POPC   GL116453  40.502  10.386   9.181
  911POPC   GL216454  40.854  10.287   9.057
  911POPC   C1A16455  40.551  10.701   8.819
  911POPC   D2A16456  40.782  10.590   8.440
  911POPC   C3A16457  40.739  10.802   8.062
  911POPC   C4A16458  40.702  10.733   7.618
  911POPC   C1B16459  40.568  10.198   8.724
  911POPC   C2B16460  40.661  10.111   8.313
  911POPC   C3B16461  40.593  10.291   7.934
  911POPC   C4B16462  40.379   9.978   7.740
  912POPC   NC316463   7.207  15.980   9.566
  912POPC   PO416464   7.731  16.312   9.411
  912POPC   GL116465   7.506  16.036   9.143
  912POPC   GL216466   7.128  15.978   9.061
  912POPC   C1A16467   7.602  15.892   8.761
  912POPC   D2A16468   7.358  15.898   8.405
  912POPC   C3A16469   7.514  16.127   8.083
  912POPC   C4A16470   7.503  16.008   7.623
  912POPC   C1B16471   7.225  16.295   8.750
  912POPC   C2B16472   7.073  16.353   8.319
  912POPC   C3B16473   7.012  16.134   7.915
  912POPC   C4B16474   7.066  16.164   7.447
  913POPC   NC316475   2.500   5.546   9.432
  913POPC   PO416476   2.955   5.898   9.433
  913POPC   GL116477   2.832   5.785   9.037
  913POPC   GL216478   3.074   5.497   9.082
  913POPC   C1A16479   2.720   6.038   8.650
  913POPC   D2A16480   2.896   6.055   8.232
  913POPC   C3A16481   2.588   5.896   7.966
  913POPC   C4A16482   2.622   5.817   7.525
  913POPC   C1B16483   2.934   5.426   8.668
  913POPC   C2B16484   2.807   5.555   8.294
  913POPC   C3B16485   3.057   5.651   7.942
  913POPC   C4B16486   3.113   5.967   7.669
  914POPC   NC316487  29.343   0.181   9.469
  914POPC   PO416488  29.323   0.886   9.361
  914POPC   GL116489  29.290   0.529   9.094
  914POPC   GL216490  28.965   0.507   8.986
  914POPC   C1A16491  29.313   0.335   8.673
  914POPC   D2A16492  29.510   0.145   8.312
  914POPC   C3A16493  29.307   0.253   7.928
  914POPC   C4A16494  29.397   0.617   7.739
  914POPC   C1B16495  28.837   0.168   8.733
  914POPC   C2B16496  28.959   0.190   8.325
  914POPC   C3B16497  28.777   0.238   7.977
  914POPC   C4B16498  28.749   0.032   7.654
  915POPC   NC316499  29.513   1.748   9.584
  915POPC   PO416500  28.920   1.958   9.465
  915POPC   GL116501  29.157   1.892   9.113
  915POPC   GL216502  29.479   2.028   9.119
  915POPC   C1A16503  29.029   1.864   8.689
  915POPC   D2A16504  29.102   1.556   8.363
  915POPC   C3A16505  29.024   1.725   7.960
  915POPC   C4A16506  28.906   2.146   7.877
  915POPC   C1B16507  29.407   2.197   8.701
  915POPC   C2B16508  29.306   2.043   8.283
  915POPC   C3B16509  29.414   2.101   7.861
  915POPC   C4B16510  29.421   2.494   7.651
  916POPC   NC316511  32.289  29.434   9.443
  916POPC   PO416512  32.296  30.129   9.584
  916POPC   GL116513  32.200  29.941   9.187
  916POPC   GL216514  31.931  30.161   9.127
  916POPC   C1A16515  32.297  29.848   8.742
  916POPC   D2A16516  32.390  29.597   8.364
  916POPC   C3A16517  32.387  29.849   8.028
  916POPC   C4A16518  32.344  29.922   7.606
  916POPC   C1B16519  31.796  30.003   8.737
  916POPC   C2B16520  31.948  29.887   8.334
  916POPC   C3B16521  31.898  29.724   7.930
  916POPC   C4B16522  31.859  29.881   7.473
  917POPC   NC316523   4.641  10.247   9.715
  917POPC   PO416524   4.314   9.624   9.524
  917POPC   GL116525   4.530   9.836   9.231
  917POPC   GL216526   4.192   9.848   9.066
  917POPC   C1A16527   4.633   9.978   8.807
  917POPC   D2A16528   4.400   9.998   8.379
  917POPC   C3A16529   4.573   9.817   7.975
  917POPC   C4A16530   4.417   9.461   7.811
  917POPC   C1B16531   3.849   9.814   8.746
  917POPC   C2B16532   3.753   9.689   8.304
  917POPC   C3B16533   4.002   9.759   7.898
  917POPC   C4B16534   4.260  10.091   7.654
  918POPC   NC316535  27.884  42.107   9.652
  918POPC   PO416536  27.274  42.289   9.473
  918POPC   GL116537  27.652  42.480   9.308
  918POPC   GL216538  27.745  42.184   9.137
  918POPC   C1A16539  27.686  42.629   8.881
  918POPC   D2A16540  27.488  42.686   8.467
  918POPC   C3A16541  27.553  42.466   8.047
  918POPC   C4A16542  27.821  42.140   7.861
  918POPC   C1B16543  27.474  42.184   8.755
  918POPC   C2B16544  27.494  42.037   8.332
  918POPC   C3B16545  27.339  42.002   7.902
  918POPC   C4B16546  27.445  41.822   7.507
  919POPC   NC316547   2.331   1.095   9.556
  919POPC   PO416548   1.648   0.970   9.539
  919POPC   GL116549   1.888   1.062   9.160
  919POPC   GL216550   2.211   1.269   9.110
  919POPC   C1A16551   1.822   1.290   8.766
  919POPC   D2A16552   1.574   1.359   8.411
  919POPC   C3A16553   1.712   1.269   8.010
  919POPC   C4A16554   1.771   1.074   7.636
  919POPC   C1B16555   2.357   1.405   8.712
  919POPC   C2B16556   2.112   1.425   8.352
  919POPC   C3B16557   2.195   1.460   7.944
  919POPC   C4B16558   2.271   1.173   7.635
  920POPC   NC316559  43.637  39.495   9.629
  920POPC   PO416560  44.054  39.499   9.252
  920POPC   GL116561  43.932  39.173   9.018
  920POPC   GL216562  43.683  39.062   9.260
  920POPC   C1A16563  43.846  39.193   8.585
  920POPC   D2A16564  43.688  39.499   8.271
  920POPC   C3A16565  43.958  39.429   7.934
  920POPC   C4A16566  44.045  39.030   7.740
  920POPC   C1B16567  43.433  39.061   8.867
  920POPC   C2B16568  43.384  39.083   8.393
  920POPC   C3B16569  43.546  39.120   7.947
  920POPC   C4B16570  43.571  39.340   7.537
  921POPC   NC316571  35.852  26.489   9.463
  921POPC   PO416572  35.317  26.754   9.818
  921POPC   GL116573  35.292  26.871   9.245
  921POPC   GL216574  35.523  27.038   9.079
  921POPC   C1A16575  35.267  26.694   8.793
  921POPC   D2A16576  35.180  26.409   8.426
  921POPC   C3A16577  35.210  26.646   8.036
  921POPC   C4A16578  35.139  27.046   7.822
  921POPC   C1B16579  35.610  27.143   8.637
  921POPC   C2B16580  35.522  27.174   8.185
  921POPC   C3B16581  35.640  26.908   7.839
  921POPC   C4B16582  35.450  26.612   7.558
  922POPC   NC316583  12.649   6.921   9.370
  922POPC   PO416584  13.062   6.341   9.551
  922POPC   GL116585  13.021   6.577   9.192
  922POPC   GL216586  12.672   6.551   9.026
  922POPC   C1A16587  13.080   6.690   8.779
  922POPC   D2A16588  12.797   6.696   8.429
  922POPC   C3A16589  13.008   6.808   8.076
  922POPC   C4A16590  13.209   6.574   7.795
  922POPC   C1B16591  12.831   6.250   8.705
  922POPC   C2B16592  12.725   6.179   8.289
  922POPC   C3B16593  12.732   6.425   7.923
  922POPC   C4B16594  12.763   6.344   7.486
  923POPC   NC316595  19.935  29.982   9.566
  923POPC   PO416596  19.355  29.940   9.374
  923POPC   GL116597  19.718  29.951   9.112
  923POPC   GL216598  20.066  29.721   9.155
  923POPC   C1A16599  19.612  30.021   8.721
  923POPC   D2A16600  19.736  30.301   8.461
  923POPC   C3A16601  19.695  30.202   8.021
  923POPC   C4A16602  19.902  30.177   7.613
  923POPC   C1B16603  20.101  29.900   8.762
  923POPC   C2B16604  19.937  29.834   8.363
  923POPC   C3B16605  20.081  29.860   7.973
  923POPC   C4B16606  19.999  29.668   7.579
  924POPC   NC316607  38.612  19.730   9.533
  924POPC   PO416608  37.975  19.859   9.682
  924POPC   GL116609  38.214  19.925   9.256
  924POPC   GL216610  38.534  20.049   9.145
  924POPC   C1A16611  38.214  19.882   8.784
  924POPC   D2A16612  38.381  19.746   8.375
  924POPC   C3A16613  38.273  19.794   7.964
  924POPC   C4A16614  38.516  19.595   7.694
  924POPC   C1B16615  38.734  19.877   8.785
  924POPC   C2B16616  38.941  19.942   8.406
  924POPC   C3B16617  38.764  19.901   8.030
  924POPC   C4B16618  38.541  20.110   7.667
  925POPC   NC316619   9.559  34.909   9.560
  925POPC   PO416620   9.965  34.377   9.454
  925POPC   GL116621   9.685  34.468   9.146
  925POPC   GL216622   9.410  34.260   9.089
  925POPC   C1A16623   9.746  34.382   8.706
  925POPC   D2A16624   9.968  34.254   8.341
  925POPC   C3A16625   9.864  34.536   8.004
  925POPC   C4A16626  10.061  34.899   7.829
  925POPC   C1B16627   9.247  34.318   8.679
  925POPC   C2B16628   9.378  34.471   8.261
  925POPC   C3B16629   9.375  34.440   7.785
  925POPC   C4B16630   9.341  34.422   7.299
  926POPC   NC316631  29.667  43.520   9.397
  926POPC   PO416632  29.557  42.871   9.630
  926POPC   GL116633  29.592  42.932   9.202
  926POPC   GL216634  29.921  43.103   9.212
  926POPC   C1A16635  29.645  43.169   8.797
  926POPC   D2A16636  29.834  43.306   8.457
  926POPC   C3A16637  29.820  42.992   8.156
  926POPC   C4A16638  29.755  43.208   7.789
  926POPC   C1B16639  30.167  43.239   8.859
  926POPC   C2B16640  30.317  43.156   8.445
  926POPC   C3B16641  30.217  43.268   8.022
  926POPC   C4B16642  30.193  42.926   7.743
  927POPC   NC316643  40.809  31.715   9.591
  927POPC   PO416644  41.047  32.361   9.726
  927POPC   GL116645  40.945  32.201   9.289
  927POPC   GL216646  40.677  31.999   9.205
  927POPC   C1A16647  40.942  32.224   8.823
  927POPC   D2A16648  41.108  32.075   8.429
  927POPC   C3A16649  41.028  32.316   8.056
  927POPC   C4A16650  40.682  32.394   7.785
  927POPC   C1B16651  40.475  31.827   8.865
  927POPC   C2B16652  40.627  31.753   8.480
  927POPC   C3B16653  40.595  32.000   8.123
  927POPC   C4B16654  40.401  31.956   7.741
  928POPC   NC316655   4.071  37.100   9.391
  928POPC   PO416656   4.664  37.040   9.674
  928POPC   GL116657   4.672  37.024   9.214
  928POPC   GL216658   4.470  37.306   9.083
  928POPC   C1A16659   4.535  36.861   8.827
  928POPC   D2A16660   4.254  36.930   8.512
  928POPC   C3A16661   4.344  36.740   8.150
  928POPC   C4A16662   4.408  36.884   7.784
  928POPC   C1B16663   4.113  37.345   8.779
  928POPC   C2B16664   3.880  37.292   8.409
  928POPC   C3B16665   4.020  37.123   8.042
  928POPC   C4B16666   3.874  37.218   7.673
  929POPC   NC316667  26.578   0.114   9.535
  929POPC   PO416668  26.889   0.751   9.461
  929POPC   GL116669  26.628   0.600   9.102
  929POPC   GL216670  26.876   0.389   8.954
  929POPC   C1A16671  26.507   0.571   8.649
  929POPC   D2A16672  26.867   0.415   8.381
  929POPC   C3A16673  27.012   0.608   7.970
  929POPC   C4A16674  26.728   0.687   7.633
  929POPC   C1B16675  26.567   0.077   8.746
  929POPC   C2B16676  26.417   0.028   8.322
  929POPC   C3B16677  26.623   0.196   7.955
  929POPC   C4B16678  27.046   0.116   7.855
  930POPC   NC316679   3.392   8.434   9.402
  930POPC   PO416680   4.009   8.099   9.543
  930POPC   GL116681   3.842   8.284   9.154
  930POPC   GL216682   3.703   7.952   9.010
  930POPC   C1A16683   3.571   8.355   8.764
  930POPC   D2A16684   3.717   8.120   8.421
  930POPC   C3A16685   3.541   8.279   8.060
  930POPC   C4A16686   3.273   8.522   7.784
  930POPC   C1B16687   3.358   7.865   8.712
  930POPC   C2B16688   3.216   8.003   8.316
  930POPC   C3B16689   3.197   7.944   7.864
  930POPC   C4B16690   3.314   8.123   7.464
  931POPC   NC316691  16.564  11.484   9.625
  931POPC   PO416692  17.221  11.297   9.587
  931POPC   GL116693  16.882  11.188   9.271
  931POPC   GL216694  16.706  11.509   9.144
  931POPC   C1A16695  16.712  11.087   8.850
  931POPC   D2A16696  16.604  11.302   8.456
  931POPC   C3A16697  16.671  11.083   8.064
  931POPC   C4A16698  16.513  10.963   7.665
  931POPC   C1B16699  16.953  11.550   8.777
  931POPC   C2B16700  17.170  11.321   8.472
  931POPC   C3B16701  17.134  11.450   8.066
  931POPC   C4B16702  16.960  11.331   7.708
  932POPC   NC316703  38.371  43.624   9.475
  932POPC   PO416704  38.522  43.010   9.805
  932POPC   GL116705  38.580  43.148   9.350
  932POPC   GL216706  38.804  43.435   9.266
  932POPC   C1A16707  38.429  43.201   8.905
  932POPC   D2A16708  38.578  43.075   8.499
  932POPC   C3A16709  38.453  43.166   8.094
  932POPC   C4A16710  38.514  42.944   7.709
  932POPC   C1B16711  38.875  43.467   8.810
  932POPC   C2B16712  38.991  43.386   8.370
  932POPC   C3B16713  38.930  43.317   7.934
  932POPC   C4B16714  38.613  43.448   7.685
  933POPC   NC316715  12.524  42.813   9.323
  933POPC   PO416716  13.078  43.117   9.507
  933POPC   GL116717  12.852  43.174   9.155
  933POPC   GL216718  12.982  42.822   9.080
  933POPC   C1A16719  12.682  43.079   8.731
  933POPC   D2A16720  12.518  43.066   8.300
  933POPC   C3A16721  12.732  43.230   7.915
  933POPC   C4A16722  12.697  42.984   7.548
  933POPC   C1B16723  13.184  43.139   8.780
  933POPC   C2B16724  13.038  43.195   8.350
  933POPC   C3B16725  13.173  42.985   7.954
  933POPC   C4B16726  13.251  43.052   7.529
  934POPC   NC316727  37.587  11.810   9.299
  934POPC   PO416728  37.680  12.526   9.410
  934POPC   GL116729  37.894  12.287   9.128
  934POPC   GL216730  37.544  12.228   9.020
  934POPC   C1A16731  37.923  12.090   8.729
  934POPC   D2A16732  37.781  11.867   8.385
  934POPC   C3A16733  37.701  12.048   7.970
  934POPC   C4A16734  37.748  11.814   7.634
  934POPC   C1B16735  37.359  12.042   8.675
  934POPC   C2B16736  37.275  12.020   8.254
  934POPC   C3B16737  37.189  11.837   7.867
  934POPC   C4B16738  37.287  11.880   7.442
  935POPC   NC316739   3.039  19.374   9.508
  935POPC   PO416740   2.495  18.975   9.705
  935POPC   GL116741   2.620  19.129   9.251
  935POPC   GL216742   2.968  19.083   9.102
  935POPC   C1A16743   2.592  18.936   8.808
  935POPC   D2A16744   2.451  18.861   8.395
  935POPC   C3A16745   2.568  19.039   8.014
  935POPC   C4A16746   2.838  18.863   7.745
  935POPC   C1B16747   3.009  19.355   8.730
  935POPC   C2B16748   2.872  19.355   8.305
  935POPC   C3B16749   2.978  19.333   7.886
  935POPC   C4B16750   3.215  19.334   7.504
  936POPC   NC316751  12.401   0.159   9.470
  936POPC   PO416752  11.763   0.345   9.631
  936POPC   GL116753  11.948   0.433   9.231
  936POPC   GL216754  11.955   0.132   9.043
  936POPC   C1A16755  12.002   0.629   8.832
  936POPC   D2A16756  12.159   0.400   8.468
  936POPC   C3A16757  12.053   0.554   8.064
  936POPC   C4A16758  11.921   0.482   7.636
  936POPC   C1B16759  12.311  44.956   8.788
  936POPC   C2B16760  12.289  44.840   8.362
  936POPC   C3B16761  12.181   0.079   8.000
  936POPC   C4B16762  12.402   0.415   7.735
  937POPC   NC316763   7.830  23.511   9.512
  937POPC   PO416764   8.515  23.598   9.466
  937POPC   GL116765   8.206  23.459   9.134
  937POPC   GL216766   8.366  23.753   8.984
  937POPC   C1A16767   8.045  23.540   8.660
  937POPC   D2A16768   8.281  23.558   8.241
  937POPC   C3A16769   8.117  23.439   7.826
  937POPC   C4A16770   7.776  23.545   7.532
  937POPC   C1B16771   8.717  23.775   8.679
  937POPC   C2B16772   8.733  23.811   8.219
  937POPC   C3B16773   8.478  23.859   7.842
  937POPC   C4B16774   8.055  23.951   7.698
  938POPC   NC316775   2.058  21.384   9.580
  938POPC   PO416776   2.431  21.787   9.204
  938POPC   GL116777   2.203  21.395   9.096
  938POPC   GL216778   1.802  21.334   9.136
  938POPC   C1A16779   2.118  21.090   8.790
  938POPC   D2A16780   2.362  20.960   8.453
  938POPC   C3A16781   2.346  21.273   8.174
  938POPC   C4A16782   2.185  21.445   7.812
  938POPC   C1B16783   1.596  21.436   8.727
  938POPC   C2B16784   1.831  21.445   8.286
  938POPC   C3B16785   1.690  21.384   7.810
  938POPC   C4B16786   1.549  21.492   7.354
  939POPC   NC316787  43.413   1.752   9.374
  939POPC   PO416788  43.103   2.310   9.390
  939POPC   GL116789  43.020   2.140   9.008
  939POPC   GL216790  42.678   2.239   8.928
  939POPC   C1A16791  43.185   1.815   8.737
  939POPC   D2A16792  43.413   1.784   8.337
  939POPC   C3A16793  43.260   1.948   7.953
  939POPC   C4A16794  43.306   2.316   7.680
  939POPC   C1B16795  42.692   1.961   8.618
  939POPC   C2B16796  43.001   2.132   8.367
  939POPC   C3B16797  42.892   2.334   7.982
  939POPC   C4B16798  42.650   2.385   7.631
  940POPC   NC316799   9.899  44.232   9.520
  940POPC   PO416800   9.690  43.629   9.599
  940POPC   GL116801   9.655  43.840   9.174
  940POPC   GL216802   9.468  44.140   9.178
  940POPC   C1A16803   9.722  43.620   8.764
  940POPC   D2A16804   9.804  43.377   8.416
  940POPC   C3A16805   9.749  43.626   8.069
  940POPC   C4A16806   9.614  43.538   7.669
  940POPC   C1B16807   9.734  44.159   8.776
  940POPC   C2B16808   9.902  44.170   8.344
  940POPC   C3B16809   9.713  44.283   7.949
  940POPC   C4B16810   9.653  44.069   7.565
  941POPC   NC316811  11.297  17.425   9.542
  941POPC   PO416812  10.796  17.893   9.452
  941POPC   GL116813  11.055  17.620   9.131
  941POPC   GL216814  11.447  17.633   9.096
  941POPC   C1A16815  11.167  17.450   8.721
  941POPC   D2A16816  11.041  17.604   8.331
  941POPC   C3A16817  10.981  17.360   7.978
  941POPC   C4A16818  11.348  17.294   7.763
  941POPC   C1B16819  11.462  17.925   8.734
  941POPC   C2B16820  11.651  18.086   8.346
  941POPC   C3B16821  11.625  17.859   7.950
  941POPC   C4B16822  11.301  17.783   7.646
  942POPC   NC316823  30.891  18.816   9.456
  942POPC   PO416824  31.339  19.259   9.153
  942POPC   GL116825  31.035  18.979   8.924
  942POPC   GL216826  30.756  19.040   9.016
  942POPC   C1A16827  30.814  18.707   8.610
  942POPC   D2A16828  30.585  18.855   8.226
  942POPC   C3A16829  30.841  18.957   7.840
  942POPC   C4A16830  30.875  19.225   7.447
  942POPC   C1B16831  30.571  19.171   8.636
  942POPC   C2B16832  30.635  19.355   8.207
  942POPC   C3B16833  30.443  19.250   7.798
  942POPC   C4B16834  30.297  19.299   7.385
  943POPC   NC316835  24.160   2.709   9.334
  943POPC   PO416836  23.489   3.057   9.421
  943POPC   GL116837  23.720   2.843   9.118
  943POPC   GL216838  23.995   3.051   8.978
  943POPC   C1A16839  23.820   2.588   8.756
  943POPC   D2A16840  23.602   2.593   8.356
  943POPC   C3A16841  23.834   2.696   7.973
  943POPC   C4A16842  23.657   2.599   7.572
  943POPC   C1B16843  23.646   3.071   8.659
  943POPC   C2B16844  23.641   3.111   8.224
  943POPC   C3B16845  23.844   3.220   7.862
  943POPC   C4B16846  24.016   2.977   7.548
  944POPC   NC316847  35.086  25.961   9.403
  944POPC   PO416848  34.510  26.173   9.710
  944POPC   GL116849  34.623  26.089   9.186
  944POPC   GL216850  34.845  25.839   8.999
  944POPC   C1A16851  34.691  26.240   8.723
  944POPC   D2A16852  34.651  26.373   8.270
  944POPC   C3A16853  34.700  26.054   7.938
  944POPC   C4A16854  34.302  25.837   7.750
  944POPC   C1B16855  34.470  25.775   8.787
  944POPC   C2B16856  34.500  25.756   8.341
  944POPC   C3B16857  34.709  25.550   8.005
  944POPC   C4B16858  34.754  25.677   7.581
  945POPC   NC316859  39.693  29.008   9.538
  945POPC   PO416860  40.351  29.289   9.575
  945POPC   GL116861  40.168  29.279   9.159
  945POPC   GL216862  39.820  29.243   9.117
  945POPC   C1A16863  40.210  29.306   8.717
  945POPC   D2A16864  39.910  29.341   8.437
  945POPC   C3A16865  40.078  29.293   8.040
  945POPC   C4A16866  39.785  29.196   7.751
  945POPC   C1B16867  39.844  28.962   8.782
  945POPC   C2B16868  40.083  28.860   8.432
  945POPC   C3B16869  39.973  28.781   8.015
  945POPC   C4B16870  40.201  28.932   7.676
  946POPC   NC316871  12.524  36.547   9.529
  946POPC   PO416872  11.870  36.731   9.627
  946POPC   GL116873  12.052  36.603   9.270
  946POPC   GL216874  12.269  36.887   9.221
  946POPC   C1A16875  11.848  36.643   8.859
  946POPC   D2A16876  11.870  36.870   8.470
  946POPC   C3A16877  11.662  36.652   8.179
  946POPC   C4A16878  11.793  36.655   7.803
  946POPC   C1B16879  12.209  37.052   8.809
  946POPC   C2B16880  12.278  37.194   8.388
  946POPC   C3B16881  12.192  37.097   7.983
  946POPC   C4B16882  12.460  36.884   7.650
  947POPC   NC316883  28.010  44.463   9.539
  947POPC   PO416884  28.478  44.895   9.655
  947POPC   GL116885  28.418  44.662   9.254
  947POPC   GL216886  28.607  44.914   9.108
  947POPC   C1A16887  28.359  44.499   8.818
  947POPC   D2A16888  28.449  44.256   8.449
  947POPC   C3A16889  28.227  44.422   8.092
  947POPC   C4A16890  28.349  44.520   7.681
  947POPC   C1B16891  28.337  44.998   8.798
  947POPC   C2B16892  28.198  44.825   8.410
  947POPC   C3B16893  28.361  44.916   7.999
  947POPC   C4B16894  28.247   0.017   7.564
  948POPC   NC316895  20.260  31.339   9.295
  948POPC   PO416896  19.621  31.369   9.586
  948POPC   GL116897  19.807  31.576   9.231
  948POPC   GL216898  19.786  31.288   9.114
  948POPC   C1A16899  19.954  31.546   8.740
  948POPC   D2A16900  20.070  31.713   8.366
  948POPC   C3A16901  19.873  31.522   8.041
  948POPC   C4A16902  19.903  31.634   7.615
  948POPC   C1B16903  19.519  31.262   8.788
  948POPC   C2B16904  19.679  31.177   8.409
  948POPC   C3B16905  19.514  31.124   8.036
  948POPC   C4B16906  19.742  31.150   7.687
  949POPC   NC316907  43.730  27.232   9.350
  949POPC   PO416908  43.304  27.717   9.562
  949POPC   GL116909  43.104  27.655   9.151
  949POPC   GL216910  42.797  27.815   9.056
  949POPC   C1A16911  43.274  27.771   8.726
  949POPC   D2A16912  43.483  27.751   8.318
  949POPC   C3A16913  43.241  27.805   7.964
  949POPC   C4A16914  42.961  27.545   7.756
  949POPC   C1B16915  42.797  27.576   8.729
  949POPC   C2B16916  42.919  27.667   8.318
  949POPC   C3B16917  42.728  27.919   7.989
  949POPC   C4B16918  42.483  27.765   7.671
  950POPC   NC316919  10.153  34.762   9.275
  950POPC   PO416920  10.665  34.462   9.396
  950POPC   GL116921  10.510  34.385   9.022
  950POPC   GL216922  10.181  34.296   8.994
  950POPC   C1A16923  10.409  34.626   8.639
  950POPC   D2A16924  10.678  34.798   8.320
  950POPC   C3A16925  10.541  34.722   7.888
  950POPC   C4A16926  10.485  35.018   7.524
  950POPC   C1B16927  10.394  34.124   8.612
  950POPC   C2B16928  10.477  34.316   8.201
  950POPC   C3B16929  10.282  34.300   7.774
  950POPC   C4B16930  10.231  34.133   7.329
  951POPC   NC316931  42.722  19.445   9.531
  951POPC   PO416932  42.147  19.029   9.561
  951POPC   GL116933  42.357  19.183   9.214
  951POPC   GL216934  42.494  18.816   9.201
  951POPC   C1A16935  42.273  19.412   8.810
  951POPC   D2A16936  42.425  19.350   8.386
  951POPC   C3A16937  42.206  19.282   7.995
  951POPC   C4A16938  42.362  19.155   7.553
  951POPC   C1B16939  42.362  18.907   8.775
  951POPC   C2B16940  42.427  18.765   8.368
  951POPC   C3B16941  42.471  18.847   7.945
  951POPC   C4B16942  42.708  18.782   7.568
  952POPC   NC316943  20.088  28.274   9.765
  952POPC   PO416944  19.794  28.712   9.359
  952POPC   GL116945  19.947  28.312   9.200
  952POPC   GL216946  19.661  28.140   9.224
  952POPC   C1A16947  20.058  28.322   8.758
  952POPC   D2A16948  20.178  28.482   8.314
  952POPC   C3A16949  20.056  28.456   7.866
  952POPC   C4A16950  19.743  28.667   7.579
  952POPC   C1B16951  19.563  28.310   8.804
  952POPC   C2B16952  19.703  28.109   8.459
  952POPC   C3B16953  19.810  28.068   8.080
  952POPC   C4B16954  19.559  28.222   7.766
  953POPC   NC316955  44.061  32.394   9.560
  953POPC   PO416956  43.628  32.751   9.291
  953POPC   GL116957  44.027  32.620   9.085
  953POPC   GL216958  44.213  32.913   9.058
  953POPC   C1A16959  44.152  32.585   8.649
  953POPC   D2A16960  43.884  32.729   8.309
  953POPC   C3A16961  43.960  32.907   7.884
  953POPC   C4A16962  43.768  32.918   7.472
  953POPC   C1B16963  44.094  33.099   8.641
  953POPC   C2B16964  44.290  33.099   8.222
  953POPC   C3B16965  44.460  33.017   7.787
  953POPC   C4B16966  44.674  33.075   7.371
  954POPC   NC316967  44.142  31.782   9.499
  954POPC   PO416968  43.633  32.241   9.668
  954POPC   GL116969  43.690  32.247   9.199
  954POPC   GL216970  44.035  32.111   9.142
  954POPC   C1A16971  43.755  32.217   8.735
  954POPC   D2A16972  43.625  31.998   8.356
  954POPC   C3A16973  43.727  32.303   8.060
  954POPC   C4A16974  43.890  32.456   7.669
  954POPC   C1B16975  44.245  32.105   8.786
  954POPC   C2B16976  44.140  32.144   8.350
  954POPC   C3B16977  44.189  32.097   7.897
  954POPC   C4B16978  44.306  32.278   7.455
  955POPC   NC316979  24.952  33.772   9.312
  955POPC   PO416980  25.463  33.940   9.603
  955POPC   GL116981  25.436  33.691   9.167
  955POPC   GL216982  25.214  33.387   9.122
  955POPC   C1A16983  25.196  33.697   8.717
  955POPC   D2A16984  24.994  33.650   8.302
  955POPC   C3A16985  25.333  33.792   8.033
  955POPC   C4A16986  25.419  33.941   7.609
  955POPC   C1B16987  25.543  33.345   8.815
  955POPC   C2B16988  25.369  33.297   8.412
  955POPC   C3B16989  25.518  33.306   8.051
  955POPC   C4B16990  25.668  33.520   7.711
  956POPC   NC316991  28.173  34.967   9.473
  956POPC   PO416992  28.296  34.276   9.519
  956POPC   GL116993  28.253  34.545   9.192
  956POPC   GL216994  28.545  34.736   9.173
  956POPC   C1A16995  28.128  34.617   8.766
  956POPC   D2A16996  28.308  34.686   8.406
  956POPC   C3A16997  28.160  34.538   8.031
  956POPC   C4A16998  28.163  34.741   7.644
  956POPC   C1B16999  28.595  34.465   8.830
  956POPC   C2B17000  28.773  34.476   8.441
  956POPC   C3B17001  28.679  34.659   8.064
  956POPC   C4B17002  28.862  34.548   7.739
  957POPC   NC317003  11.078  29.454   9.331
  957POPC   PO417004  11.547  29.100   9.715
  957POPC   GL117005  11.549  29.262   9.208
  957POPC   GL217006  11.390  29.031   8.955
  957POPC   C1A17007  11.456  29.440   8.711
  957POPC   D2A17008  11.309  29.230   8.342
  957POPC   C3A17009  11.341  29.439   7.962
  957POPC   C4A17010  11.287  29.114   7.639
  957POPC   C1B17011  10.981  29.241   8.737
  957POPC   C2B17012  10.821  29.380   8.339
  957POPC   C3B17013  10.882  29.234   7.929
  957POPC   C4B17014  10.755  29.036   7.566
  958POPC   NC317015   2.206  19.465   9.654
  958POPC   PO417016   1.783  19.974   9.455
  958POPC   GL117017   2.044  19.781   9.121
  958POPC   GL217018   2.245  19.480   9.149
  958POPC   C1A17019   2.069  19.700   8.665
  958POPC   D2A17020   2.218  19.856   8.261
  958POPC   C3A17021   1.986  19.793   7.891
  958POPC   C4A17022   1.845  20.082   7.555
  958POPC   C1B17023   2.496  19.437   8.784
  958POPC   C2B17024   2.373  19.387   8.342
  958POPC   C3B17025   2.551  19.618   7.957
  958POPC   C4B17026   2.379  19.736   7.544
  959POPC   NC317027  14.322  27.485   9.622
  959POPC   PO417028  14.601  28.035   9.785
  959POPC   GL117029  14.411  27.842   9.274
  959POPC   GL217030  14.354  27.492   9.132
  959POPC   C1A17031  14.589  27.753   8.779
  959POPC   D2A17032  14.412  27.585   8.374
  959POPC   C3A17033  14.613  27.667   7.972
  959POPC   C4A17034  14.586  27.806   7.565
  959POPC   C1B17035  14.052  27.197   8.954
  959POPC   C2B17036  14.025  27.103   8.506
  959POPC   C3B17037  14.127  27.254   8.087
  959POPC   C4B17038  14.100  27.649   7.823
  960POPC   NC317039  41.240   6.793   9.548
  960POPC   PO417040  41.747   6.441   9.345
  960POPC   GL117041  41.705   6.825   9.123
  960POPC   GL217042  41.339   6.897   9.065
  960POPC   C1A17043  41.666   6.969   8.689
  960POPC   D2A17044  41.392   6.882   8.335
  960POPC   C3A17045  41.431   7.066   7.928
  960POPC   C4A17046  41.320   6.762   7.604
  960POPC   C1B17047  41.315   6.549   8.729
  960POPC   C2B17048  41.453   6.380   8.309
  960POPC   C3B17049  41.647   6.560   7.955
  960POPC   C4B17050  41.922   6.924   7.905
  961POPC   NC317051  40.782  11.500   9.596
  961POPC   PO417052  40.417  10.839   9.467
  961POPC   GL117053  40.669  11.152   9.145
  961POPC   GL217054  40.869  11.500   9.118
  961POPC   C1A17055  40.646  11.342   8.707
  961POPC   D2A17056  40.692  11.335   8.272
  961POPC   C3A17057  40.472  11.564   7.944
  961POPC   C4A17058  40.511  11.181   7.778
  961POPC   C1B17059  41.142  11.440   8.822
  961POPC   C2B17060  41.196  11.463   8.426
  961POPC   C3B17061  41.144  11.130   8.151
  961POPC   C4B17062  41.045  11.065   7.747
  962POPC   NC317063   4.978  43.274   9.607
  962POPC   PO417064   5.254  42.635   9.630
  962POPC   GL117065   5.019  42.819   9.255
  962POPC   GL217066   4.666  42.968   9.278
  962POPC   C1A17067   5.097  42.919   8.775
  962POPC   D2A17068   5.141  43.022   8.301
  962POPC   C3A17069   4.868  42.964   7.948
  962POPC   C4A17070   4.932  43.295   7.670
  962POPC   C1B17071   4.774  43.341   9.002
  962POPC   C2B17072   4.840  43.336   8.577
  962POPC   C3B17073   4.890  43.455   8.168
  962POPC   C4B17074   4.598  43.626   7.906
  963POPC   NC317075  21.810  11.782   9.485
  963POPC   PO417076  21.294  12.251   9.560
  963POPC   GL117077  21.395  12.021   9.212
  963POPC   GL217078  21.682  12.231   9.192
  963POPC   C1A17079  21.382  11.987   8.760
  963POPC   D2A17080  21.263  12.174   8.361
  963POPC   C3A17081  21.421  11.960   7.992
  963POPC   C4A17082  21.221  11.841   7.632
  963POPC   C1B17083  21.760  12.377   8.785
  963POPC   C2B17084  21.700  12.536   8.367
  963POPC   C3B17085  21.691  12.420   7.963
  963POPC   C4B17086  21.588  12.244   7.596
  964POPC   NC317087  30.036  42.812   9.617
  964POPC   PO417088  29.734  42.219   9.848
  964POPC   GL117089  29.749  42.419   9.380
  964POPC   GL217090  29.645  42.159   9.110
  964POPC   C1A17091  29.848  42.585   8.915
  964POPC   D2A17092  29.734  42.471   8.452
  964POPC   C3A17093  29.881  42.463   8.034
  964POPC   C4A17094  29.736  42.693   7.713
  964POPC   C1B17095  29.809  42.047   8.725
  964POPC   C2B17096  29.971  42.018   8.309
  964POPC   C3B17097  30.071  41.903   7.852
  964POPC   C4B17098  30.059  42.048   7.401
  965POPC   NC317099   8.331   0.664   9.347
  965POPC   PO417100   8.086   0.130   9.257
  965POPC   GL117101   8.000   0.483   9.010
  965POPC   GL217102   8.332   0.586   8.849
  965POPC   C1A17103   7.868   0.553   8.614
  965POPC   D2A17104   8.192   0.586   8.302
  965POPC   C3A17105   8.209   0.408   7.894
  965POPC   C4A17106   8.489   0.076   7.791
  965POPC   C1B17107   8.221   0.959   8.653
  965POPC   C2B17108   8.067   1.089   8.259
  965POPC   C3B17109   8.279   0.905   7.920
  965POPC   C4B17110   8.155   0.754   7.480
  966POPC   NC317111  17.540  11.645   9.475
  966POPC   PO417112  17.706  11.046   9.325
  966POPC   GL117113  17.456  11.063   9.020
  966POPC   GL217114  17.322  11.370   9.068
  966POPC   C1A17115  17.526  10.947   8.611
  966POPC   D2A17116  17.785  10.941   8.267
  966POPC   C3A17117  17.588  11.220   8.014
  966POPC   C4A17118  17.535  11.022   7.671
  966POPC   C1B17119  17.474  11.654   8.733
  966POPC   C2B17120  17.470  11.800   8.287
  966POPC   C3B17121  17.697  11.737   7.924
  966POPC   C4B17122  17.426  11.546   7.622
  967POPC   NC317123  10.827  15.037   9.538
  967POPC   PO417124  11.463  15.359   9.607
  967POPC   GL117125  11.284  15.348   9.155
  967POPC   GL217126  11.084  15.073   9.054
  967POPC   C1A17127  11.484  15.232   8.725
  967POPC   D2A17128  11.621  15.491   8.390
  967POPC   C3A17129  11.368  15.446   8.026
  967POPC   C4A17130  11.439  15.342   7.603
  967POPC   C1B17131  11.007  15.229   8.608
  967POPC   C2B17132  11.163  14.998   8.248
  967POPC   C3B17133  11.372  14.912   7.840
  967POPC   C4B17134  11.204  14.982   7.336
  968POPC   NC317135  10.912   0.439   9.440
  968POPC   PO417136  10.388   0.744   9.749
  968POPC   GL117137  10.442   0.610   9.292
  968POPC   GL217138  10.438   0.253   9.236
  968POPC   C1A17139  10.652   0.653   8.845
  968POPC   D2A17140  10.600   0.475   8.411
  968POPC   C3A17141  10.669   0.609   7.968
  968POPC   C4A17142  10.795   0.233   7.725
  968POPC   C1B17143  10.265   0.254   8.803
  968POPC   C2B17144  10.173   0.076   8.384
  968POPC   C3B17145  10.319   0.219   7.981
  968POPC   C4B17146  10.336   0.403   7.589
  969POPC   NC317147   1.620  33.227   9.546
  969POPC   PO417148   0.972  33.296   9.536
  969POPC   GL117149   1.180  32.929   9.249
  969POPC   GL217150   1.548  32.944   9.105
  969POPC   C1A17151   1.183  32.760   8.796
  969POPC   D2A17152   1.504  32.860   8.484
  969POPC   C3A17153   1.482  32.800   8.045
  969POPC   C4A17154   1.147  32.737   7.792
  969POPC   C1B17155   1.402  33.258   8.783
  969POPC   C2B17156   1.371  33.325   8.305
  969POPC   C3B17157   1.258  33.251   7.854
  969POPC   C4B17158   1.129  33.541   7.491
  970POPC   NC317159  14.080   3.551   9.592
  970POPC   PO417160  14.623   3.128   9.647
  970POPC   GL117161  14.591   3.432   9.257
  970POPC   GL217162  14.654   3.799   9.211
  970POPC   C1A17163  14.327   3.533   8.880
  970POPC   D2A17164  14.323   3.340   8.472
  970POPC   C3A17165  14.306   3.562   8.101
  970POPC   C4A17166  14.274   3.552   7.665
  970POPC   C1B17167  14.774   3.769   8.761
  970POPC   C2B17168  14.697   3.877   8.325
  970POPC   C3B17169  14.572   3.933   7.890
  970POPC   C4B17170  14.668   3.828   7.456
  971POPC   NC317171   9.338  40.389   9.638
  971POPC   PO417172   8.863  40.813   9.524
  971POPC   GL117173   8.968  40.548   9.197
  971POPC   GL217174   9.311  40.581   9.151
  971POPC   C1A17175   8.970  40.469   8.741
  971POPC   D2A17176   9.002  40.776   8.373
  971POPC   C3A17177   8.969  40.609   7.968
  971POPC   C4A17178   8.669  40.641   7.652
  971POPC   C1B17179   9.278  40.899   8.829
  971POPC   C2B17180   9.481  40.927   8.417
  971POPC   C3B17181   9.324  41.007   8.002
  971POPC   C4B17182   9.003  41.069   7.698
  972POPC   NC317183  23.140  31.845   9.427
  972POPC   PO417184  23.022  32.596   9.471
  972POPC   GL117185  22.944  32.350   9.134
  972POPC   GL217186  22.644  32.417   8.990
  972POPC   C1A17187  23.020  32.223   8.699
  972POPC   D2A17188  22.905  32.091   8.289
  972POPC   C3A17189  23.234  32.158   8.073
  972POPC   C4A17190  23.344  32.240   7.693
  972POPC   C1B17191  22.517  32.283   8.570
  972POPC   C2B17192  22.419  31.895   8.277
  972POPC   C3B17193  22.661  31.808   7.931
  972POPC   C4B17194  22.859  32.117   7.742
  973POPC   NC317195  18.339   6.019   9.570
  973POPC   PO417196  17.931   5.440   9.572
  973POPC   GL117197  17.934   5.749   9.277
  973POPC   GL217198  18.273   5.675   9.214
  973POPC   C1A17199  17.977   5.847   8.849
  973POPC   D2A17200  18.192   5.788   8.458
  973POPC   C3A17201  18.065   6.040   8.074
  973POPC   C4A17202  18.292   6.283   7.725
  973POPC   C1B17203  18.516   5.868   8.904
  973POPC   C2B17204  18.705   5.796   8.515
  973POPC   C3B17205  18.566   5.935   8.112
  973POPC   C4B17206  18.674   5.897   7.697
  974POPC   NC317207  30.837   0.085   9.554
  974POPC   PO417208  30.965   0.687   9.366
  974POPC   GL117209  30.622   0.566   9.129
  974POPC   GL217210  30.634   0.201   9.101
  974POPC   C1A17211  30.616   0.714   8.710
  974POPC   D2A17212  30.779   0.595   8.299
  974POPC   C3A17213  30.503   0.708   7.959
  974POPC   C4A17214  30.472   0.581   7.524
  974POPC   C1B17215  30.801   0.225   8.675
  974POPC   C2B17216  30.944   0.111   8.236
  974POPC   C3B17217  30.787   0.266   7.831
  974POPC   C4B17218  30.930   0.213   7.384
  975POPC   NC317219  21.360  41.114  10.046
  975POPC   PO417220  21.175  40.673   9.535
  975POPC   GL117221  21.303  40.807   9.102
  975POPC   GL217222  21.078  41.037   8.954
  975POPC   C1A17223  21.436  40.644   8.718
  975POPC   D2A17224  21.283  40.627   8.282
  975POPC   C3A17225  21.544  40.638   7.919
  975POPC   C4A17226  21.516  40.519   7.465
  975POPC   C1B17227  21.266  41.084   8.557
  975POPC   C2B17228  21.658  40.983   8.365
  975POPC   C3B17229  21.817  41.057   7.953
  975POPC   C4B17230  21.535  41.108   7.613
  976POPC   NC317231   2.919  32.546   9.427
  976POPC   PO417232   2.830  33.218   9.545
  976POPC   GL117233   2.874  33.015   9.177
  976POPC   GL217234   2.516  32.931   9.155
  976POPC   C1A17235   2.804  32.835   8.767
  976POPC   D2A17236   2.442  32.897   8.468
  976POPC   C3A17237   2.600  32.897   8.035
  976POPC   C4A17238   2.938  32.871   7.759
  976POPC   C1B17239   2.579  33.287   8.818
  976POPC   C2B17240   2.451  33.475   8.432
  976POPC   C3B17241   2.327  33.320   8.021
  976POPC   C4B17242   2.510  33.227   7.613
  977POPC   NC317243  32.424   2.509   9.214
  977POPC   PO417244  31.869   2.824   9.399
  977POPC   GL117245  32.073   2.889   9.089
  977POPC   GL217246  32.295   3.130   9.197
  977POPC   C1A17247  32.052   2.710   8.712
  977POPC   D2A17248  32.375   2.497   8.518
  977POPC   C3A17249  32.206   2.410   8.126
  977POPC   C4A17250  32.108   2.631   7.758
  977POPC   C1B17251  32.457   3.025   8.776
  977POPC   C2B17252  32.297   2.979   8.360
  977POPC   C3B17253  32.380   2.997   7.944
  977POPC   C4B17254  32.520   3.297   7.650
  978POPC   NC317255   3.210  18.537   9.575
  978POPC   PO417256   2.533  18.317   9.597
  978POPC   GL117257   2.773  18.151   9.210
  978POPC   GL217258   3.160  18.174   9.208
  978POPC   C1A17259   2.938  18.084   8.773
  978POPC   D2A17260   3.174  18.189   8.440
  978POPC   C3A17261   3.023  18.042   8.065
  978POPC   C4A17262   2.783  18.207   7.747
  978POPC   C1B17263   2.997  18.568   8.949
  978POPC   C2B17264   2.973  18.725   8.514
  978POPC   C3B17265   3.027  18.565   8.106
  978POPC   C4B17266   3.220  18.475   7.736
  979POPC   NC317267   8.894  37.445   9.202
  979POPC   PO417268   9.455  37.816   9.348
  979POPC   GL117269   9.206  37.822   8.961
  979POPC   GL217270   9.383  37.519   8.835
  979POPC   C1A17271   8.768  37.897   8.708
  979POPC   D2A17272   8.449  37.996   8.354
  979POPC   C3A17273   8.719  37.966   7.984
  979POPC   C4A17274   9.132  37.775   7.934
  979POPC   C1B17275   9.145  37.622   8.478
  979POPC   C2B17276   8.764  37.542   8.271
  979POPC   C3B17277   8.723  37.446   7.848
  979POPC   C4B17278   9.011  37.438   7.500
  980POPC   NC317279  31.292  17.901   9.431
  980POPC   PO417280  31.668  17.319   9.641
  980POPC   GL117281  31.515  17.382   9.239
  980POPC   GL217282  31.699  17.635   9.177
  980POPC   C1A17283  31.479  17.262   8.811
  980POPC   D2A17284  31.271  17.310   8.414
  980POPC   C3A17285  31.409  17.129   8.057
  980POPC   C4A17286  31.437  17.271   7.652
  980POPC   C1B17287  31.673  17.794   8.803
  980POPC   C2B17288  31.506  17.810   8.416
  980POPC   C3B17289  31.517  17.653   8.034
  980POPC   C4B17290  31.425  17.831   7.650
  981POPC   NC317291  16.204  12.249   9.367
  981POPC   PO417292  15.711  11.874   9.509
  981POPC   GL117293  15.903  11.915   9.136
  981POPC   GL217294  15.860  12.265   8.982
  981POPC   C1A17295  16.000  11.793   8.764
  981POPC   D2A17296  15.880  12.020   8.428
  981POPC   C3A17297  15.769  11.716   8.162
  981POPC   C4A17298  15.989  11.823   7.849
  981POPC   C1B17299  16.251  12.269   8.731
  981POPC   C2B17300  16.373  12.365   8.334
  981POPC   C3B17301  16.155  12.316   7.970
  981POPC   C4B17302  15.778  12.323   7.752
  982POPC   NC317303  21.578  12.649   9.585
  982POPC   PO417304  20.958  12.909   9.377
  982POPC   GL117305  21.301  12.667   9.160
  982POPC   GL217306  21.633  12.802   9.097
  982POPC   C1A17307  21.332  12.620   8.706
  982POPC   D2A17308  21.223  12.670   8.272
  982POPC   C3A17309  21.428  12.833   7.878
  982POPC   C4A17310  21.200  13.065   7.556
  982POPC   C1B17311  21.826  12.908   8.692
  982POPC   C2B17312  21.762  13.026   8.251
  982POPC   C3B17313  21.964  12.872   7.889
  982POPC   C4B17314  21.923  12.632   7.521
  983POPC   NC317315  23.387   0.089   9.350
  983POPC   PO417316  23.667   0.747   9.514
  983POPC   GL117317  23.476   0.584   9.150
  983POPC   GL217318  23.802   0.509   9.063
  983POPC   C1A17319  23.481   0.449   8.692
  983POPC   D2A17320  23.613   0.636   8.289
  983POPC   C3A17321  23.520   0.436   7.866
  983POPC   C4A17322  23.755   0.318   7.480
  983POPC   C1B17323  23.978   0.669   8.715
  983POPC   C2B17324  24.111   0.469   8.303
  983POPC   C3B17325  24.017   0.204   7.908
  983POPC   C4B17326  24.272   0.263   7.485
  984POPC   NC317327  11.345  29.498   9.792
  984POPC   PO417328  10.929  29.915   9.454
  984POPC   GL117329  11.209  29.998   9.121
  984POPC   GL217330  11.446  29.761   9.083
  984POPC   C1A17331  11.160  30.030   8.690
  984POPC   D2A17332  11.257  29.809   8.332
  984POPC   C3A17333  11.091  30.000   7.963
  984POPC   C4A17334  10.896  29.698   7.716
  984POPC   C1B17335  11.681  29.889   8.688
  984POPC   C2B17336  11.755  29.862   8.232
  984POPC   C3B17337  11.556  29.878   7.797
  984POPC   C4B17338  11.345  29.596   7.471
  985POPC   NC317339  30.044  14.002   9.515
  985POPC   PO417340  29.763  14.683   9.483
  985POPC   GL117341  30.060  14.563   9.132
  985POPC   GL217342  29.910  14.250   9.094
  985POPC   C1A17343  30.041  14.441   8.650
  985POPC   D2A17344  29.776  14.704   8.387
  985POPC   C3A17345  29.906  14.571   7.997
  985POPC   C4A17346  30.025  14.190   7.845
  985POPC   C1B17347  29.600  14.510   8.858
  985POPC   C2B17348  29.366  14.419   8.496
  985POPC   C3B17349  29.446  14.380   8.079
  985POPC   C4B17350  29.474  14.636   7.728
  986POPC   NC317351  38.838  15.714   9.515
  986POPC   PO417352  38.355  16.181   9.863
  986POPC   GL117353  38.341  16.024   9.411
  986POPC   GL217354  38.647  16.120   9.240
  986POPC   C1A17355  38.203  16.014   8.950
  986POPC   D2A17356  38.266  16.215   8.535
  986POPC   C3A17357  38.245  15.985   8.151
  986POPC   C4A17358  38.308  16.118   7.744
  986POPC   C1B17359  38.737  15.905   8.841
  986POPC   C2B17360  38.805  16.119   8.451
  986POPC   C3B17361  38.708  16.256   8.045
  986POPC   C4B17362  38.788  15.944   7.758
  987POPC   NC317363  10.246  13.290   9.518
  987POPC   PO417364  10.703  13.833   9.377
  987POPC   GL117365  10.752  13.600   9.032
  987POPC   GL217366  10.572  13.338   9.122
  987POPC   C1A17367  10.633  13.533   8.612
  987POPC   D2A17368  10.758  13.582   8.211
  987POPC   C3A17369  10.445  13.784   8.006
  987POPC   C4A17370  10.384  13.930   7.627
  987POPC   C1B17371  10.198  13.386   8.840
  987POPC   C2B17372  10.187  13.264   8.394
  987POPC   C3B17373  10.401  13.278   7.982
  987POPC   C4B17374  10.683  13.476   7.665
  988POPC   NC317375   5.535  44.727   9.526
  988POPC   PO417376   6.027  44.411   9.751
  988POPC   GL117377   5.951  44.532   9.292
  988POPC   GL217378   6.174  44.706   9.085
  988POPC   C1A17379   5.688  44.669   8.898
  988POPC   D2A17380   5.795  44.603   8.474
  988POPC   C3A17381   5.615  44.734   8.105
  988POPC   C4A17382   5.610  44.548   7.689
  988POPC   C1B17383   6.069  44.316   8.839
  988POPC   C2B17384   6.040  44.141   8.433
  988POPC   C3B17385   5.978  44.335   8.036
  988POPC   C4B17386   6.065  44.738   7.858
  989POPC   NC317387  44.485   6.274   9.411
  989POPC   PO417388  44.704   6.940   9.511
  989POPC   GL117389  44.806   6.845   9.074
  989POPC   GL217390  44.857   6.491   9.033
  989POPC   C1A17391  44.821   7.097   8.693
  989POPC   D2A17392  44.833   7.073   8.246
  989POPC   C3A17393  44.622   6.769   8.061
  989POPC   C4A17394  44.641   6.664   7.687
  989POPC   C1B17395  44.853   6.606   8.554
  989POPC   C2B17396   0.039   6.494   8.137
  989POPC   C3B17397   0.126   6.607   7.709
  989POPC   C4B17398  44.956   6.635   7.252
  990POPC   NC317399  22.500  39.476   9.672
  990POPC   PO417400  21.978  39.207   9.714
  990POPC   GL117401  21.973  39.295   9.235
  990POPC   GL217402  22.189  39.573   9.104
  990POPC   C1A17403  22.050  39.229   8.749
  990POPC   D2A17404  22.228  39.111   8.319
  990POPC   C3A17405  22.008  39.042   7.908
  990POPC   C4A17406  21.586  39.194   7.745
  990POPC   C1B17407  22.426  39.612   8.668
  990POPC   C2B17408  22.595  39.448   8.251
  990POPC   C3B17409  22.402  39.473   7.831
  990POPC   C4B17410  22.496  39.612   7.376
  991POPC   NC317411  44.838  29.876   9.461
  991POPC   PO417412  44.375  30.332   9.443
  991POPC   GL117413  44.437  29.992   9.094
  991POPC   GL217414  44.634  29.644   9.071
  991POPC   C1A17415  44.502  29.847   8.632
  991POPC   D2A17416  44.429  29.811   8.172
  991POPC   C3A17417  44.646  29.996   7.783
  991POPC   C4A17418  44.611  30.195   7.354
  991POPC   C1B17419  44.902  29.495   8.744
  991POPC   C2B17420  44.772  29.461   8.325
  991POPC   C3B17421  44.885  29.573   7.901
  991POPC   C4B17422  44.933  29.687   7.444
  992POPC   NC317423  27.273  20.706   9.556
  992POPC   PO417424  27.826  21.015   9.493
  992POPC   GL117425  27.849  20.652   9.180
  992POPC   GL217426  27.534  20.527   9.177
  992POPC   C1A17427  27.777  20.390   8.780
  992POPC   D2A17428  27.609  20.192   8.416
  992POPC   C3A17429  27.610  20.384   8.033
  992POPC   C4A17430  27.766  20.412   7.651
  992POPC   C1B17431  27.337  20.653   8.789
  992POPC   C2B17432  27.215  20.497   8.421
  992POPC   C3B17433  27.129  20.581   8.008
  992POPC   C4B17434  27.355  20.706   7.668
  993POPC   NC317435   2.856  21.688   9.402
  993POPC   PO417436   2.783  22.379   9.466
  993POPC   GL117437   2.725  22.175   9.058
  993POPC   GL217438   3.017  22.063   9.060
  993POPC   C1A17439   2.690  22.016   8.620
  993POPC   D2A17440   2.684  22.302   8.300
  993POPC   C3A17441   2.568  22.156   7.877
  993POPC   C4A17442   2.814  21.962   7.523
  993POPC   C1B17443   3.107  22.284   8.684
  993POPC   C2B17444   3.224  21.990   8.358
  993POPC   C3B17445   3.049  22.018   7.992
  993POPC   C4B17446   2.981  22.467   7.936
  994POPC   NC317447  10.997  28.592   9.552
  994POPC   PO417448  11.352  28.077   9.684
  994POPC   GL117449  11.203  28.187   9.230
  994POPC   GL217450  11.160  28.539   9.071
  994POPC   C1A17451  11.236  28.153   8.748
  994POPC   D2A17452  11.130  28.338   8.317
  994POPC   C3A17453  11.444  28.401   8.012
  994POPC   C4A17454  11.822  28.237   7.829
  994POPC   C1B17455  11.149  28.725   8.649
  994POPC   C2B17456  10.941  28.831   8.265
  994POPC   C3B17457  11.032  28.690   7.827
  994POPC   C4B17458  11.099  28.728   7.359
  995POPC   NC317459   6.170  36.960   9.966
  995POPC   PO417460   6.722  36.733   9.639
  995POPC   GL117461   6.603  36.666   9.183
  995POPC   GL217462   6.454  36.955   9.207
  995POPC   C1A17463   6.467  36.757   8.718
  995POPC   D2A17464   6.623  36.628   8.299
  995POPC   C3A17465   6.537  36.779   7.861
  995POPC   C4A17466   6.506  36.548   7.470
  995POPC   C1B17467   6.210  37.207   8.944
  995POPC   C2B17468   6.157  37.208   8.517
  995POPC   C3B17469   6.197  37.067   8.106
  995POPC   C4B17470   6.303  37.259   7.723
  996POPC   NC317471  15.930  44.711   9.557
  996POPC   PO417472  15.291  44.673   9.309
  996POPC   GL117473  15.076  44.934   8.998
  996POPC   GL217474  14.749   0.003   9.101
  996POPC   C1A17475  15.165  44.967   8.573
  996POPC   D2A17476  15.350  44.656   8.298
  996POPC   C3A17477  15.492  44.687   7.877
  996POPC   C4A17478  15.272  44.389   7.599
  996POPC   C1B17479  14.688  44.760   8.706
  996POPC   C2B17480  14.781  44.838   8.262
  996POPC   C3B17481  14.990  44.735   7.886
  996POPC   C4B17482  15.185  44.903   7.508
  997POPC   NC317483  34.697  28.717   9.609
  997POPC   PO417484  34.410  28.094   9.595
  997POPC   GL117485  34.699  28.297   9.283
  997POPC   GL217486  34.633  28.618   9.119
  997POPC   C1A17487  34.815  28.240   8.837
  997POPC   D2A17488  34.594  28.161   8.472
  997POPC   C3A17489  34.659  28.440   8.150
  997POPC   C4A17490  34.561  28.240   7.756
  997POPC   C1B17491  34.533  28.683   8.682
  997POPC   C2B17492  34.625  28.994   8.375
  997POPC   C3B17493  34.834  28.937   7.982
  997POPC   C4B17494  34.927  28.590   7.729
  998POPC   NC317495  41.203  16.057   9.462
  998POPC   PO417496  40.538  16.212   9.559
  998POPC   GL117497  40.487  16.007   9.132
  998POPC   GL217498  40.815  15.919   9.152
  998POPC   C1A17499  40.566  15.784   8.725
  998POPC   D2A17500  40.901  15.617   8.431
  998POPC   C3A17501  40.750  15.628   8.024
  998POPC   C4A17502  40.508  15.916   7.810
  998POPC   C1B17503  41.042  15.988   8.775
  998POPC   C2B17504  40.773  16.218   8.476
  998POPC   C3B17505  40.791  16.317   8.053
  998POPC   C4B17506  41.071  16.042   7.848
  999POPC   NC317507  20.937  26.027   9.702
  999POPC   PO417508  20.357  25.733   9.724
  999POPC   GL117509  20.492  25.998   9.329
  999POPC   GL217510  20.248  26.250   9.251
  999POPC   C1A17511  20.573  26.135   8.855
  999POPC   D2A17512  20.693  26.301   8.409
  999POPC   C3A17513  20.575  26.145   8.009
  999POPC   C4A17514  20.912  25.889   7.841
  999POPC   C1B17515  20.097  25.973   8.896
  999POPC   C2B17516  20.296  25.782   8.538
  999POPC   C3B17517  20.283  25.723   8.103
  999POPC   C4B17518  20.144  25.926   7.774
 1000POPC   NC317519  37.981  15.267   9.760
 1000POPC   PO417520  38.604  15.275   9.521
 1000POPC   GL117521  38.484  15.101   9.160
 1000POPC   GL217522  38.722  15.209   8.963
 1000POPC   C1A17523  38.234  15.222   8.794
 1000POPC   D2A17524  38.142  15.045   8.376
 1000POPC   C3A17525  38.416  15.208   8.043
 1000POPC   C4A17526  38.333  15.600   7.806
 1000POPC   C1B17527  38.674  15.446   8.582
 1000POPC   C2B17528  38.697  15.662   8.184
 1000POPC   C3B17529  38.822  15.445   7.803
 1000POPC   C4B17530  38.775  15.046   7.674
 1001POPC   NC317531   2.566  42.055   9.394
 1001POPC   PO417532   3.075  42.403   9.324
 1001POPC   GL117533   2.949  42.483   8.959
 1001POPC   GL217534   2.789  42.159   8.956
 1001POPC   C1A17535   2.730  42.509   8.582
 1001POPC   D2A17536   2.755  42.706   8.203
 1001POPC   C3A17537   2.915  42.510   7.836
 1001POPC   C4A17538   2.667  42.647   7.469
 1001POPC   C1B17539   2.648  41.951   8.590
 1001POPC   C2B17540   2.481  41.967   8.183
 1001POPC   C3B17541   2.684  42.034   7.813
 1001POPC   C4B17542   2.873  42.195   7.432
 1002POPC   NC317543  38.045   6.880   9.392
 1002POPC   PO417544  37.381   6.723   9.498
 1002POPC   GL117545  37.635   6.589   9.172
 1002POPC   GL217546  37.744   6.211   9.150
 1002POPC   C1A17547  37.625   6.891   8.827
 1002POPC   D2A17548  37.780   6.958   8.429
 1002POPC   C3A17549  37.512   6.887   8.092
 1002POPC   C4A17550  37.626   6.625   7.800
 1002POPC   C1B17551  37.794   6.405   8.728
 1002POPC   C2B17552  37.954   6.485   8.316
 1002POPC   C3B17553  38.104   6.544   7.907
 1002POPC   C4B17554  37.884   6.187   7.781
 1003POPC   NC317555  11.880  13.113   9.401
 1003POPC   PO417556  12.456  12.646   9.541
 1003POPC   GL117557  12.401  12.828   9.145
 1003POPC   GL217558  12.088  12.618   9.165
 1003POPC   C1A17559  12.143  13.012   8.784
 1003POPC   D2A17560  11.981  13.089   8.356
 1003POPC   C3A17561  12.181  12.993   7.952
 1003POPC   C4A17562  11.867  13.015   7.606
 1003POPC   C1B17563  12.267  12.521   8.764
 1003POPC   C2B17564  12.403  12.747   8.415
 1003POPC   C3B17565  12.319  12.520   8.063
 1003POPC   C4B17566  12.119  12.495   7.661
 1004POPC   NC317567  30.876  28.559   9.596
 1004POPC   PO417568  31.190  27.956   9.417
 1004POPC   GL117569  30.927  28.299   9.159
 1004POPC   GL217570  30.617  28.509   9.160
 1004POPC   C1A17571  30.883  28.489   8.745
 1004POPC   D2A17572  30.906  28.279   8.369
 1004POPC   C3A17573  30.871  28.485   8.012
 1004POPC   C4A17574  30.996  28.372   7.606
 1004POPC   C1B17575  30.396  28.595   8.782
 1004POPC   C2B17576  30.491  28.653   8.340
 1004POPC   C3B17577  30.406  28.627   7.890
 1004POPC   C4B17578  30.577  28.669   7.479
 1005POPC   NC317579  35.563  27.084   9.599
 1005POPC   PO417580  35.331  27.710   9.523
 1005POPC   GL117581  35.424  27.598   9.126
 1005POPC   GL217582  35.647  27.883   9.069
 1005POPC   C1A17583  35.248  27.472   8.743
 1005POPC   D2A17584  35.345  27.631   8.341
 1005POPC   C3A17585  35.116  27.576   7.998
 1005POPC   C4A17586  35.159  27.712   7.631
 1005POPC   C1B17587  35.714  27.693   8.685
 1005POPC   C2B17588  35.777  27.866   8.272
 1005POPC   C3B17589  35.616  27.773   7.882
 1005POPC   C4B17590  35.542  27.391   7.673
 1006POPC   NC317591   9.784  18.680   9.398
 1006POPC   PO417592  10.397  19.071   9.447
 1006POPC   GL117593  10.611  19.068   9.049
 1006POPC   GL217594  10.706  18.787   9.052
 1006POPC   C1A17595  10.487  19.117   8.630
 1006POPC   D2A17596  10.560  18.936   8.230
 1006POPC   C3A17597  10.297  19.064   7.945
 1006POPC   C4A17598  10.327  19.208   7.536
 1006POPC   C1B17599  10.725  18.639   8.663
 1006POPC   C2B17600  10.851  18.509   8.276
 1006POPC   C3B17601  10.854  18.672   7.887
 1006POPC   C4B17602  10.520  18.704   7.650
 1007POPC   NC317603  12.867  29.503   9.269
 1007POPC   PO417604  13.136  28.926   9.553
 1007POPC   GL117605  13.123  29.082   9.114
 1007POPC   GL217606  12.781  29.072   8.976
 1007POPC   C1A17607  13.154  29.351   8.705
 1007POPC   D2A17608  13.299  29.280   8.289
 1007POPC   C3A17609  12.985  29.127   8.000
 1007POPC   C4A17610  12.991  29.107   7.547
 1007POPC   C1B17611  12.623  29.391   8.663
 1007POPC   C2B17612  12.579  29.363   8.216
 1007POPC   C3B17613  12.605  29.375   7.749
 1007POPC   C4B17614  12.733  29.453   7.280
 1008POPC   NC317615  12.380  44.262   9.283
 1008POPC   PO417616  12.906  43.935   9.707
 1008POPC   GL117617  12.714  43.855   9.289
 1008POPC   GL217618  12.366  43.743   9.335
 1008POPC   C1A17619  12.731  43.893   8.804
 1008POPC   D2A17620  12.954  43.704   8.426
 1008POPC   C3A17621  13.134  43.955   8.111
 1008POPC   C4A17622  12.868  44.172   7.846
 1008POPC   C1B17623  12.445  43.483   8.978
 1008POPC   C2B17624  12.495  43.513   8.536
 1008POPC   C3B17625  12.520  43.641   8.104
 1008POPC   C4B17626  12.687  43.723   7.693
 1009POPC   NC317627   2.216   5.034   9.572
 1009POPC   PO417628   2.849   4.776   9.572
 1009POPC   GL117629   2.864   4.994   9.160
 1009POPC   GL217630   2.623   5.252   9.021
 1009POPC   C1A17631   2.826   4.866   8.752
 1009POPC   D2A17632   2.716   5.039   8.359
 1009POPC   C3A17633   3.019   5.150   8.068
 1009POPC   C4A17634   2.910   5.056   7.635
 1009POPC   C1B17635   2.456   5.590   8.714
 1009POPC   C2B17636   2.288   5.585   8.310
 1009POPC   C3B17637   2.334   5.260   8.064
 1009POPC   C4B17638   2.624   5.408   7.812
 1010POPC   NC317639  23.429  17.712   9.468
 1010POPC   PO417640  23.154  17.119   9.537
 1010POPC   GL117641  23.473  17.279   9.172
 1010POPC   GL217642  23.855  17.269   9.182
 1010POPC   C1A17643  23.639  17.562   8.816
 1010POPC   D2A17644  23.859  17.622   8.404
 1010POPC   C3A17645  23.629  17.663   7.994
 1010POPC   C4A17646  23.382  17.334   7.794
 1010POPC   C1B17647  24.136  17.406   8.814
 1010POPC   C2B17648  24.193  17.219   8.392
 1010POPC   C3B17649  24.052  17.373   7.992
 1010POPC   C4B17650  23.829  17.435   7.542
 1011POPC   NC317651  26.724   3.012   9.448
 1011POPC   PO417652  27.135   2.440   9.300
 1011POPC   GL117653  26.894   2.726   9.051
 1011POPC   GL217654  26.938   3.101   9.005
 1011POPC   C1A17655  26.703   2.792   8.658
 1011POPC   D2A17656  26.363   2.633   8.419
 1011POPC   C3A17657  26.526   2.652   8.006
 1011POPC   C4A17658  26.736   2.547   7.653
 1011POPC   C1B17659  27.176   3.342   8.694
 1011POPC   C2B17660  27.293   3.250   8.275
 1011POPC   C3B17661  27.018   2.990   7.984
 1011POPC   C4B17662  26.712   3.088   7.689
 1012POPC   NC317663   9.412   2.410   9.387
 1012POPC   PO417664   9.418   3.104   9.492
 1012POPC   GL117665   9.709   2.866   9.240
 1012POPC   GL217666  10.048   2.983   9.217
 1012POPC   C1A17667   9.802   2.701   8.816
 1012POPC   D2A17668   9.736   2.583   8.385
 1012POPC   C3A17669   9.468   2.699   8.093
 1012POPC   C4A17670   9.474   2.554   7.680
 1012POPC   C1B17671  10.047   3.149   8.800
 1012POPC   C2B17672  10.116   2.987   8.392
 1012POPC   C3B17673  10.015   2.779   7.987
 1012POPC   C4B17674  10.136   3.056   7.658
 1013POPC   NC317675   4.272  43.710   9.610
 1013POPC   PO417676   4.597  44.238   9.496
 1013POPC   GL117677   4.388  44.032   9.201
 1013POPC   GL217678   4.056  44.081   9.308
 1013POPC   C1A17679   4.353  43.718   8.897
 1013POPC   D2A17680   4.438  43.619   8.455
 1013POPC   C3A17681   4.126  43.620   8.145
 1013POPC   C4A17682   4.145  43.667   7.699
 1013POPC   C1B17683   3.992  44.138   8.896
 1013POPC   C2B17684   4.252  44.098   8.547
 1013POPC   C3B17685   4.329  44.072   8.139
 1013POPC   C4B17686   4.200  44.176   7.734
 1014POPC   NC317687  37.351  27.259   9.567
 1014POPC   PO417688  37.484  27.961   9.601
 1014POPC   GL117689  37.549  27.736   9.207
 1014POPC   GL217690  37.448  27.421   9.116
 1014POPC   C1A17691  37.645  27.743   8.779
 1014POPC   D2A17692  37.436  27.712   8.418
 1014POPC   C3A17693  37.720  27.771   8.092
 1014POPC   C4A17694  37.556  27.642   7.764
 1014POPC   C1B17695  37.679  27.237   8.808
 1014POPC   C2B17696  37.845  27.383   8.455
 1014POPC   C3B17697  37.805  27.268   8.071
 1014POPC   C4B17698  37.741  27.190   7.687
 1015POPC   NC317699  14.576  41.077   9.906
 1015POPC   PO417700  14.138  41.340   9.626
 1015POPC   GL117701  14.269  41.365   9.151
 1015POPC   GL217702  14.540  41.131   9.093
 1015POPC   C1A17703  14.444  41.534   8.715
 1015POPC   D2A17704  14.534  41.801   8.311
 1015POPC   C3A17705  14.431  41.727   7.856
 1015POPC   C4A17706  14.324  41.360   7.588
 1015POPC   C1B17707  14.871  41.234   8.784
 1015POPC   C2B17708  14.906  41.459   8.402
 1015POPC   C3B17709  14.761  41.365   7.978
 1015POPC   C4B17710  14.817  41.456   7.528
 1016POPC   NC317711  13.502  17.197   9.462
 1016POPC   PO417712  13.919  16.664   9.744
 1016POPC   GL117713  13.876  16.774   9.235
 1016POPC   GL217714  13.607  16.927   9.036
 1016POPC   C1A17715  13.922  16.571   8.782
 1016POPC   D2A17716  13.931  16.359   8.366
 1016POPC   C3A17717  13.646  16.572   8.092
 1016POPC   C4A17718  13.335  16.589   7.763
 1016POPC   C1B17719  13.622  16.919   8.565
 1016POPC   C2B17720  13.772  17.258   8.282
 1016POPC   C3B17721  13.998  17.135   7.909
 1016POPC   C4B17722  13.757  16.871   7.629
 1017POPC   NC317723   9.377  43.440   9.306
 1017POPC   PO417724   8.834  43.252   9.643
 1017POPC   GL117725   8.953  43.134   9.199
 1017POPC   GL217726   8.665  42.891   9.180
 1017POPC   C1A17727   9.163  43.234   8.735
 1017POPC   D2A17728   9.291  43.440   8.325
 1017POPC   C3A17729   9.109  43.343   7.902
 1017POPC   C4A17730   9.151  43.367   7.437
 1017POPC   C1B17731   8.844  42.831   8.785
 1017POPC   C2B17732   8.794  43.053   8.406
 1017POPC   C3B17733   8.816  42.911   8.012
 1017POPC   C4B17734   8.953  42.924   7.622
 1018POPC   NC317735  19.700   8.532   9.490
 1018POPC   PO417736  19.809   7.912   9.493
 1018POPC   GL117737  19.923   8.212   9.148
 1018POPC   GL217738  20.167   8.440   9.308
 1018POPC   C1A17739  19.848   8.332   8.696
 1018POPC   D2A17740  20.015   8.194   8.297
 1018POPC   C3A17741  19.919   8.149   7.890
 1018POPC   C4A17742  19.566   8.091   7.686
 1018POPC   C1B17743  20.258   8.579   8.916
 1018POPC   C2B17744  20.251   8.598   8.503
 1018POPC   C3B17745  20.276   8.719   8.093
 1018POPC   C4B17746  20.270   8.508   7.716
 1019POPC   NC317747  32.937  16.875   9.752
 1019POPC   PO417748  33.286  16.508   9.245
 1019POPC   GL117749  33.296  16.628   8.875
 1019POPC   GL217750  33.354  16.985   8.921
 1019POPC   C1A17751  32.997  16.455   8.573
 1019POPC   D2A17752  32.661  16.692   8.343
 1019POPC   C3A17753  32.843  16.695   7.930
 1019POPC   C4A17754  33.205  16.426   7.789
 1019POPC   C1B17755  33.024  16.961   8.611
 1019POPC   C2B17756  33.061  17.147   8.275
 1019POPC   C3B17757  33.421  17.187   8.060
 1019POPC   C4B17758  33.249  16.966   7.743
 1020POPC   NC317759   4.065  38.863   9.578
 1020POPC   PO417760   4.297  38.147   9.694
 1020POPC   GL117761   4.371  38.271   9.262
 1020POPC   GL217762   4.187  38.564   9.189
 1020POPC   C1A17763   4.407  38.235   8.816
 1020POPC   D2A17764   4.206  38.156   8.416
 1020POPC   C3A17765   4.359  38.353   8.078
 1020POPC   C4A17766   4.647  38.233   7.853
 1020POPC   C1B17767   4.180  38.822   8.828
 1020POPC   C2B17768   4.171  38.682   8.407
 1020POPC   C3B17769   4.205  38.820   7.950
 1020POPC   C4B17770   4.526  38.826   7.605
 1021POPC   NC317771  43.399   3.535   9.691
 1021POPC   PO417772  42.779   3.330   9.447
 1021POPC   GL117773  43.067   3.477   9.128
 1021POPC   GL217774  43.412   3.331   9.097
 1021POPC   C1A17775  43.045   3.625   8.708
 1021POPC   D2A17776  42.793   3.866   8.430
 1021POPC   C3A17777  42.831   3.586   8.084
 1021POPC   C4A17778  42.973   3.627   7.673
 1021POPC   C1B17779  43.514   3.424   8.636
 1021POPC   C2B17780  43.352   3.625   8.235
 1021POPC   C3B17781  43.463   3.707   7.779
 1021POPC   C4B17782  43.449   3.456   7.371
 1022POPC   NC317783  13.261  37.824   9.457
 1022POPC   PO417784  13.388  37.177   9.553
 1022POPC   GL117785  13.523  37.427   9.161
 1022POPC   GL217786  13.715  37.766   9.210
 1022POPC   C1A17787  13.434  37.686   8.772
 1022POPC   D2A17788  13.379  37.796   8.327
 1022POPC   C3A17789  13.573  37.488   8.097
 1022POPC   C4A17790  13.616  37.562   7.707
 1022POPC   C1B17791  13.906  37.895   8.818
 1022POPC   C2B17792  13.893  37.776   8.400
 1022POPC   C3B17793  13.801  37.946   7.996
 1022POPC   C4B17794  14.011  37.946   7.601
 1023POPC   NC317795   7.916  26.036   9.523
 1023POPC   PO417796   8.433  26.176   9.748
 1023POPC   GL117797   8.364  26.125   9.247
 1023POPC   GL217798   8.163  25.839   9.103
 1023POPC   C1A17799   8.284  26.203   8.767
 1023POPC   D2A17800   8.328  25.959   8.356
 1023POPC   C3A17801   8.288  26.108   7.918
 1023POPC   C4A17802   8.250  25.839   7.547
 1023POPC   C1B17803   7.934  25.831   8.670
 1023POPC   C2B17804   7.832  25.958   8.210
 1023POPC   C3B17805   7.800  26.041   7.754
 1023POPC   C4B17806   7.601  26.287   7.406
 1024POPC   NC317807  25.516  27.736   9.643
 1024POPC   PO417808  26.192  27.813   9.534
 1024POPC   GL117809  25.891  27.574   9.253
 1024POPC   GL217810  26.039  27.765   9.035
 1024POPC   C1A17811  25.894  27.347   8.805
 1024POPC   D2A17812  26.078  27.361   8.377
 1024POPC   C3A17813  25.866  27.400   7.974
 1024POPC   C4A17814  25.938  27.545   7.552
 1024POPC   C1B17815  25.728  27.847   8.765
 1024POPC   C2B17816  25.947  27.869   8.390
 1024POPC   C3B17817  26.043  27.887   7.976
 1024POPC   C4B17818  25.679  27.923   7.732
 1025POPC   NC317819   5.649  18.658   9.457
 1025POPC   PO417820   5.900  19.313   9.556
 1025POPC   GL117821   5.830  19.071   9.170
 1025POPC   GL217822   6.049  18.787   9.160
 1025POPC   C1A17823   5.822  19.083   8.714
 1025POPC   D2A17824   5.862  19.230   8.284
 1025POPC   C3A17825   5.586  19.120   7.938
 1025POPC   C4A17826   5.815  19.080   7.525
 1025POPC   C1B17827   6.015  18.616   8.776
 1025POPC   C2B17828   6.112  18.789   8.394
 1025POPC   C3B17829   5.969  18.778   7.986
 1025POPC   C4B17830   6.046  18.478   7.668
 1026POPC   NC317831   8.934   2.935   9.498
 1026POPC   PO417832   8.841   2.343   9.300
 1026POPC   GL117833   9.081   2.661   9.074
 1026POPC   GL217834   8.786   2.838   8.976
 1026POPC   C1A17835   9.265   2.758   8.645
 1026POPC   D2A17836   9.092   3.057   8.305
 1026POPC   C3A17837   9.095   2.970   7.845
 1026POPC   C4A17838   9.098   2.776   7.433
 1026POPC   C1B17839   8.845   2.462   8.660
 1026POPC   C2B17840   9.017   2.521   8.245
 1026POPC   C3B17841   8.930   2.456   7.825
 1026POPC   C4B17842   8.660   2.348   7.462
 1027POPC   NC317843   0.691  32.103   9.468
 1027POPC   PO417844   0.333  32.554   9.737
 1027POPC   GL117845   0.318  32.438   9.254
 1027POPC   GL217846   0.353  32.073   9.102
 1027POPC   C1A17847   0.195  32.429   8.803
 1027POPC   D2A17848   0.206  32.082   8.501
 1027POPC   C3A17849   0.129  32.217   8.122
 1027POPC   C4A17850   0.084  32.209   7.697
 1027POPC   C1B17851   0.638  32.149   8.753
 1027POPC   C2B17852   0.712  32.043   8.313
 1027POPC   C3B17853   0.571  32.118   7.880
 1027POPC   C4B17854   0.538  32.022   7.456
 1028POPC   NC317855  28.147   8.136   9.448
 1028POPC   PO417856  28.756   8.037   9.555
 1028POPC   GL117857  28.600   8.103   9.174
 1028POPC   GL217858  28.483   7.804   9.132
 1028POPC   C1A17859  28.448   8.220   8.779
 1028POPC   D2A17860  28.309   8.070   8.397
 1028POPC   C3A17861  28.560   8.066   8.033
 1028POPC   C4A17862  28.430   8.286   7.660
 1028POPC   C1B17863  28.181   7.736   8.789
 1028POPC   C2B17864  28.024   7.581   8.404
 1028POPC   C3B17865  28.177   7.750   8.016
 1028POPC   C4B17866  28.036   7.930   7.655
 1029POPC   NC317867  37.338  18.818   9.345
 1029POPC   PO417868  37.103  18.381   9.761
 1029POPC   GL117869  37.037  18.350   9.282
 1029POPC   GL217870  36.882  18.640   9.162
 1029POPC   C1A17871  37.057  18.290   8.785
 1029POPC   D2A17872  37.296  18.191   8.381
 1029POPC   C3A17873  37.246  18.473   8.017
 1029POPC   C4A17874  36.931  18.266   7.773
 1029POPC   C1B17875  36.675  18.634   8.765
 1029POPC   C2B17876  36.871  18.606   8.352
 1029POPC   C3B17877  36.673  18.655   7.939
 1029POPC   C4B17878  36.332  18.516   7.662
 1030POPC   NC317879  26.993   3.732   9.515
 1030POPC   PO417880  26.421   3.396   9.491
 1030POPC   GL117881  26.611   3.597   9.172
 1030POPC   GL217882  26.904   3.600   9.044
 1030POPC   C1A17883  26.552   3.409   8.760
 1030POPC   D2A17884  26.779   3.390   8.372
 1030POPC   C3A17885  26.562   3.487   8.014
 1030POPC   C4A17886  26.659   3.632   7.630
 1030POPC   C1B17887  26.923   3.817   8.660
 1030POPC   C2B17888  27.167   3.751   8.280
 1030POPC   C3B17889  27.123   3.558   7.857
 1030POPC   C4B17890  27.128   3.678   7.394
 1031POPC   NC317891  12.538  44.218   9.777
 1031POPC   PO417892  11.936  44.010   9.478
 1031POPC   GL117893  11.922  43.864   9.082
 1031POPC   GL217894  11.627  43.627   9.066
 1031POPC   C1A17895  12.206  43.900   8.736
 1031POPC   D2A17896  12.444  44.085   8.378
 1031POPC   C3A17897  12.248  44.043   7.955
 1031POPC   C4A17898  12.215  43.867   7.542
 1031POPC   C1B17899  11.856  43.509   8.708
 1031POPC   C2B17900  12.057  43.631   8.322
 1031POPC   C3B17901  11.980  43.586   7.898
 1031POPC   C4B17902  11.568  43.659   7.770
 1032POPC   NC317903  21.555  32.364   9.566
 1032POPC   PO417904  21.542  31.724   9.431
 1032POPC   GL117905  21.432  32.076   9.131
 1032POPC   GL217906  21.690  32.321   9.085
 1032POPC   C1A17907  21.183  32.059   8.749
 1032POPC   D2A17908  20.947  31.861   8.422
 1032POPC   C3A17909  21.056  32.070   8.042
 1032POPC   C4A17910  21.189  32.454   7.840
 1032POPC   C1B17911  21.679  32.183   8.672
 1032POPC   C2B17912  21.443  32.358   8.320
 1032POPC   C3B17913  21.639  32.231   7.940
 1032POPC   C4B17914  21.771  32.300   7.518
 1033POPC   NC317915  33.279  18.786   9.393
 1033POPC   PO417916  32.858  19.331   9.450
 1033POPC   GL117917  32.927  19.089   9.100
 1033POPC   GL217918  32.672  18.890   9.102
 1033POPC   C1A17919  33.162  18.902   8.745
 1033POPC   D2A17920  33.304  19.019   8.335
 1033POPC   C3A17921  33.079  18.883   7.969
 1033POPC   C4A17922  32.828  19.145   7.723
 1033POPC   C1B17923  32.663  18.851   8.671
 1033POPC   C2B17924  32.670  18.940   8.249
 1033POPC   C3B17925  32.617  18.706   7.865
 1033POPC   C4B17926  32.677  18.736   7.431
 1034POPC   NC317927   0.033  25.054   9.630
 1034POPC   PO417928  44.475  25.449   9.357
 1034POPC   GL117929  44.489  25.212   9.026
 1034POPC   GL217930  44.770  25.073   9.159
 1034POPC   C1A17931  44.599  24.952   8.678
 1034POPC   D2A17932  44.905  24.894   8.359
 1034POPC   C3A17933  44.846  25.028   7.924
 1034POPC   C4A17934  44.448  25.163   7.773
 1034POPC   C1B17935  44.896  25.374   8.774
 1034POPC   C2B17936  44.649  25.439   8.453
 1034POPC   C3B17937  44.703  25.510   8.055
 1034POPC   C4B17938  44.769  25.569   7.660
 1035POPC   NC317939  43.192  25.332   9.490
 1035POPC   PO417940  43.198  24.575   9.552
 1035POPC   GL117941  43.107  24.932   9.192
 1035POPC   GL217942  43.438  25.122   9.092
 1035POPC   C1A17943  43.053  25.135   8.761
 1035POPC   D2A17944  43.231  25.041   8.352
 1035POPC   C3A17945  42.951  25.235   8.067
 1035POPC   C4A17946  42.760  25.155   7.686
 1035POPC   C1B17947  43.380  25.538   8.837
 1035POPC   C2B17948  43.338  25.550   8.378
 1035POPC   C3B17949  43.444  25.303   7.944
 1035POPC   C4B17950  43.252  24.967   7.727
 1036POPC   NC317951  14.599   2.783   9.967
 1036POPC   PO417952  14.178   2.657   9.414
 1036POPC   GL117953  14.281   2.697   9.036
 1036POPC   GL217954  14.249   3.072   9.108
 1036POPC   C1A17955  14.137   2.450   8.682
 1036POPC   D2A17956  14.022   2.370   8.248
 1036POPC   C3A17957  14.340   2.568   7.953
 1036POPC   C4A17958  14.465   2.451   7.506
 1036POPC   C1B17959  14.564   3.038   8.796
 1036POPC   C2B17960  14.603   2.889   8.395
 1036POPC   C3B17961  14.426   3.068   8.025
 1036POPC   C4B17962  14.502   2.953   7.613
 1037POPC   NC317963  18.650  12.945   9.429
 1037POPC   PO417964  18.025  12.967   9.369
 1037POPC   GL117965  18.068  12.734   9.036
 1037POPC   GL217966  18.399  12.836   8.985
 1037POPC   C1A17967  17.916  12.855   8.657
 1037POPC   D2A17968  17.807  13.010   8.225
 1037POPC   C3A17969  18.159  13.189   7.999
 1037POPC   C4A17970  18.155  13.402   7.596
 1037POPC   C1B17971  18.484  12.661   8.589
 1037POPC   C2B17972  18.140  12.576   8.319
 1037POPC   C3B17973  18.094  12.683   7.929
 1037POPC   C4B17974  18.364  12.919   7.614
 1038POPC   NC317975  34.521   6.791   9.475
 1038POPC   PO417976  34.097   6.244   9.311
 1038POPC   GL117977  34.464   6.479   9.084
 1038POPC   GL217978  34.429   6.367   8.773
 1038POPC   C1A17979  34.811   6.665   8.747
 1038POPC   D2A17980  35.028   6.529   8.393
 1038POPC   C3A17981  34.815   6.472   8.019
 1038POPC   C4A17982  34.569   6.213   7.737
 1038POPC   C1B17983  34.361   6.866   8.661
 1038POPC   C2B17984  34.164   7.113   8.336
 1038POPC   C3B17985  34.072   7.006   7.887
 1038POPC   C4B17986  34.029   6.994   7.370
 1039POPC   NC317987  21.801   6.750   9.619
 1039POPC   PO417988  22.229   6.390   9.323
 1039POPC   GL117989  22.308   6.557   8.957
 1039POPC   GL217990  22.097   6.799   8.994
 1039POPC   C1A17991  22.227   6.614   8.543
 1039POPC   D2A17992  22.108   6.910   8.274
 1039POPC   C3A17993  22.247   6.707   7.932
 1039POPC   C4A17994  22.245   6.265   7.914
 1039POPC   C1B17995  21.850   7.020   8.719
 1039POPC   C2B17996  21.594   6.919   8.338
 1039POPC   C3B17997  21.746   6.827   7.928
 1039POPC   C4B17998  21.909   7.041   7.592
 1040POPC   NC317999  12.936  37.304   9.704
 1040POPC   PO418000  12.874  37.964   9.663
 1040POPC   GL118001  12.790  37.703   9.301
 1040POPC   GL218002  12.541  37.445   9.387
 1040POPC   C1A18003  12.921  37.724   8.876
 1040POPC   D2A18004  12.709  37.917   8.556
 1040POPC   C3A18005  12.879  37.849   8.166
 1040POPC   C4A18006  13.129  37.616   7.866
 1040POPC   C1B18007  12.590  37.355   8.957
 1040POPC   C2B18008  12.717  37.403   8.515
 1040POPC   C3B18009  12.666  37.352   8.066
 1040POPC   C4B18010  12.823  37.247   7.670
 1041POPC   NC318011   7.070  10.928   9.453
 1041POPC   PO418012   6.414  11.153   9.675
 1041POPC   GL118013   6.500  11.240   9.271
 1041POPC   GL218014   6.437  11.590   9.178
 1041POPC   C1A18015   6.571  11.177   8.846
 1041POPC   D2A18016   6.822  11.375   8.493
 1041POPC   C3A18017   6.681  11.256   8.073
 1041POPC   C4A18018   6.246  11.185   7.905
 1041POPC   C1B18019   6.396  11.662   8.718
 1041POPC   C2B18020   6.197  11.653   8.299
 1041POPC   C3B18021   6.421  11.669   7.938
 1041POPC   C4B18022   6.836  11.729   7.752
 1042POPC   NC318023  37.109  16.291   9.518
 1042POPC   PO418024  36.987  15.634   9.436
 1042POPC   GL118025  37.169  15.773   9.089
 1042POPC   GL218026  36.945  16.060   9.109
 1042POPC   C1A18027  37.036  15.875   8.662
 1042POPC   D2A18028  36.866  15.799   8.248
 1042POPC   C3A18029  37.111  15.835   7.849
 1042POPC   C4A18030  37.106  15.559   7.470
 1042POPC   C1B18031  36.683  16.238   8.804
 1042POPC   C2B18032  36.778  16.313   8.382
 1042POPC   C3B18033  36.719  16.171   7.955
 1042POPC   C4B18034  36.922  16.280   7.587
 1043POPC   NC318035  34.740   3.115   9.460
 1043POPC   PO418036  34.427   2.522   9.509
 1043POPC   GL118037  34.486   2.782   9.155
 1043POPC   GL218038  34.862   2.761   9.121
 1043POPC   C1A18039  34.557   3.098   8.823
 1043POPC   D2A18040  34.718   3.064   8.391
 1043POPC   C3A18041  34.481   2.779   8.122
 1043POPC   C4A18042  34.317   2.859   7.698
 1043POPC   C1B18043  34.769   2.637   8.715
 1043POPC   C2B18044  34.958   2.574   8.326
 1043POPC   C3B18045  34.942   2.722   7.910
 1043POPC   C4B18046  34.995   2.698   7.488
 1044POPC   NC318047  40.365  19.608   9.561
 1044POPC   PO418048  40.014  20.111   9.536
 1044POPC   GL118049  40.120  19.846   9.187
 1044POPC   GL218050  40.324  20.044   8.948
 1044POPC   C1A18051  40.118  19.619   8.804
 1044POPC   D2A18052  40.229  19.864   8.429
 1044POPC   C3A18053  40.116  19.651   8.049
 1044POPC   C4A18054  39.819  19.588   7.752
 1044POPC   C1B18055  39.836  20.007   8.736
 1044POPC   C2B18056  39.707  19.849   8.339
 1044POPC   C3B18057  39.756  20.056   7.946
 1044POPC   C4B18058  39.557  19.986   7.513
 1045POPC   NC318059  12.720   9.592   9.518
 1045POPC   PO418060  13.126  10.098   9.342
 1045POPC   GL118061  12.912   9.802   9.096
 1045POPC   GL218062  13.147   9.507   9.161
 1045POPC   C1A18063  12.582   9.780   8.754
 1045POPC   D2A18064  12.493   9.917   8.311
 1045POPC   C3A18065  12.812   9.942   7.997
 1045POPC   C4A18066  12.739  10.023   7.581
 1045POPC   C1B18067  13.189   9.658   8.713
 1045POPC   C2B18068  12.901   9.563   8.372
 1045POPC   C3B18069  12.822   9.434   7.963
 1045POPC   C4B18070  13.022   9.602   7.621
 1046POPC   NC318071  42.768  16.219   9.559
 1046POPC   PO418072  43.303  15.910   9.735
 1046POPC   GL118073  43.083  15.949   9.250
 1046POPC   GL218074  42.835  16.241   9.066
 1046POPC   C1A18075  43.151  15.976   8.778
 1046POPC   D2A18076  43.276  16.005   8.330
 1046POPC   C3A18077  43.109  16.034   7.918
 1046POPC   C4A18078  43.451  16.248   7.688
 1046POPC   C1B18079  42.670  15.843   8.821
 1046POPC   C2B18080  42.828  15.751   8.401
 1046POPC   C3B18081  42.672  15.727   7.979
 1046POPC   C4B18082  42.760  15.790   7.528
 1047POPC   NC318083  29.752  28.597   9.613
 1047POPC   PO418084  30.379  28.508   9.602
 1047POPC   GL118085  30.089  28.501   9.206
 1047POPC   GL218086  29.716  28.596   9.111
 1047POPC   C1A18087  30.014  28.275   8.804
 1047POPC   D2A18088  29.907  28.429   8.388
 1047POPC   C3A18089  30.052  28.283   7.962
 1047POPC   C4A18090  30.021  28.540   7.563
 1047POPC   C1B18091  29.503  28.405   8.772
 1047POPC   C2B18092  29.384  28.541   8.367
 1047POPC   C3B18093  29.593  28.606   7.958
 1047POPC   C4B18094  29.594  28.226   7.737
 1048POPC   NC318095  18.376  35.166   9.476
 1048POPC   PO418096  17.797  35.692   9.474
 1048POPC   GL118097  18.128  35.559   9.143
 1048POPC   GL218098  18.082  35.202   9.077
 1048POPC   C1A18099  18.324  35.420   8.692
 1048POPC   D2A18100  18.560  35.490   8.298
 1048POPC   C3A18101  18.466  35.524   7.814
 1048POPC   C4A18102  18.679  35.235   7.487
 1048POPC   C1B18103  17.931  35.022   8.691
 1048POPC   C2B18104  18.200  34.937   8.331
 1048POPC   C3B18105  18.228  35.080   7.912
 1048POPC   C4B18106  18.166  35.176   7.483
 1049POPC   NC318107  36.618  21.014   9.479
 1049POPC   PO418108  37.054  21.385   9.706
 1049POPC   GL118109  37.053  21.356   9.237
 1049POPC   GL218110  36.724  21.290   9.073
 1049POPC   C1A18111  37.041  21.613   8.838
 1049POPC   D2A18112  37.181  21.493   8.420
 1049POPC   C3A18113  37.079  21.648   8.012
 1049POPC   C4A18114  37.073  21.360   7.668
 1049POPC   C1B18115  36.594  21.165   8.655
 1049POPC   C2B18116  36.742  21.254   8.252
 1049POPC   C3B18117  36.626  21.451   7.885
 1049POPC   C4B18118  36.624  21.259   7.463
 1050POPC   NC318119  33.042   9.452   9.500
 1050POPC   PO418120  33.308  10.166   9.556
 1050POPC   GL118121  33.139   9.911   9.181
 1050POPC   GL218122  33.244   9.568   9.077
 1050POPC   C1A18123  33.189   9.836   8.687
 1050POPC   D2A18124  33.062   9.910   8.283
 1050POPC   C3A18125  33.150   9.771   7.891
 1050POPC   C4A18126  32.837   9.792   7.531
 1050POPC   C1B18127  32.948   9.387   8.736
 1050POPC   C2B18128  32.784   9.441   8.323
 1050POPC   C3B18129  32.803   9.415   7.883
 1050POPC   C4B18130  32.640   9.322   7.485
 1051POPC   NC318131  29.367  34.298   9.522
 1051POPC   PO418132  29.930  34.377   9.385
 1051POPC   GL118133  29.991  34.589   9.009
 1051POPC   GL218134  30.298  34.757   9.011
 1051POPC   C1A18135  29.844  34.852   8.664
 1051POPC   D2A18136  29.705  34.812   8.233
 1051POPC   C3A18137  29.635  34.392   8.112
 1051POPC   C4A18138  29.830  34.212   7.767
 1051POPC   C1B18139  30.301  34.595   8.614
 1051POPC   C2B18140  30.125  34.524   8.270
 1051POPC   C3B18141  30.088  34.636   7.871
 1051POPC   C4B18142  30.089  34.749   7.463
 1052POPC   NC318143  26.703  17.131   9.513
 1052POPC   PO418144  27.057  17.732   9.405
 1052POPC   GL118145  26.779  17.511   9.143
 1052POPC   GL218146  26.427  17.620   9.226
 1052POPC   C1A18147  26.918  17.589   8.730
 1052POPC   D2A18148  26.867  17.902   8.457
 1052POPC   C3A18149  26.733  17.807   8.030
 1052POPC   C4A18150  26.871  17.520   7.751
 1052POPC   C1B18151  26.407  17.708   8.794
 1052POPC   C2B18152  26.509  17.545   8.398
 1052POPC   C3B18153  26.478  17.307   8.020
 1052POPC   C4B18154  26.364  17.593   7.732
 1053POPC   NC318155  28.907   0.729   9.445
 1053POPC   PO418156  29.350   1.319   9.710
 1053POPC   GL118157  29.238   1.403   9.284
 1053POPC   GL218158  28.956   1.203   9.172
 1053POPC   C1A18159  29.252   1.431   8.841
 1053POPC   D2A18160  29.497   1.226   8.508
 1053POPC   C3A18161  29.295   1.160   8.096
 1053POPC   C4A18162  29.057   1.221   7.723
 1053POPC   C1B18163  29.080   0.959   8.777
 1053POPC   C2B18164  28.891   0.674   8.511
 1053POPC   C3B18165  29.042   0.665   8.119
 1053POPC   C4B18166  28.895   0.666   7.736
 1054POPC   NC318167  42.483  17.022   9.506
 1054POPC   PO418168  42.321  16.365   9.642
 1054POPC   GL118169  42.335  16.595   9.202
 1054POPC   GL218170  42.155  16.908   9.166
 1054POPC   C1A18171  42.393  16.767   8.767
 1054POPC   D2A18172  42.394  16.563   8.393
 1054POPC   C3A18173  42.330  16.789   8.038
 1054POPC   C4A18174  42.439  16.603   7.651
 1054POPC   C1B18175  41.948  17.032   8.799
 1054POPC   C2B18176  41.984  16.869   8.415
 1054POPC   C3B18177  41.886  17.057   8.025
 1054POPC   C4B18178  42.176  17.093   7.654
 1055POPC   NC318179  14.318  16.699   9.499
 1055POPC   PO418180  14.789  17.217   9.718
 1055POPC   GL118181  14.630  17.136   9.251
 1055POPC   GL218182  14.268  17.099   9.186
 1055POPC   C1A18183  14.522  16.852   8.863
 1055POPC   D2A18184  14.504  17.007   8.447
 1055POPC   C3A18185  14.507  16.921   8.000
 1055POPC   C4A18186  14.597  16.794   7.557
 1055POPC   C1B18187  14.074  17.067   8.753
 1055POPC   C2B18188  14.059  16.839   8.320
 1055POPC   C3B18189  14.122  16.605   7.911
 1055POPC   C4B18190  14.146  16.592   7.452
 1056POPC   NC318191   3.830   5.714   9.644
 1056POPC   PO418192   3.598   6.249   9.287
 1056POPC   GL118193   3.331   5.969   9.092
 1056POPC   GL218194   3.538   5.700   9.211
 1056POPC   C1A18195   3.204   5.892   8.673
 1056POPC   D2A18196   3.571   5.936   8.450
 1056POPC   C3A18197   3.437   6.013   8.081
 1056POPC   C4A18198   3.609   6.097   7.711
 1056POPC   C1B18199   3.508   5.530   8.796
 1056POPC   C2B18200   3.348   5.482   8.373
 1056POPC   C3B18201   3.557   5.526   8.002
 1056POPC   C4B18202   3.366   5.283   7.722
 1057POPC   NC318203  15.268  13.795   9.509
 1057POPC   PO418204  15.639  13.208   9.473
 1057POPC   GL118205  15.347  13.423   9.117
 1057POPC   GL218206  15.057  13.717   9.074
 1057POPC   C1A18207  15.365  13.242   8.678
 1057POPC   D2A18208  15.270  12.973   8.317
 1057POPC   C3A18209  15.121  13.221   7.967
 1057POPC   C4A18210  15.361  13.575   7.793
 1057POPC   C1B18211  15.003  13.601   8.680
 1057POPC   C2B18212  15.195  13.604   8.299
 1057POPC   C3B18213  15.119  13.962   8.035
 1057POPC   C4B18214  15.134  14.066   7.605
 1058POPC   NC318215  17.878   3.511   9.579
 1058POPC   PO418216  17.284   3.803   9.745
 1058POPC   GL118217  17.371   3.548   9.354
 1058POPC   GL218218  17.629   3.725   9.186
 1058POPC   C1A18219  17.299   3.482   8.887
 1058POPC   D2A18220  17.466   3.441   8.460
 1058POPC   C3A18221  17.180   3.498   8.109
 1058POPC   C4A18222  17.375   3.418   7.711
 1058POPC   C1B18223  17.588   3.912   8.768
 1058POPC   C2B18224  17.364   3.934   8.372
 1058POPC   C3B18225  17.515   3.853   7.963
 1058POPC   C4B18226  17.599   3.836   7.528
 1059POPC   NC318227   8.560   8.981  10.185
 1059POPC   PO418228   8.809   8.787   9.613
 1059POPC   GL118229   8.981   8.854   9.206
 1059POPC   GL218230   8.765   8.609   9.060
 1059POPC   C1A18231   9.101   8.919   8.763
 1059POPC   D2A18232   8.970   8.737   8.417
 1059POPC   C3A18233   8.947   8.976   8.060
 1059POPC   C4A18234   8.973   9.235   7.702
 1059POPC   C1B18235   9.115   8.413   8.847
 1059POPC   C2B18236   9.242   8.287   8.433
 1059POPC   C3B18237   9.220   8.475   8.065
 1059POPC   C4B18238   9.044   8.598   7.727
 1060POPC   NC318239   5.531  37.136   9.471
 1060POPC   PO418240   5.953  36.601   9.670
 1060POPC   GL118241   5.951  36.903   9.287
 1060POPC   GL218242   5.712  36.733   9.201
 1060POPC   C1A18243   5.739  37.048   8.818
 1060POPC   D2A18244   5.675  37.189   8.369
 1060POPC   C3A18245   5.720  37.062   7.902
 1060POPC   C4A18246   5.694  37.132   7.425
 1060POPC   C1B18247   6.006  36.613   8.868
 1060POPC   C2B18248   5.942  36.735   8.415
 1060POPC   C3B18249   5.822  36.566   7.961
 1060POPC   C4B18250   5.547  36.660   7.592
 1061POPC   NC318251  22.634  18.207   9.815
 1061POPC   PO418252  23.185  18.118   9.522
 1061POPC   GL118253  23.036  18.033   9.106
 1061POPC   GL218254  23.152  17.684   9.035
 1061POPC   C1A18255  23.023  18.311   8.713
 1061POPC   D2A18256  23.253  18.499   8.347
 1061POPC   C3A18257  23.082  18.440   7.935
 1061POPC   C4A18258  22.935  18.121   7.648
 1061POPC   C1B18259  23.311  17.906   8.648
 1061POPC   C2B18260  23.158  18.006   8.243
 1061POPC   C3B18261  23.095  17.729   7.912
 1061POPC   C4B18262  22.937  17.535   7.546
 1062POPC   NC318263  13.043   4.435   9.336
 1062POPC   PO418264  12.691   3.892   9.443
 1062POPC   GL118265  12.570   4.000   9.050
 1062POPC   GL218266  12.542   4.336   9.167
 1062POPC   C1A18267  12.792   4.018   8.640
 1062POPC   D2A18268  13.086   4.048   8.284
 1062POPC   C3A18269  12.988   4.373   8.051
 1062POPC   C4A18270  13.014   4.576   7.662
 1062POPC   C1B18271  12.619   4.505   8.763
 1062POPC   C2B18272  12.550   4.441   8.336
 1062POPC   C3B18273  12.580   4.643   7.935
 1062POPC   C4B18274  12.472   4.507   7.514
 1063POPC   NC318275   1.606  36.632  10.030
 1063POPC   PO418276   2.112  36.387   9.760
 1063POPC   GL118277   2.093  36.388   9.283
 1063POPC   GL218278   2.324  36.171   9.192
 1063POPC   C1A18279   1.917  36.159   8.863
 1063POPC   D2A18280   2.102  35.949   8.453
 1063POPC   C3A18281   2.012  36.062   7.984
 1063POPC   C4A18282   1.866  35.924   7.546
 1063POPC   C1B18283   2.342  36.379   8.738
 1063POPC   C2B18284   2.074  36.457   8.345
 1063POPC   C3B18285   2.111  36.560   7.873
 1063POPC   C4B18286   2.267  36.656   7.452
 1064POPC   NC318287  36.703  24.389   9.456
 1064POPC   PO418288  37.336  24.632   9.632
 1064POPC   GL118289  37.136  24.739   9.215
 1064POPC   GL218290  36.762  24.821   9.189
 1064POPC   C1A18291  37.129  24.592   8.775
 1064POPC   D2A18292  37.232  24.263   8.456
 1064POPC   C3A18293  37.027  24.252   8.052
 1064POPC   C4A18294  37.027  24.510   7.701
 1064POPC   C1B18295  36.621  24.579   8.829
 1064POPC   C2B18296  36.741  24.476   8.418
 1064POPC   C3B18297  36.604  24.575   7.992
 1064POPC   C4B18298  36.548  24.422   7.564
 1065POPC   NC318299  24.325  17.212   9.423
 1065POPC   PO418300  24.649  17.821   9.470
 1065POPC   GL118301  24.488  17.639   9.139
 1065POPC   GL218302  24.727  17.397   9.148
 1065POPC   C1A18303  24.599  17.701   8.726
 1065POPC   D2A18304  24.360  17.716   8.372
 1065POPC   C3A18305  24.518  17.581   7.986
 1065POPC   C4A18306  24.253  17.684   7.648
 1065POPC   C1B18307  24.605  17.212   8.783
 1065POPC   C2B18308  24.706  17.295   8.375
 1065POPC   C3B18309  24.543  17.077   8.027
 1065POPC   C4B18310  24.336  17.157   7.647
 1066POPC   NC318311  40.725  17.355   9.410
 1066POPC   PO418312  40.911  17.916   9.330
 1066POPC   GL118313  40.846  17.673   9.008
 1066POPC   GL218314  40.483  17.653   9.053
 1066POPC   C1A18315  40.760  17.335   8.739
 1066POPC   D2A18316  40.542  17.487   8.391
 1066POPC   C3A18317  40.846  17.466   8.067
 1066POPC   C4A18318  40.923  17.163   7.749
 1066POPC   C1B18319  40.539  17.947   8.678
 1066POPC   C2B18320  40.604  17.961   8.207
 1066POPC   C3B18321  40.594  17.769   7.769
 1066POPC   C4B18322  41.000  17.670   7.593
 1067POPC   NC318323  40.144  31.421   9.624
 1067POPC   PO418324  40.113  30.806   9.521
 1067POPC   GL118325  40.175  31.166   9.179
 1067POPC   GL218326  40.149  31.567   9.155
 1067POPC   C1A18327  40.331  31.308   8.767
 1067POPC   D2A18328  40.200  31.175   8.361
 1067POPC   C3A18329  40.328  31.482   8.095
 1067POPC   C4A18330  40.287  31.453   7.698
 1067POPC   C1B18331  39.830  31.437   8.862
 1067POPC   C2B18332  39.718  31.368   8.434
 1067POPC   C3B18333  39.788  31.516   7.999
 1067POPC   C4B18334  39.884  31.709   7.571
 1068POPC   NC318335  30.222  14.967   9.578
 1068POPC   PO418336  29.696  15.472   9.435
 1068POPC   GL118337  29.783  15.486   8.949
 1068POPC   GL218338  30.147  15.367   8.795
 1068POPC   C1A18339  29.738  15.213   8.584
 1068POPC   D2A18340  30.029  15.256   8.312
 1068POPC   C3A18341  29.767  15.373   8.058
 1068POPC   C4A18342  29.798  15.349   7.708
 1068POPC   C1B18343  30.173  14.929   8.700
 1068POPC   C2B18344  30.262  14.782   8.305
 1068POPC   C3B18345  30.180  14.991   7.918
 1068POPC   C4B18346  29.904  14.877   7.589
 1069POPC   NC318347  11.289  37.101   9.518
 1069POPC   PO418348  10.814  36.645   9.441
 1069POPC   GL118349  11.130  36.786   9.152
 1069POPC   GL218350  10.898  36.829   8.935
 1069POPC   C1A18351  11.448  36.954   8.815
 1069POPC   D2A18352  11.421  37.118   8.386
 1069POPC   C3A18353  11.652  37.139   7.986
 1069POPC   C4A18354  11.484  36.993   7.604
 1069POPC   C1B18355  10.934  37.082   8.580
 1069POPC   C2B18356  10.890  37.013   8.149
 1069POPC   C3B18357  10.989  37.105   7.723
 1069POPC   C4B18358  11.126  37.198   7.294
 1070POPC   NC318359  43.025   5.293   9.376
 1070POPC   PO418360  43.587   4.914   9.473
 1070POPC   GL118361  43.473   5.190   9.150
 1070POPC   GL218362  43.212   4.971   9.054
 1070POPC   C1A18363  43.333   5.360   8.741
 1070POPC   D2A18364  43.103   5.271   8.360
 1070POPC   C3A18365  43.245   5.160   7.982
 1070POPC   C4A18366  43.223   5.298   7.558
 1070POPC   C1B18367  42.860   5.045   8.743
 1070POPC   C2B18368  42.688   4.970   8.320
 1070POPC   C3B18369  42.762   5.067   7.878
 1070POPC   C4B18370  42.780   5.087   7.422
 1071POPC   NC318371  31.645  32.506   9.592
 1071POPC   PO418372  31.772  31.843   9.444
 1071POPC   GL118373  31.614  32.160   9.182
 1071POPC   GL218374  31.829  32.449   9.110
 1071POPC   C1A18375  31.346  32.185   8.811
 1071POPC   D2A18376  31.102  32.160   8.408
 1071POPC   C3A18377  31.206  31.934   8.026
 1071POPC   C4A18378  31.602  32.009   7.831
 1071POPC   C1B18379  31.707  32.553   8.670
 1071POPC   C2B18380  31.581  32.294   8.319
 1071POPC   C3B18381  31.320  32.414   7.977
 1071POPC   C4B18382  31.444  32.685   7.695
 1072POPC   NC318383   4.414  41.267   9.442
 1072POPC   PO418384   3.837  41.767   9.440
 1072POPC   GL118385   3.887  41.685   9.015
 1072POPC   GL218386   4.190  41.502   8.966
 1072POPC   C1A18387   4.018  41.818   8.600
 1072POPC   D2A18388   4.422  41.845   8.362
 1072POPC   C3A18389   4.467  41.629   7.989
 1072POPC   C4A18390   4.641  41.644   7.551
 1072POPC   C1B18391   4.480  41.432   8.689
 1072POPC   C2B18392   4.759  41.400   8.367
 1072POPC   C3B18393   4.726  41.187   7.961
 1072POPC   C4B18394   4.393  41.205   7.715
 1073POPC   NC318395   0.730   2.656   9.424
 1073POPC   PO418396   0.290   3.057   9.672
 1073POPC   GL118397   0.490   3.063   9.213
 1073POPC   GL218398   0.404   2.767   9.011
 1073POPC   C1A18399   0.736   3.026   8.778
 1073POPC   D2A18400   0.461   2.799   8.496
 1073POPC   C3A18401   0.477   2.923   8.067
 1073POPC   C4A18402   0.709   3.209   7.817
 1073POPC   C1B18403   0.617   2.400   8.823
 1073POPC   C2B18404   0.666   2.335   8.409
 1073POPC   C3B18405   0.372   2.418   8.137
 1073POPC   C4B18406   0.417   2.379   7.753
 1074POPC   NC318407  33.935  23.104   9.614
 1074POPC   PO418408  34.218  22.550   9.618
 1074POPC   GL118409  34.041  22.786   9.202
 1074POPC   GL218410  34.017  23.161   9.119
 1074POPC   C1A18411  33.947  22.857   8.715
 1074POPC   D2A18412  33.854  23.123   8.331
 1074POPC   C3A18413  33.755  22.927   7.930
 1074POPC   C4A18414  33.699  22.756   7.523
 1074POPC   C1B18415  34.100  23.380   8.723
 1074POPC   C2B18416  34.201  23.525   8.283
 1074POPC   C3B18417  34.026  23.577   7.847
 1074POPC   C4B18418  33.879  23.656   7.409
 1075POPC   NC318419  12.670  28.561   9.538
 1075POPC   PO418420  12.986  27.943   9.664
 1075POPC   GL118421  12.825  28.171   9.276
 1075POPC   GL218422  12.537  28.012   9.317
 1075POPC   C1A18423  12.798  28.420   8.875
 1075POPC   D2A18424  12.699  28.688   8.507
 1075POPC   C3A18425  12.944  28.619   8.151
 1075POPC   C4A18426  12.962  28.635   7.716
 1075POPC   C1B18427  12.490  28.014   8.864
 1075POPC   C2B18428  12.588  28.188   8.408
 1075POPC   C3B18429  12.719  28.194   7.945
 1075POPC   C4B18430  12.974  28.116   7.566
 1076POPC   NC318431  27.833  15.787   9.664
 1076POPC   PO418432  27.512  16.340   9.433
 1076POPC   GL118433  27.641  16.058   9.099
 1076POPC   GL218434  27.816  15.761   9.149
 1076POPC   C1A18435  27.776  16.162   8.687
 1076POPC   D2A18436  27.498  16.294   8.344
 1076POPC   C3A18437  27.404  15.987   8.036
 1076POPC   C4A18438  27.610  15.903   7.676
 1076POPC   C1B18439  27.808  15.659   8.719
 1076POPC   C2B18440  27.766  15.698   8.270
 1076POPC   C3B18441  27.960  15.601   7.870
 1076POPC   C4B18442  27.759  15.494   7.447
 1077POPC   NC318443  12.672   6.142   9.329
 1077POPC   PO418444  12.938   5.545   9.511
 1077POPC   GL118445  12.903   5.720   9.091
 1077POPC   GL218446  13.218   5.889   9.119
 1077POPC   C1A18447  12.699   5.761   8.645
 1077POPC   D2A18448  12.702   5.664   8.188
 1077POPC   C3A18449  12.664   5.934   7.824
 1077POPC   C4A18450  12.613   5.863   7.373
 1077POPC   C1B18451  13.216   5.764   8.689
 1077POPC   C2B18452  13.158   5.909   8.301
 1077POPC   C3B18453  13.149   6.062   7.895
 1077POPC   C4B18454  13.090   5.830   7.522
 1078POPC   NC318455   1.689  39.981   9.410
 1078POPC   PO418456   2.292  39.702   9.455
 1078POPC   GL118457   2.214  40.097   9.140
 1078POPC   GL218458   1.908  40.373   9.157
 1078POPC   C1A18459   2.388  40.119   8.698
 1078POPC   D2A18460   2.372  40.142   8.243
 1078POPC   C3A18461   1.999  40.217   8.002
 1078POPC   C4A18462   1.956  39.874   7.742
 1078POPC   C1B18463   1.892  40.187   8.729
 1078POPC   C2B18464   1.989  39.851   8.394
 1078POPC   C3B18465   1.831  39.530   8.072
 1078POPC   C4B18466   1.547  39.574   7.675
 1079POPC   NC318467  35.983   4.470   9.969
 1079POPC   PO418468  36.558   4.326   9.711
 1079POPC   GL118469  36.337   4.504   9.306
 1079POPC   GL218470  36.025   4.671   9.150
 1079POPC   C1A18471  36.378   4.467   8.840
 1079POPC   D2A18472  36.164   4.140   8.544
 1079POPC   C3A18473  36.148   4.230   8.102
 1079POPC   C4A18474  36.297   4.333   7.697
 1079POPC   C1B18475  35.862   4.440   8.819
 1079POPC   C2B18476  35.685   4.330   8.433
 1079POPC   C3B18477  35.653   4.124   8.039
 1079POPC   C4B18478  35.841   4.079   7.610
 1080POPC   NC318479  34.845  18.686   9.471
 1080POPC   PO418480  34.674  19.437   9.494
 1080POPC   GL118481  34.616  19.108   9.253
 1080POPC   GL218482  34.958  19.094   9.150
 1080POPC   C1A18483  34.515  18.893   8.911
 1080POPC   D2A18484  34.627  18.946   8.498
 1080POPC   C3A18485  34.369  18.892   8.141
 1080POPC   C4A18486  34.397  18.856   7.675
 1080POPC   C1B18487  35.047  18.815   8.792
 1080POPC   C2B18488  34.998  18.638   8.342
 1080POPC   C3B18489  34.854  18.947   8.032
 1080POPC   C4B18490  34.795  19.184   7.661
 1081POPC   NC318491  19.486   9.044   9.836
 1081POPC   PO418492  19.997   8.893   9.536
 1081POPC   GL118493  19.946   8.914   9.140
 1081POPC   GL218494  19.782   8.688   9.031
 1081POPC   C1A18495  20.022   9.026   8.741
 1081POPC   D2A18496  19.874   8.908   8.350
 1081POPC   C3A18497  19.588   9.048   8.060
 1081POPC   C4A18498  19.996   9.072   7.804
 1081POPC   C1B18499  19.543   8.737   8.690
 1081POPC   C2B18500  19.541   8.550   8.295
 1081POPC   C3B18501  19.786   8.616   7.914
 1081POPC   C4B18502  19.785   8.491   7.478
 1082POPC   NC318503  10.739  12.462   9.217
 1082POPC   PO418504  10.731  13.039   9.553
 1082POPC   GL118505  10.406  12.869   9.258
 1082POPC   GL218506  10.199  12.606   9.115
 1082POPC   C1A18507  10.462  12.938   8.794
 1082POPC   D2A18508  10.658  13.050   8.390
 1082POPC   C3A18509  10.588  12.802   7.992
 1082POPC   C4A18510  10.487  12.989   7.551
 1082POPC   C1B18511  10.163  12.455   8.660
 1082POPC   C2B18512  10.037  12.600   8.218
 1082POPC   C3B18513  10.163  12.658   7.766
 1082POPC   C4B18514  10.247  12.565   7.269
 1083POPC   NC318515  42.443  33.613   9.723
 1083POPC   PO418516  42.061  34.053   9.580
 1083POPC   GL118517  42.128  33.699   9.264
 1083POPC   GL218518  41.817  33.591   9.160
 1083POPC   C1A18519  42.195  33.490   8.826
 1083POPC   D2A18520  42.201  33.411   8.364
 1083POPC   C3A18521  42.364  33.674   8.043
 1083POPC   C4A18522  42.380  34.034   7.740
 1083POPC   C1B18523  41.861  33.871   8.827
 1083POPC   C2B18524  42.035  33.886   8.428
 1083POPC   C3B18525  41.929  33.935   8.004
 1083POPC   C4B18526  41.892  34.303   7.774
 1084POPC   NC318527  38.939  18.140   9.480
 1084POPC   PO418528  39.223  18.726   9.655
 1084POPC   GL118529  39.152  18.543   9.208
 1084POPC   GL218530  38.942  18.706   9.003
 1084POPC   C1A18531  39.154  18.251   8.811
 1084POPC   D2A18532  39.029  18.056   8.384
 1084POPC   C3A18533  39.330  17.954   8.028
 1084POPC   C4A18534  39.525  18.139   7.629
 1084POPC   C1B18535  39.317  18.746   8.733
 1084POPC   C2B18536  39.397  18.479   8.374
 1084POPC   C3B18537  39.223  18.446   7.937
 1084POPC   C4B18538  39.190  18.551   7.489
 1085POPC   NC318539  42.164  28.353   9.501
 1085POPC   PO418540  42.753  27.947   9.535
 1085POPC   GL118541  42.622  28.272   9.184
 1085POPC   GL218542  42.268  28.353   9.019
 1085POPC   C1A18543  42.614  28.193   8.719
 1085POPC   D2A18544  42.281  28.304   8.444
 1085POPC   C3A18545  42.521  28.416   8.057
 1085POPC   C4A18546  42.575  28.256   7.622
 1085POPC   C1B18547  41.956  28.595   8.767
 1085POPC   C2B18548  41.831  28.710   8.339
 1085POPC   C3B18549  42.021  28.513   7.989
 1085POPC   C4B18550  42.008  28.619   7.563
 1086POPC   NC318551  14.322  20.361   9.447
 1086POPC   PO418552  14.445  21.035   9.457
 1086POPC   GL118553  14.569  20.746   9.144
 1086POPC   GL218554  14.299  20.584   9.011
 1086POPC   C1A18555  14.668  20.779   8.686
 1086POPC   D2A18556  14.496  20.802   8.234
 1086POPC   C3A18557  14.627  20.608   7.800
 1086POPC   C4A18558  14.774  20.833   7.338
 1086POPC   C1B18559  14.182  20.571   8.615
 1086POPC   C2B18560  14.147  20.233   8.367
 1086POPC   C3B18561  14.191  20.425   8.000
 1086POPC   C4B18562  14.129  20.336   7.634
 1087POPC   NC318563  13.354   6.695   9.640
 1087POPC   PO418564  13.930   6.887   9.702
 1087POPC   GL118565  13.765   6.600   9.332
 1087POPC   GL218566  13.492   6.324   9.252
 1087POPC   C1A18567  13.626   6.674   8.893
 1087POPC   D2A18568  13.700   6.559   8.476
 1087POPC   C3A18569  13.914   6.721   8.092
 1087POPC   C4A18570  13.718   6.799   7.663
 1087POPC   C1B18571  13.357   6.253   8.790
 1087POPC   C2B18572  13.232   6.406   8.357
 1087POPC   C3B18573  13.558   6.332   8.047
 1087POPC   C4B18574  13.559   6.252   7.628
 1088POPC   NC318575  44.859  22.616   9.526
 1088POPC   PO418576  44.471  23.134   9.485
 1088POPC   GL118577  44.447  23.018   9.045
 1088POPC   GL218578  44.506  22.648   9.040
 1088POPC   C1A18579  44.605  22.923   8.623
 1088POPC   D2A18580  44.758  22.710   8.272
 1088POPC   C3A18581  44.643  22.970   7.916
 1088POPC   C4A18582  44.795  23.335   7.679
 1088POPC   C1B18583  44.141  22.710   8.750
 1088POPC   C2B18584  44.131  22.862   8.320
 1088POPC   C3B18585  44.310  22.594   8.021
 1088POPC   C4B18586  44.377  22.603   7.608
 1089POPC   NC318587  19.642  10.990   9.480
 1089POPC   PO418588  19.907  11.637   9.489
 1089POPC   GL118589  19.852  11.357   9.180
 1089POPC   GL218590  19.480  11.322   9.105
 1089POPC   C1A18591  19.861  11.159   8.809
 1089POPC   D2A18592  19.565  10.938   8.532
 1089POPC   C3A18593  19.755  10.917   8.128
 1089POPC   C4A18594  19.952  11.024   7.731
 1089POPC   C1B18595  19.510  11.507   8.715
 1089POPC   C2B18596  19.750  11.373   8.347
 1089POPC   C3B18597  19.691  11.464   7.933
 1089POPC   C4B18598  19.492  11.832   7.768
 1090POPC   NC318599  42.166  29.350   9.425
 1090POPC   PO418600  42.486  28.722   9.446
 1090POPC   GL118601  42.486  29.058   9.163
 1090POPC   GL218602  42.156  28.925   9.102
 1090POPC   C1A18603  42.404  29.340   8.798
 1090POPC   D2A18604  42.295  29.344   8.362
 1090POPC   C3A18605  42.549  29.386   7.977
 1090POPC   C4A18606  42.396  29.241   7.545
 1090POPC   C1B18607  42.447  28.755   8.765
 1090POPC   C2B18608  42.315  28.802   8.365
 1090POPC   C3B18609  42.294  28.942   7.961
 1090POPC   C4B18610  42.504  28.750   7.611
 1091POPC   NC318611  44.525  11.501   9.352
 1091POPC   PO418612  44.387  11.019   9.565
 1091POPC   GL118613  44.558  10.988   9.132
 1091POPC   GL218614  44.838  11.190   9.083
 1091POPC   C1A18615  44.662  10.940   8.656
 1091POPC   D2A18616  44.508  11.136   8.245
 1091POPC   C3A18617  44.681  11.413   7.905
 1091POPC   C4A18618  44.841  11.384   7.480
 1091POPC   C1B18619  44.966  11.348   8.679
 1091POPC   C2B18620   0.028  11.239   8.233
 1091POPC   C3B18621  44.985  11.009   7.806
 1091POPC   C4B18622   0.074  10.943   7.329
 1092POPC   NC318623   7.104  42.044   9.400
 1092POPC   PO418624   7.653  42.404   9.336
 1092POPC   GL118625   7.443  42.645   9.059
 1092POPC   GL218626   7.117  42.522   9.098
 1092POPC   C1A18627   7.342  42.728   8.652
 1092POPC   D2A18628   7.101  42.489   8.386
 1092POPC   C3A18629   7.255  42.403   7.971
 1092POPC   C4A18630   7.600  42.629   7.808
 1092POPC   C1B18631   7.290  42.224   8.791
 1092POPC   C2B18632   7.593  42.273   8.482
 1092POPC   C3B18633   7.538  42.004   8.160
 1092POPC   C4B18634   7.642  41.902   7.750
 1093POPC   NC318635  20.229  44.660  10.119
 1093POPC   PO418636  20.822  44.795   9.803
 1093POPC   GL118637  20.863  44.611   9.349
 1093POPC   GL218638  20.538  44.691   9.193
 1093POPC   C1A18639  20.877  44.503   8.865
 1093POPC   D2A18640  20.715  44.598   8.451
 1093POPC   C3A18641  20.712  44.341   8.063
 1093POPC   C4A18642  20.717  44.571   7.657
 1093POPC   C1B18643  20.353  44.809   8.776
 1093POPC   C2B18644  20.369  44.966   8.390
 1093POPC   C3B18645  20.351  44.738   8.030
 1093POPC   C4B18646  20.260  44.892   7.646
 1094POPC   NC318647  30.724   1.074   9.441
 1094POPC   PO418648  30.637   1.742   9.474
 1094POPC   GL118649  30.547   1.583   9.097
 1094POPC   GL218650  30.889   1.444   9.103
 1094POPC   C1A18651  30.500   1.269   8.781
 1094POPC   D2A18652  30.658   1.113   8.390
 1094POPC   C3A18653  30.528   1.297   7.997
 1094POPC   C4A18654  30.478   1.105   7.588
 1094POPC   C1B18655  31.003   1.108   8.821
 1094POPC   C2B18656  31.135   0.921   8.427
 1094POPC   C3B18657  30.962   0.967   8.005
 1094POPC   C4B18658  30.934   0.759   7.643
 1095POPC   NC318659  35.718  14.894   9.323
 1095POPC   PO418660  36.135  15.349   9.482
 1095POPC   GL118661  36.148  15.422   9.079
 1095POPC   GL218662  35.914  15.186   8.954
 1095POPC   C1A18663  36.272  15.413   8.661
 1095POPC   D2A18664  35.970  15.242   8.422
 1095POPC   C3A18665  36.156  15.036   8.076
 1095POPC   C4A18666  36.449  15.146   7.781
 1095POPC   C1B18667  35.741  14.849   8.666
 1095POPC   C2B18668  35.705  14.825   8.216
 1095POPC   C3B18669  35.677  14.812   7.775
 1095POPC   C4B18670  35.744  14.868   7.321
 1096POPC   NC318671   5.058  40.030   9.559
 1096POPC   PO418672   4.713  40.611   9.391
 1096POPC   GL118673   4.917  40.280   9.114
 1096POPC   GL218674   5.183  39.978   9.075
 1096POPC   C1A18675   4.909  40.163   8.686
 1096POPC   D2A18676   4.820  40.196   8.274
 1096POPC   C3A18677   5.083  40.274   7.933
 1096POPC   C4A18678   4.955  40.015   7.611
 1096POPC   C1B18679   5.427  40.090   8.718
 1096POPC   C2B18680   5.453  40.077   8.262
 1096POPC   C3B18681   5.408  39.865   7.859
 1096POPC   C4B18682   5.434  39.913   7.420
 1097POPC   NC318683  38.744  22.511   9.481
 1097POPC   PO418684  38.501  23.191   9.431
 1097POPC   GL118685  38.556  22.861   9.146
 1097POPC   GL218686  38.894  22.828   9.107
 1097POPC   C1A18687  38.350  22.730   8.793
 1097POPC   D2A18688  38.503  22.639   8.370
 1097POPC   C3A18689  38.148  22.740   8.089
 1097POPC   C4A18690  38.094  22.893   7.649
 1097POPC   C1B18691  38.802  23.002   8.709
 1097POPC   C2B18692  38.926  22.935   8.298
 1097POPC   C3B18693  38.638  22.864   7.939
 1097POPC   C4B18694  38.606  23.240   7.715
 1098POPC   NC318695   6.377  36.391   9.551
 1098POPC   PO418696   6.686  35.761   9.409
 1098POPC   GL118697   6.706  36.137   9.187
 1098POPC   GL218698   6.392  36.190   9.075
 1098POPC   C1A18699   6.778  36.303   8.760
 1098POPC   D2A18700   6.677  36.118   8.346
 1098POPC   C3A18701   6.955  36.160   8.016
 1098POPC   C4A18702   6.883  36.216   7.608
 1098POPC   C1B18703   6.280  36.244   8.650
 1098POPC   C2B18704   6.192  36.330   8.235
 1098POPC   C3B18705   6.442  36.263   7.887
 1098POPC   C4B18706   6.534  35.846   7.757
 1099POPC   NC318707  31.869  20.101   9.586
 1099POPC   PO418708  32.248  19.472   9.510
 1099POPC   GL118709  32.215  19.664   9.118
 1099POPC   GL218710  32.439  19.953   9.079
 1099POPC   C1A18711  32.026  19.478   8.734
 1099POPC   D2A18712  32.001  19.448   8.275
 1099POPC   C3A18713  32.272  19.738   8.045
 1099POPC   C4A18714  32.246  19.897   7.658
 1099POPC   C1B18715  32.504  19.800   8.683
 1099POPC   C2B18716  32.678  19.952   8.309
 1099POPC   C3B18717  32.670  20.091   7.876
 1099POPC   C4B18718  32.685  20.113   7.414
 1100POPC   NC318719  20.163   4.965   9.521
 1100POPC   PO418720  19.649   5.395   9.564
 1100POPC   GL118721  19.891   5.322   9.187
 1100POPC   GL218722  19.839   5.000   9.119
 1100POPC   C1A18723  20.004   5.324   8.743
 1100POPC   D2A18724  20.116   5.262   8.318
 1100POPC   C3A18725  19.813   5.287   8.015
 1100POPC   C4A18726  19.860   5.100   7.680
 1100POPC   C1B18727  19.810   4.828   8.707
 1100POPC   C2B18728  19.633   5.026   8.406
 1100POPC   C3B18729  19.544   4.842   8.012
 1100POPC   C4B18730  19.556   4.695   7.613
 1101POPC   NC318731  44.866  14.971   9.478
 1101POPC   PO418732  44.379  14.733   9.373
 1101POPC   GL118733  44.589  14.972   9.035
 1101POPC   GL218734  44.587  15.308   9.180
 1101POPC   C1A18735  44.374  15.019   8.628
 1101POPC   D2A18736  44.483  14.818   8.221
 1101POPC   C3A18737  44.752  15.003   7.893
 1101POPC   C4A18738  44.745  14.884   7.442
 1101POPC   C1B18739  44.650  15.424   8.754
 1101POPC   C2B18740  44.675  15.310   8.316
 1101POPC   C3B18741  44.989  15.482   8.039
 1101POPC   C4B18742  44.994  15.855   7.748
 1102POPC   NC318743  11.052   2.626   9.375
 1102POPC   PO418744  11.539   2.221   9.719
 1102POPC   GL118745  11.582   2.552   9.313
 1102POPC   GL218746  11.438   2.895   9.175
 1102POPC   C1A18747  11.666   2.565   8.836
 1102POPC   D2A18748  11.640   2.732   8.401
 1102POPC   C3A18749  11.492   2.446   8.057
 1102POPC   C4A18750  11.475   2.549   7.601
 1102POPC   C1B18751  11.213   2.857   8.767
 1102POPC   C2B18752  11.142   2.885   8.314
 1102POPC   C3B18753  11.303   2.919   7.902
 1102POPC   C4B18754  11.053   2.849   7.538
 1103POPC   NC318755  37.017  37.404   9.737
 1103POPC   PO418756  37.022  36.771   9.463
 1103POPC   GL118757  36.965  36.768   9.023
 1103POPC   GL218758  37.232  36.962   8.866
 1103POPC   C1A18759  36.806  36.915   8.610
 1103POPC   D2A18760  36.993  37.033   8.207
 1103POPC   C3A18761  36.723  37.019   7.824
 1103POPC   C4A18762  36.493  36.831   7.461
 1103POPC   C1B18763  37.217  36.597   8.585
 1103POPC   C2B18764  37.217  36.567   8.146
 1103POPC   C3B18765  37.323  36.878   7.856
 1103POPC   C4B18766  37.163  37.253   7.698
 1104POPC   NC318767  29.138  36.728   9.521
 1104POPC   PO418768  28.996  37.379   9.418
 1104POPC   GL118769  29.223  37.053   9.127
 1104POPC   GL218770  29.541  36.921   9.250
 1104POPC   C1A18771  29.106  36.703   8.832
 1104POPC   D2A18772  28.957  36.515   8.420
 1104POPC   C3A18773  29.046  36.628   7.960
 1104POPC   C4A18774  28.923  36.682   7.508
 1104POPC   C1B18775  29.608  36.755   8.821
 1104POPC   C2B18776  29.433  36.841   8.422
 1104POPC   C3B18777  29.502  36.871   7.956
 1104POPC   C4B18778  29.495  36.838   7.481
 1105POPC   NC318779  13.857  37.031   9.582
 1105POPC   PO418780  13.576  36.528   9.349
 1105POPC   GL118781  13.529  36.894   9.119
 1105POPC   GL218782  13.244  36.742   8.919
 1105POPC   C1A18783  13.567  37.090   8.741
 1105POPC   D2A18784  13.426  36.875   8.390
 1105POPC   C3A18785  13.675  36.987   8.068
 1105POPC   C4A18786  13.838  37.098   7.704
 1105POPC   C1B18787  13.634  36.542   8.703
 1105POPC   C2B18788  13.801  36.520   8.260
 1105POPC   C3B18789  13.647  36.541   7.806
 1105POPC   C4B18790  13.775  36.366   7.381
 1106POPC   NC318791  17.553  33.369   9.451
 1106POPC   PO418792  17.325  32.713   9.437
 1106POPC   GL118793  17.584  32.822   9.104
 1106POPC   GL218794  17.475  33.111   9.003
 1106POPC   C1A18795  17.568  32.693   8.691
 1106POPC   D2A18796  17.254  32.673   8.384
 1106POPC   C3A18797  17.467  32.858   8.067
 1106POPC   C4A18798  17.481  32.999   7.654
 1106POPC   C1B18799  17.834  33.172   8.757
 1106POPC   C2B18800  17.862  33.230   8.308
 1106POPC   C3B18801  17.630  33.415   7.970
 1106POPC   C4B18802  17.356  33.500   7.620
 1107POPC   NC318803  39.449  10.107   9.346
 1107POPC   PO418804  38.886   9.735   9.520
 1107POPC   GL118805  39.055   9.759   9.094
 1107POPC   GL218806  39.424   9.657   9.074
 1107POPC   C1A18807  39.134   9.695   8.649
 1107POPC   D2A18808  39.456   9.553   8.364
 1107POPC   C3A18809  39.409   9.615   7.916
 1107POPC   C4A18810  39.033   9.815   7.758
 1107POPC   C1B18811  39.616   9.906   8.715
 1107POPC   C2B18812  39.752   9.988   8.261
 1107POPC   C3B18813  39.555  10.108   7.828
 1107POPC   C4B18814  39.395   9.926   7.429
 1108POPC   NC318815  10.991  21.512   9.526
 1108POPC   PO418816  11.690  21.652   9.813
 1108POPC   GL118817  11.494  21.643   9.346
 1108POPC   GL218818  11.293  21.353   9.170
 1108POPC   C1A18819  11.576  21.603   8.861
 1108POPC   D2A18820  11.238  21.583   8.551
 1108POPC   C3A18821  11.276  21.682   8.099
 1108POPC   C4A18822  11.441  21.590   7.683
 1108POPC   C1B18823  11.330  21.116   8.796
 1108POPC   C2B18824  11.140  21.096   8.392
 1108POPC   C3B18825  11.287  21.168   7.965
 1108POPC   C4B18826  10.992  21.164   7.632
 1109POPC   NC318827  17.259   4.262   9.681
 1109POPC   PO418828  17.838   4.461   9.390
 1109POPC   GL118829  17.467   4.230   9.191
 1109POPC   GL218830  17.338   4.546   9.136
 1109POPC   C1A18831  17.152   4.175   8.805
 1109POPC   D2A18832  17.147   4.411   8.385
 1109POPC   C3A18833  17.215   4.264   7.956
 1109POPC   C4A18834  17.304   4.257   7.489
 1109POPC   C1B18835  17.582   4.432   8.725
 1109POPC   C2B18836  17.775   4.222   8.354
 1109POPC   C3B18837  17.751   4.324   7.921
 1109POPC   C4B18838  17.516   4.646   7.726
 1110POPC   NC318839  15.360   0.112   9.377
 1110POPC   PO418840  14.917   0.553   9.603
 1110POPC   GL118841  14.905   0.503   9.181
 1110POPC   GL218842  14.878   0.852   9.132
 1110POPC   C1A18843  15.103   0.450   8.767
 1110POPC   D2A18844  15.033   0.387   8.323
 1110POPC   C3A18845  15.325   0.143   8.085
 1110POPC   C4A18846  15.453   0.303   7.686
 1110POPC   C1B18847  14.678   0.747   8.788
 1110POPC   C2B18848  14.615   0.744   8.368
 1110POPC   C3B18849  14.821   0.702   7.957
 1110POPC   C4B18850  14.772   0.814   7.518
 1111POPC   NC318851  25.589  19.854   9.743
 1111POPC   PO418852  26.210  19.880   9.644
 1111POPC   GL118853  26.242  19.729   9.193
 1111POPC   GL218854  25.876  19.657   9.169
 1111POPC   C1A18855  26.374  19.482   8.812
 1111POPC   D2A18856  26.152  19.457   8.403
 1111POPC   C3A18857  26.245  19.646   7.975
 1111POPC   C4A18858  26.254  19.927   7.578
 1111POPC   C1B18859  25.975  19.815   8.736
 1111POPC   C2B18860  25.850  19.837   8.268
 1111POPC   C3B18861  25.811  19.967   7.824
 1111POPC   C4B18862  25.484  19.858   7.505
 1112POPC   NC318863  27.120  42.739   9.521
 1112POPC   PO418864  26.603  42.335   9.592
 1112POPC   GL118865  26.863  42.407   9.154
 1112POPC   GL218866  27.199  42.565   9.039
 1112POPC   C1A18867  26.951  42.281   8.693
 1112POPC   D2A18868  27.111  42.372   8.294
 1112POPC   C3A18869  26.920  42.285   7.891
 1112POPC   C4A18870  27.020  42.100   7.486
 1112POPC   C1B18871  27.013  42.798   8.672
 1112POPC   C2B18872  26.894  42.815   8.208
 1112POPC   C3B18873  26.630  42.708   7.834
 1112POPC   C4B18874  26.355  42.800   7.458
 1113POPC   NC318875  38.538  37.332   9.936
 1113POPC   PO418876  38.356  37.822   9.530
 1113POPC   GL118877  38.370  37.626   9.142
 1113POPC   GL218878  38.299  37.961   9.042
 1113POPC   C1A18879  38.501  37.545   8.694
 1113POPC   D2A18880  38.675  37.373   8.289
 1113POPC   C3A18881  38.337  37.335   7.939
 1113POPC   C4A18882  38.097  37.676   7.783
 1113POPC   C1B18883  38.699  37.950   8.893
 1113POPC   C2B18884  38.614  37.983   8.458
 1113POPC   C3B18885  38.437  37.806   8.137
 1113POPC   C4B18886  38.523  37.986   7.746
 1114POPC   NC318887  24.402  43.626   9.716
 1114POPC   PO418888  24.014  44.118   9.532
 1114POPC   GL118889  24.398  43.993   9.316
 1114POPC   GL218890  24.281  43.700   9.227
 1114POPC   C1A18891  24.637  43.860   8.918
 1114POPC   D2A18892  24.474  43.944   8.501
 1114POPC   C3A18893  24.581  43.725   8.165
 1114POPC   C4A18894  24.771  43.748   7.751
 1114POPC   C1B18895  24.119  43.876   8.858
 1114POPC   C2B18896  24.113  43.562   8.530
 1114POPC   C3B18897  24.102  43.504   8.066
 1114POPC   C4B18898  24.243  43.827   7.773
 1115POPC   NC318899  35.514   8.617   9.454
 1115POPC   PO418900  35.496   7.922   9.513
 1115POPC   GL118901  35.198   8.055   9.175
 1115POPC   GL218902  35.036   8.394   9.125
 1115POPC   C1A18903  35.315   7.931   8.737
 1115POPC   D2A18904  35.554   8.106   8.421
 1115POPC   C3A18905  35.358   7.961   8.063
 1115POPC   C4A18906  35.579   7.937   7.657
 1115POPC   C1B18907  35.457   8.376   8.878
 1115POPC   C2B18908  35.583   8.605   8.567
 1115POPC   C3B18909  35.408   8.605   8.194
 1115POPC   C4B18910  35.349   8.396   7.819
 1116POPC   NC318911  38.989  37.209   9.545
 1116POPC   PO418912  39.589  36.943   9.404
 1116POPC   GL118913  39.239  36.921   9.164
 1116POPC   GL218914  38.934  36.726   9.303
 1116POPC   C1A18915  39.288  37.057   8.744
 1116POPC   D2A18916  39.481  37.084   8.321
 1116POPC   C3A18917  39.370  36.904   7.923
 1116POPC   C4A18918  39.430  36.843   7.478
 1116POPC   C1B18919  38.963  36.661   8.840
 1116POPC   C2B18920  38.996  36.836   8.400
 1116POPC   C3B18921  38.973  36.624   8.034
 1116POPC   C4B18922  39.019  36.568   7.625
 1117POPC   NC318923   2.256  18.765   9.377
 1117POPC   PO418924   1.796  19.256   9.575
 1117POPC   GL118925   1.769  19.248   9.137
 1117POPC   GL218926   1.844  18.905   9.091
 1117POPC   C1A18927   1.886  19.218   8.692
 1117POPC   D2A18928   1.691  19.059   8.314
 1117POPC   C3A18929   1.791  19.320   7.944
 1117POPC   C4A18930   2.203  19.303   7.765
 1117POPC   C1B18931   2.074  18.722   8.735
 1117POPC   C2B18932   2.078  18.538   8.313
 1117POPC   C3B18933   2.011  18.806   7.947
 1117POPC   C4B18934   1.566  18.879   7.850
 1118POPC   NC318935  12.263  11.203   9.467
 1118POPC   PO418936  11.804  11.554   9.739
 1118POPC   GL118937  11.795  11.266   9.277
 1118POPC   GL218938  11.959  10.942   9.175
 1118POPC   C1A18939  11.626  11.133   8.833
 1118POPC   D2A18940  11.704  11.288   8.386
 1118POPC   C3A18941  11.896  11.102   8.001
 1118POPC   C4A18942  11.876  11.259   7.614
 1118POPC   C1B18943  12.139  11.126   8.803
 1118POPC   C2B18944  12.231  11.212   8.382
 1118POPC   C3B18945  12.175  11.515   8.069
 1118POPC   C4B18946  12.315  11.521   7.687
 1119POPC   NC318947   7.777  41.311   9.498
 1119POPC   PO418948   7.112  41.566   9.418
 1119POPC   GL118949   7.452  41.451   9.111
 1119POPC   GL218950   7.776  41.637   9.099
 1119POPC   C1A18951   7.564  41.258   8.731
 1119POPC   D2A18952   7.829  41.278   8.364
 1119POPC   C3A18953   7.595  41.350   7.970
 1119POPC   C4A18954   7.341  41.280   7.600
 1119POPC   C1B18955   7.562  41.771   8.702
 1119POPC   C2B18956   7.324  41.575   8.353
 1119POPC   C3B18957   7.202  41.699   7.919
 1119POPC   C4B18958   6.988  42.033   7.650
 1120POPC   NC318959  13.311  35.135   9.316
 1120POPC   PO418960  12.668  35.244   9.533
 1120POPC   GL118961  12.832  35.153   9.150
 1120POPC   GL218962  13.031  35.472   9.060
 1120POPC   C1A18963  12.866  35.056   8.718
 1120POPC   D2A18964  12.969  35.368   8.411
 1120POPC   C3A18965  12.803  35.387   8.002
 1120POPC   C4A18966  12.487  35.294   7.677
 1120POPC   C1B18967  13.263  35.708   8.735
 1120POPC   C2B18968  13.376  35.642   8.306
 1120POPC   C3B18969  13.258  35.721   7.887
 1120POPC   C4B18970  13.116  35.413   7.578
 1121POPC   NC318971  11.809   6.385   9.446
 1121POPC   PO418972  11.401   6.977   9.508
 1121POPC   GL118973  11.441   6.719   9.146
 1121POPC   GL218974  11.300   6.428   9.078
 1121POPC   C1A18975  11.300   6.773   8.723
 1121POPC   D2A18976  11.451   6.635   8.355
 1121POPC   C3A18977  11.494   7.001   8.156
 1121POPC   C4A18978  11.283   6.854   7.879
 1121POPC   C1B18979  11.314   6.259   8.692
 1121POPC   C2B18980  11.041   6.306   8.386
 1121POPC   C3B18981  11.123   6.344   7.974
 1121POPC   C4B18982  11.500   6.407   7.755
 1122POPC   NC318983   3.841  26.667   9.472
 1122POPC   PO418984   3.308  26.672   9.643
 1122POPC   GL118985   3.400  26.782   9.196
 1122POPC   GL218986   3.105  26.679   9.030
 1122POPC   C1A18987   3.517  26.803   8.716
 1122POPC   D2A18988   3.428  26.621   8.273
 1122POPC   C3A18989   3.686  26.714   7.900
 1122POPC   C4A18990   3.661  27.091   7.645
 1122POPC   C1B18991   3.002  26.821   8.589
 1122POPC   C2B18992   2.933  26.714   8.149
 1122POPC   C3B18993   3.202  26.770   7.778
 1122POPC   C4B18994   3.460  26.621   7.424
 1123POPC   NC318995  29.434  42.026   9.543
 1123POPC   PO418996  29.124  41.427   9.847
 1123POPC   GL118997  29.165  41.453   9.352
 1123POPC   GL218998  29.255  41.749   9.128
 1123POPC   C1A18999  29.183  41.282   8.890
 1123POPC   D2A19000  29.454  41.209   8.475
 1123POPC   C3A19001  29.296  41.307   8.017
 1123POPC   C4A19002  28.906  41.480   7.874
 1123POPC   C1B19003  29.449  41.670   8.726
 1123POPC   C2B19004  29.165  41.628   8.391
 1123POPC   C3B19005  29.069  41.929   8.072
 1123POPC   C4B19006  29.237  41.846   7.698
 1124POPC   NC319007  12.907  33.733   9.576
 1124POPC   PO419008  12.519  34.270   9.602
 1124POPC   GL119009  12.510  34.030   9.218
 1124POPC   GL219010  12.866  34.001   9.154
 1124POPC   C1A19011  12.568  34.096   8.761
 1124POPC   D2A19012  12.737  34.076   8.363
 1124POPC   C3A19013  12.470  33.816   8.111
 1124POPC   C4A19014  12.591  33.678   7.724
 1124POPC   C1B19015  13.061  33.916   8.776
 1124POPC   C2B19016  13.184  33.782   8.386
 1124POPC   C3B19017  13.045  33.902   7.998
 1124POPC   C4B19018  13.147  33.582   7.752
 1125POPC   NC319019  14.083  19.606   9.297
 1125POPC   PO419020  13.489  19.620   9.570
 1125POPC   GL119021  13.585  19.873   9.209
 1125POPC   GL219022  13.891  20.092   9.289
 1125POPC   C1A19023  13.483  19.767   8.775
 1125POPC   D2A19024  13.657  19.645   8.372
 1125POPC   C3A19025  13.389  19.731   8.033
 1125POPC   C4A19026  13.596  19.622   7.709
 1125POPC   C1B19027  13.865  20.239   8.861
 1125POPC   C2B19028  13.654  20.160   8.459
 1125POPC   C3B19029  13.771  20.100   8.012
 1125POPC   C4B19030  13.506  20.139   7.657
 1126POPC   NC319031  11.700   8.827   9.509
 1126POPC   PO419032  11.155   9.123   9.782
 1126POPC   GL119033  11.151   9.022   9.285
 1126POPC   GL219034  10.870   8.787   9.187
 1126POPC   C1A19035  11.266   8.902   8.826
 1126POPC   D2A19036  11.376   8.731   8.387
 1126POPC   C3A19037  11.273   8.943   7.995
 1126POPC   C4A19038  11.418   9.124   7.604
 1126POPC   C1B19039  10.726   8.842   8.742
 1126POPC   C2B19040  10.832   8.635   8.337
 1126POPC   C3B19041  10.849   8.617   7.883
 1126POPC   C4B19042  11.019   8.816   7.568
 1127POPC   NC319043  25.469  26.946   9.457
 1127POPC   PO419044  25.285  26.324   9.592
 1127POPC   GL119045  25.239  26.564   9.191
 1127POPC   GL219046  24.871  26.527   9.096
 1127POPC   C1A19047  25.506  26.778   8.819
 1127POPC   D2A19048  25.665  27.024   8.415
 1127POPC   C3A19049  25.649  26.905   7.937
 1127POPC   C4A19050  25.304  26.982   7.603
 1127POPC   C1B19051  25.111  26.410   8.732
 1127POPC   C2B19052  25.258  26.669   8.392
 1127POPC   C3B19053  25.165  26.699   7.995
 1127POPC   C4B19054  25.226  26.439   7.674
 1128POPC   NC319055   3.168  42.853   9.379
 1128POPC   PO419056   2.490  42.968   9.663
 1128POPC   GL119057   2.683  43.023   9.249
 1128POPC   GL219058   2.733  43.393   9.136
 1128POPC   C1A19059   2.776  42.959   8.824
 1128POPC   D2A19060   2.888  43.257   8.535
 1128POPC   C3A19061   2.885  43.189   8.111
 1128POPC   C4A19062   2.954  43.006   7.733
 1128POPC   C1B19063   2.454  43.390   8.794
 1128POPC   C2B19064   2.468  43.552   8.408
 1128POPC   C3B19065   2.597  43.594   8.020
 1128POPC   C4B19066   2.636  43.458   7.627
 1129POPC   NC319067  39.650  15.665   9.522
 1129POPC   PO419068  39.105  16.140   9.502
 1129POPC   GL119069  39.158  15.929   9.162
 1129POPC   GL219070  39.504  15.884   9.104
 1129POPC   C1A19071  39.210  16.119   8.779
 1129POPC   D2A19072  39.458  16.034   8.481
 1129POPC   C3A19073  39.209  16.095   8.121
 1129POPC   C4A19074  39.258  16.115   7.707
 1129POPC   C1B19075  39.291  15.594   8.798
 1129POPC   C2B19076  39.175  15.624   8.390
 1129POPC   C3B19077  39.527  15.696   8.125
 1129POPC   C4B19078  39.510  15.677   7.752
 1130POPC   NC319079   5.365  22.131   9.614
 1130POPC   PO419080   4.640  21.978   9.572
 1130POPC   GL119081   4.856  21.845   9.184
 1130POPC   GL219082   5.216  21.891   9.180
 1130POPC   C1A19083   4.869  22.021   8.764
 1130POPC   D2A19084   4.868  22.212   8.371
 1130POPC   C3A19085   5.143  22.108   8.030
 1130POPC   C4A19086   5.069  21.952   7.646
 1130POPC   C1B19087   5.362  22.125   8.793
 1130POPC   C2B19088   5.530  22.166   8.368
 1130POPC   C3B19089   5.626  22.308   7.948
 1130POPC   C4B19090   5.361  22.358   7.562
 1131POPC   NC319091  28.128  17.589   9.638
 1131POPC   PO419092  28.707  17.543   9.329
 1131POPC   GL119093  28.281  17.493   9.135
 1131POPC   GL219094  28.424  17.322   8.878
 1131POPC   C1A19095  28.004  17.622   8.774
 1131POPC   D2A19096  27.926  17.552   8.322
 1131POPC   C3A19097  28.238  17.394   8.010
 1131POPC   C4A19098  28.515  17.529   7.720
 1131POPC   C1B19099  28.767  17.260   8.593
 1131POPC   C2B19100  28.798  17.237   8.149
 1131POPC   C3B19101  28.618  17.037   7.798
 1131POPC   C4B19102  28.260  17.101   7.503
 1132POPC   NC319103  37.211  41.064   9.630
 1132POPC   PO419104  36.936  40.470   9.647
 1132POPC   GL119105  37.009  40.522   9.171
 1132POPC   GL219106  37.164  40.841   9.067
 1132POPC   C1A19107  36.989  40.579   8.673
 1132POPC   D2A19108  37.050  40.774   8.237
 1132POPC   C3A19109  36.900  40.549   7.872
 1132POPC   C4A19110  36.617  40.280   7.611
 1132POPC   C1B19111  37.362  40.974   8.632
 1132POPC   C2B19112  37.479  41.062   8.170
 1132POPC   C3B19113  37.283  40.902   7.763
 1132POPC   C4B19114  37.287  40.834   7.299
 1133POPC   NC319115  34.076  13.401   9.753
 1133POPC   PO419116  33.859  12.783   9.609
 1133POPC   GL119117  33.933  12.635   9.211
 1133POPC   GL219118  33.638  12.783   9.088
 1133POPC   C1A19119  34.052  12.699   8.794
 1133POPC   D2A19120  33.715  12.840   8.531
 1133POPC   C3A19121  33.651  12.853   8.092
 1133POPC   C4A19122  33.822  12.767   7.683
 1133POPC   C1B19123  33.409  13.085   8.828
 1133POPC   C2B19124  33.245  13.014   8.428
 1133POPC   C3B19125  33.210  13.235   8.068
 1133POPC   C4B19126  33.442  13.182   7.728
 1134POPC   NC319127  42.876  18.544   9.561
 1134POPC   PO419128  43.465  18.235   9.404
 1134POPC   GL119129  43.065  18.273   9.144
 1134POPC   GL219130  42.980  18.630   9.082
 1134POPC   C1A19131  42.876  18.033   8.782
 1134POPC   D2A19132  42.982  18.293   8.408
 1134POPC   C3A19133  43.109  18.139   7.980
 1134POPC   C4A19134  42.885  17.823   7.720
 1134POPC   C1B19135  43.090  18.750   8.681
 1134POPC   C2B19136  43.301  18.719   8.279
 1134POPC   C3B19137  43.157  18.770   7.856
 1134POPC   C4B19138  43.194  18.502   7.513
 1135POPC   NC319139  10.147  40.820   9.604
 1135POPC   PO419140  10.778  40.711   9.569
 1135POPC   GL119141  10.492  40.740   9.205
 1135POPC   GL219142  10.273  40.469   9.245
 1135POPC   C1A19143  10.596  40.844   8.768
 1135POPC   D2A19144  10.773  40.997   8.363
 1135POPC   C3A19145  10.596  40.823   7.965
 1135POPC   C4A19146  10.562  40.511   7.605
 1135POPC   C1B19147  10.203  40.511   8.803
 1135POPC   C2B19148  10.326  40.662   8.374
 1135POPC   C3B19149  10.179  40.499   7.969
 1135POPC   C4B19150  10.039  40.480   7.563
 1136POPC   NC319151  36.994  20.089   9.433
 1136POPC   PO419152  37.144  20.775   9.419
 1136POPC   GL119153  36.905  20.514   9.129
 1136POPC   GL219154  36.655  20.759   9.045
 1136POPC   C1A19155  36.825  20.453   8.688
 1136POPC   D2A19156  36.732  20.737   8.378
 1136POPC   C3A19157  36.558  20.483   8.080
 1136POPC   C4A19158  36.766  20.515   7.702
 1136POPC   C1B19159  37.017  20.939   8.801
 1136POPC   C2B19160  37.181  20.985   8.386
 1136POPC   C3B19161  37.050  20.917   7.954
 1136POPC   C4B19162  37.306  20.921   7.576
 1137POPC   NC319163  40.170  40.891   9.581
 1137POPC   PO419164  39.567  40.613   9.438
 1137POPC   GL119165  39.824  40.885   9.211
 1137POPC   GL219166  40.059  40.658   9.107
 1137POPC   C1A19167  39.793  40.971   8.791
 1137POPC   D2A19168  39.882  40.704   8.444
 1137POPC   C3A19169  40.049  40.847   8.060
 1137POPC   C4A19170  40.128  40.591   7.718
 1137POPC   C1B19171  40.273  41.011   8.925
 1137POPC   C2B19172  40.328  41.034   8.483
 1137POPC   C3B19173  40.550  40.934   8.133
 1137POPC   C4B19174  40.446  41.030   7.715
 1138POPC   NC319175  34.060   5.835   9.512
 1138POPC   PO419176  33.448   5.874   9.566
 1138POPC   GL119177  33.681   5.891   9.163
 1138POPC   GL219178  33.683   6.218   8.976
 1138POPC   C1A19179  33.621   5.771   8.738
 1138POPC   D2A19180  33.365   5.966   8.431
 1138POPC   C3A19181  33.556   6.018   8.030
 1138POPC   C4A19182  33.833   5.694   7.914
 1138POPC   C1B19183  34.025   6.057   8.717
 1138POPC   C2B19184  34.020   5.940   8.313
 1138POPC   C3B19185  34.060   6.147   7.899
 1138POPC   C4B19186  34.060   6.093   7.438
 1139POPC   NC319187  37.583  26.659   9.561
 1139POPC   PO419188  37.814  27.375   9.533
 1139POPC   GL119189  37.733  27.014   9.231
 1139POPC   GL219190  37.410  26.887   9.141
 1139POPC   C1A19191  37.762  26.720   8.829
 1139POPC   D2A19192  37.757  26.873   8.415
 1139POPC   C3A19193  37.862  26.750   8.004
 1139POPC   C4A19194  37.902  26.369   7.770
 1139POPC   C1B19195  37.168  27.032   8.817
 1139POPC   C2B19196  37.355  27.181   8.442
 1139POPC   C3B19197  37.387  26.977   8.070
 1139POPC   C4B19198  37.265  27.044   7.700
 1140POPC   NC319199  22.494  12.342   9.844
 1140POPC   PO419200  22.969  11.934   9.613
 1140POPC   GL119201  23.004  11.981   9.177
 1140POPC   GL219202  22.831  12.284   9.148
 1140POPC   C1A19203  22.964  11.998   8.722
 1140POPC   D2A19204  22.629  12.037   8.389
 1140POPC   C3A19205  22.741  12.139   7.946
 1140POPC   C4A19206  23.022  12.009   7.582
 1140POPC   C1B19207  22.706  12.441   8.734
 1140POPC   C2B19208  22.632  12.546   8.319
 1140POPC   C3B19209  22.780  12.661   7.945
 1140POPC   C4B19210  22.796  12.500   7.546
 1141POPC   NC319211  21.059   0.188   9.937
 1141POPC   PO419212  21.392   0.612   9.623
 1141POPC   GL119213  21.495   0.560   9.189
 1141POPC   GL219214  21.406   0.220   9.096
 1141POPC   C1A19215  21.668   0.528   8.773
 1141POPC   D2A19216  21.402   0.651   8.427
 1141POPC   C3A19217  21.599   0.535   8.055
 1141POPC   C4A19218  21.604   0.736   7.682
 1141POPC   C1B19219  21.280   0.203   8.627
 1141POPC   C2B19220  21.317   0.140   8.153
 1141POPC   C3B19221  21.137   0.355   7.771
 1141POPC   C4B19222  21.104   0.236   7.255
 1142POPC   NC319223   8.591  40.405   9.535
 1142POPC   PO419224   8.080  40.942   9.548
 1142POPC   GL119225   8.204  40.703   9.214
 1142POPC   GL219226   8.507  40.776   9.150
 1142POPC   C1A19227   8.226  40.530   8.791
 1142POPC   D2A19228   7.989  40.464   8.402
 1142POPC   C3A19229   8.063  40.855   8.164
 1142POPC   C4A19230   8.172  40.778   7.754
 1142POPC   C1B19231   8.682  40.887   8.779
 1142POPC   C2B19232   8.505  40.777   8.389
 1142POPC   C3B19233   8.573  41.002   7.999
 1142POPC   C4B19234   8.504  41.104   7.546
 1143POPC   NC319235   1.460   3.320   9.515
 1143POPC   PO419236   0.926   3.702   9.712
 1143POPC   GL119237   1.005   3.522   9.289
 1143POPC   GL219238   1.314   3.718   9.204
 1143POPC   C1A19239   1.064   3.466   8.818
 1143POPC   D2A19240   1.007   3.309   8.373
 1143POPC   C3A19241   0.864   3.620   8.058
 1143POPC   C4A19242   1.000   3.585   7.594
 1143POPC   C1B19243   1.525   3.720   8.786
 1143POPC   C2B19244   1.318   3.725   8.380
 1143POPC   C3B19245   1.357   3.532   7.964
 1143POPC   C4B19246   1.508   3.666   7.566
 1144POPC   NC319247  41.860  19.982   9.518
 1144POPC   PO419248  42.489  19.850   9.482
 1144POPC   GL119249  42.269  19.787   9.159
 1144POPC   GL219250  41.962  19.594   9.190
 1144POPC   C1A19251  42.383  20.033   8.815
 1144POPC   D2A19252  42.346  20.117   8.396
 1144POPC   C3A19253  42.644  19.884   8.160
 1144POPC   C4A19254  42.583  19.918   7.734
 1144POPC   C1B19255  41.910  19.846   8.811
 1144POPC   C2B19256  42.020  19.723   8.408
 1144POPC   C3B19257  42.144  19.810   8.018
 1144POPC   C4B19258  42.181  19.633   7.644
 1145POPC   NC319259  34.695  17.124   9.264
 1145POPC   PO419260  34.434  17.538   9.755
 1145POPC   GL119261  34.466  17.601   9.210
 1145POPC   GL219262  34.758  17.514   8.962
 1145POPC   C1A19263  34.316  17.487   8.755
 1145POPC   D2A19264  34.394  17.253   8.381
 1145POPC   C3A19265  34.404  17.488   8.021
 1145POPC   C4A19266  34.443  17.361   7.615
 1145POPC   C1B19267  34.970  17.693   8.662
 1145POPC   C2B19268  34.860  17.676   8.223
 1145POPC   C3B19269  34.845  17.656   7.795
 1145POPC   C4B19270  34.951  17.301   7.554
 1146POPC   NC319271  37.391  20.407   9.297
 1146POPC   PO419272  37.847  20.838   9.525
 1146POPC   GL119273  37.776  20.691   9.140
 1146POPC   GL219274  37.467  20.810   8.999
 1146POPC   C1A19275  37.862  20.635   8.722
 1146POPC   D2A19276  37.682  20.842   8.390
 1146POPC   C3A19277  37.639  20.552   8.086
 1146POPC   C4A19278  37.728  20.617   7.664
 1146POPC   C1B19279  37.332  20.550   8.619
 1146POPC   C2B19280  37.122  20.454   8.202
 1146POPC   C3B19281  37.257  20.422   7.767
 1146POPC   C4B19282  37.285  20.462   7.313
 1147POPC   NC319283   6.071  11.437   9.557
 1147POPC   PO419284   5.632  10.988   9.708
 1147POPC   GL119285   5.881  11.043   9.299
 1147POPC   GL219286   5.694  11.357   9.231
 1147POPC   C1A19287   6.084  11.281   8.910
 1147POPC   D2A19288   6.240  11.182   8.471
 1147POPC   C3A19289   5.866  11.112   8.240
 1147POPC   C4A19290   5.732  11.148   7.815
 1147POPC   C1B19291   5.754  11.687   8.925
 1147POPC   C2B19292   5.729  11.614   8.480
 1147POPC   C3B19293   5.735  11.649   8.029
 1147POPC   C4B19294   5.990  11.606   7.689
 1148POPC   NC319295  40.946  32.694   9.436
 1148POPC   PO419296  40.497  33.106   9.347
 1148POPC   GL119297  40.742  32.973   9.034
 1148POPC   GL219298  41.122  33.081   9.059
 1148POPC   C1A19299  40.552  32.808   8.645
 1148POPC   D2A19300  40.493  32.577   8.234
 1148POPC   C3A19301  40.469  32.884   7.869
 1148POPC   C4A19302  40.453  33.183   7.480
 1148POPC   C1B19303  41.063  32.729   8.742
 1148POPC   C2B19304  40.956  32.760   8.328
 1148POPC   C3B19305  40.998  32.820   7.908
 1148POPC   C4B19306  40.890  33.203   7.742
 1149POPC   NC319307  31.717  28.191   9.392
 1149POPC   PO419308  31.300  28.705   9.447
 1149POPC   GL119309  31.390  28.455   9.064
 1149POPC   GL219310  31.446  28.094   8.976
 1149POPC   C1A19311  31.349  28.408   8.602
 1149POPC   D2A19312  31.491  28.624   8.286
 1149POPC   C3A19313  31.376  28.355   7.981
 1149POPC   C4A19314  31.555  28.244   7.586
 1149POPC   C1B19315  31.782  28.147   8.598
 1149POPC   C2B19316  31.860  28.221   8.145
 1149POPC   C3B19317  31.620  27.894   7.934
 1149POPC   C4B19318  31.159  27.901   7.858
 1150POPC   NC319319  16.876   7.575   9.563
 1150POPC   PO419320  16.448   7.064   9.670
 1150POPC   GL119321  16.680   7.218   9.227
 1150POPC   GL219322  16.616   7.568   9.143
 1150POPC   C1A19323  16.537   7.227   8.732
 1150POPC   D2A19324  16.279   7.227   8.322
 1150POPC   C3A19325  16.495   7.285   7.919
 1150POPC   C4A19326  16.870   7.351   7.710
 1150POPC   C1B19327  16.533   7.775   8.783
 1150POPC   C2B19328  16.779   7.610   8.484
 1150POPC   C3B19329  16.803   7.681   8.095
 1150POPC   C4B19330  16.674   7.992   7.853
 1151POPC   NC319331  37.913   2.149   9.356
 1151POPC   PO419332  38.476   1.802   9.627
 1151POPC   GL119333  38.384   1.952   9.227
 1151POPC   GL219334  38.578   2.287   9.214
 1151POPC   C1A19335  38.401   1.832   8.780
 1151POPC   D2A19336  38.494   2.088   8.414
 1151POPC   C3A19337  38.460   1.927   7.979
 1151POPC   C4A19338  38.760   2.159   7.724
 1151POPC   C1B19339  38.301   2.324   8.857
 1151POPC   C2B19340  38.069   2.409   8.485
 1151POPC   C3B19341  38.243   2.481   8.100
 1151POPC   C4B19342  38.294   2.381   7.691
 1152POPC   NC319343  40.388  44.153   9.655
 1152POPC   PO419344  40.846  43.754   9.581
 1152POPC   GL119345  40.738  43.974   9.208
 1152POPC   GL219346  40.622  43.626   9.139
 1152POPC   C1A19347  40.883  44.256   8.825
 1152POPC   D2A19348  40.816  44.241   8.380
 1152POPC   C3A19349  41.138  44.063   8.107
 1152POPC   C4A19350  41.152  43.995   7.704
 1152POPC   C1B19351  40.609  43.840   8.733
 1152POPC   C2B19352  40.825  43.724   8.353
 1152POPC   C3B19353  40.737  43.770   7.915
 1152POPC   C4B19354  40.497  43.484   7.675
 1153POPC   NC319355  21.614   1.782   9.509
 1153POPC   PO419356  21.133   2.168   9.520
 1153POPC   GL119357  21.303   2.247   9.124
 1153POPC   GL219358  21.664   2.210   9.187
 1153POPC   C1A19359  21.109   2.138   8.755
 1153POPC   D2A19360  21.269   1.896   8.428
 1153POPC   C3A19361  21.222   2.114   8.053
 1153POPC   C4A19362  21.064   1.867   7.742
 1153POPC   C1B19363  21.618   1.925   8.844
 1153POPC   C2B19364  21.777   1.791   8.456
 1153POPC   C3B19365  21.606   1.727   8.066
 1153POPC   C4B19366  21.639   1.966   7.750
 1154POPC   NC319367  44.360   5.476   9.357
 1154POPC   PO419368  44.900   5.318   9.748
 1154POPC   GL119369  44.814   5.273   9.276
 1154POPC   GL219370  44.568   5.023   9.130
 1154POPC   C1A19371  44.865   5.283   8.783
 1154POPC   D2A19372  44.951   5.237   8.285
 1154POPC   C3A19373  44.817   5.482   7.866
 1154POPC   C4A19374  44.826   5.396   7.393
 1154POPC   C1B19375  44.284   5.024   8.768
 1154POPC   C2B19376  44.325   4.900   8.323
 1154POPC   C3B19377  44.536   5.062   7.963
 1154POPC   C4B19378  44.369   5.317   7.658
 1155POPC   NC319379  16.254  13.939   9.417
 1155POPC   PO419380  16.458  13.374   9.767
 1155POPC   GL119381  16.085  13.485   9.264
 1155POPC   GL219382  16.224  13.651   8.954
 1155POPC   C1A19383  15.793  13.424   8.892
 1155POPC   D2A19384  15.736  13.493   8.437
 1155POPC   C3A19385  15.833  13.485   7.991
 1155POPC   C4A19386  15.802  13.740   7.601
 1155POPC   C1B19387  15.996  13.889   8.669
 1155POPC   C2B19388  16.059  13.891   8.218
 1155POPC   C3B19389  16.268  13.750   7.830
 1155POPC   C4B19390  16.280  13.776   7.389
 1156POPC   NC319391  36.279   3.240   9.406
 1156POPC   PO419392  36.032   2.613   9.593
 1156POPC   GL119393  36.033   2.499   9.138
 1156POPC   GL219394  36.338   2.575   8.910
 1156POPC   C1A19395  35.877   2.552   8.690
 1156POPC   D2A19396  35.751   2.873   8.381
 1156POPC   C3A19397  35.890   2.840   7.945
 1156POPC   C4A19398  35.913   2.428   7.762
 1156POPC   C1B19399  36.220   2.940   8.609
 1156POPC   C2B19400  36.331   2.982   8.150
 1156POPC   C3B19401  36.354   2.768   7.719
 1156POPC   C4B19402  36.436   2.804   7.248
 1157POPC   NC319403  43.974  27.659   9.718
 1157POPC   PO419404  44.127  28.031   9.209
 1157POPC   GL119405  43.938  27.613   9.038
 1157POPC   GL219406  44.153  27.283   8.997
 1157POPC   C1A19407  43.708  27.415   8.690
 1157POPC   D2A19408  43.728  27.160   8.321
 1157POPC   C3A19409  43.491  27.346   7.983
 1157POPC   C4A19410  43.428  27.532   7.564
 1157POPC   C1B19411  44.199  27.301   8.522
 1157POPC   C2B19412  43.997  27.637   8.260
 1157POPC   C3B19413  43.775  27.754   7.871
 1157POPC   C4B19414  43.913  27.652   7.407
 1158POPC   NC319415  22.114  13.404   9.689
 1158POPC   PO419416  22.209  14.001   9.494
 1158POPC   GL119417  22.001  13.661   9.246
 1158POPC   GL219418  22.206  13.793   9.002
 1158POPC   C1A19419  21.961  13.368   8.870
 1158POPC   D2A19420  22.193  13.401   8.480
 1158POPC   C3A19421  22.101  13.386   8.033
 1158POPC   C4A19422  22.343  13.525   7.638
 1158POPC   C1B19423  21.910  13.846   8.702
 1158POPC   C2B19424  22.040  13.855   8.305
 1158POPC   C3B19425  22.372  13.836   8.046
 1158POPC   C4B19426  22.073  13.966   7.777
 1159POPC   NC319427  17.359  24.699   9.330
 1159POPC   PO419428  17.617  24.133   9.565
 1159POPC   GL119429  17.499  24.256   9.089
 1159POPC   GL219430  17.677  24.596   8.935
 1159POPC   C1A19431  17.263  24.408   8.726
 1159POPC   D2A19432  17.470  24.645   8.407
 1159POPC   C3A19433  17.284  24.534   8.028
 1159POPC   C4A19434  17.084  24.455   7.650
 1159POPC   C1B19435  17.940  24.795   8.628
 1159POPC   C2B19436  17.941  24.831   8.177
 1159POPC   C3B19437  17.774  24.529   7.890
 1159POPC   C4B19438  17.887  24.113   7.815
 1160POPC   NC319439   8.147  19.015   9.589
 1160POPC   PO419440   8.731  19.063   9.300
 1160POPC   GL119441   8.318  19.098   9.089
 1160POPC   GL219442   7.954  18.971   9.122
 1160POPC   C1A19443   8.160  19.286   8.731
 1160POPC   D2A19444   8.252  19.513   8.385
 1160POPC   C3A19445   8.444  19.291   8.070
 1160POPC   C4A19446   8.299  19.015   7.749
 1160POPC   C1B19447   8.122  18.764   8.771
 1160POPC   C2B19448   8.403  18.937   8.472
 1160POPC   C3B19449   8.139  18.816   8.175
 1160POPC   C4B19450   8.120  18.537   7.819
 1161POPC   NC319451  38.761   6.652   9.468
 1161POPC   PO419452  38.109   6.421   9.424
 1161POPC   GL119453  38.317   6.572   9.072
 1161POPC   GL219454  38.602   6.790   9.016
 1161POPC   C1A19455  38.360   6.546   8.647
 1161POPC   D2A19456  38.715   6.435   8.406
 1161POPC   C3A19457  38.570   6.419   8.052
 1161POPC   C4A19458  38.664   6.680   7.750
 1161POPC   C1B19459  38.328   7.037   8.733
 1161POPC   C2B19460  38.266   6.891   8.289
 1161POPC   C3B19461  38.283   7.027   7.894
 1161POPC   C4B19462  37.974   6.966   7.577
 1162POPC   NC319463  44.454   5.387   9.872
 1162POPC   PO419464  44.675   5.833   9.385
 1162POPC   GL119465  44.864   5.745   9.044
 1162POPC   GL219466   0.111   6.007   9.108
 1162POPC   C1A19467  44.647   5.711   8.638
 1162POPC   D2A19468  44.504   5.496   8.262
 1162POPC   C3A19469  44.367   5.775   7.936
 1162POPC   C4A19470  44.427   6.240   7.905
 1162POPC   C1B19471  44.975   6.120   8.694
 1162POPC   C2B19472  44.727   6.114   8.331
 1162POPC   C3B19473  44.866   5.975   7.959
 1162POPC   C4B19474  44.892   6.187   7.632
 1163POPC   NC319475  21.777  34.284   9.517
 1163POPC   PO419476  22.076  34.819   9.402
 1163POPC   GL119477  21.889  34.555   9.107
 1163POPC   GL219478  22.164  34.332   9.065
 1163POPC   C1A19479  21.908  34.552   8.672
 1163POPC   D2A19480  22.192  34.678   8.365
 1163POPC   C3A19481  22.017  34.601   8.004
 1163POPC   C4A19482  22.034  34.542   7.565
 1163POPC   C1B19483  22.370  34.283   8.648
 1163POPC   C2B19484  22.332  34.187   8.210
 1163POPC   C3B19485  22.354  34.184   7.764
 1163POPC   C4B19486  22.533  34.445   7.441
 1164POPC   NC319487  26.492   6.272   9.616
 1164POPC   PO419488  27.066   5.739   9.598
 1164POPC   GL119489  27.026   5.597   9.156
 1164POPC   GL219490  27.358   5.671   9.053
 1164POPC   C1A19491  26.873   5.737   8.740
 1164POPC   D2A19492  26.748   5.579   8.329
 1164POPC   C3A19493  26.721   5.924   8.076
 1164POPC   C4A19494  26.803   5.976   7.662
 1164POPC   C1B19495  27.348   5.886   8.652
 1164POPC   C2B19496  27.182   6.236   8.417
 1164POPC   C3B19497  27.156   6.186   7.991
 1164POPC   C4B19498  27.272   5.808   7.761
 1165POPC   NC319499   2.973  30.477   9.417
 1165POPC   PO419500   2.286  30.720   9.437
 1165POPC   GL119501   2.595  30.649   9.121
 1165POPC   GL219502   2.822  30.954   9.113
 1165POPC   C1A19503   2.771  30.633   8.694
 1165POPC   D2A19504   2.851  30.358   8.343
 1165POPC   C3A19505   2.562  30.386   8.015
 1165POPC   C4A19506   2.854  30.593   7.773
 1165POPC   C1B19507   2.437  31.011   8.812
 1165POPC   C2B19508   2.357  30.771   8.425
 1165POPC   C3B19509   2.728  30.851   8.190
 1165POPC   C4B19510   2.820  31.115   7.832
 1166POPC   NC319511  13.187  15.680   9.401
 1166POPC   PO419512  12.742  16.142   9.379
 1166POPC   GL119513  12.817  15.861   9.058
 1166POPC   GL219514  12.737  15.510   9.210
 1166POPC   C1A19515  12.929  16.003   8.642
 1166POPC   D2A19516  12.703  16.147   8.274
 1166POPC   C3A19517  12.931  16.268   7.914
 1166POPC   C4A19518  12.820  16.196   7.506
 1166POPC   C1B19519  12.767  15.419   8.779
 1166POPC   C2B19520  12.646  15.632   8.421
 1166POPC   C3B19521  12.782  15.706   8.022
 1166POPC   C4B19522  13.085  15.778   7.728
 1167POPC   NC319523  29.891  44.976   9.861
 1167POPC   PO419524  30.222  44.979   9.306
 1167POPC   GL119525  30.063  44.853   8.958
 1167POPC   GL219526  29.683  44.842   9.046
 1167POPC   C1A19527  30.122  44.430   8.762
 1167POPC   D2A19528  30.219  44.257   8.370
 1167POPC   C3A19529  30.095  44.583   8.103
 1167POPC   C4A19530  30.113  44.744   7.688
 1167POPC   C1B19531  29.738  44.746   8.605
 1167POPC   C2B19532  29.601  44.628   8.238
 1167POPC   C3B19533  29.656  44.860   7.859
 1167POPC   C4B19534  29.691  44.700   7.408
 1168POPC   NC319535  29.809  29.580   9.536
 1168POPC   PO419536  29.919  28.964   9.404
 1168POPC   GL119537  30.035  28.993   9.013
 1168POPC   GL219538  29.833  29.256   8.960
 1168POPC   C1A19539  30.138  28.972   8.593
 1168POPC   D2A19540  29.994  28.885   8.183
 1168POPC   C3A19541  30.196  29.100   7.864
 1168POPC   C4A19542  30.268  29.497   7.672
 1168POPC   C1B19543  29.637  28.908   8.694
 1168POPC   C2B19544  29.489  29.026   8.291
 1168POPC   C3B19545  29.661  29.200   7.921
 1168POPC   C4B19546  29.753  28.962   7.580
 1169POPC   NC319547   9.023  11.076   9.538
 1169POPC   PO419548   8.784  11.710   9.479
 1169POPC   GL119549   8.979  11.402   9.157
 1169POPC   GL219550   8.811  11.037   9.091
 1169POPC   C1A19551   9.177  11.307   8.775
 1169POPC   D2A19552   8.989  11.489   8.424
 1169POPC   C3A19553   9.133  11.502   8.047
 1169POPC   C4A19554   8.817  11.533   7.710
 1169POPC   C1B19555   8.937  10.835   8.718
 1169POPC   C2B19556   9.079  10.967   8.323
 1169POPC   C3B19557   8.902  11.076   7.903
 1169POPC   C4B19558   9.004  11.020   7.462
 1170POPC   NC319559  35.691  36.297   9.613
 1170POPC   PO419560  35.172  35.822   9.603
 1170POPC   GL119561  35.190  35.741   9.145
 1170POPC   GL219562  34.946  35.969   9.062
 1170POPC   C1A19563  35.409  35.609   8.745
 1170POPC   D2A19564  35.613  35.842   8.392
 1170POPC   C3A19565  35.492  35.904   7.955
 1170POPC   C4A19566  35.392  36.301   7.740
 1170POPC   C1B19567  35.122  36.017   8.642
 1170POPC   C2B19568  35.091  35.792   8.253
 1170POPC   C3B19569  35.009  35.984   7.826
 1170POPC   C4B19570  35.231  35.881   7.425
 1171POPC   NC319571   9.930   8.699   9.341
 1171POPC   PO419572   9.643   9.290   9.387
 1171POPC   GL119573   9.872   9.159   9.031
 1171POPC   GL219574   9.545   9.032   8.942
 1171POPC   C1A19575   9.935   8.841   8.683
 1171POPC   D2A19576   9.534   8.701   8.514
 1171POPC   C3A19577   9.495   8.908   8.144
 1171POPC   C4A19578   9.393   8.943   7.757
 1171POPC   C1B19579   9.608   9.226   8.532
 1171POPC   C2B19580   9.874   9.304   8.162
 1171POPC   C3B19581   9.862   9.240   7.685
 1171POPC   C4B19582   9.874   9.333   7.220
 1172POPC   NC319583  31.971   4.234   9.542
 1172POPC   PO419584  32.637   4.176   9.557
 1172POPC   GL119585  32.371   4.365   9.239
 1172POPC   GL219586  32.131   4.141   9.087
 1172POPC   C1A19587  32.364   4.480   8.815
 1172POPC   D2A19588  32.217   4.233   8.479
 1172POPC   C3A19589  32.307   4.380   8.075
 1172POPC   C4A19590  32.084   4.434   7.682
 1172POPC   C1B19591  31.966   3.913   8.791
 1172POPC   C2B19592  32.024   3.766   8.406
 1172POPC   C3B19593  32.064   3.934   7.991
 1172POPC   C4B19594  31.719   4.025   7.698
 1173POPC   NC319595  12.706  27.562   9.563
 1173POPC   PO419596  13.204  27.878   9.175
 1173POPC   GL119597  12.869  27.709   9.034
 1173POPC   GL219598  12.887  27.387   9.138
 1173POPC   C1A19599  12.825  27.760   8.591
 1173POPC   D2A19600  12.712  27.746   8.183
 1173POPC   C3A19601  13.057  27.785   7.942
 1173POPC   C4A19602  13.166  27.550   7.600
 1173POPC   C1B19603  13.023  27.298   8.724
 1173POPC   C2B19604  13.081  27.411   8.312
 1173POPC   C3B19605  12.868  27.298   7.955
 1173POPC   C4B19606  13.118  27.054   7.724
 1174POPC   NC319607  12.860  12.470   9.734
 1174POPC   PO419608  13.150  13.010   9.470
 1174POPC   GL119609  12.963  12.886   9.105
 1174POPC   GL219610  12.898  12.575   9.215
 1174POPC   C1A19611  12.886  13.035   8.693
 1174POPC   D2A19612  12.993  13.246   8.321
 1174POPC   C3A19613  12.935  13.083   7.933
 1174POPC   C4A19614  12.667  12.755   7.791
 1174POPC   C1B19615  12.782  12.539   8.761
 1174POPC   C2B19616  12.895  12.695   8.319
 1174POPC   C3B19617  13.151  12.629   7.951
 1174POPC   C4B19618  13.062  12.367   7.589
 1175POPC   NC319619  11.294   7.914   9.566
 1175POPC   PO419620  11.752   8.365   9.532
 1175POPC   GL119621  11.527   8.325   9.136
 1175POPC   GL219622  11.388   7.972   9.073
 1175POPC   C1A19623  11.410   8.303   8.689
 1175POPC   D2A19624  11.497   7.976   8.389
 1175POPC   C3A19625  11.448   8.077   7.992
 1175POPC   C4A19626  11.315   8.449   7.822
 1175POPC   C1B19627  11.117   7.852   8.697
 1175POPC   C2B19628  10.829   8.101   8.467
 1175POPC   C3B19629  10.938   8.162   8.078
 1175POPC   C4B19630  11.043   8.032   7.665
 1176POPC   NC319631  18.635   9.467   9.525
 1176POPC   PO419632  18.082   9.734   9.649
 1176POPC   GL119633  18.290   9.716   9.219
 1176POPC   GL219634  18.318   9.372   9.122
 1176POPC   C1A19635  18.400   9.755   8.789
 1176POPC   D2A19636  18.364   9.486   8.411
 1176POPC   C3A19637  18.433   9.760   8.089
 1176POPC   C4A19638  18.346  10.178   7.996
 1176POPC   C1B19639  18.006   9.403   8.772
 1176POPC   C2B19640  17.861   9.420   8.316
 1176POPC   C3B19641  18.103   9.412   7.912
 1176POPC   C4B19642  18.441   9.564   7.619
 1177POPC   NC319643  26.716  18.056   9.354
 1177POPC   PO419644  27.112  18.656   9.419
 1177POPC   GL119645  26.840  18.501   9.083
 1177POPC   GL219646  26.472  18.474   9.092
 1177POPC   C1A19647  26.966  18.345   8.697
 1177POPC   D2A19648  27.237  18.262   8.384
 1177POPC   C3A19649  27.215  18.529   8.061
 1177POPC   C4A19650  26.889  18.426   7.783
 1177POPC   C1B19651  26.481  18.210   8.684
 1177POPC   C2B19652  26.633  18.269   8.219
 1177POPC   C3B19653  26.466  18.172   7.799
 1177POPC   C4B19654  26.342  17.946   7.392
 1178POPC   NC319655  14.517  32.615   9.284
 1178POPC   PO419656  14.268  32.057   9.717
 1178POPC   GL119657  14.475  32.057   9.225
 1178POPC   GL219658  14.378  32.304   8.922
 1178POPC   C1A19659  14.660  31.936   8.785
 1178POPC   D2A19660  14.463  32.133   8.427
 1178POPC   C3A19661  14.432  31.994   8.014
 1178POPC   C4A19662  14.070  32.047   7.737
 1178POPC   C1B19663  14.610  32.584   8.622
 1178POPC   C2B19664  14.684  32.546   8.165
 1178POPC   C3B19665  14.461  32.469   7.782
 1178POPC   C4B19666  14.628  32.493   7.314
 1179POPC   NC319667  38.350  27.252   9.523
 1179POPC   PO419668  38.043  26.684   9.413
 1179POPC   GL119669  38.308  26.921   9.113
 1179POPC   GL219670  38.495  27.273   9.049
 1179POPC   C1A19671  38.154  27.036   8.728
 1179POPC   D2A19672  38.242  27.037   8.304
 1179POPC   C3A19673  38.326  26.639   8.218
 1179POPC   C4A19674  38.332  26.611   7.813
 1179POPC   C1B19675  38.675  27.078   8.721
 1179POPC   C2B19676  38.780  26.863   8.355
 1179POPC   C3B19677  38.657  26.972   7.972
 1179POPC   C4B19678  38.263  27.129   7.782
 1180POPC   NC319679  11.207  41.880   9.335
 1180POPC   PO419680  11.583  41.304   9.563
 1180POPC   GL119681  11.529  41.521   9.200
 1180POPC   GL219682  11.264  41.319   9.048
 1180POPC   C1A19683  11.453  41.700   8.774
 1180POPC   D2A19684  11.274  41.716   8.379
 1180POPC   C3A19685  11.514  41.822   8.057
 1180POPC   C4A19686  11.408  41.688   7.694
 1180POPC   C1B19687  10.963  41.412   8.704
 1180POPC   C2B19688  10.784  41.548   8.313
 1180POPC   C3B19689  10.976  41.589   7.952
 1180POPC   C4B19690  11.161  41.205   7.822
 1181POPC   NC319691  13.325  20.597   9.534
 1181POPC   PO419692  13.922  20.565   9.504
 1181POPC   GL119693  13.814  20.750   9.112
 1181POPC   GL219694  13.459  20.822   9.103
 1181POPC   C1A19695  13.689  20.706   8.661
 1181POPC   D2A19696  13.801  20.601   8.245
 1181POPC   C3A19697  13.742  20.593   7.805
 1181POPC   C4A19698  13.818  20.897   7.452
 1181POPC   C1B19699  13.256  20.994   8.729
 1181POPC   C2B19700  13.380  20.906   8.279
 1181POPC   C3B19701  13.447  20.985   7.825
 1181POPC   C4B19702  13.358  20.680   7.474
 1182POPC   NC319703  42.178  20.929   9.564
 1182POPC   PO419704  42.764  20.652   9.485
 1182POPC   GL119705  42.494  20.532   9.143
 1182POPC   GL219706  42.348  20.859   9.085
 1182POPC   C1A19707  42.414  20.540   8.693
 1182POPC   D2A19708  42.186  20.604   8.305
 1182POPC   C3A19709  42.427  20.653   7.924
 1182POPC   C4A19710  42.652  20.429   7.574
 1182POPC   C1B19711  42.147  20.970   8.682
 1182POPC   C2B19712  41.900  21.162   8.397
 1182POPC   C3B19713  42.062  21.018   8.027
 1182POPC   C4B19714  41.970  20.803   7.662
 1183POPC   NC319715  10.707   4.592   9.568
 1183POPC   PO419716  10.453   3.957   9.427
 1183POPC   GL119717  10.564   4.289   9.167
 1183POPC   GL219718  10.366   4.564   9.084
 1183POPC   C1A19719  10.848   4.507   8.890
 1183POPC   D2A19720  10.912   4.457   8.437
 1183POPC   C3A19721  10.563   4.478   8.159
 1183POPC   C4A19722  10.696   4.238   7.829
 1183POPC   C1B19723  10.170   4.288   8.756
 1183POPC   C2B19724  10.286   4.008   8.401
 1183POPC   C3B19725  10.366   3.879   7.978
 1183POPC   C4B19726  10.358   3.943   7.519
 1184POPC   NC319727  41.078  24.044   9.376
 1184POPC   PO419728  41.756  23.720   9.427
 1184POPC   GL119729  41.566  23.849   9.076
 1184POPC   GL219730  41.798  24.082   8.924
 1184POPC   C1A19731  41.543  23.670   8.675
 1184POPC   D2A19732  41.708  23.705   8.254
 1184POPC   C3A19733  41.350  23.667   7.978
 1184POPC   C4A19734  41.183  23.324   7.722
 1184POPC   C1B19735  42.054  24.088   8.547
 1184POPC   C2B19736  42.013  24.108   8.086
 1184POPC   C3B19737  41.845  23.821   7.764
 1184POPC   C4B19738  41.909  23.542   7.391
 1185POPC   NC319739  41.674  13.683   9.406
 1185POPC   PO419740  41.098  13.901   9.578
 1185POPC   GL119741  41.333  13.792   9.077
 1185POPC   GL219742  41.584  13.506   8.932
 1185POPC   C1A19743  41.565  13.953   8.708
 1185POPC   D2A19744  41.688  13.708   8.350
 1185POPC   C3A19745  41.412  13.780   8.009
 1185POPC   C4A19746  41.254  13.751   7.560
 1185POPC   C1B19747  41.939  13.312   8.703
 1185POPC   C2B19748  42.154  13.091   8.372
 1185POPC   C3B19749  41.849  13.250   8.126
 1185POPC   C4B19750  41.861  13.585   7.852
 1186POPC   NC319751  16.936  12.418   9.437
 1186POPC   PO419752  16.467  11.889   9.432
 1186POPC   GL119753  16.630  12.199   9.109
 1186POPC   GL219754  16.923  11.995   9.047
 1186POPC   C1A19755  16.769  12.334   8.703
 1186POPC   D2A19756  16.760  12.035   8.367
 1186POPC   C3A19757  16.734  12.152   7.946
 1186POPC   C4A19758  16.991  11.849   7.744
 1186POPC   C1B19759  16.523  11.831   8.777
 1186POPC   C2B19760  16.332  11.744   8.357
 1186POPC   C3B19761  16.597  11.622   7.999
 1186POPC   C4B19762  16.576  11.623   7.529
 1187POPC   NC319763  43.128  20.971   9.466
 1187POPC   PO419764  43.270  20.309   9.283
 1187POPC   GL119765  43.261  20.671   9.086
 1187POPC   GL219766  42.919  20.819   9.025
 1187POPC   C1A19767  43.425  20.766   8.725
 1187POPC   D2A19768  43.223  20.637   8.369
 1187POPC   C3A19769  43.425  20.462   8.018
 1187POPC   C4A19770  43.476  20.860   7.815
 1187POPC   C1B19771  42.909  20.468   8.738
 1187POPC   C2B19772  42.749  20.422   8.309
 1187POPC   C3B19773  42.932  20.604   7.961
 1187POPC   C4B19774  43.158  20.498   7.530
 1188POPC   NC319775  21.447   6.229   9.467
 1188POPC   PO419776  21.361   6.941   9.568
 1188POPC   GL119777  21.548   6.926   9.169
 1188POPC   GL219778  21.667   6.574   9.146
 1188POPC   C1A19779  21.361   6.834   8.786
 1188POPC   D2A19780  21.278   6.513   8.475
 1188POPC   C3A19781  21.320   6.568   8.033
 1188POPC   C4A19782  21.202   6.323   7.674
 1188POPC   C1B19783  21.752   6.518   8.698
 1188POPC   C2B19784  21.844   6.423   8.253
 1188POPC   C3B19785  21.733   6.325   7.823
 1188POPC   C4B19786  21.612   6.563   7.457
 1189POPC   NC319787  38.126  24.822   9.434
 1189POPC   PO419788  37.722  25.369   9.468
 1189POPC   GL119789  37.521  25.098   9.123
 1189POPC   GL219790  37.470  25.453   9.002
 1189POPC   C1A19791  37.327  25.080   8.698
 1189POPC   D2A19792  37.411  25.445   8.452
 1189POPC   C3A19793  37.550  25.437   8.030
 1189POPC   C4A19794  37.287  25.513   7.678
 1189POPC   C1B19795  37.806  25.602   8.757
 1189POPC   C2B19796  37.946  25.672   8.338
 1189POPC   C3B19797  38.062  25.423   7.942
 1189POPC   C4B19798  37.901  25.477   7.517
 1190POPC   NC319799  19.436  30.391   9.296
 1190POPC   PO419800  18.803  30.840   9.362
 1190POPC   GL119801  18.974  31.020   9.025
 1190POPC   GL219802  19.086  30.680   8.951
 1190POPC   C1A19803  18.837  30.975   8.612
 1190POPC   D2A19804  18.997  30.660   8.383
 1190POPC   C3A19805  19.062  30.825   8.023
 1190POPC   C4A19806  18.742  30.898   7.781
 1190POPC   C1B19807  19.234  30.349   8.692
 1190POPC   C2B19808  19.229  30.184   8.289
 1190POPC   C3B19809  19.219  30.371   7.872
 1190POPC   C4B19810  19.053  30.610   7.482
 1191POPC   NC319811  12.676   2.283   9.501
 1191POPC   PO419812  12.829   1.648   9.421
 1191POPC   GL119813  12.695   1.923   9.136
 1191POPC   GL219814  13.038   2.069   9.163
 1191POPC   C1A19815  12.742   2.025   8.715
 1191POPC   D2A19816  12.844   1.856   8.313
 1191POPC   C3A19817  12.649   2.025   7.983
 1191POPC   C4A19818  12.911   1.880   7.693
 1191POPC   C1B19819  13.200   2.305   8.808
 1191POPC   C2B19820  13.045   2.333   8.393
 1191POPC   C3B19821  13.124   2.239   7.965
 1191POPC   C4B19822  13.217   2.222   7.490
 1192POPC   NC319823  12.288  16.112   9.335
 1192POPC   PO419824  11.775  15.707   9.210
 1192POPC   GL119825  12.064  15.929   8.935
 1192POPC   GL219826  12.002  16.322   8.951
 1192POPC   C1A19827  12.290  16.000   8.565
 1192POPC   D2A19828  12.239  15.816   8.149
 1192POPC   C3A19829  12.449  16.022   7.825
 1192POPC   C4A19830  12.323  16.099   7.436
 1192POPC   C1B19831  11.681  16.101   8.677
 1192POPC   C2B19832  11.693  15.987   8.269
 1192POPC   C3B19833  11.765  15.778   7.904
 1192POPC   C4B19834  11.850  16.019   7.554
 1193POPC   NC319835  26.454  31.329   9.478
 1193POPC   PO419836  26.878  31.802   9.584
 1193POPC   GL119837  26.864  31.653   9.162
 1193POPC   GL219838  26.985  31.309   9.139
 1193POPC   C1A19839  26.734  31.750   8.735
 1193POPC   D2A19840  26.568  31.536   8.364
 1193POPC   C3A19841  26.750  31.590   7.995
 1193POPC   C4A19842  26.976  31.513   7.638
 1193POPC   C1B19843  26.640  31.251   8.829
 1193POPC   C2B19844  26.551  31.035   8.448
 1193POPC   C3B19845  26.795  31.092   8.107
 1193POPC   C4B19846  26.626  31.051   7.711
 1194POPC   NC319847  39.939   6.124   9.536
 1194POPC   PO419848  40.097   5.524   9.488
 1194POPC   GL119849  40.159   5.783   9.111
 1194POPC   GL219850  39.992   6.114   9.047
 1194POPC   C1A19851  40.122   5.832   8.668
 1194POPC   D2A19852  40.251   5.703   8.322
 1194POPC   C3A19853  39.939   5.776   8.092
 1194POPC   C4A19854  39.984   5.679   7.722
 1194POPC   C1B19855  39.740   6.217   8.678
 1194POPC   C2B19856  39.532   5.962   8.350
 1194POPC   C3B19857  39.549   6.050   7.904
 1194POPC   C4B19858  39.692   6.029   7.452
 1195POPC   NC319859  40.897  26.543   9.464
 1195POPC   PO419860  40.481  25.982   9.419
 1195POPC   GL119861  40.753  26.032   9.104
 1195POPC   GL219862  40.626  26.375   9.039
 1195POPC   C1A19863  40.809  25.777   8.715
 1195POPC   D2A19864  40.675  25.559   8.319
 1195POPC   C3A19865  40.790  25.841   7.986
 1195POPC   C4A19866  40.587  25.911   7.588
 1195POPC   C1B19867  40.970  26.303   8.747
 1195POPC   C2B19868  41.005  26.147   8.362
 1195POPC   C3B19869  40.927  26.354   8.019
 1195POPC   C4B19870  40.968  26.254   7.629
 1196POPC   NC319871  28.723   4.691  10.003
 1196POPC   PO419872  28.268   4.288   9.682
 1196POPC   GL119873  28.172   4.312   9.221
 1196POPC   GL219874  28.507   4.348   9.186
 1196POPC   C1A19875  28.282   4.353   8.743
 1196POPC   D2A19876  28.562   4.411   8.386
 1196POPC   C3A19877  28.255   4.369   8.091
 1196POPC   C4A19878  27.881   4.249   7.855
 1196POPC   C1B19879  28.472   3.934   8.953
 1196POPC   C2B19880  28.480   3.907   8.478
 1196POPC   C3B19881  28.630   3.987   8.038
 1196POPC   C4B19882  28.382   4.127   7.673
 1197POPC   NC319883  22.426   6.799   9.392
 1197POPC   PO419884  23.108   6.868   9.302
 1197POPC   GL119885  22.841   6.648   9.048
 1197POPC   GL219886  22.721   6.337   9.178
 1197POPC   C1A19887  22.694   6.755   8.660
 1197POPC   D2A19888  22.617   6.952   8.257
 1197POPC   C3A19889  22.756   6.790   7.843
 1197POPC   C4A19890  23.050   6.784   7.449
 1197POPC   C1B19891  22.634   6.245   8.713
 1197POPC   C2B19892  22.613   6.410   8.260
 1197POPC   C3B19893  22.750   6.275   7.839
 1197POPC   C4B19894  22.632   6.486   7.447
 1198POPC   NC319895  39.013   7.618   9.522
 1198POPC   PO419896  39.426   7.039   9.512
 1198POPC   GL119897  39.240   7.295   9.215
 1198POPC   GL219898  38.934   7.188   9.234
 1198POPC   C1A19899  39.293   7.412   8.794
 1198POPC   D2A19900  39.234   7.125   8.473
 1198POPC   C3A19901  39.247   7.331   8.107
 1198POPC   C4A19902  39.381   7.488   7.737
 1198POPC   C1B19903  38.848   7.166   8.821
 1198POPC   C2B19904  38.739   6.955   8.441
 1198POPC   C3B19905  38.996   6.820   8.113
 1198POPC   C4B19906  39.054   7.041   7.718
 1199POPC   NC319907  34.666  22.421   9.625
 1199POPC   PO419908  35.072  22.998   9.573
 1199POPC   GL119909  34.839  23.063   9.158
 1199POPC   GL219910  34.492  23.018   9.337
 1199POPC   C1A19911  34.877  23.066   8.670
 1199POPC   D2A19912  34.761  22.741   8.354
 1199POPC   C3A19913  34.638  22.829   7.920
 1199POPC   C4A19914  34.595  23.110   7.572
 1199POPC   C1B19915  34.420  22.992   8.876
 1199POPC   C2B19916  34.346  23.034   8.431
 1199POPC   C3B19917  34.237  23.117   7.980
 1199POPC   C4B19918  34.053  23.154   7.575
 1200POPC   NC319919  35.421   1.708   9.364
 1200POPC   PO419920  35.574   1.059   9.626
 1200POPC   GL119921  35.557   0.930   9.171
 1200POPC   GL219922  35.418   1.259   9.086
 1200POPC   C1A19923  35.447   0.884   8.699
 1200POPC   D2A19924  35.676   1.032   8.341
 1200POPC   C3A19925  35.465   1.174   8.009
 1200POPC   C4A19926  35.639   0.940   7.706
 1200POPC   C1B19927  35.127   1.289   8.736
 1200POPC   C2B19928  35.067   1.064   8.346
 1200POPC   C3B19929  34.923   1.205   7.937
 1200POPC   C4B19930  34.852   1.072   7.517
 1201POPC   NC319931  30.104  35.465   9.511
 1201POPC   PO419932  29.876  36.110   9.637
 1201POPC   GL119933  29.832  36.023   9.248
 1201POPC   GL219934  30.119  35.898   9.201
 1201POPC   C1A19935  29.707  35.933   8.859
 1201POPC   D2A19936  29.952  35.944   8.497
 1201POPC   C3A19937  29.764  36.062   8.100
 1201POPC   C4A19938  29.976  36.191   7.736
 1201POPC   C1B19939  30.219  35.626   8.855
 1201POPC   C2B19940  30.282  35.569   8.406
 1201POPC   C3B19941  30.190  35.810   8.035
 1201POPC   C4B19942  30.387  35.894   7.629
 1202POPC   NC319943  36.000   1.250   9.631
 1202POPC   PO419944  36.546   0.925   9.818
 1202POPC   GL119945  36.364   1.283   9.263
 1202POPC   GL219946  35.984   1.227   9.145
 1202POPC   C1A19947  36.311   1.102   8.783
 1202POPC   D2A19948  36.156   1.216   8.360
 1202POPC   C3A19949  36.091   0.962   7.957
 1202POPC   C4A19950  36.088   0.936   7.470
 1202POPC   C1B19951  35.812   1.244   8.777
 1202POPC   C2B19952  35.774   1.553   8.494
 1202POPC   C3B19953  35.790   1.560   8.073
 1202POPC   C4B19954  35.949   1.375   7.712
 1203POPC   NC319955  34.513  17.079   9.740
 1203POPC   PO419956  34.748  16.526   9.337
 1203POPC   GL119957  34.521  16.703   9.033
 1203POPC   GL219958  34.399  16.404   8.953
 1203POPC   C1A19959  34.267  16.841   8.671
 1203POPC   D2A19960  34.273  16.768   8.198
 1203POPC   C3A19961  34.588  16.960   7.925
 1203POPC   C4A19962  34.670  16.885   7.480
 1203POPC   C1B19963  34.528  16.414   8.540
 1203POPC   C2B19964  34.555  16.340   8.111
 1203POPC   C3B19965  34.483  16.477   7.689
 1203POPC   C4B19966  34.710  16.417   7.257
 1204POPC   NC319967   4.984  39.041   9.427
 1204POPC   PO419968   5.298  39.640   9.440
 1204POPC   GL119969   5.113  39.440   9.144
 1204POPC   GL219970   5.330  39.177   9.063
 1204POPC   C1A19971   4.906  39.212   8.809
 1204POPC   D2A19972   4.873  39.415   8.434
 1204POPC   C3A19973   5.032  39.143   8.172
 1204POPC   C4A19974   4.902  39.117   7.798
 1204POPC   C1B19975   5.308  39.521   8.694
 1204POPC   C2B19976   5.356  39.552   8.257
 1204POPC   C3B19977   5.439  39.298   7.876
 1204POPC   C4B19978   5.389  38.837   7.851
 1205POPC   NC319979   9.924  31.625   9.517
 1205POPC   PO419980   9.370  31.803   9.324
 1205POPC   GL119981   9.572  31.403   9.115
 1205POPC   GL219982   9.914  31.224   9.173
 1205POPC   C1A19983   9.819  31.436   8.709
 1205POPC   D2A19984   9.961  31.739   8.388
 1205POPC   C3A19985   9.674  31.718   8.075
 1205POPC   C4A19986   9.456  31.549   7.785
 1205POPC   C1B19987  10.240  31.178   8.835
 1205POPC   C2B19988  10.306  31.347   8.417
 1205POPC   C3B19989  10.020  31.350   8.053
 1205POPC   C4B19990   9.902  31.323   7.597
 1206POPC   NC319991  39.050   1.800   9.627
 1206POPC   PO419992  39.175   2.492   9.552
 1206POPC   GL119993  39.113   2.169   9.176
 1206POPC   GL219994  39.256   1.818   9.099
 1206POPC   C1A19995  39.115   2.080   8.701
 1206POPC   D2A19996  39.293   1.717   8.448
 1206POPC   C3A19997  39.512   1.877   8.132
 1206POPC   C4A19998  39.260   2.034   7.795
 1206POPC   C1B19999  38.907   1.635   8.769
 1206POPC   C2B20000  38.823   1.522   8.331
 1206POPC   C3B20001  38.915   1.628   7.891
 1206POPC   C4B20002  39.038   1.624   7.459
 1207POPC   NC320003  25.490  28.604   9.489
 1207POPC   PO420004  25.106  28.097   9.720
 1207POPC   GL120005  25.074  28.230   9.232
 1207POPC   GL220006  25.053  28.550   9.202
 1207POPC   C1A20007  25.303  28.205   8.809
 1207POPC   D2A20008  25.544  28.225   8.430
 1207POPC   C3A20009  25.332  28.386   8.082
 1207POPC   C4A20010  25.381  28.322   7.679
 1207POPC   C1B20011  25.095  28.689   8.804
 1207POPC   C2B20012  24.929  28.653   8.393
 1207POPC   C3B20013  25.063  28.851   8.041
 1207POPC   C4B20014  25.200  28.799   7.638
 1208POPC   NC320015   6.931  40.111   9.536
 1208POPC   PO420016   6.266  39.836   9.544
 1208POPC   GL120017   6.582  39.835   9.266
 1208POPC   GL220018   6.517  40.153   9.120
 1208POPC   C1A20019   6.842  39.798   8.909
 1208POPC   D2A20020   6.727  39.903   8.488
 1208POPC   C3A20021   6.751  39.696   8.078
 1208POPC   C4A20022   6.732  39.875   7.664
 1208POPC   C1B20023   6.839  40.322   8.871
 1208POPC   C2B20024   6.871  40.383   8.440
 1208POPC   C3B20025   6.840  40.227   8.027
 1208POPC   C4B20026   6.952  40.335   7.590
 1209POPC   NC320027   0.758  17.482   9.417
 1209POPC   PO420028   0.166  17.621   9.448
 1209POPC   GL120029   0.170  17.387   9.064
 1209POPC   GL220030   0.454  17.442   9.012
 1209POPC   C1A20031   0.187  17.340   8.582
 1209POPC   D2A20032   0.506  17.371   8.275
 1209POPC   C3A20033   0.438  17.387   7.839
 1209POPC   C4A20034   0.213  17.692   7.646
 1209POPC   C1B20035   0.678  17.642   8.723
 1209POPC   C2B20036   0.816  17.768   8.341
 1209POPC   C3B20037   0.605  17.869   7.953
 1209POPC   C4B20038   0.753  17.674   7.564
 1210POPC   NC320039  34.127  26.244   9.390
 1210POPC   PO420040  33.683  25.915   9.211
 1210POPC   GL120041  34.062  26.052   8.930
 1210POPC   GL220042  34.111  26.433   8.905
 1210POPC   C1A20043  34.218  26.156   8.501
 1210POPC   D2A20044  34.028  26.437   8.199
 1210POPC   C3A20045  33.905  26.261   7.813
 1210POPC   C4A20046  34.119  26.188   7.409
 1210POPC   C1B20047  33.735  26.313   8.613
 1210POPC   C2B20048  33.490  26.389   8.184
 1210POPC   C3B20049  33.247  26.205   7.807
 1210POPC   C4B20050  33.285  25.954   7.396
 1211POPC   NC320051  19.197  33.476   9.583
 1211POPC   PO420052  18.996  34.130   9.550
 1211POPC   GL120053  19.074  33.868   9.202
 1211POPC   GL220054  18.873  33.574   9.201
 1211POPC   C1A20055  19.013  33.854   8.773
 1211POPC   D2A20056  19.014  34.099   8.397
 1211POPC   C3A20057  19.042  33.928   7.987
 1211POPC   C4A20058  19.027  33.978   7.501
 1211POPC   C1B20059  18.848  33.360   8.811
 1211POPC   C2B20060  19.009  33.494   8.416
 1211POPC   C3B20061  18.959  33.380   8.019
 1211POPC   C4B20062  19.087  33.511   7.670
 1212POPC   NC320063  29.597  18.209   9.596
 1212POPC   PO420064  30.192  18.483   9.410
 1212POPC   GL120065  29.879  18.376   9.153
 1212POPC   GL220066  29.615  18.586   9.230
 1212POPC   C1A20067  29.950  18.125   8.798
 1212POPC   D2A20068  29.931  17.893   8.420
 1212POPC   C3A20069  30.117  18.123   8.091
 1212POPC   C4A20070  29.969  18.340   7.760
 1212POPC   C1B20071  29.480  18.485   8.833
 1212POPC   C2B20072  29.641  18.347   8.449
 1212POPC   C3B20073  29.559  18.462   8.037
 1212POPC   C4B20074  29.540  18.607   7.635
 1213POPC   NC320075  29.497  12.533   9.642
 1213POPC   PO420076  30.136  12.571   9.431
 1213POPC   GL120077  29.865  12.837   9.128
 1213POPC   GL220078  29.896  13.245   9.145
 1213POPC   C1A20079  29.968  12.967   8.693
 1213POPC   D2A20080  30.219  13.063   8.325
 1213POPC   C3A20081  30.235  12.768   8.005
 1213POPC   C4A20082  29.932  12.680   7.658
 1213POPC   C1B20083  29.801  13.462   8.754
 1213POPC   C2B20084  29.577  13.479   8.355
 1213POPC   C3B20085  29.658  13.279   7.948
 1213POPC   C4B20086  30.061  13.204   7.770
 1214POPC   NC320087  20.971  33.506   9.568
 1214POPC   PO420088  21.444  33.958   9.491
 1214POPC   GL120089  21.299  33.691   9.197
 1214POPC   GL220090  21.010  33.877   9.120
 1214POPC   C1A20091  21.471  33.669   8.794
 1214POPC   D2A20092  21.687  33.657   8.406
 1214POPC   C3A20093  21.479  33.909   8.093
 1214POPC   C4A20094  21.558  33.765   7.670
 1214POPC   C1B20095  20.951  33.598   8.782
 1214POPC   C2B20096  21.118  33.421   8.399
 1214POPC   C3B20097  21.237  33.484   7.988
 1214POPC   C4B20098  21.070  33.806   7.721
 1215POPC   NC320099  25.854  18.516   9.643
 1215POPC   PO420100  26.270  18.118   9.380
 1215POPC   GL120101  26.042  18.141   9.049
 1215POPC   GL220102  25.843  18.411   9.143
 1215POPC   C1A20103  25.990  18.015   8.640
 1215POPC   D2A20104  26.223  17.952   8.253
 1215POPC   C3A20105  26.014  17.962   7.854
 1215POPC   C4A20106  26.039  18.288   7.566
 1215POPC   C1B20107  26.074  18.529   8.755
 1215POPC   C2B20108  26.245  18.537   8.371
 1215POPC   C3B20109  26.083  18.525   8.002
 1215POPC   C4B20110  26.093  18.783   7.660
 1216POPC   NC320111  25.038  18.053   9.407
 1216POPC   PO420112  25.401  18.540   9.638
 1216POPC   GL120113  25.300  18.444   9.203
 1216POPC   GL220114  25.239  18.711   9.000
 1216POPC   C1A20115  25.058  18.280   8.803
 1216POPC   D2A20116  25.077  18.501   8.388
 1216POPC   C3A20117  24.996  18.248   8.014
 1216POPC   C4A20118  25.167  18.081   7.635
 1216POPC   C1B20119  25.543  18.396   8.745
 1216POPC   C2B20120  25.752  18.359   8.355
 1216POPC   C3B20121  25.623  18.283   7.937
 1216POPC   C4B20122  25.339  18.544   7.769
 1217POPC   NC320123  35.211  20.604   9.237
 1217POPC   PO420124  34.657  20.405   9.519
 1217POPC   GL120125  34.483  20.492   9.110
 1217POPC   GL220126  34.776  20.601   9.000
 1217POPC   C1A20127  34.449  20.556   8.635
 1217POPC   D2A20128  34.540  20.800   8.312
 1217POPC   C3A20129  34.391  20.708   7.947
 1217POPC   C4A20130  34.605  20.893   7.656
 1217POPC   C1B20131  34.964  20.368   8.655
 1217POPC   C2B20132  34.748  20.324   8.267
 1217POPC   C3B20133  34.823  20.456   7.840
 1217POPC   C4B20134  34.866  20.207   7.468
 1218POPC   NC320135  26.783  44.264   9.465
 1218POPC   PO420136  27.090  44.895   9.621
 1218POPC   GL120137  27.014  44.666   9.252
 1218POPC   GL220138  26.822  44.909   9.148
 1218POPC   C1A20139  26.805  44.520   8.836
 1218POPC   D2A20140  26.873  44.425   8.416
 1218POPC   C3A20141  26.697  44.180   8.097
 1218POPC   C4A20142  26.701  44.282   7.660
 1218POPC   C1B20143  27.054  44.951   8.767
 1218POPC   C2B20144  26.935  44.916   8.340
 1218POPC   C3B20145  26.766  44.697   7.985
 1218POPC   C4B20146  26.985  44.684   7.596
 1219POPC   NC320147  11.616  39.384   9.573
 1219POPC   PO420148  12.030  38.966   9.856
 1219POPC   GL120149  11.875  38.973   9.380
 1219POPC   GL220150  11.992  39.286   9.234
 1219POPC   C1A20151  11.930  38.980   8.868
 1219POPC   D2A20152  12.124  39.273   8.551
 1219POPC   C3A20153  12.189  39.126   8.122
 1219POPC   C4A20154  12.252  39.257   7.706
 1219POPC   C1B20155  11.748  39.471   8.855
 1219POPC   C2B20156  11.809  39.674   8.429
 1219POPC   C3B20157  12.040  39.614   8.076
 1219POPC   C4B20158  11.906  39.693   7.680
 1220POPC   NC320159  44.725   1.415   9.538
 1220POPC   PO420160  44.857   0.793   9.752
 1220POPC   GL120161  44.795   0.963   9.280
 1220POPC   GL220162  44.616   0.698   9.139
 1220POPC   C1A20163  44.676   1.270   8.895
 1220POPC   D2A20164  44.418   1.368   8.494
 1220POPC   C3A20165  44.367   1.505   8.049
 1220POPC   C4A20166  44.444   1.275   7.652
 1220POPC   C1B20167  44.492   0.838   8.716
 1220POPC   C2B20168  44.690   0.921   8.333
 1220POPC   C3B20169  44.575   0.869   7.889
 1220POPC   C4B20170  44.594   0.845   7.404
 1221POPC   NC320171  44.342   8.065   9.409
 1221POPC   PO420172  44.959   7.859   9.209
 1221POPC   GL120173  44.697   8.179   9.041
 1221POPC   GL220174  44.766   8.524   9.086
 1221POPC   C1A20175  44.822   8.262   8.626
 1221POPC   D2A20176  44.834   7.907   8.340
 1221POPC   C3A20177  44.726   8.025   7.959
 1221POPC   C4A20178  44.522   7.947   7.582
 1221POPC   C1B20179  44.460   8.612   8.680
 1221POPC   C2B20180  44.589   8.655   8.267
 1221POPC   C3B20181  44.769   8.532   7.895
 1221POPC   C4B20182  44.530   8.470   7.513
 1222POPC   NC320183  24.211  19.032   9.420
 1222POPC   PO420184  24.822  18.793   9.336
 1222POPC   GL120185  24.775  18.979   8.963
 1222POPC   GL220186  24.412  18.934   8.957
 1222POPC   C1A20187  24.700  19.019   8.516
 1222POPC   D2A20188  24.289  19.053   8.287
 1222POPC   C3A20189  24.314  18.998   7.849
 1222POPC   C4A20190  24.583  19.111   7.526
 1222POPC   C1B20191  24.346  19.313   8.744
 1222POPC   C2B20192  24.568  19.486   8.372
 1222POPC   C3B20193  24.478  19.468   7.937
 1222POPC   C4B20194  24.225  19.471   7.557
 1223POPC   NC320195  40.223  41.881   9.451
 1223POPC   PO420196  39.904  41.304   9.505
 1223POPC   GL120197  40.011  41.546   9.132
 1223POPC   GL220198  39.788  41.860   9.089
 1223POPC   C1A20199  40.052  41.436   8.716
 1223POPC   D2A20200  39.860  41.240   8.367
 1223POPC   C3A20201  40.106  41.350   8.019
 1223POPC   C4A20202  39.987  41.290   7.603
 1223POPC   C1B20203  39.637  41.748   8.662
 1223POPC   C2B20204  39.719  41.705   8.201
 1223POPC   C3B20205  39.890  41.772   7.757
 1223POPC   C4B20206  40.004  41.743   7.322
 1224POPC   NC320207  11.685   1.859   9.461
 1224POPC   PO420208  12.298   2.030   9.563
 1224POPC   GL120209  12.129   1.934   9.206
 1224POPC   GL220210  11.875   2.180   9.118
 1224POPC   C1A20211  12.267   1.760   8.857
 1224POPC   D2A20212  12.346   1.882   8.407
 1224POPC   C3A20213  12.128   2.010   8.070
 1224POPC   C4A20214  12.243   2.203   7.716
 1224POPC   C1B20215  11.793   1.885   8.768
 1224POPC   C2B20216  11.781   1.746   8.354
 1224POPC   C3B20217  11.630   1.884   7.992
 1224POPC   C4B20218  11.746   2.142   7.688
 1225POPC   NC320219  39.850  44.507   9.574
 1225POPC   PO420220  39.206  44.804   9.458
 1225POPC   GL120221  39.344  44.656   9.135
 1225POPC   GL220222  39.490  44.370   9.204
 1225POPC   C1A20223  39.498  44.744   8.747
 1225POPC   D2A20224  39.383  44.615   8.384
 1225POPC   C3A20225  39.528  44.744   8.009
 1225POPC   C4A20226  39.149  44.685   7.740
 1225POPC   C1B20227  39.317  44.258   8.817
 1225POPC   C2B20228  39.532  44.123   8.493
 1225POPC   C3B20229  39.427  44.186   8.095
 1225POPC   C4B20230  39.034  44.197   7.945
 1226POPC   NC320231  32.811   1.748   9.350
 1226POPC   PO420232  32.916   1.066   9.350
 1226POPC   GL120233  32.755   1.318   9.046
 1226POPC   GL220234  33.069   1.502   8.985
 1226POPC   C1A20235  32.658   1.196   8.635
 1226POPC   D2A20236  32.823   1.048   8.265
 1226POPC   C3A20237  32.734   1.218   7.873
 1226POPC   C4A20238  32.686   1.535   7.569
 1226POPC   C1B20239  33.172   1.161   8.709
 1226POPC   C2B20240  33.328   1.128   8.297
 1226POPC   C3B20241  33.277   1.230   7.884
 1226POPC   C4B20242  33.533   1.149   7.542
 1227POPC   NC320243  42.125   6.684   9.485
 1227POPC   PO420244  42.797   6.880   9.513
 1227POPC   GL120245  42.560   6.657   9.172
 1227POPC   GL220246  42.744   6.896   8.965
 1227POPC   C1A20247  42.228   6.473   8.848
 1227POPC   D2A20248  41.975   6.619   8.457
 1227POPC   C3A20249  42.141   6.475   8.062
 1227POPC   C4A20250  42.293   6.639   7.673
 1227POPC   C1B20251  42.712   6.563   8.708
 1227POPC   C2B20252  42.577   6.550   8.309
 1227POPC   C3B20253  42.751   6.599   7.918
 1227POPC   C4B20254  42.764   6.952   7.635
 1228POPC   NC320255   3.785   1.517   9.375
 1228POPC   PO420256   3.673   0.801   9.505
 1228POPC   GL120257   3.551   1.091   9.206
 1228POPC   GL220258   3.551   0.823   9.013
 1228POPC   C1A20259   3.709   1.247   8.800
 1228POPC   D2A20260   3.902   1.317   8.447
 1228POPC   C3A20261   3.687   1.589   8.155
 1228POPC   C4A20262   3.780   1.498   7.742
 1228POPC   C1B20263   3.402   0.768   8.653
 1228POPC   C2B20264   3.697   0.822   8.389
 1228POPC   C3B20265   3.720   1.057   8.030
 1228POPC   C4B20266   3.535   1.037   7.596
 1229POPC   NC320267  29.412   4.170   9.500
 1229POPC   PO420268  28.791   4.427   9.635
 1229POPC   GL120269  28.971   4.200   9.238
 1229POPC   GL220270  29.229   4.041   9.058
 1229POPC   C1A20271  28.857   4.225   8.777
 1229POPC   D2A20272  29.011   4.125   8.367
 1229POPC   C3A20273  28.972   4.388   8.003
 1229POPC   C4A20274  28.777   4.469   7.598
 1229POPC   C1B20275  29.349   3.879   8.689
 1229POPC   C2B20276  29.494   3.962   8.277
 1229POPC   C3B20277  29.288   3.990   7.874
 1229POPC   C4B20278  29.247   4.268   7.508
 1230POPC   NC320279  37.022  10.630   9.984
 1230POPC   PO420280  36.812  10.508   9.380
 1230POPC   GL120281  37.140  10.404   9.057
 1230POPC   GL220282  37.100  10.053   9.017
 1230POPC   C1A20283  37.173  10.632   8.662
 1230POPC   D2A20284  36.762  10.744   8.421
 1230POPC   C3A20285  36.686  10.635   7.985
 1230POPC   C4A20286  37.097  10.663   7.795
 1230POPC   C1B20287  36.791  10.288   8.708
 1230POPC   C2B20288  36.546  10.248   8.334
 1230POPC   C3B20289  36.636  10.106   7.915
 1230POPC   C4B20290  36.942  10.231   7.599
 1231POPC   NC320291  10.495  26.736   9.768
 1231POPC   PO420292  10.830  27.274   9.492
 1231POPC   GL120293  10.521  26.993   9.147
 1231POPC   GL220294  10.603  26.637   9.165
 1231POPC   C1A20295  10.367  26.877   8.724
 1231POPC   D2A20296  10.383  27.121   8.297
 1231POPC   C3A20297  10.429  26.913   7.886
 1231POPC   C4A20298  10.632  27.095   7.488
 1231POPC   C1B20299  10.760  26.537   8.735
 1231POPC   C2B20300  10.578  26.643   8.317
 1231POPC   C3B20301  10.588  26.431   7.927
 1231POPC   C4B20302  10.753  26.613   7.590
 1232POPC   NC320303  24.586   3.769   9.431
 1232POPC   PO420304  24.402   3.117   9.387
 1232POPC   GL120305  24.300   3.468   9.096
 1232POPC   GL220306  24.264   3.868   9.061
 1232POPC   C1A20307  24.434   3.540   8.682
 1232POPC   D2A20308  24.544   3.297   8.333
 1232POPC   C3A20309  24.467   3.481   7.947
 1232POPC   C4A20310  24.202   3.448   7.577
 1232POPC   C1B20311  24.664   3.994   8.808
 1232POPC   C2B20312  24.865   3.921   8.380
 1232POPC   C3B20313  24.811   3.879   7.910
 1232POPC   C4B20314  24.427   3.902   7.635
 1233POPC   NC320315   9.269   4.187   9.451
 1233POPC   PO420316   9.022   4.657   9.763
 1233POPC   GL120317   8.963   4.513   9.228
 1233POPC   GL220318   8.744   4.233   9.160
 1233POPC   C1A20319   9.106   4.269   8.825
 1233POPC   D2A20320   8.960   4.136   8.442
 1233POPC   C3A20321   9.317   4.104   8.217
 1233POPC   C4A20322   9.348   4.119   7.816
 1233POPC   C1B20323   8.667   4.512   8.774
 1233POPC   C2B20324   8.687   4.550   8.296
 1233POPC   C3B20325   8.834   4.282   7.929
 1233POPC   C4B20326   8.580   3.929   7.715
 1234POPC   NC320327   8.083  38.932   9.450
 1234POPC   PO420328   8.196  39.551   9.563
 1234POPC   GL120329   8.079  39.390   9.160
 1234POPC   GL220330   8.337  39.233   9.100
 1234POPC   C1A20331   7.936  39.344   8.744
 1234POPC   D2A20332   8.024  39.578   8.359
 1234POPC   C3A20333   8.167  39.357   7.977
 1234POPC   C4A20334   7.856  39.268   7.628
 1234POPC   C1B20335   8.420  39.130   8.661
 1234POPC   C2B20336   8.622  38.944   8.306
 1234POPC   C3B20337   8.545  38.809   7.907
 1234POPC   C4B20338   8.134  38.819   7.828
 1235POPC   NC320339  33.527   9.812   9.749
 1235POPC   PO420340  33.448   9.208   9.380
 1235POPC   GL120341  33.738   9.462   9.203
 1235POPC   GL220342  33.673   9.816   9.260
 1235POPC   C1A20343  33.895   9.457   8.800
 1235POPC   D2A20344  33.876   9.660   8.419
 1235POPC   C3A20345  33.749   9.405   8.074
 1235POPC   C4A20346  33.635   9.510   7.684
 1235POPC   C1B20347  33.665   9.989   8.847
 1235POPC   C2B20348  33.534  10.076   8.424
 1235POPC   C3B20349  33.704   9.958   8.032
 1235POPC   C4B20350  33.532   9.983   7.653
 1236POPC   NC320351  34.457  26.710   9.701
 1236POPC   PO420352  33.790  26.867   9.726
 1236POPC   GL120353  33.998  26.777   9.304
 1236POPC   GL220354  34.271  26.998   9.176
 1236POPC   C1A20355  33.869  26.889   8.868
 1236POPC   D2A20356  33.646  26.792   8.489
 1236POPC   C3A20357  33.720  27.035   8.116
 1236POPC   C4A20358  33.669  26.718   7.824
 1236POPC   C1B20359  34.366  26.977   8.759
 1236POPC   C2B20360  34.134  26.891   8.402
 1236POPC   C3B20361  34.169  26.855   7.943
 1236POPC   C4B20362  33.968  27.111   7.657
 1237POPC   NC320363  30.686  29.853   9.529
 1237POPC   PO420364  30.094  30.183   9.217
 1237POPC   GL120365  30.570  30.129   9.077
 1237POPC   GL220366  30.910  29.925   9.066
 1237POPC   C1A20367  30.824  30.366   8.767
 1237POPC   D2A20368  30.775  30.515   8.320
 1237POPC   C3A20369  30.670  30.130   8.035
 1237POPC   C4A20370  30.288  29.983   7.821
 1237POPC   C1B20371  30.852  29.798   8.620
 1237POPC   C2B20372  30.544  29.669   8.287
 1237POPC   C3B20373  30.693  29.614   7.899
 1237POPC   C4B20374  31.042  29.859   7.778
 1238POPC   NC320375  17.507  31.681   9.471
 1238POPC   PO420376  17.956  31.275   9.667
 1238POPC   GL120377  17.830  31.430   9.186
 1238POPC   GL220378  17.487  31.304   9.018
 1238POPC   C1A20379  17.797  31.547   8.709
 1238POPC   D2A20380  17.486  31.417   8.386
 1238POPC   C3A20381  17.483  31.673   8.038
 1238POPC   C4A20382  17.356  31.988   7.751
 1238POPC   C1B20383  17.345  31.004   8.687
 1238POPC   C2B20384  17.103  31.056   8.281
 1238POPC   C3B20385  17.280  31.188   7.907
 1238POPC   C4B20386  17.266  31.509   7.606
 1239POPC   NC320387  26.673  18.809   9.456
 1239POPC   PO420388  26.572  19.446   9.468
 1239POPC   GL120389  26.795  19.241   9.122
 1239POPC   GL220390  26.584  19.009   9.018
 1239POPC   C1A20391  26.840  19.171   8.634
 1239POPC   D2A20392  26.527  19.148   8.316
 1239POPC   C3A20393  26.759  19.195   7.963
 1239POPC   C4A20394  27.024  18.909   7.772
 1239POPC   C1B20395  26.616  18.719   8.677
 1239POPC   C2B20396  26.806  18.733   8.290
 1239POPC   C3B20397  26.531  18.747   7.953
 1239POPC   C4B20398  26.586  18.776   7.530
 1240POPC   NC320399  11.102   2.040   9.791
 1240POPC   PO420400  11.365   2.084   9.209
 1240POPC   GL120401  11.159   2.109   8.865
 1240POPC   GL220402  11.088   1.749   8.817
 1240POPC   C1A20403  11.380   2.047   8.488
 1240POPC   D2A20404  11.278   1.669   8.288
 1240POPC   C3A20405  11.047   1.901   7.997
 1240POPC   C4A20406  11.267   1.928   7.641
 1240POPC   C1B20407  10.868   1.884   8.490
 1240POPC   C2B20408  10.945   2.314   8.321
 1240POPC   C3B20409  10.967   2.529   7.947
 1240POPC   C4B20410  11.026   2.352   7.558
 1241POPC   NC320411   6.654  28.347   9.431
 1241POPC   PO420412   7.095  28.680   9.493
 1241POPC   GL120413   6.936  28.577   9.073
 1241POPC   GL220414   6.628  28.727   9.058
 1241POPC   C1A20415   6.855  28.388   8.659
 1241POPC   D2A20416   6.626  28.169   8.309
 1241POPC   C3A20417   6.662  28.302   7.864
 1241POPC   C4A20418   6.372  28.283   7.492
 1241POPC   C1B20419   6.734  28.888   8.646
 1241POPC   C2B20420   6.911  28.715   8.257
 1241POPC   C3B20421   6.783  28.804   7.839
 1241POPC   C4B20422   6.691  28.700   7.397
 1242POPC   NC320423  21.108  13.361   9.458
 1242POPC   PO420424  21.752  13.115   9.587
 1242POPC   GL120425  21.554  13.317   9.189
 1242POPC   GL220426  21.260  13.158   9.017
 1242POPC   C1A20427  21.479  13.567   8.789
 1242POPC   D2A20428  21.666  13.510   8.363
 1242POPC   C3A20429  21.601  13.813   7.997
 1242POPC   C4A20430  21.208  13.917   7.754
 1242POPC   C1B20431  21.371  13.109   8.602
 1242POPC   C2B20432  21.253  13.162   8.216
 1242POPC   C3B20433  21.491  13.335   7.898
 1242POPC   C4B20434  21.381  13.521   7.492
 1243POPC   NC320435  42.133   0.449   9.689
 1243POPC   PO420436  41.520   0.365   9.691
 1243POPC   GL120437  41.588   0.345   9.220
 1243POPC   GL220438  41.598   0.621   8.992
 1243POPC   C1A20439  41.664   0.137   8.825
 1243POPC   D2A20440  41.569   0.433   8.500
 1243POPC   C3A20441  41.633   0.449   8.049
 1243POPC   C4A20442  41.354   0.257   7.768
 1243POPC   C1B20443  41.210   0.760   8.767
 1243POPC   C2B20444  41.000   0.843   8.348
 1243POPC   C3B20445  41.048   0.699   7.918
 1243POPC   C4B20446  41.404   0.756   7.644
 1244POPC   NC320447  28.659  30.055   9.477
 1244POPC   PO420448  28.022  29.723   9.515
 1244POPC   GL120449  28.211  29.942   9.228
 1244POPC   GL220450  28.454  29.709   9.164
 1244POPC   C1A20451  28.336  30.106   8.846
 1244POPC   D2A20452  28.081  30.209   8.527
 1244POPC   C3A20453  28.226  30.079   8.121
 1244POPC   C4A20454  28.172  30.197   7.685
 1244POPC   C1B20455  28.314  29.592   8.810
 1244POPC   C2B20456  28.520  29.759   8.452
 1244POPC   C3B20457  28.637  29.690   8.029
 1244POPC   C4B20458  28.319  29.723   7.740
 1245POPC   NC320459   7.143  12.759   9.448
 1245POPC   PO420460   7.740  12.455   9.405
 1245POPC   GL120461   7.469  12.591   9.048
 1245POPC   GL220462   7.195  12.844   8.960
 1245POPC   C1A20463   7.706  12.622   8.658
 1245POPC   D2A20464   7.607  12.650   8.207
 1245POPC   C3A20465   7.715  12.893   7.865
 1245POPC   C4A20466   7.599  12.823   7.435
 1245POPC   C1B20467   7.294  12.897   8.547
 1245POPC   C2B20468   7.105  12.769   8.194
 1245POPC   C3B20469   7.219  12.748   7.783
 1245POPC   C4B20470   7.178  13.104   7.482
 1246POPC   NC320471  37.660  36.424   9.580
 1246POPC   PO420472  37.470  35.881   9.546
 1246POPC   GL120473  37.531  36.074   9.164
 1246POPC   GL220474  37.854  36.261   9.135
 1246POPC   C1A20475  37.349  36.106   8.734
 1246POPC   D2A20476  37.527  36.170   8.328
 1246POPC   C3A20477  37.340  36.104   7.937
 1246POPC   C4A20478  37.656  36.106   7.594
 1246POPC   C1B20479  38.096  36.136   8.787
 1246POPC   C2B20480  38.017  36.022   8.378
 1246POPC   C3B20481  38.062  36.160   7.991
 1246POPC   C4B20482  38.156  35.936   7.665
 1247POPC   NC320483  42.670   7.377   9.531
 1247POPC   PO420484  41.956   7.197   9.583
 1247POPC   GL120485  42.192   7.413   9.270
 1247POPC   GL220486  42.344   7.107   9.239
 1247POPC   C1A20487  42.465   7.472   8.886
 1247POPC   D2A20488  42.379   7.553   8.459
 1247POPC   C3A20489  42.649   7.495   8.154
 1247POPC   C4A20490  42.503   7.598   7.761
 1247POPC   C1B20491  42.269   6.986   8.826
 1247POPC   C2B20492  42.556   7.052   8.475
 1247POPC   C3B20493  42.440   7.014   8.039
 1247POPC   C4B20494  42.293   7.152   7.633
 1248POPC   NC320495  42.543   0.398   9.381
 1248POPC   PO420496  41.912   0.728   9.382
 1248POPC   GL120497  42.104   0.371   9.102
 1248POPC   GL220498  42.444   0.475   8.904
 1248POPC   C1A20499  42.139   0.202   8.637
 1248POPC   D2A20500  42.446   0.421   8.367
 1248POPC   C3A20501  42.464   0.315   7.925
 1248POPC   C4A20502  42.484   0.503   7.500
 1248POPC   C1B20503  42.068   0.695   8.737
 1248POPC   C2B20504  41.990   0.708   8.336
 1248POPC   C3B20505  42.212   0.749   7.950
 1248POPC   C4B20506  41.989   0.538   7.642
 1249POPC   NC320507  13.234   5.182   9.448
 1249POPC   PO420508  12.722   4.800   9.334
 1249POPC   GL120509  13.126   4.849   9.063
 1249POPC   GL220510  13.257   5.179   8.948
 1249POPC   C1A20511  13.002   4.808   8.648
 1249POPC   D2A20512  12.587   4.981   8.509
 1249POPC   C3A20513  12.638   5.141   8.106
 1249POPC   C4A20514  13.010   5.035   7.880
 1249POPC   C1B20515  12.951   5.317   8.699
 1249POPC   C2B20516  13.110   5.389   8.315
 1249POPC   C3B20517  13.120   5.537   7.932
 1249POPC   C4B20518  12.758   5.458   7.700
 1250POPC   NC320519  33.251   7.287   9.472
 1250POPC   PO420520  32.970   7.817   9.524
 1250POPC   GL120521  33.249   7.691   9.171
 1250POPC   GL220522  32.992   7.457   9.059
 1250POPC   C1A20523  33.454   7.476   8.815
 1250POPC   D2A20524  33.284   7.250   8.463
 1250POPC   C3A20525  33.265   7.462   8.062
 1250POPC   C4A20526  33.217   7.440   7.643
 1250POPC   C1B20527  32.732   7.700   8.784
 1250POPC   C2B20528  32.912   7.685   8.367
 1250POPC   C3B20529  32.784   7.681   7.935
 1250POPC   C4B20530  32.749   7.619   7.489
 1251POPC   NC320531  36.481  44.622   9.445
 1251POPC   PO420532  35.975   0.144   9.587
 1251POPC   GL120533  35.918  44.942   9.180
 1251POPC   GL220534  36.021  44.645   9.238
 1251POPC   C1A20535  36.113  44.873   8.766
 1251POPC   D2A20536  36.290  44.671   8.396
 1251POPC   C3A20537  36.119  44.558   8.016
 1251POPC   C4A20538  36.211  44.604   7.565
 1251POPC   C1B20539  35.934  44.412   8.876
 1251POPC   C2B20540  35.907  44.317   8.444
 1251POPC   C3B20541  35.795  44.128   8.046
 1251POPC   C4B20542  35.805  44.267   7.664
 1252POPC   NC320543   0.577  43.984   9.374
 1252POPC   PO420544  44.939  44.212   9.536
 1252POPC   GL120545   0.211  44.291   9.158
 1252POPC   GL220546   0.285  43.960   8.954
 1252POPC   C1A20547   0.422  44.362   8.738
 1252POPC   D2A20548   0.433  44.087   8.382
 1252POPC   C3A20549   0.331  44.221   7.979
 1252POPC   C4A20550   0.202  43.824   7.810
 1252POPC   C1B20551   0.683  43.823   8.742
 1252POPC   C2B20552   0.818  43.682   8.338
 1252POPC   C3B20553   0.731  43.861   7.917
 1252POPC   C4B20554   0.579  43.659   7.505
 1253POPC   NC320555  29.214  20.521   9.438
 1253POPC   PO420556  28.721  20.840   9.462
 1253POPC   GL120557  28.828  20.439   9.127
 1253POPC   GL220558  29.024  20.721   9.003
 1253POPC   C1A20559  29.058  20.324   8.674
 1253POPC   D2A20560  29.019  20.615   8.309
 1253POPC   C3A20561  29.140  20.508   7.895
 1253POPC   C4A20562  29.079  20.155   7.646
 1253POPC   C1B20563  28.818  21.080   8.780
 1253POPC   C2B20564  28.726  21.039   8.329
 1253POPC   C3B20565  29.015  21.005   7.940
 1253POPC   C4B20566  29.020  21.012   7.470
 1254POPC   NC320567  33.673  32.074   9.764
 1254POPC   PO420568  33.823  32.679   9.668
 1254POPC   GL120569  33.836  32.383   9.333
 1254POPC   GL220570  33.556  32.398   9.185
 1254POPC   C1A20571  33.999  32.328   8.860
 1254POPC   D2A20572  33.992  32.148   8.414
 1254POPC   C3A20573  34.096  32.364   8.011
 1254POPC   C4A20574  33.944  32.214   7.604
 1254POPC   C1B20575  33.506  32.178   8.817
 1254POPC   C2B20576  33.512  32.297   8.399
 1254POPC   C3B20577  33.641  32.096   8.009
 1254POPC   C4B20578  33.423  32.143   7.602
 1255POPC   NC320579  31.332  30.767   9.266
 1255POPC   PO420580  30.773  30.607   9.565
 1255POPC   GL120581  30.722  30.928   9.215
 1255POPC   GL220582  31.027  31.060   9.004
 1255POPC   C1A20583  30.621  30.906   8.756
 1255POPC   D2A20584  30.788  31.061   8.339
 1255POPC   C3A20585  30.524  30.939   7.992
 1255POPC   C4A20586  30.436  30.527   7.837
 1255POPC   C1B20587  31.119  30.777   8.643
 1255POPC   C2B20588  31.335  30.577   8.315
 1255POPC   C3B20589  31.136  30.330   8.013
 1255POPC   C4B20590  30.942  30.667   7.843
 1256POPC   NC320591  11.799  36.249   9.637
 1256POPC   PO420592  12.193  35.746   9.504
 1256POPC   GL120593  12.149  36.083   9.225
 1256POPC   GL220594  12.481  36.193   9.132
 1256POPC   C1A20595  11.994  36.140   8.806
 1256POPC   D2A20596  12.021  36.365   8.422
 1256POPC   C3A20597  12.124  36.120   8.043
 1256POPC   C4A20598  11.782  36.147   7.749
 1256POPC   C1B20599  12.328  36.533   8.854
 1256POPC   C2B20600  12.405  36.701   8.445
 1256POPC   C3B20601  12.246  36.605   8.013
 1256POPC   C4B20602  12.173  36.455   7.544
 1257POPC   NC320603  12.229  22.562   9.470
 1257POPC   PO420604  11.955  23.195   9.448
 1257POPC   GL120605  12.319  23.115   9.155
 1257POPC   GL220606  12.495  23.407   8.977
 1257POPC   C1A20607  12.321  22.795   8.809
 1257POPC   D2A20608  12.351  22.642   8.387
 1257POPC   C3A20609  12.054  22.796   8.094
 1257POPC   C4A20610  12.113  22.658   7.664
 1257POPC   C1B20611  12.210  23.282   8.676
 1257POPC   C2B20612  11.961  23.293   8.337
 1257POPC   C3B20613  12.082  23.307   7.957
 1257POPC   C4B20614  11.870  23.099   7.714
 1258POPC   NC320615  31.694  10.487   9.819
 1258POPC   PO420616  32.320  10.307   9.512
 1258POPC   GL120617  32.469  10.309   9.120
 1258POPC   GL220618  32.308  10.581   9.062
 1258POPC   C1A20619  32.263  10.275   8.684
 1258POPC   D2A20620  32.172  10.473   8.305
 1258POPC   C3A20621  32.388  10.369   7.929
 1258POPC   C4A20622  32.426  10.134   7.544
 1258POPC   C1B20623  32.330  10.820   8.686
 1258POPC   C2B20624  32.225  10.986   8.289
 1258POPC   C3B20625  32.147  10.837   7.892
 1258POPC   C4B20626  32.342  10.836   7.475
 1259POPC   NC320627  12.084  34.273   9.404
 1259POPC   PO420628  11.808  33.674   9.494
 1259POPC   GL120629  12.080  33.694   9.120
 1259POPC   GL220630  11.971  33.990   9.006
 1259POPC   C1A20631  12.173  33.766   8.624
 1259POPC   D2A20632  11.882  33.808   8.254
 1259POPC   C3A20633  12.004  33.642   7.867
 1259POPC   C4A20634  12.190  33.986   7.691
 1259POPC   C1B20635  11.765  34.133   8.635
 1259POPC   C2B20636  11.761  34.491   8.368
 1259POPC   C3B20637  11.800  34.288   7.972
 1259POPC   C4B20638  11.679  34.002   7.661
 1260POPC   NC320639  17.403  21.624   9.383
 1260POPC   PO420640  17.878  21.194   9.364
 1260POPC   GL120641  17.588  21.289   9.060
 1260POPC   GL220642  17.236  21.186   9.173
 1260POPC   C1A20643  17.517  21.522   8.702
 1260POPC   D2A20644  17.252  21.539   8.348
 1260POPC   C3A20645  17.540  21.538   8.039
 1260POPC   C4A20646  17.807  21.645   7.698
 1260POPC   C1B20647  17.061  21.299   8.782
 1260POPC   C2B20648  17.034  21.061   8.399
 1260POPC   C3B20649  16.944  21.226   7.986
 1260POPC   C4B20650  17.232  21.407   7.671
 1261POPC   NC320651  38.387  35.043   9.660
 1261POPC   PO420652  38.468  35.700   9.615
 1261POPC   GL120653  38.385  35.433   9.266
 1261POPC   GL220654  38.039  35.259   9.340
 1261POPC   C1A20655  38.516  35.296   8.816
 1261POPC   D2A20656  38.631  35.495   8.418
 1261POPC   C3A20657  38.580  35.341   8.023
 1261POPC   C4A20658  38.632  35.241   7.558
 1261POPC   C1B20659  38.010  35.403   8.938
 1261POPC   C2B20660  38.170  35.604   8.593
 1261POPC   C3B20661  38.140  35.576   8.139
 1261POPC   C4B20662  38.182  35.437   7.740
 1262POPC   NC320663   5.696  33.690   9.756
 1262POPC   PO420664   6.242  33.903   9.752
 1262POPC   GL120665   5.929  33.863   9.346
 1262POPC   GL220666   5.642  33.633   9.258
 1262POPC   C1A20667   5.786  34.054   8.939
 1262POPC   D2A20668   5.752  33.903   8.515
 1262POPC   C3A20669   5.967  33.761   8.135
 1262POPC   C4A20670   5.890  34.004   7.761
 1262POPC   C1B20671   5.903  33.554   8.888
 1262POPC   C2B20672   5.808  33.381   8.481
 1262POPC   C3B20673   5.613  33.289   8.105
 1262POPC   C4B20674   5.608  33.528   7.735
 1263POPC   NC320675   8.568  13.524   9.505
 1263POPC   PO420676   7.941  13.949   9.510
 1263POPC   GL120677   8.120  13.740   9.140
 1263POPC   GL220678   8.088  13.373   9.235
 1263POPC   C1A20679   8.332  13.856   8.717
 1263POPC   D2A20680   8.420  13.924   8.238
 1263POPC   C3A20681   8.235  13.684   7.879
 1263POPC   C4A20682   8.175  13.354   7.558
 1263POPC   C1B20683   8.382  13.343   8.890
 1263POPC   C2B20684   8.354  13.395   8.444
 1263POPC   C3B20685   8.597  13.296   8.108
 1263POPC   C4B20686   8.659  13.201   7.686
 1264POPC   NC320687  39.910  40.247   9.397
 1264POPC   PO420688  40.377  39.662   9.442
 1264POPC   GL120689  40.122  39.805   9.125
 1264POPC   GL220690  39.778  39.723   9.213
 1264POPC   C1A20691  40.198  40.039   8.755
 1264POPC   D2A20692  40.023  40.116   8.365
 1264POPC   C3A20693  40.246  40.005   7.999
 1264POPC   C4A20694  40.213  39.715   7.652
 1264POPC   C1B20695  39.707  39.928   8.785
 1264POPC   C2B20696  39.639  39.763   8.365
 1264POPC   C3B20697  39.721  39.896   7.949
 1264POPC   C4B20698  39.893  40.136   7.638
 1265POPC   NC320699   0.885  31.384   9.506
 1265POPC   PO420700   0.290  31.793   9.520
 1265POPC   GL120701   0.339  31.535   9.137
 1265POPC   GL220702   0.659  31.314   9.060
 1265POPC   C1A20703   0.446  31.651   8.714
 1265POPC   D2A20704   0.625  31.529   8.325
 1265POPC   C3A20705   0.318  31.726   8.096
 1265POPC   C4A20706   0.201  31.720   7.673
 1265POPC   C1B20707   0.500  31.135   8.683
 1265POPC   C2B20708   0.199  31.208   8.342
 1265POPC   C3B20709   0.310  31.244   7.894
 1265POPC   C4B20710   0.732  31.056   7.841
 1266POPC   NC320711  17.995  34.405   9.411
 1266POPC   PO420712  17.403  34.415   9.573
 1266POPC   GL120713  17.529  34.592   9.206
 1266POPC   GL220714  17.668  34.902   9.139
 1266POPC   C1A20715  17.666  34.504   8.824
 1266POPC   D2A20716  17.486  34.554   8.461
 1266POPC   C3A20717  17.754  34.482   8.136
 1266POPC   C4A20718  17.517  34.376   7.782
 1266POPC   C1B20719  17.394  34.951   8.804
 1266POPC   C2B20720  17.490  35.074   8.388
 1266POPC   C3B20721  17.486  34.903   7.971
 1266POPC   C4B20722  17.679  35.143   7.654
 1267POPC   NC320723  22.872  44.012   9.527
 1267POPC   PO420724  22.345  43.661   9.715
 1267POPC   GL120725  22.510  43.744   9.235
 1267POPC   GL220726  22.844  43.777   9.098
 1267POPC   C1A20727  22.537  43.845   8.737
 1267POPC   D2A20728  22.835  43.675   8.390
 1267POPC   C3A20729  22.740  43.745   7.947
 1267POPC   C4A20730  22.713  43.563   7.511
 1267POPC   C1B20731  23.107  43.871   8.781
 1267POPC   C2B20732  23.278  43.987   8.404
 1267POPC   C3B20733  23.257  43.969   7.978
 1267POPC   C4B20734  22.945  44.134   7.698
 1268POPC   NC320735  19.478  25.042   9.339
 1268POPC   PO420736  18.785  25.106   9.482
 1268POPC   GL120737  19.044  25.268   9.149
 1268POPC   GL220738  19.290  25.566   9.249
 1268POPC   C1A20739  18.994  25.160   8.710
 1268POPC   D2A20740  19.030  25.396   8.307
 1268POPC   C3A20741  18.957  25.247   7.947
 1268POPC   C4A20742  19.072  25.354   7.592
 1268POPC   C1B20743  19.320  25.551   8.803
 1268POPC   C2B20744  19.466  25.221   8.500
 1268POPC   C3B20745  19.443  25.192   8.034
 1268POPC   C4B20746  19.314  24.907   7.659
 1269POPC   NC320747  34.181  29.524   9.336
 1269POPC   PO420748  34.734  29.165   9.722
 1269POPC   GL120749  34.851  29.140   9.276
 1269POPC   GL220750  34.502  29.116   9.209
 1269POPC   C1A20751  34.801  29.316   8.831
 1269POPC   D2A20752  34.933  29.427   8.402
 1269POPC   C3A20753  34.679  29.422   8.025
 1269POPC   C4A20754  34.743  29.267   7.595
 1269POPC   C1B20755  34.307  29.161   8.799
 1269POPC   C2B20756  34.306  29.412   8.431
 1269POPC   C3B20757  34.182  29.527   8.030
 1269POPC   C4B20758  34.238  29.315   7.624
 1270POPC   NC320759  39.760  28.183   9.454
 1270POPC   PO420760  40.126  28.827   9.547
 1270POPC   GL120761  39.949  28.706   9.185
 1270POPC   GL220762  39.629  28.545   9.076
 1270POPC   C1A20763  40.108  28.489   8.816
 1270POPC   D2A20764  39.956  28.369   8.387
 1270POPC   C3A20765  40.185  28.315   7.993
 1270POPC   C4A20766  40.201  27.962   7.715
 1270POPC   C1B20767  39.717  28.131   8.805
 1270POPC   C2B20768  39.643  27.976   8.357
 1270POPC   C3B20769  39.669  28.210   7.924
 1270POPC   C4B20770  39.657  28.105   7.479
 1271POPC   NC320771  20.227  36.732   9.426
 1271POPC   PO420772  19.686  37.039   9.620
 1271POPC   GL120773  19.904  37.057   9.209
 1271POPC   GL220774  19.784  36.732   9.170
 1271POPC   C1A20775  20.057  36.997   8.769
 1271POPC   D2A20776  19.879  36.833   8.421
 1271POPC   C3A20777  19.829  36.987   8.000
 1271POPC   C4A20778  19.874  37.312   7.715
 1271POPC   C1B20779  19.960  36.496   8.849
 1271POPC   C2B20780  19.846  36.338   8.441
 1271POPC   C3B20781  20.037  36.529   8.063
 1271POPC   C4B20782  20.246  36.578   7.679
 1272POPC   NC320783  40.334   5.196   9.679
 1272POPC   PO420784  40.921   5.044   9.789
 1272POPC   GL120785  40.759   5.173   9.348
 1272POPC   GL220786  40.539   5.426   9.245
 1272POPC   C1A20787  40.890   5.181   8.912
 1272POPC   D2A20788  40.727   5.051   8.504
 1272POPC   C3A20789  40.967   5.160   8.129
 1272POPC   C4A20790  40.863   5.122   7.687
 1272POPC   C1B20791  40.502   5.500   8.781
 1272POPC   C2B20792  40.730   5.560   8.401
 1272POPC   C3B20793  40.558   5.437   8.002
 1272POPC   C4B20794  40.333   5.194   7.710
 1273POPC   NC320795  36.820  30.085   9.459
 1273POPC   PO420796  37.270  29.620   9.601
 1273POPC   GL120797  36.934  29.597   9.255
 1273POPC   GL220798  37.094  29.857   9.069
 1273POPC   C1A20799  36.682  29.638   8.845
 1273POPC   D2A20800  36.869  29.848   8.481
 1273POPC   C3A20801  36.766  29.717   8.069
 1273POPC   C4A20802  36.632  29.910   7.690
 1273POPC   C1B20803  37.169  29.526   8.754
 1273POPC   C2B20804  37.390  29.608   8.395
 1273POPC   C3B20805  37.289  29.828   8.037
 1273POPC   C4B20806  37.116  29.744   7.655
 1274POPC   NC320807   3.181   0.744   9.330
 1274POPC   PO420808   2.960   0.101   9.454
 1274POPC   GL120809   2.853   0.244   8.997
 1274POPC   GL220810   2.800   0.586   9.036
 1274POPC   C1A20811   2.982   0.507   8.573
 1274POPC   D2A20812   2.941   0.629   8.153
 1274POPC   C3A20813   2.608   0.368   8.028
 1274POPC   C4A20814   2.489   0.145   7.675
 1274POPC   C1B20815   2.506   0.544   8.705
 1274POPC   C2B20816   2.462   0.814   8.337
 1274POPC   C3B20817   2.563   0.853   7.891
 1274POPC   C4B20818   2.604   0.615   7.529
 1275POPC   NC320819   3.074  38.275   9.635
 1275POPC   PO420820   3.725  38.499   9.522
 1275POPC   GL120821   3.678  38.413   9.139
 1275POPC   GL220822   3.322  38.430   9.177
 1275POPC   C1A20823   3.904  38.381   8.771
 1275POPC   D2A20824   3.729  38.317   8.375
 1275POPC   C3A20825   3.866  38.403   7.978
 1275POPC   C4A20826   3.461  38.435   7.861
 1275POPC   C1B20827   3.365  38.467   8.722
 1275POPC   C2B20828   3.256  38.722   8.335
 1275POPC   C3B20829   3.035  38.721   7.920
 1275POPC   C4B20830   3.220  38.680   7.491
 1276POPC   NC320831  44.831  21.811   9.409
 1276POPC   PO420832  44.443  22.395   9.474
 1276POPC   GL120833  44.384  22.060   9.220
 1276POPC   GL220834  44.698  22.157   9.049
 1276POPC   C1A20835  44.266  21.994   8.785
 1276POPC   D2A20836  44.624  21.927   8.518
 1276POPC   C3A20837  44.585  21.828   8.100
 1276POPC   C4A20838  44.537  22.100   7.742
 1276POPC   C1B20839   0.043  21.967   8.805
 1276POPC   C2B20840   0.147  21.878   8.404
 1276POPC   C3B20841   0.032  22.091   8.014
 1276POPC   C4B20842  44.856  22.489   7.826
 1277POPC   NC320843  16.566  29.301   9.719
 1277POPC   PO420844  16.825  29.903   9.584
 1277POPC   GL120845  16.598  30.055   9.211
 1277POPC   GL220846  16.421  29.768   9.092
 1277POPC   C1A20847  16.757  30.162   8.796
 1277POPC   D2A20848  16.670  30.266   8.406
 1277POPC   C3A20849  16.844  30.079   8.045
 1277POPC   C4A20850  16.603  29.951   7.712
 1277POPC   C1B20851  16.862  29.673   8.905
 1277POPC   C2B20852  16.910  29.787   8.475
 1277POPC   C3B20853  16.688  29.597   8.117
 1277POPC   C4B20854  16.770  29.473   7.714
 1278POPC   NC320855  44.837  42.445   9.584
 1278POPC   PO420856  44.194  42.260   9.486
 1278POPC   GL120857  44.547  42.359   9.156
 1278POPC   GL220858  44.966  42.367   9.116
 1278POPC   C1A20859  44.693  42.470   8.724
 1278POPC   D2A20860  44.761  42.681   8.380
 1278POPC   C3A20861  44.566  42.431   8.118
 1278POPC   C4A20862  44.664  42.254   7.762
 1278POPC   C1B20863   0.104  42.144   8.768
 1278POPC   C2B20864  44.980  42.187   8.362
 1278POPC   C3B20865   0.109  42.383   8.004
 1278POPC   C4B20866   0.152  42.197   7.638
 1279POPC   NC320867  10.051  16.861   9.641
 1279POPC   PO420868   9.436  16.490   9.632
 1279POPC   GL120869   9.716  16.621   9.291
 1279POPC   GL220870   9.979  16.374   9.174
 1279POPC   C1A20871   9.688  16.904   8.934
 1279POPC   D2A20872   9.781  16.932   8.495
 1279POPC   C3A20873   9.505  16.858   8.147
 1279POPC   C4A20874   9.735  16.892   7.768
 1279POPC   C1B20875   9.725  16.391   8.782
 1279POPC   C2B20876   9.564  16.377   8.346
 1279POPC   C3B20877   9.784  16.400   7.923
 1279POPC   C4B20878  10.158  16.489   7.644
 1280POPC   NC320879  27.618   7.689   9.510
 1280POPC   PO420880  27.865   7.051   9.504
 1280POPC   GL120881  27.746   7.278   9.104
 1280POPC   GL220882  27.464   7.483   9.075
 1280POPC   C1A20883  27.634   7.356   8.640
 1280POPC   D2A20884  27.571   7.336   8.230
 1280POPC   C3A20885  27.721   7.580   7.933
 1280POPC   C4A20886  27.490   7.363   7.672
 1280POPC   C1B20887  27.211   7.676   8.747
 1280POPC   C2B20888  27.335   7.794   8.358
 1280POPC   C3B20889  27.235   7.671   7.977
 1280POPC   C4B20890  27.281   7.815   7.570
 1281POPC   NC320891  43.320  13.903   9.496
 1281POPC   PO420892  42.770  13.491   9.531
 1281POPC   GL120893  43.043  13.543   9.230
 1281POPC   GL220894  42.912  13.858   9.125
 1281POPC   C1A20895  42.940  13.417   8.810
 1281POPC   D2A20896  42.901  13.662   8.508
 1281POPC   C3A20897  43.112  13.536   8.133
 1281POPC   C4A20898  43.194  13.568   7.713
 1281POPC   C1B20899  43.285  13.787   8.856
 1281POPC   C2B20900  43.398  13.848   8.434
 1281POPC   C3B20901  43.389  13.971   8.008
 1281POPC   C4B20902  43.429  14.015   7.576
 1282POPC   NC320903   9.566  33.343   9.481
 1282POPC   PO420904   9.885  32.770   9.558
 1282POPC   GL120905   9.699  32.999   9.154
 1282POPC   GL220906   9.915  33.321   9.102
 1282POPC   C1A20907   9.496  33.069   8.746
 1282POPC   D2A20908   9.666  33.133   8.333
 1282POPC   C3A20909   9.620  33.009   7.940
 1282POPC   C4A20910   9.248  32.919   7.752
 1282POPC   C1B20911  10.001  33.113   8.723
 1282POPC   C2B20912  10.159  33.232   8.327
 1282POPC   C3B20913  10.288  33.359   7.948
 1282POPC   C4B20914   9.999  33.270   7.647
 1283POPC   NC320915   4.130   8.557   9.532
 1283POPC   PO420916   4.751   8.317   9.520
 1283POPC   GL120917   4.394   8.194   9.216
 1283POPC   GL220918   4.195   7.874   9.127
 1283POPC   C1A20919   4.360   8.252   8.799
 1283POPC   D2A20920   4.428   8.101   8.378
 1283POPC   C3A20921   4.480   8.286   7.988
 1283POPC   C4A20922   4.239   8.601   7.761
 1283POPC   C1B20923   4.088   7.826   8.676
 1283POPC   C2B20924   4.062   7.816   8.198
 1283POPC   C3B20925   4.012   8.126   7.873
 1283POPC   C4B20926   3.746   8.372   7.624
 1284POPC   NC320927  22.169  10.785   9.548
 1284POPC   PO420928  22.415  11.270   9.305
 1284POPC   GL120929  22.068  10.919   9.060
 1284POPC   GL220930  22.117  10.538   9.112
 1284POPC   C1A20931  21.858  10.617   8.697
 1284POPC   D2A20932  22.031  10.241   8.513
 1284POPC   C3A20933  22.047  10.210   8.071
 1284POPC   C4A20934  21.888  10.471   7.782
 1284POPC   C1B20935  22.354  10.630   8.704
 1284POPC   C2B20936  22.236  10.659   8.239
 1284POPC   C3B20937  22.365  10.692   7.777
 1284POPC   C4B20938  22.499  10.713   7.318
 1285POPC   NC320939  42.249  25.014   9.589
 1285POPC   PO420940  42.735  25.459   9.489
 1285POPC   GL120941  42.396  25.335   9.208
 1285POPC   GL220942  42.600  25.094   9.037
 1285POPC   C1A20943  42.048  25.119   8.930
 1285POPC   D2A20944  41.938  25.016   8.464
 1285POPC   C3A20945  42.122  25.309   8.146
 1285POPC   C4A20946  42.256  25.233   7.706
 1285POPC   C1B20947  42.492  25.428   8.725
 1285POPC   C2B20948  42.566  25.492   8.295
 1285POPC   C3B20949  42.561  25.604   7.863
 1285POPC   C4B20950  42.547  25.527   7.378
 1286POPC   NC320951  17.759  27.112   9.438
 1286POPC   PO420952  17.881  26.497   9.397
 1286POPC   GL120953  18.031  26.701   9.047
 1286POPC   GL220954  18.420  26.665   9.045
 1286POPC   C1A20955  18.127  26.554   8.632
 1286POPC   D2A20956  18.013  26.696   8.237
 1286POPC   C3A20957  18.381  26.773   7.990
 1286POPC   C4A20958  18.714  26.815   7.693
 1286POPC   C1B20959  18.314  27.034   8.776
 1286POPC   C2B20960  18.194  27.180   8.379
 1286POPC   C3B20961  18.024  27.152   7.978
 1286POPC   C4B20962  18.204  27.055   7.609
 1287POPC   NC320963   4.893  12.625   9.528
 1287POPC   PO420964   5.251  13.185   9.456
 1287POPC   GL120965   5.343  13.008   9.076
 1287POPC   GL220966   5.293  12.669   9.134
 1287POPC   C1A20967   5.092  13.070   8.686
 1287POPC   D2A20968   5.255  13.136   8.319
 1287POPC   C3A20969   5.082  13.093   7.943
 1287POPC   C4A20970   5.447  12.919   7.810
 1287POPC   C1B20971   5.407  12.669   8.678
 1287POPC   C2B20972   5.381  12.584   8.247
 1287POPC   C3B20973   5.177  12.491   7.875
 1287POPC   C4B20974   5.178  12.223   7.532
 1288POPC   NC320975  26.001  44.305   9.645
 1288POPC   PO420976  26.510  44.651   9.492
 1288POPC   GL120977  26.331  44.470   9.131
 1288POPC   GL220978  25.965  44.549   9.114
 1288POPC   C1A20979  26.316  44.619   8.701
 1288POPC   D2A20980  26.354  44.500   8.286
 1288POPC   C3A20981  26.244  44.714   7.921
 1288POPC   C4A20982  26.057  44.484   7.598
 1288POPC   C1B20983  25.836  44.781   8.724
 1288POPC   C2B20984  25.898  44.913   8.291
 1288POPC   C3B20985  25.732  44.862   7.865
 1288POPC   C4B20986  25.631  44.705   7.431
 1289POPC   NC320987  38.266  23.610   9.446
 1289POPC   PO420988  38.679  24.152   9.536
 1289POPC   GL120989  38.585  23.861   9.118
 1289POPC   GL220990  38.224  23.738   8.969
 1289POPC   C1A20991  38.633  23.512   8.762
 1289POPC   D2A20992  38.764  23.430   8.311
 1289POPC   C3A20993  38.530  23.666   7.980
 1289POPC   C4A20994  38.532  23.682   7.497
 1289POPC   C1B20995  38.160  23.284   8.837
 1289POPC   C2B20996  38.345  23.121   8.470
 1289POPC   C3B20997  38.271  23.229   8.082
 1289POPC   C4B20998  37.982  23.359   7.807
 1290POPC   NC320999   7.770  40.527   9.489
 1290POPC   PO421000   7.372  41.076   9.452
 1290POPC   GL121001   7.405  40.856   9.067
 1290POPC   GL221002   7.746  40.919   9.124
 1290POPC   C1A21003   7.300  40.560   8.690
 1290POPC   D2A21004   7.335  40.336   8.240
 1290POPC   C3A21005   7.233  40.630   7.896
 1290POPC   C4A21006   7.298  40.680   7.423
 1290POPC   C1B21007   7.773  40.803   8.706
 1290POPC   C2B21008   7.574  40.784   8.306
 1290POPC   C3B21009   7.723  40.564   7.935
 1290POPC   C4B21010   7.690  40.925   7.684
 1291POPC   NC321011  11.773  40.905   9.414
 1291POPC   PO421012  12.195  40.498   9.594
 1291POPC   GL121013  12.217  40.726   9.174
 1291POPC   GL221014  11.928  40.823   8.943
 1291POPC   C1A21015  12.332  40.615   8.735
 1291POPC   D2A21016  12.072  40.641   8.368
 1291POPC   C3A21017  12.200  40.485   7.986
 1291POPC   C4A21018  12.299  40.642   7.571
 1291POPC   C1B21019  12.130  41.101   8.624
 1291POPC   C2B21020  12.100  41.155   8.181
 1291POPC   C3B21021  11.960  40.916   7.841
 1291POPC   C4B21022  11.805  40.897   7.406
 1292POPC   NC321023  40.408  23.738   9.356
 1292POPC   PO421024  41.033  23.576   9.467
 1292POPC   GL121025  41.109  23.589   9.056
 1292POPC   GL221026  40.762  23.642   9.006
 1292POPC   C1A21027  41.089  23.900   8.725
 1292POPC   D2A21028  40.942  23.810   8.330
 1292POPC   C3A21029  40.981  24.049   7.960
 1292POPC   C4A21030  40.973  23.839   7.548
 1292POPC   C1B21031  40.616  23.430   8.662
 1292POPC   C2B21032  40.667  23.391   8.262
 1292POPC   C3B21033  40.782  23.556   7.911
 1292POPC   C4B21034  40.719  23.345   7.525
 1293POPC   NC321035  17.076  24.608   9.762
 1293POPC   PO421036  16.628  24.197   9.699
 1293POPC   GL121037  16.625  24.502   9.295
 1293POPC   GL221038  16.858  24.771   9.252
 1293POPC   C1A21039  16.677  24.457   8.821
 1293POPC   D2A21040  16.479  24.426   8.421
 1293POPC   C3A21041  16.718  24.362   8.043
 1293POPC   C4A21042  16.452  24.513   7.732
 1293POPC   C1B21043  17.000  24.850   8.820
 1293POPC   C2B21044  16.937  24.663   8.412
 1293POPC   C3B21045  16.873  24.836   8.011
 1293POPC   C4B21046  16.790  24.840   7.567
 1294POPC   NC321047  14.549  22.581   9.353
 1294POPC   PO421048  14.563  23.233   9.555
 1294POPC   GL121049  14.667  23.071   9.178
 1294POPC   GL221050  14.311  23.040   9.143
 1294POPC   C1A21051  14.621  22.875   8.767
 1294POPC   D2A21052  14.709  23.076   8.401
 1294POPC   C3A21053  14.595  22.765   8.115
 1294POPC   C4A21054  14.564  22.543   7.732
 1294POPC   C1B21055  14.265  23.264   8.756
 1294POPC   C2B21056  14.203  23.081   8.344
 1294POPC   C3B21057  14.125  22.856   7.949
 1294POPC   C4B21058  14.297  22.966   7.587
 1295POPC   NC321059  19.229   1.322   9.469
 1295POPC   PO421060  18.862   0.746   9.514
 1295POPC   GL121061  18.938   0.780   9.075
 1295POPC   GL221062  19.252   0.951   9.102
 1295POPC   C1A21063  19.036   0.906   8.615
 1295POPC   D2A21064  19.236   1.314   8.428
 1295POPC   C3A21065  19.053   1.508   8.058
 1295POPC   C4A21066  18.993   1.290   7.659
 1295POPC   C1B21067  19.512   1.039   8.756
 1295POPC   C2B21068  19.533   0.902   8.323
 1295POPC   C3B21069  19.372   1.101   7.948
 1295POPC   C4B21070  19.425   1.030   7.529
 1296POPC   NC321071   9.359  17.771   9.335
 1296POPC   PO421072   9.703  17.236   9.661
 1296POPC   GL121073   9.806  17.334   9.223
 1296POPC   GL221074   9.899  17.689   9.219
 1296POPC   C1A21075   9.671  17.441   8.791
 1296POPC   D2A21076   9.447  17.318   8.420
 1296POPC   C3A21077   9.695  17.347   8.043
 1296POPC   C4A21078   9.675  17.374   7.591
 1296POPC   C1B21079  10.162  17.774   8.854
 1296POPC   C2B21080  10.208  17.603   8.456
 1296POPC   C3B21081  10.195  17.788   8.063
 1296POPC   C4B21082   9.941  17.801   7.737
 1297POPC   NC321083  27.307  38.064   9.933
 1297POPC   PO421084  27.742  38.181   9.594
 1297POPC   GL121085  27.728  38.348   9.156
 1297POPC   GL221086  27.436  38.201   8.991
 1297POPC   C1A21087  27.824  38.369   8.696
 1297POPC   D2A21088  27.678  38.206   8.288
 1297POPC   C3A21089  27.704  38.451   7.915
 1297POPC   C4A21090  27.373  38.372   7.628
 1297POPC   C1B21091  27.300  38.394   8.583
 1297POPC   C2B21092  27.240  38.503   8.126
 1297POPC   C3B21093  27.120  38.790   7.771
 1297POPC   C4B21094  26.876  38.740   7.391
 1298POPC   NC321095  40.369  30.495   9.315
 1298POPC   PO421096  41.036  30.340   9.320
 1298POPC   GL121097  40.876  30.680   9.044
 1298POPC   GL221098  40.632  30.930   9.175
 1298POPC   C1A21099  40.976  30.769   8.618
 1298POPC   D2A21100  41.187  30.586   8.309
 1298POPC   C3A21101  40.869  30.446   8.038
 1298POPC   C4A21102  40.579  30.549   7.744
 1298POPC   C1B21103  40.483  30.820   8.744
 1298POPC   C2B21104  40.463  30.706   8.315
 1298POPC   C3B21105  40.194  30.805   7.973
 1298POPC   C4B21106  40.346  30.963   7.579
 1299POPC   NC321107  20.672  29.410   9.924
 1299POPC   PO421108  20.401  29.913   9.539
 1299POPC   GL121109  20.684  29.966   9.192
 1299POPC   GL221110  20.723  29.621   9.120
 1299POPC   C1A21111  20.571  30.092   8.771
 1299POPC   D2A21112  20.461  29.853   8.400
 1299POPC   C3A21113  20.561  30.035   8.009
 1299POPC   C4A21114  20.448  29.893   7.607
 1299POPC   C1B21115  20.828  29.608   8.699
 1299POPC   C2B21116  20.916  29.689   8.266
 1299POPC   C3B21117  20.902  29.688   7.827
 1299POPC   C4B21118  20.821  29.634   7.397
 1300POPC   NC321119  23.105   4.532   9.720
 1300POPC   PO421120  22.802   3.866   9.683
 1300POPC   GL121121  22.866   4.180   9.374
 1300POPC   GL221122  23.236   4.162   9.307
 1300POPC   C1A21123  22.798   4.279   8.927
 1300POPC   D2A21124  22.973   4.348   8.490
 1300POPC   C3A21125  22.798   4.116   8.119
 1300POPC   C4A21126  22.808   4.272   7.718
 1300POPC   C1B21127  23.375   4.181   8.869
 1300POPC   C2B21128  23.509   4.311   8.453
 1300POPC   C3B21129  23.272   4.382   8.049
 1300POPC   C4B21130  23.259   4.031   7.766
 1301POPC   NC321131  32.783  44.483   9.649
 1301POPC   PO421132  33.280  44.940   9.492
 1301POPC   GL121133  33.132  44.683   9.173
 1301POPC   GL221134  32.763  44.711   9.187
 1301POPC   C1A21135  33.144  44.760   8.739
 1301POPC   D2A21136  33.358  44.760   8.347
 1301POPC   C3A21137  33.035  44.806   8.038
 1301POPC   C4A21138  32.976  44.523   7.693
 1301POPC   C1B21139  32.693  44.507   8.800
 1301POPC   C2B21140  32.879  44.440   8.394
 1301POPC   C3B21141  32.871  44.184   8.040
 1301POPC   C4B21142  32.647  44.139   7.660
 1302POPC   NC321143  42.555  21.788   9.524
 1302POPC   PO421144  42.089  21.338   9.753
 1302POPC   GL121145  42.268  21.462   9.254
 1302POPC   GL221146  42.575  21.588   9.049
 1302POPC   C1A21147  42.156  21.484   8.772
 1302POPC   D2A21148  42.391  21.423   8.388
 1302POPC   C3A21149  42.197  21.516   8.010
 1302POPC   C4A21150  41.995  21.355   7.649
 1302POPC   C1B21151  42.602  21.189   8.799
 1302POPC   C2B21152  42.598  20.941   8.379
 1302POPC   C3B21153  42.559  21.141   7.963
 1302POPC   C4B21154  42.775  21.503   7.862
 1303POPC   NC321155  20.938   5.646   9.472
 1303POPC   PO421156  20.299   6.067   9.486
 1303POPC   GL121157  20.535   5.787   9.207
 1303POPC   GL221158  20.280   5.628   9.056
 1303POPC   C1A21159  20.672   5.671   8.758
 1303POPC   D2A21160  20.612   5.419   8.368
 1303POPC   C3A21161  20.514   5.744   8.047
 1303POPC   C4A21162  20.800   6.041   7.842
 1303POPC   C1B21163  20.349   6.071   8.841
 1303POPC   C2B21164  20.277   6.270   8.447
 1303POPC   C3B21165  20.214   6.193   8.026
 1303POPC   C4B21166  20.319   6.014   7.630
 1304POPC   NC321167   8.898  36.740   9.645
 1304POPC   PO421168   9.269  37.157   9.223
 1304POPC   GL121169   8.906  36.808   9.137
 1304POPC   GL221170   9.028  36.484   8.944
 1304POPC   C1A21171   8.588  36.656   8.798
 1304POPC   D2A21172   8.766  36.514   8.373
 1304POPC   C3A21173   8.775  36.898   8.099
 1304POPC   C4A21174   8.722  36.985   7.649
 1304POPC   C1B21175   9.056  36.847   8.658
 1304POPC   C2B21176   9.328  37.130   8.479
 1304POPC   C3B21177   9.172  37.258   8.089
 1304POPC   C4B21178   9.218  37.019   7.721
 1305POPC   NC321179   6.448  19.781   9.543
 1305POPC   PO421180   6.930  19.479   9.538
 1305POPC   GL121181   6.801  19.800   9.172
 1305POPC   GL221182   6.511  20.040   9.081
 1305POPC   C1A21183   6.891  19.974   8.748
 1305POPC   D2A21184   7.162  19.943   8.408
 1305POPC   C3A21185   6.901  19.866   8.051
 1305POPC   C4A21186   6.702  20.127   7.770
 1305POPC   C1B21187   6.372  20.027   8.632
 1305POPC   C2B21188   6.385  20.132   8.181
 1305POPC   C3B21189   6.273  19.900   7.847
 1305POPC   C4B21190   6.533  19.545   7.826
 1306POPC   NC321191   5.614  16.167   9.492
 1306POPC   PO421192   5.903  15.537   9.545
 1306POPC   GL121193   5.850  15.668   9.123
 1306POPC   GL221194   5.828  16.020   9.058
 1306POPC   C1A21195   5.829  15.647   8.654
 1306POPC   D2A21196   5.800  15.923   8.294
 1306POPC   C3A21197   5.913  15.825   7.833
 1306POPC   C4A21198   5.741  15.906   7.396
 1306POPC   C1B21199   6.011  16.235   8.720
 1306POPC   C2B21200   5.915  16.433   8.371
 1306POPC   C3B21201   5.767  16.303   7.969
 1306POPC   C4B21202   6.006  16.304   7.606
 1307POPC   NC321203  40.749  36.752   9.778
 1307POPC   PO421204  40.373  37.301   9.746
 1307POPC   GL121205  40.484  37.020   9.349
 1307POPC   GL221206  40.850  36.885   9.287
 1307POPC   C1A21207  40.542  37.063   8.863
 1307POPC   D2A21208  40.824  37.051   8.459
 1307POPC   C3A21209  40.754  37.056   7.970
 1307POPC   C4A21210  40.852  37.063   7.510
 1307POPC   C1B21211  40.900  36.696   8.862
 1307POPC   C2B21212  40.770  36.524   8.456
 1307POPC   C3B21213  40.713  36.543   8.000
 1307POPC   C4B21214  40.955  36.584   7.643
 1308POPC   NC321215  37.509  11.417   9.787
 1308POPC   PO421216  38.149  11.372   9.541
 1308POPC   GL121217  37.792  11.352   9.214
 1308POPC   GL221218  37.508  11.171   9.345
 1308POPC   C1A21219  37.742  11.440   8.743
 1308POPC   D2A21220  37.852  11.364   8.300
 1308POPC   C3A21221  37.544  11.529   8.045
 1308POPC   C4A21222  37.404  11.428   7.614
 1308POPC   C1B21223  37.345  11.204   8.961
 1308POPC   C2B21224  37.337  11.150   8.536
 1308POPC   C3B21225  37.290  10.871   8.229
 1308POPC   C4B21226  37.495  11.016   7.894
 1309POPC   NC321227   4.392  22.358   9.635
 1309POPC   PO421228   3.799  22.196   9.599
 1309POPC   GL121229   4.092  22.041   9.291
 1309POPC   GL221230   3.918  22.225   9.028
 1309POPC   C1A21231   4.403  22.094   8.947
 1309POPC   D2A21232   4.308  22.154   8.492
 1309POPC   C3A21233   4.487  22.024   8.082
 1309POPC   C4A21234   4.622  22.161   7.693
 1309POPC   C1B21235   4.001  21.816   8.803
 1309POPC   C2B21236   4.135  21.687   8.390
 1309POPC   C3B21237   4.020  21.855   8.018
 1309POPC   C4B21238   4.113  22.156   7.672
 1310POPC   NC321239  24.872  44.002   9.507
 1310POPC   PO421240  25.546  44.228   9.578
 1310POPC   GL121241  25.301  44.013   9.238
 1310POPC   GL221242  25.101  43.707   9.142
 1310POPC   C1A21243  25.099  44.124   8.836
 1310POPC   D2A21244  24.947  44.125   8.413
 1310POPC   C3A21245  25.252  44.118   8.087
 1310POPC   C4A21246  25.298  43.916   7.686
 1310POPC   C1B21247  25.038  43.654   8.661
 1310POPC   C2B21248  25.089  43.646   8.195
 1310POPC   C3B21249  25.163  43.429   7.793
 1310POPC   C4B21250  25.002  43.458   7.362
 1311POPC   NC321251  23.983   1.115   9.559
 1311POPC   PO421252  23.398   1.525   9.505
 1311POPC   GL121253  23.736   1.327   9.162
 1311POPC   GL221254  23.796   1.005   9.100
 1311POPC   C1A21255  24.012   1.262   8.748
 1311POPC   D2A21256  23.961   1.033   8.380
 1311POPC   C3A21257  23.789   1.255   8.066
 1311POPC   C4A21258  23.678   1.267   7.666
 1311POPC   C1B21259  23.537   1.041   8.727
 1311POPC   C2B21260  23.346   1.088   8.309
 1311POPC   C3B21261  23.424   0.927   7.895
 1311POPC   C4B21262  23.561   0.796   7.436
 1312POPC   NC321263  18.969  29.792   9.607
 1312POPC   PO421264  19.117  30.456   9.607
 1312POPC   GL121265  18.994  30.195   9.127
 1312POPC   GL221266  18.900  29.829   9.124
 1312POPC   C1A21267  18.864  30.011   8.671
 1312POPC   D2A21268  18.890  29.707   8.317
 1312POPC   C3A21269  19.056  29.880   7.905
 1312POPC   C4A21270  19.043  30.095   7.489
 1312POPC   C1B21271  19.217  29.658   8.816
 1312POPC   C2B21272  19.399  29.679   8.406
 1312POPC   C3B21273  19.273  29.432   8.080
 1312POPC   C4B21274  19.204  29.448   7.675
 1313POPC   NC321275  40.204   9.466   9.490
 1313POPC   PO421276  39.855   9.979   9.505
 1313POPC   GL121277  39.958   9.792   9.123
 1313POPC   GL221278  40.303   9.898   9.123
 1313POPC   C1A21279  39.902   9.473   8.797
 1313POPC   D2A21280  40.154   9.326   8.435
 1313POPC   C3A21281  39.881   9.472   8.118
 1313POPC   C4A21282  39.917   9.756   7.818
 1313POPC   C1B21283  40.339   9.734   8.697
 1313POPC   C2B21284  40.245   9.817   8.245
 1313POPC   C3B21285  40.347   9.495   7.915
 1313POPC   C4B21286  40.251   9.428   7.486
 1314POPC   NC321287  39.037   5.912   9.422
 1314POPC   PO421288  39.539   6.284   9.722
 1314POPC   GL121289  39.515   6.069   9.248
 1314POPC   GL221290  39.667   5.741   9.284
 1314POPC   C1A21291  39.267   6.053   8.803
 1314POPC   D2A21292  38.966   5.967   8.444
 1314POPC   C3A21293  39.123   5.787   8.038
 1314POPC   C4A21294  39.160   5.978   7.600
 1314POPC   C1B21295  39.664   5.731   8.841
 1314POPC   C2B21296  39.520   5.443   8.511
 1314POPC   C3B21297  39.505   5.401   8.072
 1314POPC   C4B21298  39.464   5.569   7.668
 1315POPC   NC321299   3.049  20.121   9.398
 1315POPC   PO421300   2.635  19.596   9.534
 1315POPC   GL121301   2.598  19.872   9.224
 1315POPC   GL221302   2.891  19.699   9.097
 1315POPC   C1A21303   2.497  19.958   8.806
 1315POPC   D2A21304   2.706  19.813   8.448
 1315POPC   C3A21305   2.660  20.111   8.159
 1315POPC   C4A21306   2.372  20.167   7.831
 1315POPC   C1B21307   3.104  19.874   8.767
 1315POPC   C2B21308   3.250  19.727   8.380
 1315POPC   C3B21309   3.045  19.813   7.987
 1315POPC   C4B21310   2.900  19.759   7.539
 1316POPC   NC321311  35.575   5.883   9.431
 1316POPC   PO421312  34.915   5.717   9.449
 1316POPC   GL121313  35.142   5.741   9.081
 1316POPC   GL221314  35.208   6.106   9.163
 1316POPC   C1A21315  35.448   5.560   8.776
 1316POPC   D2A21316  35.612   5.697   8.384
 1316POPC   C3A21317  35.424   5.573   7.995
 1316POPC   C4A21318  35.565   5.704   7.590
 1316POPC   C1B21319  35.460   6.059   8.795
 1316POPC   C2B21320  35.399   6.165   8.387
 1316POPC   C3B21321  35.497   6.101   7.980
 1316POPC   C4B21322  35.174   5.987   7.745
 1317POPC   NC321323  42.627  27.469   9.443
 1317POPC   PO421324  41.998  27.198   9.319
 1317POPC   GL121325  42.238  27.482   9.095
 1317POPC   GL221326  42.303  27.844   9.233
 1317POPC   C1A21327  42.309  27.364   8.664
 1317POPC   D2A21328  42.644  27.227   8.408
 1317POPC   C3A21329  42.556  27.405   8.031
 1317POPC   C4A21330  42.129  27.497   7.919
 1317POPC   C1B21331  42.247  27.872   8.788
 1317POPC   C2B21332  42.429  27.804   8.387
 1317POPC   C3B21333  42.220  28.003   8.036
 1317POPC   C4B21334  42.065  28.114   7.648
 1318POPC   NC321335  22.329  27.857   9.653
 1318POPC   PO421336  22.414  27.249   9.483
 1318POPC   GL121337  22.122  27.553   9.242
 1318POPC   GL221338  22.073  27.937   9.217
 1318POPC   C1A21339  21.844  27.603   8.865
 1318POPC   D2A21340  21.842  27.372   8.465
 1318POPC   C3A21341  21.856  27.508   8.061
 1318POPC   C4A21342  22.161  27.666   7.791
 1318POPC   C1B21343  22.304  27.833   8.835
 1318POPC   C2B21344  22.287  27.931   8.384
 1318POPC   C3B21345  22.437  28.073   7.977
 1318POPC   C4B21346  22.448  27.962   7.509
 1319POPC   NC321347  28.695  43.753   9.377
 1319POPC   PO421348  28.040  44.039   9.348
 1319POPC   GL121349  28.243  44.017   8.948
 1319POPC   GL221350  28.618  44.092   8.972
 1319POPC   C1A21351  28.075  43.879   8.551
 1319POPC   D2A21352  27.936  43.702   8.145
 1319POPC   C3A21353  28.107  43.990   7.868
 1319POPC   C4A21354  28.543  44.081   7.855
 1319POPC   C1B21355  28.635  43.790   8.633
 1319POPC   C2B21356  28.803  43.703   8.198
 1319POPC   C3B21357  28.859  43.692   7.734
 1319POPC   C4B21358  28.847  43.737   7.287
 1320POPC   NC321359  10.340   8.154   9.546
 1320POPC   PO421360  10.938   7.837   9.291
 1320POPC   GL121361  10.547   8.004   9.115
 1320POPC   GL221362  10.181   7.840   9.179
 1320POPC   C1A21363  10.531   8.336   8.824
 1320POPC   D2A21364  10.329   8.538   8.504
 1320POPC   C3A21365  10.419   8.451   8.078
 1320POPC   C4A21366  10.566   8.176   7.738
 1320POPC   C1B21367  10.093   8.047   8.849
 1320POPC   C2B21368  10.305   8.006   8.474
 1320POPC   C3B21369  10.104   8.065   8.102
 1320POPC   C4B21370  10.077   8.302   7.711
 1321POPC   NC321371   2.279  31.193   9.489
 1321POPC   PO421372   2.786  31.659   9.523
 1321POPC   GL121373   2.905  31.488   9.098
 1321POPC   GL221374   3.161  31.764   9.088
 1321POPC   C1A21375   2.620  31.471   8.715
 1321POPC   D2A21376   2.457  31.278   8.326
 1321POPC   C3A21377   2.534  31.510   7.945
 1321POPC   C4A21378   2.481  31.435   7.491
 1321POPC   C1B21379   2.969  31.825   8.710
 1321POPC   C2B21380   2.914  31.639   8.295
 1321POPC   C3B21381   3.031  31.798   7.900
 1321POPC   C4B21382   3.135  32.072   7.519
 1322POPC   NC321383   6.422  41.898   9.561
 1322POPC   PO421384   6.828  42.398   9.518
 1322POPC   GL121385   6.628  42.365   9.144
 1322POPC   GL221386   6.318  42.315   9.272
 1322POPC   C1A21387   6.776  42.252   8.724
 1322POPC   D2A21388   6.941  42.017   8.328
 1322POPC   C3A21389   6.743  42.294   8.024
 1322POPC   C4A21390   6.615  42.593   7.690
 1322POPC   C1B21391   6.347  42.004   8.916
 1322POPC   C2B21392   6.452  41.898   8.500
 1322POPC   C3B21393   6.287  41.924   8.095
 1322POPC   C4B21394   6.441  42.050   7.699
 1323POPC   NC321395   3.874   1.778   9.846
 1323POPC   PO421396   3.366   1.421   9.572
 1323POPC   GL121397   3.337   1.614   9.139
 1323POPC   GL221398   3.386   1.958   9.234
 1323POPC   C1A21399   3.633   1.762   8.784
 1323POPC   D2A21400   3.748   2.179   8.637
 1323POPC   C3A21401   3.745   2.184   8.174
 1323POPC   C4A21402   3.838   2.295   7.747
 1323POPC   C1B21403   3.229   2.081   8.815
 1323POPC   C2B21404   3.343   1.954   8.386
 1323POPC   C3B21405   3.309   2.081   7.924
 1323POPC   C4B21406   3.141   2.051   7.500
 1324POPC   NC321407  14.058  30.807   9.305
 1324POPC   PO421408  14.640  30.408   9.443
 1324POPC   GL121409  14.477  30.512   9.073
 1324POPC   GL221410  14.548  30.873   9.059
 1324POPC   C1A21411  14.551  30.415   8.636
 1324POPC   D2A21412  14.736  30.719   8.357
 1324POPC   C3A21413  14.623  30.549   8.017
 1324POPC   C4A21414  14.604  30.297   7.686
 1324POPC   C1B21415  14.241  30.814   8.704
 1324POPC   C2B21416  14.234  30.700   8.302
 1324POPC   C3B21417  14.318  30.970   7.963
 1324POPC   C4B21418  14.322  30.873   7.518
 1325POPC   NC321419   6.304  34.736   9.526
 1325POPC   PO421420   6.971  34.529   9.499
 1325POPC   GL121421   6.683  34.701   9.189
 1325POPC   GL221422   6.463  34.442   9.124
 1325POPC   C1A21423   6.534  34.817   8.778
 1325POPC   D2A21424   6.656  34.923   8.363
 1325POPC   C3A21425   6.634  34.666   8.002
 1325POPC   C4A21426   6.927  34.671   7.712
 1325POPC   C1B21427   6.617  34.305   8.771
 1325POPC   C2B21428   6.811  34.375   8.399
 1325POPC   C3B21429   7.019  34.281   8.044
 1325POPC   C4B21430   6.944  34.107   7.671
 1326POPC   NC321431  37.934  27.868   9.512
 1326POPC   PO421432  38.597  27.647   9.441
 1326POPC   GL121433  38.283  27.709   9.200
 1326POPC   GL221434  38.184  28.037   9.104
 1326POPC   C1A21435  38.091  27.531   8.889
 1326POPC   D2A21436  38.345  27.461   8.545
 1326POPC   C3A21437  38.215  27.560   8.140
 1326POPC   C4A21438  38.070  27.605   7.723
 1326POPC   C1B21439  38.396  27.923   8.743
 1326POPC   C2B21440  38.609  27.851   8.326
 1326POPC   C3B21441  38.473  27.961   7.918
 1326POPC   C4B21442  38.384  27.954   7.505
 1327POPC   NC321443  27.240  30.952   9.449
 1327POPC   PO421444  27.719  30.529   9.463
 1327POPC   GL121445  27.553  30.657   9.126
 1327POPC   GL221446  27.729  30.931   9.110
 1327POPC   C1A21447  27.430  30.620   8.716
 1327POPC   D2A21448  27.659  30.578   8.357
 1327POPC   C3A21449  27.512  30.452   7.978
 1327POPC   C4A21450  27.356  30.578   7.598
 1327POPC   C1B21451  27.623  31.130   8.757
 1327POPC   C2B21452  27.405  31.054   8.383
 1327POPC   C3B21453  27.330  30.982   7.968
 1327POPC   C4B21454  27.700  30.927   7.786
 1328POPC   NC321455  10.067  19.300   9.693
 1328POPC   PO421456   9.544  18.917   9.708
 1328POPC   GL121457   9.599  19.090   9.208
 1328POPC   GL221458   9.962  19.158   9.167
 1328POPC   C1A21459   9.722  18.920   8.752
 1328POPC   D2A21460   9.840  18.993   8.281
 1328POPC   C3A21461   9.642  18.715   7.920
 1328POPC   C4A21462   9.573  18.782   7.433
 1328POPC   C1B21463  10.022  19.358   8.743
 1328POPC   C2B21464  10.239  19.487   8.343
 1328POPC   C3B21465  10.097  19.513   7.919
 1328POPC   C4B21466   9.811  19.177   7.774
 1329POPC   NC321467  35.746   7.513   9.584
 1329POPC   PO421468  35.154   7.229   9.473
 1329POPC   GL121469  35.456   7.374   9.185
 1329POPC   GL221470  35.215   7.568   9.077
 1329POPC   C1A21471  35.627   7.544   8.799
 1329POPC   D2A21472  35.444   7.563   8.393
 1329POPC   C3A21473  35.643   7.541   7.984
 1329POPC   C4A21474  35.426   7.449   7.562
 1329POPC   C1B21475  35.074   7.370   8.729
 1329POPC   C2B21476  35.147   7.064   8.411
 1329POPC   C3B21477  35.200   7.264   8.020
 1329POPC   C4B21478  34.923   7.371   7.670
 1330POPC   NC321479  42.600  25.915   9.448
 1330POPC   PO421480  41.953  26.215   9.497
 1330POPC   GL121481  42.178  25.979   9.137
 1330POPC   GL221482  42.531  25.951   8.957
 1330POPC   C1A21483  42.121  25.848   8.702
 1330POPC   D2A21484  42.439  25.976   8.418
 1330POPC   C3A21485  42.211  25.947   8.048
 1330POPC   C4A21486  42.187  25.810   7.619
 1330POPC   C1B21487  42.799  26.268   8.766
 1330POPC   C2B21488  42.915  26.240   8.342
 1330POPC   C3B21489  42.669  26.180   7.954
 1330POPC   C4B21490  42.709  26.460   7.605
 1331POPC   NC321491  40.533  29.624   9.844
 1331POPC   PO421492  40.640  30.304   9.639
 1331POPC   GL121493  40.581  30.052   9.252
 1331POPC   GL221494  40.460  29.737   9.359
 1331POPC   C1A21495  40.750  30.054   8.833
 1331POPC   D2A21496  40.694  30.246   8.468
 1331POPC   C3A21497  40.739  29.941   8.141
 1331POPC   C4A21498  40.721  30.048   7.718
 1331POPC   C1B21499  40.478  29.648   8.954
 1331POPC   C2B21500  40.389  29.812   8.549
 1331POPC   C3B21501  40.266  29.759   8.149
 1331POPC   C4B21502  40.465  29.602   7.805
 1332POPC   NC321503  18.087  10.814   9.384
 1332POPC   PO421504  18.245  11.562   9.503
 1332POPC   GL121505  18.388  11.488   9.063
 1332POPC   GL221506  18.219  11.154   9.030
 1332POPC   C1A21507  18.619  11.262   8.748
 1332POPC   D2A21508  18.499  11.263   8.331
 1332POPC   C3A21509  18.607  11.433   7.964
 1332POPC   C4A21510  18.412  11.266   7.641
 1332POPC   C1B21511  17.909  11.406   8.827
 1332POPC   C2B21512  17.850  11.468   8.391
 1332POPC   C3B21513  18.079  11.323   8.030
 1332POPC   C4B21514  17.919  11.390   7.627
 1333POPC   NC321515  22.646  11.654   9.415
 1333POPC   PO421516  22.152  12.125   9.627
 1333POPC   GL121517  22.160  12.003   9.164
 1333POPC   GL221518  22.460  11.995   8.939
 1333POPC   C1A21519  21.909  11.883   8.788
 1333POPC   D2A21520  21.784  12.041   8.351
 1333POPC   C3A21521  22.002  12.022   7.909
 1333POPC   C4A21522  22.043  12.125   7.448
 1333POPC   C1B21523  22.229  12.269   8.614
 1333POPC   C2B21524  22.161  12.427   8.183
 1333POPC   C3B21525  22.331  12.456   7.764
 1333POPC   C4B21526  22.360  12.488   7.270
 1334POPC   NC321527   6.200   7.362   9.553
 1334POPC   PO421528   5.787   7.830   9.525
 1334POPC   GL121529   5.959   7.626   9.156
 1334POPC   GL221530   5.830   7.287   9.152
 1334POPC   C1A21531   6.017   7.488   8.721
 1334POPC   D2A21532   6.077   7.363   8.305
 1334POPC   C3A21533   6.102   7.607   7.960
 1334POPC   C4A21534   6.067   7.359   7.578
 1334POPC   C1B21535   5.521   7.370   8.788
 1334POPC   C2B21536   5.565   7.381   8.350
 1334POPC   C3B21537   5.650   7.379   7.918
 1334POPC   C4B21538   5.566   7.297   7.488
 1335POPC   NC321539  44.191  10.617   9.681
 1335POPC   PO421540  43.577  10.479   9.794
 1335POPC   GL121541  43.820  10.440   9.363
 1335POPC   GL221542  44.181  10.468   9.198
 1335POPC   C1A21543  43.760  10.468   8.901
 1335POPC   D2A21544  43.575  10.324   8.504
 1335POPC   C3A21545  43.751  10.536   8.170
 1335POPC   C4A21546  43.709  10.520   7.753
 1335POPC   C1B21547  44.227  10.209   8.819
 1335POPC   C2B21548  44.095  10.219   8.381
 1335POPC   C3B21549  44.244  10.324   7.941
 1335POPC   C4B21550  44.530  10.232   7.570
 1336POPC   NC321551   4.857   2.501   9.644
 1336POPC   PO421552   5.260   2.969   9.333
 1336POPC   GL121553   5.190   2.659   9.077
 1336POPC   GL221554   4.833   2.597   9.112
 1336POPC   C1A21555   5.088   2.667   8.657
 1336POPC   D2A21556   4.993   2.694   8.259
 1336POPC   C3A21557   5.355   2.723   8.014
 1336POPC   C4A21558   5.375   2.788   7.584
 1336POPC   C1B21559   4.594   2.743   8.707
 1336POPC   C2B21560   4.628   3.054   8.371
 1336POPC   C3B21561   4.749   3.017   7.929
 1336POPC   C4B21562   4.920   2.639   7.751
 1337POPC   NC321563  35.804  18.868   9.465
 1337POPC   PO421564  36.494  19.125   9.489
 1337POPC   GL121565  36.272  18.986   9.074
 1337POPC   GL221566  35.969  18.771   9.005
 1337POPC   C1A21567  36.234  18.895   8.608
 1337POPC   D2A21568  36.232  18.637   8.225
 1337POPC   C3A21569  36.207  18.978   7.926
 1337POPC   C4A21570  36.287  19.385   7.685
 1337POPC   C1B21571  35.868  19.204   8.834
 1337POPC   C2B21572  35.966  19.363   8.424
 1337POPC   C3B21573  35.859  19.370   7.993
 1337POPC   C4B21574  35.682  19.087   7.734
 1338POPC   NC321575   3.019   9.927   9.642
 1338POPC   PO421576   2.872   9.297   9.640
 1338POPC   GL121577   2.876   9.602   9.232
 1338POPC   GL221578   3.041   9.965   9.150
 1338POPC   C1A21579   2.749   9.772   8.798
 1338POPC   D2A21580   2.896   9.871   8.390
 1338POPC   C3A21581   2.758   9.692   8.029
 1338POPC   C4A21582   2.422   9.715   7.733
 1338POPC   C1B21583   3.134  10.147   8.742
 1338POPC   C2B21584   3.277  10.178   8.286
 1338POPC   C3B21585   3.039  10.104   7.859
 1338POPC   C4B21586   3.201  10.041   7.421
 1339POPC   NC321587  36.379   7.222   9.306
 1339POPC   PO421588  36.145   7.714   9.702
 1339POPC   GL121589  36.042   7.571   9.189
 1339POPC   GL221590  36.307   7.606   8.968
 1339POPC   C1A21591  36.032   7.266   8.759
 1339POPC   D2A21592  35.984   7.460   8.384
 1339POPC   C3A21593  36.097   7.264   8.039
 1339POPC   C4A21594  36.066   7.307   7.604
 1339POPC   C1B21595  36.474   7.534   8.597
 1339POPC   C2B21596  36.440   7.654   8.188
 1339POPC   C3B21597  36.522   7.443   7.811
 1339POPC   C4B21598  36.484   7.017   7.801
 1340POPC   NC321599  18.502  32.808   9.506
 1340POPC   PO421600  18.000  33.238   9.435
 1340POPC   GL121601  18.272  33.117   9.090
 1340POPC   GL221602  18.147  32.777   9.100
 1340POPC   C1A21603  18.339  33.285   8.646
 1340POPC   D2A21604  18.487  33.421   8.224
 1340POPC   C3A21605  18.296  33.275   7.857
 1340POPC   C4A21606  18.261  33.002   7.484
 1340POPC   C1B21607  18.180  32.782   8.660
 1340POPC   C2B21608  18.242  32.907   8.229
 1340POPC   C3B21609  17.937  32.916   7.869
 1340POPC   C4B21610  17.848  32.706   7.440
 1341POPC   NC321611  41.406  29.274   9.504
 1341POPC   PO421612  41.639  28.662   9.445
 1341POPC   GL121613  41.582  28.959   9.115
 1341POPC   GL221614  41.760  29.270   9.127
 1341POPC   C1A21615  41.348  29.195   8.799
 1341POPC   D2A21616  41.190  29.295   8.379
 1341POPC   C3A21617  41.438  29.303   7.977
 1341POPC   C4A21618  41.761  28.994   7.829
 1341POPC   C1B21619  41.885  29.115   8.721
 1341POPC   C2B21620  41.789  29.228   8.328
 1341POPC   C3B21621  41.970  29.446   7.975
 1341POPC   C4B21622  41.866  29.425   7.572
 1342POPC   NC321623  12.274  26.306   9.575
 1342POPC   PO421624  12.943  26.145   9.434
 1342POPC   GL121625  12.770  26.101   9.040
 1342POPC   GL221626  12.610  26.418   9.092
 1342POPC   C1A21627  12.463  25.863   8.772
 1342POPC   D2A21628  12.284  25.715   8.369
 1342POPC   C3A21629  12.492  25.863   8.001
 1342POPC   C4A21630  12.820  25.765   7.709
 1342POPC   C1B21631  12.623  26.349   8.624
 1342POPC   C2B21632  12.794  26.008   8.411
 1342POPC   C3B21633  12.935  26.112   8.043
 1342POPC   C4B21634  12.710  26.261   7.708
 1343POPC   NC321635  25.848   9.848   9.708
 1343POPC   PO421636  26.084   9.365   9.586
 1343POPC   GL121637  26.171   9.652   9.233
 1343POPC   GL221638  26.446   9.501   9.060
 1343POPC   C1A21639  26.081   9.839   8.789
 1343POPC   D2A21640  25.937   9.890   8.350
 1343POPC   C3A21641  26.114   9.891   7.921
 1343POPC   C4A21642  25.966  10.032   7.503
 1343POPC   C1B21643  26.241   9.371   8.661
 1343POPC   C2B21644  26.307   9.533   8.243
 1343POPC   C3B21645  26.275   9.388   7.809
 1343POPC   C4B21646  26.254   9.346   7.345
 1344POPC   NC321647   2.469  20.989   9.356
 1344POPC   PO421648   2.675  20.400   9.341
 1344POPC   GL121649   3.002  20.457   9.016
 1344POPC   GL221650   3.198  20.799   9.013
 1344POPC   C1A21651   2.837  20.315   8.636
 1344POPC   D2A21652   2.695  20.592   8.368
 1344POPC   C3A21653   2.825  20.580   7.974
 1344POPC   C4A21654   2.913  20.238   7.743
 1344POPC   C1B21655   3.143  20.781   8.547
 1344POPC   C2B21656   2.868  21.042   8.204
 1344POPC   C3B21657   2.614  21.089   7.797
 1344POPC   C4B21658   2.330  21.090   7.401
 1345POPC   NC321659  35.922   8.084   9.539
 1345POPC   PO421660  36.477   7.892   9.322
 1345POPC   GL121661  36.134   8.083   9.089
 1345POPC   GL221662  35.752   7.973   9.057
 1345POPC   C1A21663  35.976   8.364   8.795
 1345POPC   D2A21664  36.029   8.452   8.364
 1345POPC   C3A21665  35.834   8.347   7.991
 1345POPC   C4A21666  36.157   8.256   7.689
 1345POPC   C1B21667  35.984   7.881   8.656
 1345POPC   C2B21668  36.008   7.936   8.213
 1345POPC   C3B21669  36.072   7.769   7.813
 1345POPC   C4B21670  36.314   7.724   7.443
 1346POPC   NC321671  33.640   6.319   9.462
 1346POPC   PO421672  34.172   6.584   9.697
 1346POPC   GL121673  33.879   6.678   9.221
 1346POPC   GL221674  34.121   6.875   9.112
 1346POPC   C1A21675  33.504   6.687   8.855
 1346POPC   D2A21676  33.495   6.453   8.415
 1346POPC   C3A21677  33.768   6.558   8.030
 1346POPC   C4A21678  33.691   6.733   7.624
 1346POPC   C1B21679  33.970   6.579   8.749
 1346POPC   C2B21680  34.105   6.443   8.387
 1346POPC   C3B21681  34.313   6.575   8.055
 1346POPC   C4B21682  34.187   6.577   7.639
 1347POPC   NC321683  18.439   5.342   9.569
 1347POPC   PO421684  18.372   4.639   9.700
 1347POPC   GL121685  18.277   4.789   9.241
 1347POPC   GL221686  18.139   5.157   9.191
 1347POPC   C1A21687  18.251   4.894   8.774
 1347POPC   D2A21688  18.479   4.830   8.360
 1347POPC   C3A21689  18.282   4.977   7.996
 1347POPC   C4A21690  18.004   4.758   7.715
 1347POPC   C1B21691  18.334   5.396   8.795
 1347POPC   C2B21692  18.487   5.357   8.337
 1347POPC   C3B21693  18.515   5.450   7.882
 1347POPC   C4B21694  18.356   5.547   7.414
 1348POPC   NC321695  16.957  36.577   9.314
 1348POPC   PO421696  16.336  36.653   9.435
 1348POPC   GL121697  16.504  36.781   9.047
 1348POPC   GL221698  16.792  37.032   9.038
 1348POPC   C1A21699  16.397  36.597   8.659
 1348POPC   D2A21700  16.622  36.598   8.274
 1348POPC   C3A21701  16.443  36.640   7.910
 1348POPC   C4A21702  16.448  36.819   7.531
 1348POPC   C1B21703  17.060  37.178   8.670
 1348POPC   C2B21704  17.047  36.951   8.260
 1348POPC   C3B21705  16.869  36.934   7.851
 1348POPC   C4B21706  17.074  37.139   7.465
 1349POPC   NC321707  44.392  20.073   9.531
 1349POPC   PO421708   0.150  20.027   9.450
 1349POPC   GL121709  44.808  20.028   9.173
 1349POPC   GL221710  44.585  20.331   9.131
 1349POPC   C1A21711  44.613  19.781   8.853
 1349POPC   D2A21712  44.507  19.770   8.412
 1349POPC   C3A21713  44.864  19.832   8.138
 1349POPC   C4A21714  44.773  19.677   7.753
 1349POPC   C1B21715  44.805  20.290   8.724
 1349POPC   C2B21716  44.637  20.264   8.306
 1349POPC   C3B21717  44.537  20.146   7.885
 1349POPC   C4B21718  44.764  20.104   7.497
 1350POPC   NC321719  12.140  21.689   9.950
 1350POPC   PO421720  11.900  22.231   9.623
 1350POPC   GL121721  12.035  22.183   9.195
 1350POPC   GL221722  11.890  21.920   9.120
 1350POPC   C1A21723  12.107  22.311   8.760
 1350POPC   D2A21724  11.879  22.372   8.349
 1350POPC   C3A21725  12.176  22.291   8.007
 1350POPC   C4A21726  12.190  22.123   7.582
 1350POPC   C1B21727  12.056  21.780   8.768
 1350POPC   C2B21728  12.168  21.949   8.396
 1350POPC   C3B21729  12.217  21.781   8.003
 1350POPC   C4B21730  11.997  21.660   7.667
 1351POPC   NC321731  44.953   0.443   9.471
 1351POPC   PO421732  44.411   0.041   9.725
 1351POPC   GL121733  44.482   0.215   9.259
 1351POPC   GL221734  44.833   0.203   9.031
 1351POPC   C1A21735  44.422   0.355   8.830
 1351POPC   D2A21736  44.645   0.319   8.490
 1351POPC   C3A21737  44.445   0.460   8.158
 1351POPC   C4A21738  44.541   0.394   7.695
 1351POPC   C1B21739  44.949   0.575   8.799
 1351POPC   C2B21740   0.065   0.574   8.387
 1351POPC   C3B21741  44.926   0.514   8.022
 1351POPC   C4B21742   0.006   0.669   7.634
 1352POPC   NC321743  18.517  11.210   9.450
 1352POPC   PO421744  19.184  11.218   9.501
 1352POPC   GL121745  18.966  11.173   9.154
 1352POPC   GL221746  18.956  11.511   9.066
 1352POPC   C1A21747  19.126  11.051   8.773
 1352POPC   D2A21748  18.902  10.954   8.392
 1352POPC   C3A21749  18.985  11.066   7.962
 1352POPC   C4A21750  18.902  11.193   7.539
 1352POPC   C1B21751  19.027  11.514   8.607
 1352POPC   C2B21752  19.235  11.429   8.240
 1352POPC   C3B21753  19.097  11.549   7.830
 1352POPC   C4B21754  19.203  11.580   7.379
 1353POPC   NC321755   6.975  41.097   9.695
 1353POPC   PO421756   6.632  40.490   9.518
 1353POPC   GL121757   6.361  40.668   9.191
 1353POPC   GL221758   6.541  40.940   9.081
 1353POPC   C1A21759   6.380  40.542   8.774
 1353POPC   D2A21760   6.415  40.635   8.339
 1353POPC   C3A21761   6.768  40.730   8.077
 1353POPC   C4A21762   6.557  40.680   7.701
 1353POPC   C1B21763   6.814  40.815   8.693
 1353POPC   C2B21764   7.106  41.042   8.430
 1353POPC   C3B21765   7.055  41.200   8.021
 1353POPC   C4B21766   6.958  40.971   7.638
 1354POPC   NC321767  18.844   3.150   9.606
 1354POPC   PO421768  18.742   2.560   9.347
 1354POPC   GL121769  18.855   2.897   9.101
 1354POPC   GL221770  19.206   2.845   9.152
 1354POPC   C1A21771  18.974   2.922   8.656
 1354POPC   D2A21772  19.224   2.579   8.484
 1354POPC   C3A21773  19.223   2.475   8.047
 1354POPC   C4A21774  18.944   2.639   7.710
 1354POPC   C1B21775  19.415   3.117   8.850
 1354POPC   C2B21776  19.422   3.084   8.412
 1354POPC   C3B21777  19.173   2.987   8.053
 1354POPC   C4B21778  19.257   3.230   7.697
 1355POPC   NC321779  11.354  23.864   9.431
 1355POPC   PO421780  11.144  23.286   9.491
 1355POPC   GL121781  11.260  23.515   9.079
 1355POPC   GL221782  10.974  23.736   9.053
 1355POPC   C1A21783  11.401  23.888   8.766
 1355POPC   D2A21784  11.278  24.073   8.319
 1355POPC   C3A21785  11.382  23.877   7.929
 1355POPC   C4A21786  11.483  23.413   7.884
 1355POPC   C1B21787  10.915  23.848   8.611
 1355POPC   C2B21788  11.013  23.640   8.196
 1355POPC   C3B21789  11.003  23.607   7.735
 1355POPC   C4B21790  10.908  23.613   7.271
 1356POPC   NC321791  13.072  26.637   9.454
 1356POPC   PO421792  12.586  27.090   9.533
 1356POPC   GL121793  12.710  26.914   9.161
 1356POPC   GL221794  13.025  26.907   9.035
 1356POPC   C1A21795  12.602  26.899   8.751
 1356POPC   D2A21796  12.844  26.912   8.410
 1356POPC   C3A21797  12.637  26.850   8.042
 1356POPC   C4A21798  12.705  26.766   7.624
 1356POPC   C1B21799  13.045  26.544   8.796
 1356POPC   C2B21800  13.104  26.475   8.375
 1356POPC   C3B21801  13.112  26.590   7.933
 1356POPC   C4B21802  13.178  26.389   7.529
 1357POPC   NC321803   0.641  29.807   9.593
 1357POPC   PO421804   0.137  30.227   9.418
 1357POPC   GL121805   0.274  29.931   9.119
 1357POPC   GL221806   0.570  30.071   9.179
 1357POPC   C1A21807   0.403  29.733   8.696
 1357POPC   D2A21808   0.166  29.793   8.281
 1357POPC   C3A21809   0.234  29.932   7.824
 1357POPC   C4A21810   0.106  30.148   7.439
 1357POPC   C1B21811   0.682  30.163   8.816
 1357POPC   C2B21812   0.492  30.178   8.435
 1357POPC   C3B21813   0.661  29.975   8.086
 1357POPC   C4B21814   0.750  30.042   7.673
 1358POPC   NC321815  33.510  14.193   9.527
 1358POPC   PO421816  33.040  14.664   9.441
 1358POPC   GL121817  33.289  14.500   9.118
 1358POPC   GL221818  33.147  14.179   9.150
 1358POPC   C1A21819  33.251  14.411   8.655
 1358POPC   D2A21820  33.102  14.671   8.302
 1358POPC   C3A21821  32.987  14.461   7.933
 1358POPC   C4A21822  32.981  14.515   7.497
 1358POPC   C1B21823  32.794  14.274   8.863
 1358POPC   C2B21824  32.793  14.246   8.388
 1358POPC   C3B21825  32.487  14.401   8.080
 1358POPC   C4B21826  32.487  14.613   7.671
 1359POPC   NC321827  43.252  40.367   9.844
 1359POPC   PO421828  43.394  39.828   9.815
 1359POPC   GL121829  43.367  39.960   9.358
 1359POPC   GL221830  43.360  40.316   9.250
 1359POPC   C1A21831  43.265  39.929   8.882
 1359POPC   D2A21832  43.079  40.079   8.450
 1359POPC   C3A21833  43.247  40.013   8.015
 1359POPC   C4A21834  43.600  39.785   7.806
 1359POPC   C1B21835  43.019  40.385   8.912
 1359POPC   C2B21836  42.844  40.529   8.488
 1359POPC   C3B21837  42.787  40.361   8.041
 1359POPC   C4B21838  42.795  40.027   7.719
 1360POPC   NC321839  14.234  11.467   9.365
 1360POPC   PO421840  14.572  10.969   9.543
 1360POPC   GL121841  14.589  11.167   9.168
 1360POPC   GL221842  14.295  11.093   8.995
 1360POPC   C1A21843  14.657  11.393   8.795
 1360POPC   D2A21844  14.588  11.276   8.376
 1360POPC   C3A21845  14.747  11.469   7.986
 1360POPC   C4A21846  14.735  11.162   7.654
 1360POPC   C1B21847  14.160  11.416   8.679
 1360POPC   C2B21848  14.050  11.250   8.284
 1360POPC   C3B21849  14.315  11.202   7.951
 1360POPC   C4B21850  14.304  11.401   7.566
 1361POPC   NC321851  43.979  41.878   9.600
 1361POPC   PO421852  43.904  41.227   9.472
 1361POPC   GL121853  44.058  41.525   9.155
 1361POPC   GL221854  44.280  41.817   9.206
 1361POPC   C1A21855  43.893  41.547   8.727
 1361POPC   D2A21856  43.660  41.678   8.377
 1361POPC   C3A21857  43.798  41.498   8.003
 1361POPC   C4A21858  43.735  41.123   7.747
 1361POPC   C1B21859  44.139  41.966   8.843
 1361POPC   C2B21860  43.998  42.042   8.454
 1361POPC   C3B21861  44.143  42.103   8.050
 1361POPC   C4B21862  44.128  41.812   7.727
 1362POPC   NC321863  17.225   1.950   9.564
 1362POPC   PO421864  17.895   2.110   9.484
 1362POPC   GL121865  17.637   1.973   9.189
 1362POPC   GL221866  17.327   2.189   9.135
 1362POPC   C1A21867  17.769   2.044   8.775
 1362POPC   D2A21868  17.578   1.931   8.413
 1362POPC   C3A21869  17.615   2.073   8.005
 1362POPC   C4A21870  17.549   1.836   7.666
 1362POPC   C1B21871  17.267   1.825   8.854
 1362POPC   C2B21872  17.084   1.837   8.437
 1362POPC   C3B21873  17.208   1.748   8.037
 1362POPC   C4B21874  17.046   1.814   7.595
 1363POPC   NC321875  34.366  36.946  10.143
 1363POPC   PO421876  34.381  37.025   9.682
 1363POPC   GL121877  34.523  37.107   9.222
 1363POPC   GL221878  34.814  36.907   9.128
 1363POPC   C1A21879  34.484  37.053   8.741
 1363POPC   D2A21880  34.729  37.095   8.332
 1363POPC   C3A21881  34.603  36.888   7.901
 1363POPC   C4A21882  34.490  36.552   7.566
 1363POPC   C1B21883  34.910  36.757   8.695
 1363POPC   C2B21884  34.828  36.574   8.270
 1363POPC   C3B21885  34.930  36.496   7.822
 1363POPC   C4B21886  34.931  36.297   7.398
 1364POPC   NC321887  39.001  42.985   9.760
 1364POPC   PO421888  39.387  43.499   9.698
 1364POPC   GL121889  39.304  43.321   9.255
 1364POPC   GL221890  39.142  43.022   9.267
 1364POPC   C1A21891  39.345  43.216   8.798
 1364POPC   D2A21892  39.565  43.047   8.444
 1364POPC   C3A21893  39.369  43.033   8.057
 1364POPC   C4A21894  39.405  43.280   7.670
 1364POPC   C1B21895  38.898  42.963   8.913
 1364POPC   C2B21896  39.051  42.900   8.486
 1364POPC   C3B21897  38.861  42.848   8.122
 1364POPC   C4B21898  39.022  42.856   7.735
 1365POPC   NC321899  14.559  20.886   9.871
 1365POPC   PO421900  14.289  21.466   9.735
 1365POPC   GL121901  14.404  21.499   9.244
 1365POPC   GL221902  14.622  21.241   9.030
 1365POPC   C1A21903  14.343  21.544   8.767
 1365POPC   D2A21904  14.525  21.270   8.464
 1365POPC   C3A21905  14.319  21.387   8.097
 1365POPC   C4A21906  14.471  21.590   7.726
 1365POPC   C1B21907  14.227  21.049   8.826
 1365POPC   C2B21908  14.034  21.030   8.397
 1365POPC   C3B21909  14.122  20.946   7.916
 1365POPC   C4B21910  14.551  21.092   7.741
 1366POPC   NC321911  27.131  27.185   9.467
 1366POPC   PO421912  27.475  27.866   9.650
 1366POPC   GL121913  27.583  27.750   9.215
 1366POPC   GL221914  27.600  27.445   9.169
 1366POPC   C1A21915  27.401  27.666   8.755
 1366POPC   D2A21916  27.584  27.537   8.353
 1366POPC   C3A21917  27.387  27.474   7.955
 1366POPC   C4A21918  27.426  27.832   7.700
 1366POPC   C1B21919  27.887  27.484   8.775
 1366POPC   C2B21920  28.018  27.301   8.337
 1366POPC   C3B21921  27.913  27.419   7.886
 1366POPC   C4B21922  28.038  27.194   7.485
 1367POPC   NC321923  21.206  29.761   9.296
 1367POPC   PO421924  21.583  30.270   9.502
 1367POPC   GL121925  21.519  30.264   9.070
 1367POPC   GL221926  21.170  30.262   9.135
 1367POPC   C1A21927  21.588  30.004   8.715
 1367POPC   D2A21928  21.384  29.877   8.342
 1367POPC   C3A21929  21.518  29.931   7.915
 1367POPC   C4A21930  21.308  29.785   7.540
 1367POPC   C1B21931  21.079  30.065   8.741
 1367POPC   C2B21932  20.899  30.187   8.382
 1367POPC   C3B21933  21.058  30.156   7.990
 1367POPC   C4B21934  20.900  30.159   7.588
 1368POPC   NC321935  30.132  12.083   9.399
 1368POPC   PO421936  29.444  12.064   9.648
 1368POPC   GL121937  29.646  12.128   9.227
 1368POPC   GL221938  29.697  11.751   9.201
 1368POPC   C1A21939  29.903  12.375   8.833
 1368POPC   D2A21940  30.194  12.422   8.422
 1368POPC   C3A21941  30.073  12.230   7.985
 1368POPC   C4A21942  30.069  11.993   7.568
 1368POPC   C1B21943  29.728  11.900   8.769
 1368POPC   C2B21944  29.895  11.909   8.354
 1368POPC   C3B21945  29.751  11.818   7.942
 1368POPC   C4B21946  29.564  11.823   7.528
 1369POPC   NC321947   7.369  22.880   9.580
 1369POPC   PO421948   7.364  23.517   9.552
 1369POPC   GL121949   7.498  23.216   9.192
 1369POPC   GL221950   7.601  22.860   9.134
 1369POPC   C1A21951   7.397  23.161   8.743
 1369POPC   D2A21952   7.190  23.218   8.328
 1369POPC   C3A21953   7.434  23.247   7.927
 1369POPC   C4A21954   7.314  23.143   7.487
 1369POPC   C1B21955   7.598  22.688   8.708
 1369POPC   C2B21956   7.498  22.772   8.277
 1369POPC   C3B21957   7.488  22.749   7.819
 1369POPC   C4B21958   7.524  22.620   7.365
 1370POPC   NC321959   9.199  44.394   9.547
 1370POPC   PO421960   8.689  44.881   9.568
 1370POPC   GL121961   8.844  44.596   9.199
 1370POPC   GL221962   9.223  44.620   9.106
 1370POPC   C1A21963   8.877  44.656   8.743
 1370POPC   D2A21964   9.139  44.874   8.466
 1370POPC   C3A21965   8.890  44.968   8.119
 1370POPC   C4A21966   9.000   0.012   7.703
 1370POPC   C1B21967   9.268  44.337   8.758
 1370POPC   C2B21968   9.300  44.399   8.344
 1370POPC   C3B21969   9.067  44.484   8.013
 1370POPC   C4B21970   9.249  44.373   7.661
 1371POPC   NC321971  28.811  18.038   9.416
 1371POPC   PO421972  29.250  18.512   9.574
 1371POPC   GL121973  29.069  18.433   9.165
 1371POPC   GL221974  29.276  18.145   9.184
 1371POPC   C1A21975  29.049  18.233   8.735
 1371POPC   D2A21976  29.146  18.417   8.334
 1371POPC   C3A21977  28.965  18.460   7.927
 1371POPC   C4A21978  28.896  18.119   7.708
 1371POPC   C1B21979  29.469  17.958   8.837
 1371POPC   C2B21980  29.379  17.925   8.411
 1371POPC   C3B21981  29.329  18.023   7.978
 1371POPC   C4B21982  29.565  18.117   7.556
 1372POPC   NC321983  21.184   9.247   9.493
 1372POPC   PO421984  21.668   8.740   9.639
 1372POPC   GL121985  21.476   8.866   9.259
 1372POPC   GL221986  21.140   8.766   9.280
 1372POPC   C1A21987  21.470   9.132   8.869
 1372POPC   D2A21988  21.579   9.268   8.434
 1372POPC   C3A21989  21.621   8.991   8.075
 1372POPC   C4A21990  21.727   9.074   7.646
 1372POPC   C1B21991  21.073   8.814   8.848
 1372POPC   C2B21992  21.318   8.721   8.485
 1372POPC   C3B21993  21.154   8.751   8.102
 1372POPC   C4B21994  21.177   9.086   7.844
 1373POPC   NC321995  41.260  28.287   9.444
 1373POPC   PO421996  41.873  27.958   9.497
 1373POPC   GL121997  41.785  28.247   9.151
 1373POPC   GL221998  41.485  28.412   9.017
 1373POPC   C1A21999  41.789  28.115   8.719
 1373POPC   D2A22000  41.734  28.209   8.300
 1373POPC   C3A22001  41.347  28.111   8.076
 1373POPC   C4A22002  41.452  28.152   7.607
 1373POPC   C1B22003  41.458  28.693   8.696
 1373POPC   C2B22004  41.331  28.614   8.292
 1373POPC   C3B22005  41.521  28.555   7.898
 1373POPC   C4B22006  41.483  28.673   7.457
 1374POPC   NC322007  11.533  31.278   9.391
 1374POPC   PO422008  11.093  31.730   9.325
 1374POPC   GL122009  11.220  31.491   9.025
 1374POPC   GL222010  11.059  31.196   9.138
 1374POPC   C1A22011  11.591  31.488   8.766
 1374POPC   D2A22012  11.575  31.713   8.398
 1374POPC   C3A22013  11.650  31.526   8.034
 1374POPC   C4A22014  11.487  31.496   7.671
 1374POPC   C1B22015  11.260  31.059   8.757
 1374POPC   C2B22016  11.381  31.227   8.372
 1374POPC   C3B22017  11.181  31.285   8.018
 1374POPC   C4B22018  11.118  31.068   7.678
 1375POPC   NC322019  16.849   6.855   9.550
 1375POPC   PO422020  16.479   6.423   9.275
 1375POPC   GL122021  16.798   6.424   9.028
 1375POPC   GL222022  16.815   6.773   9.022
 1375POPC   C1A22023  16.985   6.543   8.597
 1375POPC   D2A22024  16.671   6.828   8.397
 1375POPC   C3A22025  16.524   6.784   7.990
 1375POPC   C4A22026  16.662   6.521   7.677
 1375POPC   C1B22027  17.004   7.056   8.716
 1375POPC   C2B22028  17.001   7.194   8.252
 1375POPC   C3B22029  17.017   6.905   7.889
 1375POPC   C4B22030  17.119   6.945   7.459
 1376POPC   NC322031  28.777  28.373   9.594
 1376POPC   PO422032  29.330  28.795   9.632
 1376POPC   GL122033  29.139  28.583   9.211
 1376POPC   GL222034  29.044  28.210   9.135
 1376POPC   C1A22035  29.005  28.496   8.734
 1376POPC   D2A22036  28.834  28.435   8.316
 1376POPC   C3A22037  29.120  28.310   7.981
 1376POPC   C4A22038  29.139  28.369   7.554
 1376POPC   C1B22039  28.712  28.086   8.792
 1376POPC   C2B22040  28.665  27.926   8.350
 1376POPC   C3B22041  28.775  27.941   7.911
 1376POPC   C4B22042  29.047  27.868   7.567
 1377POPC   NC322043  26.309   6.652   9.217
 1377POPC   PO422044  25.954   6.170   9.530
 1377POPC   GL122045  25.942   6.311   9.086
 1377POPC   GL222046  25.800   6.642   9.150
 1377POPC   C1A22047  26.114   6.440   8.622
 1377POPC   D2A22048  26.235   6.766   8.266
 1377POPC   C3A22049  26.248   6.623   7.839
 1377POPC   C4A22050  26.392   6.228   7.781
 1377POPC   C1B22051  25.863   6.853   8.763
 1377POPC   C2B22052  25.735   6.766   8.379
 1377POPC   C3B22053  25.752   6.764   7.951
 1377POPC   C4B22054  25.705   6.626   7.534
 1378POPC   NC322055  27.124  28.086   9.351
 1378POPC   PO422056  26.595  28.480   9.441
 1378POPC   GL122057  26.667  28.229   9.112
 1378POPC   GL222058  26.335  28.177   9.069
 1378POPC   C1A22059  26.817  28.230   8.676
 1378POPC   D2A22060  26.898  28.574   8.348
 1378POPC   C3A22061  27.022  28.523   7.890
 1378POPC   C4A22062  27.066  28.667   7.458
 1378POPC   C1B22063  26.369  27.976   8.694
 1378POPC   C2B22064  26.317  28.217   8.312
 1378POPC   C3B22065  26.514  28.456   8.014
 1378POPC   C4B22066  26.652  28.319   7.589
 1379POPC   NC322067  42.359  32.665   9.416
 1379POPC   PO422068  42.155  33.286   9.578
 1379POPC   GL122069  42.198  33.096   9.163
 1379POPC   GL222070  42.562  32.980   9.081
 1379POPC   C1A22071  42.225  32.985   8.708
 1379POPC   D2A22072  42.494  33.008   8.337
 1379POPC   C3A22073  42.288  33.114   7.950
 1379POPC   C4A22074  42.210  32.902   7.565
 1379POPC   C1B22075  42.711  32.724   8.715
 1379POPC   C2B22076  42.732  32.556   8.274
 1379POPC   C3B22077  42.607  32.705   7.846
 1379POPC   C4B22078  42.685  32.724   7.381
 1380POPC   NC322079  11.881  43.529   9.472
 1380POPC   PO422080  12.072  42.864   9.447
 1380POPC   GL122081  12.058  43.156   9.126
 1380POPC   GL222082  11.715  43.114   9.033
 1380POPC   C1A22083  12.164  43.111   8.692
 1380POPC   D2A22084  11.975  43.124   8.276
 1380POPC   C3A22085  12.222  43.139   7.890
 1380POPC   C4A22086  12.351  43.372   7.517
 1380POPC   C1B22087  11.555  42.906   8.637
 1380POPC   C2B22088  11.562  42.850   8.168
 1380POPC   C3B22089  11.744  42.957   7.752
 1380POPC   C4B22090  11.730  42.688   7.363
 1381POPC   NC322091  33.894   2.018   9.451
 1381POPC   PO422092  33.277   1.643   9.453
 1381POPC   GL122093  33.588   1.752   9.131
 1381POPC   GL222094  33.623   2.138   9.054
 1381POPC   C1A22095  33.880   1.830   8.776
 1381POPC   D2A22096  34.072   2.052   8.448
 1381POPC   C3A22097  33.881   1.974   8.066
 1381POPC   C4A22098  33.988   1.957   7.622
 1381POPC   C1B22099  33.800   2.404   8.704
 1381POPC   C2B22100  34.071   2.570   8.374
 1381POPC   C3B22101  34.169   2.404   7.963
 1381POPC   C4B22102  34.093   2.452   7.511
 1382POPC   NC322103  15.153   7.749   9.594
 1382POPC   PO422104  15.510   7.183   9.712
 1382POPC   GL122105  15.368   7.377   9.314
 1382POPC   GL222106  15.027   7.303   9.225
 1382POPC   C1A22107  15.390   7.364   8.867
 1382POPC   D2A22108  15.209   7.293   8.482
 1382POPC   C3A22109  15.462   7.467   8.207
 1382POPC   C4A22110  15.418   7.497   7.795
 1382POPC   C1B22111  15.000   7.680   8.932
 1382POPC   C2B22112  14.899   7.703   8.507
 1382POPC   C3B22113  15.007   7.665   8.082
 1382POPC   C4B22114  14.984   7.805   7.659
 1383POPC   NC322115  15.084  19.056   9.622
 1383POPC   PO422116  15.280  18.581   9.231
 1383POPC   GL122117  15.070  18.982   9.108
 1383POPC   GL222118  15.380  19.164   9.176
 1383POPC   C1A22119  14.931  19.023   8.682
 1383POPC   D2A22120  15.130  18.763   8.368
 1383POPC   C3A22121  15.061  18.907   7.964
 1383POPC   C4A22122  14.781  19.223   7.958
 1383POPC   C1B22123  15.422  19.159   8.707
 1383POPC   C2B22124  15.220  19.294   8.293
 1383POPC   C3B22125  15.427  19.329   7.887
 1383POPC   C4B22126  15.570  19.227   7.482
 1384POPC   NC322127  26.167  28.332   9.516
 1384POPC   PO422128  25.529  28.145   9.406
 1384POPC   GL122129  25.817  28.229   9.115
 1384POPC   GL222130  25.932  28.571   9.112
 1384POPC   C1A22131  25.979  28.295   8.701
 1384POPC   D2A22132  25.930  28.597   8.379
 1384POPC   C3A22133  25.881  28.383   7.993
 1384POPC   C4A22134  26.163  28.461   7.659
 1384POPC   C1B22135  25.600  28.619   8.810
 1384POPC   C2B22136  25.442  28.760   8.418
 1384POPC   C3B22137  25.603  28.826   8.013
 1384POPC   C4B22138  25.707  28.695   7.606
 1385POPC   NC322139  20.008  23.294   9.538
 1385POPC   PO422140  19.904  22.663   9.641
 1385POPC   GL122141  19.858  22.684   9.197
 1385POPC   GL222142  20.083  22.922   9.189
 1385POPC   C1A22143  19.772  22.782   8.727
 1385POPC   D2A22144  19.612  22.722   8.284
 1385POPC   C3A22145  19.800  22.817   7.881
 1385POPC   C4A22146  19.615  22.985   7.483
 1385POPC   C1B22147  20.187  23.067   8.779
 1385POPC   C2B22148  20.152  22.925   8.353
 1385POPC   C3B22149  20.249  23.079   7.959
 1385POPC   C4B22150  20.122  23.045   7.553
 1386POPC   NC322151  18.857   0.284   9.408
 1386POPC   PO422152  18.231   0.218   9.684
 1386POPC   GL122153  18.307   0.463   9.292
 1386POPC   GL222154  18.006   0.708   9.278
 1386POPC   C1A22155  18.382   0.580   8.848
 1386POPC   D2A22156  18.101   0.489   8.482
 1386POPC   C3A22157  18.261   0.417   8.068
 1386POPC   C4A22158  18.441   0.754   7.837
 1386POPC   C1B22159  17.919   0.825   8.835
 1386POPC   C2B22160  17.827   1.072   8.450
 1386POPC   C3B22161  17.923   0.814   8.100
 1386POPC   C4B22162  17.895   0.551   7.719
 1387POPC   NC322163   3.236  36.588   9.499
 1387POPC   PO422164   3.529  35.986   9.446
 1387POPC   GL122165   3.543  36.165   9.070
 1387POPC   GL222166   3.556  36.492   9.095
 1387POPC   C1A22167   3.659  35.968   8.728
 1387POPC   D2A22168   3.465  36.040   8.362
 1387POPC   C3A22169   3.629  35.914   8.022
 1387POPC   C4A22170   3.882  35.952   7.670
 1387POPC   C1B22171   3.398  36.519   8.670
 1387POPC   C2B22172   3.398  36.523   8.220
 1387POPC   C3B22173   3.612  36.369   7.826
 1387POPC   C4B22174   3.559  36.256   7.357
 1388POPC   NC322175  12.028  41.449   9.647
 1388POPC   PO422176  12.454  41.955   9.615
 1388POPC   GL122177  12.221  41.677   9.213
 1388POPC   GL222178  12.004  41.308   9.163
 1388POPC   C1A22179  12.064  41.608   8.765
 1388POPC   D2A22180  12.150  41.642   8.321
 1388POPC   C3A22181  12.270  41.578   7.876
 1388POPC   C4A22182  12.397  41.967   7.619
 1388POPC   C1B22183  11.701  41.252   8.822
 1388POPC   C2B22184  11.696  41.422   8.418
 1388POPC   C3B22185  11.625  41.296   8.014
 1388POPC   C4B22186  11.840  41.374   7.654
 1389POPC   NC322187   8.205  11.651   9.570
 1389POPC   PO422188   8.191  10.999   9.742
 1389POPC   GL122189   8.215  11.139   9.265
 1389POPC   GL222190   8.458  11.404   9.197
 1389POPC   C1A22191   8.115  11.386   8.822
 1389POPC   D2A22192   8.244  11.505   8.411
 1389POPC   C3A22193   7.952  11.420   8.099
 1389POPC   C4A22194   7.917  11.151   7.799
 1389POPC   C1B22195   8.634  11.377   8.767
 1389POPC   C2B22196   8.609  11.115   8.404
 1389POPC   C3B22197   8.379  11.113   8.050
 1389POPC   C4B22198   8.322  11.458   7.742
 1390POPC   NC322199  31.924  34.048   9.374
 1390POPC   PO422200  31.266  33.774   9.431
 1390POPC   GL122201  31.465  33.911   9.065
 1390POPC   GL222202  31.811  33.775   8.949
 1390POPC   C1A22203  31.546  34.076   8.663
 1390POPC   D2A22204  31.872  33.923   8.447
 1390POPC   C3A22205  31.628  33.870   8.079
 1390POPC   C4A22206  31.278  33.781   7.817
 1390POPC   C1B22207  31.552  33.557   8.630
 1390POPC   C2B22208  31.646  33.368   8.224
 1390POPC   C3B22209  31.678  33.463   7.755
 1390POPC   C4B22210  31.747  33.486   7.298
 1391POPC   NC322211  31.695  15.931   9.595
 1391POPC   PO422212  31.008  15.814   9.479
 1391POPC   GL122213  31.276  16.032   9.212
 1391POPC   GL222214  31.463  15.755   9.198
 1391POPC   C1A22215  31.553  16.166   8.850
 1391POPC   D2A22216  31.663  16.356   8.422
 1391POPC   C3A22217  31.604  16.145   8.033
 1391POPC   C4A22218  31.287  16.117   7.731
 1391POPC   C1B22219  31.534  15.620   8.820
 1391POPC   C2B22220  31.653  15.802   8.455
 1391POPC   C3B22221  31.594  15.634   8.058
 1391POPC   C4B22222  31.490  15.654   7.674
 1392POPC   NC322223  43.259  17.088   9.499
 1392POPC   PO422224  42.763  16.668   9.452
 1392POPC   GL122225  42.916  16.814   9.124
 1392POPC   GL222226  42.715  17.098   9.031
 1392POPC   C1A22227  42.883  16.684   8.716
 1392POPC   D2A22228  42.715  16.964   8.406
 1392POPC   C3A22229  42.825  16.745   8.052
 1392POPC   C4A22230  43.179  16.619   7.854
 1392POPC   C1B22231  43.103  17.151   8.728
 1392POPC   C2B22232  43.334  17.248   8.314
 1392POPC   C3B22233  43.196  17.128   7.881
 1392POPC   C4B22234  43.313  17.043   7.426
 1393POPC   NC322235  43.067  44.412   9.821
 1393POPC   PO422236  42.853   0.037   9.487
 1393POPC   GL122237  43.123  44.777   9.216
 1393POPC   GL222238  43.021  44.894   8.936
 1393POPC   C1A22239  43.349  44.490   8.859
 1393POPC   D2A22240  43.541  44.529   8.425
 1393POPC   C3A22241  43.403  44.389   7.979
 1393POPC   C4A22242  43.108  44.391   7.592
 1393POPC   C1B22243  43.116  44.818   8.501
 1393POPC   C2B22244  43.322  44.883   8.116
 1393POPC   C3B22245  43.112  44.879   7.749
 1393POPC   C4B22246  42.851   0.177   7.600
 1394POPC   NC322247  11.578   4.115   9.450
 1394POPC   PO422248  11.170   4.606   9.578
 1394POPC   GL122249  11.284   4.454   9.185
 1394POPC   GL222250  11.401   4.723   9.047
 1394POPC   C1A22251  11.270   4.237   8.777
 1394POPC   D2A22252  11.507   4.226   8.394
 1394POPC   C3A22253  11.233   4.205   8.071
 1394POPC   C4A22254  11.180   4.265   7.660
 1394POPC   C1B22255  11.246   4.765   8.636
 1394POPC   C2B22256  11.258   4.749   8.167
 1394POPC   C3B22257  10.965   4.695   7.799
 1394POPC   C4B22258  10.747   4.814   7.420
 1395POPC   NC322259  13.453  30.004   9.355
 1395POPC   PO422260  13.902  29.568   9.569
 1395POPC   GL122261  13.828  29.779   9.117
 1395POPC   GL222262  13.474  29.759   8.885
 1395POPC   C1A22263  13.864  29.977   8.693
 1395POPC   D2A22264  13.605  29.797   8.346
 1395POPC   C3A22265  13.777  29.827   7.918
 1395POPC   C4A22266  13.502  29.799   7.572
 1395POPC   C1B22267  13.362  30.166   8.715
 1395POPC   C2B22268  13.447  30.306   8.312
 1395POPC   C3B22269  13.354  30.134   7.932
 1395POPC   C4B22270  13.202  30.319   7.568
 1396POPC   NC322271  18.896  40.910   9.704
 1396POPC   PO422272  19.377  40.640   9.655
 1396POPC   GL122273  19.258  40.738   9.203
 1396POPC   GL222274  18.918  40.892   9.175
 1396POPC   C1A22275  19.165  40.747   8.723
 1396POPC   D2A22276  18.792  40.747   8.436
 1396POPC   C3A22277  18.846  40.881   8.010
 1396POPC   C4A22278  19.278  40.990   7.834
 1396POPC   C1B22279  18.858  41.153   8.770
 1396POPC   C2B22280  19.070  41.199   8.339
 1396POPC   C3B22281  18.922  41.358   7.902
 1396POPC   C4B22282  18.558  41.145   7.678
 1397POPC   NC322283   5.770   0.760   9.401
 1397POPC   PO422284   5.379   0.163   9.429
 1397POPC   GL122285   5.806   0.110   9.169
 1397POPC   GL222286   5.965   0.447   9.033
 1397POPC   C1A22287   5.983   0.053   8.727
 1397POPC   D2A22288   5.773   0.182   8.353
 1397POPC   C3A22289   6.040   0.211   7.993
 1397POPC   C4A22290   5.964   0.145   7.548
 1397POPC   C1B22291   5.948   0.616   8.595
 1397POPC   C2B22292   6.090   0.679   8.164
 1397POPC   C3B22293   5.834   0.612   7.740
 1397POPC   C4B22294   5.648   0.715   7.330
 1398POPC   NC322295  35.722  15.644   9.605
 1398POPC   PO422296  35.851  16.296   9.528
 1398POPC   GL122297  36.018  15.962   9.277
 1398POPC   GL222298  35.821  16.082   9.039
 1398POPC   C1A22299  36.310  15.877   8.917
 1398POPC   D2A22300  36.385  15.937   8.461
 1398POPC   C3A22301  36.415  15.565   8.162
 1398POPC   C4A22302  36.631  15.656   7.763
 1398POPC   C1B22303  36.047  16.286   8.735
 1398POPC   C2B22304  35.935  16.354   8.347
 1398POPC   C3B22305  35.926  16.206   7.973
 1398POPC   C4B22306  36.194  15.916   7.823
 1399POPC   NC322307   6.656  20.342   9.463
 1399POPC   PO422308   6.940  20.971   9.518
 1399POPC   GL122309   6.841  20.731   9.157
 1399POPC   GL222310   6.487  20.744   9.171
 1399POPC   C1A22311   6.733  20.471   8.815
 1399POPC   D2A22312   6.581  20.510   8.454
 1399POPC   C3A22313   6.875  20.445   8.142
 1399POPC   C4A22314   6.804  20.620   7.731
 1399POPC   C1B22315   6.382  20.942   8.763
 1399POPC   C2B22316   6.369  20.949   8.309
 1399POPC   C3B22317   6.358  20.639   7.992
 1399POPC   C4B22318   6.096  20.401   7.731
 1400POPC   NC322319  14.978  23.045   9.645
 1400POPC   PO422320  15.377  22.609   9.411
 1400POPC   GL122321  15.177  22.938   9.184
 1400POPC   GL222322  15.478  23.028   9.047
 1400POPC   C1A22323  15.065  23.099   8.777
 1400POPC   D2A22324  15.274  23.144   8.364
 1400POPC   C3A22325  14.992  23.291   8.044
 1400POPC   C4A22326  14.803  23.004   7.721
 1400POPC   C1B22327  15.350  22.705   8.721
 1400POPC   C2B22328  15.037  22.674   8.377
 1400POPC   C3B22329  15.091  22.605   7.933
 1400POPC   C4B22330  15.444  22.359   7.748
 1401POPC   NC322331  44.014   0.102   9.511
 1401POPC   PO422332  43.974  44.467   9.598
 1401POPC   GL122333  43.737  44.674   9.243
 1401POPC   GL222334  43.578   0.015   9.245
 1401POPC   C1A22335  43.850  44.635   8.817
 1401POPC   D2A22336  44.053  44.568   8.440
 1401POPC   C3A22337  43.876  44.628   8.041
 1401POPC   C4A22338  44.116  44.632   7.677
 1401POPC   C1B22339  43.496  44.979   8.810
 1401POPC   C2B22340  43.721   0.004   8.419
 1401POPC   C3B22341  43.753   0.132   7.978
 1401POPC   C4B22342  43.621  44.898   7.663
 1402POPC   NC322343   6.613   0.943   9.386
 1402POPC   PO422344   6.585   1.609   9.393
 1402POPC   GL122345   6.436   1.346   9.117
 1402POPC   GL222346   6.121   1.170   9.193
 1402POPC   C1A22347   6.679   1.277   8.766
 1402POPC   D2A22348   6.736   1.487   8.384
 1402POPC   C3A22349   6.881   1.280   8.021
 1402POPC   C4A22350   6.721   1.055   7.705
 1402POPC   C1B22351   6.274   0.949   8.811
 1402POPC   C2B22352   6.453   1.000   8.412
 1402POPC   C3B22353   6.366   1.171   8.056
 1402POPC   C4B22354   6.174   0.966   7.750
 1403POPC   NC322355  22.367   4.907   9.535
 1403POPC   PO422356  22.572   5.526   9.448
 1403POPC   GL122357  22.353   5.312   9.091
 1403POPC   GL222358  22.079   5.060   9.146
 1403POPC   C1A22359  22.225   5.156   8.654
 1403POPC   D2A22360  21.879   5.227   8.348
 1403POPC   C3A22361  22.058   5.352   7.961
 1403POPC   C4A22362  22.415   5.115   7.782
 1403POPC   C1B22363  21.820   4.896   8.819
 1403POPC   C2B22364  21.901   4.708   8.431
 1403POPC   C3B22365  22.090   4.812   8.041
 1403POPC   C4B22366  21.928   4.691   7.610
 1404POPC   NC322367  13.385  25.899   9.421
 1404POPC   PO422368  13.905  26.281   9.631
 1404POPC   GL122369  13.804  26.241   9.206
 1404POPC   GL222370  13.990  25.999   9.047
 1404POPC   C1A22371  13.570  26.193   8.807
 1404POPC   D2A22372  13.320  26.012   8.480
 1404POPC   C3A22373  13.420  26.195   8.087
 1404POPC   C4A22374  13.326  25.917   7.748
 1404POPC   C1B22375  14.099  26.230   8.685
 1404POPC   C2B22376  13.840  26.070   8.371
 1404POPC   C3B22377  13.844  25.994   7.932
 1404POPC   C4B22378  13.679  26.287   7.641
 1405POPC   NC322379   6.583  42.885   9.545
 1405POPC   PO422380   6.299  43.601   9.449
 1405POPC   GL122381   6.472  43.209   9.193
 1405POPC   GL222382   6.345  42.846   9.119
 1405POPC   C1A22383   6.462  43.210   8.752
 1405POPC   D2A22384   6.497  43.488   8.411
 1405POPC   C3A22385   6.442  43.169   8.123
 1405POPC   C4A22386   6.658  43.110   7.762
 1405POPC   C1B22387   6.749  42.806   8.880
 1405POPC   C2B22388   6.907  42.994   8.495
 1405POPC   C3B22389   6.902  42.825   8.078
 1405POPC   C4B22390   7.126  42.842   7.695
 1406POPC   NC322391   4.026  34.115   9.445
 1406POPC   PO422392   4.135  34.831   9.467
 1406POPC   GL122393   4.268  34.570   9.136
 1406POPC   GL222394   4.436  34.233   9.103
 1406POPC   C1A22395   4.483  34.630   8.745
 1406POPC   D2A22396   4.522  34.861   8.361
 1406POPC   C3A22397   4.231  34.732   8.030
 1406POPC   C4A22398   4.402  34.592   7.659
 1406POPC   C1B22399   4.114  34.214   8.799
 1406POPC   C2B22400   4.092  34.385   8.392
 1406POPC   C3B22401   4.067  34.160   7.991
 1406POPC   C4B22402   3.990  34.316   7.578
 1407POPC   NC322403  15.220  34.382   9.452
 1407POPC   PO422404  15.378  35.071   9.331
 1407POPC   GL122405  15.152  34.723   9.095
 1407POPC   GL222406  15.471  34.474   9.010
 1407POPC   C1A22407  15.093  34.435   8.708
 1407POPC   D2A22408  15.292  34.545   8.322
 1407POPC   C3A22409  15.255  34.338   7.953
 1407POPC   C4A22410  14.955  34.241   7.676
 1407POPC   C1B22411  15.457  34.847   8.721
 1407POPC   C2B22412  15.471  35.115   8.401
 1407POPC   C3B22413  15.551  34.888   8.045
 1407POPC   C4B22414  15.448  34.718   7.661
 1408POPC   NC322415  37.391  37.110   9.327
 1408POPC   PO422416  37.920  36.764   9.416
 1408POPC   GL122417  37.699  36.780   9.087
 1408POPC   GL222418  37.431  36.563   9.107
 1408POPC   C1A22419  37.707  36.982   8.700
 1408POPC   D2A22420  37.541  37.157   8.335
 1408POPC   C3A22421  37.885  37.094   8.080
 1408POPC   C4A22422  37.805  36.935   7.705
 1408POPC   C1B22423  37.692  36.469   8.706
 1408POPC   C2B22424  37.675  36.666   8.295
 1408POPC   C3B22425  37.666  36.496   7.901
 1408POPC   C4B22426  37.510  36.589   7.471
 1409POPC   NC322427   0.690  20.108   9.526
 1409POPC   PO422428   0.288  20.825   9.466
 1409POPC   GL122429   0.382  20.624   9.065
 1409POPC   GL222430   0.254  20.282   8.995
 1409POPC   C1A22431   0.396  20.589   8.612
 1409POPC   D2A22432   0.605  20.801   8.294
 1409POPC   C3A22433   0.438  20.734   7.893
 1409POPC   C4A22434   0.529  20.764   7.474
 1409POPC   C1B22435   0.683  20.196   8.848
 1409POPC   C2B22436   0.821  20.328   8.447
 1409POPC   C3B22437   0.581  20.276   8.056
 1409POPC   C4B22438   0.696  20.314   7.638
 1410POPC   NC322439  39.938  29.562   9.512
 1410POPC   PO422440  40.246  29.978   9.854
 1410POPC   GL122441  40.080  30.074   9.391
 1410POPC   GL222442  39.769  29.945   9.228
 1410POPC   C1A22443  40.145  30.086   8.900
 1410POPC   D2A22444  40.163  30.307   8.482
 1410POPC   C3A22445  40.061  30.211   8.034
 1410POPC   C4A22446  40.232  30.121   7.633
 1410POPC   C1B22447  39.864  29.674   8.877
 1410POPC   C2B22448  39.878  29.844   8.500
 1410POPC   C3B22449  39.762  29.705   8.123
 1410POPC   C4B22450  39.916  29.719   7.745
 1411POPC   NC322451   1.474   6.882   9.435
 1411POPC   PO422452   1.349   7.620   9.457
 1411POPC   GL122453   1.096   7.654   9.122
 1411POPC   GL222454   1.273   7.367   8.971
 1411POPC   C1A22455   1.170   7.850   8.771
 1411POPC   D2A22456   1.349   7.605   8.482
 1411POPC   C3A22457   1.180   7.634   8.111
 1411POPC   C4A22458   1.371   7.511   7.720
 1411POPC   C1B22459   1.292   7.114   8.579
 1411POPC   C2B22460   1.352   7.145   8.136
 1411POPC   C3B22461   1.079   7.102   7.812
 1411POPC   C4B22462   0.686   7.039   7.636
 1412POPC   NC322463   9.354   7.268   9.486
 1412POPC   PO422464   9.961   7.560   9.527
 1412POPC   GL122465   9.806   7.314   9.219
 1412POPC   GL222466  10.127   7.289   9.083
 1412POPC   C1A22467   9.619   7.290   8.804
 1412POPC   D2A22468   9.810   7.148   8.387
 1412POPC   C3A22469   9.682   7.231   7.941
 1412POPC   C4A22470   9.789   7.473   7.563
 1412POPC   C1B22471  10.053   7.533   8.762
 1412POPC   C2B22472  10.198   7.510   8.372
 1412POPC   C3B22473  10.050   7.582   7.987
 1412POPC   C4B22474  10.209   7.827   7.670
 1413POPC   NC322475  39.172  40.396   9.304
 1413POPC   PO422476  39.021  40.933   9.665
 1413POPC   GL122477  39.032  40.876   9.199
 1413POPC   GL222478  39.352  40.899   9.053
 1413POPC   C1A22479  39.046  40.710   8.727
 1413POPC   D2A22480  39.322  40.721   8.346
 1413POPC   C3A22481  39.124  40.673   7.954
 1413POPC   C4A22482  38.820  40.891   7.658
 1413POPC   C1B22483  39.533  40.514   8.786
 1413POPC   C2B22484  39.545  40.268   8.398
 1413POPC   C3B22485  39.745  40.410   8.044
 1413POPC   C4B22486  39.610  40.752   7.817
 1414POPC   NC322487   9.915  38.263   9.710
 1414POPC   PO422488   9.455  38.654   9.550
 1414POPC   GL122489   9.690  38.608   9.191
 1414POPC   GL222490  10.025  38.598   9.234
 1414POPC   C1A22491   9.792  38.453   8.781
 1414POPC   D2A22492   9.685  38.713   8.429
 1414POPC   C3A22493   9.891  38.692   8.042
 1414POPC   C4A22494   9.791  38.398   7.706
 1414POPC   C1B22495  10.282  38.551   8.843
 1414POPC   C2B22496  10.164  38.443   8.425
 1414POPC   C3B22497  10.191  38.291   8.030
 1414POPC   C4B22498  10.297  38.391   7.640
 1415POPC   NC322499  34.730  35.657   9.612
 1415POPC   PO422500  34.950  35.033   9.442
 1415POPC   GL122501  34.675  35.171   9.118
 1415POPC   GL222502  34.727  35.496   9.132
 1415POPC   C1A22503  34.617  35.133   8.673
 1415POPC   D2A22504  34.744  34.866   8.295
 1415POPC   C3A22505  34.602  35.090   7.890
 1415POPC   C4A22506  34.351  35.454   7.666
 1415POPC   C1B22507  34.882  35.564   8.719
 1415POPC   C2B22508  34.645  35.525   8.330
 1415POPC   C3B22509  34.773  35.556   7.915
 1415POPC   C4B22510  35.175  35.504   7.773
 1416POPC   NC322511  31.114   1.773   9.485
 1416POPC   PO422512  30.961   2.434   9.338
 1416POPC   GL122513  30.797   2.059   9.094
 1416POPC   GL222514  30.476   2.091   8.846
 1416POPC   C1A22515  30.867   1.790   8.746
 1416POPC   D2A22516  30.648   1.636   8.409
 1416POPC   C3A22517  30.910   1.747   8.057
 1416POPC   C4A22518  30.699   1.856   7.702
 1416POPC   C1B22519  30.371   2.463   8.594
 1416POPC   C2B22520  30.385   2.394   8.181
 1416POPC   C3B22521  30.306   2.086   7.920
 1416POPC   C4B22522  30.274   2.123   7.500
 1417POPC   NC322523  42.668   9.926   9.415
 1417POPC   PO422524  43.265   9.610   9.410
 1417POPC   GL122525  43.110   9.762   9.048
 1417POPC   GL222526  43.021  10.084   9.095
 1417POPC   C1A22527  43.294   9.884   8.684
 1417POPC   D2A22528  43.321   9.609   8.351
 1417POPC   C3A22529  43.369   9.795   7.981
 1417POPC   C4A22530  43.148   9.635   7.645
 1417POPC   C1B22531  42.739  10.068   8.737
 1417POPC   C2B22532  42.916   9.933   8.360
 1417POPC   C3B22533  42.899  10.009   7.969
 1417POPC   C4B22534  42.543  10.139   7.805
 1418POPC   NC322535  13.076  38.422   9.732
 1418POPC   PO422536  12.594  38.372   9.282
 1418POPC   GL122537  12.777  38.204   8.975
 1418POPC   GL222538  13.124  38.138   9.092
 1418POPC   C1A22539  12.676  38.424   8.589
 1418POPC   D2A22540  12.335  38.248   8.378
 1418POPC   C3A22541  12.445  38.138   7.973
 1418POPC   C4A22542  12.849  38.280   7.829
 1418POPC   C1B22543  13.164  38.141   8.641
 1418POPC   C2B22544  13.203  38.265   8.199
 1418POPC   C3B22545  13.324  38.078   7.790
 1418POPC   C4B22546  13.037  37.989   7.428
 1419POPC   NC322547   8.406  19.518   9.349
 1419POPC   PO422548   8.381  20.202   9.348
 1419POPC   GL122549   8.138  19.961   9.054
 1419POPC   GL222550   7.999  19.605   9.064
 1419POPC   C1A22551   8.134  19.960   8.624
 1419POPC   D2A22552   8.339  19.997   8.256
 1419POPC   C3A22553   8.184  19.995   7.823
 1419POPC   C4A22554   8.160  20.282   7.422
 1419POPC   C1B22555   7.764  19.608   8.644
 1419POPC   C2B22556   7.782  19.354   8.227
 1419POPC   C3B22557   7.983  19.440   7.837
 1419POPC   C4B22558   8.331  19.496   7.595
 1420POPC   NC322559  10.173  21.364   9.380
 1420POPC   PO422560  10.672  21.700   9.795
 1420POPC   GL122561  10.587  21.635   9.251
 1420POPC   GL222562  10.521  21.300   9.026
 1420POPC   C1A22563  10.785  21.651   8.780
 1420POPC   D2A22564  10.823  21.772   8.329
 1420POPC   C3A22565  10.730  21.468   7.994
 1420POPC   C4A22566  10.345  21.593   7.728
 1420POPC   C1B22567  10.542  21.271   8.560
 1420POPC   C2B22568  10.279  21.354   8.209
 1420POPC   C3B22569  10.376  21.109   7.865
 1420POPC   C4B22570  10.523  21.153   7.444
 1421POPC   NC322571  29.012   7.737   9.329
 1421POPC   PO422572  29.195   7.141   9.483
 1421POPC   GL122573  29.424   7.110   9.082
 1421POPC   GL222574  29.171   7.347   9.020
 1421POPC   C1A22575  29.383   7.123   8.608
 1421POPC   D2A22576  29.430   7.450   8.296
 1421POPC   C3A22577  29.275   7.406   7.925
 1421POPC   C4A22578  29.415   7.338   7.530
 1421POPC   C1B22579  29.140   7.580   8.687
 1421POPC   C2B22580  28.995   7.786   8.348
 1421POPC   C3B22581  28.993   7.823   7.928
 1421POPC   C4B22582  28.980   7.600   7.549
 1422POPC   NC322583  38.049  28.565   9.878
 1422POPC   PO422584  37.558  29.001   9.528
 1422POPC   GL122585  37.794  29.108   9.156
 1422POPC   GL222586  38.018  29.410   9.224
 1422POPC   C1A22587  37.837  28.914   8.728
 1422POPC   D2A22588  37.784  29.150   8.339
 1422POPC   C3A22589  37.724  29.069   7.910
 1422POPC   C4A22590  37.597  28.975   7.448
 1422POPC   C1B22591  38.167  29.296   8.855
 1422POPC   C2B22592  38.304  29.241   8.468
 1422POPC   C3B22593  38.195  29.320   8.065
 1422POPC   C4B22594  38.082  29.447   7.691
 1423POPC   NC322595  20.588  39.349   9.690
 1423POPC   PO422596  20.338  38.875   9.498
 1423POPC   GL122597  20.504  39.003   9.113
 1423POPC   GL222598  20.742  39.273   9.177
 1423POPC   C1A22599  20.576  38.820   8.710
 1423POPC   D2A22600  20.892  38.956   8.438
 1423POPC   C3A22601  20.759  39.128   8.089
 1423POPC   C4A22602  20.730  39.131   7.667
 1423POPC   C1B22603  20.709  39.336   8.723
 1423POPC   C2B22604  20.499  39.482   8.324
 1423POPC   C3B22605  20.590  39.574   7.864
 1423POPC   C4B22606  20.819  39.566   7.432
 1424POPC   NC322607  39.401  14.240   9.464
 1424POPC   PO422608  38.800  14.521   9.466
 1424POPC   GL122609  39.036  14.437   9.119
 1424POPC   GL222610  38.918  14.741   8.997
 1424POPC   C1A22611  39.270  14.175   8.806
 1424POPC   D2A22612  39.506  14.284   8.436
 1424POPC   C3A22613  39.281  14.306   8.080
 1424POPC   C4A22614  39.375  14.365   7.675
 1424POPC   C1B22615  38.960  14.573   8.624
 1424POPC   C2B22616  39.168  14.737   8.304
 1424POPC   C3B22617  39.113  14.759   7.882
 1424POPC   C4B22618  38.869  14.504   7.662
 1425POPC   NC322619  34.006  33.365   9.385
 1425POPC   PO422620  33.568  33.865   9.403
 1425POPC   GL122621  33.694  33.610   9.062
 1425POPC   GL222622  34.038  33.772   9.078
 1425POPC   C1A22623  33.870  33.643   8.628
 1425POPC   D2A22624  33.849  33.978   8.345
 1425POPC   C3A22625  33.803  33.838   7.895
 1425POPC   C4A22626  33.565  33.880   7.509
 1425POPC   C1B22627  34.225  34.040   8.732
 1425POPC   C2B22628  34.368  33.907   8.322
 1425POPC   C3B22629  34.143  33.558   8.165
 1425POPC   C4B22630  34.077  33.452   7.726
 1426POPC   NC322631  30.929  14.338   9.556
 1426POPC   PO422632  31.139  14.911   9.363
 1426POPC   GL122633  30.983  14.591   9.117
 1426POPC   GL222634  30.645  14.417   9.121
 1426POPC   C1A22635  31.040  14.360   8.765
 1426POPC   D2A22636  31.168  14.470   8.343
 1426POPC   C3A22637  30.928  14.302   8.023
 1426POPC   C4A22638  30.893  14.403   7.639
 1426POPC   C1B22639  30.543  14.393   8.668
 1426POPC   C2B22640  30.438  14.298   8.234
 1426POPC   C3B22641  30.434  14.542   7.851
 1426POPC   C4B22642  30.447  14.859   7.519
 1427POPC   NC322643  38.967  29.329   9.458
 1427POPC   PO422644  39.334  28.710   9.494
 1427POPC   GL122645  39.337  29.075   9.163
 1427POPC   GL222646  39.073  29.081   8.963
 1427POPC   C1A22647  39.458  29.345   8.749
 1427POPC   D2A22648  39.426  29.213   8.290
 1427POPC   C3A22649  39.367  29.449   7.874
 1427POPC   C4A22650  39.074  29.446   7.487
 1427POPC   C1B22651  39.366  28.846   8.710
 1427POPC   C2B22652  39.572  28.714   8.345
 1427POPC   C3B22653  39.460  28.854   7.931
 1427POPC   C4B22654  39.055  29.066   7.812
 1428POPC   NC322655  27.315  31.834   9.421
 1428POPC   PO422656  27.701  31.239   9.505
 1428POPC   GL122657  27.518  31.421   9.168
 1428POPC   GL222658  27.702  31.707   9.120
 1428POPC   C1A22659  27.309  31.572   8.789
 1428POPC   D2A22660  27.061  31.433   8.437
 1428POPC   C3A22661  27.262  31.488   8.039
 1428POPC   C4A22662  27.460  31.341   7.597
 1428POPC   C1B22663  27.877  31.594   8.751
 1428POPC   C2B22664  27.655  31.521   8.391
 1428POPC   C3B22665  27.754  31.392   8.003
 1428POPC   C4B22666  27.912  31.642   7.681
 1429POPC   NC322667  14.114  25.859   9.512
 1429POPC   PO422668  14.619  26.326   9.650
 1429POPC   GL122669  14.491  26.077   9.257
 1429POPC   GL222670  14.310  26.380   9.180
 1429POPC   C1A22671  14.433  25.851   8.816
 1429POPC   D2A22672  14.290  25.817   8.360
 1429POPC   C3A22673  14.596  25.916   8.016
 1429POPC   C4A22674  14.793  25.741   7.653
 1429POPC   C1B22675  14.613  26.327   8.845
 1429POPC   C2B22676  14.593  26.245   8.427
 1429POPC   C3B22677  14.244  26.271   8.136
 1429POPC   C4B22678  14.236  26.277   7.702
 1430POPC   NC322679  26.440   0.899   9.466
 1430POPC   PO422680  25.756   1.012   9.462
 1430POPC   GL122681  26.059   1.220   9.190
 1430POPC   GL222682  26.312   1.039   9.012
 1430POPC   C1A22683  26.137   1.474   8.816
 1430POPC   D2A22684  25.986   1.298   8.448
 1430POPC   C3A22685  26.190   1.310   8.067
 1430POPC   C4A22686  26.050   1.287   7.666
 1430POPC   C1B22687  26.468   1.135   8.642
 1430POPC   C2B22688  26.266   0.886   8.331
 1430POPC   C3B22689  26.290   0.818   7.911
 1430POPC   C4B22690  26.524   1.148   7.713
 1431POPC   NC322691  41.926  16.562   9.520
 1431POPC   PO422692  41.633  15.876   9.621
 1431POPC   GL122693  41.648  15.828   9.213
 1431POPC   GL222694  41.847  15.502   9.157
 1431POPC   C1A22695  41.601  16.098   8.828
 1431POPC   D2A22696  41.385  16.242   8.450
 1431POPC   C3A22697  41.583  16.074   8.078
 1431POPC   C4A22698  41.557  16.283   7.680
 1431POPC   C1B22699  41.556  15.564   8.802
 1431POPC   C2B22700  41.402  15.720   8.427
 1431POPC   C3B22701  41.300  15.587   8.011
 1431POPC   C4B22702  41.452  15.764   7.655
 1432POPC   NC322703  39.187  31.508   9.769
 1432POPC   PO422704  38.536  31.382   9.513
 1432POPC   GL122705  38.501  31.531   9.114
 1432POPC   GL222706  38.760  31.307   8.977
 1432POPC   C1A22707  38.309  31.560   8.710
 1432POPC   D2A22708  38.484  31.496   8.301
 1432POPC   C3A22709  38.290  31.717   8.014
 1432POPC   C4A22710  38.067  31.567   7.669
 1432POPC   C1B22711  38.819  31.670   8.682
 1432POPC   C2B22712  38.973  31.690   8.239
 1432POPC   C3B22713  38.763  31.630   7.829
 1432POPC   C4B22714  38.490  31.300   7.788
 1433POPC   NC322715  19.169  35.721   9.450
 1433POPC   PO422716  18.829  35.133   9.653
 1433POPC   GL122717  18.867  35.259   9.219
 1433POPC   GL222718  19.217  35.311   9.129
 1433POPC   C1A22719  18.853  35.226   8.750
 1433POPC   D2A22720  18.733  34.939   8.402
 1433POPC   C3A22721  18.734  35.123   8.003
 1433POPC   C4A22722  18.984  35.458   7.843
 1433POPC   C1B22723  19.305  35.530   8.735
 1433POPC   C2B22724  19.122  35.647   8.334
 1433POPC   C3B22725  19.343  35.797   7.967
 1433POPC   C4B22726  19.373  35.728   7.530
 1434POPC   NC322727  17.731  13.311   9.282
 1434POPC   PO422728  17.430  13.770   9.630
 1434POPC   GL122729  17.272  13.601   9.185
 1434POPC   GL222730  17.098  13.884   9.031
 1434POPC   C1A22731  17.143  13.435   8.757
 1434POPC   D2A22732  17.032  13.537   8.336
 1434POPC   C3A22733  17.302  13.484   8.003
 1434POPC   C4A22734  17.732  13.460   7.912
 1434POPC   C1B22735  17.473  13.829   8.754
 1434POPC   C2B22736  17.635  13.809   8.316
 1434POPC   C3B22737  17.507  13.948   7.916
 1434POPC   C4B22738  17.067  13.958   7.883
 1435POPC   NC322739  23.806   8.072   9.496
 1435POPC   PO422740  23.301   8.571   9.516
 1435POPC   GL122741  23.496   8.282   9.138
 1435POPC   GL222742  23.559   7.905   9.078
 1435POPC   C1A22743  23.391   8.174   8.694
 1435POPC   D2A22744  23.547   8.067   8.300
 1435POPC   C3A22745  23.373   8.170   7.892
 1435POPC   C4A22746  23.501   8.420   7.543
 1435POPC   C1B22747  23.773   7.762   8.668
 1435POPC   C2B22748  24.040   7.891   8.317
 1435POPC   C3B22749  23.885   8.045   7.928
 1435POPC   C4B22750  23.869   7.988   7.547
 1436POPC   NC322751  43.237  21.958   9.581
 1436POPC   PO422752  42.841  21.422   9.468
 1436POPC   GL122753  43.110  21.429   9.134
 1436POPC   GL222754  43.342  21.176   9.063
 1436POPC   C1A22755  43.270  21.625   8.762
 1436POPC   D2A22756  43.440  21.624   8.370
 1436POPC   C3A22757  43.258  21.581   7.986
 1436POPC   C4A22758  43.251  21.321   7.658
 1436POPC   C1B22759  43.093  21.157   8.702
 1436POPC   C2B22760  42.943  21.366   8.363
 1436POPC   C3B22761  43.054  21.086   8.050
 1436POPC   C4B22762  42.927  20.947   7.619
 1437POPC   NC322763  35.104  43.414   9.628
 1437POPC   PO422764  35.584  42.898   9.553
 1437POPC   GL122765  35.356  43.163   9.234
 1437POPC   GL222766  35.576  43.421   9.133
 1437POPC   C1A22767  35.248  43.257   8.767
 1437POPC   D2A22768  35.292  43.488   8.369
 1437POPC   C3A22769  35.642  43.483   8.055
 1437POPC   C4A22770  35.951  43.339   7.695
 1437POPC   C1B22771  35.691  43.022   8.881
 1437POPC   C2B22772  35.590  43.044   8.427
 1437POPC   C3B22773  35.308  43.072   8.079
 1437POPC   C4B22774  35.148  43.423   7.856
 1438POPC   NC322775  35.320  25.188   9.420
 1438POPC   PO422776  35.402  25.818   9.704
 1438POPC   GL122777  35.573  25.671   9.271
 1438POPC   GL222778  35.313  25.600   9.043
 1438POPC   C1A22779  35.766  25.343   8.938
 1438POPC   D2A22780  35.736  25.044   8.548
 1438POPC   C3A22781  35.542  25.095   8.100
 1438POPC   C4A22782  35.497  25.206   7.626
 1438POPC   C1B22783  35.350  25.383   8.646
 1438POPC   C2B22784  35.219  25.481   8.225
 1438POPC   C3B22785  35.189  25.644   7.826
 1438POPC   C4B22786  35.159  25.507   7.336
 1439POPC   NC322787  33.283  33.501   9.403
 1439POPC   PO422788  33.037  34.101   9.511
 1439POPC   GL122789  33.014  33.866   9.100
 1439POPC   GL222790  33.045  33.517   8.964
 1439POPC   C1A22791  32.879  33.938   8.665
 1439POPC   D2A22792  33.024  34.157   8.272
 1439POPC   C3A22793  32.770  34.014   7.936
 1439POPC   C4A22794  32.697  33.567   7.925
 1439POPC   C1B22795  33.359  33.726   8.687
 1439POPC   C2B22796  33.489  33.627   8.246
 1439POPC   C3B22797  33.241  33.779   7.888
 1439POPC   C4B22798  33.095  33.541   7.511
 1440POPC   NC322799  38.132  22.892   9.415
 1440POPC   PO422800  37.564  22.565   9.409
 1440POPC   GL122801  37.773  22.700   9.066
 1440POPC   GL222802  37.653  23.049   9.110
 1440POPC   C1A22803  37.874  22.845   8.648
 1440POPC   D2A22804  37.818  23.126   8.330
 1440POPC   C3A22805  37.676  22.944   7.964
 1440POPC   C4A22806  37.543  22.857   7.566
 1440POPC   C1B22807  37.349  22.864   8.790
 1440POPC   C2B22808  37.310  22.790   8.305
 1440POPC   C3B22809  37.152  23.021   7.880
 1440POPC   C4B22810  37.185  23.204   7.378
 1441POPC   NC322811  27.631  28.301   9.690
 1441POPC   PO422812  27.210  28.594   9.253
 1441POPC   GL122813  27.597  28.547   9.135
 1441POPC   GL222814  27.611  28.244   9.183
 1441POPC   C1A22815  27.851  28.621   8.779
 1441POPC   D2A22816  27.657  28.751   8.405
 1441POPC   C3A22817  27.762  28.530   8.042
 1441POPC   C4A22818  27.486  28.341   7.755
 1441POPC   C1B22819  27.775  28.050   8.831
 1441POPC   C2B22820  27.835  28.221   8.454
 1441POPC   C3B22821  27.699  28.012   8.095
 1441POPC   C4B22822  27.903  27.948   7.731
 1442POPC   NC322823   3.089  35.754   9.569
 1442POPC   PO422824   3.503  35.188   9.525
 1442POPC   GL122825   3.509  35.354   9.102
 1442POPC   GL222826   3.328  35.684   9.076
 1442POPC   C1A22827   3.756  35.324   8.719
 1442POPC   D2A22828   3.887  35.637   8.409
 1442POPC   C3A22829   3.903  35.503   8.007
 1442POPC   C4A22830   3.573  35.459   7.733
 1442POPC   C1B22831   3.326  35.597   8.617
 1442POPC   C2B22832   3.313  35.547   8.166
 1442POPC   C3B22833   3.030  35.501   7.798
 1442POPC   C4B22834   2.760  35.450   7.414
 1443POPC   NC322835   2.273  30.212   9.519
 1443POPC   PO422836   1.593  30.390   9.610
 1443POPC   GL122837   1.894  30.477   9.201
 1443POPC   GL222838   2.172  30.350   9.029
 1443POPC   C1A22839   1.983  30.803   8.852
 1443POPC   D2A22840   1.902  31.019   8.463
 1443POPC   C3A22841   1.985  30.833   8.053
 1443POPC   C4A22842   2.370  30.830   7.809
 1443POPC   C1B22843   1.819  30.349   8.706
 1443POPC   C2B22844   1.969  30.338   8.267
 1443POPC   C3B22845   2.067  30.357   7.832
 1443POPC   C4B22846   1.972  30.608   7.469
 1444POPC   NC322847   1.524  31.493   9.813
 1444POPC   PO422848   1.094  31.888   9.532
 1444POPC   GL122849   1.095  31.677   9.154
 1444POPC   GL222850   0.790  31.790   9.080
 1444POPC   C1A22851   1.142  31.299   8.876
 1444POPC   D2A22852   1.272  31.120   8.478
 1444POPC   C3A22853   1.086  31.334   8.120
 1444POPC   C4A22854   1.161  31.354   7.665
 1444POPC   C1B22855   0.979  31.743   8.668
 1444POPC   C2B22856   1.232  31.824   8.305
 1444POPC   C3B22857   1.010  31.802   7.926
 1444POPC   C4B22858   0.684  31.582   7.778
 1445POPC   NC322859  19.370  32.737   9.423
 1445POPC   PO422860  18.787  33.203   9.534
 1445POPC   GL122861  18.876  32.983   9.186
 1445POPC   GL222862  19.174  33.157   9.161
 1445POPC   C1A22863  18.657  32.882   8.813
 1445POPC   D2A22864  18.743  33.040   8.419
 1445POPC   C3A22865  18.699  32.956   7.997
 1445POPC   C4A22866  19.029  32.890   7.712
 1445POPC   C1B22867  19.351  33.438   8.853
 1445POPC   C2B22868  19.537  33.296   8.476
 1445POPC   C3B22869  19.459  33.464   8.086
 1445POPC   C4B22870  19.557  33.384   7.695
 1446POPC   NC322871   1.341  19.312   9.457
 1446POPC   PO422872   0.981  18.676   9.548
 1446POPC   GL122873   1.259  18.873   9.252
 1446POPC   GL222874   1.431  18.620   9.186
 1446POPC   C1A22875   1.406  18.994   8.811
 1446POPC   D2A22876   1.151  19.101   8.445
 1446POPC   C3A22877   1.276  19.258   8.063
 1446POPC   C4A22878   1.022  19.474   7.786
 1446POPC   C1B22879   1.029  18.627   8.892
 1446POPC   C2B22880   1.064  18.588   8.481
 1446POPC   C3B22881   0.937  18.742   8.106
 1446POPC   C4B22882   1.076  18.909   7.759
 1447POPC   NC322883  42.436  11.461   9.580
 1447POPC   PO422884  42.018  10.867   9.521
 1447POPC   GL122885  42.276  11.096   9.194
 1447POPC   GL222886  42.414  11.434   9.097
 1447POPC   C1A22887  42.389  11.045   8.758
 1447POPC   D2A22888  42.581  11.293   8.440
 1447POPC   C3A22889  42.437  11.201   8.027
 1447POPC   C4A22890  42.285  11.389   7.670
 1447POPC   C1B22891  42.109  11.483   8.820
 1447POPC   C2B22892  42.070  11.401   8.400
 1447POPC   C3B22893  41.934  11.477   8.000
 1447POPC   C4B22894  41.856  11.669   7.610
 1448POPC   NC322895  24.051   4.155   9.614
 1448POPC   PO422896  23.556   4.519   9.611
 1448POPC   GL122897  23.749   4.454   9.228
 1448POPC   GL222898  23.818   4.144   9.161
 1448POPC   C1A22899  23.790   4.547   8.809
 1448POPC   D2A22900  23.889   4.809   8.479
 1448POPC   C3A22901  23.806   4.642   8.089
 1448POPC   C4A22902  23.646   4.528   7.710
 1448POPC   C1B22903  23.849   3.993   8.778
 1448POPC   C2B22904  23.743   3.864   8.387
 1448POPC   C3B22905  23.708   4.110   8.006
 1448POPC   C4B22906  23.987   4.163   7.638
 1449POPC   NC322907  25.101   2.112   9.926
 1449POPC   PO422908  25.678   1.917   9.577
 1449POPC   GL122909  25.417   1.862   9.181
 1449POPC   GL222910  25.066   1.735   9.139
 1449POPC   C1A22911  25.301   2.002   8.749
 1449POPC   D2A22912  25.378   1.806   8.361
 1449POPC   C3A22913  25.465   2.036   8.018
 1449POPC   C4A22914  25.409   1.814   7.633
 1449POPC   C1B22915  24.822   1.854   8.745
 1449POPC   C2B22916  24.916   2.064   8.336
 1449POPC   C3B22917  24.963   1.843   7.937
 1449POPC   C4B22918  24.929   1.908   7.491
 1450POPC   NC322919  33.323   5.162   9.574
 1450POPC   PO422920  33.962   4.995   9.495
 1450POPC   GL122921  33.641   5.132   9.183
 1450POPC   GL222922  33.435   4.861   9.099
 1450POPC   C1A22923  33.560   5.250   8.746
 1450POPC   D2A22924  33.817   5.443   8.393
 1450POPC   C3A22925  33.822   5.214   8.004
 1450POPC   C4A22926  34.146   5.198   7.718
 1450POPC   C1B22927  33.820   4.799   8.838
 1450POPC   C2B22928  33.804   4.922   8.420
 1450POPC   C3B22929  33.599   4.769   8.033
 1450POPC   C4B22930  33.803   4.820   7.639
 1451POPC   NC322931   9.312   6.666   9.642
 1451POPC   PO422932   8.703   6.454   9.367
 1451POPC   GL122933   8.902   6.772   9.104
 1451POPC   GL222934   9.279   6.859   9.163
 1451POPC   C1A22935   9.034   6.730   8.692
 1451POPC   D2A22936   8.827   6.474   8.396
 1451POPC   C3A22937   8.771   6.711   8.033
 1451POPC   C4A22938   8.861   6.443   7.697
 1451POPC   C1B22939   9.540   6.792   8.802
 1451POPC   C2B22940   9.441   6.769   8.360
 1451POPC   C3B22941   9.327   6.592   7.949
 1451POPC   C4B22942   9.253   6.723   7.517
 1452POPC   NC322943  13.029  22.833   9.424
 1452POPC   PO422944  12.770  23.470   9.407
 1452POPC   GL122945  12.964  23.210   9.075
 1452POPC   GL222946  12.772  22.897   9.003
 1452POPC   C1A22947  13.213  22.973   8.756
 1452POPC   D2A22948  13.247  23.119   8.356
 1452POPC   C3A22949  12.936  22.949   8.113
 1452POPC   C4A22950  12.942  22.828   7.704
 1452POPC   C1B22951  12.720  23.099   8.612
 1452POPC   C2B22952  12.472  23.145   8.252
 1452POPC   C3B22953  12.468  22.969   7.846
 1452POPC   C4B22954  12.519  22.900   7.414
 1453POPC   NC322955   9.171   9.336   9.476
 1453POPC   PO422956   8.618   9.706   9.267
 1453POPC   GL122957   8.987   9.708   9.012
 1453POPC   GL222958   9.031   9.360   9.005
 1453POPC   C1A22959   9.025   9.956   8.610
 1453POPC   D2A22960   8.737  10.130   8.281
 1453POPC   C3A22961   8.783   9.820   7.941
 1453POPC   C4A22962   9.132   9.723   7.696
 1453POPC   C1B22963   9.150   9.441   8.606
 1453POPC   C2B22964   9.098   9.472   8.176
 1453POPC   C3B22965   9.435   9.403   7.908
 1453POPC   C4B22966   9.395   9.319   7.421
 1454POPC   NC322967  31.179   7.368   9.416
 1454POPC   PO422968  31.705   7.703   9.206
 1454POPC   GL122969  31.523   7.335   9.050
 1454POPC   GL222970  31.289   7.581   8.927
 1454POPC   C1A22971  31.296   7.125   8.711
 1454POPC   D2A22972  31.478   7.138   8.281
 1454POPC   C3A22973  31.245   7.191   7.913
 1454POPC   C4A22974  31.460   7.030   7.540
 1454POPC   C1B22975  31.665   7.509   8.598
 1454POPC   C2B22976  31.923   7.477   8.236
 1454POPC   C3B22977  31.731   7.368   7.857
 1454POPC   C4B22978  31.419   7.639   7.725
 1455POPC   NC322979   0.100  44.643   9.583
 1455POPC   PO422980   0.725  44.496   9.435
 1455POPC   GL122981   0.512  44.718   9.064
 1455POPC   GL222982   0.238  44.897   9.150
 1455POPC   C1A22983   0.399  44.915   8.643
 1455POPC   D2A22984   0.236   0.065   8.228
 1455POPC   C3A22985   0.400  44.789   7.908
 1455POPC   C4A22986   0.540  44.507   7.592
 1455POPC   C1B22987   0.001  44.653   8.836
 1455POPC   C2B22988   0.084  44.488   8.386
 1455POPC   C3B22989  44.941  44.587   7.983
 1455POPC   C4B22990   0.044  44.675   7.552
 1456POPC   NC322991   6.246  37.714   9.420
 1456POPC   PO422992   6.827  37.832   9.705
 1456POPC   GL122993   6.722  37.771   9.266
 1456POPC   GL222994   6.651  37.435   9.235
 1456POPC   C1A22995   6.618  37.749   8.822
 1456POPC   D2A22996   6.792  37.736   8.397
 1456POPC   C3A22997   6.577  37.955   8.076
 1456POPC   C4A22998   6.319  37.765   7.819
 1456POPC   C1B22999   6.710  37.236   8.834
 1456POPC   C2B23000   6.653  37.151   8.418
 1456POPC   C3B23001   6.662  37.375   8.051
 1456POPC   C4B23002   6.885  37.170   7.753
 1457POPC   NC323003  42.809  23.369   9.928
 1457POPC   PO423004  43.015  22.820   9.570
 1457POPC   GL123005  43.133  22.919   9.144
 1457POPC   GL223006  42.853  22.742   9.021
 1457POPC   C1A23007  42.934  23.166   8.786
 1457POPC   D2A23008  42.780  22.893   8.413
 1457POPC   C3A23009  42.997  22.886   7.971
 1457POPC   C4A23010  43.014  23.183   7.562
 1457POPC   C1B23011  43.172  22.698   8.693
 1457POPC   C2B23012  43.278  22.567   8.277
 1457POPC   C3B23013  43.363  22.547   7.827
 1457POPC   C4B23014  43.135  22.718   7.415
 1458POPC   NC323015  14.672  31.830   9.646
 1458POPC   PO423016  14.341  31.163   9.474
 1458POPC   GL123017  14.641  31.357   9.270
 1458POPC   GL223018  14.400  31.575   9.115
 1458POPC   C1A23019  14.741  31.325   8.835
 1458POPC   D2A23020  14.518  31.178   8.470
 1458POPC   C3A23021  14.553  31.410   8.114
 1458POPC   C4A23022  14.682  31.223   7.713
 1458POPC   C1B23023  14.177  31.830   8.799
 1458POPC   C2B23024  14.111  31.701   8.396
 1458POPC   C3B23025  14.063  31.608   7.990
 1458POPC   C4B23026  14.372  31.607   7.678
 1459POPC   NC323027  38.768  28.068   9.392
 1459POPC   PO423028  38.458  28.612   9.665
 1459POPC   GL123029  38.415  28.477   9.203
 1459POPC   GL223030  38.645  28.366   9.019
 1459POPC   C1A23031  38.220  28.428   8.758
 1459POPC   D2A23032  38.293  28.240   8.365
 1459POPC   C3A23033  38.104  28.311   8.001
 1459POPC   C4A23034  38.230  28.461   7.602
 1459POPC   C1B23035  38.848  28.131   8.720
 1459POPC   C2B23036  38.790  28.327   8.356
 1459POPC   C3B23037  38.596  28.453   7.995
 1459POPC   C4B23038  38.706  28.336   7.577
 1460POPC   NC323039  28.881  17.494   9.750
 1460POPC   PO423040  29.464  17.781   9.509
 1460POPC   GL123041  29.215  17.620   9.144
 1460POPC   GL223042  29.044  17.313   9.048
 1460POPC   C1A23043  29.346  17.477   8.690
 1460POPC   D2A23044  29.619  17.497   8.324
 1460POPC   C3A23045  29.380  17.489   7.952
 1460POPC   C4A23046  29.250  17.736   7.559
 1460POPC   C1B23047  28.914  17.730   8.752
 1460POPC   C2B23048  28.886  17.937   8.344
 1460POPC   C3B23049  28.927  17.693   7.963
 1460POPC   C4B23050  28.987  17.331   7.667
 1461POPC   NC323051  10.624  42.636   9.516
 1461POPC   PO423052  10.828  41.967   9.626
 1461POPC   GL123053  10.648  42.098   9.197
 1461POPC   GL223054  10.305  42.050   9.059
 1461POPC   C1A23055  10.654  42.335   8.783
 1461POPC   D2A23056  10.411  42.415   8.404
 1461POPC   C3A23057  10.558  42.258   8.003
 1461POPC   C4A23058  10.804  42.545   7.797
 1461POPC   C1B23059  10.214  42.515   8.968
 1461POPC   C2B23060  10.097  42.789   8.612
 1461POPC   C3B23061  10.052  42.729   8.168
 1461POPC   C4B23062  10.261  42.579   7.760
 1462POPC   NC323063   7.966  20.415   9.300
 1462POPC   PO423064   8.463  20.740   9.642
 1462POPC   GL123065   8.430  20.678   9.192
 1462POPC   GL223066   8.188  20.939   9.199
 1462POPC   C1A23067   8.506  20.417   8.764
 1462POPC   D2A23068   8.591  20.671   8.388
 1462POPC   C3A23069   8.294  20.810   8.090
 1462POPC   C4A23070   8.283  20.719   7.647
 1462POPC   C1B23071   8.193  20.814   8.744
 1462POPC   C2B23072   8.098  20.453   8.441
 1462POPC   C3B23073   7.957  20.419   8.015
 1462POPC   C4B23074   7.784  20.552   7.629
 1463POPC   NC323075  28.566  16.029   9.533
 1463POPC   PO423076  28.011  16.207   9.824
 1463POPC   GL123077  28.080  16.142   9.356
 1463POPC   GL223078  28.019  16.405   9.106
 1463POPC   C1A23079  28.225  15.938   8.930
 1463POPC   D2A23080  28.179  15.923   8.465
 1463POPC   C3A23081  28.456  15.938   8.107
 1463POPC   C4A23082  28.516  15.714   7.707
 1463POPC   C1B23083  28.258  16.395   8.699
 1463POPC   C2B23084  28.211  16.413   8.266
 1463POPC   C3B23085  27.939  16.146   8.058
 1463POPC   C4B23086  28.117  16.035   7.711
 1464POPC   NC323087  23.922  31.433   9.479
 1464POPC   PO423088  23.210  31.225   9.353
 1464POPC   GL123089  23.596  31.226   9.138
 1464POPC   GL223090  23.634  31.593   9.068
 1464POPC   C1A23091  23.795  31.229   8.725
 1464POPC   D2A23092  23.645  31.393   8.324
 1464POPC   C3A23093  24.005  31.458   8.079
 1464POPC   C4A23094  24.075  31.161   7.774
 1464POPC   C1B23095  23.968  31.790   8.811
 1464POPC   C2B23096  23.884  31.920   8.376
 1464POPC   C3B23097  23.653  31.819   7.976
 1464POPC   C4B23098  23.592  31.428   7.758
 1465POPC   NC323099  22.528  29.552   9.523
 1465POPC   PO423100  22.666  28.867   9.519
 1465POPC   GL123101  22.820  28.989   9.090
 1465POPC   GL223102  22.814  29.326   9.161
 1465POPC   C1A23103  22.687  29.190   8.689
 1465POPC   D2A23104  22.700  29.216   8.245
 1465POPC   C3A23105  22.991  28.950   8.086
 1465POPC   C4A23106  22.870  28.864   7.690
 1465POPC   C1B23107  23.111  29.454   8.871
 1465POPC   C2B23108  23.183  29.311   8.459
 1465POPC   C3B23109  23.138  29.473   8.066
 1465POPC   C4B23110  23.167  29.266   7.688
 1466POPC   NC323111  21.414  26.552   9.484
 1466POPC   PO423112  21.375  25.904   9.644
 1466POPC   GL123113  21.386  26.105   9.258
 1466POPC   GL223114  21.051  26.259   9.212
 1466POPC   C1A23115  21.443  26.227   8.820
 1466POPC   D2A23116  21.205  26.153   8.416
 1466POPC   C3A23117  21.418  26.053   8.000
 1466POPC   C4A23118  21.432  25.937   7.551
 1466POPC   C1B23119  20.981  26.442   8.798
 1466POPC   C2B23120  21.065  26.646   8.353
 1466POPC   C3B23121  21.032  26.377   7.987
 1466POPC   C4B23122  21.058  26.279   7.550
 1467POPC   NC323123  33.918   6.966   9.606
 1467POPC   PO423124  33.631   7.580   9.504
 1467POPC   GL123125  33.862   7.418   9.161
 1467POPC   GL223126  33.656   7.137   9.169
 1467POPC   C1A23127  34.025   7.532   8.733
 1467POPC   D2A23128  33.750   7.437   8.375
 1467POPC   C3A23129  33.777   7.659   8.013
 1467POPC   C4A23130  34.175   7.700   7.805
 1467POPC   C1B23131  33.821   7.078   8.765
 1467POPC   C2B23132  33.697   6.910   8.405
 1467POPC   C3B23133  33.529   7.023   8.030
 1467POPC   C4B23134  33.695   7.265   7.713
 1468POPC   NC323135   7.155   4.711   9.454
 1468POPC   PO423136   7.763   5.052   9.382
 1468POPC   GL123137   7.357   5.073   9.156
 1468POPC   GL223138   7.235   4.768   8.965
 1468POPC   C1A23139   7.192   5.286   8.811
 1468POPC   D2A23140   7.391   5.435   8.436
 1468POPC   C3A23141   7.306   5.305   8.003
 1468POPC   C4A23142   7.566   5.180   7.630
 1468POPC   C1B23143   7.561   4.941   8.681
 1468POPC   C2B23144   7.612   4.982   8.237
 1468POPC   C3B23145   7.654   4.730   7.865
 1468POPC   C4B23146   7.695   4.737   7.408
 1469POPC   NC323147  41.994  42.209   9.481
 1469POPC   PO423148  41.334  42.353   9.393
 1469POPC   GL123149  41.670  42.415   9.117
 1469POPC   GL223150  41.830  42.084   9.021
 1469POPC   C1A23151  41.818  42.468   8.690
 1469POPC   D2A23152  41.747  42.284   8.285
 1469POPC   C3A23153  41.592  42.582   7.968
 1469POPC   C4A23154  41.816  42.742   7.618
 1469POPC   C1B23155  41.479  42.073   8.712
 1469POPC   C2B23156  41.341  41.990   8.272
 1469POPC   C3B23157  41.249  42.207   7.864
 1469POPC   C4B23158  41.277  41.923   7.501
 1470POPC   NC323159  34.505  19.937   9.475
 1470POPC   PO423160  35.153  20.145   9.439
 1470POPC   GL123161  34.830  20.087   9.108
 1470POPC   GL223162  34.758  19.711   9.069
 1470POPC   C1A23163  34.575  20.054   8.720
 1470POPC   D2A23164  34.653  19.824   8.337
 1470POPC   C3A23165  34.578  19.940   7.887
 1470POPC   C4A23166  34.596  19.664   7.515
 1470POPC   C1B23167  34.486  19.408   8.827
 1470POPC   C2B23168  34.372  19.376   8.399
 1470POPC   C3B23169  34.584  19.410   8.057
 1470POPC   C4B23170  34.313  19.342   7.792
 1471POPC   NC323171   4.696  18.962   9.445
 1471POPC   PO423172   4.232  19.551   9.415
 1471POPC   GL123173   4.238  19.168   9.213
 1471POPC   GL223174   4.086  19.354   8.954
 1471POPC   C1A23175   4.350  18.924   8.840
 1471POPC   D2A23176   4.514  19.025   8.437
 1471POPC   C3A23177   4.467  18.827   8.032
 1471POPC   C4A23178   4.135  18.828   7.735
 1471POPC   C1B23179   4.437  19.466   8.762
 1471POPC   C2B23180   4.235  19.452   8.390
 1471POPC   C3B23181   4.302  19.306   8.007
 1471POPC   C4B23182   4.458  19.233   7.615
 1472POPC   NC323183  35.119  29.604   9.423
 1472POPC   PO423184  35.395  30.218   9.412
 1472POPC   GL123185  35.326  29.970   9.099
 1472POPC   GL223186  35.164  29.676   8.936
 1472POPC   C1A23187  35.256  30.160   8.718
 1472POPC   D2A23188  35.374  30.352   8.340
 1472POPC   C3A23189  35.193  30.111   8.024
 1472POPC   C4A23190  35.081  30.219   7.612
 1472POPC   C1B23191  35.580  29.680   8.781
 1472POPC   C2B23192  35.550  29.860   8.411
 1472POPC   C3B23193  35.604  29.783   8.008
 1472POPC   C4B23194  35.350  29.773   7.665
 1473POPC   NC323195  36.232  22.677   9.506
 1473POPC   PO423196  35.905  23.177   9.609
 1473POPC   GL123197  36.007  23.172   9.170
 1473POPC   GL223198  36.150  22.863   9.051
 1473POPC   C1A23199  36.170  23.255   8.744
 1473POPC   D2A23200  36.334  23.046   8.421
 1473POPC   C3A23201  36.164  23.209   8.066
 1473POPC   C4A23202  35.935  23.008   7.778
 1473POPC   C1B23203  36.428  22.656   8.793
 1473POPC   C2B23204  36.470  22.527   8.376
 1473POPC   C3B23205  36.314  22.703   8.018
 1473POPC   C4B23206  36.373  22.760   7.587
 1474POPC   NC323207   8.813  29.552   9.556
 1474POPC   PO423208   9.387  29.774   9.794
 1474POPC   GL123209   9.156  29.865   9.330
 1474POPC   GL223210   8.780  29.980   9.255
 1474POPC   C1A23211   9.160  29.979   8.889
 1474POPC   D2A23212   8.930  29.987   8.518
 1474POPC   C3A23213   8.867  30.048   8.076
 1474POPC   C4A23214   8.993  29.789   7.761
 1474POPC   C1B23215   8.623  29.774   8.865
 1474POPC   C2B23216   8.484  29.814   8.396
 1474POPC   C3B23217   8.485  29.766   7.916
 1474POPC   C4B23218   8.573  29.979   7.495
 1475POPC   NC323219  36.371  28.591   9.465
 1475POPC   PO423220  36.022  28.030   9.382
 1475POPC   GL123221  36.092  28.351   9.085
 1475POPC   GL223222  35.795  28.544   8.952
 1475POPC   C1A23223  36.365  28.292   8.720
 1475POPC   D2A23224  36.556  28.190   8.298
 1475POPC   C3A23225  36.377  28.229   7.849
 1475POPC   C4A23226  36.339  28.196   7.375
 1475POPC   C1B23227  35.832  28.193   8.679
 1475POPC   C2B23228  36.053  28.287   8.297
 1475POPC   C3B23229  35.969  28.525   7.946
 1475POPC   C4B23230  35.889  28.254   7.616
 1476POPC   NC323231  37.236  10.709   9.434
 1476POPC   PO423232  37.736  10.315   9.737
 1476POPC   GL123233  37.715  10.533   9.298
 1476POPC   GL223234  37.932  10.842   9.240
 1476POPC   C1A23235  37.639  10.430   8.849
 1476POPC   D2A23236  37.798  10.351   8.431
 1476POPC   C3A23237  37.583  10.479   8.040
 1476POPC   C4A23238  37.560  10.621   7.614
 1476POPC   C1B23239  37.767  10.918   8.797
 1476POPC   C2B23240  37.816  10.862   8.318
 1476POPC   C3B23241  37.988  10.789   7.874
 1476POPC   C4B23242  38.077  10.689   7.411
 1477POPC   NC323243  17.526  35.914   9.800
 1477POPC   PO423244  16.851  36.016   9.453
 1477POPC   GL123245  16.928  36.070   9.057
 1477POPC   GL223246  16.942  35.730   9.019
 1477POPC   C1A23247  16.779  36.203   8.654
 1477POPC   D2A23248  17.075  36.367   8.352
 1477POPC   C3A23249  16.932  36.387   7.936
 1477POPC   C4A23250  16.658  36.305   7.590
 1477POPC   C1B23251  16.750  35.646   8.653
 1477POPC   C2B23252  16.544  35.859   8.322
 1477POPC   C3B23253  16.672  35.890   7.868
 1477POPC   C4B23254  16.896  35.839   7.452
 1478POPC   NC323255  28.097  32.388   9.530
 1478POPC   PO423256  28.658  32.105   9.372
 1478POPC   GL123257  28.407  32.154   9.071
 1478POPC   GL223258  28.121  31.987   9.152
 1478POPC   C1A23259  28.634  32.098   8.679
 1478POPC   D2A23260  28.547  31.983   8.270
 1478POPC   C3A23261  28.617  32.259   7.914
 1478POPC   C4A23262  28.635  32.132   7.479
 1478POPC   C1B23263  28.130  32.047   8.660
 1478POPC   C2B23264  28.120  32.262   8.238
 1478POPC   C3B23265  27.997  32.201   7.804
 1478POPC   C4B23266  27.754  32.120   7.444
 1479POPC   NC323267  23.609  27.101   9.560
 1479POPC   PO423268  24.226  26.973   9.495
 1479POPC   GL123269  23.962  26.909   9.104
 1479POPC   GL223270  23.611  27.077   9.068
 1479POPC   C1A23271  23.744  26.761   8.705
 1479POPC   D2A23272  23.807  26.768   8.270
 1479POPC   C3A23273  23.543  26.716   7.905
 1479POPC   C4A23274  23.666  26.532   7.479
 1479POPC   C1B23275  23.833  27.275   8.754
 1479POPC   C2B23276  23.748  27.393   8.343
 1479POPC   C3B23277  24.022  27.163   8.055
 1479POPC   C4B23278  23.990  26.872   7.711
 1480POPC   NC323279  33.374  16.067   9.357
 1480POPC   PO423280  32.815  16.491   9.515
 1480POPC   GL123281  32.919  16.204   9.097
 1480POPC   GL223282  33.249  16.121   8.884
 1480POPC   C1A23283  32.826  15.932   8.721
 1480POPC   D2A23284  33.094  15.967   8.331
 1480POPC   C3A23285  32.894  15.954   7.927
 1480POPC   C4A23286  32.896  15.846   7.484
 1480POPC   C1B23287  33.294  15.680   8.721
 1480POPC   C2B23288  33.476  15.558   8.324
 1480POPC   C3B23289  33.287  15.618   7.934
 1480POPC   C4B23290  33.358  15.933   7.649
 1481POPC   NC323291  24.980  22.042   9.786
 1481POPC   PO423292  25.617  21.952   9.945
 1481POPC   GL123293  25.530  22.049   9.432
 1481POPC   GL223294  25.399  21.784   9.212
 1481POPC   C1A23295  25.578  22.164   8.924
 1481POPC   D2A23296  25.454  22.162   8.435
 1481POPC   C3A23297  25.590  22.134   7.967
 1481POPC   C4A23298  25.402  22.257   7.571
 1481POPC   C1B23299  25.163  21.882   8.790
 1481POPC   C2B23300  25.018  21.900   8.327
 1481POPC   C3B23301  25.083  22.013   7.883
 1481POPC   C4B23302  24.977  21.996   7.430
 1482POPC   NC323303  27.026   4.480   9.339
 1482POPC   PO423304  26.627   4.050   9.485
 1482POPC   GL123305  26.787   4.090   9.091
 1482POPC   GL223306  27.143   4.058   9.073
 1482POPC   C1A23307  26.699   4.304   8.728
 1482POPC   D2A23308  26.660   4.580   8.399
 1482POPC   C3A23309  26.560   4.409   8.017
 1482POPC   C4A23310  26.843   4.607   7.755
 1482POPC   C1B23311  27.228   4.250   8.658
 1482POPC   C2B23312  26.981   4.224   8.278
 1482POPC   C3B23313  26.971   4.087   7.852
 1482POPC   C4B23314  27.040   4.186   7.382
 1483POPC   NC323315  14.884  25.299   9.437
 1483POPC   PO423316  15.491  25.302   9.594
 1483POPC   GL123317  15.304  25.422   9.186
 1483POPC   GL223318  15.251  25.069   9.117
 1483POPC   C1A23319  15.005  25.399   8.807
 1483POPC   D2A23320  14.732  25.560   8.474
 1483POPC   C3A23321  14.914  25.482   8.076
 1483POPC   C4A23322  15.209  25.311   7.774
 1483POPC   C1B23323  15.072  24.883   8.746
 1483POPC   C2B23324  14.958  24.825   8.301
 1483POPC   C3B23325  15.135  24.719   7.883
 1483POPC   C4B23326  15.291  24.836   7.464
 1484POPC   NC323327  25.972  22.112   9.684
 1484POPC   PO423328  26.432  22.247   9.447
 1484POPC   GL123329  26.073  22.164   9.159
 1484POPC   GL223330  25.921  21.849   9.135
 1484POPC   C1A23331  26.027  22.265   8.699
 1484POPC   D2A23332  25.897  22.393   8.283
 1484POPC   C3A23333  26.081  22.307   7.856
 1484POPC   C4A23334  26.315  22.561   7.507
 1484POPC   C1B23335  26.108  21.769   8.721
 1484POPC   C2B23336  26.101  21.914   8.273
 1484POPC   C3B23337  25.961  21.786   7.864
 1484POPC   C4B23338  25.986  21.565   7.475
 1485POPC   NC323339   9.838  20.210   9.499
 1485POPC   PO423340   9.705  19.512   9.497
 1485POPC   GL123341   9.666  19.804   9.166
 1485POPC   GL223342  10.011  19.939   9.115
 1485POPC   C1A23343   9.651  19.769   8.711
 1485POPC   D2A23344   9.699  19.526   8.312
 1485POPC   C3A23345   9.673  19.776   7.924
 1485POPC   C4A23346   9.668  19.592   7.511
 1485POPC   C1B23347  10.178  19.869   8.752
 1485POPC   C2B23348  10.001  19.933   8.372
 1485POPC   C3B23349  10.149  20.025   8.007
 1485POPC   C4B23350  10.072  19.931   7.614
 1486POPC   NC323351   6.403  33.509   9.565
 1486POPC   PO423352   6.853  32.925   9.605
 1486POPC   GL123353   6.728  33.165   9.244
 1486POPC   GL223354   6.382  33.125   9.223
 1486POPC   C1A23355   6.665  32.982   8.818
 1486POPC   D2A23356   6.437  32.999   8.436
 1486POPC   C3A23357   6.695  32.797   8.144
 1486POPC   C4A23358   7.061  32.824   7.894
 1486POPC   C1B23359   6.428  33.444   8.897
 1486POPC   C2B23360   6.309  33.518   8.475
 1486POPC   C3B23361   6.345  33.376   8.058
 1486POPC   C4B23362   6.614  33.158   7.776
 1487POPC   NC323363   3.597  23.398   9.734
 1487POPC   PO423364   3.239  22.874   9.660
 1487POPC   GL123365   3.440  22.924   9.265
 1487POPC   GL223366   3.182  23.147   9.168
 1487POPC   C1A23367   3.574  23.031   8.812
 1487POPC   D2A23368   3.734  22.867   8.388
 1487POPC   C3A23369   3.710  23.056   7.978
 1487POPC   C4A23370   3.845  23.045   7.546
 1487POPC   C1B23371   3.120  22.778   8.892
 1487POPC   C2B23372   3.231  22.887   8.473
 1487POPC   C3B23373   3.203  22.970   8.045
 1487POPC   C4B23374   3.331  23.164   7.648
 1488POPC   NC323375  13.742   0.240   9.598
 1488POPC   PO423376  13.047   0.260   9.803
 1488POPC   GL123377  13.298   0.446   9.362
 1488POPC   GL223378  13.476   0.170   9.181
 1488POPC   C1A23379  13.452   0.542   8.876
 1488POPC   D2A23380  13.675   0.641   8.495
 1488POPC   C3A23381  13.550   0.408   8.127
 1488POPC   C4A23382  13.436   0.383   7.694
 1488POPC   C1B23383  13.847   0.264   8.903
 1488POPC   C2B23384  13.894   0.152   8.452
 1488POPC   C3B23385  14.044   0.264   8.053
 1488POPC   C4B23386  13.971   0.365   7.619
 1489POPC   NC323387  29.426  36.019   9.539
 1489POPC   PO423388  28.824  36.395   9.449
 1489POPC   GL123389  29.143  36.227   9.147
 1489POPC   GL223390  29.457  36.398   9.160
 1489POPC   C1A23391  29.189  35.876   8.824
 1489POPC   D2A23392  29.051  36.014   8.415
 1489POPC   C3A23393  29.242  35.979   8.010
 1489POPC   C4A23394  29.032  36.192   7.675
 1489POPC   C1B23395  29.411  36.315   8.683
 1489POPC   C2B23396  29.416  36.393   8.230
 1489POPC   C3B23397  29.495  36.391   7.787
 1489POPC   C4B23398  29.525  36.029   7.536
 1490POPC   NC323399  28.009  28.546   9.417
 1490POPC   PO423400  28.414  28.177   9.799
 1490POPC   GL123401  28.443  28.200   9.274
 1490POPC   GL223402  28.622  28.494   9.103
 1490POPC   C1A23403  28.231  28.300   8.865
 1490POPC   D2A23404  28.355  28.308   8.457
 1490POPC   C3A23405  28.183  28.233   8.069
 1490POPC   C4A23406  28.364  28.135   7.693
 1490POPC   C1B23407  28.529  28.727   8.714
 1490POPC   C2B23408  28.184  28.781   8.372
 1490POPC   C3B23409  28.232  28.728   7.917
 1490POPC   C4B23410  28.457  28.595   7.529
 1491POPC   NC323411  36.455  10.195   9.284
 1491POPC   PO423412  35.972  10.580   9.636
 1491POPC   GL123413  36.025  10.594   9.194
 1491POPC   GL223414  35.882  10.889   9.122
 1491POPC   C1A23415  35.887  10.480   8.739
 1491POPC   D2A23416  35.814  10.210   8.347
 1491POPC   C3A23417  36.135  10.194   8.030
 1491POPC   C4A23418  36.294  10.380   7.652
 1491POPC   C1B23419  36.221  10.875   8.791
 1491POPC   C2B23420  36.255  10.693   8.354
 1491POPC   C3B23421  36.097  10.769   7.931
 1491POPC   C4B23422  35.830  11.031   7.615
 1492POPC   NC323423  38.401   1.311   9.593
 1492POPC   PO423424  39.054   1.437   9.359
 1492POPC   GL123425  38.653   1.476   9.166
 1492POPC   GL223426  38.659   1.133   9.177
 1492POPC   C1A23427  38.494   1.334   8.725
 1492POPC   D2A23428  38.310   1.506   8.328
 1492POPC   C3A23429  38.448   1.322   7.945
 1492POPC   C4A23430  38.675   1.300   7.550
 1492POPC   C1B23431  38.897   1.034   8.792
 1492POPC   C2B23432  38.738   1.011   8.344
 1492POPC   C3B23433  38.758   0.912   7.886
 1492POPC   C4B23434  38.823   0.758   7.454
 1493POPC   NC323435  39.581   6.733   9.833
 1493POPC   PO423436  39.135   6.383   9.336
 1493POPC   GL123437  39.122   6.749   9.091
 1493POPC   GL223438  39.434   6.915   8.965
 1493POPC   C1A23439  39.076   6.677   8.682
 1493POPC   D2A23440  39.258   6.393   8.402
 1493POPC   C3A23441  39.083   6.311   8.018
 1493POPC   C4A23442  39.155   6.534   7.648
 1493POPC   C1B23443  39.593   6.733   8.602
 1493POPC   C2B23444  39.526   6.765   8.142
 1493POPC   C3B23445  39.556   7.000   7.761
 1493POPC   C4B23446  39.361   6.903   7.331
 1494POPC   NC323447  36.891   9.325   9.514
 1494POPC   PO423448  36.980   8.646   9.465
 1494POPC   GL123449  37.038   8.948   9.154
 1494POPC   GL223450  36.681   8.950   9.096
 1494POPC   C1A23451  37.039   8.866   8.706
 1494POPC   D2A23452  36.871   8.881   8.280
 1494POPC   C3A23453  37.211   8.859   7.963
 1494POPC   C4A23454  37.314   8.728   7.526
 1494POPC   C1B23455  36.419   9.138   8.756
 1494POPC   C2B23456  36.537   9.294   8.360
 1494POPC   C3B23457  36.565   9.108   7.927
 1494POPC   C4B23458  36.566   9.411   7.669
 1495POPC   NC323459  18.424   0.772   9.691
 1495POPC   PO423460  17.962   1.173   9.599
 1495POPC   GL123461  18.179   1.227   9.248
 1495POPC   GL223462  18.448   0.967   9.200
 1495POPC   C1A23463  18.185   1.239   8.831
 1495POPC   D2A23464  18.329   0.985   8.502
 1495POPC   C3A23465  18.217   1.254   8.168
 1495POPC   C4A23466  18.114   1.144   7.769
 1495POPC   C1B23467  18.697   1.222   8.910
 1495POPC   C2B23468  18.721   1.317   8.466
 1495POPC   C3B23469  18.693   1.148   8.051
 1495POPC   C4B23470  18.515   1.455   7.753
 1496POPC   NC323471   5.492   9.767   9.599
 1496POPC   PO423472   6.068   9.468   9.545
 1496POPC   GL123473   5.863   9.740   9.231
 1496POPC   GL223474   6.062  10.028   9.119
 1496POPC   C1A23475   5.646   9.901   8.855
 1496POPC   D2A23476   5.765   9.759   8.468
 1496POPC   C3A23477   5.611   9.869   8.081
 1496POPC   C4A23478   5.850   9.848   7.701
 1496POPC   C1B23479   6.132  10.272   8.779
 1496POPC   C2B23480   5.999  10.204   8.344
 1496POPC   C3B23481   6.214  10.177   7.930
 1496POPC   C4B23482   6.317  10.080   7.475
 1497POPC   NC323483  41.901  14.656   9.430
 1497POPC   PO423484  42.563  14.351   9.478
 1497POPC   GL123485  42.333  14.378   9.133
 1497POPC   GL223486  42.101  14.120   9.104
 1497POPC   C1A23487  42.472  14.257   8.729
 1497POPC   D2A23488  42.418  14.095   8.311
 1497POPC   C3A23489  42.572  14.308   7.935
 1497POPC   C4A23490  42.543  14.512   7.555
 1497POPC   C1B23491  41.956  14.307   8.720
 1497POPC   C2B23492  41.898  14.194   8.266
 1497POPC   C3B23493  42.061  14.397   7.856
 1497POPC   C4B23494  42.116  14.233   7.415
 1498POPC   NC323495  14.917  28.534   9.474
 1498POPC   PO423496  15.478  28.180   9.308
 1498POPC   GL123497  15.281  28.499   9.095
 1498POPC   GL223498  15.111  28.251   8.910
 1498POPC   C1A23499  15.121  28.664   8.669
 1498POPC   D2A23500  15.046  28.363   8.308
 1498POPC   C3A23501  15.228  28.477   7.933
 1498POPC   C4A23502  15.359  28.654   7.557
 1498POPC   C1B23503  14.702  28.262   8.658
 1498POPC   C2B23504  14.608  28.068   8.288
 1498POPC   C3B23505  14.764  28.179   7.883
 1498POPC   C4B23506  15.049  28.216   7.538
 1499POPC   NC323507  11.927  28.955   9.504
 1499POPC   PO423508  12.412  29.446   9.352
 1499POPC   GL123509  12.280  29.052   9.114
 1499POPC   GL223510  11.931  28.942   9.003
 1499POPC   C1A23511  12.308  28.969   8.665
 1499POPC   D2A23512  12.053  28.888   8.296
 1499POPC   C3A23513  12.187  29.160   7.950
 1499POPC   C4A23514  12.546  28.883   7.946
 1499POPC   C1B23515  11.960  29.339   8.764
 1499POPC   C2B23516  11.813  29.350   8.327
 1499POPC   C3B23517  11.686  29.066   7.975
 1499POPC   C4B23518  11.770  29.280   7.593
 1500POPC   NC323519  21.168  43.618   9.493
 1500POPC   PO423520  21.569  44.142   9.680
 1500POPC   GL123521  21.528  43.963   9.253
 1500POPC   GL223522  21.175  43.955   9.114
 1500POPC   C1A23523  21.536  44.022   8.782
 1500POPC   D2A23524  21.238  44.190   8.446
 1500POPC   C3A23525  21.500  44.117   8.085
 1500POPC   C4A23526  21.539  43.740   7.926
 1500POPC   C1B23527  21.079  43.583   8.831
 1500POPC   C2B23528  21.016  43.336   8.446
 1500POPC   C3B23529  21.048  43.484   8.023
 1500POPC   C4B23530  21.056  43.933   7.932
 1501POPC   NC323531  11.060  25.460   9.681
 1501POPC   PO423532  11.585  25.017   9.591
 1501POPC   GL123533  11.450  25.314   9.299
 1501POPC   GL223534  11.535  25.058   9.069
 1501POPC   C1A23535  11.201  25.474   8.940
 1501POPC   D2A23536  11.238  25.612   8.491
 1501POPC   C3A23537  11.105  25.347   8.135
 1501POPC   C4A23538  11.246  25.266   7.723
 1501POPC   C1B23539  11.673  25.345   8.766
 1501POPC   C2B23540  11.808  25.490   8.375
 1501POPC   C3B23541  11.681  25.659   7.988
 1501POPC   C4B23542  11.666  25.544   7.548
 1502POPC   NC323543  10.750  37.108   9.366
 1502POPC   PO423544  10.082  37.227   9.403
 1502POPC   GL123545  10.312  37.004   9.121
 1502POPC   GL223546  10.316  36.670   9.230
 1502POPC   C1A23547  10.433  36.955   8.721
 1502POPC   D2A23548  10.247  36.751   8.380
 1502POPC   C3A23549  10.176  36.971   8.012
 1502POPC   C4A23550  10.504  36.950   7.731
 1502POPC   C1B23551  10.501  36.482   8.882
 1502POPC   C2B23552  10.728  36.608   8.504
 1502POPC   C3B23553  10.627  36.581   8.075
 1502POPC   C4B23554  10.868  36.613   7.678
 1503POPC   NC323555   6.986   7.680   9.418
 1503POPC   PO423556   6.507   7.145   9.304
 1503POPC   GL123557   6.523   7.526   9.168
 1503POPC   GL223558   6.817   7.459   8.975
 1503POPC   C1A23559   6.379   7.802   8.877
 1503POPC   D2A23560   6.315   7.812   8.425
 1503POPC   C3A23561   6.572   7.529   8.166
 1503POPC   C4A23562   6.554   7.414   7.743
 1503POPC   C1B23563   6.507   7.333   8.649
 1503POPC   C2B23564   6.382   6.968   8.375
 1503POPC   C3B23565   6.241   7.014   7.933
 1503POPC   C4B23566   6.196   6.874   7.496
 1504POPC   NC323567  31.858   1.482   9.495
 1504POPC   PO423568  31.207   1.273   9.479
 1504POPC   GL123569  31.413   1.436   9.191
 1504POPC   GL223570  31.646   1.223   9.106
 1504POPC   C1A23571  31.324   1.567   8.789
 1504POPC   D2A23572  31.110   1.421   8.414
 1504POPC   C3A23573  31.377   1.232   8.081
 1504POPC   C4A23574  31.363   1.108   7.611
 1504POPC   C1B23575  31.511   1.090   8.736
 1504POPC   C2B23576  31.659   0.892   8.391
 1504POPC   C3B23577  31.906   0.771   8.080
 1504POPC   C4B23578  31.678   0.715   7.745
 1505POPC   NC323579  44.031  20.860   9.516
 1505POPC   PO423580  43.987  20.215   9.363
 1505POPC   GL123581  44.066  20.568   9.098
 1505POPC   GL223582  43.796  20.856   9.064
 1505POPC   C1A23583  43.901  20.516   8.702
 1505POPC   D2A23584  43.754  20.706   8.326
 1505POPC   C3A23585  43.952  20.631   7.937
 1505POPC   C4A23586  44.180  20.394   7.609
 1505POPC   C1B23587  44.075  20.997   8.701
 1505POPC   C2B23588  44.117  21.069   8.245
 1505POPC   C3B23589  44.149  21.071   7.784
 1505POPC   C4B23590  43.842  20.902   7.450
 1506POPC   NC323591  40.306  14.006   9.343
 1506POPC   PO423592  39.800  14.495   9.450
 1506POPC   GL123593  39.950  14.315   9.113
 1506POPC   GL223594  40.272  14.456   9.091
 1506POPC   C1A23595  39.912  14.425   8.709
 1506POPC   D2A23596  40.111  14.460   8.331
 1506POPC   C3A23597  39.813  14.396   7.986
 1506POPC   C4A23598  39.867  14.239   7.559
 1506POPC   C1B23599  40.380  14.200   8.712
 1506POPC   C2B23600  40.442  14.028   8.296
 1506POPC   C3B23601  40.253  14.152   7.913
 1506POPC   C4B23602  40.275  14.507   7.613
 1507POPC   NC323603  11.470  10.450   9.637
 1507POPC   PO423604  10.847  10.570   9.548
 1507POPC   GL123605  11.194  10.561   9.221
 1507POPC   GL223606  11.445  10.851   9.256
 1507POPC   C1A23607  11.363  10.450   8.808
 1507POPC   D2A23608  11.199  10.269   8.409
 1507POPC   C3A23609  11.277  10.446   8.009
 1507POPC   C4A23610  11.557  10.345   7.666
 1507POPC   C1B23611  11.133  10.956   8.905
 1507POPC   C2B23612  11.034  10.769   8.490
 1507POPC   C3B23613  10.911  10.891   8.068
 1507POPC   C4B23614  11.060  10.794   7.678
 1508POPC   NC323615  13.372  27.481   9.310
 1508POPC   PO423616  13.878  27.860   9.568
 1508POPC   GL123617  13.904  27.787   9.102
 1508POPC   GL223618  13.659  28.013   8.956
 1508POPC   C1A23619  13.915  27.610   8.646
 1508POPC   D2A23620  13.615  27.386   8.330
 1508POPC   C3A23621  13.631  27.421   7.860
 1508POPC   C4A23622  13.918  27.139   7.631
 1508POPC   C1B23623  13.450  27.835   8.562
 1508POPC   C2B23624  13.540  27.861   8.109
 1508POPC   C3B23625  13.479  27.953   7.661
 1508POPC   C4B23626  13.309  27.869   7.221
 1509POPC   NC323627  27.344  44.498   9.718
 1509POPC   PO423628  27.787  44.983   9.496
 1509POPC   GL123629  27.532  44.709   9.263
 1509POPC   GL223630  27.578  44.332   9.280
 1509POPC   C1A23631  27.531  44.844   8.836
 1509POPC   D2A23632  27.690  44.829   8.442
 1509POPC   C3A23633  27.412  44.865   8.121
 1509POPC   C4A23634  27.471  44.761   7.721
 1509POPC   C1B23635  27.858  44.476   8.911
 1509POPC   C2B23636  27.920  44.372   8.501
 1509POPC   C3B23637  27.721  44.442   8.096
 1509POPC   C4B23638  27.843  44.417   7.689
 1510POPC   NC323639  10.027  40.134   9.549
 1510POPC   PO423640  10.646  39.979   9.496
 1510POPC   GL123641  10.584  39.784   9.119
 1510POPC   GL223642  10.317  39.997   9.067
 1510POPC   C1A23643  10.556  39.814   8.680
 1510POPC   D2A23644  10.407  40.140   8.487
 1510POPC   C3A23645  10.219  40.031   8.152
 1510POPC   C4A23646  10.307  40.042   7.716
 1510POPC   C1B23647  10.659  40.306   8.913
 1510POPC   C2B23648  10.788  40.461   8.497
 1510POPC   C3B23649  10.659  40.341   8.086
 1510POPC   C4B23650  10.829  40.094   7.777
 1511POPC   NC323651   8.709   5.909   9.660
 1511POPC   PO423652   7.994   5.771   9.572
 1511POPC   GL123653   8.052   5.981   9.203
 1511POPC   GL223654   8.285   5.729   9.093
 1511POPC   C1A23655   8.023   6.065   8.756
 1511POPC   D2A23656   8.211   5.795   8.462
 1511POPC   C3A23657   8.153   5.816   8.050
 1511POPC   C4A23658   7.980   6.108   7.770
 1511POPC   C1B23659   7.986   5.515   8.824
 1511POPC   C2B23660   7.913   5.377   8.395
 1511POPC   C3B23661   7.930   5.339   7.942
 1511POPC   C4B23662   7.953   5.627   7.582
 1512POPC   NC323663  26.064  29.414   9.609
 1512POPC   PO423664  25.924  28.776   9.567
 1512POPC   GL123665  25.980  29.085   9.207
 1512POPC   GL223666  25.780  29.409   9.151
 1512POPC   C1A23667  25.941  29.001   8.768
 1512POPC   D2A23668  25.985  29.151   8.353
 1512POPC   C3A23669  26.222  28.927   8.057
 1512POPC   C4A23670  26.122  28.984   7.656
 1512POPC   C1B23671  25.818  29.516   8.704
 1512POPC   C2B23672  25.871  29.658   8.271
 1512POPC   C3B23673  26.168  29.471   7.958
 1512POPC   C4B23674  26.065  29.455   7.499
 1513POPC   NC323675   7.918  33.191   9.423
 1513POPC   PO423676   8.288  32.651   9.482
 1513POPC   GL123677   8.241  32.899   9.117
 1513POPC   GL223678   8.455  33.196   9.030
 1513POPC   C1A23679   8.304  32.868   8.680
 1513POPC   D2A23680   8.463  33.129   8.382
 1513POPC   C3A23681   8.344  32.940   8.005
 1513POPC   C4A23682   8.273  33.091   7.596
 1513POPC   C1B23683   8.057  33.302   8.787
 1513POPC   C2B23684   7.932  33.162   8.375
 1513POPC   C3B23685   7.961  33.311   7.948
 1513POPC   C4B23686   7.823  33.262   7.472
 1514POPC   NC323687  16.324  10.669   9.440
 1514POPC   PO423688  16.962  10.402   9.459
 1514POPC   GL123689  16.739  10.548   9.130
 1514POPC   GL223690  16.692  10.210   9.006
 1514POPC   C1A23691  16.591  10.607   8.712
 1514POPC   D2A23692  16.631  10.464   8.308
 1514POPC   C3A23693  16.306  10.685   8.084
 1514POPC   C4A23694  16.172  10.500   7.722
 1514POPC   C1B23695  16.996  10.283   8.681
 1514POPC   C2B23696  17.089  10.055   8.306
 1514POPC   C3B23697  16.911  10.132   7.923
 1514POPC   C4B23698  16.697  10.501   7.791
 1515POPC   NC323699   6.922   8.485   9.639
 1515POPC   PO423700   7.102   8.032   9.138
 1515POPC   GL123701   7.450   8.369   9.031
 1515POPC   GL223702   7.781   8.352   9.125
 1515POPC   C1A23703   7.488   8.452   8.596
 1515POPC   D2A23704   7.674   8.299   8.244
 1515POPC   C3A23705   7.396   8.082   7.992
 1515POPC   C4A23706   7.258   8.223   7.638
 1515POPC   C1B23707   7.712   8.015   8.775
 1515POPC   C2B23708   7.612   7.816   8.380
 1515POPC   C3B23709   7.846   7.823   7.987
 1515POPC   C4B23710   7.668   7.906   7.577
 1516POPC   NC323711   6.599   6.774   9.567
 1516POPC   PO423712   7.157   7.161   9.651
 1516POPC   GL123713   6.968   6.910   9.215
 1516POPC   GL223714   6.814   6.541   9.159
 1516POPC   C1A23715   6.729   6.847   8.769
 1516POPC   D2A23716   6.838   6.647   8.371
 1516POPC   C3A23717   6.672   6.732   7.978
 1516POPC   C4A23718   6.404   6.404   7.800
 1516POPC   C1B23719   6.987   6.335   8.766
 1516POPC   C2B23720   7.152   6.251   8.345
 1516POPC   C3B23721   6.935   6.278   7.955
 1516POPC   C4B23722   6.899   6.481   7.560
 1517POPC   NC323723  21.456   4.795   9.565
 1517POPC   PO423724  21.371   5.456   9.546
 1517POPC   GL123725  21.647   5.338   9.178
 1517POPC   GL223726  21.463   5.053   9.138
 1517POPC   C1A23727  21.521   5.318   8.709
 1517POPC   D2A23728  21.153   5.294   8.399
 1517POPC   C3A23729  21.336   5.236   7.979
 1517POPC   C4A23730  21.613   5.490   7.728
 1517POPC   C1B23731  21.237   4.909   8.787
 1517POPC   C2B23732  21.372   4.844   8.355
 1517POPC   C3B23733  21.595   4.806   7.988
 1517POPC   C4B23734  21.493   4.951   7.548
 1518POPC   NC323735  31.731  19.354   9.394
 1518POPC   PO423736  31.247  18.982   9.685
 1518POPC   GL123737  31.355  18.761   9.237
 1518POPC   GL223738  31.700  18.854   9.193
 1518POPC   C1A23739  31.374  18.639   8.788
 1518POPC   D2A23740  31.268  18.794   8.383
 1518POPC   C3A23741  31.469  19.121   8.147
 1518POPC   C4A23742  31.273  19.279   7.765
 1518POPC   C1B23743  31.756  18.998   8.756
 1518POPC   C2B23744  31.783  18.735   8.408
 1518POPC   C3B23745  31.739  18.714   7.990
 1518POPC   C4B23746  31.733  19.037   7.706
 1519POPC   NC323747  27.148  26.551   9.695
 1519POPC   PO423748  26.650  26.959   9.514
 1519POPC   GL123749  26.784  26.681   9.237
 1519POPC   GL223750  26.710  26.965   9.000
 1519POPC   C1A23751  26.968  26.558   8.850
 1519POPC   D2A23752  26.874  26.833   8.514
 1519POPC   C3A23753  26.686  26.748   8.127
 1519POPC   C4A23754  26.962  26.593   7.812
 1519POPC   C1B23755  26.934  27.277   8.792
 1519POPC   C2B23756  27.117  27.319   8.412
 1519POPC   C3B23757  27.073  27.069   8.068
 1519POPC   C4B23758  27.136  27.073   7.669
 1520POPC   NC323759  30.477  32.222   9.570
 1520POPC   PO423760  31.211  32.272   9.546
 1520POPC   GL123761  30.921  31.979   9.261
 1520POPC   GL223762  30.520  31.882   9.194
 1520POPC   C1A23763  30.845  31.991   8.812
 1520POPC   D2A23764  30.641  32.340   8.549
 1520POPC   C3A23765  30.731  32.300   8.100
 1520POPC   C4A23766  30.794  32.093   7.721
 1520POPC   C1B23767  30.389  31.780   8.756
 1520POPC   C2B23768  30.517  31.872   8.320
 1520POPC   C3B23769  30.333  31.978   7.907
 1520POPC   C4B23770  30.206  32.361   7.739
 1521POPC   NC323771  40.492  21.096   9.348
 1521POPC   PO423772  40.612  21.751   9.499
 1521POPC   GL123773  40.844  21.570   9.143
 1521POPC   GL223774  40.962  21.216   9.066
 1521POPC   C1A23775  41.096  21.694   8.773
 1521POPC   D2A23776  41.145  21.629   8.327
 1521POPC   C3A23777  40.900  21.361   8.070
 1521POPC   C4A23778  41.086  21.053   7.823
 1521POPC   C1B23779  40.696  21.368   8.707
 1521POPC   C2B23780  40.419  21.338   8.338
 1521POPC   C3B23781  40.425  21.228   7.900
 1521POPC   C4B23782  40.676  21.320   7.522
 1522POPC   NC323783  23.810  43.712   9.413
 1522POPC   PO423784  23.301  43.954   9.704
 1522POPC   GL123785  23.359  43.879   9.226
 1522POPC   GL223786  23.593  44.115   9.205
 1522POPC   C1A23787  23.623  43.769   8.776
 1522POPC   D2A23788  23.719  43.771   8.305
 1522POPC   C3A23789  23.772  44.054   7.954
 1522POPC   C4A23790  23.754  43.798   7.595
 1522POPC   C1B23791  23.482  44.234   8.828
 1522POPC   C2B23792  23.710  44.267   8.465
 1522POPC   C3B23793  23.535  44.481   8.145
 1522POPC   C4B23794  23.376  44.416   7.754
 1523POPC   NC323795  24.093  35.464   9.426
 1523POPC   PO423796  23.585  35.057   9.540
 1523POPC   GL123797  23.568  35.170   9.115
 1523POPC   GL223798  23.347  34.918   9.068
 1523POPC   C1A23799  23.822  35.264   8.735
 1523POPC   D2A23800  23.981  35.371   8.317
 1523POPC   C3A23801  23.665  35.558   8.071
 1523POPC   C4A23802  23.636  35.523   7.649
 1523POPC   C1B23803  23.508  34.878   8.683
 1523POPC   C2B23804  23.551  35.094   8.305
 1523POPC   C3B23805  23.743  35.072   7.906
 1523POPC   C4B23806  23.671  35.055   7.443
 1524POPC   NC323807   0.553  24.202   9.678
 1524POPC   PO423808   0.009  23.800   9.617
 1524POPC   GL123809   0.042  23.667   9.124
 1524POPC   GL223810   0.352  23.790   9.088
 1524POPC   C1A23811   0.160  23.619   8.667
 1524POPC   D2A23812   0.518  23.397   8.488
 1524POPC   C3A23813   0.443  23.365   8.060
 1524POPC   C4A23814   0.187  23.649   7.840
 1524POPC   C1B23815   0.642  23.841   8.746
 1524POPC   C2B23816   0.755  23.972   8.329
 1524POPC   C3B23817   0.641  23.857   7.913
 1524POPC   C4B23818   0.509  23.941   7.465
 1525POPC   NC323819  24.298  24.721   9.576
 1525POPC   PO423820  24.876  24.674   9.422
 1525POPC   GL123821  24.534  24.546   9.136
 1525POPC   GL223822  24.343  24.846   9.091
 1525POPC   C1A23823  24.307  24.521   8.707
 1525POPC   D2A23824  24.203  24.677   8.285
 1525POPC   C3A23825  24.430  24.452   7.955
 1525POPC   C4A23826  24.621  24.358   7.531
 1525POPC   C1B23827  24.660  24.886   8.766
 1525POPC   C2B23828  24.716  24.765   8.318
 1525POPC   C3B23829  24.654  24.893   7.847
 1525POPC   C4B23830  24.774  24.833   7.397
 1526POPC   NC323831  25.603   1.447   9.462
 1526POPC   PO423832  25.070   1.102   9.476
 1526POPC   GL123833  25.263   1.260   9.096
 1526POPC   GL223834  25.612   1.371   8.976
 1526POPC   C1A23835  25.202   1.471   8.714
 1526POPC   D2A23836  25.482   1.300   8.406
 1526POPC   C3A23837  25.329   1.290   8.014
 1526POPC   C4A23838  25.102   1.403   7.675
 1526POPC   C1B23839  25.693   0.996   8.781
 1526POPC   C2B23840  25.750   0.822   8.384
 1526POPC   C3B23841  25.761   1.025   7.991
 1526POPC   C4B23842  25.571   1.189   7.566
 1527POPC   NC323843   5.249  17.464   9.688
 1527POPC   PO423844   4.666  17.616   9.435
 1527POPC   GL123845   4.942  17.451   9.166
 1527POPC   GL223846   5.148  17.738   9.140
 1527POPC   C1A23847   5.080  17.464   8.736
 1527POPC   D2A23848   5.098  17.766   8.401
 1527POPC   C3A23849   5.004  17.627   7.982
 1527POPC   C4A23850   5.125  17.346   7.660
 1527POPC   C1B23851   5.449  17.829   8.785
 1527POPC   C2B23852   5.558  17.940   8.344
 1527POPC   C3B23853   5.494  17.756   7.936
 1527POPC   C4B23854   5.269  17.818   7.555
 1528POPC   NC323855   0.647  18.334   9.419
 1528POPC   PO423856   0.034  18.302   9.673
 1528POPC   GL123857   0.172  18.151   9.211
 1528POPC   GL223858   0.508  17.955   9.115
 1528POPC   C1A23859   0.321  18.286   8.758
 1528POPC   D2A23860   0.132  18.378   8.383
 1528POPC   C3A23861   0.332  18.412   8.025
 1528POPC   C4A23862   0.107  18.566   7.710
 1528POPC   C1B23863   0.800  18.147   8.744
 1528POPC   C2B23864   0.731  18.267   8.284
 1528POPC   C3B23865   0.775  18.354   7.806
 1528POPC   C4B23866   0.859  18.145   7.405
 1529POPC   NC323867  20.752   6.158   9.527
 1529POPC   PO423868  20.469   6.724   9.613
 1529POPC   GL123869  20.623   6.724   9.216
 1529POPC   GL223870  21.016   6.745   9.201
 1529POPC   C1A23871  20.360   6.598   8.861
 1529POPC   D2A23872  20.353   6.771   8.440
 1529POPC   C3A23873  20.593   6.551   8.132
 1529POPC   C4A23874  20.462   6.509   7.723
 1529POPC   C1B23875  20.867   6.663   8.782
 1529POPC   C2B23876  20.882   6.884   8.424
 1529POPC   C3B23877  21.028   7.001   8.048
 1529POPC   C4B23878  20.918   6.735   7.741
 1530POPC   NC323879  40.026  11.037   9.612
 1530POPC   PO423880  39.678  11.503   9.352
 1530POPC   GL123881  39.702  11.392   8.951
 1530POPC   GL223882  39.917  11.130   9.049
 1530POPC   C1A23883  39.865  11.528   8.537
 1530POPC   D2A23884  40.131  11.289   8.209
 1530POPC   C3A23885  40.007  11.374   7.791
 1530POPC   C4A23886  39.656  11.624   7.661
 1530POPC   C1B23887  40.180  11.138   8.703
 1530POPC   C2B23888  40.324  10.852   8.377
 1530POPC   C3B23889  40.225  10.792   7.939
 1530POPC   C4B23890  40.151  10.969   7.483
 1531POPC   NC323891  38.648  36.079   9.851
 1531POPC   PO423892  38.049  36.167   9.589
 1531POPC   GL123893  38.308  36.010   9.250
 1531POPC   GL223894  38.659  36.147   9.277
 1531POPC   C1A23895  38.506  35.827   8.892
 1531POPC   D2A23896  38.575  36.022   8.489
 1531POPC   C3A23897  38.517  35.881   8.087
 1531POPC   C4A23898  38.631  35.744   7.704
 1531POPC   C1B23899  38.558  36.349   8.881
 1531POPC   C2B23900  38.593  36.554   8.515
 1531POPC   C3B23901  38.532  36.390   8.126
 1531POPC   C4B23902  38.593  36.262   7.726
 1532POPC   NC323903  38.695  17.376   9.525
 1532POPC   PO423904  39.348  17.790   9.519
 1532POPC   GL123905  39.345  17.580   9.134
 1532POPC   GL223906  39.055  17.368   9.159
 1532POPC   C1A23907  39.262  17.719   8.717
 1532POPC   D2A23908  39.100  17.531   8.336
 1532POPC   C3A23909  39.424  17.449   8.020
 1532POPC   C4A23910  39.540  17.636   7.616
 1532POPC   C1B23911  39.208  17.209   8.779
 1532POPC   C2B23912  39.127  17.007   8.415
 1532POPC   C3B23913  39.011  17.123   8.022
 1532POPC   C4B23914  39.125  17.308   7.647
 1533POPC   NC323915  21.705  28.285   9.374
 1533POPC   PO423916  22.290  28.312   9.562
 1533POPC   GL123917  22.307  28.406   9.154
 1533POPC   GL223918  21.979  28.535   9.032
 1533POPC   C1A23919  22.340  28.338   8.710
 1533POPC   D2A23920  22.006  28.549   8.500
 1533POPC   C3A23921  21.949  28.528   8.050
 1533POPC   C4A23922  22.122  28.337   7.681
 1533POPC   C1B23923  21.863  28.126   8.762
 1533POPC   C2B23924  21.774  27.927   8.347
 1533POPC   C3B23925  21.762  28.034   7.889
 1533POPC   C4B23926  21.629  28.358   7.563
 1534POPC   NC323927   1.241  27.305   9.424
 1534POPC   PO423928   0.934  27.853   9.475
 1534POPC   GL123929   1.021  27.670   9.106
 1534POPC   GL223930   1.360  27.709   9.039
 1534POPC   C1A23931   0.981  27.465   8.746
 1534POPC   D2A23932   1.126  27.428   8.327
 1534POPC   C3A23933   1.212  27.662   7.966
 1534POPC   C4A23934   1.246  27.411   7.599
 1534POPC   C1B23935   1.502  27.455   8.684
 1534POPC   C2B23936   1.616  27.262   8.283
 1534POPC   C3B23937   1.723  27.467   7.879
 1534POPC   C4B23938   1.676  27.763   7.512
 1535POPC   NC323939  39.964  24.694   9.370
 1535POPC   PO423940  40.197  24.121   9.534
 1535POPC   GL123941  39.950  24.245   9.108
 1535POPC   GL223942  39.699  24.532   8.991
 1535POPC   C1A23943  40.056  24.420   8.660
 1535POPC   D2A23944  40.075  24.216   8.239
 1535POPC   C3A23945  40.279  24.430   7.881
 1535POPC   C4A23946  40.258  24.413   7.382
 1535POPC   C1B23947  39.499  24.563   8.631
 1535POPC   C2B23948  39.698  24.580   8.252
 1535POPC   C3B23949  39.789  24.476   7.836
 1535POPC   C4B23950  39.926  24.764   7.499
 1536POPC   NC323951  18.755  28.859   9.470
 1536POPC   PO423952  19.198  29.381   9.666
 1536POPC   GL123953  19.136  29.201   9.231
 1536POPC   GL223954  18.881  29.029   8.999
 1536POPC   C1A23955  19.357  29.147   8.848
 1536POPC   D2A23956  19.112  29.142   8.476
 1536POPC   C3A23957  19.286  28.897   8.119
 1536POPC   C4A23958  19.108  28.885   7.675
 1536POPC   C1B23959  18.674  28.815   8.638
 1536POPC   C2B23960  18.753  28.759   8.213
 1536POPC   C3B23961  18.854  29.135   8.018
 1536POPC   C4B23962  18.718  29.459   7.826
 1537POPC   NC323963  42.993  12.310   9.382
 1537POPC   PO423964  42.695  11.847   9.699
 1537POPC   GL123965  42.815  11.859   9.225
 1537POPC   GL223966  43.149  11.837   9.160
 1537POPC   C1A23967  42.875  12.084   8.787
 1537POPC   D2A23968  43.069  12.194   8.376
 1537POPC   C3A23969  42.837  12.048   8.014
 1537POPC   C4A23970  42.833  12.077   7.615
 1537POPC   C1B23971  43.279  11.742   8.731
 1537POPC   C2B23972  43.492  11.873   8.357
 1537POPC   C3B23973  43.514  12.224   8.093
 1537POPC   C4B23974  43.285  12.198   7.750
 1538POPC   NC323975  43.596   6.734   9.403
 1538POPC   PO423976  44.015   6.221   9.419
 1538POPC   GL123977  44.032   6.609   9.175
 1538POPC   GL223978  44.283   6.868   9.220
 1538POPC   C1A23979  43.908   6.871   8.830
 1538POPC   D2A23980  43.905   6.775   8.443
 1538POPC   C3A23981  43.685   6.943   8.109
 1538POPC   C4A23982  43.687   6.727   7.708
 1538POPC   C1B23983  44.395   6.634   8.818
 1538POPC   C2B23984  44.336   6.470   8.389
 1538POPC   C3B23985  44.129   6.644   8.013
 1538POPC   C4B23986  44.159   6.580   7.590
 1539POPC   NC323987  31.895  10.557   9.381
 1539POPC   PO423988  31.317  10.233   9.777
 1539POPC   GL123989  31.333  10.211   9.264
 1539POPC   GL223990  31.562  10.423   9.053
 1539POPC   C1A23991  31.210  10.198   8.806
 1539POPC   D2A23992  31.430  10.394   8.432
 1539POPC   C3A23993  31.255  10.475   8.012
 1539POPC   C4A23994  31.085  10.180   7.729
 1539POPC   C1B23995  31.830  10.629   8.726
 1539POPC   C2B23996  31.758  10.769   8.290
 1539POPC   C3B23997  31.784  10.481   7.947
 1539POPC   C4B23998  32.017  10.461   7.558
 1540POPC   NC323999  11.861  24.452   9.596
 1540POPC   PO424000  12.318  24.870   9.586
 1540POPC   GL124001  12.208  24.610   9.202
 1540POPC   GL224002  11.865  24.614   9.120
 1540POPC   C1A24003  12.245  24.417   8.781
 1540POPC   D2A24004  12.248  24.180   8.381
 1540POPC   C3A24005  12.172  24.354   7.985
 1540POPC   C4A24006  12.288  24.614   7.647
 1540POPC   C1B24007  11.745  24.302   8.800
 1540POPC   C2B24008  11.749  24.145   8.423
 1540POPC   C3B24009  11.674  24.307   8.042
 1540POPC   C4B24010  11.817  24.099   7.685
 1541POPC   NC324011  17.013  21.996   9.730
 1541POPC   PO424012  16.662  22.488   9.425
 1541POPC   GL124013  16.868  22.267   9.096
 1541POPC   GL224014  17.100  22.032   9.215
 1541POPC   C1A24015  16.692  22.213   8.700
 1541POPC   D2A24016  16.419  21.993   8.401
 1541POPC   C3A24017  16.510  22.062   7.962
 1541POPC   C4A24018  16.841  22.218   7.659
 1541POPC   C1B24019  17.134  21.910   8.771
 1541POPC   C2B24020  16.950  21.958   8.337
 1541POPC   C3B24021  16.929  21.752   7.947
 1541POPC   C4B24022  16.946  21.753   7.452
 1542POPC   NC324023   1.290  23.538   9.547
 1542POPC   PO424024   0.668  23.789   9.487
 1542POPC   GL124025   0.955  23.676   9.101
 1542POPC   GL224026   1.317  23.741   9.083
 1542POPC   C1A24027   1.118  23.724   8.621
 1542POPC   D2A24028   1.262  24.020   8.281
 1542POPC   C3A24029   1.134  24.011   7.880
 1542POPC   C4A24030   1.012  23.696   7.614
 1542POPC   C1B24031   1.360  23.343   8.882
 1542POPC   C2B24032   1.284  23.256   8.452
 1542POPC   C3B24033   1.230  23.521   8.099
 1542POPC   C4B24034   1.444  23.468   7.716
 1543POPC   NC324035  35.039  24.241   9.574
 1543POPC   PO424036  35.484  24.731   9.460
 1543POPC   GL124037  35.549  24.606   9.033
 1543POPC   GL224038  35.401  24.923   8.912
 1543POPC   C1A24039  35.430  24.223   8.791
 1543POPC   D2A24040  35.332  24.179   8.361
 1543POPC   C3A24041  35.407  24.549   8.099
 1543POPC   C4A24042  35.613  24.250   7.868
 1543POPC   C1B24043  35.202  24.654   8.575
 1543POPC   C2B24044  34.913  24.439   8.249
 1543POPC   C3B24045  34.999  24.441   7.817
 1543POPC   C4B24046  35.240  24.755   7.601
 1544POPC   NC324047  10.340  17.685   9.510
 1544POPC   PO424048  10.503  17.006   9.565
 1544POPC   GL124049  10.634  17.310   9.228
 1544POPC   GL224050  10.315  17.371   9.125
 1544POPC   C1A24051  10.643  17.538   8.775
 1544POPC   D2A24052  10.631  17.886   8.431
 1544POPC   C3A24053  10.706  17.801   7.962
 1544POPC   C4A24054  10.445  17.760   7.570
 1544POPC   C1B24055  10.119  17.215   8.784
 1544POPC   C2B24056  10.287  17.081   8.415
 1544POPC   C3B24057  10.462  17.336   8.082
 1544POPC   C4B24058  10.144  17.351   7.773
 1545POPC   NC324059  41.641  34.000   9.440
 1545POPC   PO424060  41.280  33.450   9.425
 1545POPC   GL124061  41.204  33.800   9.160
 1545POPC   GL224062  41.025  33.639   8.880
 1545POPC   C1A24063  41.380  34.031   8.791
 1545POPC   D2A24064  41.523  33.889   8.355
 1545POPC   C3A24065  41.432  34.087   7.923
 1545POPC   C4A24066  41.528  34.127   7.447
 1545POPC   C1B24067  41.454  33.522   8.821
 1545POPC   C2B24068  41.739  33.450   8.546
 1545POPC   C3B24069  41.738  33.458   8.104
 1545POPC   C4B24070  41.625  33.645   7.715
 1546POPC   NC324071   0.019   3.911   9.533
 1546POPC   PO424072  44.530   3.349   9.503
 1546POPC   GL124073  44.602   3.397   9.131
 1546POPC   GL224074  44.724   3.717   9.141
 1546POPC   C1A24075  44.593   3.215   8.745
 1546POPC   D2A24076  44.568   3.062   8.318
 1546POPC   C3A24077  44.322   3.317   8.008
 1546POPC   C4A24078  44.364   3.600   7.658
 1546POPC   C1B24079  44.851   3.802   8.717
 1546POPC   C2B24080  44.902   3.819   8.239
 1546POPC   C3B24081  44.858   3.605   7.837
 1546POPC   C4B24082   0.056   3.696   7.411
 1547POPC   NC324083   2.311  35.966   9.783
 1547POPC   PO424084   2.864  36.283   9.548
 1547POPC   GL124085   3.052  36.138   9.201
 1547POPC   GL224086   2.781  36.237   9.021
 1547POPC   C1A24087   3.151  36.070   8.756
 1547POPC   D2A24088   2.990  36.288   8.398
 1547POPC   C3A24089   3.121  36.153   7.996
 1547POPC   C4A24090   3.147  36.339   7.623
 1547POPC   C1B24091   2.646  35.993   8.658
 1547POPC   C2B24092   2.512  36.189   8.277
 1547POPC   C3B24093   2.574  36.309   7.884
 1547POPC   C4B24094   2.311  36.177   7.559
 1548POPC   NC324095  22.611   3.422   9.762
 1548POPC   PO424096  21.999   3.592   9.516
 1548POPC   GL124097  22.096   3.661   9.090
 1548POPC   GL224098  21.805   3.897   9.065
 1548POPC   C1A24099  22.287   3.433   8.709
 1548POPC   D2A24100  22.137   3.174   8.373
 1548POPC   C3A24101  22.116   3.315   7.960
 1548POPC   C4A24102  22.421   3.620   7.870
 1548POPC   C1B24103  21.843   3.674   8.642
 1548POPC   C2B24104  22.064   3.721   8.265
 1548POPC   C3B24105  21.927   3.797   7.843
 1548POPC   C4B24106  21.831   4.088   7.493
 1549POPC   NC324107  44.970  21.196   9.587
 1549POPC   PO424108  44.411  21.618   9.520
 1549POPC   GL124109  44.627  21.390   9.205
 1549POPC   GL224110  44.627  21.652   8.977
 1549POPC   C1A24111  44.556  21.174   8.808
 1549POPC   D2A24112  44.597  21.012   8.414
 1549POPC   C3A24113  44.574  21.245   8.051
 1549POPC   C4A24114  44.647  21.129   7.651
 1549POPC   C1B24115  44.985  21.447   8.823
 1549POPC   C2B24116  44.849  21.465   8.426
 1549POPC   C3B24117   0.006  21.527   8.032
 1549POPC   C4B24118  44.894  21.597   7.628
 1550POPC   NC324119  26.607  25.722   9.550
 1550POPC   PO424120  26.766  26.324   9.650
 1550POPC   GL124121  26.617  26.181   9.216
 1550POPC   GL224122  26.875  25.945   9.182
 1550POPC   C1A24123  26.703  26.133   8.749
 1550POPC   D2A24124  26.915  26.302   8.376
 1550POPC   C3A24125  26.680  26.206   8.021
 1550POPC   C4A24126  26.570  25.976   7.687
 1550POPC   C1B24127  27.104  25.805   8.814
 1550POPC   C2B24128  26.967  25.775   8.397
 1550POPC   C3B24129  26.992  25.797   7.964
 1550POPC   C4B24130  27.185  26.124   7.795
 1551POPC   NC324131  14.923   8.285   9.534
 1551POPC   PO424132  15.523   8.026   9.515
 1551POPC   GL124133  15.295   8.209   9.155
 1551POPC   GL224134  15.029   8.435   9.042
 1551POPC   C1A24135  15.444   8.250   8.736
 1551POPC   D2A24136  15.341   7.955   8.385
 1551POPC   C3A24137  15.311   8.126   7.955
 1551POPC   C4A24138  15.353   8.543   7.756
 1551POPC   C1B24139  14.935   8.191   8.682
 1551POPC   C2B24140  14.854   8.135   8.245
 1551POPC   C3B24141  14.814   8.254   7.831
 1551POPC   C4B24142  14.838   8.616   7.575
 1552POPC   NC324143  18.785   7.304   9.598
 1552POPC   PO424144  18.813   8.005   9.518
 1552POPC   GL124145  18.893   7.785   9.145
 1552POPC   GL224146  19.212   7.820   9.015
 1552POPC   C1A24147  18.884   7.522   8.763
 1552POPC   D2A24148  18.709   7.426   8.364
 1552POPC   C3A24149  18.938   7.494   7.995
 1552POPC   C4A24150  19.048   7.194   7.645
 1552POPC   C1B24151  19.362   7.671   8.652
 1552POPC   C2B24152  19.326   7.386   8.331
 1552POPC   C3B24153  19.460   7.387   7.907
 1552POPC   C4B24154  19.270   7.692   7.672
 1553POPC   NC324155  39.574  35.527   9.562
 1553POPC   PO424156  40.267  35.527   9.517
 1553POPC   GL124157  39.940  35.409   9.231
 1553POPC   GL224158  39.694  35.644   9.073
 1553POPC   C1A24159  39.851  35.170   8.886
 1553POPC   D2A24160  40.091  35.029   8.518
 1553POPC   C3A24161  39.946  35.325   8.181
 1553POPC   C4A24162  39.768  35.258   7.794
 1553POPC   C1B24163  39.479  35.856   8.719
 1553POPC   C2B24164  39.508  35.640   8.291
 1553POPC   C3B24165  39.508  35.699   7.837
 1553POPC   C4B24166  39.826  35.644   7.481
 1554POPC   NC324167  20.015   9.344   9.382
 1554POPC   PO424168  19.964   9.972   9.402
 1554POPC   GL124169  19.923   9.729   9.062
 1554POPC   GL224170  19.627   9.533   9.016
 1554POPC   C1A24171  19.918   9.681   8.643
 1554POPC   D2A24172  19.802   9.928   8.310
 1554POPC   C3A24173  20.037   9.946   7.942
 1554POPC   C4A24174  20.179   9.715   7.597
 1554POPC   C1B24175  19.607   9.284   8.590
 1554POPC   C2B24176  19.846   9.440   8.199
 1554POPC   C3B24177  19.741   9.507   7.764
 1554POPC   C4B24178  19.889   9.343   7.366
 1555POPC   NC324179  37.532  25.793   9.398
 1555POPC   PO424180  37.856  26.317   9.754
 1555POPC   GL124181  37.921  26.186   9.282
 1555POPC   GL224182  37.633  26.307   9.124
 1555POPC   C1A24183  38.005  26.114   8.775
 1555POPC   D2A24184  37.948  26.198   8.270
 1555POPC   C3A24185  37.874  25.886   7.874
 1555POPC   C4A24186  37.981  25.992   7.408
 1555POPC   C1B24187  37.482  26.018   8.769
 1555POPC   C2B24188  37.511  25.933   8.324
 1555POPC   C3B24189  37.461  26.173   7.955
 1555POPC   C4B24190  37.272  26.177   7.551
 1556POPC   NC324191  32.323  33.225   9.436
 1556POPC   PO424192  32.150  32.615   9.591
 1556POPC   GL124193  32.174  32.819   9.173
 1556POPC   GL224194  31.918  33.084   9.138
 1556POPC   C1A24195  32.408  32.950   8.793
 1556POPC   D2A24196  32.577  32.707   8.412
 1556POPC   C3A24197  32.348  32.806   8.028
 1556POPC   C4A24198  32.410  33.175   7.796
 1556POPC   C1B24199  31.966  33.226   8.713
 1556POPC   C2B24200  31.987  32.971   8.343
 1556POPC   C3B24201  31.901  33.021   7.884
 1556POPC   C4B24202  31.731  33.024   7.467
 1557POPC   NC324203   4.221  32.714   9.779
 1557POPC   PO424204   4.536  33.119   9.423
 1557POPC   GL124205   4.494  32.979   9.036
 1557POPC   GL224206   4.189  32.849   9.099
 1557POPC   C1A24207   4.403  33.151   8.661
 1557POPC   D2A24208   4.316  33.166   8.239
 1557POPC   C3A24209   4.580  33.120   7.884
 1557POPC   C4A24210   4.264  33.307   7.585
 1557POPC   C1B24211   4.167  32.644   8.709
 1557POPC   C2B24212   4.010  32.754   8.288
 1557POPC   C3B24213   4.156  32.845   7.845
 1557POPC   C4B24214   4.387  32.847   7.438
 1558POPC   NC324215  42.935  26.664   9.563
 1558POPC   PO424216  43.604  26.826   9.539
 1558POPC   GL124217  43.288  26.850   9.216
 1558POPC   GL224218  43.063  27.132   9.284
 1558POPC   C1A24219  43.045  26.765   8.816
 1558POPC   D2A24220  42.834  26.758   8.396
 1558POPC   C3A24221  43.015  26.619   7.995
 1558POPC   C4A24222  43.257  26.591   7.599
 1558POPC   C1B24223  43.228  27.257   8.882
 1558POPC   C2B24224  43.236  27.287   8.455
 1558POPC   C3B24225  43.037  27.142   8.096
 1558POPC   C4B24226  43.126  27.076   7.685
 1559POPC   NC324227  41.525  12.731   9.489
 1559POPC   PO424228  41.325  13.360   9.351
 1559POPC   GL124229  41.392  13.030   9.062
 1559POPC   GL224230  41.253  12.685   9.043
 1559POPC   C1A24231  41.454  12.990   8.633
 1559POPC   D2A24232  41.671  12.781   8.316
 1559POPC   C3A24233  41.523  12.934   7.928
 1559POPC   C4A24234  41.431  13.321   7.785
 1559POPC   C1B24235  41.239  12.471   8.629
 1559POPC   C2B24236  41.257  12.506   8.153
 1559POPC   C3B24237  41.595  12.451   7.866
 1559POPC   C4B24238  41.683  12.615   7.494
 1560POPC   NC324239  22.414   5.977   9.456
 1560POPC   PO424240  21.839   6.169   9.716
 1560POPC   GL124241  21.872   6.044   9.235
 1560POPC   GL224242  22.036   5.725   9.176
 1560POPC   C1A24243  22.063   6.130   8.793
 1560POPC   D2A24244  22.235   6.084   8.406
 1560POPC   C3A24245  21.940   5.900   8.131
 1560POPC   C4A24246  21.963   5.882   7.703
 1560POPC   C1B24247  22.144   5.640   8.740
 1560POPC   C2B24248  22.326   5.582   8.329
 1560POPC   C3B24249  22.407   5.775   7.928
 1560POPC   C4B24250  22.313   5.547   7.538
 1561POPC   NC324251  23.435  16.757   9.463
 1561POPC   PO424252  24.085  16.808   9.390
 1561POPC   GL124253  23.929  16.574   9.059
 1561POPC   GL224254  23.645  16.797   9.002
 1561POPC   C1A24255  23.853  16.578   8.600
 1561POPC   D2A24256  23.910  16.778   8.247
 1561POPC   C3A24257  23.743  16.527   7.903
 1561POPC   C4A24258  23.941  16.534   7.488
 1561POPC   C1B24259  23.765  17.083   8.661
 1561POPC   C2B24260  23.637  17.196   8.225
 1561POPC   C3B24261  23.771  17.007   7.796
 1561POPC   C4B24262  23.532  16.878   7.431
 1562POPC   NC324263  41.096   0.408   9.539
 1562POPC   PO424264  40.491   0.393   9.753
 1562POPC   GL124265  40.616   0.478   9.275
 1562POPC   GL224266  40.501   0.764   9.060
 1562POPC   C1A24267  40.782   0.291   8.881
 1562POPC   D2A24268  41.025   0.347   8.497
 1562POPC   C3A24269  40.833   0.239   8.104
 1562POPC   C4A24270  40.850   0.210   7.665
 1562POPC   C1B24271  40.528   0.643   8.598
 1562POPC   C2B24272  40.551   0.692   8.126
 1562POPC   C3B24273  40.426   0.510   7.723
 1562POPC   C4B24274  40.373   0.440   7.230
 1563POPC   NC324275   7.834  12.890   9.265
 1563POPC   PO424276   8.406  13.079   9.538
 1563POPC   GL124277   8.345  12.862   9.139
 1563POPC   GL224278   8.174  12.530   9.082
 1563POPC   C1A24279   8.224  12.868   8.694
 1563POPC   D2A24280   8.352  12.676   8.310
 1563POPC   C3A24281   8.239  12.952   7.935
 1563POPC   C4A24282   8.099  12.837   7.511
 1563POPC   C1B24283   8.290  12.320   8.709
 1563POPC   C2B24284   7.976  12.282   8.387
 1563POPC   C3B24285   8.020  12.456   7.986
 1563POPC   C4B24286   8.401  12.493   7.795
 1564POPC   NC324287  13.747  12.036   9.734
 1564POPC   PO424288  13.186  11.700   9.448
 1564POPC   GL124289  13.488  11.783   9.097
 1564POPC   GL224290  13.721  12.088   9.147
 1564POPC   C1A24291  13.484  11.881   8.643
 1564POPC   D2A24292  13.684  12.055   8.259
 1564POPC   C3A24293  13.400  12.158   7.913
 1564POPC   C4A24294  13.460  12.066   7.471
 1564POPC   C1B24295  13.783  12.315   8.728
 1564POPC   C2B24296  14.064  12.447   8.399
 1564POPC   C3B24297  14.063  12.278   7.989
 1564POPC   C4B24298  13.822  12.405   7.638
 1565POPC   NC324299  24.021  27.892   9.449
 1565POPC   PO424300  23.412  27.552   9.449
 1565POPC   GL124301  23.598  27.615   9.071
 1565POPC   GL224302  23.427  27.913   9.010
 1565POPC   C1A24303  23.963  27.763   8.801
 1565POPC   D2A24304  24.064  27.950   8.376
 1565POPC   C3A24305  23.998  27.686   8.001
 1565POPC   C4A24306  23.666  27.409   7.814
 1565POPC   C1B24307  23.512  27.803   8.596
 1565POPC   C2B24308  23.567  27.940   8.202
 1565POPC   C3B24309  23.394  27.831   7.803
 1565POPC   C4B24310  23.326  28.012   7.411
 1566POPC   NC324311  34.152   7.720   9.446
 1566POPC   PO424312  33.790   8.290   9.493
 1566POPC   GL124313  33.766   7.976   9.184
 1566POPC   GL224314  34.055   8.098   9.076
 1566POPC   C1A24315  33.712   7.919   8.770
 1566POPC   D2A24316  33.950   7.949   8.392
 1566POPC   C3A24317  33.731   8.166   8.061
 1566POPC   C4A24318  33.557   8.343   7.691
 1566POPC   C1B24319  34.036   8.370   8.673
 1566POPC   C2B24320  33.923   8.614   8.290
 1566POPC   C3B24321  34.024   8.531   7.852
 1566POPC   C4B24322  34.018   8.149   7.610
 1567POPC   NC324323   2.328  29.461   9.471
 1567POPC   PO424324   2.727  30.076   9.578
 1567POPC   GL124325   2.642  30.128   9.156
 1567POPC   GL224326   2.370  29.880   9.128
 1567POPC   C1A24327   2.916  30.142   8.801
 1567POPC   D2A24328   2.998  29.865   8.438
 1567POPC   C3A24329   2.799  29.924   8.031
 1567POPC   C4A24330   2.796  30.107   7.634
 1567POPC   C1B24331   2.515  29.845   8.687
 1567POPC   C2B24332   2.386  29.713   8.257
 1567POPC   C3B24333   2.491  29.532   7.819
 1567POPC   C4B24334   2.689  29.632   7.430
 1568POPC   NC324335   3.974   2.496   9.394
 1568POPC   PO424336   3.452   2.909   9.561
 1568POPC   GL124337   3.579   2.802   9.179
 1568POPC   GL224338   3.529   2.457   9.105
 1568POPC   C1A24339   3.692   2.871   8.762
 1568POPC   D2A24340   3.615   2.620   8.419
 1568POPC   C3A24341   3.784   2.713   8.036
 1568POPC   C4A24342   3.560   3.005   7.817
 1568POPC   C1B24343   3.221   2.617   8.795
 1568POPC   C2B24344   3.129   2.419   8.386
 1568POPC   C3B24345   3.234   2.613   8.019
 1568POPC   C4B24346   3.373   2.537   7.624
 1569POPC   NC324347   5.832  43.586   9.496
 1569POPC   PO424348   6.093  42.916   9.579
 1569POPC   GL124349   5.841  43.121   9.263
 1569POPC   GL224350   6.019  43.359   9.059
 1569POPC   C1A24351   5.545  43.174   8.897
 1569POPC   D2A24352   5.617  43.002   8.469
 1569POPC   C3A24353   5.599  43.249   8.096
 1569POPC   C4A24354   5.907  43.347   7.779
 1569POPC   C1B24355   6.005  42.991   8.800
 1569POPC   C2B24356   6.121  42.835   8.425
 1569POPC   C3B24357   5.948  42.871   8.044
 1569POPC   C4B24358   6.202  42.911   7.727
 1570POPC   NC324359  11.516  23.014   9.484
 1570POPC   PO424360  10.983  22.629   9.593
 1570POPC   GL124361  11.094  22.855   9.210
 1570POPC   GL224362  10.886  23.146   9.084
 1570POPC   C1A24363  11.336  22.947   8.817
 1570POPC   D2A24364  11.668  22.889   8.476
 1570POPC   C3A24365  11.527  22.821   8.034
 1570POPC   C4A24366  11.179  22.599   7.786
 1570POPC   C1B24367  11.016  23.312   8.676
 1570POPC   C2B24368  11.245  23.184   8.324
 1570POPC   C3B24369  11.108  23.091   7.913
 1570POPC   C4B24370  11.172  23.194   7.482
 1571POPC   NC324371  21.040  32.842   9.496
 1571POPC   PO424372  20.488  33.162   9.565
 1571POPC   GL124373  20.687  33.035   9.176
 1571POPC   GL224374  21.004  33.226   9.140
 1571POPC   C1A24375  20.540  32.797   8.773
 1571POPC   D2A24376  20.405  32.685   8.349
 1571POPC   C3A24377  20.330  33.058   8.096
 1571POPC   C4A24378  20.478  33.109   7.660
 1571POPC   C1B24379  20.984  33.056   8.752
 1571POPC   C2B24380  20.786  33.030   8.360
 1571POPC   C3B24381  20.768  33.300   8.009
 1571POPC   C4B24382  20.933  33.327   7.593
 1572POPC   NC324383  38.591  41.155   9.623
 1572POPC   PO424384  38.575  40.520   9.520
 1572POPC   GL124385  38.510  40.826   9.198
 1572POPC   GL224386  38.195  41.008   9.301
 1572POPC   C1A24387  38.543  40.695   8.738
 1572POPC   D2A24388  38.732  40.725   8.304
 1572POPC   C3A24389  38.436  40.737   7.957
 1572POPC   C4A24390  38.059  40.500   7.798
 1572POPC   C1B24391  38.218  41.075   8.843
 1572POPC   C2B24392  38.159  40.840   8.421
 1572POPC   C3B24393  37.998  40.994   8.026
 1572POPC   C4B24394  38.178  41.101   7.640
 1573POPC   NC324395  34.624   6.153   9.529
 1573POPC   PO424396  34.401   5.592   9.675
 1573POPC   GL124397  34.437   5.831   9.182
 1573POPC   GL224398  34.716   6.038   9.068
 1573POPC   C1A24399  34.482   5.830   8.697
 1573POPC   D2A24400  34.547   6.106   8.344
 1573POPC   C3A24401  34.440   5.828   8.046
 1573POPC   C4A24402  34.268   5.692   7.686
 1573POPC   C1B24403  34.942   6.132   8.722
 1573POPC   C2B24404  35.065   5.785   8.474
 1573POPC   C3B24405  34.935   5.675   8.074
 1573POPC   C4B24406  34.761   5.743   7.653
 1574POPC   NC324407  12.211  42.351   9.550
 1574POPC   PO424408  11.581  42.118   9.522
 1574POPC   GL124409  11.840  42.420   9.225
 1574POPC   GL224410  12.165  42.219   9.077
 1574POPC   C1A24411  11.944  42.625   8.831
 1574POPC   D2A24412  11.840  42.490   8.401
 1574POPC   C3A24413  12.031  42.634   8.025
 1574POPC   C4A24414  12.041  42.398   7.646
 1574POPC   C1B24415  11.817  42.034   8.900
 1574POPC   C2B24416  11.766  41.974   8.474
 1574POPC   C3B24417  11.980  42.069   8.083
 1574POPC   C4B24418  11.896  41.888   7.699
 1575POPC   NC324419  16.538  21.141   9.522
 1575POPC   PO424420  16.975  21.595   9.518
 1575POPC   GL124421  16.798  21.622   9.132
 1575POPC   GL224422  16.625  21.321   9.056
 1575POPC   C1A24423  16.667  21.700   8.737
 1575POPC   D2A24424  16.734  21.491   8.397
 1575POPC   C3A24425  16.464  21.566   8.097
 1575POPC   C4A24426  16.591  21.490   7.695
 1575POPC   C1B24427  16.601  21.075   8.694
 1575POPC   C2B24428  16.529  21.037   8.276
 1575POPC   C3B24429  16.369  21.109   7.930
 1575POPC   C4B24430  16.350  21.084   7.501
 1576POPC   NC324431  14.457  10.545   9.683
 1576POPC   PO424432  13.995  10.192   9.288
 1576POPC   GL124433  14.468  10.390   9.180
 1576POPC   GL224434  14.715  10.672   9.123
 1576POPC   C1A24435  14.497  10.385   8.733
 1576POPC   D2A24436  14.509  10.087   8.397
 1576POPC   C3A24437  14.455  10.207   7.973
 1576POPC   C4A24438  14.101  10.260   7.702
 1576POPC   C1B24439  14.662  10.882   8.731
 1576POPC   C2B24440  14.318  10.832   8.456
 1576POPC   C3B24441  14.290  10.703   8.043
 1576POPC   C4B24442  14.343  10.779   7.622
 1577POPC   NC324443  13.991  21.186   9.499
 1577POPC   PO424444  13.270  21.069   9.588
 1577POPC   GL124445  13.556  21.286   9.273
 1577POPC   GL224446  13.765  21.589   9.219
 1577POPC   C1A24447  13.731  21.187   8.857
 1577POPC   D2A24448  13.581  21.325   8.463
 1577POPC   C3A24449  13.773  21.315   8.054
 1577POPC   C4A24450  13.799  21.385   7.611
 1577POPC   C1B24451  13.829  21.670   8.765
 1577POPC   C2B24452  13.835  21.760   8.330
 1577POPC   C3B24453  13.862  21.810   7.887
 1577POPC   C4B24454  13.968  21.948   7.465
 1578POPC   NC324455  42.638  22.594   9.447
 1578POPC   PO424456  42.187  22.165   9.579
 1578POPC   GL124457  42.239  21.996   9.173
 1578POPC   GL224458  42.520  22.202   9.130
 1578POPC   C1A24459  42.351  21.955   8.727
 1578POPC   D2A24460  42.088  21.872   8.383
 1578POPC   C3A24461  42.259  22.032   8.011
 1578POPC   C4A24462  42.262  21.859   7.630
 1578POPC   C1B24463  42.744  22.349   8.748
 1578POPC   C2B24464  42.777  22.375   8.294
 1578POPC   C3B24465  42.462  22.503   7.998
 1578POPC   C4B24466  42.368  22.366   7.577
 1579POPC   NC324467   4.159  12.776  10.189
 1579POPC   PO424468   4.511  12.586   9.764
 1579POPC   GL124469   4.500  12.808   9.267
 1579POPC   GL224470   4.838  12.963   9.146
 1579POPC   C1A24471   4.506  12.957   8.763
 1579POPC   D2A24472   4.590  13.073   8.286
 1579POPC   C3A24473   4.277  12.944   7.948
 1579POPC   C4A24474   3.940  12.790   7.639
 1579POPC   C1B24475   4.893  12.626   8.795
 1579POPC   C2B24476   4.898  12.679   8.315
 1579POPC   C3B24477   4.729  12.734   7.872
 1579POPC   C4B24478   4.715  12.412   7.513
 1580POPC   NC324479  22.029  32.947   9.603
 1580POPC   PO424480  21.355  33.199   9.518
 1580POPC   GL124481  21.511  33.141   9.112
 1580POPC   GL224482  21.343  32.804   9.073
 1580POPC   C1A24483  21.474  33.169   8.661
 1580POPC   D2A24484  21.289  32.875   8.355
 1580POPC   C3A24485  21.139  32.974   7.954
 1580POPC   C4A24486  21.131  32.860   7.523
 1580POPC   C1B24487  21.595  32.680   8.729
 1580POPC   C2B24488  21.791  32.743   8.326
 1580POPC   C3B24489  21.590  32.759   7.901
 1580POPC   C4B24490  21.676  32.801   7.456
 1581POPC   NC324491  27.288   8.630   9.580
 1581POPC   PO424492  27.693   8.166   9.520
 1581POPC   GL124493  27.527   8.003   9.135
 1581POPC   GL224494  27.170   7.904   9.189
 1581POPC   C1A24495  27.680   7.868   8.737
 1581POPC   D2A24496  27.795   8.012   8.315
 1581POPC   C3A24497  27.585   8.085   7.941
 1581POPC   C4A24498  27.899   8.402   7.804
 1581POPC   C1B24499  27.219   8.191   8.790
 1581POPC   C2B24500  27.209   8.290   8.327
 1581POPC   C3B24501  27.235   8.472   7.895
 1581POPC   C4B24502  27.199   8.324   7.460
 1582POPC   NC324503   7.174  17.865   9.300
 1582POPC   PO424504   7.321  17.223   9.452
 1582POPC   GL124505   7.552  17.239   9.072
 1582POPC   GL224506   7.471  17.582   9.003
 1582POPC   C1A24507   7.731  17.302   8.672
 1582POPC   D2A24508   7.609  17.653   8.408
 1582POPC   C3A24509   7.552  17.583   7.983
 1582POPC   C4A24510   7.302  17.304   7.781
 1582POPC   C1B24511   7.134  17.636   8.694
 1582POPC   C2B24512   7.088  17.522   8.294
 1582POPC   C3B24513   7.095  17.799   7.972
 1582POPC   C4B24514   7.222  17.752   7.565
 1583POPC   NC324515   8.519  41.121   9.519
 1583POPC   PO424516   8.369  41.799   9.485
 1583POPC   GL124517   8.309  41.547   9.109
 1583POPC   GL224518   8.144  41.231   9.134
 1583POPC   C1A24519   8.098  41.574   8.712
 1583POPC   D2A24520   7.978  41.871   8.425
 1583POPC   C3A24521   7.958  41.705   8.084
 1583POPC   C4A24522   8.163  41.874   7.778
 1583POPC   C1B24523   8.211  41.072   8.724
 1583POPC   C2B24524   8.493  41.303   8.441
 1583POPC   C3B24525   8.424  41.496   8.051
 1583POPC   C4B24526   8.099  41.280   7.824
 1584POPC   NC324527  22.036  42.431   9.547
 1584POPC   PO424528  22.533  42.039   9.470
 1584POPC   GL124529  22.340  42.345   9.122
 1584POPC   GL224530  22.040  42.552   9.060
 1584POPC   C1A24531  22.362  42.411   8.660
 1584POPC   D2A24532  22.645  42.291   8.306
 1584POPC   C3A24533  22.443  42.208   7.913
 1584POPC   C4A24534  22.136  42.521   7.830
 1584POPC   C1B24535  21.866  42.094   9.004
 1584POPC   C2B24536  21.832  41.923   8.584
 1584POPC   C3B24537  21.981  42.138   8.213
 1584POPC   C4B24538  21.995  41.981   7.806
 1585POPC   NC324539  36.339  35.576   9.373
 1585POPC   PO424540  36.151  36.285   9.524
 1585POPC   GL124541  36.167  36.008   9.159
 1585POPC   GL224542  36.506  36.018   9.030
 1585POPC   C1A24543  35.971  35.932   8.753
 1585POPC   D2A24544  36.117  35.859   8.305
 1585POPC   C3A24545  36.030  36.168   7.978
 1585POPC   C4A24546  36.344  36.518   7.856
 1585POPC   C1B24547  36.426  35.721   8.695
 1585POPC   C2B24548  36.627  35.711   8.258
 1585POPC   C3B24549  36.366  35.792   7.867
 1585POPC   C4B24550  35.916  35.648   7.877
 1586POPC   NC324551   0.855  25.849   9.611
 1586POPC   PO424552   1.437  26.202   9.562
 1586POPC   GL124553   1.133  26.106   9.218
 1586POPC   GL224554   1.026  25.746   9.161
 1586POPC   C1A24555   1.146  26.238   8.779
 1586POPC   D2A24556   0.959  26.174   8.369
 1586POPC   C3A24557   0.997  26.292   7.936
 1586POPC   C4A24558   1.013  26.104   7.506
 1586POPC   C1B24559   0.886  25.773   8.768
 1586POPC   C2B24560   1.052  25.692   8.379
 1586POPC   C3B24561   1.096  25.785   7.964
 1586POPC   C4B24562   1.304  25.567   7.677
 1587POPC   NC324563  35.600  33.408   9.580
 1587POPC   PO424564  35.239  33.939   9.467
 1587POPC   GL124565  35.310  33.842   9.073
 1587POPC   GL224566  35.358  33.523   9.086
 1587POPC   C1A24567  35.341  34.073   8.708
 1587POPC   D2A24568  35.651  34.187   8.396
 1587POPC   C3A24569  35.506  34.208   7.977
 1587POPC   C4A24570  35.565  34.059   7.566
 1587POPC   C1B24571  35.465  33.569   8.640
 1587POPC   C2B24572  35.408  33.761   8.235
 1587POPC   C3B24573  35.345  33.641   7.826
 1587POPC   C4B24574  35.007  33.446   7.645
 1588POPC   NC324575   2.543  44.333   9.548
 1588POPC   PO424576   3.157  44.467   9.529
 1588POPC   GL124577   2.924  44.674   9.178
 1588POPC   GL224578   2.654  44.526   9.103
 1588POPC   C1A24579   2.979  44.796   8.740
 1588POPC   D2A24580   2.787   0.047   8.405
 1588POPC   C3A24581   2.772  44.858   7.971
 1588POPC   C4A24582   2.882  44.811   7.550
 1588POPC   C1B24583   2.491  44.670   8.736
 1588POPC   C2B24584   2.642  44.537   8.344
 1588POPC   C3B24585   2.439  44.389   7.994
 1588POPC   C4B24586   2.292  44.671   7.703
 1589POPC   NC324587  17.463  14.228   9.577
 1589POPC   PO424588  17.271  14.706   9.340
 1589POPC   GL124589  17.260  14.385   9.023
 1589POPC   GL224590  17.587  14.297   8.973
 1589POPC   C1A24591  17.284  14.272   8.562
 1589POPC   D2A24592  17.646  14.337   8.294
 1589POPC   C3A24593  17.624  14.447   7.861
 1589POPC   C4A24594  17.926  14.631   7.529
 1589POPC   C1B24595  17.577  14.696   8.686
 1589POPC   C2B24596  17.742  14.879   8.279
 1589POPC   C3B24597  17.652  14.950   7.833
 1589POPC   C4B24598  17.408  14.734   7.484
 1590POPC   NC324599  14.143   7.308   9.590
 1590POPC   PO424600  14.699   7.759   9.518
 1590POPC   GL124601  14.522   7.505   9.144
 1590POPC   GL224602  14.556   7.114   9.138
 1590POPC   C1A24603  14.261   7.445   8.737
 1590POPC   D2A24604  14.087   7.212   8.348
 1590POPC   C3A24605  14.190   7.449   7.961
 1590POPC   C4A24606  14.386   7.507   7.534
 1590POPC   C1B24607  14.759   7.267   8.753
 1590POPC   C2B24608  14.595   7.323   8.342
 1590POPC   C3B24609  14.674   7.309   7.928
 1590POPC   C4B24610  14.869   7.336   7.548
 1591POPC   NC324611  19.490  36.109  10.125
 1591POPC   PO424612  19.971  36.397   9.704
 1591POPC   GL124613  19.719  36.250   9.304
 1591POPC   GL224614  19.859  36.021   9.064
 1591POPC   C1A24615  19.510  36.272   8.831
 1591POPC   D2A24616  19.397  36.095   8.385
 1591POPC   C3A24617  19.633  36.231   7.950
 1591POPC   C4A24618  20.100  36.105   7.821
 1591POPC   C1B24619  19.782  35.840   8.646
 1591POPC   C2B24620  19.842  35.860   8.204
 1591POPC   C3B24621  19.826  35.680   7.789
 1591POPC   C4B24622  20.206  35.741   7.490
 1592POPC   NC324623  28.692  41.360   9.627
 1592POPC   PO424624  28.254  41.840   9.613
 1592POPC   GL124625  28.442  41.866   9.209
 1592POPC   GL224626  28.778  41.812   9.297
 1592POPC   C1A24627  28.318  41.756   8.769
 1592POPC   D2A24628  28.441  41.418   8.452
 1592POPC   C3A24629  28.292  41.446   8.014
 1592POPC   C4A24630  28.020  41.683   7.714
 1592POPC   C1B24631  28.815  41.663   8.860
 1592POPC   C2B24632  28.714  41.844   8.439
 1592POPC   C3B24633  28.548  41.904   8.027
 1592POPC   C4B24634  28.523  41.699   7.637
 1593POPC   NC324635  32.503  19.064   9.548
 1593POPC   PO424636  31.999  18.659   9.604
 1593POPC   GL124637  32.212  18.727   9.249
 1593POPC   GL224638  32.176  19.108   9.139
 1593POPC   C1A24639  32.154  18.703   8.838
 1593POPC   D2A24640  32.206  19.010   8.502
 1593POPC   C3A24641  32.196  18.832   8.095
 1593POPC   C4A24642  32.207  18.854   7.613
 1593POPC   C1B24643  32.488  19.302   8.843
 1593POPC   C2B24644  32.520  19.403   8.374
 1593POPC   C3B24645  32.377  19.266   7.920
 1593POPC   C4B24646  32.111  19.385   7.557
 1594POPC   NC324647  14.762   4.971   9.480
 1594POPC   PO424648  14.034   4.975   9.638
 1594POPC   GL124649  14.137   4.973   9.234
 1594POPC   GL224650  14.412   5.167   9.159
 1594POPC   C1A24651  14.168   4.819   8.833
 1594POPC   D2A24652  14.251   4.730   8.419
 1594POPC   C3A24653  14.456   5.068   8.191
 1594POPC   C4A24654  14.342   5.190   7.748
 1594POPC   C1B24655  14.501   5.235   8.720
 1594POPC   C2B24656  14.339   5.583   8.482
 1594POPC   C3B24657  14.104   5.577   8.110
 1594POPC   C4B24658  14.141   5.649   7.686
 1595POPC   NC324659   3.158   6.315   9.465
 1595POPC   PO424660   2.634   6.791   9.465
 1595POPC   GL124661   2.854   6.712   9.098
 1595POPC   GL224662   2.774   6.333   9.104
 1595POPC   C1A24663   2.877   6.789   8.641
 1595POPC   D2A24664   2.726   6.532   8.304
 1595POPC   C3A24665   2.796   6.742   7.953
 1595POPC   C4A24666   3.185   6.914   7.828
 1595POPC   C1B24667   3.107   6.366   8.803
 1595POPC   C2B24668   3.235   6.406   8.375
 1595POPC   C3B24669   3.161   6.405   7.916
 1595POPC   C4B24670   2.740   6.310   7.709
 1596POPC   NC324671  11.641  20.828   9.858
 1596POPC   PO424672  11.241  20.402   9.468
 1596POPC   GL124673  11.034  20.422   9.076
 1596POPC   GL224674  11.125  20.077   9.052
 1596POPC   C1A24675  11.223  20.591   8.693
 1596POPC   D2A24676  11.536  20.762   8.427
 1596POPC   C3A24677  11.253  20.679   8.100
 1596POPC   C4A24678  11.176  20.681   7.670
 1596POPC   C1B24679  11.078  20.093   8.627
 1596POPC   C2B24680  10.929  20.352   8.313
 1596POPC   C3B24681  10.921  20.309   7.900
 1596POPC   C4B24682  10.921  19.981   7.622
 1597POPC   NC324683  20.516  41.114   9.732
 1597POPC   PO424684  20.971  41.550   9.502
 1597POPC   GL124685  21.038  41.541   9.079
 1597POPC   GL224686  20.719  41.385   9.056
 1597POPC   C1A24687  20.866  41.821   8.737
 1597POPC   D2A24688  20.721  41.909   8.297
 1597POPC   C3A24689  20.616  41.713   7.901
 1597POPC   C4A24690  20.608  41.597   7.463
 1597POPC   C1B24691  20.821  41.332   8.615
 1597POPC   C2B24692  20.917  41.418   8.188
 1597POPC   C3B24693  20.700  41.218   7.819
 1597POPC   C4B24694  20.707  40.926   7.488
 1598POPC   NC324695  27.583   2.535   9.299
 1598POPC   PO424696  27.889   3.097   9.282
 1598POPC   GL124697  27.755   2.856   8.967
 1598POPC   GL224698  27.396   2.877   8.963
 1598POPC   C1A24699  27.821   2.692   8.567
 1598POPC   D2A24700  28.014   2.616   8.182
 1598POPC   C3A24701  27.643   2.625   7.923
 1598POPC   C4A24702  27.505   3.052   7.861
 1598POPC   C1B24703  27.216   2.572   8.667
 1598POPC   C2B24704  26.951   2.470   8.324
 1598POPC   C3B24705  27.136   2.444   7.929
 1598POPC   C4B24706  27.242   2.701   7.580
 1599POPC   NC324707  29.034  29.143   9.520
 1599POPC   PO424708  29.384  29.796   9.554
 1599POPC   GL124709  29.399  29.444   9.183
 1599POPC   GL224710  29.416  29.047   9.177
 1599POPC   C1A24711  29.346  29.316   8.720
 1599POPC   D2A24712  29.383  29.537   8.314
 1599POPC   C3A24713  29.175  29.325   7.996
 1599POPC   C4A24714  29.228  29.366   7.590
 1599POPC   C1B24715  29.029  28.971   8.893
 1599POPC   C2B24716  28.999  28.916   8.440
 1599POPC   C3B24717  29.122  28.814   8.004
 1599POPC   C4B24718  29.260  28.865   7.560
 1600POPC   NC324719   6.440  12.365   9.501
 1600POPC   PO424720   6.747  12.992   9.450
 1600POPC   GL124721   6.680  12.871   9.055
 1600POPC   GL224722   6.421  12.619   9.048
 1600POPC   C1A24723   6.800  12.969   8.650
 1600POPC   D2A24724   6.615  13.020   8.269
 1600POPC   C3A24725   6.822  13.067   7.877
 1600POPC   C4A24726   6.480  13.048   7.659
 1600POPC   C1B24727   6.390  12.666   8.616
 1600POPC   C2B24728   6.705  12.514   8.353
 1600POPC   C3B24729   6.652  12.604   7.933
 1600POPC   C4B24730   6.240  12.583   7.712
 1601POPC   NC324731  35.579  22.017   9.686
 1601POPC   PO424732  34.934  22.010   9.635
 1601POPC   GL124733  35.238  22.196   9.342
 1601POPC   GL224734  35.332  21.870   9.263
 1601POPC   C1A24735  35.522  22.286   8.975
 1601POPC   D2A24736  35.584  22.185   8.523
 1601POPC   C3A24737  35.356  22.307   8.184
 1601POPC   C4A24738  35.486  22.259   7.754
 1601POPC   C1B24739  35.306  21.832   8.820
 1601POPC   C2B24740  35.112  21.865   8.379
 1601POPC   C3B24741  35.112  21.918   7.920
 1601POPC   C4B24742  34.991  21.720   7.528
 1602POPC   NC324743  23.812  34.768   9.278
 1602POPC   PO424744  23.827  34.110   9.328
 1602POPC   GL124745  23.798  34.357   8.981
 1602POPC   GL224746  23.475  34.425   9.056
 1602POPC   C1A24747  23.917  34.608   8.624
 1602POPC   D2A24748  23.663  34.583   8.264
 1602POPC   C3A24749  23.882  34.540   7.928
 1602POPC   C4A24750  24.091  34.812   7.644
 1602POPC   C1B24751  23.370  34.396   8.653
 1602POPC   C2B24752  23.296  34.177   8.277
 1602POPC   C3B24753  23.427  34.294   7.892
 1602POPC   C4B24754  23.419  34.707   7.726
 1603POPC   NC324755   0.792   8.690   9.280
 1603POPC   PO424756   1.066   9.259   9.573
 1603POPC   GL124757   1.199   9.028   9.207
 1603POPC   GL224758   0.917   9.096   9.016
 1603POPC   C1A24759   1.380   8.946   8.795
 1603POPC   D2A24760   1.328   8.639   8.444
 1603POPC   C3A24761   1.133   8.784   8.092
 1603POPC   C4A24762   1.233   8.801   7.674
 1603POPC   C1B24763   0.919   8.922   8.602
 1603POPC   C2B24764   0.923   9.210   8.260
 1603POPC   C3B24765   1.142   9.257   7.888
 1603POPC   C4B24766   0.812   9.083   7.685
 1604POPC   NC324767  43.333  43.422   9.346
 1604POPC   PO424768  42.938  43.255   9.802
 1604POPC   GL124769  43.056  43.043   9.251
 1604POPC   GL224770  43.378  42.959   9.133
 1604POPC   C1A24771  42.996  42.895   8.800
 1604POPC   D2A24772  43.147  42.892   8.383
 1604POPC   C3A24773  43.046  43.019   7.953
 1604POPC   C4A24774  42.959  43.405   7.651
 1604POPC   C1B24775  43.476  43.172   8.720
 1604POPC   C2B24776  43.455  43.280   8.274
 1604POPC   C3B24777  43.418  43.352   7.868
 1604POPC   C4B24778  43.638  43.191   7.549
 1605POPC   NC324779   9.901  11.549   9.468
 1605POPC   PO424780   9.482  10.994   9.501
 1605POPC   GL124781   9.653  11.202   9.139
 1605POPC   GL224782  10.040  11.243   9.087
 1605POPC   C1A24783   9.718  11.283   8.701
 1605POPC   D2A24784   9.480  11.273   8.355
 1605POPC   C3A24785   9.627  11.377   7.977
 1605POPC   C4A24786   9.351  11.365   7.625
 1605POPC   C1B24787  10.127  11.015   8.666
 1605POPC   C2B24788   9.965  11.072   8.258
 1605POPC   C3B24789   9.891  10.951   7.843
 1605POPC   C4B24790   9.844  11.303   7.527
 1606POPC   NC324791   4.003   9.976   9.594
 1606POPC   PO424792   3.428   9.746   9.824
 1606POPC   GL124793   3.383   9.584   9.357
 1606POPC   GL224794   3.713   9.551   9.182
 1606POPC   C1A24795   3.254   9.591   8.875
 1606POPC   D2A24796   3.208   9.432   8.432
 1606POPC   C3A24797   3.285   9.706   8.077
 1606POPC   C4A24798   3.544  10.003   7.868
 1606POPC   C1B24799   3.673   9.322   8.765
 1606POPC   C2B24800   3.586   9.086   8.389
 1606POPC   C3B24801   3.603   9.300   7.996
 1606POPC   C4B24802   3.819   9.360   7.605
 1607POPC   NC324803  25.926  33.894   9.549
 1607POPC   PO424804  26.510  33.536   9.643
 1607POPC   GL124805  26.252  33.655   9.236
 1607POPC   GL224806  26.247  34.024   9.190
 1607POPC   C1A24807  25.926  33.716   8.876
 1607POPC   D2A24808  25.708  33.669   8.458
 1607POPC   C3A24809  25.856  33.833   8.066
 1607POPC   C4A24810  25.968  33.921   7.646
 1607POPC   C1B24811  26.180  34.128   8.782
 1607POPC   C2B24812  26.241  33.879   8.413
 1607POPC   C3B24813  26.316  34.059   8.008
 1607POPC   C4B24814  26.061  34.396   7.807
 1608POPC   NC324815  15.496   4.290   9.533
 1608POPC   PO424816  14.959   4.605   9.650
 1608POPC   GL124817  14.999   4.586   9.184
 1608POPC   GL224818  15.250   4.352   9.113
 1608POPC   C1A24819  14.876   4.272   8.808
 1608POPC   D2A24820  15.153   4.218   8.454
 1608POPC   C3A24821  15.000   4.219   8.038
 1608POPC   C4A24822  14.765   4.331   7.660
 1608POPC   C1B24823  15.265   4.620   8.763
 1608POPC   C2B24824  15.548   4.599   8.424
 1608POPC   C3B24825  15.508   4.423   8.032
 1608POPC   C4B24826  15.262   4.487   7.666
 1609POPC   NC324827  13.131   3.746   9.438
 1609POPC   PO424828  12.798   3.186   9.486
 1609POPC   GL124829  12.670   3.466   9.147
 1609POPC   GL224830  12.962   3.657   8.971
 1609POPC   C1A24831  12.602   3.422   8.705
 1609POPC   D2A24832  12.952   3.484   8.439
 1609POPC   C3A24833  12.776   3.697   8.127
 1609POPC   C4A24834  12.728   3.493   7.772
 1609POPC   C1B24835  13.296   3.816   8.671
 1609POPC   C2B24836  13.458   3.622   8.299
 1609POPC   C3B24837  13.228   3.551   7.927
 1609POPC   C4B24838  13.062   3.926   7.760
 1610POPC   NC324839  40.596  43.355   9.586
 1610POPC   PO424840  41.039  42.893   9.612
 1610POPC   GL124841  40.874  43.127   9.231
 1610POPC   GL224842  40.504  42.980   9.255
 1610POPC   C1A24843  40.907  43.382   8.829
 1610POPC   D2A24844  40.864  43.173   8.463
 1610POPC   C3A24845  40.732  43.276   8.087
 1610POPC   C4A24846  40.948  43.213   7.714
 1610POPC   C1B24847  40.493  43.085   8.837
 1610POPC   C2B24848  40.396  42.955   8.401
 1610POPC   C3B24849  40.242  43.108   8.011
 1610POPC   C4B24850  40.519  42.971   7.679
 1611POPC   NC324851  36.974  39.092   9.738
 1611POPC   PO424852  37.269  39.633   9.544
 1611POPC   GL124853  37.078  39.400   9.184
 1611POPC   GL224854  37.079  39.039   9.114
 1611POPC   C1A24855  37.004  39.400   8.716
 1611POPC   D2A24856  36.831  39.250   8.291
 1611POPC   C3A24857  36.890  39.540   7.928
 1611POPC   C4A24858  36.698  39.761   7.572
 1611POPC   C1B24859  37.149  38.928   8.634
 1611POPC   C2B24860  37.350  39.208   8.314
 1611POPC   C3B24861  37.212  39.145   7.892
 1611POPC   C4B24862  36.986  38.910   7.545
 1612POPC   NC324863  30.407  31.416   9.514
 1612POPC   PO424864  31.074  31.286   9.510
 1612POPC   GL124865  30.806  31.470   9.168
 1612POPC   GL224866  30.461  31.346   9.033
 1612POPC   C1A24867  30.815  31.448   8.708
 1612POPC   D2A24868  30.991  31.663   8.403
 1612POPC   C3A24869  30.980  31.472   8.018
 1612POPC   C4A24870  30.917  31.596   7.563
 1612POPC   C1B24871  30.285  31.277   8.640
 1612POPC   C2B24872  30.405  31.388   8.247
 1612POPC   C3B24873  30.503  31.506   7.838
 1612POPC   C4B24874  30.436  31.298   7.450
 1613POPC   NC324875  11.016   7.422   9.485
 1613POPC   PO424876  11.681   7.648   9.559
 1613POPC   GL124877  11.461   7.467   9.227
 1613POPC   GL224878  11.226   7.193   9.064
 1613POPC   C1A24879  11.531   7.553   8.821
 1613POPC   D2A24880  11.399   7.484   8.424
 1613POPC   C3A24881  11.606   7.570   8.046
 1613POPC   C4A24882  11.419   7.337   7.735
 1613POPC   C1B24883  11.012   7.185   8.640
 1613POPC   C2B24884  11.021   7.269   8.185
 1613POPC   C3B24885  11.085   7.654   8.025
 1613POPC   C4B24886  10.975   7.543   7.632
 1614POPC   NC324887   0.756  19.082   9.435
 1614POPC   PO424888   0.313  18.652   9.272
 1614POPC   GL124889   0.472  18.970   9.020
 1614POPC   GL224890   0.439  19.286   9.098
 1614POPC   C1A24891   0.672  19.059   8.654
 1614POPC   D2A24892   0.513  18.748   8.400
 1614POPC   C3A24893   0.311  18.911   8.054
 1614POPC   C4A24894   0.571  18.825   7.714
 1614POPC   C1B24895   0.214  19.358   8.754
 1614POPC   C2B24896   0.389  19.392   8.369
 1614POPC   C3B24897   0.707  19.233   8.112
 1614POPC   C4B24898   0.541  19.319   7.703
 1615POPC   NC324899  37.298  25.185   9.566
 1615POPC   PO424900  36.781  25.612   9.706
 1615POPC   GL124901  36.734  25.356   9.278
 1615POPC   GL224902  37.016  25.253   9.100
 1615POPC   C1A24903  36.675  25.512   8.807
 1615POPC   D2A24904  36.616  25.436   8.375
 1615POPC   C3A24905  36.924  25.463   8.071
 1615POPC   C4A24906  36.762  25.399   7.655
 1615POPC   C1B24907  36.817  25.036   8.719
 1615POPC   C2B24908  36.944  24.943   8.285
 1615POPC   C3B24909  37.117  25.020   7.856
 1615POPC   C4B24910  37.119  25.116   7.409
 1616POPC   NC324911  12.039   9.931   9.602
 1616POPC   PO424912  12.340   9.350   9.630
 1616POPC   GL124913  12.086   9.525   9.267
 1616POPC   GL224914  12.226   9.852   9.131
 1616POPC   C1A24915  11.888   9.585   8.840
 1616POPC   D2A24916  12.032   9.853   8.503
 1616POPC   C3A24917  12.064   9.658   8.075
 1616POPC   C4A24918  12.381   9.684   7.733
 1616POPC   C1B24919  11.838  10.086   8.927
 1616POPC   C2B24920  11.719  10.249   8.458
 1616POPC   C3B24921  11.933  10.156   8.029
 1616POPC   C4B24922  11.913   9.906   7.628
 1617POPC   NC324923  40.959  14.983   9.346
 1617POPC   PO424924  41.061  15.588   9.445
 1617POPC   GL124925  40.735  15.408   9.125
 1617POPC   GL224926  40.467  15.144   9.205
 1617POPC   C1A24927  40.776  15.195   8.714
 1617POPC   D2A24928  40.779  15.013   8.274
 1617POPC   C3A24929  40.963  15.186   7.862
 1617POPC   C4A24930  40.944  15.118   7.369
 1617POPC   C1B24931  40.279  15.363   8.830
 1617POPC   C2B24932  40.437  15.409   8.390
 1617POPC   C3B24933  40.423  15.208   7.986
 1617POPC   C4B24934  40.528  15.322   7.578
 1618POPC   NC324935  24.629  27.196   9.474
 1618POPC   PO424936  24.491  27.858   9.404
 1618POPC   GL124937  24.627  27.810   9.042
 1618POPC   GL224938  24.772  27.464   9.055
 1618POPC   C1A24939  24.448  27.875   8.713
 1618POPC   D2A24940  24.613  27.779   8.397
 1618POPC   C3A24941  24.499  27.873   8.020
 1618POPC   C4A24942  24.760  27.707   7.713
 1618POPC   C1B24943  24.333  27.398   8.903
 1618POPC   C2B24944  24.233  27.446   8.474
 1618POPC   C3B24945  24.486  27.359   8.134
 1618POPC   C4B24946  24.352  27.403   7.753
 1619POPC   NC324947  35.310  35.383   9.488
 1619POPC   PO424948  35.590  34.843   9.584
 1619POPC   GL124949  35.450  35.003   9.147
 1619POPC   GL224950  35.185  35.232   9.029
 1619POPC   C1A24951  35.613  35.138   8.721
 1619POPC   D2A24952  35.542  35.353   8.306
 1619POPC   C3A24953  35.607  35.234   7.870
 1619POPC   C4A24954  35.588  35.500   7.484
 1619POPC   C1B24955  35.115  35.107   8.634
 1619POPC   C2B24956  35.059  35.251   8.226
 1619POPC   C3B24957  35.121  35.006   7.877
 1619POPC   C4B24958  35.201  35.076   7.465
 1620POPC   NC324959   1.872  26.418   9.554
 1620POPC   PO424960   1.410  26.884   9.453
 1620POPC   GL124961   1.767  26.890   9.154
 1620POPC   GL224962   2.111  26.709   9.167
 1620POPC   C1A24963   1.844  27.054   8.731
 1620POPC   D2A24964   2.105  26.951   8.374
 1620POPC   C3A24965   1.964  26.955   7.965
 1620POPC   C4A24966   2.140  27.188   7.631
 1620POPC   C1B24967   2.034  26.575   8.726
 1620POPC   C2B24968   1.998  26.446   8.270
 1620POPC   C3B24969   1.958  26.454   7.834
 1620POPC   C4B24970   1.928  26.251   7.445
 1621POPC   NC324971  32.727  12.608   9.317
 1621POPC   PO424972  32.666  13.315   9.495
 1621POPC   GL124973  32.794  13.085   9.158
 1621POPC   GL224974  33.125  12.890   9.173
 1621POPC   C1A24975  32.846  12.924   8.748
 1621POPC   D2A24976  32.836  12.691   8.389
 1621POPC   C3A24977  32.756  13.013   8.125
 1621POPC   C4A24978  32.894  13.084   7.694
 1621POPC   C1B24979  33.240  12.599   8.785
 1621POPC   C2B24980  33.323  12.511   8.338
 1621POPC   C3B24981  33.170  12.738   7.969
 1621POPC   C4B24982  33.321  12.712   7.545
 1622POPC   NC324983  20.516  43.450   9.746
 1622POPC   PO424984  21.000  43.193   9.599
 1622POPC   GL124985  20.798  43.358   9.241
 1622POPC   GL224986  20.448  43.407   9.228
 1622POPC   C1A24987  20.836  43.096   8.867
 1622POPC   D2A24988  20.867  42.842   8.482
 1622POPC   C3A24989  20.775  43.042   8.085
 1622POPC   C4A24990  20.512  42.924   7.768
 1622POPC   C1B24991  20.582  43.510   8.772
 1622POPC   C2B24992  20.509  43.402   8.344
 1622POPC   C3B24993  20.324  43.366   7.940
 1622POPC   C4B24994  20.351  43.318   7.491
 1623POPC   NC324995  23.403  12.061   9.536
 1623POPC   PO424996  23.882  12.193   9.297
 1623POPC   GL124997  23.519  12.110   9.009
 1623POPC   GL224998  23.336  12.382   9.127
 1623POPC   C1A24999  23.471  12.045   8.533
 1623POPC   D2A25000  23.496  12.021   8.059
 1623POPC   C3A25001  23.904  12.012   7.840
 1623POPC   C4A25002  24.209  11.940   7.526
 1623POPC   C1B25003  23.216  12.455   8.699
 1623POPC   C2B25004  23.073  12.291   8.298
 1623POPC   C3B25005  23.199  12.388   7.876
 1623POPC   C4B25006  23.612  12.458   7.751
 1624POPC   NC325007   5.414  15.403   9.511
 1624POPC   PO425008   5.156  16.097   9.502
 1624POPC   GL125009   5.323  15.986   9.111
 1624POPC   GL225010   5.024  16.035   8.923
 1624POPC   C1A25011   5.482  16.062   8.697
 1624POPC   D2A25012   5.154  15.995   8.408
 1624POPC   C3A25013   5.352  15.873   8.056
 1624POPC   C4A25014   5.370  16.047   7.670
 1624POPC   C1B25015   4.721  16.236   8.617
 1624POPC   C2B25016   4.708  16.194   8.153
 1624POPC   C3B25017   4.885  15.903   7.820
 1624POPC   C4B25018   4.847  15.614   7.450
 1625POPC   NC325019  13.836  33.604   9.616
 1625POPC   PO425020  13.893  32.913   9.641
 1625POPC   GL125021  13.675  33.092   9.252
 1625POPC   GL225022  13.665  33.442   9.173
 1625POPC   C1A25023  13.629  32.876   8.826
 1625POPC   D2A25024  13.679  32.637   8.397
 1625POPC   C3A25025  13.524  32.855   8.021
 1625POPC   C4A25026  13.476  32.768   7.580
 1625POPC   C1B25027  13.956  33.301   8.867
 1625POPC   C2B25028  13.939  33.124   8.467
 1625POPC   C3B25029  13.850  33.268   8.062
 1625POPC   C4B25030  13.615  33.242   7.670
 1626POPC   NC325031   8.691   4.352   9.651
 1626POPC   PO425032   8.060   4.100   9.450
 1626POPC   GL125033   8.234   4.205   9.077
 1626POPC   GL225034   8.386   3.896   9.027
 1626POPC   C1A25035   8.135   4.461   8.709
 1626POPC   D2A25036   7.858   4.558   8.376
 1626POPC   C3A25037   8.072   4.453   8.023
 1626POPC   C4A25038   8.382   4.414   7.737
 1626POPC   C1B25039   8.453   4.068   8.617
 1626POPC   C2B25040   8.412   4.072   8.178
 1626POPC   C3B25041   8.095   3.913   7.862
 1626POPC   C4B25042   8.127   3.846   7.410
 1627POPC   NC325043  44.377  19.203   9.505
 1627POPC   PO425044  43.750  18.923   9.672
 1627POPC   GL125045  43.693  18.984   9.249
 1627POPC   GL225046  44.035  19.007   9.158
 1627POPC   C1A25047  43.582  18.878   8.824
 1627POPC   D2A25048  43.815  19.011   8.458
 1627POPC   C3A25049  43.709  18.974   8.044
 1627POPC   C4A25050  43.949  19.215   7.743
 1627POPC   C1B25051  44.093  18.734   8.806
 1627POPC   C2B25052  44.179  18.657   8.371
 1627POPC   C3B25053  44.209  18.833   7.950
 1627POPC   C4B25054  44.151  18.819   7.469
 1628POPC   NC325055   2.598   8.188   9.468
 1628POPC   PO425056   3.283   7.972   9.361
 1628POPC   GL125057   2.872   7.930   9.073
 1628POPC   GL225058   2.480   8.046   9.007
 1628POPC   C1A25059   2.789   7.989   8.620
 1628POPC   D2A25060   2.834   8.359   8.338
 1628POPC   C3A25061   2.839   8.292   7.895
 1628POPC   C4A25062   2.802   8.023   7.537
 1628POPC   C1B25063   2.438   8.365   8.714
 1628POPC   C2B25064   2.314   8.308   8.285
 1628POPC   C3B25065   2.372   8.090   7.892
 1628POPC   C4B25066   2.449   8.407   7.568
 1629POPC   NC325067  41.906   2.663   9.451
 1629POPC   PO425068  41.252   2.921   9.470
 1629POPC   GL125069  41.396   2.933   9.074
 1629POPC   GL225070  41.717   3.010   9.059
 1629POPC   C1A25071  41.441   2.953   8.631
 1629POPC   D2A25072  41.369   2.567   8.406
 1629POPC   C3A25073  41.453   2.564   7.974
 1629POPC   C4A25074  41.540   2.848   7.703
 1629POPC   C1B25075  41.701   2.577   8.841
 1629POPC   C2B25076  41.812   2.323   8.463
 1629POPC   C3B25077  41.942   2.435   8.034
 1629POPC   C4B25078  41.808   2.382   7.617
 1630POPC   NC325079  20.005   3.289   9.479
 1630POPC   PO425080  20.663   3.621   9.586
 1630POPC   GL125081  20.602   3.711   9.144
 1630POPC   GL225082  20.479   3.372   9.047
 1630POPC   C1A25083  20.443   3.975   8.790
 1630POPC   D2A25084  20.544   4.053   8.357
 1630POPC   C3A25085  20.507   3.680   8.078
 1630POPC   C4A25086  20.413   3.548   7.643
 1630POPC   C1B25087  20.677   3.446   8.612
 1630POPC   C2B25088  20.866   3.270   8.226
 1630POPC   C3B25089  20.747   3.188   7.791
 1630POPC   C4B25090  20.781   3.308   7.324
 1631POPC   NC325091   4.846   5.292   9.563
 1631POPC   PO425092   5.461   5.313   9.543
 1631POPC   GL125093   5.177   5.233   9.149
 1631POPC   GL225094   4.823   5.075   9.088
 1631POPC   C1A25095   5.083   5.259   8.691
 1631POPC   D2A25096   5.118   4.969   8.325
 1631POPC   C3A25097   5.115   5.168   7.935
 1631POPC   C4A25098   5.048   5.209   7.508
 1631POPC   C1B25099   4.666   4.935   8.673
 1631POPC   C2B25100   4.536   4.821   8.239
 1631POPC   C3B25101   4.753   4.819   7.831
 1631POPC   C4B25102   4.642   4.897   7.389
 1632POPC   NC325103   1.932  44.154   9.732
 1632POPC   PO425104   1.950  43.617   9.391
 1632POPC   GL125105   2.248  43.746   9.119
 1632POPC   GL225106   2.213  44.073   9.270
 1632POPC   C1A25107   2.103  43.774   8.688
 1632POPC   D2A25108   1.756  44.056   8.557
 1632POPC   C3A25109   1.674  44.042   8.112
 1632POPC   C4A25110   1.874  43.763   7.790
 1632POPC   C1B25111   2.369  44.181   8.874
 1632POPC   C2B25112   2.246  44.216   8.464
 1632POPC   C3B25113   2.190  43.932   8.153
 1632POPC   C4B25114   2.347  43.941   7.734
 1633POPC   NC325115  25.085  29.517   9.434
 1633POPC   PO425116  24.930  28.883   9.580
 1633POPC   GL125117  25.119  29.054   9.200
 1633POPC   GL225118  25.467  28.978   9.149
 1633POPC   C1A25119  24.939  29.182   8.817
 1633POPC   D2A25120  24.763  29.144   8.429
 1633POPC   C3A25121  25.003  29.367   8.140
 1633POPC   C4A25122  25.244  29.306   7.751
 1633POPC   C1B25123  25.445  29.158   8.740
 1633POPC   C2B25124  25.491  29.275   8.289
 1633POPC   C3B25125  25.719  29.294   7.872
 1633POPC   C4B25126  25.639  29.155   7.423
 1634POPC   NC325127  35.535  16.622   9.509
 1634POPC   PO425128  34.984  16.705   9.814
 1634POPC   GL125129  35.130  16.849   9.334
 1634POPC   GL225130  35.214  16.494   9.153
 1634POPC   C1A25131  35.353  16.917   8.901
 1634POPC   D2A25132  35.387  17.041   8.438
 1634POPC   C3A25133  35.094  16.825   8.150
 1634POPC   C4A25134  35.111  16.829   7.712
 1634POPC   C1B25135  35.503  16.412   8.819
 1634POPC   C2B25136  35.470  16.548   8.420
 1634POPC   C3B25137  35.479  16.503   7.976
 1634POPC   C4B25138  35.459  16.180   7.674
 1635POPC   NC325139  30.077  37.072   9.522
 1635POPC   PO425140  29.574  36.635   9.672
 1635POPC   GL125141  29.914  36.561   9.325
 1635POPC   GL225142  30.019  36.836   9.088
 1635POPC   C1A25143  29.953  36.373   8.906
 1635POPC   D2A25144  29.871  36.454   8.464
 1635POPC   C3A25145  29.966  36.799   8.188
 1635POPC   C4A25146  29.962  36.748   7.728
 1635POPC   C1B25147  29.781  37.211   8.894
 1635POPC   C2B25148  29.741  37.235   8.426
 1635POPC   C3B25149  29.773  37.299   7.961
 1635POPC   C4B25150  29.854  37.214   7.527
 1636POPC   NC325151  25.989  36.333   9.703
 1636POPC   PO425152  26.363  35.961   9.528
 1636POPC   GL125153  26.052  36.057   9.205
 1636POPC   GL225154  25.976  35.736   9.061
 1636POPC   C1A25155  25.944  36.142   8.740
 1636POPC   D2A25156  26.199  36.192   8.357
 1636POPC   C3A25157  26.076  36.109   7.918
 1636POPC   C4A25158  26.149  36.054   7.470
 1636POPC   C1B25159  26.216  35.712   8.655
 1636POPC   C2B25160  26.353  35.713   8.226
 1636POPC   C3B25161  26.182  35.618   7.810
 1636POPC   C4B25162  25.772  35.747   7.657
 1637POPC   NC325163  38.213  40.234   9.526
 1637POPC   PO425164  38.853  39.948   9.659
 1637POPC   GL125165  38.555  39.931   9.297
 1637POPC   GL225166  38.286  39.676   9.317
 1637POPC   C1A25167  38.635  40.195   8.897
 1637POPC   D2A25168  38.415  40.259   8.497
 1637POPC   C3A25169  38.586  40.264   8.082
 1637POPC   C4A25170  38.435  40.108   7.706
 1637POPC   C1B25171  38.322  39.769   8.864
 1637POPC   C2B25172  38.258  39.736   8.417
 1637POPC   C3B25173  38.295  39.677   7.973
 1637POPC   C4B25174  38.170  39.706   7.523
 1638POPC   NC325175  10.072   4.245   9.422
 1638POPC   PO425176   9.463   4.598   9.362
 1638POPC   GL125177   9.532   4.399   9.051
 1638POPC   GL225178   9.728   4.133   9.058
 1638POPC   C1A25179   9.658   4.536   8.703
 1638POPC   D2A25180   9.815   4.714   8.372
 1638POPC   C3A25181   9.596   4.535   8.057
 1638POPC   C4A25182   9.672   4.504   7.654
 1638POPC   C1B25183   9.550   4.019   8.681
 1638POPC   C2B25184   9.811   4.184   8.367
 1638POPC   C3B25185  10.060   4.306   8.023
 1638POPC   C4B25186   9.885   4.055   7.732
 1639POPC   NC325187  39.095  34.739   9.444
 1639POPC   PO425188  39.462  34.176   9.346
 1639POPC   GL125189  39.416  34.531   9.076
 1639POPC   GL225190  39.362  34.914   9.037
 1639POPC   C1A25191  39.230  34.561   8.678
 1639POPC   D2A25192  39.167  34.774   8.305
 1639POPC   C3A25193  39.141  34.524   7.944
 1639POPC   C4A25194  39.288  34.422   7.561
 1639POPC   C1B25195  38.950  34.979   8.783
 1639POPC   C2B25196  38.703  34.972   8.381
 1639POPC   C3B25197  38.864  34.953   7.931
 1639POPC   C4B25198  38.901  34.769   7.517
 1640POPC   NC325199  17.529  33.935   9.624
 1640POPC   PO425200  17.227  33.521   9.161
 1640POPC   GL125201  17.631  33.732   9.121
 1640POPC   GL225202  17.683  34.092   9.141
 1640POPC   C1A25203  17.716  33.745   8.724
 1640POPC   D2A25204  17.716  34.094   8.470
 1640POPC   C3A25205  17.632  33.959   8.070
 1640POPC   C4A25206  17.649  33.891   7.628
 1640POPC   C1B25207  17.310  34.137   8.856
 1640POPC   C2B25208  17.132  34.145   8.428
 1640POPC   C3B25209  17.124  34.041   7.977
 1640POPC   C4B25210  17.185  34.081   7.516
 1641POPC   NC325211  25.407   3.950   9.473
 1641POPC   PO425212  24.683   4.214   9.485
 1641POPC   GL125213  25.002   4.157   9.230
 1641POPC   GL225214  25.263   4.409   9.276
 1641POPC   C1A25215  25.177   4.044   8.838
 1641POPC   D2A25216  25.241   4.247   8.457
 1641POPC   C3A25217  25.285   4.040   8.045
 1641POPC   C4A25218  25.199   4.268   7.669
 1641POPC   C1B25219  25.491   4.471   8.880
 1641POPC   C2B25220  25.699   4.417   8.482
 1641POPC   C3B25221  25.505   4.515   8.084
 1641POPC   C4B25222  25.649   4.568   7.695
 1642POPC   NC325223   8.184  12.439   9.574
 1642POPC   PO425224   7.865  11.915   9.785
 1642POPC   GL125225   7.966  12.014   9.312
 1642POPC   GL225226   8.323  12.048   9.255
 1642POPC   C1A25227   7.968  11.938   8.846
 1642POPC   D2A25228   7.772  11.801   8.438
 1642POPC   C3A25229   7.979  11.917   8.024
 1642POPC   C4A25230   8.009  12.108   7.622
 1642POPC   C1B25231   8.468  11.839   8.903
 1642POPC   C2B25232   8.572  11.904   8.486
 1642POPC   C3B25233   8.428  12.137   8.155
 1642POPC   C4B25234   8.474  11.964   7.742
 1643POPC   NC325235  10.211  21.573   9.841
 1643POPC   PO425236   9.725  21.238   9.391
 1643POPC   GL125237   9.734  21.451   9.060
 1643POPC   GL225238  10.033  21.674   8.988
 1643POPC   C1A25239   9.510  21.401   8.688
 1643POPC   D2A25240   9.440  21.578   8.280
 1643POPC   C3A25241   9.714  21.543   7.920
 1643POPC   C4A25242   9.435  21.716   7.650
 1643POPC   C1B25243  10.046  21.333   8.684
 1643POPC   C2B25244   9.804  21.195   8.319
 1643POPC   C3B25245   9.866  21.057   7.904
 1643POPC   C4B25246  10.025  21.242   7.494
 1644POPC   NC325247  28.318  29.377   9.546
 1644POPC   PO425248  28.666  28.827   9.476
 1644POPC   GL125249  28.337  28.929   9.221
 1644POPC   GL225250  28.565  29.202   9.122
 1644POPC   C1A25251  28.165  29.069   8.839
 1644POPC   D2A25252  28.432  29.211   8.507
 1644POPC   C3A25253  28.253  29.360   8.131
 1644POPC   C4A25254  28.302  29.198   7.745
 1644POPC   C1B25255  28.806  29.434   8.838
 1644POPC   C2B25256  28.895  29.410   8.414
 1644POPC   C3B25257  28.710  29.150   8.071
 1644POPC   C4B25258  28.773  28.968   7.673
 1645POPC   NC325259  35.866  21.145   9.765
 1645POPC   PO425260  36.435  21.479   9.479
 1645POPC   GL125261  36.211  21.332   9.145
 1645POPC   GL225262  36.239  21.058   8.992
 1645POPC   C1A25263  36.172  21.465   8.698
 1645POPC   D2A25264  35.959  21.379   8.320
 1645POPC   C3A25265  36.152  21.348   7.961
 1645POPC   C4A25266  36.212  21.551   7.547
 1645POPC   C1B25267  35.919  20.960   8.646
 1645POPC   C2B25268  35.753  20.917   8.226
 1645POPC   C3B25269  35.675  21.155   7.946
 1645POPC   C4B25270  35.908  21.119   7.596
 1646POPC   NC325271  36.404   0.343   9.749
 1646POPC   PO425272  36.210   0.875   9.440
 1646POPC   GL125273  36.157   0.719   9.095
 1646POPC   GL225274  36.158   0.385   9.164
 1646POPC   C1A25275  35.933   0.740   8.752
 1646POPC   D2A25276  36.119   0.692   8.383
 1646POPC   C3A25277  35.870   0.522   8.052
 1646POPC   C4A25278  36.007   0.500   7.677
 1646POPC   C1B25279  36.294   0.348   8.737
 1646POPC   C2B25280  36.144   0.176   8.343
 1646POPC   C3B25281  36.103   0.049   7.901
 1646POPC   C4B25282  36.376   0.181   7.554
 1647POPC   NC325283  30.807  33.606   9.522
 1647POPC   PO425284  30.289  33.468   9.174
 1647POPC   GL125285  30.658  33.632   9.029
 1647POPC   GL225286  30.883  33.889   9.118
 1647POPC   C1A25287  30.705  33.751   8.644
 1647POPC   D2A25288  30.672  33.570   8.347
 1647POPC   C3A25289  30.386  33.710   8.090
 1647POPC   C4A25290  30.505  33.790   7.685
 1647POPC   C1B25291  31.067  34.057   8.780
 1647POPC   C2B25292  31.151  33.865   8.374
 1647POPC   C3B25293  30.860  33.936   8.047
 1647POPC   C4B25294  30.806  34.243   7.761
 1648POPC   NC325295  23.126  29.027   9.497
 1648POPC   PO425296  23.780  29.238   9.505
 1648POPC   GL125297  23.834  29.098   9.109
 1648POPC   GL225298  23.454  29.065   9.088
 1648POPC   C1A25299  24.050  28.843   8.809
 1648POPC   D2A25300  24.001  29.046   8.412
 1648POPC   C3A25301  23.942  28.942   7.977
 1648POPC   C4A25302  23.823  28.924   7.484
 1648POPC   C1B25303  23.619  29.280   8.716
 1648POPC   C2B25304  23.687  29.441   8.341
 1648POPC   C3B25305  23.618  29.332   7.928
 1648POPC   C4B25306  23.624  29.368   7.502
 1649POPC   NC325307  18.402  33.475   9.463
 1649POPC   PO425308  18.008  33.977   9.571
 1649POPC   GL125309  18.178  33.922   9.200
 1649POPC   GL225310  18.541  33.965   9.289
 1649POPC   C1A25311  18.139  34.017   8.747
 1649POPC   D2A25312  18.089  33.699   8.376
 1649POPC   C3A25313  18.084  33.749   7.920
 1649POPC   C4A25314  18.030  34.166   7.790
 1649POPC   C1B25315  18.520  33.731   8.885
 1649POPC   C2B25316  18.572  33.859   8.498
 1649POPC   C3B25317  18.539  33.913   8.108
 1649POPC   C4B25318  18.624  33.693   7.754
 1650POPC   NC325319  12.114  27.081   9.614
 1650POPC   PO425320  11.578  26.642   9.391
 1650POPC   GL125321  11.889  26.893   9.173
 1650POPC   GL225322  12.235  26.771   9.236
 1650POPC   C1A25323  12.092  27.033   8.787
 1650POPC   D2A25324  12.021  27.220   8.406
 1650POPC   C3A25325  11.989  26.995   8.015
 1650POPC   C4A25326  11.727  26.769   7.734
 1650POPC   C1B25327  12.216  26.561   8.826
 1650POPC   C2B25328  12.265  26.706   8.378
 1650POPC   C3B25329  12.240  26.523   7.920
 1650POPC   C4B25330  12.314  26.429   7.450
 1651POPC   NC325331  42.300  41.508   9.474
 1651POPC   PO425332  42.905  41.182   9.452
 1651POPC   GL125333  42.608  41.364   9.104
 1651POPC   GL225334  42.548  41.725   9.103
 1651POPC   C1A25335  42.403  41.479   8.701
 1651POPC   D2A25336  42.410  41.292   8.332
 1651POPC   C3A25337  42.405  41.504   7.982
 1651POPC   C4A25338  42.078  41.640   7.755
 1651POPC   C1B25339  42.787  41.873   8.784
 1651POPC   C2B25340  42.720  42.093   8.417
 1651POPC   C3B25341  42.911  42.019   8.038
 1651POPC   C4B25342  42.754  41.762   7.705
 1652POPC   NC325343  35.822  30.072   9.520
 1652POPC   PO425344  36.437  29.807   9.423
 1652POPC   GL125345  36.207  30.067   9.113
 1652POPC   GL225346  35.837  30.091   9.030
 1652POPC   C1A25347  36.188  29.972   8.663
 1652POPC   D2A25348  36.399  30.131   8.293
 1652POPC   C3A25349  36.203  29.932   7.958
 1652POPC   C4A25350  36.317  29.489   7.916
 1652POPC   C1B25351  35.769  30.313   8.676
 1652POPC   C2B25352  35.880  30.209   8.264
 1652POPC   C3B25353  35.686  30.318   7.880
 1652POPC   C4B25354  35.888  30.493   7.498
 1653POPC   NC325355  29.976  44.606   9.385
 1653POPC   PO425356  29.893  43.920   9.486
 1653POPC   GL125357  29.967  44.030   9.100
 1653POPC   GL225358  29.730  44.303   9.077
 1653POPC   C1A25359  29.976  43.731   8.785
 1653POPC   D2A25360  30.183  43.669   8.423
 1653POPC   C3A25361  29.912  43.673   8.064
 1653POPC   C4A25362  30.054  43.871   7.696
 1653POPC   C1B25363  29.683  44.146   8.646
 1653POPC   C2B25364  29.754  44.143   8.208
 1653POPC   C3B25365  29.817  44.305   7.797
 1653POPC   C4B25366  29.580  44.198   7.438
 1654POPC   NC325367  29.281   5.142   9.479
 1654POPC   PO425368  28.639   5.080   9.746
 1654POPC   GL125369  28.746   5.013   9.284
 1654POPC   GL225370  28.956   4.731   9.258
 1654POPC   C1A25371  28.988   5.111   8.881
 1654POPC   D2A25372  29.181   5.238   8.479
 1654POPC   C3A25373  28.872   5.314   8.157
 1654POPC   C4A25374  29.057   5.176   7.782
 1654POPC   C1B25375  29.222   4.570   8.924
 1654POPC   C2B25376  29.263   4.577   8.475
 1654POPC   C3B25377  29.207   4.831   8.116
 1654POPC   C4B25378  29.248   4.730   7.675
 1655POPC   NC325379  10.198  24.992   9.485
 1655POPC   PO425380  10.820  25.016   9.644
 1655POPC   GL125381  10.842  25.251   9.236
 1655POPC   GL225382  10.493  25.316   9.188
 1655POPC   C1A25383  10.745  25.316   8.754
 1655POPC   D2A25384  10.450  25.287   8.414
 1655POPC   C3A25385  10.591  25.179   8.016
 1655POPC   C4A25386  10.744  25.337   7.621
 1655POPC   C1B25387  10.255  25.063   8.843
 1655POPC   C2B25388  10.171  24.875   8.435
 1655POPC   C3B25389  10.052  24.972   8.024
 1655POPC   C4B25390  10.229  25.166   7.658
 1656POPC   NC325391  17.110   1.279   9.485
 1656POPC   PO425392  16.498   0.883   9.555
 1656POPC   GL125393  16.756   1.096   9.162
 1656POPC   GL225394  16.785   1.425   9.108
 1656POPC   C1A25395  16.928   1.150   8.738
 1656POPC   D2A25396  16.907   1.372   8.335
 1656POPC   C3A25397  16.733   1.190   7.947
 1656POPC   C4A25398  16.799   0.905   7.616
 1656POPC   C1B25399  16.750   1.688   8.786
 1656POPC   C2B25400  16.571   1.781   8.407
 1656POPC   C3B25401  16.699   1.704   8.002
 1656POPC   C4B25402  16.471   1.567   7.676
 1657POPC   NC325403  41.047  21.917   9.479
 1657POPC   PO425404  41.001  22.583   9.435
 1657POPC   GL125405  40.612  22.341   9.248
 1657POPC   GL225406  40.575  22.008   9.067
 1657POPC   C1A25407  40.393  22.429   8.857
 1657POPC   D2A25408  40.654  22.414   8.500
 1657POPC   C3A25409  40.527  22.243   8.121
 1657POPC   C4A25410  40.665  22.218   7.690
 1657POPC   C1B25411  40.931  22.182   8.855
 1657POPC   C2B25412  41.084  22.131   8.431
 1657POPC   C3B25413  40.992  22.015   8.024
 1657POPC   C4B25414  40.989  21.722   7.681
 1658POPC   NC325415  18.537  37.078   9.514
 1658POPC   PO425416  18.319  36.516   9.437
 1658POPC   GL125417  18.447  36.744   9.108
 1658POPC   GL225418  18.182  36.936   9.107
 1658POPC   C1A25419  18.297  36.830   8.645
 1658POPC   D2A25420  18.415  37.005   8.276
 1658POPC   C3A25421  18.286  36.728   7.959
 1658POPC   C4A25422  18.408  36.741   7.521
 1658POPC   C1B25423  17.930  37.164   8.790
 1658POPC   C2B25424  18.012  37.348   8.366
 1658POPC   C3B25425  17.988  37.158   7.975
 1658POPC   C4B25426  17.802  36.786   7.838
 1659POPC   NC325427   1.618  42.483   9.304
 1659POPC   PO425428   1.114  42.104   9.312
 1659POPC   GL125429   0.981  42.372   8.970
 1659POPC   GL225430   1.162  42.647   9.090
 1659POPC   C1A25431   0.992  42.345   8.502
 1659POPC   D2A25432   1.337  42.214   8.251
 1659POPC   C3A25433   1.145  42.075   7.900
 1659POPC   C4A25434   0.980  42.325   7.574
 1659POPC   C1B25435   1.379  42.583   8.692
 1659POPC   C2B25436   1.268  42.770   8.313
 1659POPC   C3B25437   1.190  42.601   7.939
 1659POPC   C4B25438   1.465  42.400   7.657
 1660POPC   NC325439  28.809  30.951   9.884
 1660POPC   PO425440  29.234  30.488   9.529
 1660POPC   GL125441  29.254  30.563   9.086
 1660POPC   GL225442  28.933  30.700   8.937
 1660POPC   C1A25443  29.333  30.655   8.667
 1660POPC   D2A25444  28.958  30.803   8.421
 1660POPC   C3A25445  29.137  30.821   7.984
 1660POPC   C4A25446  29.488  30.641   7.727
 1660POPC   C1B25447  28.671  31.049   8.823
 1660POPC   C2B25448  28.484  31.019   8.432
 1660POPC   C3B25449  28.632  30.940   8.038
 1660POPC   C4B25450  28.793  31.142   7.711
 1661POPC   NC325451   7.939  33.940   9.511
 1661POPC   PO425452   8.424  33.398   9.481
 1661POPC   GL125453   8.192  33.654   9.154
 1661POPC   GL225454   8.117  34.030   9.063
 1661POPC   C1A25455   8.304  33.742   8.718
 1661POPC   D2A25456   8.220  33.599   8.333
 1661POPC   C3A25457   8.279  33.856   7.991
 1661POPC   C4A25458   8.176  33.618   7.617
 1661POPC   C1B25459   8.154  34.236   8.723
 1661POPC   C2B25460   7.986  34.130   8.352
 1661POPC   C3B25461   7.935  34.256   7.973
 1661POPC   C4B25462   8.058  34.116   7.611
 1662POPC   NC325463   5.087  31.390   9.649
 1662POPC   PO425464   5.467  31.909   9.663
 1662POPC   GL125465   5.323  31.631   9.280
 1662POPC   GL225466   4.923  31.667   9.238
 1662POPC   C1A25467   5.306  31.373   8.874
 1662POPC   D2A25468   5.150  31.374   8.413
 1662POPC   C3A25469   5.345  31.498   7.980
 1662POPC   C4A25470   5.158  31.369   7.558
 1662POPC   C1B25471   4.794  31.465   8.828
 1662POPC   C2B25472   4.627  31.503   8.403
 1662POPC   C3B25473   4.822  31.502   7.989
 1662POPC   C4B25474   4.667  31.565   7.572
 1663POPC   NC325475  26.404  42.759  10.101
 1663POPC   PO425476  26.856  43.146   9.640
 1663POPC   GL125477  26.858  43.112   9.200
 1663POPC   GL225478  26.597  43.370   9.195
 1663POPC   C1A25479  26.996  43.317   8.812
 1663POPC   D2A25480  26.883  43.557   8.433
 1663POPC   C3A25481  26.879  43.303   8.066
 1663POPC   C4A25482  27.007  43.036   7.750
 1663POPC   C1B25483  26.515  43.491   8.790
 1663POPC   C2B25484  26.594  43.139   8.501
 1663POPC   C3B25485  26.420  43.079   8.103
 1663POPC   C4B25486  26.534  43.216   7.688
 1664POPC   NC325487  20.840   7.023   9.600
 1664POPC   PO425488  20.417   7.521   9.465
 1664POPC   GL125489  20.616   7.268   9.195
 1664POPC   GL225490  20.707   7.554   8.998
 1664POPC   C1A25491  20.499   7.089   8.812
 1664POPC   D2A25492  20.550   7.272   8.410
 1664POPC   C3A25493  20.482   7.040   8.024
 1664POPC   C4A25494  20.663   7.164   7.661
 1664POPC   C1B25495  20.298   7.575   8.762
 1664POPC   C2B25496  20.228   7.695   8.316
 1664POPC   C3B25497  20.380   7.532   7.926
 1664POPC   C4B25498  20.212   7.414   7.547
 1665POPC   NC325499  30.399   7.247   9.434
 1665POPC   PO425500  30.857   7.692   9.529
 1665POPC   GL125501  30.754   7.508   9.141
 1665POPC   GL225502  30.413   7.526   9.003
 1665POPC   C1A25503  30.839   7.650   8.729
 1665POPC   D2A25504  31.161   7.536   8.424
 1665POPC   C3A25505  31.015   7.635   8.043
 1665POPC   C4A25506  30.919   7.748   7.647
 1665POPC   C1B25507  30.641   7.171   8.728
 1665POPC   C2B25508  30.863   7.109   8.293
 1665POPC   C3B25509  30.704   7.251   7.864
 1665POPC   C4B25510  30.437   7.600   7.648
 1666POPC   NC325511  27.834  34.037   9.456
 1666POPC   PO425512  27.383  33.648   9.736
 1666POPC   GL125513  27.532  33.724   9.187
 1666POPC   GL225514  27.453  33.430   8.978
 1666POPC   C1A25515  27.700  33.931   8.750
 1666POPC   D2A25516  27.405  34.091   8.383
 1666POPC   C3A25517  27.599  34.035   7.961
 1666POPC   C4A25518  28.006  34.100   7.809
 1666POPC   C1B25519  27.343  33.625   8.596
 1666POPC   C2B25520  27.539  33.582   8.200
 1666POPC   C3B25521  27.381  33.465   7.790
 1666POPC   C4B25522  27.380  33.663   7.375
 1667POPC   NC325523   8.986  35.615   9.436
 1667POPC   PO425524   8.839  36.318   9.444
 1667POPC   GL125525   8.914  36.023   9.153
 1667POPC   GL225526   9.264  36.030   9.225
 1667POPC   C1A25527   8.786  35.752   8.798
 1667POPC   D2A25528   8.764  35.958   8.394
 1667POPC   C3A25529   8.975  36.121   8.040
 1667POPC   C4A25530   8.978  36.535   7.808
 1667POPC   C1B25531   9.205  36.044   8.753
 1667POPC   C2B25532   9.358  35.916   8.379
 1667POPC   C3B25533   9.491  36.180   8.080
 1667POPC   C4B25534   9.317  36.185   7.661
 1668POPC   NC325535   1.965  28.667   9.610
 1668POPC   PO425536   2.377  28.186   9.531
 1668POPC   GL125537   2.145  28.390   9.160
 1668POPC   GL225538   1.806  28.548   9.143
 1668POPC   C1A25539   2.022  28.389   8.695
 1668POPC   D2A25540   2.092  28.155   8.305
 1668POPC   C3A25541   2.023  28.353   7.907
 1668POPC   C4A25542   2.035  28.136   7.530
 1668POPC   C1B25543   1.641  28.161   8.940
 1668POPC   C2B25544   1.577  27.989   8.499
 1668POPC   C3B25545   1.663  27.973   8.030
 1668POPC   C4B25546   1.528  28.258   7.704
 1669POPC   NC325547   2.253   2.092   9.545
 1669POPC   PO425548   2.473   1.534   9.502
 1669POPC   GL125549   2.209   1.769   9.149
 1669POPC   GL225550   1.898   1.998   9.168
 1669POPC   C1A25551   2.008   1.771   8.745
 1669POPC   D2A25552   2.065   1.984   8.402
 1669POPC   C3A25553   1.823   1.794   8.110
 1669POPC   C4A25554   1.935   1.865   7.704
 1669POPC   C1B25555   1.687   2.178   8.774
 1669POPC   C2B25556   1.608   2.252   8.320
 1669POPC   C3B25557   1.900   2.302   7.982
 1669POPC   C4B25558   1.878   2.351   7.528
 1670POPC   NC325559  10.998  40.306   9.501
 1670POPC   PO425560  11.468  39.813   9.633
 1670POPC   GL125561  11.434  40.026   9.226
 1670POPC   GL225562  11.078  39.965   9.125
 1670POPC   C1A25563  11.499  39.925   8.780
 1670POPC   D2A25564  11.353  39.904   8.323
 1670POPC   C3A25565  11.313  40.189   8.004
 1670POPC   C4A25566  11.491  40.003   7.664
 1670POPC   C1B25567  11.009  40.005   8.679
 1670POPC   C2B25568  10.847  39.914   8.273
 1670POPC   C3B25569  10.942  39.630   7.948
 1670POPC   C4B25570  10.748  39.654   7.551
 1671POPC   NC325571  40.226   7.936   9.487
 1671POPC   PO425572  39.616   8.219   9.533
 1671POPC   GL125573  39.889   8.261   9.148
 1671POPC   GL225574  40.247   8.146   9.031
 1671POPC   C1A25575  39.779   8.399   8.751
 1671POPC   D2A25576  39.563   8.242   8.393
 1671POPC   C3A25577  39.868   8.145   8.115
 1671POPC   C4A25578  39.954   8.330   7.753
 1671POPC   C1B25579  40.114   7.993   8.622
 1671POPC   C2B25580  40.217   7.771   8.226
 1671POPC   C3B25581  40.273   7.944   7.805
 1671POPC   C4B25582  40.484   7.975   7.384
 1672POPC   NC325583   0.820  44.954   9.378
 1672POPC   PO425584   0.412   0.459   9.429
 1672POPC   GL125585   0.344   0.391   9.053
 1672POPC   GL225586   0.631   0.231   8.994
 1672POPC   C1A25587   0.452   0.638   8.710
 1672POPC   D2A25588   0.560   0.480   8.346
 1672POPC   C3A25589   0.410   0.612   7.966
 1672POPC   C4A25590   0.472   0.494   7.538
 1672POPC   C1B25591   0.885   0.090   8.689
 1672POPC   C2B25592   0.768   0.029   8.270
 1672POPC   C3B25593   0.704   0.189   7.893
 1672POPC   C4B25594   0.966   0.330   7.600
 1673POPC   NC325595  32.521  26.722   9.462
 1673POPC   PO425596  32.207  27.241   9.302
 1673POPC   GL125597  32.376  26.970   9.013
 1673POPC   GL225598  32.125  26.735   9.057
 1673POPC   C1A25599  32.531  26.819   8.616
 1673POPC   D2A25600  32.442  26.554   8.260
 1673POPC   C3A25601  32.356  26.743   7.859
 1673POPC   C4A25602  32.045  27.037   7.731
 1673POPC   C1B25603  32.001  26.844   8.620
 1673POPC   C2B25604  31.970  26.711   8.185
 1673POPC   C3B25605  31.790  26.596   7.792
 1673POPC   C4B25606  31.723  26.827   7.380
 1674POPC   NC325607  24.444   6.543   9.536
 1674POPC   PO425608  24.602   7.202   9.356
 1674POPC   GL125609  24.390   6.875   9.077
 1674POPC   GL225610  24.338   6.475   9.057
 1674POPC   C1A25611  24.372   6.758   8.633
 1674POPC   D2A25612  24.195   6.827   8.235
 1674POPC   C3A25613  24.533   6.840   7.943
 1674POPC   C4A25614  24.846   6.593   7.714
 1674POPC   C1B25615  24.229   6.240   8.695
 1674POPC   C2B25616  24.190   6.326   8.272
 1674POPC   C3B25617  24.401   6.365   7.871
 1674POPC   C4B25618  24.406   6.584   7.446
 1675POPC   NC325619   8.995  23.747   9.496
 1675POPC   PO425620   8.949  23.130   9.636
 1675POPC   GL125621   9.039  23.270   9.205
 1675POPC   GL225622   8.727  23.354   9.083
 1675POPC   C1A25623   9.116  23.434   8.749
 1675POPC   D2A25624   9.213  23.637   8.329
 1675POPC   C3A25625   9.064  23.653   7.869
 1675POPC   C4A25626   9.072  23.397   7.468
 1675POPC   C1B25627   8.495  23.325   8.738
 1675POPC   C2B25628   8.711  23.332   8.402
 1675POPC   C3B25629   8.795  23.277   8.027
 1675POPC   C4B25630   8.617  23.404   7.679
 1676POPC   NC325631  15.624   1.744   9.456
 1676POPC   PO425632  16.082   2.335   9.432
 1676POPC   GL125633  15.945   2.409   9.047
 1676POPC   GL225634  15.709   2.122   9.070
 1676POPC   C1A25635  15.903   2.294   8.634
 1676POPC   D2A25636  16.091   2.034   8.374
 1676POPC   C3A25637  15.964   2.212   7.983
 1676POPC   C4A25638  15.572   2.347   7.819
 1676POPC   C1B25639  15.821   1.784   8.775
 1676POPC   C2B25640  15.646   1.650   8.375
 1676POPC   C3B25641  15.610   1.842   7.970
 1676POPC   C4B25642  15.653   1.945   7.505
 1677POPC   NC325643  38.470   4.408   9.630
 1677POPC   PO425644  37.940   4.015   9.554
 1677POPC   GL125645  38.251   4.068   9.228
 1677POPC   GL225646  38.106   4.367   9.197
 1677POPC   C1A25647  38.541   4.304   8.911
 1677POPC   D2A25648  38.571   4.603   8.544
 1677POPC   C3A25649  38.686   4.456   8.116
 1677POPC   C4A25650  38.461   4.663   7.796
 1677POPC   C1B25651  38.158   4.634   8.880
 1677POPC   C2B25652  38.022   4.617   8.514
 1677POPC   C3B25653  38.161   4.466   8.169
 1677POPC   C4B25654  37.983   4.440   7.761
 1678POPC   NC325655  39.508  18.360   9.538
 1678POPC   PO425656  40.163  18.404   9.535
 1678POPC   GL125657  39.950  18.287   9.194
 1678POPC   GL225658  40.256  18.113   9.100
 1678POPC   C1A25659  39.671  18.200   8.845
 1678POPC   D2A25660  39.627  18.018   8.438
 1678POPC   C3A25661  39.770  18.284   8.069
 1678POPC   C4A25662  40.110  18.601   7.912
 1678POPC   C1B25663  40.159  18.328   8.719
 1678POPC   C2B25664  40.241  18.317   8.310
 1678POPC   C3B25665  40.223  18.105   7.913
 1678POPC   C4B25666  40.368  18.159   7.532
 1679POPC   NC325667  30.359   3.514   9.553
 1679POPC   PO425668  31.025   3.636   9.574
 1679POPC   GL125669  30.768   3.491   9.244
 1679POPC   GL225670  30.626   3.842   9.221
 1679POPC   C1A25671  30.641   3.408   8.803
 1679POPC   D2A25672  30.625   3.242   8.376
 1679POPC   C3A25673  30.580   3.444   7.991
 1679POPC   C4A25674  30.827   3.378   7.606
 1679POPC   C1B25675  30.428   3.888   8.820
 1679POPC   C2B25676  30.477   3.788   8.392
 1679POPC   C3B25677  30.347   3.897   7.969
 1679POPC   C4B25678  30.455   3.727   7.548
 1680POPC   NC325679   5.064   8.649   9.730
 1680POPC   PO425680   5.260   9.299   9.541
 1680POPC   GL125681   5.119   9.125   9.119
 1680POPC   GL225682   5.312   8.850   8.906
 1680POPC   C1A25683   5.006   9.154   8.655
 1680POPC   D2A25684   5.304   8.991   8.330
 1680POPC   C3A25685   5.105   8.971   7.948
 1680POPC   C4A25686   4.947   9.353   7.788
 1680POPC   C1B25687   5.063   8.641   8.584
 1680POPC   C2B25688   4.810   8.628   8.220
 1680POPC   C3B25689   4.844   8.564   7.776
 1680POPC   C4B25690   5.107   8.488   7.453
 1681POPC   NC325691  28.084  42.982   9.629
 1681POPC   PO425692  28.663  43.260   9.407
 1681POPC   GL125693  28.376  43.068   9.097
 1681POPC   GL225694  28.108  42.791   9.150
 1681POPC   C1A25695  28.451  43.227   8.670
 1681POPC   D2A25696  28.335  43.482   8.335
 1681POPC   C3A25697  28.437  43.411   7.904
 1681POPC   C4A25698  28.383  42.997   7.738
 1681POPC   C1B25699  28.046  42.921   8.704
 1681POPC   C2B25700  28.187  42.907   8.268
 1681POPC   C3B25701  27.950  42.758   7.920
 1681POPC   C4B25702  27.781  42.915   7.529
 1682POPC   NC325703   4.719  35.885   9.343
 1682POPC   PO425704   5.189  36.300   9.554
 1682POPC   GL125705   5.070  36.154   9.105
 1682POPC   GL225706   5.090  35.778   9.032
 1682POPC   C1A25707   5.294  36.103   8.695
 1682POPC   D2A25708   5.146  36.358   8.364
 1682POPC   C3A25709   5.260  36.400   7.954
 1682POPC   C4A25710   5.117  36.073   7.740
 1682POPC   C1B25711   4.859  35.871   8.646
 1682POPC   C2B25712   5.077  35.823   8.255
 1682POPC   C3B25713   5.039  35.588   7.871
 1682POPC   C4B25714   4.925  35.688   7.436
 1683POPC   NC325715  42.846  24.144   9.297
 1683POPC   PO425716  42.286  24.560   9.549
 1683POPC   GL125717  42.420  24.601   9.130
 1683POPC   GL225718  42.226  24.369   8.943
 1683POPC   C1A25719  42.350  24.775   8.706
 1683POPC   D2A25720  42.243  24.549   8.346
 1683POPC   C3A25721  42.311  24.816   8.017
 1683POPC   C4A25722  42.451  24.723   7.629
 1683POPC   C1B25723  42.554  24.254   8.655
 1683POPC   C2B25724  42.547  24.078   8.249
 1683POPC   C3B25725  42.462  24.303   7.894
 1683POPC   C4B25726  42.098  24.331   7.600
 1684POPC   NC325727  35.115  30.579   9.311
 1684POPC   PO425728  35.474  31.109   9.472
 1684POPC   GL125729  35.603  30.859   9.130
 1684POPC   GL225730  35.753  31.112   8.969
 1684POPC   C1A25731  35.436  30.727   8.707
 1684POPC   D2A25732  35.247  30.869   8.303
 1684POPC   C3A25733  35.254  30.614   7.910
 1684POPC   C4A25734  35.150  30.794   7.538
 1684POPC   C1B25735  35.935  30.849   8.653
 1684POPC   C2B25736  35.775  30.706   8.289
 1684POPC   C3B25737  35.649  30.902   7.938
 1684POPC   C4B25738  35.626  30.925   7.471
 1685POPC   NC325739  15.339  22.130   9.455
 1685POPC   PO425740  14.737  22.280   9.641
 1685POPC   GL125741  14.929  22.287   9.223
 1685POPC   GL225742  14.982  21.945   9.110
 1685POPC   C1A25743  14.931  22.395   8.804
 1685POPC   D2A25744  15.033  22.142   8.447
 1685POPC   C3A25745  14.787  22.191   8.081
 1685POPC   C4A25746  14.958  22.163   7.670
 1685POPC   C1B25747  15.326  21.874   8.799
 1685POPC   C2B25748  15.514  21.940   8.391
 1685POPC   C3B25749  15.290  21.951   8.006
 1685POPC   C4B25750  15.409  21.893   7.548
 1686POPC   NC325751  40.829  33.431   9.311
 1686POPC   PO425752  40.421  33.961   9.419
 1686POPC   GL125753  40.432  33.775   8.998
 1686POPC   GL225754  40.537  33.424   8.874
 1686POPC   C1A25755  40.503  33.869   8.562
 1686POPC   D2A25756  40.741  33.613   8.252
 1686POPC   C3A25757  40.660  33.654   7.813
 1686POPC   C4A25758  40.408  33.743   7.448
 1686POPC   C1B25759  40.902  33.233   8.613
 1686POPC   C2B25760  41.218  33.468   8.382
 1686POPC   C3B25761  41.191  33.632   7.985
 1686POPC   C4B25762  41.146  33.816   7.581
 1687POPC   NC325763  41.196  14.224   9.241
 1687POPC   PO425764  40.648  14.678   9.485
 1687POPC   GL125765  40.702  14.699   9.037
 1687POPC   GL225766  40.817  14.399   8.882
 1687POPC   C1A25767  40.504  14.734   8.660
 1687POPC   D2A25768  40.695  14.474   8.367
 1687POPC   C3A25769  40.525  14.631   8.041
 1687POPC   C4A25770  40.648  14.838   7.689
 1687POPC   C1B25771  40.918  14.029   8.666
 1687POPC   C2B25772  40.952  13.827   8.297
 1687POPC   C3B25773  41.006  14.059   7.915
 1687POPC   C4B25774  40.715  14.288   7.734
 1688POPC   NC325775  30.228  26.898   9.359
 1688POPC   PO425776  29.620  27.207   9.434
 1688POPC   GL125777  29.691  26.858   9.167
 1688POPC   GL225778  29.910  27.026   8.967
 1688POPC   C1A25779  29.587  26.682   8.749
 1688POPC   D2A25780  29.425  26.634   8.319
 1688POPC   C3A25781  29.705  26.662   7.943
 1688POPC   C4A25782  29.955  27.049   7.856
 1688POPC   C1B25783  30.104  26.709   8.704
 1688POPC   C2B25784  30.054  26.565   8.285
 1688POPC   C3B25785  30.278  26.664   7.901
 1688POPC   C4B25786  30.495  27.078   7.836
 1689POPC   NC325787  11.986  21.592   9.458
 1689POPC   PO425788  11.568  21.120   9.517
 1689POPC   GL125789  11.887  21.118   9.205
 1689POPC   GL225790  12.230  21.216   9.253
 1689POPC   C1A25791  11.874  21.117   8.755
 1689POPC   D2A25792  11.631  21.299   8.424
 1689POPC   C3A25793  11.766  21.453   8.069
 1689POPC   C4A25794  11.818  21.181   7.733
 1689POPC   C1B25795  12.338  21.324   8.834
 1689POPC   C2B25796  12.167  21.423   8.409
 1689POPC   C3B25797  12.256  21.280   7.982
 1689POPC   C4B25798  12.556  21.105   7.731
 1690POPC   NC325799  31.190  15.316   9.582
 1690POPC   PO425800  30.599  15.168   9.738
 1690POPC   GL125801  30.687  15.103   9.259
 1690POPC   GL225802  30.480  14.901   9.095
 1690POPC   C1A25803  30.667  15.320   8.839
 1690POPC   D2A25804  30.527  15.203   8.438
 1690POPC   C3A25805  30.751  15.297   8.079
 1690POPC   C4A25806  30.702  15.302   7.636
 1690POPC   C1B25807  30.785  14.840   8.720
 1690POPC   C2B25808  30.750  14.739   8.269
 1690POPC   C3B25809  30.874  14.859   7.852
 1690POPC   C4B25810  30.924  14.903   7.387
 1691POPC   NC325811  14.647  17.642   9.540
 1691POPC   PO425812  13.968  17.383   9.465
 1691POPC   GL125813  14.272  17.597   9.191
 1691POPC   GL225814  14.120  17.866   9.088
 1691POPC   C1A25815  14.473  17.428   8.805
 1691POPC   D2A25816  14.230  17.432   8.408
 1691POPC   C3A25817  14.410  17.452   8.009
 1691POPC   C4A25818  14.412  17.263   7.616
 1691POPC   C1B25819  14.260  17.880   8.700
 1691POPC   C2B25820  14.522  17.847   8.362
 1691POPC   C3B25821  14.385  17.976   7.970
 1691POPC   C4B25822  14.492  17.777   7.602
 1692POPC   NC325823   8.805  16.288   9.832
 1692POPC   PO425824   9.179  15.900   9.411
 1692POPC   GL125825   8.888  15.973   9.098
 1692POPC   GL225826   8.633  16.246   9.200
 1692POPC   C1A25827   8.909  15.764   8.700
 1692POPC   D2A25828   8.787  15.643   8.290
 1692POPC   C3A25829   9.048  15.732   7.939
 1692POPC   C4A25830   9.347  15.696   7.569
 1692POPC   C1B25831   8.764  16.288   8.759
 1692POPC   C2B25832   8.687  16.126   8.384
 1692POPC   C3B25833   8.784  16.153   7.980
 1692POPC   C4B25834   9.061  16.142   7.600
 1693POPC   NC325835  37.453  24.342   9.995
 1693POPC   PO425836  37.954  24.398   9.534
 1693POPC   GL125837  37.720  24.581   9.193
 1693POPC   GL225838  37.998  24.648   8.988
 1693POPC   C1A25839  37.610  24.363   8.803
 1693POPC   D2A25840  37.765  24.331   8.376
 1693POPC   C3A25841  37.530  24.288   7.987
 1693POPC   C4A25842  37.524  24.559   7.612
 1693POPC   C1B25843  37.784  24.874   8.729
 1693POPC   C2B25844  37.867  25.174   8.424
 1693POPC   C3B25845  37.848  24.964   8.053
 1693POPC   C4B25846  37.952  24.548   7.903
 1694POPC   NC325847  13.382  24.992   9.474
 1694POPC   PO425848  13.758  25.566   9.407
 1694POPC   GL125849  13.634  25.328   9.046
 1694POPC   GL225850  13.381  25.052   8.979
 1694POPC   C1A25851  13.572  25.591   8.681
 1694POPC   D2A25852  13.711  25.593   8.254
 1694POPC   C3A25853  13.869  25.217   8.075
 1694POPC   C4A25854  14.001  25.248   7.648
 1694POPC   C1B25855  13.224  25.223   8.615
 1694POPC   C2B25856  13.216  25.422   8.206
 1694POPC   C3B25857  13.450  25.383   7.803
 1694POPC   C4B25858  13.569  25.194   7.378
 1695POPC   NC325859  44.180  22.768   9.433
 1695POPC   PO425860  43.551  23.094   9.596
 1695POPC   GL125861  43.689  23.135   9.219
 1695POPC   GL225862  44.026  23.283   9.224
 1695POPC   C1A25863  43.639  22.802   8.953
 1695POPC   D2A25864  43.661  22.801   8.534
 1695POPC   C3A25865  43.638  22.923   8.113
 1695POPC   C4A25866  43.861  22.727   7.810
 1695POPC   C1B25867  43.967  23.190   8.774
 1695POPC   C2B25868  43.795  23.359   8.384
 1695POPC   C3B25869  43.890  23.346   7.944
 1695POPC   C4B25870  44.192  23.095   7.751
 1696POPC   NC325871   7.728  21.731   9.521
 1696POPC   PO425872   7.514  22.438   9.487
 1696POPC   GL125873   7.407  22.373   9.065
 1696POPC   GL225874   7.319  21.991   9.053
 1696POPC   C1A25875   7.308  22.279   8.648
 1696POPC   D2A25876   7.508  22.052   8.387
 1696POPC   C3A25877   7.392  22.299   8.077
 1696POPC   C4A25878   7.553  22.251   7.713
 1696POPC   C1B25879   6.964  21.906   8.710
 1696POPC   C2B25880   7.027  21.935   8.245
 1696POPC   C3B25881   7.380  21.800   7.935
 1696POPC   C4B25882   7.597  21.810   7.478
 1697POPC   NC325883  39.335  19.123   9.864
 1697POPC   PO425884  39.623  18.726   9.299
 1697POPC   GL125885  39.365  19.081   9.213
 1697POPC   GL225886  39.065  19.190   9.075
 1697POPC   C1A25887  39.449  19.273   8.778
 1697POPC   D2A25888  39.542  19.093   8.391
 1697POPC   C3A25889  39.453  19.247   7.981
 1697POPC   C4A25890  39.193  19.019   7.698
 1697POPC   C1B25891  38.927  19.402   8.722
 1697POPC   C2B25892  38.773  19.437   8.302
 1697POPC   C3B25893  38.950  19.427   7.893
 1697POPC   C4B25894  38.917  19.401   7.430
 1698POPC   NC325895   7.502  35.862   9.549
 1698POPC   PO425896   7.520  36.535   9.439
 1698POPC   GL125897   7.614  36.135   9.133
 1698POPC   GL225898   7.708  35.722   9.121
 1698POPC   C1A25899   7.323  36.047   8.787
 1698POPC   D2A25900   7.182  36.331   8.450
 1698POPC   C3A25901   7.437  36.442   8.114
 1698POPC   C4A25902   7.376  36.357   7.713
 1698POPC   C1B25903   7.667  35.660   8.705
 1698POPC   C2B25904   7.609  35.950   8.373
 1698POPC   C3B25905   7.416  35.923   8.006
 1698POPC   C4B25906   7.591  35.877   7.638
 1699POPC   NC325907   8.646  32.952   9.461
 1699POPC   PO425908   9.276  32.724   9.348
 1699POPC   GL125909   9.012  33.004   9.097
 1699POPC   GL225910   8.929  33.343   9.266
 1699POPC   C1A25911   8.994  33.052   8.651
 1699POPC   D2A25912   9.198  32.896   8.307
 1699POPC   C3A25913   8.878  33.048   8.087
 1699POPC   C4A25914   8.751  33.028   7.703
 1699POPC   C1B25915   9.195  33.454   8.917
 1699POPC   C2B25916   9.281  33.479   8.489
 1699POPC   C3B25917   9.279  33.381   8.095
 1699POPC   C4B25918   9.014  33.479   7.789
 1700POPC   NC325919  13.032   0.935   9.480
 1700POPC   PO425920  12.760   0.327   9.244
 1700POPC   GL125921  13.004   0.374   8.943
 1700POPC   GL225922  13.001   0.714   8.995
 1700POPC   C1A25923  12.979   0.272   8.510
 1700POPC   D2A25924  12.612   0.252   8.263
 1700POPC   C3A25925  12.763   0.147   7.897
 1700POPC   C4A25926  12.913   0.468   7.617
 1700POPC   C1B25927  12.631   0.604   8.685
 1700POPC   C2B25928  12.612   0.771   8.291
 1700POPC   C3B25929  12.640   0.882   7.878
 1700POPC   C4B25930  12.892   1.007   7.533
 1701POPC   NC325931  27.713  30.071   9.422
 1701POPC   PO425932  27.189  29.681   9.449
 1701POPC   GL125933  27.400  29.824   9.114
 1701POPC   GL225934  27.643  29.558   9.199
 1701POPC   C1A25935  27.521  30.079   8.745
 1701POPC   D2A25936  27.646  30.055   8.307
 1701POPC   C3A25937  27.408  29.876   7.984
 1701POPC   C4A25938  27.441  30.076   7.604
 1701POPC   C1B25939  27.809  29.640   8.798
 1701POPC   C2B25940  28.004  29.713   8.414
 1701POPC   C3B25941  27.879  29.691   7.992
 1701POPC   C4B25942  27.833  29.393   7.675
 1702POPC   NC325943  25.150  34.275   9.659
 1702POPC   PO425944  25.178  34.867   9.362
 1702POPC   GL125945  25.311  34.483   9.135
 1702POPC   GL225946  25.227  34.164   9.150
 1702POPC   C1A25947  25.351  34.507   8.700
 1702POPC   D2A25948  25.078  34.689   8.412
 1702POPC   C3A25949  25.162  34.721   7.968
 1702POPC   C4A25950  25.053  34.880   7.545
 1702POPC   C1B25951  24.985  34.165   8.760
 1702POPC   C2B25952  25.113  34.160   8.342
 1702POPC   C3B25953  25.090  34.229   7.908
 1702POPC   C4B25954  25.259  34.420   7.560
 1703POPC   NC325955  42.346  12.359   9.642
 1703POPC   PO425956  42.051  11.748   9.575
 1703POPC   GL125957  42.331  11.943   9.285
 1703POPC   GL225958  42.515  12.277   9.180
 1703POPC   C1A25959  42.404  11.906   8.843
 1703POPC   D2A25960  42.152  11.929   8.475
 1703POPC   C3A25961  42.382  11.751   8.132
 1703POPC   C4A25962  42.362  11.892   7.719
 1703POPC   C1B25963  42.464  12.428   8.765
 1703POPC   C2B25964  42.556  12.272   8.355
 1703POPC   C3B25965  42.460  12.382   7.892
 1703POPC   C4B25966  42.466  12.311   7.401
 1704POPC   NC325967  17.310  10.836   9.468
 1704POPC   PO425968  17.920  10.374   9.491
 1704POPC   GL125969  17.680  10.548   9.139
 1704POPC   GL225970  17.313  10.460   9.112
 1704POPC   C1A25971  17.594  10.384   8.721
 1704POPC   D2A25972  17.365  10.497   8.376
 1704POPC   C3A25973  17.474  10.256   8.026
 1704POPC   C4A25974  17.553  10.506   7.705
 1704POPC   C1B25975  17.105  10.753   8.836
 1704POPC   C2B25976  16.970  10.847   8.434
 1704POPC   C3B25977  17.173  10.900   8.044
 1704POPC   C4B25978  17.061  10.845   7.619
 1705POPC   NC325979  22.686   9.652   9.539
 1705POPC   PO425980  23.227   9.411   9.497
 1705POPC   GL125981  23.057   9.734   9.181
 1705POPC   GL225982  23.228   9.902   8.895
 1705POPC   C1A25983  22.747   9.727   8.813
 1705POPC   D2A25984  22.588   9.693   8.357
 1705POPC   C3A25985  22.868   9.670   7.979
 1705POPC   C4A25986  22.879   9.824   7.533
 1705POPC   C1B25987  23.134   9.755   8.464
 1705POPC   C2B25988  23.340   9.515   8.143
 1705POPC   C3B25989  23.295   9.577   7.683
 1705POPC   C4B25990  23.077   9.351   7.336
 1706POPC   NC325991  22.044  26.944   9.516
 1706POPC   PO425992  21.846  26.374   9.394
 1706POPC   GL125993  21.785  26.747   9.101
 1706POPC   GL225994  21.809  27.142   9.110
 1706POPC   C1A25995  21.840  26.901   8.663
 1706POPC   D2A25996  21.872  26.911   8.218
 1706POPC   C3A25997  22.182  26.628   8.045
 1706POPC   C4A25998  22.597  26.580   7.871
 1706POPC   C1B25999  22.203  27.234   8.818
 1706POPC   C2B26000  22.333  27.168   8.350
 1706POPC   C3B26001  22.189  27.125   7.894
 1706POPC   C4B26002  21.864  26.842   7.703
 1707POPC   NC326003  30.435   6.461   9.406
 1707POPC   PO426004  30.899   6.986   9.338
 1707POPC   GL126005  30.711   6.737   9.067
 1707POPC   GL226006  30.395   6.880   9.091
 1707POPC   C1A26007  30.718   6.475   8.718
 1707POPC   D2A26008  30.455   6.416   8.366
 1707POPC   C3A26009  30.745   6.589   8.077
 1707POPC   C4A26010  30.992   6.328   7.831
 1707POPC   C1B26011  30.278   6.743   8.723
 1707POPC   C2B26012  30.370   6.918   8.322
 1707POPC   C3B26013  30.261   6.716   7.942
 1707POPC   C4B26014  30.453   6.395   7.685
 1708POPC   NC326015  20.953  26.927   9.877
 1708POPC   PO426016  21.545  27.005   9.558
 1708POPC   GL126017  21.324  26.942   9.175
 1708POPC   GL226018  21.155  27.177   9.051
 1708POPC   C1A26019  21.371  26.747   8.775
 1708POPC   D2A26020  21.568  26.532   8.409
 1708POPC   C3A26021  21.453  26.661   7.992
 1708POPC   C4A26022  21.110  26.779   7.699
 1708POPC   C1B26023  21.448  27.252   8.760
 1708POPC   C2B26024  21.411  27.056   8.357
 1708POPC   C3B26025  21.505  27.157   7.914
 1708POPC   C4B26026  21.468  27.014   7.454
 1709POPC   NC326027  41.477  20.989   9.338
 1709POPC   PO426028  41.654  20.396   9.545
 1709POPC   GL126029  41.694  20.407   9.135
 1709POPC   GL226030  42.030  20.261   9.121
 1709POPC   C1A26031  41.500  20.619   8.781
 1709POPC   D2A26032  41.221  20.635   8.423
 1709POPC   C3A26033  41.400  20.658   8.001
 1709POPC   C4A26034  41.425  20.287   7.725
 1709POPC   C1B26035  41.942  20.339   8.694
 1709POPC   C2B26036  41.687  20.385   8.349
 1709POPC   C3B26037  41.861  20.406   7.950
 1709POPC   C4B26038  42.197  20.247   7.752
 1710POPC   NC326039  33.307  29.068   9.507
 1710POPC   PO426040  32.589  29.069   9.372
 1710POPC   GL126041  32.752  29.201   9.062
 1710POPC   GL226042  33.006  29.361   9.199
 1710POPC   C1A26043  32.726  29.450   8.727
 1710POPC   D2A26044  32.878  29.300   8.361
 1710POPC   C3A26045  32.789  29.120   7.972
 1710POPC   C4A26046  33.191  28.912   7.791
 1710POPC   C1B26047  33.248  29.399   8.830
 1710POPC   C2B26048  33.288  29.595   8.434
 1710POPC   C3B26049  33.277  29.379   8.023
 1710POPC   C4B26050  33.047  29.396   7.649
 1711POPC   NC326051  27.198  34.806   9.511
 1711POPC   PO426052  27.467  34.228   9.247
 1711POPC   GL126053  27.767  34.405   9.044
 1711POPC   GL226054  27.782  34.749   9.199
 1711POPC   C1A26055  27.675  34.467   8.612
 1711POPC   D2A26056  27.445  34.751   8.360
 1711POPC   C3A26057  27.400  34.515   7.984
 1711POPC   C4A26058  27.694  34.481   7.645
 1711POPC   C1B26059  27.737  34.939   8.793
 1711POPC   C2B26060  27.923  35.026   8.388
 1711POPC   C3B26061  27.779  34.894   7.974
 1711POPC   C4B26062  27.357  35.001   7.788
 1712POPC   NC326063  44.007  30.041   9.460
 1712POPC   PO426064  43.790  30.739   9.523
 1712POPC   GL126065  43.856  30.676   9.107
 1712POPC   GL226066  44.135  30.450   9.032
 1712POPC   C1A26067  43.990  30.827   8.737
 1712POPC   D2A26068  43.839  30.951   8.372
 1712POPC   C3A26069  44.015  30.741   8.010
 1712POPC   C4A26070  44.027  30.787   7.583
 1712POPC   C1B26071  44.153  30.314   8.622
 1712POPC   C2B26072  44.158  30.258   8.172
 1712POPC   C3B26073  44.331  30.393   7.760
 1712POPC   C4B26074  44.124  30.362   7.316
 1713POPC   NC326075  15.041  10.887   9.477
 1713POPC   PO426076  15.224  11.560   9.620
 1713POPC   GL126077  14.979  11.499   9.217
 1713POPC   GL226078  15.098  11.187   9.056
 1713POPC   C1A26079  15.095  11.617   8.753
 1713POPC   D2A26080  15.096  11.398   8.390
 1713POPC   C3A26081  15.258  11.575   8.034
 1713POPC   C4A26082  15.163  11.443   7.656
 1713POPC   C1B26083  15.313  11.009   8.698
 1713POPC   C2B26084  15.165  10.884   8.303
 1713POPC   C3B26085  15.226  10.997   7.889
 1713POPC   C4B26086  15.467  10.942   7.534
 1714POPC   NC326087   0.060  32.204   9.644
 1714POPC   PO426088  44.444  32.135   9.557
 1714POPC   GL126089  44.511  32.337   9.177
 1714POPC   GL226090  44.852  32.184   9.159
 1714POPC   C1A26091  44.660  32.389   8.740
 1714POPC   D2A26092  44.673  32.108   8.398
 1714POPC   C3A26093  44.642  32.313   7.973
 1714POPC   C4A26094  44.697  32.597   7.607
 1714POPC   C1B26095  44.956  31.830   8.868
 1714POPC   C2B26096  44.930  31.647   8.430
 1714POPC   C3B26097  44.815  31.811   8.009
 1714POPC   C4B26098  44.629  31.929   7.622
 1715POPC   NC326099  38.307  34.076   9.554
 1715POPC   PO426100  38.641  34.690   9.547
 1715POPC   GL126101  38.381  34.586   9.207
 1715POPC   GL226102  38.368  34.924   9.136
 1715POPC   C1A26103  38.511  34.601   8.759
 1715POPC   D2A26104  38.282  34.659   8.381
 1715POPC   C3A26105  38.521  34.573   8.038
 1715POPC   C4A26106  38.679  34.364   7.698
 1715POPC   C1B26107  38.136  34.957   8.756
 1715POPC   C2B26108  38.219  35.151   8.375
 1715POPC   C3B26109  38.205  34.974   7.962
 1715POPC   C4B26110  38.386  34.799   7.584
 1716POPC   NC326111   0.881   5.627   9.431
 1716POPC   PO426112   1.282   5.961   9.801
 1716POPC   GL126113   1.312   5.864   9.307
 1716POPC   GL226114   1.571   6.051   9.150
 1716POPC   C1A26115   1.222   5.815   8.830
 1716POPC   D2A26116   1.144   5.994   8.399
 1716POPC   C3A26117   1.170   5.779   8.000
 1716POPC   C4A26118   0.796   5.816   7.755
 1716POPC   C1B26119   1.795   6.272   8.822
 1716POPC   C2B26120   1.731   6.373   8.361
 1716POPC   C3B26121   1.478   6.187   8.083
 1716POPC   C4B26122   1.429   6.102   7.672
 1717POPC   NC326123  36.664   8.298   9.416
 1717POPC   PO426124  37.109   7.693   9.526
 1717POPC   GL126125  36.997   7.986   9.190
 1717POPC   GL226126  37.201   8.271   9.170
 1717POPC   C1A26127  36.787   8.167   8.786
 1717POPC   D2A26128  36.433   8.128   8.466
 1717POPC   C3A26129  36.508   8.400   8.080
 1717POPC   C4A26130  36.867   8.479   7.761
 1717POPC   C1B26131  37.383   7.964   8.855
 1717POPC   C2B26132  37.477   7.873   8.400
 1717POPC   C3B26133  37.327   7.976   7.967
 1717POPC   C4B26134  37.046   8.010   7.562
 1718POPC   NC326135  20.279  44.279   9.488
 1718POPC   PO426136  20.744  43.823   9.581
 1718POPC   GL126137  20.684  43.859   9.171
 1718POPC   GL226138  20.663  44.174   9.181
 1718POPC   C1A26139  20.775  43.997   8.733
 1718POPC   D2A26140  20.821  43.811   8.373
 1718POPC   C3A26141  20.548  43.848   8.029
 1718POPC   C4A26142  20.686  43.640   7.700
 1718POPC   C1B26143  20.393  44.317   8.836
 1718POPC   C2B26144  20.264  44.387   8.423
 1718POPC   C3B26145  20.194  44.252   8.014
 1718POPC   C4B26146  20.394  44.199   7.643
 1719POPC   NC326147   3.966  16.845   9.709
 1719POPC   PO426148   4.521  16.787   9.507
 1719POPC   GL126149   4.422  16.568   9.151
 1719POPC   GL226150   4.704  16.380   9.122
 1719POPC   C1A26151   4.313  16.687   8.711
 1719POPC   D2A26152   4.400  17.060   8.437
 1719POPC   C3A26153   4.297  16.987   8.005
 1719POPC   C4A26154   4.185  16.581   7.799
 1719POPC   C1B26155   4.793  16.742   8.849
 1719POPC   C2B26156   4.784  16.702   8.390
 1719POPC   C3B26157   4.683  16.670   7.952
 1719POPC   C4B26158   4.602  16.673   7.491
 1720POPC   NC326159   9.323  36.551   9.334
 1720POPC   PO426160   9.796  36.112   9.442
 1720POPC   GL126161   9.921  36.344   9.124
 1720POPC   GL226162   9.617  36.299   8.984
 1720POPC   C1A26163   9.992  36.541   8.762
 1720POPC   D2A26164   9.871  36.312   8.396
 1720POPC   C3A26165   9.978  36.496   7.996
 1720POPC   C4A26166   9.911  36.547   7.537
 1720POPC   C1B26167   9.695  35.905   8.789
 1720POPC   C2B26168   9.903  35.754   8.422
 1720POPC   C3B26169   9.918  35.750   7.993
 1720POPC   C4B26170   9.833  36.075   7.724
 1721POPC   NC326171  39.056  24.881   9.354
 1721POPC   PO426172  39.528  24.404   9.446
 1721POPC   GL126173  39.248  24.324   9.078
 1721POPC   GL226174  38.907  24.284   9.100
 1721POPC   C1A26175  39.180  24.157   8.625
 1721POPC   D2A26176  39.219  24.379   8.214
 1721POPC   C3A26177  39.339  24.252   7.812
 1721POPC   C4A26178  39.416  24.614   7.513
 1721POPC   C1B26179  38.981  24.603   8.776
 1721POPC   C2B26180  38.799  24.539   8.427
 1721POPC   C3B26181  38.842  24.755   8.040
 1721POPC   C4B26182  38.940  24.550   7.689
 1722POPC   NC326183  28.038  35.363   9.875
 1722POPC   PO426184  28.612  35.036   9.591
 1722POPC   GL126185  28.425  35.273   9.173
 1722POPC   GL226186  28.204  35.053   8.978
 1722POPC   C1A26187  28.390  35.446   8.738
 1722POPC   D2A26188  28.167  35.490   8.331
 1722POPC   C3A26189  28.371  35.538   7.924
 1722POPC   C4A26190  28.106  35.297   7.626
 1722POPC   C1B26191  28.574  34.975   8.732
 1722POPC   C2B26192  28.560  35.161   8.336
 1722POPC   C3B26193  28.328  35.043   8.014
 1722POPC   C4B26194  28.556  35.055   7.617
 1723POPC   NC326195  40.253  22.057   9.486
 1723POPC   PO426196  39.613  21.808   9.493
 1723POPC   GL126197  39.749  22.079   9.121
 1723POPC   GL226198  40.052  21.984   9.038
 1723POPC   C1A26199  39.881  22.331   8.742
 1723POPC   D2A26200  40.153  22.123   8.463
 1723POPC   C3A26201  40.023  22.224   8.055
 1723POPC   C4A26202  40.240  22.477   7.759
 1723POPC   C1B26203  39.815  21.794   8.691
 1723POPC   C2B26204  39.932  21.697   8.246
 1723POPC   C3B26205  39.707  21.836   7.868
 1723POPC   C4B26206  39.815  22.056   7.466
 1724POPC   NC326207   1.048  28.268   9.614
 1724POPC   PO426208   1.503  28.649   9.684
 1724POPC   GL126209   1.311  28.449   9.239
 1724POPC   GL226210   0.940  28.478   9.166
 1724POPC   C1A26211   1.142  28.151   8.859
 1724POPC   D2A26212   1.059  27.936   8.471
 1724POPC   C3A26213   1.193  28.162   8.110
 1724POPC   C4A26214   1.007  28.310   7.742
 1724POPC   C1B26215   0.829  28.547   8.730
 1724POPC   C2B26216   0.842  28.523   8.255
 1724POPC   C3B26217   0.703  28.701   7.877
 1724POPC   C4B26218   0.949  28.889   7.566
 1725POPC   NC326219  13.210   5.899   9.633
 1725POPC   PO426220  13.619   5.404   9.626
 1725POPC   GL126221  13.689   5.762   9.324
 1725POPC   GL226222  13.934   6.055   9.291
 1725POPC   C1A26223  13.697   5.744   8.885
 1725POPC   D2A26224  13.584   5.434   8.567
 1725POPC   C3A26225  13.578   5.632   8.171
 1725POPC   C4A26226  13.620   5.762   7.758
 1725POPC   C1B26227  13.916   6.215   8.848
 1725POPC   C2B26228  13.791   6.048   8.411
 1725POPC   C3B26229  13.986   6.067   7.950
 1725POPC   C4B26230  13.959   6.029   7.434
 1726POPC   NC326231  20.033   6.465   9.524
 1726POPC   PO426232  19.645   7.076   9.460
 1726POPC   GL126233  19.807   6.934   9.114
 1726POPC   GL226234  19.672   6.596   9.113
 1726POPC   C1A26235  19.924   6.849   8.713
 1726POPC   D2A26236  19.839   6.604   8.363
 1726POPC   C3A26237  20.060   6.675   8.007
 1726POPC   C4A26238  19.809   6.633   7.648
 1726POPC   C1B26239  19.902   6.343   8.801
 1726POPC   C2B26240  19.801   6.093   8.395
 1726POPC   C3B26241  19.701   6.238   7.995
 1726POPC   C4B26242  19.795   6.065   7.653
 1727POPC   NC326243  21.130  11.755   9.595
 1727POPC   PO426244  20.515  11.825   9.447
 1727POPC   GL126245  20.836  11.969   9.166
 1727POPC   GL226246  20.548  12.161   9.070
 1727POPC   C1A26247  20.860  11.996   8.691
 1727POPC   D2A26248  20.641  12.087   8.294
 1727POPC   C3A26249  20.880  11.941   7.994
 1727POPC   C4A26250  20.619  11.646   7.852
 1727POPC   C1B26251  20.386  12.296   8.698
 1727POPC   C2B26252  20.121  12.302   8.340
 1727POPC   C3B26253  20.229  12.449   7.947
 1727POPC   C4B26254  20.659  12.362   7.831
 1728POPC   NC326255  24.099   7.299   9.363
 1728POPC   PO426256  23.530   7.681   9.554
 1728POPC   GL126257  23.572   7.383   9.180
 1728POPC   GL226258  23.251   7.248   9.005
 1728POPC   C1A26259  23.723   7.242   8.776
 1728POPC   D2A26260  23.988   7.315   8.428
 1728POPC   C3A26261  23.842   7.132   8.043
 1728POPC   C4A26262  23.831   7.283   7.633
 1728POPC   C1B26263  23.287   7.590   8.766
 1728POPC   C2B26264  23.454   7.477   8.381
 1728POPC   C3B26265  23.681   7.611   8.077
 1728POPC   C4B26266  23.513   7.690   7.717
 1729POPC   NC326267  39.634  17.388   9.521
 1729POPC   PO426268  40.295  17.417   9.581
 1729POPC   GL126269  40.037  17.425   9.208
 1729POPC   GL226270  39.850  17.756   9.208
 1729POPC   C1A26271  39.736  17.357   8.869
 1729POPC   D2A26272  39.666  17.495   8.461
 1729POPC   C3A26273  39.910  17.288   8.127
 1729POPC   C4A26274  39.790  17.183   7.709
 1729POPC   C1B26275  40.029  17.788   8.791
 1729POPC   C2B26276  40.101  17.823   8.365
 1729POPC   C3B26277  39.840  17.780   8.012
 1729POPC   C4B26278  40.064  17.653   7.655
 1730POPC   NC326279  17.891  24.416   9.350
 1730POPC   PO426280  18.470  24.372   9.546
 1730POPC   GL126281  18.342  24.360   9.117
 1730POPC   GL226282  18.202  24.691   9.058
 1730POPC   C1A26283  18.155  24.312   8.708
 1730POPC   D2A26284  18.154  24.031   8.348
 1730POPC   C3A26285  18.298  24.327   8.056
 1730POPC   C4A26286  18.249  24.659   7.771
 1730POPC   C1B26287  18.537  24.721   8.787
 1730POPC   C2B26288  18.626  24.635   8.361
 1730POPC   C3B26289  18.629  24.867   8.014
 1730POPC   C4B26290  18.783  24.899   7.603
 1731POPC   NC326291  22.564  44.775   9.420
 1731POPC   PO426292  23.070  44.442   9.464
 1731POPC   GL126293  23.043  44.278   9.082
 1731POPC   GL226294  22.693  44.281   9.024
 1731POPC   C1A26295  23.049  44.399   8.627
 1731POPC   D2A26296  23.134  44.754   8.340
 1731POPC   C3A26297  22.999  44.691   7.928
 1731POPC   C4A26298  22.970  44.861   7.514
 1731POPC   C1B26299  22.646  44.686   8.770
 1731POPC   C2B26300  22.605  44.673   8.325
 1731POPC   C3B26301  22.619  44.368   7.995
 1731POPC   C4B26302  22.621  44.496   7.549
 1732POPC   NC326303   5.644  41.716   9.892
 1732POPC   PO426304   5.539  41.167   9.489
 1732POPC   GL126305   5.725  41.515   9.179
 1732POPC   GL226306   6.063  41.686   9.217
 1732POPC   C1A26307   5.554  41.662   8.765
 1732POPC   D2A26308   5.752  41.723   8.324
 1732POPC   C3A26309   5.552  41.647   7.907
 1732POPC   C4A26310   5.831  41.570   7.537
 1732POPC   C1B26311   6.054  41.612   8.764
 1732POPC   C2B26312   6.189  41.479   8.372
 1732POPC   C3B26313   6.117  41.458   7.950
 1732POPC   C4B26314   6.337  41.558   7.563
 1733POPC   NC326315  32.746  29.108   9.797
 1733POPC   PO426316  32.053  29.266   9.791
 1733POPC   GL126317  32.051  29.089   9.225
 1733POPC   GL226318  32.268  29.394   8.968
 1733POPC   C1A26319  32.098  28.989   8.792
 1733POPC   D2A26320  32.409  29.095   8.485
 1733POPC   C3A26321  32.427  28.807   8.146
 1733POPC   C4A26322  32.359  28.851   7.685
 1733POPC   C1B26323  31.991  29.456   8.641
 1733POPC   C2B26324  31.970  29.269   8.270
 1733POPC   C3B26325  32.253  29.271   7.971
 1733POPC   C4B26326  32.153  29.448   7.612
 1734POPC   NC326327  37.455  18.609   9.968
 1734POPC   PO426328  37.652  18.051   9.566
 1734POPC   GL126329  37.749  18.369   9.241
 1734POPC   GL226330  37.487  18.372   9.024
 1734POPC   C1A26331  37.986  18.361   8.822
 1734POPC   D2A26332  37.727  18.448   8.455
 1734POPC   C3A26333  37.803  18.548   8.016
 1734POPC   C4A26334  37.586  18.414   7.611
 1734POPC   C1B26335  37.656  17.987   8.787
 1734POPC   C2B26336  37.964  17.980   8.426
 1734POPC   C3B26337  37.765  18.019   8.004
 1734POPC   C4B26338  37.349  18.000   7.824
 1735POPC   NC326339  38.912   9.275   9.705
 1735POPC   PO426340  39.196   8.772   9.440
 1735POPC   GL126341  39.341   9.049   9.160
 1735POPC   GL226342  39.062   9.251   9.206
 1735POPC   C1A26343  39.377   9.240   8.765
 1735POPC   D2A26344  39.186   9.101   8.376
 1735POPC   C3A26345  39.399   9.058   7.984
 1735POPC   C4A26346  39.170   8.770   7.659
 1735POPC   C1B26347  38.891   9.058   8.834
 1735POPC   C2B26348  38.781   9.357   8.560
 1735POPC   C3B26349  38.956   9.509   8.168
 1735POPC   C4B26350  39.011   9.295   7.774
 1736POPC   NC326351   8.523  23.102   9.480
 1736POPC   PO426352   7.874  23.027   9.523
 1736POPC   GL126353   8.175  22.920   9.161
 1736POPC   GL226354   8.017  22.640   8.984
 1736POPC   C1A26355   8.382  22.841   8.740
 1736POPC   D2A26356   8.248  23.065   8.362
 1736POPC   C3A26357   8.392  22.996   7.941
 1736POPC   C4A26358   8.454  22.629   7.750
 1736POPC   C1B26359   7.912  23.070   8.776
 1736POPC   C2B26360   7.758  23.205   8.369
 1736POPC   C3B26361   7.886  23.006   7.983
 1736POPC   C4B26362   7.801  23.038   7.540
 1737POPC   NC326363  32.084  34.750   9.559
 1737POPC   PO426364  32.386  34.126   9.521
 1737POPC   GL126365  32.302  34.399   9.194
 1737POPC   GL226366  32.485  34.710   9.226
 1737POPC   C1A26367  32.311  34.431   8.746
 1737POPC   D2A26368  32.408  34.335   8.280
 1737POPC   C3A26369  32.112  34.569   7.983
 1737POPC   C4A26370  31.760  34.434   7.693
 1737POPC   C1B26371  32.566  34.877   8.840
 1737POPC   C2B26372  32.404  34.829   8.426
 1737POPC   C3B26373  32.490  34.997   8.024
 1737POPC   C4B26374  32.251  34.998   7.660
 1738POPC   NC326375   5.727  13.171   9.441
 1738POPC   PO426376   5.989  12.514   9.534
 1738POPC   GL126377   5.947  12.778   9.173
 1738POPC   GL226378   6.207  13.041   9.245
 1738POPC   C1A26379   5.899  12.813   8.724
 1738POPC   D2A26380   5.734  12.926   8.320
 1738POPC   C3A26381   5.812  12.584   7.997
 1738POPC   C4A26382   5.656  12.450   7.618
 1738POPC   C1B26383   6.287  13.139   8.823
 1738POPC   C2B26384   6.160  13.216   8.398
 1738POPC   C3B26385   6.159  12.951   8.044
 1738POPC   C4B26386   5.922  12.967   7.624
 1739POPC   NC326387  30.856  35.245   9.560
 1739POPC   PO426388  30.218  34.992   9.457
 1739POPC   GL126389  30.534  35.201   9.149
 1739POPC   GL226390  30.930  35.123   9.079
 1739POPC   C1A26391  30.671  35.414   8.771
 1739POPC   D2A26392  30.757  35.360   8.356
 1739POPC   C3A26393  30.623  35.573   8.003
 1739POPC   C4A26394  30.295  35.382   7.753
 1739POPC   C1B26395  31.121  35.053   8.665
 1739POPC   C2B26396  31.113  35.021   8.211
 1739POPC   C3B26397  30.806  35.087   7.865
 1739POPC   C4B26398  30.968  35.015   7.386
 1740POPC   NC326399  17.868  30.178   9.491
 1740POPC   PO426400  18.512  29.931   9.549
 1740POPC   GL126401  18.284  30.149   9.217
 1740POPC   GL226402  18.496  30.140   9.014
 1740POPC   C1A26403  18.005  30.216   8.837
 1740POPC   D2A26404  17.872  29.994   8.464
 1740POPC   C3A26405  18.113  30.145   8.116
 1740POPC   C4A26406  18.187  30.066   7.683
 1740POPC   C1B26407  18.347  29.853   8.713
 1740POPC   C2B26408  18.366  29.726   8.309
 1740POPC   C3B26409  18.558  29.910   7.970
 1740POPC   C4B26410  18.625  29.840   7.516
 1741POPC   NC326411  19.376  11.721   9.424
 1741POPC   PO426412  18.830  12.239   9.538
 1741POPC   GL126413  18.991  12.025   9.161
 1741POPC   GL226414  18.642  11.925   9.160
 1741POPC   C1A26415  19.217  11.990   8.683
 1741POPC   D2A26416  19.200  11.944   8.193
 1741POPC   C3A26417  19.165  12.220   7.785
 1741POPC   C4A26418  19.324  12.077   7.350
 1741POPC   C1B26419  18.707  11.864   8.758
 1741POPC   C2B26420  18.714  11.792   8.315
 1741POPC   C3B26421  18.754  11.930   7.890
 1741POPC   C4B26422  18.737  12.137   7.482
 1742POPC   NC326423   7.468   6.869   9.477
 1742POPC   PO426424   7.609   7.551   9.555
 1742POPC   GL126425   7.696   7.277   9.197
 1742POPC   GL226426   7.342   7.256   9.147
 1742POPC   C1A26427   7.647   7.355   8.712
 1742POPC   D2A26428   7.345   7.383   8.322
 1742POPC   C3A26429   7.456   7.518   7.876
 1742POPC   C4A26430   7.569   7.394   7.449
 1742POPC   C1B26431   7.150   7.129   8.757
 1742POPC   C2B26432   6.886   7.155   8.361
 1742POPC   C3B26433   6.987   7.232   7.929
 1742POPC   C4B26434   7.015   7.346   7.460
 1743POPC   NC326435  40.945  30.745   9.546
 1743POPC   PO426436  40.583  31.285   9.589
 1743POPC   GL126437  40.669  31.460   9.186
 1743POPC   GL226438  41.021  31.290   9.205
 1743POPC   C1A26439  40.971  31.702   8.892
 1743POPC   D2A26440  41.167  31.562   8.522
 1743POPC   C3A26441  40.992  31.641   8.144
 1743POPC   C4A26442  40.758  31.561   7.811
 1743POPC   C1B26443  40.836  31.219   8.789
 1743POPC   C2B26444  40.711  31.242   8.382
 1743POPC   C3B26445  40.654  31.075   7.984
 1743POPC   C4B26446  40.990  31.088   7.706
 1744POPC   NC326447  28.579  36.003   9.441
 1744POPC   PO426448  28.020  35.701   9.561
 1744POPC   GL126449  28.207  35.767   9.112
 1744POPC   GL226450  28.375  36.127   9.011
 1744POPC   C1A26451  28.151  35.883   8.647
 1744POPC   D2A26452  28.395  36.140   8.342
 1744POPC   C3A26453  28.268  36.109   7.875
 1744POPC   C4A26454  28.114  35.811   7.558
 1744POPC   C1B26455  28.672  35.862   8.780
 1744POPC   C2B26456  28.652  35.691   8.363
 1744POPC   C3B26457  28.722  35.941   8.003
 1744POPC   C4B26458  28.664  35.829   7.589
 1745POPC   NC326459  11.099  41.106   9.506
 1745POPC   PO426460  11.481  40.527   9.452
 1745POPC   GL126461  11.342  40.824   9.148
 1745POPC   GL226462  10.996  40.776   9.105
 1745POPC   C1A26463  11.295  40.941   8.706
 1745POPC   D2A26464  11.652  40.908   8.429
 1745POPC   C3A26465  11.629  40.624   8.091
 1745POPC   C4A26466  11.459  40.795   7.742
 1745POPC   C1B26467  11.192  40.440   8.855
 1745POPC   C2B26468  11.278  40.486   8.429
 1745POPC   C3B26469  11.077  40.648   8.049
 1745POPC   C4B26470  11.078  40.493   7.611
 1746POPC   NC326471   8.385   2.503   9.294
 1746POPC   PO426472   8.290   1.784   9.459
 1746POPC   GL126473   8.348   2.027   9.098
 1746POPC   GL226474   8.013   2.194   9.092
 1746POPC   C1A26475   8.440   2.090   8.650
 1746POPC   D2A26476   8.423   1.901   8.233
 1746POPC   C3A26477   8.437   2.235   7.954
 1746POPC   C4A26478   8.284   2.033   7.607
 1746POPC   C1B26479   7.950   1.920   8.747
 1746POPC   C2B26480   7.946   1.965   8.335
 1746POPC   C3B26481   7.928   2.130   7.959
 1746POPC   C4B26482   7.728   1.979   7.632
 1747POPC   NC326483   9.397  25.556   9.685
 1747POPC   PO426484   9.772  24.994   9.635
 1747POPC   GL126485   9.802  25.095   9.192
 1747POPC   GL226486   9.992  25.412   9.181
 1747POPC   C1A26487   9.755  25.220   8.773
 1747POPC   D2A26488   9.933  25.323   8.429
 1747POPC   C3A26489   9.654  25.325   8.086
 1747POPC   C4A26490   9.712  25.184   7.681
 1747POPC   C1B26491  10.256  25.582   8.818
 1747POPC   C2B26492  10.211  25.738   8.394
 1747POPC   C3B26493  10.131  25.512   7.996
 1747POPC   C4B26494   9.951  25.579   7.504
 1748POPC   NC326495  35.101   9.348   9.921
 1748POPC   PO426496  35.065   8.821   9.468
 1748POPC   GL126497  35.413   9.059   9.199
 1748POPC   GL226498  35.309   8.823   9.014
 1748POPC   C1A26499  35.559   9.118   8.728
 1748POPC   D2A26500  35.283   9.101   8.371
 1748POPC   C3A26501  35.457   9.098   7.978
 1748POPC   C4A26502  35.678   8.806   7.812
 1748POPC   C1B26503  35.106   8.706   8.666
 1748POPC   C2B26504  34.917   8.716   8.271
 1748POPC   C3B26505  35.025   8.812   7.869
 1748POPC   C4B26506  35.085   9.181   7.624
 1749POPC   NC326507  38.109  28.819   9.404
 1749POPC   PO426508  38.520  29.238   9.659
 1749POPC   GL126509  38.514  29.184   9.236
 1749POPC   GL226510  38.703  28.888   9.250
 1749POPC   C1A26511  38.671  29.339   8.830
 1749POPC   D2A26512  38.945  29.311   8.481
 1749POPC   C3A26513  38.692  29.208   8.124
 1749POPC   C4A26514  38.602  29.389   7.706
 1749POPC   C1B26515  38.455  28.868   8.843
 1749POPC   C2B26516  38.453  28.752   8.391
 1749POPC   C3B26517  38.171  28.814   8.019
 1749POPC   C4B26518  38.086  28.954   7.570
 1750POPC   NC326519  25.212  14.256   9.508
 1750POPC   PO426520  25.545  13.865   9.288
 1750POPC   GL126521  25.389  14.236   9.016
 1750POPC   GL226522  25.234  14.579   9.090
 1750POPC   C1A26523  25.136  14.333   8.645
 1750POPC   D2A26524  25.294  14.504   8.266
 1750POPC   C3A26525  25.140  14.371   7.867
 1750POPC   C4A26526  25.282  14.476   7.456
 1750POPC   C1B26527  25.018  14.823   8.726
 1750POPC   C2B26528  25.111  14.982   8.274
 1750POPC   C3B26529  25.006  14.880   7.836
 1750POPC   C4B26530  24.677  14.892   7.511
 1751POPC   NC326531  28.374   4.720   9.504
 1751POPC   PO426532  27.925   5.236   9.697
 1751POPC   GL126533  28.238   5.156   9.261
 1751POPC   GL226534  28.290   4.800   9.019
 1751POPC   C1A26535  28.460   5.198   8.818
 1751POPC   D2A26536  28.217   5.343   8.452
 1751POPC   C3A26537  28.304   5.181   8.065
 1751POPC   C4A26538  28.150   5.330   7.685
 1751POPC   C1B26539  28.675   4.705   8.829
 1751POPC   C2B26540  28.814   4.863   8.434
 1751POPC   C3B26541  28.693   4.835   7.980
 1751POPC   C4B26542  28.281   4.767   7.770
 1752POPC   NC326543  30.848   2.876   9.407
 1752POPC   PO426544  30.207   3.064   9.523
 1752POPC   GL126545  30.448   2.983   9.115
 1752POPC   GL226546  30.537   2.581   9.072
 1752POPC   C1A26547  30.723   2.893   8.727
 1752POPC   D2A26548  30.792   2.686   8.306
 1752POPC   C3A26549  30.759   2.942   7.936
 1752POPC   C4A26550  30.412   3.058   7.661
 1752POPC   C1B26551  30.857   2.401   8.724
 1752POPC   C2B26552  30.798   2.147   8.377
 1752POPC   C3B26553  30.840   2.279   7.960
 1752POPC   C4B26554  30.705   2.473   7.598
 1753POPC   NC326555  13.580  28.938   9.388
 1753POPC   PO426556  13.359  29.533   9.304
 1753POPC   GL126557  13.585  29.278   9.011
 1753POPC   GL226558  13.902  29.274   9.161
 1753POPC   C1A26559  13.456  28.933   8.722
 1753POPC   D2A26560  13.639  28.796   8.343
 1753POPC   C3A26561  13.428  28.886   7.950
 1753POPC   C4A26562  13.387  29.328   7.780
 1753POPC   C1B26563  13.993  29.463   8.765
 1753POPC   C2B26564  13.774  29.294   8.470
 1753POPC   C3B26565  13.794  29.331   8.061
 1753POPC   C4B26566  14.139  29.411   7.796
 1754POPC   NC326567  39.280   4.858   9.840
 1754POPC   PO426568  39.319   5.411   9.484
 1754POPC   GL126569  39.291   5.083   9.187
 1754POPC   GL226570  39.501   5.296   9.005
 1754POPC   C1A26571  39.145   5.044   8.735
 1754POPC   D2A26572  39.229   5.020   8.295
 1754POPC   C3A26573  38.903   4.911   8.018
 1754POPC   C4A26574  38.820   5.080   7.632
 1754POPC   C1B26575  39.649   4.957   8.809
 1754POPC   C2B26576  39.742   4.974   8.409
 1754POPC   C3B26577  39.619   4.864   8.005
 1754POPC   C4B26578  39.321   5.043   7.721
 1755POPC   NC326579  33.173   3.168   9.266
 1755POPC   PO426580  33.442   3.790   9.316
 1755POPC   GL126581  33.014   3.710   9.032
 1755POPC   GL226582  32.757   3.424   8.984
 1755POPC   C1A26583  32.953   3.641   8.569
 1755POPC   D2A26584  33.257   3.474   8.275
 1755POPC   C3A26585  33.263   3.643   7.842
 1755POPC   C4A26586  32.899   3.644   7.496
 1755POPC   C1B26587  32.945   3.149   8.673
 1755POPC   C2B26588  32.797   3.070   8.296
 1755POPC   C3B26589  32.872   3.351   7.980
 1755POPC   C4B26590  33.128   3.216   7.604
 1756POPC   NC326591  21.106  31.846   9.453
 1756POPC   PO426592  21.320  31.126   9.574
 1756POPC   GL126593  21.378  31.290   9.160
 1756POPC   GL226594  21.230  31.604   9.032
 1756POPC   C1A26595  21.338  31.223   8.727
 1756POPC   D2A26596  21.227  31.437   8.355
 1756POPC   C3A26597  21.261  31.269   7.968
 1756POPC   C4A26598  20.951  31.543   7.791
 1756POPC   C1B26599  21.541  31.693   8.744
 1756POPC   C2B26600  21.499  31.855   8.336
 1756POPC   C3B26601  21.438  31.740   7.949
 1756POPC   C4B26602  21.699  31.806   7.636
 1757POPC   NC326603  36.004  34.704   9.729
 1757POPC   PO426604  35.900  35.331   9.355
 1757POPC   GL126605  35.988  35.467   8.982
 1757POPC   GL226606  36.286  35.272   8.938
 1757POPC   C1A26607  35.987  35.446   8.556
 1757POPC   D2A26608  36.349  35.302   8.363
 1757POPC   C3A26609  36.285  35.299   7.933
 1757POPC   C4A26610  36.476  35.387   7.537
 1757POPC   C1B26611  36.087  34.951   8.645
 1757POPC   C2B26612  35.922  35.004   8.236
 1757POPC   C3B26613  36.035  34.897   7.810
 1757POPC   C4B26614  36.010  35.209   7.463
 1758POPC   NC326615  32.739  34.440   9.582
 1758POPC   PO426616  33.284  34.805   9.592
 1758POPC   GL126617  33.022  34.707   9.216
 1758POPC   GL226618  32.848  34.372   9.082
 1758POPC   C1A26619  33.237  34.606   8.829
 1758POPC   D2A26620  33.335  34.854   8.464
 1758POPC   C3A26621  33.342  34.607   8.114
 1758POPC   C4A26622  33.089  34.393   7.803
 1758POPC   C1B26623  32.800  34.477   8.619
 1758POPC   C2B26624  32.830  34.639   8.194
 1758POPC   C3B26625  32.608  34.546   7.810
 1758POPC   C4B26626  32.659  34.291   7.433
 1759POPC   NC326627  32.397  15.541   9.248
 1759POPC   PO426628  32.072  14.914   9.445
 1759POPC   GL126629  32.090  15.154   9.106
 1759POPC   GL226630  31.911  15.493   9.162
 1759POPC   C1A26631  32.430  15.078   8.784
 1759POPC   D2A26632  32.672  15.035   8.380
 1759POPC   C3A26633  32.429  15.217   8.036
 1759POPC   C4A26634  32.300  15.083   7.604
 1759POPC   C1B26635  32.024  15.480   8.706
 1759POPC   C2B26636  32.050  15.474   8.273
 1759POPC   C3B26637  32.038  15.483   7.831
 1759POPC   C4B26638  32.064  15.479   7.386
 1760POPC   NC326639  34.484  14.186   9.749
 1760POPC   PO426640  33.880  14.490   9.482
 1760POPC   GL126641  33.801  14.677   9.089
 1760POPC   GL226642  34.149  14.573   9.033
 1760POPC   C1A26643  33.761  14.568   8.664
 1760POPC   D2A26644  33.682  14.161   8.466
 1760POPC   C3A26645  33.477  14.331   8.105
 1760POPC   C4A26646  33.479  14.625   7.785
 1760POPC   C1B26647  34.074  14.188   8.827
 1760POPC   C2B26648  34.208  14.127   8.429
 1760POPC   C3B26649  33.994  14.240   8.068
 1760POPC   C4B26650  33.743  14.020   7.788
 1761POPC   NC326651   9.627  42.578   9.470
 1761POPC   PO426652  10.052  42.125   9.495
 1761POPC   GL126653   9.786  42.206   9.146
 1761POPC   GL226654   9.530  42.012   9.033
 1761POPC   C1A26655   9.776  42.386   8.741
 1761POPC   D2A26656   9.975  42.149   8.432
 1761POPC   C3A26657   9.950  42.254   7.999
 1761POPC   C4A26658   9.752  42.605   7.763
 1761POPC   C1B26659   9.509  41.975   8.595
 1761POPC   C2B26660   9.505  42.313   8.299
 1761POPC   C3B26661   9.442  42.226   7.898
 1761POPC   C4B26662   9.190  42.037   7.640
 1762POPC   NC326663  26.454  33.054   9.507
 1762POPC   PO426664  25.820  33.449   9.439
 1762POPC   GL126665  26.068  33.139   9.164
 1762POPC   GL226666  26.413  33.224   9.003
 1762POPC   C1A26667  26.141  32.817   8.836
 1762POPC   D2A26668  26.290  32.901   8.443
 1762POPC   C3A26669  26.079  32.835   8.074
 1762POPC   C4A26670  25.848  33.062   7.763
 1762POPC   C1B26671  26.077  33.297   8.665
 1762POPC   C2B26672  26.027  33.335   8.219
 1762POPC   C3B26673  26.170  33.466   7.828
 1762POPC   C4B26674  26.160  33.450   7.388
 1763POPC   NC326675  33.687  35.126   9.542
 1763POPC   PO426676  34.381  35.354   9.566
 1763POPC   GL126677  34.134  35.215   9.188
 1763POPC   GL226678  33.793  35.360   9.115
 1763POPC   C1A26679  34.133  35.311   8.742
 1763POPC   D2A26680  34.142  35.468   8.318
 1763POPC   C3A26681  34.098  35.161   7.999
 1763POPC   C4A26682  33.933  35.152   7.565
 1763POPC   C1B26683  33.457  35.354   8.811
 1763POPC   C2B26684  33.249  35.417   8.410
 1763POPC   C3B26685  33.404  35.520   7.984
 1763POPC   C4B26686  33.494  35.716   7.546
 1764POPC   NC326687  38.257  13.130   9.245
 1764POPC   PO426688  38.648  12.851   9.679
 1764POPC   GL126689  38.644  12.769   9.220
 1764POPC   GL226690  38.384  12.554   9.064
 1764POPC   C1A26691  38.555  12.886   8.735
 1764POPC   D2A26692  38.174  13.047   8.593
 1764POPC   C3A26693  38.253  13.163   8.188
 1764POPC   C4A26694  38.289  12.978   7.797
 1764POPC   C1B26695  38.206  12.530   8.657
 1764POPC   C2B26696  38.310  12.652   8.248
 1764POPC   C3B26697  38.453  12.510   7.853
 1764POPC   C4B26698  38.599  12.380   7.434
 1765POPC   NC326699   3.948   4.861   9.478
 1765POPC   PO426700   4.432   5.130   9.710
 1765POPC   GL126701   4.337   5.191   9.288
 1765POPC   GL226702   4.303   4.906   9.082
 1765POPC   C1A26703   4.451   5.399   8.912
 1765POPC   D2A26704   4.343   5.303   8.499
 1765POPC   C3A26705   4.582   5.332   8.128
 1765POPC   C4A26706   4.398   5.167   7.751
 1765POPC   C1B26707   4.066   4.770   8.727
 1765POPC   C2B26708   4.024   4.926   8.333
 1765POPC   C3B26709   3.971   4.730   7.972
 1765POPC   C4B26710   4.114   4.779   7.572
 1766POPC   NC326711  30.162  11.004   9.404
 1766POPC   PO426712  29.803  10.432   9.562
 1766POPC   GL126713  30.102  10.496   9.244
 1766POPC   GL226714  29.891  10.705   9.092
 1766POPC   C1A26715  30.211  10.435   8.781
 1766POPC   D2A26716  30.024  10.281   8.368
 1766POPC   C3A26717  30.152  10.402   7.954
 1766POPC   C4A26718  30.225  10.485   7.499
 1766POPC   C1B26719  29.719  10.601   8.659
 1766POPC   C2B26720  29.726  10.685   8.201
 1766POPC   C3B26721  29.672  10.448   7.821
 1766POPC   C4B26722  29.785  10.021   7.886
 1767POPC   NC326723  38.671  33.233   9.811
 1767POPC   PO426724  38.188  32.864   9.503
 1767POPC   GL126725  38.490  32.873   9.150
 1767POPC   GL226726  38.555  32.602   9.040
 1767POPC   C1A26727  38.637  33.032   8.744
 1767POPC   D2A26728  38.460  33.199   8.359
 1767POPC   C3A26729  38.623  33.208   7.938
 1767POPC   C4A26730  38.301  33.202   7.635
 1767POPC   C1B26731  38.272  32.609   8.731
 1767POPC   C2B26732  38.452  32.537   8.328
 1767POPC   C3B26733  38.448  32.715   7.899
 1767POPC   C4B26734  38.303  32.554   7.477
 1768POPC   NC326735   3.333   0.750   9.830
 1768POPC   PO426736   2.703   0.782   9.495
 1768POPC   GL126737   2.710   1.102   9.208
 1768POPC   GL226738   3.019   1.221   9.242
 1768POPC   C1A26739   2.698   1.034   8.794
 1768POPC   D2A26740   2.912   1.047   8.426
 1768POPC   C3A26741   2.694   1.285   8.120
 1768POPC   C4A26742   2.777   1.295   7.686
 1768POPC   C1B26743   3.203   1.208   8.832
 1768POPC   C2B26744   3.380   1.238   8.401
 1768POPC   C3B26745   3.230   1.230   7.974
 1768POPC   C4B26746   3.265   1.570   7.664
 1769POPC   NC326747  33.454  29.793   9.626
 1769POPC   PO426748  34.105  29.910   9.611
 1769POPC   GL126749  33.873  29.908   9.205
 1769POPC   GL226750  33.944  30.261   9.140
 1769POPC   C1A26751  33.732  29.644   8.813
 1769POPC   D2A26752  33.765  29.387   8.416
 1769POPC   C3A26753  33.661  29.691   8.090
 1769POPC   C4A26754  33.838  29.762   7.729
 1769POPC   C1B26755  33.652  30.176   8.810
 1769POPC   C2B26756  33.724  30.307   8.402
 1769POPC   C3B26757  33.669  30.196   7.993
 1769POPC   C4B26758  33.812  30.231   7.581
 1770POPC   NC326759  13.246  44.216   9.535
 1770POPC   PO426760  13.566  44.800   9.513
 1770POPC   GL126761  13.527  44.656   9.154
 1770POPC   GL226762  13.201  44.583   9.162
 1770POPC   C1A26763  13.732  44.773   8.817
 1770POPC   D2A26764  13.659  44.521   8.511
 1770POPC   C3A26765  13.803  44.670   8.122
 1770POPC   C4A26766  13.677  44.948   7.817
 1770POPC   C1B26767  13.147  44.470   8.741
 1770POPC   C2B26768  13.193  44.468   8.300
 1770POPC   C3B26769  13.317  44.519   7.894
 1770POPC   C4B26770  13.317  44.190   7.609
 1771POPC   NC326771  17.801  32.516   9.433
 1771POPC   PO426772  17.333  32.091   9.608
 1771POPC   GL126773  17.312  32.272   9.190
 1771POPC   GL226774  17.620  32.175   9.101
 1771POPC   C1A26775  17.207  32.306   8.764
 1771POPC   D2A26776  17.279  32.030   8.390
 1771POPC   C3A26777  17.531  32.281   8.131
 1771POPC   C4A26778  17.505  32.478   7.727
 1771POPC   C1B26779  17.702  32.189   8.667
 1771POPC   C2B26780  17.869  31.935   8.346
 1771POPC   C3B26781  17.866  31.969   7.911
 1771POPC   C4B26782  17.851  32.172   7.511
 1772POPC   NC326783  39.139  24.161   9.558
 1772POPC   PO426784  39.345  23.637   9.730
 1772POPC   GL126785  39.220  23.799   9.253
 1772POPC   GL226786  39.521  23.914   9.070
 1772POPC   C1A26787  39.111  23.690   8.840
 1772POPC   D2A26788  39.345  23.668   8.471
 1772POPC   C3A26789  39.104  23.857   8.136
 1772POPC   C4A26790  38.987  23.656   7.752
 1772POPC   C1B26791  39.679  24.062   8.671
 1772POPC   C2B26792  39.603  24.038   8.220
 1772POPC   C3B26793  39.530  23.777   7.849
 1772POPC   C4B26794  39.534  23.852   7.394
 1773POPC   NC326795  10.760  23.046   9.588
 1773POPC   PO426796  10.280  22.563   9.475
 1773POPC   GL126797  10.515  22.766   9.223
 1773POPC   GL226798  10.428  22.551   8.939
 1773POPC   C1A26799  10.445  23.047   8.893
 1773POPC   D2A26800  10.542  22.941   8.496
 1773POPC   C3A26801  10.697  23.241   8.244
 1773POPC   C4A26802  10.655  23.269   7.825
 1773POPC   C1B26803  10.827  22.688   8.827
 1773POPC   C2B26804  11.029  22.722   8.436
 1773POPC   C3B26805  10.783  22.747   8.085
 1773POPC   C4B26806  10.706  22.785   7.663
 1774POPC   NC326807  21.751  10.069   9.542
 1774POPC   PO426808  21.250   9.692   9.598
 1774POPC   GL126809  21.185   9.648   9.162
 1774POPC   GL226810  21.467   9.866   9.088
 1774POPC   C1A26811  21.246   9.592   8.692
 1774POPC   D2A26812  21.357   9.735   8.257
 1774POPC   C3A26813  21.536   9.483   7.908
 1774POPC   C4A26814  21.345   9.383   7.489
 1774POPC   C1B26815  21.616   9.963   8.663
 1774POPC   C2B26816  21.551  10.211   8.288
 1774POPC   C3B26817  21.605  10.011   7.888
 1774POPC   C4B26818  21.997   9.793   7.755
 1775POPC   NC326819  27.426  25.247   9.586
 1775POPC   PO426820  27.896  24.957   9.534
 1775POPC   GL126821  27.626  25.075   9.147
 1775POPC   GL226822  27.257  25.019   9.115
 1775POPC   C1A26823  27.474  25.430   8.887
 1775POPC   D2A26824  27.383  25.493   8.439
 1775POPC   C3A26825  27.623  25.434   8.032
 1775POPC   C4A26826  27.583  25.176   7.635
 1775POPC   C1B26827  27.402  24.985   8.639
 1775POPC   C2B26828  27.501  24.969   8.167
 1775POPC   C3B26829  27.506  24.680   7.789
 1775POPC   C4B26830  27.318  24.789   7.351
 1776POPC   NC326831   8.718   1.940   9.514
 1776POPC   PO426832   9.250   2.146   9.723
 1776POPC   GL126833   9.162   1.937   9.254
 1776POPC   GL226834   9.212   2.162   8.985
 1776POPC   C1A26835   8.838   1.830   8.900
 1776POPC   D2A26836   8.823   1.723   8.484
 1776POPC   C3A26837   8.908   2.024   8.181
 1776POPC   C4A26838   8.809   1.945   7.753
 1776POPC   C1B26839   9.281   1.925   8.627
 1776POPC   C2B26840   9.404   2.175   8.281
 1776POPC   C3B26841   9.310   2.080   7.872
 1776POPC   C4B26842   9.377   1.694   7.667
 1777POPC   NC326843  42.603  15.302   9.597
 1777POPC   PO426844  41.954  15.144   9.519
 1777POPC   GL126845  42.303  15.139   9.226
 1777POPC   GL226846  42.543  14.858   9.328
 1777POPC   C1A26847  42.517  15.327   8.856
 1777POPC   D2A26848  42.376  15.526   8.463
 1777POPC   C3A26849  42.263  15.326   8.071
 1777POPC   C4A26850  42.295  15.550   7.674
 1777POPC   C1B26851  42.464  14.800   8.887
 1777POPC   C2B26852  42.522  14.954   8.481
 1777POPC   C3B26853  42.378  14.770   8.117
 1777POPC   C4B26854  42.288  14.917   7.731
 1778POPC   NC326855   7.499   1.050   9.468
 1778POPC   PO426856   7.384   1.693   9.555
 1778POPC   GL126857   7.282   1.410   9.184
 1778POPC   GL226858   7.626   1.283   9.035
 1778POPC   C1A26859   7.203   1.234   8.755
 1778POPC   D2A26860   7.250   1.450   8.355
 1778POPC   C3A26861   7.418   1.238   8.002
 1778POPC   C4A26862   7.206   1.198   7.598
 1778POPC   C1B26863   7.691   1.036   8.654
 1778POPC   C2B26864   7.618   0.818   8.243
 1778POPC   C3B26865   7.760   0.877   7.806
 1778POPC   C4B26866   7.748   1.041   7.350
 1779POPC   NC326867   9.493  28.928   9.170
 1779POPC   PO426868   9.877  28.909   9.693
 1779POPC   GL126869  10.000  29.062   9.231
 1779POPC   GL226870   9.844  29.354   9.065
 1779POPC   C1A26871  10.015  28.966   8.750
 1779POPC   D2A26872   9.968  29.035   8.290
 1779POPC   C3A26873   9.608  29.063   8.052
 1779POPC   C4A26874   9.754  29.112   7.671
 1779POPC   C1B26875   9.865  29.438   8.613
 1779POPC   C2B26876   9.907  29.589   8.185
 1779POPC   C3B26877   9.581  29.575   7.893
 1779POPC   C4B26878   9.314  29.388   7.606
 1780POPC   NC326879   5.868  30.990   9.820
 1780POPC   PO426880   5.262  30.968   9.610
 1780POPC   GL126881   5.633  31.094   9.299
 1780POPC   GL226882   6.007  30.968   9.260
 1780POPC   C1A26883   5.713  31.048   8.846
 1780POPC   D2A26884   5.755  30.795   8.470
 1780POPC   C3A26885   5.859  30.917   8.045
 1780POPC   C4A26886   5.597  31.094   7.714
 1780POPC   C1B26887   6.149  30.770   8.815
 1780POPC   C2B26888   6.208  30.586   8.353
 1780POPC   C3B26889   6.166  30.538   7.869
 1780POPC   C4B26890   6.161  30.287   7.458
 1781POPC   NC326891  15.364  37.327   9.289
 1781POPC   PO426892  14.968  37.873   9.569
 1781POPC   GL126893  15.040  37.780   9.132
 1781POPC   GL226894  15.336  37.680   8.944
 1781POPC   C1A26895  14.885  37.780   8.704
 1781POPC   D2A26896  14.904  37.932   8.265
 1781POPC   C3A26897  14.906  37.586   7.946
 1781POPC   C4A26898  15.256  37.279   7.795
 1781POPC   C1B26899  15.620  37.881   8.675
 1781POPC   C2B26900  15.522  37.998   8.285
 1781POPC   C3B26901  15.385  37.800   7.918
 1781POPC   C4B26902  15.636  37.760   7.535
 1782POPC   NC326903   3.592  21.012   9.359
 1782POPC   PO426904   3.828  20.462   9.499
 1782POPC   GL126905   3.577  20.467   9.139
 1782POPC   GL226906   3.437  20.142   9.071
 1782POPC   C1A26907   3.666  20.695   8.765
 1782POPC   D2A26908   3.685  20.715   8.336
 1782POPC   C3A26909   3.304  20.693   8.075
 1782POPC   C4A26910   3.137  20.994   7.772
 1782POPC   C1B26911   3.346  20.312   8.653
 1782POPC   C2B26912   3.165  20.235   8.244
 1782POPC   C3B26913   3.417  20.243   7.863
 1782POPC   C4B26914   3.813  20.500   7.870
 1783POPC   NC326915  43.230   0.347   9.505
 1783POPC   PO426916  42.805   0.759   9.239
 1783POPC   GL126917  42.937   0.385   9.047
 1783POPC   GL226918  43.280   0.395   9.012
 1783POPC   C1A26919  42.991   0.306   8.593
 1783POPC   D2A26920  42.915   0.226   8.144
 1783POPC   C3A26921  42.862   0.627   7.868
 1783POPC   C4A26922  42.786   0.921   7.493
 1783POPC   C1B26923  43.514   0.445   8.647
 1783POPC   C2B26924  43.415   0.387   8.251
 1783POPC   C3B26925  43.314   0.343   7.838
 1783POPC   C4B26926  43.341   0.255   7.412
 1784POPC   NC326927  16.467   5.305   9.387
 1784POPC   PO426928  16.219   4.829   9.784
 1784POPC   GL126929  16.017   4.899   9.289
 1784POPC   GL226930  15.920   5.223   9.213
 1784POPC   C1A26931  16.126   4.928   8.786
 1784POPC   D2A26932  16.396   4.850   8.374
 1784POPC   C3A26933  16.203   5.054   8.025
 1784POPC   C4A26934  15.884   4.888   7.819
 1784POPC   C1B26935  15.909   5.404   8.800
 1784POPC   C2B26936  16.003   5.390   8.363
 1784POPC   C3B26937  15.779   5.414   7.962
 1784POPC   C4B26938  15.566   5.277   7.565
 1785POPC   NC326939  14.127  29.969   9.511
 1785POPC   PO426940  14.572  29.553   9.642
 1785POPC   GL126941  14.544  29.810   9.280
 1785POPC   GL226942  14.319  29.565   9.155
 1785POPC   C1A26943  14.360  30.005   8.899
 1785POPC   D2A26944  14.316  29.853   8.486
 1785POPC   C3A26945  14.352  30.151   8.165
 1785POPC   C4A26946  14.099  30.238   7.792
 1785POPC   C1B26947  14.668  29.584   8.839
 1785POPC   C2B26948  14.825  29.774   8.440
 1785POPC   C3B26949  14.625  29.701   8.056
 1785POPC   C4B26950  14.397  29.836   7.745
 1786POPC   NC326951   7.272  20.649   9.436
 1786POPC   PO426952   7.634  20.189   9.543
 1786POPC   GL126953   7.493  20.404   9.078
 1786POPC   GL226954   7.327  20.747   8.964
 1786POPC   C1A26955   7.235  20.378   8.661
 1786POPC   D2A26956   7.445  20.550   8.293
 1786POPC   C3A26957   7.280  20.711   7.945
 1786POPC   C4A26958   7.276  20.517   7.567
 1786POPC   C1B26959   7.698  20.673   8.710
 1786POPC   C2B26960   7.843  20.897   8.357
 1786POPC   C3B26961   7.748  20.930   7.946
 1786POPC   C4B26962   7.478  20.989   7.551
 1787POPC   NC326963   7.877  15.854   9.486
 1787POPC   PO426964   8.620  15.912   9.631
 1787POPC   GL126965   8.378  15.805   9.268
 1787POPC   GL226966   8.282  15.473   9.183
 1787POPC   C1A26967   8.432  15.865   8.837
 1787POPC   D2A26968   8.205  16.043   8.524
 1787POPC   C3A26969   8.290  15.950   8.095
 1787POPC   C4A26970   7.957  16.090   7.852
 1787POPC   C1B26971   8.013  15.553   8.769
 1787POPC   C2B26972   7.863  15.709   8.337
 1787POPC   C3B26973   7.970  15.560   7.924
 1787POPC   C4B26974   7.744  15.565   7.539
 1788POPC   NC326975   7.754   6.199   9.727
 1788POPC   PO426976   7.248   6.482   9.411
 1788POPC   GL126977   7.523   6.633   9.071
 1788POPC   GL226978   7.703   6.352   9.136
 1788POPC   C1A26979   7.584   6.840   8.691
 1788POPC   D2A26980   7.312   6.869   8.343
 1788POPC   C3A26981   7.471   7.017   7.957
 1788POPC   C4A26982   7.198   6.896   7.619
 1788POPC   C1B26983   7.515   6.311   8.723
 1788POPC   C2B26984   7.627   6.470   8.324
 1788POPC   C3B26985   7.375   6.524   7.966
 1788POPC   C4B26986   7.471   6.150   7.863
 1789POPC   NC326987  11.623  16.830   9.541
 1789POPC   PO426988  12.255  16.545   9.469
 1789POPC   GL126989  12.232  16.799   9.108
 1789POPC   GL226990  11.883  16.854   9.101
 1789POPC   C1A26991  12.142  16.762   8.663
 1789POPC   D2A26992  11.999  16.412   8.425
 1789POPC   C3A26993  12.088  16.310   8.009
 1789POPC   C4A26994  12.016  16.513   7.599
 1789POPC   C1B26995  11.636  17.090   8.781
 1789POPC   C2B26996  11.749  16.952   8.386
 1789POPC   C3B26997  11.894  16.794   8.022
 1789POPC   C4B26998  11.778  17.002   7.646
 1790POPC   NC326999  43.526  28.822   9.535
 1790POPC   PO427000  44.175  28.959   9.551
 1790POPC   GL127001  43.878  28.872   9.168
 1790POPC   GL227002  43.702  29.161   9.140
 1790POPC   C1A27003  43.710  28.911   8.698
 1790POPC   D2A27004  43.652  29.200   8.360
 1790POPC   C3A27005  43.746  28.976   8.034
 1790POPC   C4A27006  44.119  28.985   7.775
 1790POPC   C1B27007  43.882  29.375   8.779
 1790POPC   C2B27008  44.003  29.588   8.380
 1790POPC   C3B27009  43.910  29.442   7.953
 1790POPC   C4B27010  43.940  29.409   7.513
 1791POPC   NC327011  12.522  18.598   9.391
 1791POPC   PO427012  12.474  17.905   9.436
 1791POPC   GL127013  12.699  18.081   9.122
 1791POPC   GL227014  12.407  18.240   8.994
 1791POPC   C1A27015  13.114  18.099   8.894
 1791POPC   D2A27016  13.337  18.177   8.496
 1791POPC   C3A27017  13.028  18.329   8.207
 1791POPC   C4A27018  13.002  18.403   7.796
 1791POPC   C1B27019  12.684  18.272   8.633
 1791POPC   C2B27020  12.632  18.009   8.268
 1791POPC   C3B27021  12.489  18.055   7.882
 1791POPC   C4B27022  12.597  18.241   7.559
 1792POPC   NC327023  36.610  23.600   9.583
 1792POPC   PO427024  36.064  23.943   9.424
 1792POPC   GL127025  36.202  23.656   9.104
 1792POPC   GL227026  36.498  23.375   9.124
 1792POPC   C1A27027  36.067  23.788   8.702
 1792POPC   D2A27028  35.834  24.025   8.395
 1792POPC   C3A27029  35.993  23.891   8.003
 1792POPC   C4A27030  35.941  23.536   7.743
 1792POPC   C1B27031  36.545  23.605   8.709
 1792POPC   C2B27032  36.362  23.639   8.291
 1792POPC   C3B27033  36.451  23.582   7.841
 1792POPC   C4B27034  36.539  23.625   7.410
 1793POPC   NC327035  31.262   4.006   9.428
 1793POPC   PO427036  31.344   4.699   9.502
 1793POPC   GL127037  31.627   4.460   9.204
 1793POPC   GL227038  31.480   4.164   8.993
 1793POPC   C1A27039  31.837   4.459   8.802
 1793POPC   D2A27040  31.706   4.208   8.470
 1793POPC   C3A27041  31.790   4.366   8.101
 1793POPC   C4A27042  31.602   4.554   7.760
 1793POPC   C1B27043  31.304   4.454   8.701
 1793POPC   C2B27044  31.282   4.410   8.252
 1793POPC   C3B27045  31.219   4.252   7.865
 1793POPC   C4B27046  31.083   4.551   7.566
 1794POPC   NC327047  30.639  11.487   9.594
 1794POPC   PO427048  31.273  11.670   9.420
 1794POPC   GL127049  31.020  11.468   9.086
 1794POPC   GL227050  30.681  11.285   9.124
 1794POPC   C1A27051  30.896  11.308   8.663
 1794POPC   D2A27052  30.629  11.159   8.318
 1794POPC   C3A27053  30.910  11.085   7.946
 1794POPC   C4A27054  31.178  10.851   7.633
 1794POPC   C1B27055  30.396  11.361   8.787
 1794POPC   C2B27056  30.345  11.677   8.461
 1794POPC   C3B27057  30.225  11.647   8.037
 1794POPC   C4B27058  30.352  11.258   7.874
 1795POPC   NC327059  31.413   3.427   9.737
 1795POPC   PO427060  31.703   3.879   9.357
 1795POPC   GL127061  31.571   3.649   9.059
 1795POPC   GL227062  31.331   3.440   9.212
 1795POPC   C1A27063  31.496   3.759   8.628
 1795POPC   D2A27064  31.364   3.893   8.225
 1795POPC   C3A27065  31.598   3.618   7.970
 1795POPC   C4A27066  31.567   3.491   7.543
 1795POPC   C1B27067  31.075   3.672   8.893
 1795POPC   C2B27068  30.986   3.599   8.456
 1795POPC   C3B27069  31.099   3.465   8.041
 1795POPC   C4B27070  31.177   3.764   7.685
 1796POPC   NC327071  25.412  33.313   9.585
 1796POPC   PO427072  25.304  32.636   9.566
 1796POPC   GL127073  25.259  32.879   9.191
 1796POPC   GL227074  25.569  33.017   9.211
 1796POPC   C1A27075  25.143  33.014   8.762
 1796POPC   D2A27076  25.102  32.855   8.334
 1796POPC   C3A27077  24.983  33.187   8.038
 1796POPC   C4A27078  25.152  33.437   7.704
 1796POPC   C1B27079  25.632  32.857   8.820
 1796POPC   C2B27080  25.743  32.939   8.432
 1796POPC   C3B27081  25.566  32.780   8.056
 1796POPC   C4B27082  25.299  32.926   7.757
 1797POPC   NC327083  13.564  15.233   9.641
 1797POPC   PO427084  13.876  14.709   9.362
 1797POPC   GL127085  13.532  14.981   9.181
 1797POPC   GL227086  13.553  15.366   9.144
 1797POPC   C1A27087  13.516  15.021   8.762
 1797POPC   D2A27088  13.708  15.286   8.427
 1797POPC   C3A27089  13.632  15.120   7.984
 1797POPC   C4A27090  13.348  15.055   7.606
 1797POPC   C1B27091  13.274  15.464   8.780
 1797POPC   C2B27092  13.247  15.667   8.380
 1797POPC   C3B27093  13.533  15.618   8.050
 1797POPC   C4B27094  13.535  15.530   7.646
 1798POPC   NC327095  26.559  32.152   9.477
 1798POPC   PO427096  27.148  32.165   9.149
 1798POPC   GL127097  26.959  32.463   8.935
 1798POPC   GL227098  26.631  32.469   9.090
 1798POPC   C1A27099  26.917  32.386   8.515
 1798POPC   D2A27100  26.852  32.003   8.290
 1798POPC   C3A27101  27.023  32.008   7.883
 1798POPC   C4A27102  26.953  32.263   7.513
 1798POPC   C1B27103  26.438  32.428   8.703
 1798POPC   C2B27104  26.493  32.482   8.273
 1798POPC   C3B27105  26.635  32.631   7.924
 1798POPC   C4B27106  26.469  32.386   7.649
 1799POPC   NC327107  34.115  14.923   9.405
 1799POPC   PO427108  33.601  15.450   9.480
 1799POPC   GL127109  33.719  15.205   9.162
 1799POPC   GL227110  34.039  15.345   9.076
 1799POPC   C1A27111  33.665  15.221   8.715
 1799POPC   D2A27112  33.795  15.021   8.311
 1799POPC   C3A27113  33.640  15.227   7.914
 1799POPC   C4A27114  33.551  15.456   7.515
 1799POPC   C1B27115  34.117  14.999   8.765
 1799POPC   C2B27116  34.253  14.646   8.522
 1799POPC   C3B27117  34.270  14.837   8.116
 1799POPC   C4B27118  33.954  14.814   7.827
 1800POPC   NC327119  16.229   8.980   9.403
 1800POPC   PO427120  16.929   8.759   9.466
 1800POPC   GL127121  16.691   9.076   9.210
 1800POPC   GL227122  16.816   9.412   9.156
 1800POPC   C1A27123  16.532   9.100   8.792
 1800POPC   D2A27124  16.735   9.146   8.407
 1800POPC   C3A27125  16.588   9.034   8.002
 1800POPC   C4A27126  16.543   9.203   7.578
 1800POPC   C1B27127  17.045   9.168   8.825
 1800POPC   C2B27128  17.077   8.792   8.533
 1800POPC   C3B27129  17.132   8.639   8.090
 1800POPC   C4B27130  16.992   8.856   7.688
 1801POPC   NC327131  27.555  33.320   9.461
 1801POPC   PO427132  27.880  32.790   9.422
 1801POPC   GL127133  27.761  33.000   9.066
 1801POPC   GL227134  27.969  33.270   9.051
 1801POPC   C1A27135  27.981  32.914   8.680
 1801POPC   D2A27136  28.100  32.784   8.279
 1801POPC   C3A27137  27.762  32.642   8.000
 1801POPC   C4A27138  27.759  32.632   7.527
 1801POPC   C1B27139  27.868  33.436   8.679
 1801POPC   C2B27140  27.550  33.172   8.532
 1801POPC   C3B27141  27.462  33.064   8.135
 1801POPC   C4B27142  27.430  32.955   7.749
 1802POPC   NC327143  18.107  36.096   9.434
 1802POPC   PO427144  18.750  35.932   9.333
 1802POPC   GL127145  18.527  36.205   9.064
 1802POPC   GL227146  18.176  36.315   8.989
 1802POPC   C1A27147  18.587  36.423   8.736
 1802POPC   D2A27148  18.277  36.360   8.446
 1802POPC   C3A27149  18.554  36.341   8.149
 1802POPC   C4A27150  18.526  36.299   7.752
 1802POPC   C1B27151  18.216  35.924   8.786
 1802POPC   C2B27152  18.166  35.836   8.377
 1802POPC   C3B27153  18.102  36.040   8.004
 1802POPC   C4B27154  18.190  35.916   7.588
 1803POPC   NC327155  37.241   3.114   9.505
 1803POPC   PO427156  36.625   3.410   9.673
 1803POPC   GL127157  36.678   3.427   9.161
 1803POPC   GL227158  36.977   3.276   9.128
 1803POPC   C1A27159  36.941   3.604   8.767
 1803POPC   D2A27160  36.949   3.845   8.399
 1803POPC   C3A27161  36.945   3.545   8.113
 1803POPC   C4A27162  36.972   3.507   7.698
 1803POPC   C1B27163  37.247   3.169   8.816
 1803POPC   C2B27164  37.358   3.409   8.450
 1803POPC   C3B27165  37.422   3.443   7.980
 1803POPC   C4B27166  37.250   3.077   7.718
 1804POPC   NC327167  16.222  24.320   9.555
 1804POPC   PO427168  15.781  24.709   9.557
 1804POPC   GL127169  15.953  24.525   9.177
 1804POPC   GL227170  15.869  24.198   9.062
 1804POPC   C1A27171  16.156  24.544   8.803
 1804POPC   D2A27172  15.993  24.759   8.478
 1804POPC   C3A27173  16.138  24.670   8.093
 1804POPC   C4A27174  15.983  24.699   7.686
 1804POPC   C1B27175  15.737  24.236   8.672
 1804POPC   C2B27176  15.956  24.244   8.304
 1804POPC   C3B27177  16.040  24.227   7.877
 1804POPC   C4B27178  15.900  24.094   7.508
 1805POPC   NC327179  40.044  33.165   9.407
 1805POPC   PO427180  39.632  32.638   9.522
 1805POPC   GL127181  39.821  32.811   9.117
 1805POPC   GL227182  40.193  32.792   9.065
 1805POPC   C1A27183  39.888  33.133   8.760
 1805POPC   D2A27184  39.620  33.351   8.462
 1805POPC   C3A27185  39.819  33.317   8.069
 1805POPC   C4A27186  40.095  33.454   7.741
 1805POPC   C1B27187  40.048  32.666   8.660
 1805POPC   C2B27188  40.120  32.932   8.290
 1805POPC   C3B27189  39.942  32.855   7.885
 1805POPC   C4B27190  39.792  32.571   7.558
 1806POPC   NC327191  18.323   2.317   9.430
 1806POPC   PO427192  18.497   2.863   9.751
 1806POPC   GL127193  18.304   2.784   9.224
 1806POPC   GL227194  18.465   2.491   8.956
 1806POPC   C1A27195  18.022   2.627   8.825
 1806POPC   D2A27196  18.172   2.543   8.407
 1806POPC   C3A27197  18.003   2.840   8.136
 1806POPC   C4A27198  18.166   3.060   7.814
 1806POPC   C1B27199  18.465   2.877   8.727
 1806POPC   C2B27200  18.541   2.985   8.276
 1806POPC   C3B27201  18.481   2.661   7.956
 1806POPC   C4B27202  18.439   2.384   7.600
 1807POPC   NC327203  18.778  26.383   9.326
 1807POPC   PO427204  19.063  27.026   9.449
 1807POPC   GL127205  18.901  26.846   9.120
 1807POPC   GL227206  19.113  26.664   8.990
 1807POPC   C1A27207  18.829  26.989   8.720
 1807POPC   D2A27208  18.739  26.862   8.331
 1807POPC   C3A27209  19.040  26.942   8.037
 1807POPC   C4A27210  19.111  27.190   7.672
 1807POPC   C1B27211  18.872  26.483   8.647
 1807POPC   C2B27212  18.931  26.338   8.240
 1807POPC   C3B27213  18.846  26.339   7.830
 1807POPC   C4B27214  19.044  26.474   7.455
 1808POPC   NC327215   2.694  40.878   9.542
 1808POPC   PO427216   3.047  40.322   9.512
 1808POPC   GL127217   2.814  40.548   9.176
 1808POPC   GL227218   3.038  40.814   9.160
 1808POPC   C1A27219   2.728  40.766   8.769
 1808POPC   D2A27220   2.668  40.512   8.431
 1808POPC   C3A27221   2.833  40.687   8.058
 1808POPC   C4A27222   2.662  40.886   7.687
 1808POPC   C1B27223   3.192  41.033   8.803
 1808POPC   C2B27224   3.220  40.874   8.373
 1808POPC   C3B27225   3.133  41.111   8.020
 1808POPC   C4B27226   3.029  41.250   7.647
 1809POPC   NC327227   9.958   0.031   9.413
 1809POPC   PO427228   9.445   0.466   9.565
 1809POPC   GL127229   9.667   0.657   9.217
 1809POPC   GL227230   9.533   0.980   9.148
 1809POPC   C1A27231   9.780   0.460   8.820
 1809POPC   D2A27232   9.667   0.186   8.464
 1809POPC   C3A27233   9.835   0.320   8.071
 1809POPC   C4A27234   9.890   0.571   7.724
 1809POPC   C1B27235   9.371   0.797   8.767
 1809POPC   C2B27236   9.597   0.705   8.392
 1809POPC   C3B27237   9.486   0.698   7.975
 1809POPC   C4B27238   9.471   0.763   7.491
 1810POPC   NC327239  23.806  19.532  10.185
 1810POPC   PO427240  24.105  19.412   9.659
 1810POPC   GL127241  24.005  19.429   9.161
 1810POPC   GL227242  23.914  19.096   9.003
 1810POPC   C1A27243  24.000  19.686   8.743
 1810POPC   D2A27244  24.142  19.744   8.297
 1810POPC   C3A27245  23.852  19.844   7.932
 1810POPC   C4A27246  23.853  20.025   7.499
 1810POPC   C1B27247  23.626  19.352   8.760
 1810POPC   C2B27248  23.686  19.510   8.332
 1810POPC   C3B27249  23.942  19.337   7.982
 1810POPC   C4B27250  23.850  19.004   7.652
 1811POPC   NC327251   0.752  16.801  10.150
 1811POPC   PO427252   0.410  16.902   9.602
 1811POPC   GL127253   0.405  16.953   9.175
 1811POPC   GL227254   0.734  17.034   9.142
 1811POPC   C1A27255   0.212  16.862   8.769
 1811POPC   D2A27256   0.359  16.876   8.346
 1811POPC   C3A27257   0.194  16.615   8.007
 1811POPC   C4A27258   0.071  16.383   7.615
 1811POPC   C1B27259   0.668  17.103   8.701
 1811POPC   C2B27260   0.846  17.000   8.290
 1811POPC   C3B27261   0.630  16.930   7.901
 1811POPC   C4B27262   0.714  16.976   7.444
 1812POPC   NC327263  16.575  31.323   9.413
 1812POPC   PO427264  17.280  31.285   9.483
 1812POPC   GL127265  16.997  31.144   9.140
 1812POPC   GL227266  16.851  31.499   9.029
 1812POPC   C1A27267  16.840  31.085   8.726
 1812POPC   D2A27268  16.975  31.491   8.536
 1812POPC   C3A27269  16.995  31.580   8.132
 1812POPC   C4A27270  16.800  31.387   7.817
 1812POPC   C1B27271  16.479  31.445   8.720
 1812POPC   C2B27272  16.518  31.364   8.270
 1812POPC   C3B27273  16.494  31.720   8.000
 1812POPC   C4B27274  16.824  31.953   7.822
 1813POPC   NC327275  40.919  40.602   9.496
 1813POPC   PO427276  40.556  41.063   9.768
 1813POPC   GL127277  40.644  40.981   9.284
 1813POPC   GL227278  40.607  40.655   9.054
 1813POPC   C1A27279  40.952  40.965   8.905
 1813POPC   D2A27280  40.799  40.744   8.555
 1813POPC   C3A27281  41.058  40.799   8.178
 1813POPC   C4A27282  40.968  40.926   7.784
 1813POPC   C1B27283  40.321  40.554   8.683
 1813POPC   C2B27284  40.355  40.474   8.231
 1813POPC   C3B27285  40.618  40.523   7.848
 1813POPC   C4B27286  40.587  40.620   7.421
 1814POPC   NC327287   3.710   7.069   9.371
 1814POPC   PO427288   3.500   6.548   9.738
 1814POPC   GL127289   3.402   6.701   9.246
 1814POPC   GL227290   3.778   6.658   9.072
 1814POPC   C1A27291   3.392   6.798   8.787
 1814POPC   D2A27292   3.687   6.585   8.509
 1814POPC   C3A27293   3.563   6.721   8.122
 1814POPC   C4A27294   3.676   7.083   7.897
 1814POPC   C1B27295   4.057   6.365   8.796
 1814POPC   C2B27296   4.213   6.361   8.364
 1814POPC   C3B27297   3.936   6.397   8.016
 1814POPC   C4B27298   3.725   6.591   7.655
 1815POPC   NC327299  20.598   4.715   9.341
 1815POPC   PO427300  20.374   5.385   9.500
 1815POPC   GL127301  20.640   5.251   9.225
 1815POPC   GL227302  20.364   5.100   9.059
 1815POPC   C1A27303  20.816   5.197   8.820
 1815POPC   D2A27304  20.818   4.914   8.496
 1815POPC   C3A27305  20.843   5.012   8.068
 1815POPC   C4A27306  21.110   4.751   7.835
 1815POPC   C1B27307  20.333   4.924   8.665
 1815POPC   C2B27308  20.370   4.789   8.278
 1815POPC   C3B27309  20.322   4.981   7.910
 1815POPC   C4B27310  20.112   4.665   7.727
 1816POPC   NC327311  37.463  24.206   9.442
 1816POPC   PO427312  37.798  23.537   9.415
 1816POPC   GL127313  37.745  23.879   9.115
 1816POPC   GL227314  37.405  23.868   9.031
 1816POPC   C1A27315  37.768  23.872   8.644
 1816POPC   D2A27316  37.918  23.627   8.267
 1816POPC   C3A27317  37.733  23.801   7.898
 1816POPC   C4A27318  37.293  23.870   7.809
 1816POPC   C1B27319  37.526  23.451   8.807
 1816POPC   C2B27320  37.303  23.259   8.481
 1816POPC   C3B27321  37.433  23.410   8.114
 1816POPC   C4B27322  37.485  23.374   7.731
 1817POPC   NC327323  39.697   7.417   9.467
 1817POPC   PO427324  40.369   7.465   9.439
 1817POPC   GL127325  40.089   7.437   9.120
 1817POPC   GL227326  39.901   7.751   9.122
 1817POPC   C1A27327  39.796   7.374   8.787
 1817POPC   D2A27328  39.729   7.186   8.390
 1817POPC   C3A27329  40.060   7.249   8.124
 1817POPC   C4A27330  40.013   7.257   7.694
 1817POPC   C1B27331  39.634   7.873   8.764
 1817POPC   C2B27332  39.722   7.700   8.355
 1817POPC   C3B27333  39.831   7.677   7.897
 1817POPC   C4B27334  40.002   7.718   7.433
 1818POPC   NC327335  10.528  20.474   9.533
 1818POPC   PO427336  10.576  21.160   9.521
 1818POPC   GL127337  10.759  20.870   9.241
 1818POPC   GL227338  10.478  20.681   9.075
 1818POPC   C1A27339  10.849  20.918   8.815
 1818POPC   D2A27340  10.629  20.757   8.471
 1818POPC   C3A27341  10.786  20.871   8.076
 1818POPC   C4A27342  10.676  20.728   7.692
 1818POPC   C1B27343  10.155  20.412   8.875
 1818POPC   C2B27344  10.155  20.413   8.430
 1818POPC   C3B27345  10.453  20.433   8.090
 1818POPC   C4B27346  10.469  20.264   7.676
 1819POPC   NC327347  43.920  26.666   9.822
 1819POPC   PO427348  44.188  27.252   9.606
 1819POPC   GL127349  44.080  26.861   9.276
 1819POPC   GL227350  43.788  26.669   9.113
 1819POPC   C1A27351  44.082  26.840   8.772
 1819POPC   D2A27352  44.238  26.770   8.367
 1819POPC   C3A27353  44.019  26.903   7.977
 1819POPC   C4A27354  44.016  27.318   7.825
 1819POPC   C1B27355  43.565  26.880   8.765
 1819POPC   C2B27356  43.360  26.776   8.376
 1819POPC   C3B27357  43.497  26.832   7.972
 1819POPC   C4B27358  43.637  27.051   7.587
 1820POPC   NC327359  31.296  12.071   9.629
 1820POPC   PO427360  30.538  12.009   9.630
 1820POPC   GL127361  30.641  12.202   9.279
 1820POPC   GL227362  30.922  11.999   9.245
 1820POPC   C1A27363  30.710  12.387   8.889
 1820POPC   D2A27364  30.827  12.289   8.475
 1820POPC   C3A27365  30.547  12.101   8.186
 1820POPC   C4A27366  30.524  11.962   7.782
 1820POPC   C1B27367  30.710  11.827   8.882
 1820POPC   C2B27368  30.860  11.778   8.469
 1820POPC   C3B27369  30.730  11.611   8.109
 1820POPC   C4B27370  30.881  11.560   7.745
 1821POPC   NC327371  28.052   1.086   9.513
 1821POPC   PO427372  27.523   1.522   9.397
 1821POPC   GL127373  27.376   1.286   9.075
 1821POPC   GL227374  27.300   0.973   9.216
 1821POPC   C1A27375  27.541   1.346   8.704
 1821POPC   D2A27376  27.793   1.183   8.392
 1821POPC   C3A27377  27.790   1.356   7.992
 1821POPC   C4A27378  27.770   1.261   7.580
 1821POPC   C1B27379  27.409   0.863   8.780
 1821POPC   C2B27380  27.281   1.020   8.392
 1821POPC   C3B27381  27.445   0.984   8.008
 1821POPC   C4B27382  27.593   0.776   7.686
 1822POPC   NC327383   2.415  10.717   9.544
 1822POPC   PO427384   2.780  10.282   9.496
 1822POPC   GL127385   2.775  10.434   9.079
 1822POPC   GL227386   2.497  10.638   8.982
 1822POPC   C1A27387   2.907  10.605   8.659
 1822POPC   D2A27388   2.829  10.403   8.250
 1822POPC   C3A27389   2.856  10.601   7.842
 1822POPC   C4A27390   2.931  10.508   7.400
 1822POPC   C1B27391   2.545  10.243   8.662
 1822POPC   C2B27392   2.451  10.071   8.212
 1822POPC   C3B27393   2.530  10.215   7.766
 1822POPC   C4B27394   2.415  10.510   7.404
 1823POPC   NC327395  43.311  31.917   9.545
 1823POPC   PO427396  43.227  31.194   9.651
 1823POPC   GL127397  43.249  31.466   9.270
 1823POPC   GL227398  42.941  31.411   9.071
 1823POPC   C1A27399  43.355  31.528   8.803
 1823POPC   D2A27400  43.123  31.779   8.461
 1823POPC   C3A27401  43.284  31.703   8.061
 1823POPC   C4A27402  43.398  31.373   7.846
 1823POPC   C1B27403  42.962  31.117   8.702
 1823POPC   C2B27404  42.792  31.063   8.284
 1823POPC   C3B27405  42.852  31.375   7.944
 1823POPC   C4B27406  42.811  31.278   7.488
 1824POPC   NC327407  44.861  18.635   9.410
 1824POPC   PO427408  44.872  19.286   9.471
 1824POPC   GL127409  44.918  19.012   9.067
 1824POPC   GL227410  44.619  18.770   8.980
 1824POPC   C1A27411  44.894  18.994   8.600
 1824POPC   D2A27412  44.869  19.378   8.358
 1824POPC   C3A27413   0.082  19.348   7.954
 1824POPC   C4A27414  44.981  19.050   7.606
 1824POPC   C1B27415  44.424  19.133   8.806
 1824POPC   C2B27416  44.420  19.104   8.375
 1824POPC   C3B27417  44.689  18.998   8.049
 1824POPC   C4B27418  44.491  19.202   7.693
 1825POPC   NC327419   8.655  30.511   9.460
 1825POPC   PO427420   8.109  30.721   9.405
 1825POPC   GL127421   8.228  30.833   9.013
 1825POPC   GL227422   8.552  30.737   9.022
 1825POPC   C1A27423   8.215  30.678   8.608
 1825POPC   D2A27424   7.922  30.474   8.347
 1825POPC   C3A27425   7.991  30.496   7.933
 1825POPC   C4A27426   7.926  30.806   7.674
 1825POPC   C1B27427   8.777  30.927   8.718
 1825POPC   C2B27428   8.677  30.776   8.357
 1825POPC   C3B27429   8.333  30.855   8.117
 1825POPC   C4B27430   8.420  30.802   7.706
 1826POPC   NC327431  36.458  27.814   9.424
 1826POPC   PO427432  36.933  27.348   9.774
 1826POPC   GL127433  36.959  27.409   9.275
 1826POPC   GL227434  36.684  27.501   9.070
 1826POPC   C1A27435  37.095  27.538   8.796
 1826POPC   D2A27436  36.909  27.400   8.402
 1826POPC   C3A27437  37.162  27.441   8.053
 1826POPC   C4A27438  36.961  27.440   7.702
 1826POPC   C1B27439  36.719  27.885   8.811
 1826POPC   C2B27440  36.926  27.892   8.440
 1826POPC   C3B27441  36.762  27.778   8.048
 1826POPC   C4B27442  36.638  27.836   7.636
 1827POPC   NC327443  30.493  12.469   9.711
 1827POPC   PO427444  30.756  13.044   9.454
 1827POPC   GL127445  30.983  12.819   9.138
 1827POPC   GL227446  31.080  12.493   9.258
 1827POPC   C1A27447  30.885  12.865   8.711
 1827POPC   D2A27448  30.659  12.780   8.358
 1827POPC   C3A27449  30.828  13.002   8.017
 1827POPC   C4A27450  30.608  12.898   7.659
 1827POPC   C1B27451  31.218  12.481   8.793
 1827POPC   C2B27452  31.173  12.624   8.336
 1827POPC   C3B27453  30.876  12.499   7.967
 1827POPC   C4B27454  30.962  12.582   7.497
 1828POPC   NC327455  19.497  22.451   9.707
 1828POPC   PO427456  18.905  22.694   9.624
 1828POPC   GL127457  18.938  22.848   9.178
 1828POPC   GL227458  18.635  22.940   9.024
 1828POPC   C1A27459  19.048  23.042   8.748
 1828POPC   D2A27460  19.111  22.901   8.321
 1828POPC   C3A27461  18.933  23.142   7.944
 1828POPC   C4A27462  18.997  23.313   7.505
 1828POPC   C1B27463  18.731  22.642   8.717
 1828POPC   C2B27464  18.633  22.697   8.313
 1828POPC   C3B27465  18.866  22.634   7.972
 1828POPC   C4B27466  19.271  22.773   7.825
 1829POPC   NC327467   1.815  41.640   9.488
 1829POPC   PO427468   2.362  41.215   9.640
 1829POPC   GL127469   2.262  41.458   9.305
 1829POPC   GL227470   2.002  41.264   9.185
 1829POPC   C1A27471   2.325  41.614   8.880
 1829POPC   D2A27472   2.438  41.500   8.449
 1829POPC   C3A27473   2.162  41.552   8.089
 1829POPC   C4A27474   2.160  41.848   7.722
 1829POPC   C1B27475   1.762  41.241   8.821
 1829POPC   C2B27476   1.712  41.384   8.402
 1829POPC   C3B27477   1.670  41.242   8.012
 1829POPC   C4B27478   1.847  41.426   7.705
 1830POPC   NC327479  39.761  32.188   9.581
 1830POPC   PO427480  40.336  31.839   9.572
 1830POPC   GL127481  40.172  32.100   9.256
 1830POPC   GL227482  40.391  32.403   9.341
 1830POPC   C1A27483  39.976  31.959   8.872
 1830POPC   D2A27484  40.114  31.702   8.503
 1830POPC   C3A27485  40.047  31.929   8.109
 1830POPC   C4A27486  39.740  32.136   7.827
 1830POPC   C1B27487  40.440  32.353   8.888
 1830POPC   C2B27488  40.249  32.207   8.512
 1830POPC   C3B27489  39.987  32.425   8.211
 1830POPC   C4B27490  40.181  32.403   7.852
 1831POPC   NC327491  13.452  14.518   9.388
 1831POPC   PO427492  13.841  14.014   9.550
 1831POPC   GL127493  13.776  14.200   9.137
 1831POPC   GL227494  13.443  14.160   9.015
 1831POPC   C1A27495  13.789  14.460   8.735
 1831POPC   D2A27496  13.657  14.742   8.366
 1831POPC   C3A27497  13.848  14.633   7.953
 1831POPC   C4A27498  13.760  14.214   7.815
 1831POPC   C1B27499  13.277  14.541   8.775
 1831POPC   C2B27500  13.134  14.593   8.369
 1831POPC   C3B27501  13.326  14.697   7.967
 1831POPC   C4B27502  13.469  14.565   7.554
 1832POPC   NC327503  29.600   5.720   9.651
 1832POPC   PO427504  30.199   6.026   9.462
 1832POPC   GL127505  29.860   5.840   9.202
 1832POPC   GL227506  29.532   6.014   9.166
 1832POPC   C1A27507  29.910   5.822   8.768
 1832POPC   D2A27508  30.249   5.931   8.462
 1832POPC   C3A27509  30.215   5.743   8.070
 1832POPC   C4A27510  30.232   5.938   7.683
 1832POPC   C1B27511  29.413   5.955   8.749
 1832POPC   C2B27512  29.562   5.748   8.381
 1832POPC   C3B27513  29.707   5.692   7.977
 1832POPC   C4B27514  29.536   5.381   7.725
 1833POPC   NC327515   7.380  31.687   9.548
 1833POPC   PO427516   7.788  31.189   9.513
 1833POPC   GL127517   7.621  31.500   9.141
 1833POPC   GL227518   7.228  31.507   9.098
 1833POPC   C1A27519   7.476  31.551   8.677
 1833POPC   D2A27520   7.377  31.289   8.317
 1833POPC   C3A27521   7.308  31.541   7.967
 1833POPC   C4A27522   7.711  31.639   7.762
 1833POPC   C1B27523   7.168  31.145   8.779
 1833POPC   C2B27524   7.074  30.896   8.379
 1833POPC   C3B27525   7.100  31.031   7.950
 1833POPC   C4B27526   7.109  31.197   7.549
 1834POPC   NC327527   8.892  26.020   9.694
 1834POPC   PO427528   9.358  26.459   9.494
 1834POPC   GL127529   9.108  26.128   9.239
 1834POPC   GL227530   8.824  25.872   9.214
 1834POPC   C1A27531   9.249  25.901   8.879
 1834POPC   D2A27532   9.300  26.116   8.491
 1834POPC   C3A27533   9.290  25.933   8.108
 1834POPC   C4A27534   9.332  26.125   7.746
 1834POPC   C1B27535   8.735  25.956   8.772
 1834POPC   C2B27536   8.830  25.936   8.323
 1834POPC   C3B27537   8.837  26.100   7.897
 1834POPC   C4B27538   8.952  25.871   7.521
 1835POPC   NC327539  10.619  10.969   9.558
 1835POPC   PO427540  10.140  10.452   9.671
 1835POPC   GL127541  10.367  10.587   9.246
 1835POPC   GL227542  10.338  10.838   9.089
 1835POPC   C1A27543  10.715  10.545   8.888
 1835POPC   D2A27544  10.678  10.269   8.508
 1835POPC   C3A27545  10.764  10.409   8.101
 1835POPC   C4A27546  10.598  10.470   7.709
 1835POPC   C1B27547  10.221  10.527   8.746
 1835POPC   C2B27548  10.067  10.569   8.297
 1835POPC   C3B27549  10.103  10.468   7.869
 1835POPC   C4B27550  10.191  10.709   7.496
 1836POPC   NC327551  23.980  36.306   9.954
 1836POPC   PO427552  24.126  35.896   9.600
 1836POPC   GL127553  23.895  35.949   9.177
 1836POPC   GL227554  23.735  35.649   9.077
 1836POPC   C1A27555  23.690  36.071   8.728
 1836POPC   D2A27556  23.639  36.248   8.259
 1836POPC   C3A27557  23.684  36.030   7.817
 1836POPC   C4A27558  23.451  35.930   7.410
 1836POPC   C1B27559  24.053  35.718   8.741
 1836POPC   C2B27560  23.975  35.878   8.331
 1836POPC   C3B27561  24.118  35.787   7.922
 1836POPC   C4B27562  24.225  36.166   7.669
 1837POPC   NC327563  10.125   1.053   9.506
 1837POPC   PO427564   9.540   1.258   9.624
 1837POPC   GL127565   9.750   1.427   9.261
 1837POPC   GL227566   9.468   1.510   9.074
 1837POPC   C1A27567  10.016   1.320   8.872
 1837POPC   D2A27568  10.036   1.116   8.480
 1837POPC   C3A27569  10.047   1.299   8.098
 1837POPC   C4A27570   9.825   1.081   7.774
 1837POPC   C1B27571   9.555   1.248   8.666
 1837POPC   C2B27572   9.539   1.189   8.210
 1837POPC   C3B27573   9.318   1.149   7.809
 1837POPC   C4B27574   9.330   1.258   7.360
 1838POPC   NC327575  31.156   9.846   9.569
 1838POPC   PO427576  31.772  10.130   9.530
 1838POPC   GL127577  31.755   9.901   9.185
 1838POPC   GL227578  31.996  10.137   9.086
 1838POPC   C1A27579  31.444   9.742   8.888
 1838POPC   D2A27580  31.360   9.876   8.451
 1838POPC   C3A27581  31.290   9.589   8.147
 1838POPC   C4A27582  31.177   9.666   7.749
 1838POPC   C1B27583  31.775  10.104   8.711
 1838POPC   C2B27584  31.819  10.089   8.286
 1838POPC   C3B27585  31.515  10.024   7.961
 1838POPC   C4B27586  31.546   9.929   7.516
 1839POPC   NC327587  36.003  39.272   9.579
 1839POPC   PO427588  36.510  39.097   9.722
 1839POPC   GL127589  36.484  39.252   9.262
 1839POPC   GL227590  36.177  39.105   9.112
 1839POPC   C1A27591  36.478  39.365   8.773
 1839POPC   D2A27592  36.217  39.405   8.362
 1839POPC   C3A27593  36.384  39.493   7.934
 1839POPC   C4A27594  36.203  39.543   7.509
 1839POPC   C1B27595  36.206  38.942   8.674
 1839POPC   C2B27596  36.408  38.943   8.266
 1839POPC   C3B27597  36.390  38.999   7.835
 1839POPC   C4B27598  36.513  38.742   7.476
 1840POPC   NC327599  41.667  40.310   9.489
 1840POPC   PO427600  41.080  40.207   9.686
 1840POPC   GL127601  41.057  40.215   9.190
 1840POPC   GL227602  41.401  40.175   9.070
 1840POPC   C1A27603  41.136  40.398   8.723
 1840POPC   D2A27604  41.359  40.413   8.296
 1840POPC   C3A27605  41.559  40.156   7.952
 1840POPC   C4A27606  41.859  40.328   7.633
 1840POPC   C1B27607  41.646  40.314   8.704
 1840POPC   C2B27608  41.880  40.388   8.296
 1840POPC   C3B27609  42.200  40.197   8.007
 1840POPC   C4B27610  42.275  40.017   7.580
 1841POPC   NC327611  19.940  10.271   9.751
 1841POPC   PO427612  20.113  10.920   9.498
 1841POPC   GL127613  19.943  10.740   9.104
 1841POPC   GL227614  19.955  10.392   9.124
 1841POPC   C1A27615  20.023  10.727   8.621
 1841POPC   D2A27616  20.247  10.729   8.212
 1841POPC   C3A27617  19.990  10.522   7.889
 1841POPC   C4A27618  19.586  10.654   7.727
 1841POPC   C1B27619  19.850  10.231   8.725
 1841POPC   C2B27620  19.746  10.423   8.311
 1841POPC   C3B27621  19.583  10.202   7.953
 1841POPC   C4B27622  19.766  10.188   7.568
 1842POPC   NC327623  31.601  11.374   9.594
 1842POPC   PO427624  31.443  10.690   9.478
 1842POPC   GL127625  31.611  10.975   9.132
 1842POPC   GL227626  31.742  11.355   9.128
 1842POPC   C1A27627  31.416  11.219   8.784
 1842POPC   D2A27628  31.335  11.580   8.540
 1842POPC   C3A27629  31.222  11.457   8.145
 1842POPC   C4A27630  31.425  11.286   7.784
 1842POPC   C1B27631  31.811  11.616   8.772
 1842POPC   C2B27632  31.791  11.792   8.351
 1842POPC   C3B27633  31.636  11.715   7.967
 1842POPC   C4B27634  31.813  11.659   7.555
 1843POPC   NC327635   7.390  38.775   9.337
 1843POPC   PO427636   7.033  38.156   9.300
 1843POPC   GL127637   7.155  38.432   9.049
 1843POPC   GL227638   7.536  38.385   9.012
 1843POPC   C1A27639   7.199  38.576   8.682
 1843POPC   D2A27640   7.473  38.374   8.416
 1843POPC   C3A27641   7.333  38.495   8.034
 1843POPC   C4A27642   7.448  38.297   7.676
 1843POPC   C1B27643   7.769  38.665   8.720
 1843POPC   C2B27644   7.966  38.946   8.435
 1843POPC   C3B27645   7.775  39.068   8.079
 1843POPC   C4B27646   7.641  38.782   7.753
 1844POPC   NC327647  36.135  29.359   9.414
 1844POPC   PO427648  35.918  28.692   9.456
 1844POPC   GL127649  36.078  28.926   9.126
 1844POPC   GL227650  36.383  28.773   8.982
 1844POPC   C1A27651  35.858  29.124   8.787
 1844POPC   D2A27652  35.792  28.996   8.363
 1844POPC   C3A27653  35.842  29.276   8.023
 1844POPC   C4A27654  35.857  28.977   7.745
 1844POPC   C1B27655  36.401  29.189   8.791
 1844POPC   C2B27656  36.242  29.278   8.390
 1844POPC   C3B27657  36.290  28.984   8.040
 1844POPC   C4B27658  36.346  29.077   7.607
 1845POPC   NC327659   5.770  20.327   9.555
 1845POPC   PO427660   5.472  20.891   9.561
 1845POPC   GL127661   5.611  20.666   9.189
 1845POPC   GL227662   5.989  20.599   9.196
 1845POPC   C1A27663   5.739  20.682   8.755
 1845POPC   D2A27664   5.865  20.933   8.406
 1845POPC   C3A27665   5.782  20.730   8.021
 1845POPC   C4A27666   5.555  20.404   7.805
 1845POPC   C1B27667   6.199  20.457   8.833
 1845POPC   C2B27668   6.059  20.453   8.399
 1845POPC   C3B27669   5.865  20.138   8.127
 1845POPC   C4B27670   5.796  19.975   7.683
 1846POPC   NC327671   5.434   1.695   9.510
 1846POPC   PO427672   5.283   2.360   9.705
 1846POPC   GL127673   5.117   2.193   9.290
 1846POPC   GL227674   5.154   1.875   9.149
 1846POPC   C1A27675   5.023   2.201   8.806
 1846POPC   D2A27676   4.738   2.272   8.436
 1846POPC   C3A27677   4.962   2.209   8.030
 1846POPC   C4A27678   5.322   2.286   7.744
 1846POPC   C1B27679   5.178   1.674   8.789
 1846POPC   C2B27680   5.157   1.881   8.387
 1846POPC   C3B27681   5.099   1.698   7.975
 1846POPC   C4B27682   4.929   1.471   7.612
 1847POPC   NC327683   2.744  41.469   9.763
 1847POPC   PO427684   3.196  41.014   9.592
 1847POPC   GL127685   2.900  41.289   9.281
 1847POPC   GL227686   2.737  41.612   9.207
 1847POPC   C1A27687   2.733  41.279   8.839
 1847POPC   D2A27688   2.882  41.241   8.443
 1847POPC   C3A27689   2.616  41.177   8.098
 1847POPC   C4A27690   2.518  41.424   7.726
 1847POPC   C1B27691   3.002  41.704   8.855
 1847POPC   C2B27692   3.065  41.712   8.397
 1847POPC   C3B27693   2.896  41.614   8.013
 1847POPC   C4B27694   3.031  41.740   7.577
 1848POPC   NC327695  13.370   1.874   9.534
 1848POPC   PO427696  14.082   1.721   9.449
 1848POPC   GL127697  13.844   1.857   9.060
 1848POPC   GL227698  13.476   1.815   9.025
 1848POPC   C1A27699  13.705   2.157   8.716
 1848POPC   D2A27700  13.518   2.143   8.284
 1848POPC   C3A27701  13.654   2.310   7.881
 1848POPC   C4A27702  14.050   2.235   7.723
 1848POPC   C1B27703  13.261   1.837   8.617
 1848POPC   C2B27704  13.311   1.678   8.204
 1848POPC   C3B27705  13.415   1.848   7.834
 1848POPC   C4B27706  13.640   1.573   7.625
 1849POPC   NC327707  25.000   2.230   9.306
 1849POPC   PO427708  25.344   2.822   9.548
 1849POPC   GL127709  25.305   2.706   9.131
 1849POPC   GL227710  25.461   2.381   9.061
 1849POPC   C1A27711  25.489   2.954   8.790
 1849POPC   D2A27712  25.369   3.224   8.493
 1849POPC   C3A27713  25.322   2.999   8.121
 1849POPC   C4A27714  25.377   2.770   7.725
 1849POPC   C1B27715  25.277   2.511   8.636
 1849POPC   C2B27716  25.231   2.488   8.175
 1849POPC   C3B27717  25.135   2.317   7.758
 1849POPC   C4B27718  25.064   2.406   7.324
 1850POPC   NC327719   8.922  42.785   9.617
 1850POPC   PO427720   9.310  42.220   9.484
 1850POPC   GL127721   9.065  42.262   9.111
 1850POPC   GL227722   9.126  42.619   9.167
 1850POPC   C1A27723   9.013  42.108   8.677
 1850POPC   D2A27724   9.072  42.014   8.218
 1850POPC   C3A27725   8.924  42.358   7.931
 1850POPC   C4A27726   8.808  42.378   7.478
 1850POPC   C1B27727   9.286  42.553   8.752
 1850POPC   C2B27728   9.088  42.610   8.363
 1850POPC   C3B27729   9.287  42.709   7.980
 1850POPC   C4B27730   9.280  42.555   7.548
 1851POPC   NC327731  13.706  22.374   9.398
 1851POPC   PO427732  13.353  21.788   9.480
 1851POPC   GL127733  13.361  22.045   9.131
 1851POPC   GL227734  13.190  22.361   9.222
 1851POPC   C1A27735  13.604  22.122   8.778
 1851POPC   D2A27736  13.697  22.249   8.370
 1851POPC   C3A27737  13.461  22.091   8.081
 1851POPC   C4A27738  13.542  22.144   7.675
 1851POPC   C1B27739  13.132  22.428   8.769
 1851POPC   C2B27740  13.278  22.596   8.346
 1851POPC   C3B27741  13.514  22.583   7.970
 1851POPC   C4B27742  13.362  22.587   7.541
 1852POPC   NC327743   6.036   6.393   9.464
 1852POPC   PO427744   6.185   6.932   9.714
 1852POPC   GL127745   6.120   6.826   9.211
 1852POPC   GL227746   6.217   7.026   8.914
 1852POPC   C1A27747   6.079   6.553   8.784
 1852POPC   D2A27748   6.180   6.403   8.330
 1852POPC   C3A27749   5.914   6.475   7.956
 1852POPC   C4A27750   5.960   6.437   7.489
 1852POPC   C1B27751   5.872   7.007   8.620
 1852POPC   C2B27752   5.788   6.935   8.185
 1852POPC   C3B27753   5.758   6.903   7.743
 1852POPC   C4B27754   5.670   6.834   7.305
 1853POPC   NC327755  32.471  37.383   9.552
 1853POPC   PO427756  32.571  36.816   9.522
 1853POPC   GL127757  32.314  36.834   9.154
 1853POPC   GL227758  32.121  36.542   9.093
 1853POPC   C1A27759  32.174  36.914   8.712
 1853POPC   D2A27760  32.282  37.046   8.283
 1853POPC   C3A27761  32.129  36.776   7.947
 1853POPC   C4A27762  32.227  36.576   7.575
 1853POPC   C1B27763  32.487  36.522   8.780
 1853POPC   C2B27764  32.351  36.535   8.350
 1853POPC   C3B27765  32.570  36.483   7.938
 1853POPC   C4B27766  32.721  36.364   7.506
 1854POPC   NC327767   7.239  37.800   9.502
 1854POPC   PO427768   7.699  37.410   9.333
 1854POPC   GL127769   7.518  37.611   9.034
 1854POPC   GL227770   7.147  37.574   9.054
 1854POPC   C1A27771   7.547  37.936   8.749
 1854POPC   D2A27772   7.267  37.900   8.434
 1854POPC   C3A27773   7.447  37.983   8.069
 1854POPC   C4A27774   7.555  37.790   7.690
 1854POPC   C1B27775   7.212  37.293   8.730
 1854POPC   C2B27776   7.126  37.346   8.309
 1854POPC   C3B27777   7.142  37.583   7.951
 1854POPC   C4B27778   7.361  37.336   7.644
 1855POPC   NC327779  15.143  27.913   9.480
 1855POPC   PO427780  14.744  27.369   9.468
 1855POPC   GL127781  14.914  27.563   9.138
 1855POPC   GL227782  15.293  27.543   9.152
 1855POPC   C1A27783  14.983  27.387   8.734
 1855POPC   D2A27784  14.960  27.615   8.356
 1855POPC   C3A27785  15.103  27.409   7.980
 1855POPC   C4A27786  14.902  27.410   7.581
 1855POPC   C1B27787  15.254  27.799   8.779
 1855POPC   C2B27788  15.376  27.976   8.393
 1855POPC   C3B27789  15.202  27.952   7.993
 1855POPC   C4B27790  15.267  27.751   7.613
 1856POPC   NC327791   7.007  41.187   9.171
 1856POPC   PO427792   6.442  41.441   9.485
 1856POPC   GL127793   6.650  41.653   9.165
 1856POPC   GL227794   6.489  41.437   8.939
 1856POPC   C1A27795   6.871  41.746   8.775
 1856POPC   D2A27796   6.806  41.516   8.386
 1856POPC   C3A27797   6.704  41.668   7.965
 1856POPC   C4A27798   6.882  41.487   7.567
 1856POPC   C1B27799   6.414  41.110   8.622
 1856POPC   C2B27800   6.532  41.131   8.229
 1856POPC   C3B27801   6.566  41.196   7.840
 1856POPC   C4B27802   6.544  41.124   7.381
 1857POPC   NC327803   3.129  43.862   9.482
 1857POPC   PO427804   3.814  43.713   9.568
 1857POPC   GL127805   3.809  43.641   9.128
 1857POPC   GL227806   3.568  43.912   9.091
 1857POPC   C1A27807   3.891  43.693   8.669
 1857POPC   D2A27808   3.754  44.046   8.395
 1857POPC   C3A27809   3.817  43.979   7.986
 1857POPC   C4A27810   3.642  43.621   7.800
 1857POPC   C1B27811   3.342  44.031   8.709
 1857POPC   C2B27812   3.188  44.159   8.314
 1857POPC   C3B27813   3.323  43.990   7.959
 1857POPC   C4B27814   3.339  44.048   7.536
 1858POPC   NC327815  34.851  44.986   9.471
 1858POPC   PO427816  34.210   0.080   9.409
 1858POPC   GL127817  34.487  44.914   9.100
 1858POPC   GL227818  34.553  44.600   9.222
 1858POPC   C1A27819  34.728   0.014   8.718
 1858POPC   D2A27820  34.665  44.811   8.306
 1858POPC   C3A27821  34.708  44.816   7.841
 1858POPC   C4A27822  34.847  44.521   7.545
 1858POPC   C1B27823  34.596  44.509   8.762
 1858POPC   C2B27824  34.405  44.376   8.343
 1858POPC   C3B27825  34.375  44.411   7.873
 1858POPC   C4B27826  34.099  44.120   7.642
 1859POPC   NC327827   2.800  22.837   9.510
 1859POPC   PO427828   2.340  23.279   9.484
 1859POPC   GL127829   2.327  22.901   9.186
 1859POPC   GL227830   2.657  23.018   9.055
 1859POPC   C1A27831   2.507  22.601   8.833
 1859POPC   D2A27832   2.760  22.772   8.497
 1859POPC   C3A27833   2.686  22.936   8.083
 1859POPC   C4A27834   2.492  22.661   7.831
 1859POPC   C1B27835   2.899  23.215   8.734
 1859POPC   C2B27836   2.986  23.341   8.315
 1859POPC   C3B27837   2.907  23.376   7.870
 1859POPC   C4B27838   2.469  23.430   7.748
 1860POPC   NC327839  10.506  10.203   9.509
 1860POPC   PO427840  10.707   9.557   9.513
 1860POPC   GL127841  10.685   9.840   9.187
 1860POPC   GL227842  10.958  10.092   9.292
 1860POPC   C1A27843  10.563   9.788   8.752
 1860POPC   D2A27844  10.480   9.514   8.393
 1860POPC   C3A27845  10.646   9.574   7.994
 1860POPC   C4A27846  10.543   9.942   7.759
 1860POPC   C1B27847  10.990  10.081   8.855
 1860POPC   C2B27848  10.993   9.802   8.459
 1860POPC   C3B27849  10.991   9.957   8.036
 1860POPC   C4B27850  11.029   9.803   7.624
 1861POPC   NC327851  39.186  10.618   9.769
 1861POPC   PO427852  39.485  10.557   9.235
 1861POPC   GL127853  39.017  10.558   9.264
 1861POPC   GL227854  38.951  10.239   9.246
 1861POPC   C1A27855  38.817  10.552   8.821
 1861POPC   D2A27856  39.170  10.598   8.464
 1861POPC   C3A27857  39.250  10.871   8.085
 1861POPC   C4A27858  39.326  10.662   7.716
 1861POPC   C1B27859  39.171  10.189   8.790
 1861POPC   C2B27860  39.271  10.097   8.363
 1861POPC   C3B27861  39.126  10.273   8.014
 1861POPC   C4B27862  39.038  10.282   7.549
 1862POPC   NC327863  31.577  35.934   9.489
 1862POPC   PO427864  31.086  36.338   9.459
 1862POPC   GL127865  31.353  36.198   9.107
 1862POPC   GL227866  31.721  36.181   9.060
 1862POPC   C1A27867  31.297  36.168   8.676
 1862POPC   D2A27868  31.322  36.371   8.269
 1862POPC   C3A27869  31.549  36.223   7.891
 1862POPC   C4A27870  31.731  36.415   7.515
 1862POPC   C1B27871  31.710  35.897   8.688
 1862POPC   C2B27872  31.515  35.868   8.292
 1862POPC   C3B27873  31.818  35.794   8.001
 1862POPC   C4B27874  31.859  35.915   7.572
 1863POPC   NC327875  20.151  33.480   9.403
 1863POPC   PO427876  20.691  33.947   9.532
 1863POPC   GL127877  20.448  33.863   9.209
 1863POPC   GL227878  20.605  33.547   9.183
 1863POPC   C1A27879  20.343  33.793   8.797
 1863POPC   D2A27880  20.460  34.037   8.462
 1863POPC   C3A27881  20.262  33.955   8.114
 1863POPC   C4A27882  20.259  34.147   7.731
 1863POPC   C1B27883  20.517  33.318   8.801
 1863POPC   C2B27884  20.574  33.512   8.427
 1863POPC   C3B27885  20.784  33.785   8.152
 1863POPC   C4B27886  20.574  33.720   7.760
 1864POPC   NC327887  36.866  13.875   9.518
 1864POPC   PO427888  36.981  13.221   9.400
 1864POPC   GL127889  37.017  13.511   9.084
 1864POPC   GL227890  36.697  13.684   9.072
 1864POPC   C1A27891  36.919  13.490   8.644
 1864POPC   D2A27892  36.656  13.560   8.305
 1864POPC   C3A27893  36.680  13.268   8.006
 1864POPC   C4A27894  37.054  13.280   7.822
 1864POPC   C1B27895  36.673  13.934   8.681
 1864POPC   C2B27896  36.989  13.948   8.339
 1864POPC   C3B27897  37.056  13.848   7.895
 1864POPC   C4B27898  36.993  13.971   7.464
 1865POPC   NC327899   6.936  10.724  10.071
 1865POPC   PO427900   6.434  10.391   9.710
 1865POPC   GL127901   6.623  10.328   9.290
 1865POPC   GL227902   6.646  10.704   9.266
 1865POPC   C1A27903   6.621  10.098   8.867
 1865POPC   D2A27904   6.508  10.271   8.440
 1865POPC   C3A27905   6.803  10.356   8.120
 1865POPC   C4A27906   6.638  10.395   7.734
 1865POPC   C1B27907   6.571  10.632   8.834
 1865POPC   C2B27908   6.666  10.827   8.448
 1865POPC   C3B27909   6.522  10.776   8.056
 1865POPC   C4B27910   6.635  10.891   7.645
 1866POPC   NC327911  31.231  20.795   9.921
 1866POPC   PO427912  31.764  20.579   9.687
 1866POPC   GL127913  31.659  20.527   9.253
 1866POPC   GL227914  31.306  20.521   9.154
 1866POPC   C1A27915  31.668  20.438   8.795
 1866POPC   D2A27916  31.523  20.618   8.413
 1866POPC   C3A27917  31.679  20.457   8.025
 1866POPC   C4A27918  31.931  20.715   7.762
 1866POPC   C1B27919  31.110  20.639   8.743
 1866POPC   C2B27920  31.042  20.787   8.314
 1866POPC   C3B27921  31.233  20.691   7.918
 1866POPC   C4B27922  31.411  20.462   7.573
 1867POPC   NC327923  10.413  28.977   9.558
 1867POPC   PO427924  11.099  28.983   9.344
 1867POPC   GL127925  10.752  28.856   9.164
 1867POPC   GL227926  10.589  29.146   9.120
 1867POPC   C1A27927  10.669  28.849   8.737
 1867POPC   D2A27928  10.442  29.038   8.468
 1867POPC   C3A27929  10.487  28.968   8.072
 1867POPC   C4A27930  10.259  29.018   7.725
 1867POPC   C1B27931  10.331  29.359   8.858
 1867POPC   C2B27932  10.351  29.544   8.456
 1867POPC   C3B27933  10.413  29.462   8.014
 1867POPC   C4B27934  10.102  29.485   7.707
 1868POPC   NC327935  24.851  32.733   9.471
 1868POPC   PO427936  24.824  33.370   9.476
 1868POPC   GL127937  24.506  33.124   9.241
 1868POPC   GL227938  24.753  33.031   9.059
 1868POPC   C1A27939  24.297  33.146   8.794
 1868POPC   D2A27940  24.199  32.914   8.392
 1868POPC   C3A27941  24.304  33.006   7.947
 1868POPC   C4A27942  24.609  32.993   7.610
 1868POPC   C1B27943  24.744  32.644   8.829
 1868POPC   C2B27944  24.619  32.567   8.435
 1868POPC   C3B27945  24.713  32.702   8.037
 1868POPC   C4B27946  24.933  32.586   7.669
 1869POPC   NC327947  11.449  11.774   9.572
 1869POPC   PO427948  10.989  12.208   9.520
 1869POPC   GL127949  11.219  12.039   9.187
 1869POPC   GL227950  10.984  11.941   8.992
 1869POPC   C1A27951  11.455  12.034   8.776
 1869POPC   D2A27952  11.479  12.324   8.398
 1869POPC   C3A27953  11.617  12.170   7.979
 1869POPC   C4A27954  11.415  12.082   7.577
 1869POPC   C1B27955  11.000  12.152   8.598
 1869POPC   C2B27956  11.199  11.911   8.267
 1869POPC   C3B27957  11.173  11.752   7.864
 1869POPC   C4B27958  10.912  11.985   7.551
 1870POPC   NC327959   2.702  28.483   9.460
 1870POPC   PO427960   2.318  28.990   9.502
 1870POPC   GL127961   2.488  28.771   9.094
 1870POPC   GL227962   2.854  28.832   9.112
 1870POPC   C1A27963   2.529  28.415   8.740
 1870POPC   D2A27964   2.608  28.098   8.358
 1870POPC   C3A27965   2.513  28.180   7.898
 1870POPC   C4A27966   2.508  27.975   7.481
 1870POPC   C1B27967   2.961  28.685   8.695
 1870POPC   C2B27968   2.843  28.544   8.263
 1870POPC   C3B27969   3.014  28.246   7.956
 1870POPC   C4B27970   2.965  27.856   7.713
 1871POPC   NC327971  25.560  25.960   9.617
 1871POPC   PO427972  26.235  26.020   9.522
 1871POPC   GL127973  26.072  26.074   9.152
 1871POPC   GL227974  25.825  25.853   9.194
 1871POPC   C1A27975  26.148  26.161   8.751
 1871POPC   D2A27976  26.001  26.084   8.358
 1871POPC   C3A27977  26.156  26.015   7.977
 1871POPC   C4A27978  26.033  26.285   7.612
 1871POPC   C1B27979  25.651  25.733   8.845
 1871POPC   C2B27980  25.656  25.743   8.464
 1871POPC   C3B27981  25.670  25.818   8.058
 1871POPC   C4B27982  25.550  25.554   7.709
 1872POPC   NC327983   3.386  44.811   9.303
 1872POPC   PO427984   3.551   0.332   9.776
 1872POPC   GL127985   3.623   0.333   9.286
 1872POPC   GL227986   3.335   0.304   9.162
 1872POPC   C1A27987   3.765   0.427   8.820
 1872POPC   D2A27988   4.043   0.396   8.442
 1872POPC   C3A27989   3.893   0.538   8.026
 1872POPC   C4A27990   3.445   0.622   7.920
 1872POPC   C1B27991   3.317   0.195   8.765
 1872POPC   C2B27992   3.468   0.325   8.383
 1872POPC   C3B27993   3.181   0.198   8.092
 1872POPC   C4B27994   2.995   0.306   7.705
 1873POPC   NC327995   0.246  19.556   9.469
 1873POPC   PO427996   0.886  19.668   9.630
 1873POPC   GL127997   0.616  19.761   9.179
 1873POPC   GL227998   0.269  19.779   9.025
 1873POPC   C1A27999   0.652  19.666   8.725
 1873POPC   D2A28000   0.578  19.891   8.396
 1873POPC   C3A28001   0.527  19.733   8.000
 1873POPC   C4A28002   0.225  19.915   7.770
 1873POPC   C1B28003   0.104  19.859   8.626
 1873POPC   C2B28004   0.161  20.198   8.348
 1873POPC   C3B28005   0.016  20.362   7.955
 1873POPC   C4B28006   0.197  20.382   7.583
 1874POPC   NC328007  35.137   4.556   9.443
 1874POPC   PO428008  35.781   4.682   9.621
 1874POPC   GL128009  35.577   4.407   9.234
 1874POPC   GL228010  35.299   4.126   9.185
 1874POPC   C1A28011  35.342   4.476   8.806
 1874POPC   D2A28012  35.285   4.697   8.410
 1874POPC   C3A28013  35.612   4.680   8.083
 1874POPC   C4A28014  35.568   4.483   7.687
 1874POPC   C1B28015  35.011   4.066   8.819
 1874POPC   C2B28016  35.143   4.198   8.394
 1874POPC   C3B28017  35.186   4.362   7.997
 1874POPC   C4B28018  35.272   4.044   7.677
 1875POPC   NC328019   4.459   7.864   9.594
 1875POPC   PO428020   4.015   7.374   9.509
 1875POPC   GL128021   4.421   7.425   9.256
 1875POPC   GL228022   4.669   7.701   9.171
 1875POPC   C1A28023   4.372   7.330   8.823
 1875POPC   D2A28024   4.373   7.451   8.398
 1875POPC   C3A28025   4.091   7.325   8.075
 1875POPC   C4A28026   4.014   7.477   7.659
 1875POPC   C1B28027   4.599   7.792   8.774
 1875POPC   C2B28028   4.783   7.738   8.383
 1875POPC   C3B28029   4.595   7.746   7.989
 1875POPC   C4B28030   4.497   7.386   7.745
 1876POPC   NC328031   5.604   2.497   9.399
 1876POPC   PO428032   6.187   2.788   9.702
 1876POPC   GL128033   6.028   2.913   9.249
 1876POPC   GL228034   5.690   2.925   9.098
 1876POPC   C1A28035   6.056   2.983   8.773
 1876POPC   D2A28036   6.037   2.724   8.401
 1876POPC   C3A28037   6.191   2.945   8.062
 1876POPC   C4A28038   6.181   3.008   7.638
 1876POPC   C1B28039   5.597   2.696   8.711
 1876POPC   C2B28040   5.442   2.366   8.411
 1876POPC   C3B28041   5.710   2.325   8.057
 1876POPC   C4B28042   5.829   2.648   7.791
 1877POPC   NC328043  34.303  32.188   9.397
 1877POPC   PO428044  34.795  32.464   9.762
 1877POPC   GL128045  34.818  32.321   9.306
 1877POPC   GL228046  34.908  32.588   9.171
 1877POPC   C1A28047  34.611  32.308   8.836
 1877POPC   D2A28048  34.356  32.477   8.527
 1877POPC   C3A28049  34.487  32.162   8.251
 1877POPC   C4A28050  34.599  32.081   7.833
 1877POPC   C1B28051  34.811  32.754   8.764
 1877POPC   C2B28052  34.809  32.567   8.356
 1877POPC   C3B28053  34.589  32.602   7.988
 1877POPC   C4B28054  34.789  32.619   7.597
 1878POPC   NC328055  11.424   5.474   9.595
 1878POPC   PO428056  11.258   6.164   9.489
 1878POPC   GL128057  11.200   5.926   9.064
 1878POPC   GL228058  11.236   5.614   9.134
 1878POPC   C1A28059  11.239   5.745   8.618
 1878POPC   D2A28060  11.411   5.966   8.258
 1878POPC   C3A28061  11.305   5.882   7.833
 1878POPC   C4A28062  11.197   5.574   7.496
 1878POPC   C1B28063  11.644   5.593   8.890
 1878POPC   C2B28064  11.820   5.711   8.482
 1878POPC   C3B28065  11.718   5.586   8.067
 1878POPC   C4B28066  11.702   5.657   7.633
 1879POPC   NC328067  17.603  27.744   9.621
 1879POPC   PO428068  17.017  27.547   9.399
 1879POPC   GL128069  17.364  27.738   9.156
 1879POPC   GL228070  17.709  27.593   9.142
 1879POPC   C1A28071  17.425  27.664   8.717
 1879POPC   D2A28072  17.273  27.559   8.310
 1879POPC   C3A28073  17.465  27.830   8.005
 1879POPC   C4A28074  17.434  27.771   7.548
 1879POPC   C1B28075  17.908  27.456   8.749
 1879POPC   C2B28076  17.771  27.478   8.302
 1879POPC   C3B28077  17.573  27.358   7.872
 1879POPC   C4B28078  17.766  27.265   7.458
 1880POPC   NC328079  33.254  15.083   9.485
 1880POPC   PO428080  32.583  15.192   9.478
 1880POPC   GL128081  32.854  15.083   9.138
 1880POPC   GL228082  33.148  15.313   9.046
 1880POPC   C1A28083  33.008  14.893   8.773
 1880POPC   D2A28084  33.222  15.154   8.483
 1880POPC   C3A28085  33.140  15.141   8.071
 1880POPC   C4A28086  32.820  14.933   7.878
 1880POPC   C1B28087  32.839  15.411   8.706
 1880POPC   C2B28088  32.837  15.522   8.245
 1880POPC   C3B28089  32.798  15.443   7.772
 1880POPC   C4B28090  32.580  15.451   7.335
 1881POPC   NC328091  38.396  30.150   9.446
 1881POPC   PO428092  38.914  29.772   9.493
 1881POPC   GL128093  38.582  29.713   9.169
 1881POPC   GL228094  38.649  30.028   9.042
 1881POPC   C1A28095  38.368  29.757   8.723
 1881POPC   D2A28096  38.249  29.971   8.330
 1881POPC   C3A28097  38.395  29.790   7.967
 1881POPC   C4A28098  38.363  29.851   7.548
 1881POPC   C1B28099  38.667  30.262   8.666
 1881POPC   C2B28100  38.551  30.378   8.256
 1881POPC   C3B28101  38.507  30.284   7.809
 1881POPC   C4B28102  38.586  30.280   7.339
 1882POPC   NC328103   7.853   3.014   9.567
 1882POPC   PO428104   8.487   2.952   9.393
 1882POPC   GL128105   8.103   2.899   9.116
 1882POPC   GL228106   8.135   3.079   8.827
 1882POPC   C1A28107   7.907   2.617   8.769
 1882POPC   D2A28108   8.006   2.466   8.354
 1882POPC   C3A28109   8.087   2.777   8.034
 1882POPC   C4A28110   7.941   2.973   7.664
 1882POPC   C1B28111   8.387   2.721   8.675
 1882POPC   C2B28112   8.519   2.629   8.290
 1882POPC   C3B28113   8.599   2.948   8.013
 1882POPC   C4B28114   8.620   2.820   7.629
 1883POPC   NC328115  10.861  27.743   9.499
 1883POPC   PO428116  11.484  27.458   9.635
 1883POPC   GL128117  11.707  27.396   9.228
 1883POPC   GL228118  11.367  27.480   9.127
 1883POPC   C1A28119  11.599  27.216   8.768
 1883POPC   D2A28120  11.362  27.337   8.344
 1883POPC   C3A28121  11.472  27.191   7.932
 1883POPC   C4A28122  11.578  27.432   7.543
 1883POPC   C1B28123  11.315  27.649   8.745
 1883POPC   C2B28124  11.286  27.849   8.329
 1883POPC   C3B28125  11.459  27.854   7.891
 1883POPC   C4B28126  11.212  27.768   7.516
 1884POPC   NC328127  27.693  14.911   9.597
 1884POPC   PO428128  27.533  15.435   9.779
 1884POPC   GL128129  27.703  15.305   9.303
 1884POPC   GL228130  27.451  15.095   9.139
 1884POPC   C1A28131  27.844  15.174   8.842
 1884POPC   D2A28132  27.637  15.232   8.476
 1884POPC   C3A28133  27.615  14.993   8.118
 1884POPC   C4A28134  27.874  15.124   7.796
 1884POPC   C1B28135  27.208  15.131   8.728
 1884POPC   C2B28136  27.192  15.376   8.309
 1884POPC   C3B28137  27.459  15.441   7.932
 1884POPC   C4B28138  27.410  15.114   7.610
 1885POPC   NC328139  32.452  27.595   9.472
 1885POPC   PO428140  32.035  28.079   9.709
 1885POPC   GL128141  32.055  27.762   9.248
 1885POPC   GL228142  32.467  27.872   9.071
 1885POPC   C1A28143  32.149  27.690   8.743
 1885POPC   D2A28144  32.239  27.899   8.319
 1885POPC   C3A28145  32.066  27.608   7.995
 1885POPC   C4A28146  31.742  27.464   7.669
 1885POPC   C1B28147  32.680  27.886   8.649
 1885POPC   C2B28148  32.751  27.872   8.179
 1885POPC   C3B28149  32.495  27.841   7.836
 1885POPC   C4B28150  32.506  27.865   7.420
 1886POPC   NC328151  43.261   2.729   9.526
 1886POPC   PO428152  42.636   2.577   9.654
 1886POPC   GL128153  42.847   2.688   9.200
 1886POPC   GL228154  43.049   2.967   9.152
 1886POPC   C1A28155  43.084   2.595   8.796
 1886POPC   D2A28156  42.993   2.667   8.360
 1886POPC   C3A28157  43.156   2.755   7.920
 1886POPC   C4A28158  43.018   2.675   7.471
 1886POPC   C1B28159  43.065   3.104   8.729
 1886POPC   C2B28160  43.197   3.143   8.298
 1886POPC   C3B28161  43.339   3.226   7.878
 1886POPC   C4B28162  43.460   2.937   7.513
 1887POPC   NC328163  40.999  14.379   9.651
 1887POPC   PO428164  41.661  14.204   9.342
 1887POPC   GL128165  41.571  14.530   9.042
 1887POPC   GL228166  41.226  14.677   9.006
 1887POPC   C1A28167  41.482  14.483   8.614
 1887POPC   D2A28168  41.309  14.202   8.327
 1887POPC   C3A28169  41.492  14.303   7.950
 1887POPC   C4A28170  41.727  14.038   7.696
 1887POPC   C1B28171  41.048  14.768   8.635
 1887POPC   C2B28172  41.178  14.692   8.237
 1887POPC   C3B28173  41.083  14.622   7.847
 1887POPC   C4B28174  41.285  14.779   7.514
 1888POPC   NC328175  16.482  22.012   9.330
 1888POPC   PO428176  15.791  22.074   9.517
 1888POPC   GL128177  15.990  22.115   9.142
 1888POPC   GL228178  15.753  21.856   9.058
 1888POPC   C1A28179  16.172  22.303   8.762
 1888POPC   D2A28180  15.967  22.239   8.333
 1888POPC   C3A28181  15.956  22.375   7.905
 1888POPC   C4A28182  16.294  22.381   7.611
 1888POPC   C1B28183  15.943  21.845   8.671
 1888POPC   C2B28184  16.002  21.721   8.254
 1888POPC   C3B28185  15.785  21.821   7.910
 1888POPC   C4B28186  15.952  21.983   7.541
 1889POPC   NC328187   8.810  12.879   9.478
 1889POPC   PO428188   9.357  12.528   9.424
 1889POPC   GL128189   9.039  12.722   9.069
 1889POPC   GL228190   8.813  13.063   9.024
 1889POPC   C1A28191   8.687  12.669   8.764
 1889POPC   D2A28192   8.780  12.959   8.446
 1889POPC   C3A28193   8.746  12.807   8.016
 1889POPC   C4A28194   9.000  12.799   7.670
 1889POPC   C1B28195   9.188  13.169   8.854
 1889POPC   C2B28196   9.292  13.215   8.461
 1889POPC   C3B28197   9.138  13.130   8.065
 1889POPC   C4B28198   9.280  13.222   7.679
 1890POPC   NC328199  38.908  35.722   9.440
 1890POPC   PO428200  39.297  35.153   9.505
 1890POPC   GL128201  39.242  35.403   9.177
 1890POPC   GL228202  38.890  35.287   9.170
 1890POPC   C1A28203  39.378  35.345   8.752
 1890POPC   D2A28204  39.119  35.280   8.402
 1890POPC   C3A28205  39.316  35.224   8.035
 1890POPC   C4A28206  39.311  34.995   7.676
 1890POPC   C1B28207  38.944  35.584   8.810
 1890POPC   C2B28208  39.044  35.782   8.434
 1890POPC   C3B28209  39.007  35.627   8.033
 1890POPC   C4B28210  39.093  35.466   7.636
 1891POPC   NC328211  39.966   3.497   9.524
 1891POPC   PO428212  39.783   4.071   9.147
 1891POPC   GL128213  39.814   3.570   9.037
 1891POPC   GL228214  40.159   3.352   9.087
 1891POPC   C1A28215  39.743   3.280   8.640
 1891POPC   D2A28216  39.709   3.227   8.180
 1891POPC   C3A28217  39.792   3.550   7.859
 1891POPC   C4A28218  40.022   3.941   7.861
 1891POPC   C1B28219  40.177   3.553   8.694
 1891POPC   C2B28220  40.286   3.791   8.359
 1891POPC   C3B28221  40.342   3.577   8.003
 1891POPC   C4B28222  40.234   3.254   7.779
 1892POPC   NC328223   9.969  44.820  10.022
 1892POPC   PO428224   9.635  44.617   9.521
 1892POPC   GL128225   9.746  44.605   9.111
 1892POPC   GL228226  10.019  44.432   9.085
 1892POPC   C1A28227   9.913  44.791   8.733
 1892POPC   D2A28228   9.747  44.667   8.356
 1892POPC   C3A28229   9.895  44.780   7.980
 1892POPC   C4A28230   9.559  44.771   7.659
 1892POPC   C1B28231  10.217  44.366   8.699
 1892POPC   C2B28232  10.291  44.528   8.278
 1892POPC   C3B28233  10.242  44.389   7.827
 1892POPC   C4B28234   9.976  44.528   7.475
 1893POPC   NC328235  34.605   8.612   9.461
 1893POPC   PO428236  34.555   7.961   9.484
 1893POPC   GL128237  34.550   8.167   9.106
 1893POPC   GL228238  34.383   8.515   9.017
 1893POPC   C1A28239  34.369   7.975   8.718
 1893POPC   D2A28240  34.549   8.069   8.365
 1893POPC   C3A28241  34.310   8.129   8.043
 1893POPC   C4A28242  34.521   8.071   7.683
 1893POPC   C1B28243  34.697   8.425   8.704
 1893POPC   C2B28244  35.032   8.246   8.438
 1893POPC   C3B28245  34.899   8.255   8.014
 1893POPC   C4B28246  34.905   8.395   7.586
 1894POPC   NC328247   2.410   2.720   9.537
 1894POPC   PO428248   1.886   2.364   9.514
 1894POPC   GL128249   2.194   2.444   9.178
 1894POPC   GL228250   2.179   2.796   9.060
 1894POPC   C1A28251   2.247   2.336   8.784
 1894POPC   D2A28252   2.034   2.497   8.460
 1894POPC   C3A28253   2.235   2.666   8.137
 1894POPC   C4A28254   2.023   2.771   7.770
 1894POPC   C1B28255   2.069   2.995   8.631
 1894POPC   C2B28256   2.008   3.124   8.188
 1894POPC   C3B28257   1.683   3.156   7.830
 1894POPC   C4B28258   1.337   3.199   7.506
 1895POPC   NC328259   4.317  17.825   9.643
 1895POPC   PO428260   4.415  18.577   9.548
 1895POPC   GL128261   4.340  18.331   9.202
 1895POPC   GL228262   4.589  18.102   9.300
 1895POPC   C1A28263   4.205  18.426   8.784
 1895POPC   D2A28264   4.351  18.457   8.366
 1895POPC   C3A28265   4.106  18.360   8.002
 1895POPC   C4A28266   4.192  18.005   7.757
 1895POPC   C1B28267   4.716  17.967   8.889
 1895POPC   C2B28268   4.728  18.106   8.471
 1895POPC   C3B28269   4.598  17.939   8.086
 1895POPC   C4B28270   4.773  17.980   7.678
 1896POPC   NC328271   0.312  23.481   9.495
 1896POPC   PO428272   0.419  22.819   9.526
 1896POPC   GL128273   0.624  22.977   9.161
 1896POPC   GL228274   0.442  23.288   9.021
 1896POPC   C1A28275   0.517  22.858   8.757
 1896POPC   D2A28276   0.384  22.910   8.375
 1896POPC   C3A28277   0.725  22.936   8.132
 1896POPC   C4A28278   0.592  22.824   7.746
 1896POPC   C1B28279   0.077  23.132   8.749
 1896POPC   C2B28280  44.961  23.180   8.293
 1896POPC   C3B28281   0.137  22.975   7.894
 1896POPC   C4B28282   0.245  23.093   7.443
 1897POPC   NC328283  27.087   6.084   9.282
 1897POPC   PO428284  26.695   6.659   9.471
 1897POPC   GL128285  26.897   6.549   9.142
 1897POPC   GL228286  27.011   6.881   9.129
 1897POPC   C1A28287  26.780   6.332   8.764
 1897POPC   D2A28288  26.640   6.458   8.379
 1897POPC   C3A28289  26.956   6.642   8.151
 1897POPC   C4A28290  26.846   6.517   7.761
 1897POPC   C1B28291  26.730   6.861   8.739
 1897POPC   C2B28292  26.674   7.048   8.339
 1897POPC   C3B28293  26.629   6.974   7.913
 1897POPC   C4B28294  26.594   6.830   7.463
 1898POPC   NC328295  29.695  31.246   9.497
 1898POPC   PO428296  30.181  31.832   9.588
 1898POPC   GL128297  30.036  31.649   9.216
 1898POPC   GL228298  29.700  31.748   9.271
 1898POPC   C1A28299  29.910  31.592   8.788
 1898POPC   D2A28300  29.924  31.825   8.393
 1898POPC   C3A28301  29.999  31.596   8.018
 1898POPC   C4A28302  30.109  31.201   7.845
 1898POPC   C1B28303  29.423  31.558   8.959
 1898POPC   C2B28304  29.450  31.585   8.534
 1898POPC   C3B28305  29.496  31.705   8.115
 1898POPC   C4B28306  29.584  31.543   7.711
 1899POPC   NC328307  38.681  38.160   9.540
 1899POPC   PO428308  38.027  38.397   9.518
 1899POPC   GL128309  38.386  38.442   9.223
 1899POPC   GL228310  38.642  38.676   9.353
 1899POPC   C1A28311  38.391  38.522   8.783
 1899POPC   D2A28312  38.249  38.700   8.382
 1899POPC   C3A28313  38.392  38.407   8.059
 1899POPC   C4A28314  38.496  38.495   7.646
 1899POPC   C1B28315  38.804  38.793   8.948
 1899POPC   C2B28316  38.730  38.839   8.506
 1899POPC   C3B28317  38.663  38.849   8.079
 1899POPC   C4B28318  38.941  38.789   7.756
 1900POPC   NC328319  17.005  34.535   9.375
 1900POPC   PO428320  16.425  34.216   9.501
 1900POPC   GL128321  16.515  34.466   9.087
 1900POPC   GL228322  16.673  34.787   9.095
 1900POPC   C1A28323  16.507  34.646   8.634
 1900POPC   D2A28324  16.715  34.436   8.311
 1900POPC   C3A28325  16.641  34.602   7.903
 1900POPC   C4A28326  17.025  34.578   7.631
 1900POPC   C1B28327  16.998  34.612   8.745
 1900POPC   C2B28328  17.059  34.799   8.337
 1900POPC   C3B28329  16.967  34.995   7.956
 1900POPC   C4B28330  17.171  35.061   7.573
 1901POPC   NC328331  24.227  44.603   9.592
 1901POPC   PO428332  23.827   0.039   9.201
 1901POPC   GL128333  24.235  44.841   9.131
 1901POPC   GL228334  24.387  44.482   9.138
 1901POPC   C1A28335  24.479  44.828   8.770
 1901POPC   D2A28336  24.370  44.938   8.331
 1901POPC   C3A28337  24.640  44.819   8.012
 1901POPC   C4A28338  24.349  44.842   7.731
 1901POPC   C1B28339  24.620  44.347   8.801
 1901POPC   C2B28340  24.527  44.446   8.387
 1901POPC   C3B28341  24.574  44.256   8.004
 1901POPC   C4B28342  24.931  44.264   7.756
 1902POPC   NC328343  24.054  33.301   9.674
 1902POPC   PO428344  23.765  32.764   9.620
 1902POPC   GL128345  23.616  32.843   9.220
 1902POPC   GL228346  23.536  33.168   9.239
 1902POPC   C1A28347  23.775  32.896   8.816
 1902POPC   D2A28348  23.687  33.152   8.475
 1902POPC   C3A28349  23.806  32.960   8.084
 1902POPC   C4A28350  23.878  33.106   7.660
 1902POPC   C1B28351  23.256  33.114   8.892
 1902POPC   C2B28352  23.144  33.210   8.472
 1902POPC   C3B28353  23.382  33.227   8.051
 1902POPC   C4B28354  23.427  33.336   7.612
 1903POPC   NC328355  43.002   8.219   9.525
 1903POPC   PO428356  43.638   8.142   9.590
 1903POPC   GL128357  43.393   8.114   9.183
 1903POPC   GL228358  43.009   8.056   9.056
 1903POPC   C1A28359  43.364   8.326   8.777
 1903POPC   D2A28360  43.140   8.302   8.392
 1903POPC   C3A28361  43.331   8.285   7.991
 1903POPC   C4A28362  43.146   8.286   7.576
 1903POPC   C1B28363  42.812   7.849   8.688
 1903POPC   C2B28364  42.624   8.084   8.340
 1903POPC   C3B28365  42.743   8.153   7.888
 1903POPC   C4B28366  42.816   7.894   7.479
 1904POPC   NC328367  15.482   5.172   9.500
 1904POPC   PO428368  14.802   5.420   9.418
 1904POPC   GL128369  14.925   5.205   9.025
 1904POPC   GL228370  15.234   5.039   9.073
 1904POPC   C1A28371  15.054   5.091   8.585
 1904POPC   D2A28372  15.086   4.720   8.302
 1904POPC   C3A28373  14.911   4.742   7.939
 1904POPC   C4A28374  14.822   5.127   7.834
 1904POPC   C1B28375  15.567   5.030   8.744
 1904POPC   C2B28376  15.544   5.100   8.301
 1904POPC   C3B28377  15.383   4.928   7.903
 1904POPC   C4B28378  15.131   4.948   7.496
 1905POPC   NC328379  31.598  33.461   9.297
 1905POPC   PO428380  31.500  32.811   9.293
 1905POPC   GL128381  31.361  33.094   9.022
 1905POPC   GL228382  31.118  33.336   9.193
 1905POPC   C1A28383  31.474  33.035   8.599
 1905POPC   D2A28384  31.518  32.844   8.198
 1905POPC   C3A28385  31.339  33.121   7.900
 1905POPC   C4A28386  31.256  33.201   7.463
 1905POPC   C1B28387  31.068  33.424   8.766
 1905POPC   C2B28388  31.148  33.346   8.338
 1905POPC   C3B28389  30.942  33.428   7.948
 1905POPC   C4B28390  30.896  33.539   7.517
 1906POPC   NC328391  28.700  34.518   9.595
 1906POPC   PO428392  29.301  34.764   9.510
 1906POPC   GL128393  29.047  34.533   9.211
 1906POPC   GL228394  29.388  34.527   9.032
 1906POPC   C1A28395  29.020  34.231   8.855
 1906POPC   D2A28396  29.249  34.270   8.484
 1906POPC   C3A28397  29.070  34.200   8.092
 1906POPC   C4A28398  29.304  34.296   7.718
 1906POPC   C1B28399  29.063  34.774   8.779
 1906POPC   C2B28400  28.994  34.930   8.396
 1906POPC   C3B28401  29.205  34.681   8.130
 1906POPC   C4B28402  29.444  34.778   7.779
 1907POPC   NC328403  20.866  35.186   9.487
 1907POPC   PO428404  20.319  35.512   9.393
 1907POPC   GL128405  20.570  35.312   9.115
 1907POPC   GL228406  20.803  35.588   9.136
 1907POPC   C1A28407  20.829  35.241   8.751
 1907POPC   D2A28408  20.634  35.280   8.355
 1907POPC   C3A28409  20.910  35.296   8.028
 1907POPC   C4A28410  20.860  35.073   7.646
 1907POPC   C1B28411  20.561  35.679   8.748
 1907POPC   C2B28412  20.236  35.622   8.437
 1907POPC   C3B28413  20.275  35.546   8.003
 1907POPC   C4B28414  20.630  35.564   7.712
 1908POPC   NC328415  27.456  13.946   9.493
 1908POPC   PO428416  27.649  14.466   9.564
 1908POPC   GL128417  27.496  14.587   9.171
 1908POPC   GL228418  27.414  14.266   9.070
 1908POPC   C1A28419  27.574  14.759   8.730
 1908POPC   D2A28420  27.957  14.813   8.467
 1908POPC   C3A28421  28.029  14.700   8.033
 1908POPC   C4A28422  27.715  14.672   7.689
 1908POPC   C1B28423  27.524  14.270   8.623
 1908POPC   C2B28424  27.580  14.476   8.213
 1908POPC   C3B28425  27.528  14.230   7.821
 1908POPC   C4B28426  27.761  14.048   7.468
 1909POPC   NC328427  19.828   1.765   9.897
 1909POPC   PO428428  19.584   2.073   9.343
 1909POPC   GL128429  19.622   1.983   8.986
 1909POPC   GL228430  19.918   1.927   8.942
 1909POPC   C1A28431  19.540   2.188   8.650
 1909POPC   D2A28432  19.750   2.050   8.343
 1909POPC   C3A28433  19.698   2.256   7.983
 1909POPC   C4A28434  19.746   1.945   7.723
 1909POPC   C1B28435  20.202   1.988   8.682
 1909POPC   C2B28436  20.259   2.086   8.315
 1909POPC   C3B28437  20.203   2.016   7.918
 1909POPC   C4B28438  20.245   2.284   7.549
 1910POPC   NC328439  43.197  10.724   9.702
 1910POPC   PO428440  42.734  10.396   9.388
 1910POPC   GL128441  42.977  10.596   9.111
 1910POPC   GL228442  43.319  10.518   9.213
 1910POPC   C1A28443  43.130  10.408   8.727
 1910POPC   D2A28444  43.009  10.411   8.321
 1910POPC   C3A28445  43.310  10.315   8.032
 1910POPC   C4A28446  43.204  10.534   7.676
 1910POPC   C1B28447  43.380  10.824   8.855
 1910POPC   C2B28448  43.315  10.806   8.395
 1910POPC   C3B28449  43.431  10.908   7.963
 1910POPC   C4B28450  43.473  10.934   7.496
 1911POPC   NC328451  12.507  10.543   9.619
 1911POPC   PO428452  11.819  10.764   9.642
 1911POPC   GL128453  11.812  10.468   9.271
 1911POPC   GL228454  12.132  10.344   9.265
 1911POPC   C1A28455  11.878  10.583   8.827
 1911POPC   D2A28456  11.907  10.806   8.445
 1911POPC   C3A28457  11.756  10.628   8.063
 1911POPC   C4A28458  11.983  10.609   7.657
 1911POPC   C1B28459  12.292  10.255   8.811
 1911POPC   C2B28460  12.212  10.370   8.421
 1911POPC   C3B28461  12.291  10.588   8.060
 1911POPC   C4B28462  12.449  10.438   7.648
 1912POPC   NC328463   6.971   8.462   9.074
 1912POPC   PO428464   6.750   8.061   9.588
 1912POPC   GL128465   6.547   8.194   9.158
 1912POPC   GL228466   6.218   8.356   9.076
 1912POPC   C1A28467   6.509   8.241   8.659
 1912POPC   D2A28468   6.465   8.253   8.179
 1912POPC   C3A28469   6.818   8.168   7.896
 1912POPC   C4A28470   7.009   7.751   7.842
 1912POPC   C1B28471   6.230   8.664   8.696
 1912POPC   C2B28472   6.233   8.738   8.239
 1912POPC   C3B28473   6.473   8.625   7.841
 1912POPC   C4B28474   6.501   8.287   7.502
 1913POPC   NC328475  19.447  34.190   9.435
 1913POPC   PO428476  19.965  33.879   9.543
 1913POPC   GL128477  19.904  33.858   9.128
 1913POPC   GL228478  19.572  33.708   9.225
 1913POPC   C1A28479  19.859  33.608   8.737
 1913POPC   D2A28480  20.051  33.485   8.320
 1913POPC   C3A28481  19.948  33.640   7.872
 1913POPC   C4A28482  19.865  33.832   7.419
 1913POPC   C1B28483  19.504  33.963   8.846
 1913POPC   C2B28484  19.449  33.827   8.464
 1913POPC   C3B28485  19.613  33.956   8.105
 1913POPC   C4B28486  19.469  33.884   7.722
 1914POPC   NC328487  11.640  44.511   9.499
 1914POPC   PO428488  12.273  44.682   9.503
 1914POPC   GL128489  12.072  44.621   9.087
 1914POPC   GL228490  11.811  44.392   9.024
 1914POPC   C1A28491  12.141  44.421   8.655
 1914POPC   D2A28492  11.990  44.415   8.229
 1914POPC   C3A28493  12.293  44.552   7.928
 1914POPC   C4A28494  12.349  44.837   7.607
 1914POPC   C1B28495  11.764  44.760   8.679
 1914POPC   C2B28496  11.739  44.874   8.209
 1914POPC   C3B28497  11.800  44.668   7.768
 1914POPC   C4B28498  11.650  44.414   7.357
 1915POPC   NC328499  43.747   1.203   9.533
 1915POPC   PO428500  44.347   0.901   9.501
 1915POPC   GL128501  44.208   1.045   9.105
 1915POPC   GL228502  43.880   0.972   9.121
 1915POPC   C1A28503  44.024   1.126   8.675
 1915POPC   D2A28504  44.174   0.916   8.300
 1915POPC   C3A28505  44.035   1.111   7.953
 1915POPC   C4A28506  43.979   1.475   7.678
 1915POPC   C1B28507  43.576   0.910   8.821
 1915POPC   C2B28508  43.658   0.867   8.386
 1915POPC   C3B28509  43.579   0.798   7.971
 1915POPC   C4B28510  43.644   1.065   7.596
 1916POPC   NC328511  39.451  37.934   9.879
 1916POPC   PO428512  38.930  37.553   9.843
 1916POPC   GL128513  38.881  37.680   9.356
 1916POPC   GL228514  39.216  37.821   9.290
 1916POPC   C1A28515  39.010  37.524   8.895
 1916POPC   D2A28516  39.361  37.537   8.550
 1916POPC   C3A28517  39.298  37.501   8.072
 1916POPC   C4A28518  39.226  37.308   7.641
 1916POPC   C1B28519  39.240  37.995   8.875
 1916POPC   C2B28520  39.120  37.969   8.448
 1916POPC   C3B28521  38.935  37.880   8.054
 1916POPC   C4B28522  38.783  37.541   7.802
 1917POPC   NC328523  16.712  27.189   9.467
 1917POPC   PO428524  16.906  26.523   9.620
 1917POPC   GL128525  16.758  26.714   9.242
 1917POPC   GL228526  17.004  26.938   9.112
 1917POPC   C1A28527  16.564  26.808   8.827
 1917POPC   D2A28528  16.547  26.568   8.425
 1917POPC   C3A28529  16.688  26.788   8.043
 1917POPC   C4A28530  16.559  27.180   7.865
 1917POPC   C1B28531  16.911  27.200   8.738
 1917POPC   C2B28532  16.834  27.295   8.287
 1917POPC   C3B28533  17.086  27.132   7.918
 1917POPC   C4B28534  17.020  26.847   7.569
 1918POPC   NC328535  18.462  31.828   9.731
 1918POPC   PO428536  18.266  32.412   9.444
 1918POPC   GL128537  18.201  32.246   9.028
 1918POPC   GL228538  18.038  31.925   8.937
 1918POPC   C1A28539  18.214  32.267   8.583
 1918POPC   D2A28540  17.942  32.488   8.312
 1918POPC   C3A28541  18.053  32.428   7.912
 1918POPC   C4A28542  18.379  32.622   7.799
 1918POPC   C1B28543  18.310  31.723   8.655
 1918POPC   C2B28544  18.596  31.957   8.419
 1918POPC   C3B28545  18.502  32.102   8.010
 1918POPC   C4B28546  18.287  31.934   7.645
 1919POPC   NC328547  28.657   3.965   9.605
 1919POPC   PO428548  28.218   3.371   9.651
 1919POPC   GL128549  28.299   3.529   9.243
 1919POPC   GL228550  28.027   3.551   9.053
 1919POPC   C1A28551  28.412   3.424   8.783
 1919POPC   D2A28552  28.199   3.488   8.399
 1919POPC   C3A28553  28.499   3.487   8.091
 1919POPC   C4A28554  28.474   3.575   7.669
 1919POPC   C1B28555  27.975   3.886   8.791
 1919POPC   C2B28556  27.968   4.044   8.384
 1919POPC   C3B28557  28.133   3.851   8.034
 1919POPC   C4B28558  27.983   3.794   7.620
 1920POPC   NC328559  44.308  43.283   9.720
 1920POPC   PO428560  44.898  42.916   9.637
 1920POPC   GL128561  44.678  43.121   9.297
 1920POPC   GL228562  44.336  43.039   9.271
 1920POPC   C1A28563  44.634  43.230   8.848
 1920POPC   D2A28564  44.890  43.195   8.465
 1920POPC   C3A28565  44.823  43.234   8.023
 1920POPC   C4A28566  44.874  42.812   7.865
 1920POPC   C1B28567  44.341  42.791   8.915
 1920POPC   C2B28568  44.351  42.969   8.496
 1920POPC   C3B28569  44.425  42.934   8.084
 1920POPC   C4B28570  44.397  42.682   7.712
 1921POPC   NC328571   4.921   0.233   9.740
 1921POPC   PO428572   5.085   0.686   9.292
 1921POPC   GL128573   4.834   0.860   8.982
 1921POPC   GL228574   4.940   0.556   8.802
 1921POPC   C1A28575   4.752   0.941   8.523
 1921POPC   D2A28576   4.967   0.786   8.151
 1921POPC   C3A28577   5.402   0.578   8.206
 1921POPC   C4A28578   5.532   0.247   7.901
 1921POPC   C1B28579   5.312   0.300   8.675
 1921POPC   C2B28580   5.256   0.071   8.310
 1921POPC   C3B28581   5.004   0.286   8.013
 1921POPC   C4B28582   4.820   0.477   7.678
 1922POPC   NC328583  39.743  43.541   9.386
 1922POPC   PO428584  39.965  44.148   9.842
 1922POPC   GL128585  40.051  44.178   9.278
 1922POPC   GL228586  40.203  43.884   9.231
 1922POPC   C1A28587  39.883  43.969   8.859
 1922POPC   D2A28588  40.125  43.966   8.483
 1922POPC   C3A28589  39.844  43.893   8.153
 1922POPC   C4A28590  39.667  43.874   7.738
 1922POPC   C1B28591  40.200  43.555   8.889
 1922POPC   C2B28592  40.402  43.450   8.492
 1922POPC   C3B28593  40.283  43.608   8.118
 1922POPC   C4B28594  40.200  43.897   7.798
 1923POPC   NC328595  44.037  13.709   9.465
 1923POPC   PO428596  43.505  13.492   9.593
 1923POPC   GL128597  43.627  13.526   9.176
 1923POPC   GL228598  43.874  13.264   9.154
 1923POPC   C1A28599  43.784  13.729   8.792
 1923POPC   D2A28600  43.886  13.695   8.345
 1923POPC   C3A28601  43.635  13.542   8.027
 1923POPC   C4A28602  43.669  13.525   7.561
 1923POPC   C1B28603  43.999  13.283   8.664
 1923POPC   C2B28604  44.050  13.226   8.183
 1923POPC   C3B28605  44.117  13.557   7.875
 1923POPC   C4B28606  43.878  13.944   7.809
 1924POPC   NC328607  33.055   4.027   9.434
 1924POPC   PO428608  33.238   4.691   9.542
 1924POPC   GL128609  33.093   4.464   9.163
 1924POPC   GL228610  32.813   4.225   9.048
 1924POPC   C1A28611  32.951   4.607   8.760
 1924POPC   D2A28612  32.715   4.391   8.448
 1924POPC   C3A28613  32.807   4.419   8.023
 1924POPC   C4A28614  32.538   4.225   7.657
 1924POPC   C1B28615  33.078   4.108   8.689
 1924POPC   C2B28616  33.077   3.996   8.221
 1924POPC   C3B28617  32.991   4.042   7.774
 1924POPC   C4B28618  33.257   4.063   7.429
 1925POPC   NC328619  39.630   8.653   9.394
 1925POPC   PO428620  40.111   9.054   9.771
 1925POPC   GL128621  40.074   8.934   9.311
 1925POPC   GL228622  40.250   8.613   9.251
 1925POPC   C1A28623  39.917   8.954   8.851
 1925POPC   D2A28624  39.721   9.062   8.431
 1925POPC   C3A28625  39.959   8.984   8.053
 1925POPC   C4A28626  39.750   8.783   7.746
 1925POPC   C1B28627  40.277   8.590   8.790
 1925POPC   C2B28628  40.078   8.587   8.365
 1925POPC   C3B28629  40.311   8.616   7.958
 1925POPC   C4B28630  40.426   8.441   7.566
 1926POPC   NC328631  41.891   9.742   9.481
 1926POPC   PO428632  42.511   9.465   9.439
 1926POPC   GL128633  42.301   9.702   9.143
 1926POPC   GL228634  42.623   9.624   8.960
 1926POPC   C1A28635  42.234   9.825   8.738
 1926POPC   D2A28636  42.443   9.764   8.372
 1926POPC   C3A28637  42.138   9.828   8.097
 1926POPC   C4A28638  42.011   9.930   7.701
 1926POPC   C1B28639  42.842   9.480   8.569
 1926POPC   C2B28640  42.868   9.505   8.088
 1926POPC   C3B28641  42.637   9.640   7.691
 1926POPC   C4B28642  42.486   9.375   7.330
 1927POPC   NC328643   4.690   6.256   9.639
 1927POPC   PO428644   4.079   6.058   9.829
 1927POPC   GL128645   4.112   6.005   9.327
 1927POPC   GL228646   4.077   5.630   9.215
 1927POPC   C1A28647   4.402   5.982   8.936
 1927POPC   D2A28648   4.590   5.764   8.559
 1927POPC   C3A28649   4.462   5.879   8.138
 1927POPC   C4A28650   4.380   5.678   7.771
 1927POPC   C1B28651   3.920   5.815   8.860
 1927POPC   C2B28652   4.088   5.896   8.482
 1927POPC   C3B28653   3.951   5.885   8.050
 1927POPC   C4B28654   3.905   5.703   7.629
 1928POPC   NC328655  19.891   1.721   9.393
 1928POPC   PO428656  19.619   1.064   9.471
 1928POPC   GL128657  19.624   1.368   9.142
 1928POPC   GL228658  19.952   1.224   9.070
 1928POPC   C1A28659  19.702   1.518   8.719
 1928POPC   D2A28660  19.946   1.244   8.456
 1928POPC   C3A28661  19.859   1.186   8.006
 1928POPC   C4A28662  19.919   1.076   7.570
 1928POPC   C1B28663  20.221   1.503   8.834
 1928POPC   C2B28664  20.349   1.576   8.389
 1928POPC   C3B28665  20.267   1.458   7.920
 1928POPC   C4B28666  20.383   1.293   7.484
 1929POPC   NC328667  34.998   9.285   9.372
 1929POPC   PO428668  34.386   9.025   9.448
 1929POPC   GL128669  34.477   9.051   9.051
 1929POPC   GL228670  34.798   8.895   9.050
 1929POPC   C1A28671  34.386   9.348   8.736
 1929POPC   D2A28672  34.512   9.442   8.350
 1929POPC   C3A28673  34.784   9.196   8.133
 1929POPC   C4A28674  34.601   9.127   7.763
 1929POPC   C1B28675  34.844   9.135   8.682
 1929POPC   C2B28676  34.510   8.914   8.505
 1929POPC   C3B28677  34.426   8.576   8.264
 1929POPC   C4B28678  34.532   8.599   7.845
 1930POPC   NC328679  28.301   7.167   9.642
 1930POPC   PO428680  28.081   7.682   9.433
 1930POPC   GL128681  28.252   7.333   9.161
 1930POPC   GL228682  28.612   7.187   9.187
 1930POPC   C1A28683  28.156   7.213   8.745
 1930POPC   D2A28684  28.361   7.105   8.365
 1930POPC   C3A28685  28.109   7.251   8.032
 1930POPC   C4A28686  28.112   7.422   7.608
 1930POPC   C1B28687  28.630   7.462   8.795
 1930POPC   C2B28688  28.528   7.601   8.381
 1930POPC   C3B28689  28.607   7.441   7.972
 1930POPC   C4B28690  28.475   7.056   7.761
 1931POPC   NC328691  14.528  21.858   9.640
 1931POPC   PO428692  14.156  22.356   9.299
 1931POPC   GL128693  14.454  22.074   9.163
 1931POPC   GL228694  14.164  21.905   9.058
 1931POPC   C1A28695  14.626  21.977   8.760
 1931POPC   D2A28696  14.613  21.770   8.374
 1931POPC   C3A28697  14.306  21.906   8.126
 1931POPC   C4A28698  14.374  22.080   7.743
 1931POPC   C1B28699  14.134  22.105   8.639
 1931POPC   C2B28700  14.208  22.384   8.268
 1931POPC   C3B28701  13.972  22.353   7.893
 1931POPC   C4B28702  14.112  22.445   7.473
 1932POPC   NC328703  14.405   8.893   9.569
 1932POPC   PO428704  14.658   9.471   9.483
 1932POPC   GL128705  14.602   9.177   9.134
 1932POPC   GL228706  14.295   8.961   9.094
 1932POPC   C1A28707  14.590   9.009   8.700
 1932POPC   D2A28708  14.577   9.158   8.303
 1932POPC   C3A28709  14.548   8.874   7.977
 1932POPC   C4A28710  14.452   8.942   7.573
 1932POPC   C1B28711  14.211   9.321   8.834
 1932POPC   C2B28712  14.194   9.469   8.447
 1932POPC   C3B28713  14.139   9.275   8.045
 1932POPC   C4B28714  14.060   9.248   7.593
 1933POPC   NC328715  14.034  31.800   9.424
 1933POPC   PO428716  13.621  31.330   9.488
 1933POPC   GL128717  13.516  31.424   9.097
 1933POPC   GL228718  13.845  31.513   9.029
 1933POPC   C1A28719  13.435  31.462   8.674
 1933POPC   D2A28720  13.606  31.577   8.285
 1933POPC   C3A28721  13.316  31.459   7.967
 1933POPC   C4A28722  13.446  31.235   7.605
 1933POPC   C1B28723  14.098  31.309   8.756
 1933POPC   C2B28724  14.000  31.172   8.349
 1933POPC   C3B28725  13.803  31.183   7.960
 1933POPC   C4B28726  14.001  31.288   7.568
 1934POPC   NC328727  29.504  17.319   9.468
 1934POPC   PO428728  30.155  17.075   9.517
 1934POPC   GL128729  30.044  17.378   9.178
 1934POPC   GL228730  29.727  17.560   9.071
 1934POPC   C1A28731  30.163  17.534   8.759
 1934POPC   D2A28732  30.276  17.369   8.365
 1934POPC   C3A28733  30.149  17.603   8.036
 1934POPC   C4A28734  29.782  17.795   7.893
 1934POPC   C1B28735  29.757  17.203   8.774
 1934POPC   C2B28736  29.845  17.062   8.363
 1934POPC   C3B28737  29.815  17.214   7.928
 1934POPC   C4B28738  29.675  17.431   7.545
 1935POPC   NC328739   4.738  37.462   9.512
 1935POPC   PO428740   5.148  37.912   9.739
 1935POPC   GL128741   5.120  37.990   9.298
 1935POPC   GL228742   5.289  37.718   9.121
 1935POPC   C1A28743   4.994  38.068   8.858
 1935POPC   D2A28744   5.199  37.899   8.478
 1935POPC   C3A28745   5.119  37.836   8.016
 1935POPC   C4A28746   5.443  37.837   7.673
 1935POPC   C1B28747   5.347  37.450   8.735
 1935POPC   C2B28748   5.216  37.382   8.304
 1935POPC   C3B28749   5.335  37.393   7.885
 1935POPC   C4B28750   4.947  37.457   7.671
 1936POPC   NC328751  25.903  17.856   9.443
 1936POPC   PO428752  26.256  17.260   9.550
 1936POPC   GL128753  25.974  17.338   9.219
 1936POPC   GL228754  25.936  17.635   9.007
 1936POPC   C1A28755  25.919  17.203   8.787
 1936POPC   D2A28756  26.021  17.520   8.500
 1936POPC   C3A28757  25.983  17.504   8.085
 1936POPC   C4A28758  25.947  17.303   7.719
 1936POPC   C1B28759  25.583  17.653   8.717
 1936POPC   C2B28760  25.636  17.838   8.281
 1936POPC   C3B28761  25.546  17.765   7.837
 1936POPC   C4B28762  25.658  17.620   7.416
 1937POPC   NC328763  11.827  19.316   9.365
 1937POPC   PO428764  12.199  18.828   9.626
 1937POPC   GL128765  12.228  19.023   9.194
 1937POPC   GL228766  11.925  19.048   8.961
 1937POPC   C1A28767  12.347  19.222   8.792
 1937POPC   D2A28768  12.088  19.066   8.456
 1937POPC   C3A28769  12.323  19.052   8.089
 1937POPC   C4A28770  12.158  19.148   7.702
 1937POPC   C1B28771  11.737  18.755   8.726
 1937POPC   C2B28772  11.831  18.579   8.347
 1937POPC   C3B28773  11.934  18.728   7.961
 1937POPC   C4B28774  11.663  18.886   7.678
 1938POPC   NC328775   7.352  21.253   9.564
 1938POPC   PO428776   7.713  20.808   9.351
 1938POPC   GL128777   7.642  21.134   9.080
 1938POPC   GL228778   7.527  21.477   9.118
 1938POPC   C1A28779   7.463  21.133   8.670
 1938POPC   D2A28780   7.556  21.347   8.325
 1938POPC   C3A28781   7.359  21.252   7.995
 1938POPC   C4A28782   7.686  21.406   7.753
 1938POPC   C1B28783   7.383  21.629   8.710
 1938POPC   C2B28784   7.052  21.449   8.406
 1938POPC   C3B28785   6.921  21.509   7.949
 1938POPC   C4B28786   7.205  21.504   7.563
 1939POPC   NC328787  29.697  39.868   9.382
 1939POPC   PO428788  30.149  40.194   9.409
 1939POPC   GL128789  30.112  39.856   9.075
 1939POPC   GL228790  29.790  39.856   8.890
 1939POPC   C1A28791  30.246  39.684   8.694
 1939POPC   D2A28792  29.941  39.807   8.408
 1939POPC   C3A28793  30.034  39.795   8.029
 1939POPC   C4A28794  30.184  40.168   7.844
 1939POPC   C1B28795  29.456  39.718   8.585
 1939POPC   C2B28796  29.516  39.633   8.157
 1939POPC   C3B28797  29.593  39.790   7.749
 1939POPC   C4B28798  29.504  39.871   7.320
 1940POPC   NC328799  10.039  12.484   9.711
 1940POPC   PO428800   9.657  11.977   9.434
 1940POPC   GL128801   9.605  11.961   9.018
 1940POPC   GL228802   9.728  11.681   9.001
 1940POPC   C1A28803   9.585  12.235   8.617
 1940POPC   D2A28804   9.813  12.114   8.239
 1940POPC   C3A28805   9.758  12.317   7.845
 1940POPC   C4A28806   9.739  12.161   7.372
 1940POPC   C1B28807   9.552  11.730   8.580
 1940POPC   C2B28808   9.893  11.605   8.340
 1940POPC   C3B28809  10.029  11.721   7.946
 1940POPC   C4B28810   9.661  11.829   7.750
 1941POPC   NC328811  24.391  42.983   9.521
 1941POPC   PO428812  24.827  43.538   9.572
 1941POPC   GL128813  24.660  43.374   9.142
 1941POPC   GL228814  24.310  43.207   9.062
 1941POPC   C1A28815  24.577  43.406   8.673
 1941POPC   D2A28816  24.387  43.161   8.325
 1941POPC   C3A28817  24.616  43.267   7.947
 1941POPC   C4A28818  24.564  43.215   7.508
 1941POPC   C1B28819  24.543  42.896   8.787
 1941POPC   C2B28820  24.748  42.793   8.391
 1941POPC   C3B28821  24.568  42.714   8.007
 1941POPC   C4B28822  24.247  42.951   7.812
 1942POPC   NC328823  31.440   2.567   9.386
 1942POPC   PO428824  31.620   1.901   9.565
 1942POPC   GL128825  31.543   1.920   9.116
 1942POPC   GL228826  31.836   1.704   9.036
 1942POPC   C1A28827  31.294   2.105   8.737
 1942POPC   D2A28828  31.251   2.381   8.338
 1942POPC   C3A28829  31.323   2.136   7.945
 1942POPC   C4A28830  31.544   2.064   7.532
 1942POPC   C1B28831  31.739   1.838   8.635
 1942POPC   C2B28832  31.427   1.807   8.311
 1942POPC   C3B28833  31.515   1.668   7.866
 1942POPC   C4B28834  31.800   1.591   7.486
 1943POPC   NC328835  38.867  44.463   9.394
 1943POPC   PO428836  38.387  44.977   9.451
 1943POPC   GL128837  38.412  44.861   9.050
 1943POPC   GL228838  38.751  44.840   9.109
 1943POPC   C1A28839  38.138  44.702   8.746
 1943POPC   D2A28840  38.236  44.531   8.374
 1943POPC   C3A28841  38.022  44.669   8.052
 1943POPC   C4A28842  38.197  44.658   7.673
 1943POPC   C1B28843  38.982  44.684   8.775
 1943POPC   C2B28844  38.920  44.415   8.454
 1943POPC   C3B28845  38.758  44.584   8.093
 1943POPC   C4B28846  38.680  44.505   7.650
 1944POPC   NC328847  17.539   7.498   9.437
 1944POPC   PO428848  17.855   6.948   9.141
 1944POPC   GL128849  17.675   7.368   8.976
 1944POPC   GL228850  17.257   7.412   9.011
 1944POPC   C1A28851  17.492   7.773   8.744
 1944POPC   D2A28852  17.257   7.756   8.348
 1944POPC   C3A28853  17.436   7.468   8.094
 1944POPC   C4A28854  17.393   7.286   7.735
 1944POPC   C1B28855  17.409   7.304   8.571
 1944POPC   C2B28856  17.810   7.217   8.402
 1944POPC   C3B28857  17.838   6.983   8.042
 1944POPC   C4B28858  17.531   6.808   7.759
 1945POPC   NC328859   9.135   6.333   9.224
 1945POPC   PO428860   9.175   6.042   9.769
 1945POPC   GL128861   9.075   5.831   9.306
 1945POPC   GL228862   8.752   5.967   9.165
 1945POPC   C1A28863   9.074   5.794   8.812
 1945POPC   D2A28864   9.213   5.936   8.383
 1945POPC   C3A28865   9.074   5.713   8.010
 1945POPC   C4A28866   9.009   5.965   7.659
 1945POPC   C1B28867   8.586   5.969   8.771
 1945POPC   C2B28868   8.713   5.836   8.394
 1945POPC   C3B28869   8.682   6.059   8.040
 1945POPC   C4B28870   8.474   5.939   7.676
 1946POPC   NC328871  21.161  41.132   9.459
 1946POPC   PO428872  21.680  41.533   9.605
 1946POPC   GL128873  21.559  41.620   9.154
 1946POPC   GL228874  21.518  41.308   8.970
 1946POPC   C1A28875  21.369  41.851   8.800
 1946POPC   D2A28876  21.220  41.809   8.366
 1946POPC   C3A28877  21.561  41.847   8.084
 1946POPC   C4A28878  21.499  41.935   7.682
 1946POPC   C1B28879  21.557  41.480   8.529
 1946POPC   C2B28880  21.443  41.365   8.122
 1946POPC   C3B28881  21.230  41.506   7.792
 1946POPC   C4B28882  21.033  41.341   7.450
 1947POPC   NC328883  33.232  27.418   9.556
 1947POPC   PO428884  32.840  27.961   9.466
 1947POPC   GL128885  33.125  27.779   9.200
 1947POPC   GL228886  32.888  27.504   9.155
 1947POPC   C1A28887  33.241  27.648   8.791
 1947POPC   D2A28888  32.994  27.520   8.445
 1947POPC   C3A28889  33.185  27.494   8.031
 1947POPC   C4A28890  32.997  27.681   7.679
 1947POPC   C1B28891  32.618  27.390   8.805
 1947POPC   C2B28892  32.484  27.450   8.370
 1947POPC   C3B28893  32.652  27.373   7.951
 1947POPC   C4B28894  32.771  27.006   7.748
 1948POPC   NC328895   9.811  35.658   9.491
 1948POPC   PO428896   9.262  35.287   9.627
 1948POPC   GL128897   9.500  35.206   9.174
 1948POPC   GL228898   9.742  35.453   9.030
 1948POPC   C1A28899   9.602  34.882   8.840
 1948POPC   D2A28900   9.903  34.834   8.462
 1948POPC   C3A28901   9.949  35.228   8.189
 1948POPC   C4A28902   9.735  35.308   7.770
 1948POPC   C1B28903   9.652  35.341   8.608
 1948POPC   C2B28904   9.487  35.446   8.197
 1948POPC   C3B28905   9.414  35.718   7.874
 1948POPC   C4B28906   9.425  35.750   7.431
 1949POPC   NC328907  38.539  11.627   9.413
 1949POPC   PO428908  38.516  12.340   9.499
 1949POPC   GL128909  38.380  12.053   9.177
 1949POPC   GL228910  38.099  11.798   9.196
 1949POPC   C1A28911  38.431  12.090   8.762
 1949POPC   D2A28912  38.270  12.121   8.350
 1949POPC   C3A28913  38.575  12.047   8.068
 1949POPC   C4A28914  38.380  12.040   7.710
 1949POPC   C1B28915  38.197  11.654   8.785
 1949POPC   C2B28916  38.303  11.602   8.366
 1949POPC   C3B28917  38.106  11.720   7.991
 1949POPC   C4B28918  38.214  11.609   7.543
 1950POPC   NC328919  15.749  23.331   9.574
 1950POPC   PO428920  15.932  23.978   9.494
 1950POPC   GL128921  15.779  23.705   9.210
 1950POPC   GL228922  16.115  23.565   9.207
 1950POPC   C1A28923  15.824  23.712   8.772
 1950POPC   D2A28924  16.016  23.713   8.370
 1950POPC   C3A28925  15.784  23.825   8.028
 1950POPC   C4A28926  15.710  23.549   7.723
 1950POPC   C1B28927  16.300  23.461   8.806
 1950POPC   C2B28928  16.463  23.457   8.369
 1950POPC   C3B28929  16.431  23.335   7.912
 1950POPC   C4B28930  16.262  23.272   7.442
 1951POPC   NC328931  14.061  10.644   9.320
 1951POPC   PO428932  13.353  10.716   9.513
 1951POPC   GL128933  13.524  10.483   9.143
 1951POPC   GL228934  13.638  10.792   9.077
 1951POPC   C1A28935  13.804  10.440   8.734
 1951POPC   D2A28936  14.032  10.390   8.339
 1951POPC   C3A28937  13.814  10.576   7.972
 1951POPC   C4A28938  13.465  10.503   7.752
 1951POPC   C1B28939  13.296  10.824   8.778
 1951POPC   C2B28940  13.153  10.797   8.343
 1951POPC   C3B28941  13.172  10.883   7.904
 1951POPC   C4B28942  13.212  10.858   7.436
 1952POPC   NC328943  38.579  10.099   9.633
 1952POPC   PO428944  38.192   9.665   9.389
 1952POPC   GL128945  38.263   9.806   9.027
 1952POPC   GL228946  38.533   9.983   9.142
 1952POPC   C1A28947  38.331   9.656   8.622
 1952POPC   D2A28948  38.444   9.508   8.239
 1952POPC   C3A28949  38.532   9.607   7.858
 1952POPC   C4A28950  38.200   9.902   7.780
 1952POPC   C1B28951  38.702  10.004   8.766
 1952POPC   C2B28952  38.769   9.955   8.339
 1952POPC   C3B28953  38.653  10.092   7.945
 1952POPC   C4B28954  38.596  10.020   7.503
 1953POPC   NC328955  12.026   7.973   9.470
 1953POPC   PO428956  12.339   8.578   9.322
 1953POPC   GL128957  12.053   8.298   9.108
 1953POPC   GL228958  12.286   8.063   8.990
 1953POPC   C1A28959  11.819   7.979   8.823
 1953POPC   D2A28960  11.913   7.694   8.473
 1953POPC   C3A28961  11.966   7.975   8.119
 1953POPC   C4A28962  12.177   8.110   7.734
 1953POPC   C1B28963  12.094   8.356   8.632
 1953POPC   C2B28964  11.786   8.401   8.342
 1953POPC   C3B28965  11.817   8.462   7.921
 1953POPC   C4B28966  11.852   8.839   7.685
 1954POPC   NC328967  22.100   8.919   9.725
 1954POPC   PO428968  22.242   9.568   9.571
 1954POPC   GL128969  21.991   9.164   9.283
 1954POPC   GL228970  21.992   8.739   9.246
 1954POPC   C1A28971  21.980   9.110   8.805
 1954POPC   D2A28972  22.089   9.386   8.427
 1954POPC   C3A28973  22.077   9.243   7.991
 1954POPC   C4A28974  22.345   8.966   7.717
 1954POPC   C1B28975  21.718   8.663   8.870
 1954POPC   C2B28976  21.843   8.737   8.451
 1954POPC   C3B28977  22.072   8.720   8.064
 1954POPC   C4B28978  21.963   8.635   7.639
 1955POPC   NC328979  13.810   2.941   9.374
 1955POPC   PO428980  13.361   2.411   9.515
 1955POPC   GL128981  13.443   2.638   9.174
 1955POPC   GL228982  13.781   2.550   9.048
 1955POPC   C1A28983  13.395   2.785   8.785
 1955POPC   D2A28984  13.619   2.616   8.460
 1955POPC   C3A28985  13.378   2.656   8.133
 1955POPC   C4A28986  13.215   2.691   7.756
 1955POPC   C1B28987  13.907   2.920   8.750
 1955POPC   C2B28988  14.090   2.859   8.375
 1955POPC   C3B28989  13.886   2.807   7.998
 1955POPC   C4B28990  13.991   3.144   7.728
 1956POPC   NC328991  17.188  23.846   9.420
 1956POPC   PO428992  17.844  23.623   9.408
 1956POPC   GL128993  17.633  23.423   9.078
 1956POPC   GL228994  17.515  23.751   9.031
 1956POPC   C1A28995  17.509  23.490   8.612
 1956POPC   D2A28996  17.509  23.799   8.308
 1956POPC   C3A28997  17.388  23.553   7.996
 1956POPC   C4A28998  17.594  23.332   7.690
 1956POPC   C1B28999  17.210  23.901   8.740
 1956POPC   C2B29000  17.046  24.080   8.343
 1956POPC   C3B29001  17.196  24.029   7.909
 1956POPC   C4B29002  17.057  23.944   7.480
 1957POPC   NC329003   6.512  39.228   9.492
 1957POPC   PO429004   7.057  39.578   9.592
 1957POPC   GL129005   6.944  39.290   9.209
 1957POPC   GL229006   6.597  39.367   9.017
 1957POPC   C1A29007   6.940  39.087   8.781
 1957POPC   D2A29008   6.709  39.300   8.436
 1957POPC   C3A29009   6.793  39.191   7.996
 1957POPC   C4A29010   7.034  39.472   7.697
 1957POPC   C1B29011   6.357  39.056   8.754
 1957POPC   C2B29012   6.374  38.934   8.301
 1957POPC   C3B29013   6.287  39.257   8.007
 1957POPC   C4B29014   6.471  39.413   7.679
 1958POPC   NC329015  42.688  42.925   9.555
 1958POPC   PO429016  42.010  42.727   9.441
 1958POPC   GL129017  42.176  42.473   9.092
 1958POPC   GL229018  42.422  42.225   9.146
 1958POPC   C1A29019  42.327  42.527   8.706
 1958POPC   D2A29020  42.253  42.331   8.331
 1958POPC   C3A29021  42.083  42.382   7.892
 1958POPC   C4A29022  42.390  42.545   7.593
 1958POPC   C1B29023  42.270  42.005   8.768
 1958POPC   C2B29024  42.271  41.823   8.352
 1958POPC   C3B29025  42.405  42.005   7.977
 1958POPC   C4B29026  42.333  42.048   7.559
 1959POPC   NC329027  12.252  31.711   9.628
 1959POPC   PO429028  11.866  31.214   9.698
 1959POPC   GL129029  12.059  31.309   9.260
 1959POPC   GL229030  12.265  31.612   9.134
 1959POPC   C1A29031  12.090  31.266   8.797
 1959POPC   D2A29032  11.908  31.266   8.387
 1959POPC   C3A29033  12.156  31.415   8.008
 1959POPC   C4A29034  12.433  31.156   7.784
 1959POPC   C1B29035  12.067  31.791   8.784
 1959POPC   C2B29036  12.080  31.791   8.368
 1959POPC   C3B29037  11.873  31.990   8.055
 1959POPC   C4B29038  11.902  31.818   7.669
 1960POPC   NC329039  28.153  38.280   9.446
 1960POPC   PO429040  28.710  38.400   9.469
 1960POPC   GL129041  28.522  38.408   9.069
 1960POPC   GL229042  28.308  38.117   8.986
 1960POPC   C1A29043  28.295  38.575   8.690
 1960POPC   D2A29044  28.111  38.498   8.249
 1960POPC   C3A29045  28.225  38.451   7.782
 1960POPC   C4A29046  28.237  38.088   7.501
 1960POPC   C1B29047  28.590  38.164   8.623
 1960POPC   C2B29048  28.685  38.520   8.364
 1960POPC   C3B29049  28.691  38.544   7.960
 1960POPC   C4B29050  28.705  38.199   7.669
 1961POPC   NC329051  21.877   8.318   9.639
 1961POPC   PO429052  22.441   8.594   9.678
 1961POPC   GL129053  22.492   8.296   9.266
 1961POPC   GL229054  22.175   8.117   9.246
 1961POPC   C1A29055  22.430   8.133   8.813
 1961POPC   D2A29056  22.199   8.331   8.424
 1961POPC   C3A29057  22.261   8.132   8.002
 1961POPC   C4A29058  22.409   8.401   7.666
 1961POPC   C1B29059  21.942   8.207   8.851
 1961POPC   C2B29060  21.653   8.261   8.499
 1961POPC   C3B29061  21.783   8.317   8.088
 1961POPC   C4B29062  21.861   8.152   7.681
 1962POPC   NC329063  35.049  10.052   9.475
 1962POPC   PO429064  35.396   9.434   9.572
 1962POPC   GL129065  35.332   9.648   9.187
 1962POPC   GL229066  35.464   9.996   9.164
 1962POPC   C1A29067  35.294   9.549   8.756
 1962POPC   D2A29068  35.024   9.544   8.422
 1962POPC   C3A29069  35.193   9.518   8.056
 1962POPC   C4A29070  35.407   9.563   7.722
 1962POPC   C1B29071  35.202  10.053   8.788
 1962POPC   C2B29072  35.353   9.941   8.378
 1962POPC   C3B29073  35.332  10.016   7.962
 1962POPC   C4B29074  35.514  10.023   7.538
 1963POPC   NC329075   9.849  23.872   9.577
 1963POPC   PO429076   9.659  23.296   9.292
 1963POPC   GL129077   9.625  23.710   9.129
 1963POPC   GL229078   9.959  23.807   9.093
 1963POPC   C1A29079   9.630  23.751   8.684
 1963POPC   D2A29080   9.702  23.448   8.362
 1963POPC   C3A29081   9.655  23.668   8.002
 1963POPC   C4A29082   9.500  23.598   7.621
 1963POPC   C1B29083  10.051  23.455   8.789
 1963POPC   C2B29084  10.188  23.295   8.386
 1963POPC   C3B29085  10.207  23.464   7.984
 1963POPC   C4B29086  10.080  23.823   7.766
 1964POPC   NC329087   8.571  43.846   9.368
 1964POPC   PO429088   7.981  43.411   9.397
 1964POPC   GL129089   8.078  43.553   8.999
 1964POPC   GL229090   8.244  43.869   8.917
 1964POPC   C1A29091   8.308  43.464   8.614
 1964POPC   D2A29092   8.331  43.790   8.313
 1964POPC   C3A29093   8.086  43.693   7.972
 1964POPC   C4A29094   7.846  43.780   7.612
 1964POPC   C1B29095   8.462  44.215   8.727
 1964POPC   C2B29096   8.820  44.228   8.476
 1964POPC   C3B29097   8.650  44.149   8.133
 1964POPC   C4B29098   8.326  44.096   7.798
 1965POPC   NC329099  39.784  23.091   9.443
 1965POPC   PO429100  40.009  22.457   9.431
 1965POPC   GL129101  40.101  22.841   9.121
 1965POPC   GL229102  39.846  23.104   8.952
 1965POPC   C1A29103  40.262  22.944   8.711
 1965POPC   D2A29104  40.194  22.629   8.411
 1965POPC   C3A29105  39.957  22.735   8.109
 1965POPC   C4A29106  40.060  22.956   7.756
 1965POPC   C1B29107  39.738  22.811   8.641
 1965POPC   C2B29108  39.496  22.650   8.322
 1965POPC   C3B29109  39.518  22.889   7.939
 1965POPC   C4B29110  39.731  23.291   7.944
 1966POPC   NC329111  11.531  42.820   9.439
 1966POPC   PO429112  11.420  43.492   9.546
 1966POPC   GL129113  11.222  43.331   9.183
 1966POPC   GL229114  11.206  42.977   9.080
 1966POPC   C1A29115  11.333  43.358   8.757
 1966POPC   D2A29116  11.129  43.406   8.397
 1966POPC   C3A29117  11.314  43.303   8.029
 1966POPC   C4A29118  11.060  43.182   7.697
 1966POPC   C1B29119  11.038  42.691   8.779
 1966POPC   C2B29120  10.920  42.562   8.373
 1966POPC   C3B29121  11.068  42.848   8.084
 1966POPC   C4B29122  11.303  42.721   7.707
 1967POPC   NC329123   1.126  28.898   9.783
 1967POPC   PO429124   1.008  29.496   9.490
 1967POPC   GL129125   1.104  29.307   9.144
 1967POPC   GL229126   1.099  28.958   9.245
 1967POPC   C1A29127   1.195  29.259   8.724
 1967POPC   D2A29128   0.961  28.974   8.471
 1967POPC   C3A29129   0.929  29.119   8.079
 1967POPC   C4A29130   1.285  29.208   7.821
 1967POPC   C1B29131   1.283  28.763   8.858
 1967POPC   C2B29132   1.310  28.535   8.456
 1967POPC   C3B29133   1.259  28.685   7.990
 1967POPC   C4B29134   1.424  28.741   7.544
 1968POPC   NC329135  42.584  40.890   9.315
 1968POPC   PO429136  43.074  40.776   9.800
 1968POPC   GL129137  43.158  40.788   9.295
 1968POPC   GL229138  43.472  40.932   9.136
 1968POPC   C1A29139  43.070  40.876   8.825
 1968POPC   D2A29140  43.299  40.816   8.473
 1968POPC   C3A29141  43.256  40.511   8.171
 1968POPC   C4A29142  43.321  40.491   7.728
 1968POPC   C1B29143  43.496  41.216   8.746
 1968POPC   C2B29144  43.295  41.305   8.344
 1968POPC   C3B29145  43.257  41.006   7.993
 1968POPC   C4B29146  42.920  40.789   7.788
 1969POPC   NC329147  42.078  15.977   9.639
 1969POPC   PO429148  42.660  15.744   9.479
 1969POPC   GL129149  42.387  16.061   9.224
 1969POPC   GL229150  42.025  16.174   9.188
 1969POPC   C1A29151  42.371  16.256   8.811
 1969POPC   D2A29152  42.396  16.050   8.414
 1969POPC   C3A29153  42.592  16.240   8.048
 1969POPC   C4A29154  42.401  16.090   7.703
 1969POPC   C1B29155  42.071  15.847   8.871
 1969POPC   C2B29156  41.921  15.806   8.481
 1969POPC   C3B29157  42.085  15.812   8.083
 1969POPC   C4B29158  41.926  15.909   7.712
 1970POPC   NC329159  40.494  24.675   9.480
 1970POPC   PO429160  40.648  24.112   9.202
 1970POPC   GL129161  40.858  24.524   9.143
 1970POPC   GL229162  40.576  24.704   8.983
 1970POPC   C1A29163  41.052  24.717   8.784
 1970POPC   D2A29164  41.060  24.476   8.383
 1970POPC   C3A29165  40.790  24.541   8.048
 1970POPC   C4A29166  40.987  24.523   7.663
 1970POPC   C1B29167  40.596  24.496   8.611
 1970POPC   C2B29168  40.563  24.142   8.364
 1970POPC   C3B29169  40.472  23.964   7.976
 1970POPC   C4B29170  40.625  24.187   7.606
 1971POPC   NC329171  40.470   6.897   9.830
 1971POPC   PO429172  40.968   7.159   9.434
 1971POPC   GL129173  40.666   7.311   9.058
 1971POPC   GL229174  40.522   7.700   9.013
 1971POPC   C1A29175  40.841   7.435   8.687
 1971POPC   D2A29176  41.078   7.275   8.366
 1971POPC   C3A29177  41.020   7.413   7.978
 1971POPC   C4A29178  41.043   7.206   7.626
 1971POPC   C1B29179  40.323   7.486   8.657
 1971POPC   C2B29180  40.555   7.374   8.267
 1971POPC   C3B29181  40.547   7.194   7.866
 1971POPC   C4B29182  40.449   7.510   7.593
 1972POPC   NC329183  10.817   1.185   9.510
 1972POPC   PO429184  10.230   1.507   9.449
 1972POPC   GL129185  10.452   1.407   9.128
 1972POPC   GL229186  10.479   1.076   9.118
 1972POPC   C1A29187  10.519   1.313   8.680
 1972POPC   D2A29188  10.527   0.983   8.371
 1972POPC   C3A29189  10.548   1.151   7.934
 1972POPC   C4A29190  10.264   1.411   7.645
 1972POPC   C1B29191  10.168   0.805   8.871
 1972POPC   C2B29192  10.107   0.605   8.445
 1972POPC   C3B29193  10.189   0.787   8.045
 1972POPC   C4B29194  10.268   0.893   7.584
 1973POPC   NC329195  39.029  27.508   9.558
 1973POPC   PO429196  39.496  27.116   9.309
 1973POPC   GL129197  39.371  27.588   9.133
 1973POPC   GL229198  39.001  27.724   9.104
 1973POPC   C1A29199  39.288  27.840   8.723
 1973POPC   D2A29200  39.119  27.768   8.314
 1973POPC   C3A29201  39.313  27.728   7.875
 1973POPC   C4A29202  39.540  27.366   7.683
 1973POPC   C1B29203  38.796  27.595   8.740
 1973POPC   C2B29204  38.785  27.373   8.319
 1973POPC   C3B29205  38.660  27.484   7.913
 1973POPC   C4B29206  38.871  27.698   7.612
 1974POPC   NC329207  13.141  43.571   9.537
 1974POPC   PO429208  13.678  44.069   9.460
 1974POPC   GL129209  13.466  44.143   9.043
 1974POPC   GL229210  13.117  44.080   9.068
 1974POPC   C1A29211  13.405  44.055   8.570
 1974POPC   D2A29212  13.603  44.168   8.146
 1974POPC   C3A29213  13.664  43.860   7.822
 1974POPC   C4A29214  13.989  43.823   7.481
 1974POPC   C1B29215  13.207  43.672   8.879
 1974POPC   C2B29216  13.425  43.520   8.497
 1974POPC   C3B29217  13.370  43.465   8.048
 1974POPC   C4B29218  13.195  43.646   7.702
 1975POPC   NC329219  41.749  17.690   9.386
 1975POPC   PO429220  41.154  17.476   9.582
 1975POPC   GL129221  41.300  17.515   9.177
 1975POPC   GL229222  41.602  17.314   9.080
 1975POPC   C1A29223  41.385  17.630   8.754
 1975POPC   D2A29224  41.653  17.351   8.516
 1975POPC   C3A29225  41.824  17.532   8.174
 1975POPC   C4A29226  41.775  17.459   7.714
 1975POPC   C1B29227  41.266  17.127   8.808
 1975POPC   C2B29228  41.148  17.240   8.400
 1975POPC   C3B29229  41.368  17.273   7.994
 1975POPC   C4B29230  41.345  17.311   7.513
 1976POPC   NC329231  19.527  29.067   9.529
 1976POPC   PO429232  20.212  29.085   9.639
 1976POPC   GL129233  19.929  29.222   9.247
 1976POPC   GL229234  19.606  29.464   9.230
 1976POPC   C1A29235  19.889  29.052   8.809
 1976POPC   D2A29236  20.159  28.974   8.445
 1976POPC   C3A29237  19.988  28.968   7.992
 1976POPC   C4A29238  20.031  29.156   7.543
 1976POPC   C1B29239  19.732  29.530   8.797
 1976POPC   C2B29240  19.801  29.347   8.386
 1976POPC   C3B29241  19.762  29.432   7.957
 1976POPC   C4B29242  19.560  29.109   7.727
 1977POPC   NC329243  19.274  38.085   9.466
 1977POPC   PO429244  19.734  38.506   9.600
 1977POPC   GL129245  19.782  38.155   9.279
 1977POPC   GL229246  20.094  38.220   9.095
 1977POPC   C1A29247  19.673  38.027   8.827
 1977POPC   D2A29248  19.784  38.097   8.357
 1977POPC   C3A29249  19.647  38.483   8.098
 1977POPC   C4A29250  19.509  38.645   7.684
 1977POPC   C1B29251  20.052  38.566   8.755
 1977POPC   C2B29252  20.195  38.796   8.335
 1977POPC   C3B29253  20.108  38.623   7.911
 1977POPC   C4B29254  20.018  38.173   7.894
 1978POPC   NC329255  10.927   5.844   9.486
 1978POPC   PO429256  10.246   5.935   9.619
 1978POPC   GL129257  10.460   6.062   9.250
 1978POPC   GL229258  10.729   6.299   9.310
 1978POPC   C1A29259  10.360   5.896   8.870
 1978POPC   D2A29260  10.333   5.620   8.513
 1978POPC   C3A29261  10.402   5.856   8.112
 1978POPC   C4A29262  10.256   5.955   7.693
 1978POPC   C1B29263  10.823   6.225   8.883
 1978POPC   C2B29264  10.764   5.918   8.570
 1978POPC   C3B29265  10.905   5.865   8.173
 1978POPC   C4B29266  10.805   5.713   7.788
 1979POPC   NC329267  34.843  23.405   9.522
 1979POPC   PO429268  34.187  23.458   9.502
 1979POPC   GL129269  34.474  23.469   9.095
 1979POPC   GL229270  34.823  23.625   9.073
 1979POPC   C1A29271  34.599  23.486   8.629
 1979POPC   D2A29272  34.709  23.292   8.220
 1979POPC   C3A29273  34.541  23.515   7.882
 1979POPC   C4A29274  34.755  23.625   7.545
 1979POPC   C1B29275  34.939  23.908   8.734
 1979POPC   C2B29276  34.928  23.851   8.280
 1979POPC   C3B29277  34.681  24.008   7.925
 1979POPC   C4B29278  34.768  24.130   7.502
 1980POPC   NC329279  38.956  20.669   9.513
 1980POPC   PO429280  39.479  20.301   9.314
 1980POPC   GL129281  39.205  20.584   9.088
 1980POPC   GL229282  38.818  20.480   9.080
 1980POPC   C1A29283  39.283  20.808   8.725
 1980POPC   D2A29284  39.362  21.015   8.357
 1980POPC   C3A29285  39.210  20.800   8.034
 1980POPC   C4A29286  39.418  20.810   7.672
 1980POPC   C1B29287  38.795  20.570   8.717
 1980POPC   C2B29288  38.946  20.506   8.354
 1980POPC   C3B29289  38.812  20.415   7.983
 1980POPC   C4B29290  38.926  20.629   7.615
 1981POPC   NC329291   7.307  34.843   9.542
 1981POPC   PO429292   7.657  34.303   9.628
 1981POPC   GL129293   7.627  34.247   9.199
 1981POPC   GL229294   7.333  34.468   9.130
 1981POPC   C1A29295   7.646  34.247   8.762
 1981POPC   D2A29296   7.651  34.563   8.439
 1981POPC   C3A29297   7.488  34.477   8.029
 1981POPC   C4A29298   7.500  34.198   7.685
 1981POPC   C1B29299   7.053  34.608   8.791
 1981POPC   C2B29300   7.158  34.760   8.379
 1981POPC   C3B29301   7.473  34.969   8.147
 1981POPC   C4B29302   7.393  34.879   7.726
 1982POPC   NC329303  39.709  20.709   9.307
 1982POPC   PO429304  40.266  20.824   9.640
 1982POPC   GL129305  40.177  20.537   9.172
 1982POPC   GL229306  39.930  20.328   9.089
 1982POPC   C1A29307  40.264  20.504   8.724
 1982POPC   D2A29308  40.341  20.809   8.406
 1982POPC   C3A29309  40.205  20.713   8.009
 1982POPC   C4A29310  39.954  20.897   7.703
 1982POPC   C1B29311  39.730  20.495   8.711
 1982POPC   C2B29312  39.913  20.411   8.344
 1982POPC   C3B29313  39.711  20.591   8.031
 1982POPC   C4B29314  39.751  20.442   7.605
 1983POPC   NC329315   5.252  32.324   9.610
 1983POPC   PO429316   4.648  32.172   9.427
 1983POPC   GL129317   5.005  32.187   9.180
 1983POPC   GL229318   5.399  32.117   9.167
 1983POPC   C1A29319   5.112  32.374   8.795
 1983POPC   D2A29320   5.311  32.376   8.404
 1983POPC   C3A29321   4.967  32.357   8.135
 1983POPC   C4A29322   5.054  32.390   7.728
 1983POPC   C1B29323   5.174  31.860   8.834
 1983POPC   C2B29324   5.183  31.878   8.405
 1983POPC   C3B29325   5.299  32.011   8.009
 1983POPC   C4B29326   5.070  31.864   7.691
 1984POPC   NC329327  31.761   4.955   9.498
 1984POPC   PO429328  31.166   5.321   9.518
 1984POPC   GL129329  31.319   5.272   9.099
 1984POPC   GL229330  31.625   5.311   9.161
 1984POPC   C1A29331  31.522   4.939   8.818
 1984POPC   D2A29332  31.626   4.755   8.404
 1984POPC   C3A29333  31.562   5.009   8.015
 1984POPC   C4A29334  31.443   4.990   7.598
 1984POPC   C1B29335  31.802   5.420   8.792
 1984POPC   C2B29336  31.748   5.275   8.407
 1984POPC   C3B29337  31.917   5.378   8.015
 1984POPC   C4B29338  31.916   5.269   7.623
 1985POPC   NC329339  15.296   9.335   9.459
 1985POPC   PO429340  15.205   8.633   9.468
 1985POPC   GL129341  15.067   8.942   9.140
 1985POPC   GL229342  15.317   9.168   8.995
 1985POPC   C1A29343  15.060   8.794   8.697
 1985POPC   D2A29344  15.204   8.510   8.378
 1985POPC   C3A29345  14.993   8.652   8.079
 1985POPC   C4A29346  15.072   8.973   7.839
 1985POPC   C1B29347  15.006   9.304   8.719
 1985POPC   C2B29348  15.066   9.243   8.274
 1985POPC   C3B29349  15.265   9.435   7.908
 1985POPC   C4B29350  15.403   9.198   7.544
 1986POPC   NC329351   8.875   4.947   9.446
 1986POPC   PO429352   8.641   5.518   9.425
 1986POPC   GL129353   8.869   5.350   9.081
 1986POPC   GL229354   8.791   4.989   8.953
 1986POPC   C1A29355   9.053   5.304   8.665
 1986POPC   D2A29356   8.900   5.033   8.377
 1986POPC   C3A29357   8.963   5.188   7.964
 1986POPC   C4A29358   8.657   4.930   7.771
 1986POPC   C1B29359   9.150   4.784   8.791
 1986POPC   C2B29360   9.213   4.580   8.416
 1986POPC   C3B29361   9.122   4.706   8.009
 1986POPC   C4B29362   9.437   4.948   7.781
 1987POPC   NC329363  22.787  42.917   9.538
 1987POPC   PO429364  23.097  43.447   9.364
 1987POPC   GL129365  22.865  43.266   9.142
 1987POPC   GL229366  23.030  43.004   9.106
 1987POPC   C1A29367  22.794  43.255   8.708
 1987POPC   D2A29368  23.011  43.098   8.382
 1987POPC   C3A29369  22.899  43.255   7.990
 1987POPC   C4A29370  22.634  43.112   7.695
 1987POPC   C1B29371  23.303  42.904   8.818
 1987POPC   C2B29372  23.489  42.820   8.435
 1987POPC   C3B29373  23.327  42.922   8.020
 1987POPC   C4B29374  23.246  43.100   7.659
 1988POPC   NC329375  43.938  29.366   9.552
 1988POPC   PO429376  43.531  29.880   9.471
 1988POPC   GL129377  43.795  29.682   9.171
 1988POPC   GL229378  43.552  29.742   8.917
 1988POPC   C1A29379  44.026  29.858   8.814
 1988POPC   D2A29380  43.755  30.030   8.469
 1988POPC   C3A29381  43.752  29.908   8.052
 1988POPC   C4A29382  44.128  29.870   7.768
 1988POPC   C1B29383  43.669  30.222   8.926
 1988POPC   C2B29384  43.632  30.514   8.593
 1988POPC   C3B29385  43.643  30.423   8.149
 1988POPC   C4B29386  43.850  30.297   7.754
 1989POPC   NC329387   0.031  34.341   9.700
 1989POPC   PO429388  44.527  34.557   9.750
 1989POPC   GL129389  44.724  34.573   9.263
 1989POPC   GL229390   0.006  34.320   9.180
 1989POPC   C1A29391  44.615  34.736   8.782
 1989POPC   D2A29392  44.492  34.893   8.336
 1989POPC   C3A29393  44.694  34.812   7.893
 1989POPC   C4A29394  44.421  34.658   7.529
 1989POPC   C1B29395  44.872  34.309   8.727
 1989POPC   C2B29396  44.779  34.481   8.301
 1989POPC   C3B29397  44.792  34.295   7.872
 1989POPC   C4B29398  44.556  34.168   7.495
 1990POPC   NC329399   5.350   7.882   9.638
 1990POPC   PO429400   4.818   7.517   9.625
 1990POPC   GL129401   5.073   7.408   9.251
 1990POPC   GL229402   5.400   7.630   9.205
 1990POPC   C1A29403   4.891   7.375   8.837
 1990POPC   D2A29404   5.076   7.331   8.471
 1990POPC   C3A29405   4.800   7.256   8.137
 1990POPC   C4A29406   4.777   6.970   7.780
 1990POPC   C1B29407   5.167   7.789   8.865
 1990POPC   C2B29408   5.282   7.811   8.449
 1990POPC   C3B29409   5.179   7.636   8.051
 1990POPC   C4B29410   5.258   7.671   7.627
 1991POPC   NC329411  42.639   2.185   9.418
 1991POPC   PO429412  42.342   1.585   9.438
 1991POPC   GL129413  42.380   1.837   9.086
 1991POPC   GL229414  42.725   1.728   9.096
 1991POPC   C1A29415  42.090   1.962   8.733
 1991POPC   D2A29416  41.980   1.865   8.292
 1991POPC   C3A29417  42.296   2.081   8.040
 1991POPC   C4A29418  42.232   2.107   7.606
 1991POPC   C1B29419  42.799   1.463   8.745
 1991POPC   C2B29420  42.937   1.580   8.334
 1991POPC   C3B29421  42.762   1.855   8.020
 1991POPC   C4B29422  42.691   1.888   7.586
 1992POPC   NC329423  42.552   4.529   9.710
 1992POPC   PO429424  42.159   4.072   9.494
 1992POPC   GL129425  42.026   4.241   9.138
 1992POPC   GL229426  42.162   3.923   8.974
 1992POPC   C1A29427  42.057   4.358   8.745
 1992POPC   D2A29428  42.272   4.173   8.445
 1992POPC   C3A29429  42.107   4.281   8.047
 1992POPC   C4A29430  42.078   4.495   7.615
 1992POPC   C1B29431  42.551   4.181   8.881
 1992POPC   C2B29432  42.735   4.405   8.518
 1992POPC   C3B29433  42.662   4.265   8.113
 1992POPC   C4B29434  42.470   4.218   7.731
 1993POPC   NC329435  30.223  33.044   9.346
 1993POPC   PO429436  29.673  33.433   9.468
 1993POPC   GL129437  29.838  33.232   9.067
 1993POPC   GL229438  30.002  32.899   8.921
 1993POPC   C1A29439  29.973  33.332   8.632
 1993POPC   D2A29440  29.867  33.035   8.335
 1993POPC   C3A29441  29.824  33.148   7.910
 1993POPC   C4A29442  29.874  33.050   7.468
 1993POPC   C1B29443  30.304  32.755   8.586
 1993POPC   C2B29444  30.440  32.708   8.153
 1993POPC   C3B29445  30.230  32.860   7.780
 1993POPC   C4B29446  30.333  32.825   7.354
 1994POPC   NC329447  34.322  12.812   9.494
 1994POPC   PO429448  35.062  12.802   9.451
 1994POPC   GL129449  34.714  12.882   9.160
 1994POPC   GL229450  34.403  13.050   9.046
 1994POPC   C1A29451  34.578  12.647   8.794
 1994POPC   D2A29452  34.722  12.770   8.410
 1994POPC   C3A29453  34.544  12.807   7.998
 1994POPC   C4A29454  34.727  12.612   7.671
 1994POPC   C1B29455  34.353  13.104   8.626
 1994POPC   C2B29456  34.176  12.876   8.327
 1994POPC   C3B29457  34.073  13.122   8.003
 1994POPC   C4B29458  34.208  13.109   7.620
 1995POPC   NC329459  36.986  33.263   9.391
 1995POPC   PO429460  36.469  32.807   9.436
 1995POPC   GL129461  36.609  33.046   9.125
 1995POPC   GL229462  36.881  32.818   8.980
 1995POPC   C1A29463  36.705  33.229   8.751
 1995POPC   D2A29464  36.813  32.967   8.419
 1995POPC   C3A29465  36.694  33.144   8.044
 1995POPC   C4A29466  36.701  32.836   7.745
 1995POPC   C1B29467  37.199  33.092   8.757
 1995POPC   C2B29468  37.328  33.086   8.344
 1995POPC   C3B29469  37.156  32.880   8.003
 1995POPC   C4B29470  37.087  33.203   7.730
 1996POPC   NC329471  30.319   2.033   9.308
 1996POPC   PO429472  29.696   2.195   9.577
 1996POPC   GL129473  29.899   1.760   9.264
 1996POPC   GL229474  29.680   1.559   9.068
 1996POPC   C1A29475  30.090   1.689   8.797
 1996POPC   D2A29476  29.974   2.113   8.578
 1996POPC   C3A29477  29.830   2.104   8.154
 1996POPC   C4A29478  29.862   1.887   7.724
 1996POPC   C1B29479  29.595   1.731   8.620
 1996POPC   C2B29480  29.579   1.626   8.157
 1996POPC   C3B29481  29.452   1.578   7.727
 1996POPC   C4B29482  29.522   1.783   7.292
 1997POPC   NC329483   4.687  32.638   9.358
 1997POPC   PO429484   4.186  32.262   9.722
 1997POPC   GL129485   4.191  32.343   9.224
 1997POPC   GL229486   4.344  32.089   9.050
 1997POPC   C1A29487   3.933  32.178   8.798
 1997POPC   D2A29488   3.872  32.230   8.332
 1997POPC   C3A29489   4.282  32.354   8.113
 1997POPC   C4A29490   4.601  32.589   7.847
 1997POPC   C1B29491   4.672  31.961   8.794
 1997POPC   C2B29492   4.697  32.008   8.364
 1997POPC   C3B29493   4.588  31.968   7.928
 1997POPC   C4B29494   4.660  32.080   7.495
 1998POPC   NC329495   0.554   1.823   9.448
 1998POPC   PO429496   0.304   2.493   9.408
 1998POPC   GL129497   0.113   2.345   9.031
 1998POPC   GL229498   0.277   2.019   9.015
 1998POPC   C1A29499   0.153   2.319   8.598
 1998POPC   D2A29500   0.310   1.940   8.415
 1998POPC   C3A29501   0.220   1.951   7.978
 1998POPC   C4A29502   0.637   1.934   7.793
 1998POPC   C1B29503   0.571   1.707   8.824
 1998POPC   C2B29504   0.557   1.435   8.495
 1998POPC   C3B29505   0.351   1.482   8.128
 1998POPC   C4B29506   0.333   1.521   7.714
 1999POPC   NC329507   0.364  43.032   9.595
 1999POPC   PO429508   0.298  43.618   9.293
 1999POPC   GL129509   0.231  43.206   9.119
 1999POPC   GL229510   0.559  43.045   9.123
 1999POPC   C1A29511   0.166  42.876   8.797
 1999POPC   D2A29512   0.266  42.709   8.381
 1999POPC   C3A29513   0.334  42.980   8.016
 1999POPC   C4A29514   0.244  43.323   7.727
 1999POPC   C1B29515   0.663  43.283   8.781
 1999POPC   C2B29516   0.682  43.183   8.366
 1999POPC   C3B29517   0.712  43.342   7.948
 1999POPC   C4B29518   0.683  43.070   7.594
 2000POPC   NC329519   8.456   1.336   9.505
 2000POPC   PO429520   7.917   0.858   9.414
 2000POPC   GL129521   8.138   1.122   9.125
 2000POPC   GL229522   8.495   1.060   9.077
 2000POPC   C1A29523   8.055   1.419   8.775
 2000POPC   D2A29524   7.768   1.493   8.423
 2000POPC   C3A29525   7.977   1.559   8.008
 2000POPC   C4A29526   8.080   1.285   7.671
 2000POPC   C1B29527   8.575   1.372   8.808
 2000POPC   C2B29528   8.469   1.371   8.389
 2000POPC   C3B29529   8.500   1.429   7.957
 2000POPC   C4B29530   8.491   1.585   7.520
 2001POPC   NC329531  14.791  36.758   9.348
 2001POPC   PO429532  15.467  36.897   9.445
 2001POPC   GL129533  15.206  36.827   9.076
 2001POPC   GL229534  15.094  36.465   9.032
 2001POPC   C1A29535  14.886  36.830   8.670
 2001POPC   D2A29536  14.757  36.741   8.219
 2001POPC   C3A29537  14.797  37.062   7.914
 2001POPC   C4A29538  14.805  37.277   7.524
 2001POPC   C1B29539  15.358  36.634   8.664
 2001POPC   C2B29540  15.250  36.901   8.314
 2001POPC   C3B29541  15.219  36.751   7.924
 2001POPC   C4B29542  15.456  36.799   7.560
 2002POPC   NC329543  23.278  15.927   9.641
 2002POPC   PO429544  23.951  15.855   9.662
 2002POPC   GL129545  23.781  16.079   9.276
 2002POPC   GL229546  23.499  16.296   9.195
 2002POPC   C1A29547  23.819  16.124   8.796
 2002POPC   D2A29548  23.624  16.159   8.352
 2002POPC   C3A29549  23.750  16.025   7.901
 2002POPC   C4A29550  23.574  16.225   7.486
 2002POPC   C1B29551  23.412  15.885   8.964
 2002POPC   C2B29552  23.507  15.679   8.547
 2002POPC   C3B29553  23.392  15.748   8.110
 2002POPC   C4B29554  23.245  15.928   7.725
 2003POPC   NC329555  27.584  20.091   9.455
 2003POPC   PO429556  27.941  19.471   9.517
 2003POPC   GL129557  27.708  19.607   9.189
 2003POPC   GL229558  27.726  19.940   9.003
 2003POPC   C1A29559  27.726  19.475   8.794
 2003POPC   D2A29560  27.766  19.729   8.482
 2003POPC   C3A29561  27.689  19.608   8.108
 2003POPC   C4A29562  27.453  19.760   7.823
 2003POPC   C1B29563  27.331  20.136   8.850
 2003POPC   C2B29564  27.107  19.987   8.514
 2003POPC   C3B29565  27.199  20.083   8.110
 2003POPC   C4B29566  27.270  20.213   7.698
 2004POPC   NC329567  27.491  19.301   9.556
 2004POPC   PO429568  27.903  18.754   9.540
 2004POPC   GL129569  27.800  19.048   9.207
 2004POPC   GL229570  27.468  18.940   9.182
 2004POPC   C1A29571  27.753  18.958   8.763
 2004POPC   D2A29572  27.761  19.161   8.365
 2004POPC   C3A29573  27.742  18.858   8.036
 2004POPC   C4A29574  27.491  18.757   7.675
 2004POPC   C1B29575  27.282  19.271   8.919
 2004POPC   C2B29576  27.292  19.468   8.491
 2004POPC   C3B29577  27.294  19.268   8.090
 2004POPC   C4B29578  27.171  19.380   7.697
 2005POPC   NC329579  27.212  32.552   9.387
 2005POPC   PO429580  27.745  32.011   9.535
 2005POPC   GL129581  27.672  32.244   9.155
 2005POPC   GL229582  27.949  32.464   9.019
 2005POPC   C1A29583  27.625  32.067   8.723
 2005POPC   D2A29584  27.356  31.933   8.361
 2005POPC   C3A29585  27.555  31.893   7.942
 2005POPC   C4A29586  27.346  31.841   7.522
 2005POPC   C1B29587  27.556  32.615   8.796
 2005POPC   C2B29588  27.240  32.769   8.494
 2005POPC   C3B29589  27.149  32.630   8.049
 2005POPC   C4B29590  27.401  32.345   7.762
 2006POPC   NC329591  15.907  25.134   9.655
 2006POPC   PO429592  16.327  25.539   9.444
 2006POPC   GL129593  16.131  25.267   9.153
 2006POPC   GL229594  15.770  25.234   9.125
 2006POPC   C1A29595  16.089  25.232   8.709
 2006POPC   D2A29596  16.209  25.400   8.321
 2006POPC   C3A29597  15.957  25.151   8.049
 2006POPC   C4A29598  15.653  25.074   7.736
 2006POPC   C1B29599  15.571  25.454   8.733
 2006POPC   C2B29600  15.487  25.513   8.247
 2006POPC   C3B29601  15.737  25.574   7.855
 2006POPC   C4B29602  15.678  25.730   7.431
 2007POPC   NC329603   9.222  22.773   9.478
 2007POPC   PO429604   8.498  22.600   9.411
 2007POPC   GL129605   8.799  22.808   9.150
 2007POPC   GL229606   8.991  22.554   8.945
 2007POPC   C1A29607   8.869  22.986   8.749
 2007POPC   D2A29608   8.700  22.815   8.338
 2007POPC   C3A29609   8.930  22.801   7.960
 2007POPC   C4A29610   8.828  22.961   7.572
 2007POPC   C1B29611   9.157  22.636   8.501
 2007POPC   C2B29612   9.152  23.087   8.347
 2007POPC   C3B29613   9.335  23.244   8.012
 2007POPC   C4B29614   9.362  23.023   7.669
 2008POPC   NC329615  13.478  17.010   9.944
 2008POPC   PO429616  13.393  17.710   9.571
 2008POPC   GL129617  13.617  17.565   9.142
 2008POPC   GL229618  13.393  17.672   8.959
 2008POPC   C1A29619  13.829  17.524   8.736
 2008POPC   D2A29620  13.493  17.662   8.446
 2008POPC   C3A29621  13.472  17.766   8.023
 2008POPC   C4A29622  13.439  18.127   7.766
 2008POPC   C1B29623  13.346  17.290   8.755
 2008POPC   C2B29624  13.214  17.109   8.346
 2008POPC   C3B29625  13.429  17.024   8.004
 2008POPC   C4B29626  13.569  17.352   7.750
 2009POPC   NC329627   4.663  21.518   9.532
 2009POPC   PO429628   3.992  21.218   9.514
 2009POPC   GL129629   4.060  21.421   9.147
 2009POPC   GL229630   4.412  21.345   9.119
 2009POPC   C1A29631   4.064  21.310   8.715
 2009POPC   D2A29632   3.906  21.222   8.303
 2009POPC   C3A29633   4.013  21.359   7.850
 2009POPC   C4A29634   4.019  21.349   7.363
 2009POPC   C1B29635   4.537  21.616   8.807
 2009POPC   C2B29636   4.678  21.698   8.409
 2009POPC   C3B29637   4.493  21.489   8.064
 2009POPC   C4B29638   4.370  21.685   7.685
 2010POPC   NC329639  40.299   0.784   9.546
 2010POPC   PO429640  40.038   0.104   9.558
 2010POPC   GL129641  40.124   0.292   9.160
 2010POPC   GL229642  39.981   0.641   9.164
 2010POPC   C1A29643  39.921   0.332   8.741
 2010POPC   D2A29644  39.809   0.068   8.371
 2010POPC   C3A29645  39.980   0.268   7.977
 2010POPC   C4A29646  39.750   0.495   7.668
 2010POPC   C1B29647  40.046   0.845   8.763
 2010POPC   C2B29648  40.065   0.657   8.335
 2010POPC   C3B29649  40.055   0.828   7.924
 2010POPC   C4B29650  40.083   0.786   7.473
 2011POPC   NC329651   0.136  41.657   9.496
 2011POPC   PO429652   0.706  41.278   9.454
 2011POPC   GL129653   0.428  41.325   9.115
 2011POPC   GL229654   0.469  41.687   9.074
 2011POPC   C1A29655   0.483  41.371   8.661
 2011POPC   D2A29656   0.371  41.779   8.456
 2011POPC   C3A29657   0.189  41.821   8.056
 2011POPC   C4A29658   0.363  41.712   7.664
 2011POPC   C1B29659   0.068  41.636   8.848
 2011POPC   C2B29660  44.850  41.675   8.465
 2011POPC   C3B29661  44.825  41.420   8.111
 2011POPC   C4B29662   0.119  41.312   7.840
 2012POPC   NC329663  35.073  11.445   9.398
 2012POPC   PO429664  35.724  11.231   9.489
 2012POPC   GL129665  35.496  11.247   9.135
 2012POPC   GL229666  35.250  10.995   9.174
 2012POPC   C1A29667  35.378  11.501   8.787
 2012POPC   D2A29668  35.161  11.515   8.389
 2012POPC   C3A29669  35.373  11.462   7.979
 2012POPC   C4A29670  35.388  11.321   7.556
 2012POPC   C1B29671  35.074  11.092   8.734
 2012POPC   C2B29672  35.262  11.015   8.305
 2012POPC   C3B29673  35.165  10.971   7.847
 2012POPC   C4B29674  35.388  10.820   7.446
 2013POPC   NC329675  11.372  27.067   9.419
 2013POPC   PO429676  10.947  26.618   9.708
 2013POPC   GL129677  11.098  26.665   9.241
 2013POPC   GL229678  11.010  26.991   9.100
 2013POPC   C1A29679  11.303  26.720   8.794
 2013POPC   D2A29680  11.516  26.870   8.413
 2013POPC   C3A29681  11.320  26.714   8.073
 2013POPC   C4A29682  11.218  26.774   7.673
 2013POPC   C1B29683  11.062  27.176   8.735
 2013POPC   C2B29684  10.986  26.946   8.382
 2013POPC   C3B29685  10.907  27.059   7.963
 2013POPC   C4B29686  11.093  27.253   7.595
 2014POPC   NC329687  39.597   0.091   9.382
 2014POPC   PO429688  39.157   0.559   9.428
 2014POPC   GL129689  39.066   0.462   9.046
 2014POPC   GL229690  39.168   0.135   9.071
 2014POPC   C1A29691  39.072   0.579   8.623
 2014POPC   D2A29692  39.098   0.679   8.212
 2014POPC   C3A29693  39.022   0.462   7.872
 2014POPC   C4A29694  39.277   0.617   7.599
 2014POPC   C1B29695  39.412   0.227   8.749
 2014POPC   C2B29696  39.266   0.162   8.368
 2014POPC   C3B29697  39.464   0.285   8.038
 2014POPC   C4B29698  39.396   0.120   7.682
 2015POPC   NC329699  29.561  41.343   9.687
 2015POPC   PO429700  29.695  41.695   9.333
 2015POPC   GL129701  29.919  41.639   9.001
 2015POPC   GL229702  30.128  41.912   9.104
 2015POPC   C1A29703  29.908  41.524   8.567
 2015POPC   D2A29704  29.662  41.608   8.223
 2015POPC   C3A29705  29.741  41.475   7.792
 2015POPC   C4A29706  29.735  41.243   7.364
 2015POPC   C1B29707  30.293  41.846   8.681
 2015POPC   C2B29708  30.310  41.644   8.261
 2015POPC   C3B29709  30.252  41.387   7.901
 2015POPC   C4B29710  30.221  41.075   7.547
 2016POPC   NC329711  28.249  33.127   9.456
 2016POPC   PO429712  28.476  32.575   9.720
 2016POPC   GL129713  28.423  32.686   9.242
 2016POPC   GL229714  28.697  32.568   9.046
 2016POPC   C1A29715  28.459  33.013   8.860
 2016POPC   D2A29716  28.532  33.074   8.417
 2016POPC   C3A29717  28.233  33.261   8.125
 2016POPC   C4A29718  27.931  33.120   7.807
 2016POPC   C1B29719  28.369  32.533   8.731
 2016POPC   C2B29720  28.549  32.538   8.362
 2016POPC   C3B29721  28.580  32.749   8.007
 2016POPC   C4B29722  28.220  32.672   7.791
 2017POPC   NC329723   4.841  33.451   9.509
 2017POPC   PO429724   5.123  32.788   9.520
 2017POPC   GL129725   5.010  33.058   9.168
 2017POPC   GL229726   5.141  33.395   9.118
 2017POPC   C1A29727   4.932  32.931   8.731
 2017POPC   D2A29728   4.728  32.821   8.337
 2017POPC   C3A29729   5.037  32.833   8.017
 2017POPC   C4A29730   4.982  32.911   7.603
 2017POPC   C1B29731   4.847  33.426   8.777
 2017POPC   C2B29732   4.813  33.350   8.318
 2017POPC   C3B29733   5.098  33.318   7.946
 2017POPC   C4B29734   5.165  33.450   7.499
 2018POPC   NC329735   4.272  41.861   9.288
 2018POPC   PO429736   4.541  42.476   9.430
 2018POPC   GL129737   4.321  42.337   9.075
 2018POPC   GL229738   3.960  42.238   9.077
 2018POPC   C1A29739   4.289  42.261   8.647
 2018POPC   D2A29740   4.031  42.229   8.284
 2018POPC   C3A29741   4.260  42.102   7.909
 2018POPC   C4A29742   4.721  42.058   7.873
 2018POPC   C1B29743   3.935  42.621   8.761
 2018POPC   C2B29744   3.886  42.729   8.300
 2018POPC   C3B29745   4.235  42.742   7.994
 2018POPC   C4B29746   4.550  42.530   7.746
 2019POPC   NC329747   4.042  20.059   9.492
 2019POPC   PO429748   3.386  19.704   9.399
 2019POPC   GL129749   3.494  19.620   8.983
 2019POPC   GL229750   3.829  19.806   9.004
 2019POPC   C1A29751   3.681  19.407   8.644
 2019POPC   D2A29752   3.765  19.585   8.250
 2019POPC   C3A29753   3.459  19.500   7.960
 2019POPC   C4A29754   3.435  19.750   7.656
 2019POPC   C1B29755   3.839  20.194   8.751
 2019POPC   C2B29756   3.724  20.201   8.295
 2019POPC   C3B29757   3.850  19.969   7.905
 2019POPC   C4B29758   3.814  19.994   7.443
 2020POPC   NC329759  43.269  30.703   9.593
 2020POPC   PO429760  42.725  30.992   9.301
 2020POPC   GL129761  43.101  30.860   9.128
 2020POPC   GL229762  43.439  30.993   9.205
 2020POPC   C1A29763  43.131  30.599   8.769
 2020POPC   D2A29764  43.196  30.360   8.388
 2020POPC   C3A29765  43.093  30.552   8.008
 2020POPC   C4A29766  43.051  30.933   7.796
 2020POPC   C1B29767  43.488  30.996   8.778
 2020POPC   C2B29768  43.313  30.891   8.373
 2020POPC   C3B29769  43.513  30.897   7.997
 2020POPC   C4B29770  43.489  30.621   7.702
 2021POPC   NC329771   0.017  17.178   9.585
 2021POPC   PO429772  44.437  17.393   9.482
 2021POPC   GL129773  44.681  17.457   9.118
 2021POPC   GL229774  44.821  17.777   9.105
 2021POPC   C1A29775  44.714  17.610   8.658
 2021POPC   D2A29776  44.751  17.379   8.311
 2021POPC   C3A29777  44.548  17.212   7.986
 2021POPC   C4A29778  44.282  17.439   7.792
 2021POPC   C1B29779   0.171  17.805   8.790
 2021POPC   C2B29780   0.317  17.887   8.402
 2021POPC   C3B29781   0.109  17.660   8.124
 2021POPC   C4B29782  44.731  17.673   7.847
 2022POPC   NC329783  29.773  32.185   9.589
 2022POPC   PO429784  30.276  32.572   9.361
 2022POPC   GL129785  30.093  32.198   9.168
 2022POPC   GL229786  29.744  32.293   9.108
 2022POPC   C1A29787  30.094  32.197   8.719
 2022POPC   D2A29788  30.191  32.272   8.299
 2022POPC   C3A29789  29.962  32.582   8.158
 2022POPC   C4A29790  29.770  32.638   7.815
 2022POPC   C1B29791  29.620  32.019   8.808
 2022POPC   C2B29792  29.452  32.109   8.431
 2022POPC   C3B29793  29.664  32.190   8.076
 2022POPC   C4B29794  29.829  32.002   7.762
 2023POPC   NC329795  27.500   5.204   9.518
 2023POPC   PO429796  27.922   4.763   9.328
 2023POPC   GL129797  27.761   5.031   9.067
 2023POPC   GL229798  27.420   5.160   9.024
 2023POPC   C1A29799  27.817   5.031   8.648
 2023POPC   D2A29800  27.555   5.070   8.317
 2023POPC   C3A29801  27.793   4.972   7.953
 2023POPC   C4A29802  27.722   5.124   7.564
 2023POPC   C1B29803  27.205   5.341   8.656
 2023POPC   C2B29804  27.268   5.553   8.251
 2023POPC   C3B29805  27.403   5.333   7.901
 2023POPC   C4B29806  27.207   5.008   7.651
 2024POPC   NC329807  37.756  17.050   9.629
 2024POPC   PO429808  37.537  16.456   9.582
 2024POPC   GL129809  37.697  16.657   9.197
 2024POPC   GL229810  37.944  16.380   9.188
 2024POPC   C1A29811  37.493  16.806   8.775
 2024POPC   D2A29812  37.281  16.690   8.364
 2024POPC   C3A29813  37.517  16.792   7.984
 2024POPC   C4A29814  37.604  16.680   7.554
 2024POPC   C1B29815  37.805  16.370   8.768
 2024POPC   C2B29816  37.768  16.505   8.342
 2024POPC   C3B29817  37.803  16.343   7.915
 2024POPC   C4B29818  37.947  16.328   7.470
 2025POPC   NC329819  37.793   4.503   9.588
 2025POPC   PO429820  37.180   4.241   9.640
 2025POPC   GL129821  37.511   4.270   9.251
 2025POPC   GL229822  37.740   3.983   9.096
 2025POPC   C1A29823  37.689   4.426   8.899
 2025POPC   D2A29824  37.621   4.300   8.525
 2025POPC   C3A29825  37.653   4.489   8.174
 2025POPC   C4A29826  37.461   4.387   7.829
 2025POPC   C1B29827  38.038   4.081   8.742
 2025POPC   C2B29828  37.970   3.983   8.298
 2025POPC   C3B29829  37.776   4.003   7.900
 2025POPC   C4B29830  37.805   4.096   7.425
 2026POPC   NC329831  34.210  19.306   9.513
 2026POPC   PO429832  33.744  18.867   9.430
 2026POPC   GL129833  34.024  19.003   9.104
 2026POPC   GL229834  33.723  19.165   8.948
 2026POPC   C1A29835  34.104  19.010   8.654
 2026POPC   D2A29836  33.807  19.139   8.375
 2026POPC   C3A29837  33.928  19.044   7.992
 2026POPC   C4A29838  33.899  18.718   7.698
 2026POPC   C1B29839  33.662  18.737   8.765
 2026POPC   C2B29840  33.466  18.506   8.428
 2026POPC   C3B29841  33.536  18.669   8.035
 2026POPC   C4B29842  33.493  19.053   7.754
 2027POPC   NC329843  20.840   1.084   9.552
 2027POPC   PO429844  20.361   1.531   9.517
 2027POPC   GL129845  20.613   1.413   9.198
 2027POPC   GL229846  20.456   1.089   9.167
 2027POPC   C1A29847  20.706   1.344   8.762
 2027POPC   D2A29848  20.866   1.423   8.363
 2027POPC   C3A29849  20.746   1.241   7.934
 2027POPC   C4A29850  20.864   1.448   7.566
 2027POPC   C1B29851  20.332   1.003   8.741
 2027POPC   C2B29852  20.435   1.074   8.299
 2027POPC   C3B29853  20.324   0.941   7.854
 2027POPC   C4B29854  20.295   0.789   7.387
 2028POPC   NC329855  34.969  21.525   9.540
 2028POPC   PO429856  34.346  21.340   9.351
 2028POPC   GL129857  34.724  21.420   9.097
 2028POPC   GL229858  34.868  21.090   9.113
 2028POPC   C1A29859  34.754  21.612   8.660
 2028POPC   D2A29860  34.657  21.638   8.195
 2028POPC   C3A29861  34.403  21.250   8.057
 2028POPC   C4A29862  34.156  21.139   7.708
 2028POPC   C1B29863  34.651  21.100   8.708
 2028POPC   C2B29864  34.863  21.198   8.300
 2028POPC   C3B29865  34.853  21.301   7.832
 2028POPC   C4B29866  34.863  21.227   7.368
 2029POPC   NC329867  43.600   6.082   9.590
 2029POPC   PO429868  44.069   5.603   9.703
 2029POPC   GL129869  43.901   5.711   9.250
 2029POPC   GL229870  43.691   5.999   9.098
 2029POPC   C1A29871  44.119   5.862   8.845
 2029POPC   D2A29872  44.235   5.941   8.402
 2029POPC   C3A29873  43.887   5.793   8.123
 2029POPC   C4A29874  43.711   5.758   7.707
 2029POPC   C1B29875  43.752   6.331   8.786
 2029POPC   C2B29876  43.856   6.272   8.349
 2029POPC   C3B29877  43.796   6.270   7.928
 2029POPC   C4B29878  43.510   6.242   7.620
 2030POPC   NC329879   7.782  29.927   9.636
 2030POPC   PO429880   8.413  29.782   9.566
 2030POPC   GL129881   8.158  30.005   9.276
 2030POPC   GL229882   8.273  30.310   9.146
 2030POPC   C1A29883   8.054  29.924   8.856
 2030POPC   D2A29884   8.008  29.690   8.485
 2030POPC   C3A29885   8.069  29.997   8.152
 2030POPC   C4A29886   8.060  30.012   7.730
 2030POPC   C1B29887   8.467  30.248   8.744
 2030POPC   C2B29888   8.466  30.322   8.292
 2030POPC   C3B29889   8.454  30.314   7.847
 2030POPC   C4B29890   8.213  30.403   7.415
 2031POPC   NC329891  39.243  33.763   9.393
 2031POPC   PO429892  38.870  33.178   9.388
 2031POPC   GL129893  39.142  33.370   9.074
 2031POPC   GL229894  39.444  33.210   8.974
 2031POPC   C1A29895  39.295  33.647   8.733
 2031POPC   D2A29896  39.511  33.848   8.387
 2031POPC   C3A29897  39.287  34.021   8.000
 2031POPC   C4A29898  38.999  33.982   7.639
 2031POPC   C1B29899  39.154  33.141   8.621
 2031POPC   C2B29900  38.955  33.372   8.296
 2031POPC   C3B29901  39.085  33.553   7.923
 2031POPC   C4B29902  39.479  33.467   7.718
 2032POPC   NC329903  12.344   3.130   9.422
 2032POPC   PO429904  11.795   3.697   9.444
 2032POPC   GL129905  11.814   3.478   9.074
 2032POPC   GL229906  12.150   3.447   9.094
 2032POPC   C1A29907  11.912   3.271   8.677
 2032POPC   D2A29908  11.993   3.531   8.329
 2032POPC   C3A29909  12.375   3.390   8.183
 2032POPC   C4A29910  12.342   3.171   7.818
 2032POPC   C1B29911  12.191   3.727   8.776
 2032POPC   C2B29912  12.355   3.891   8.401
 2032POPC   C3B29913  12.312   3.852   7.972
 2032POPC   C4B29914  12.607   4.120   7.810
 2033POPC   NC329915  24.270  18.057   9.389
 2033POPC   PO429916  23.925  18.651   9.340
 2033POPC   GL129917  24.250  18.453   9.061
 2033POPC   GL229918  24.627  18.358   9.136
 2033POPC   C1A29919  24.368  18.146   8.740
 2033POPC   D2A29920  24.697  18.114   8.431
 2033POPC   C3A29921  24.505  18.105   8.030
 2033POPC   C4A29922  24.699  17.927   7.670
 2033POPC   C1B29923  24.650  18.557   8.710
 2033POPC   C2B29924  24.575  18.588   8.258
 2033POPC   C3B29925  24.644  18.606   7.822
 2033POPC   C4B29926  24.347  18.657   7.457
 2034POPC   NC329927  25.095   5.398   9.783
 2034POPC   PO429928  25.243   4.737   9.670
 2034POPC   GL129929  25.349   5.059   9.342
 2034POPC   GL229930  25.641   5.317   9.299
 2034POPC   C1A29931  25.309   4.978   8.895
 2034POPC   D2A29932  25.305   4.778   8.494
 2034POPC   C3A29933  25.047   4.934   8.144
 2034POPC   C4A29934  25.039   4.761   7.721
 2034POPC   C1B29935  25.633   5.364   8.800
 2034POPC   C2B29936  25.450   5.313   8.324
 2034POPC   C3B29937  25.474   5.063   7.877
 2034POPC   C4B29938  25.709   5.014   7.448
 2035POPC   NC329939   6.931  35.378   9.430
 2035POPC   PO429940   7.535  35.355   9.484
 2035POPC   GL129941   7.353  35.249   9.080
 2035POPC   GL229942   7.088  35.002   9.118
 2035POPC   C1A29943   7.482  35.170   8.632
 2035POPC   D2A29944   7.491  35.475   8.261
 2035POPC   C3A29945   7.494  35.380   7.837
 2035POPC   C4A29946   7.846  35.102   7.769
 2035POPC   C1B29947   6.964  35.124   8.732
 2035POPC   C2B29948   7.045  35.260   8.353
 2035POPC   C3B29949   6.999  35.116   7.964
 2035POPC   C4B29950   7.031  35.171   7.509
 2036POPC   NC329951  11.788  40.167   9.607
 2036POPC   PO429952  12.096  39.507   9.678
 2036POPC   GL129953  11.937  39.795   9.281
 2036POPC   GL229954  12.094  40.165   9.210
 2036POPC   C1A29955  12.067  39.867   8.812
 2036POPC   D2A29956  12.206  40.148   8.455
 2036POPC   C3A29957  12.371  40.007   8.050
 2036POPC   C4A29958  12.450  39.712   7.726
 2036POPC   C1B29959  11.825  40.327   8.873
 2036POPC   C2B29960  11.717  40.243   8.441
 2036POPC   C3B29961  11.840  40.124   8.028
 2036POPC   C4B29962  11.822  40.413   7.659
 2037POPC   NC329963  30.052  33.711   9.468
 2037POPC   PO429964  30.625  34.082   9.533
 2037POPC   GL129965  30.276  33.995   9.119
 2037POPC   GL229966  29.892  33.753   9.000
 2037POPC   C1A29967  30.211  33.880   8.641
 2037POPC   D2A29968  29.989  34.022   8.269
 2037POPC   C3A29969  29.897  33.730   7.925
 2037POPC   C4A29970  30.024  33.834   7.493
 2037POPC   C1B29971  29.501  33.471   8.785
 2037POPC   C2B29972  29.385  33.249   8.356
 2037POPC   C3B29973  29.353  33.323   7.882
 2037POPC   C4B29974  29.634  33.495   7.544
 2038POPC   NC329975  34.400  31.217   9.597
 2038POPC   PO429976  34.663  30.611   9.420
 2038POPC   GL129977  34.627  30.963   9.176
 2038POPC   GL229978  34.284  30.876   9.101
 2038POPC   C1A29979  34.821  30.924   8.760
 2038POPC   D2A29980  34.804  30.541   8.470
 2038POPC   C3A29981  34.771  30.659   8.030
 2038POPC   C4A29982  34.777  31.055   7.765
 2038POPC   C1B29983  34.353  30.472   8.846
 2038POPC   C2B29984  34.284  30.315   8.429
 2038POPC   C3B29985  34.270  30.526   8.014
 2038POPC   C4B29986  34.279  30.368   7.609
 2039POPC   NC329987  38.689  13.996   9.496
 2039POPC   PO429988  38.687  13.291   9.238
 2039POPC   GL129989  38.440  13.546   8.963
 2039POPC   GL229990  38.350  13.854   9.114
 2039POPC   C1A29991  38.328  13.810   8.600
 2039POPC   D2A29992  38.066  13.921   8.261
 2039POPC   C3A29993  38.212  13.617   7.964
 2039POPC   C4A29994  38.601  13.394   7.853
 2039POPC   C1B29995  38.686  14.097   8.854
 2039POPC   C2B29996  38.889  14.115   8.449
 2039POPC   C3B29997  38.795  14.196   8.057
 2039POPC   C4B29998  38.600  13.910   7.827
 2040POPC   NC329999  15.097  30.226   9.445
 2040POPC   PO430000  15.396  29.590   9.554
 2040POPC   GL130001  15.048  29.746   9.246
 2040POPC   GL230002  15.289  29.873   9.094
 2040POPC   C1A30003  14.885  30.055   8.860
 2040POPC   D2A30004  15.026  30.270   8.446
 2040POPC   C3A30005  14.943  30.125   8.031
 2040POPC   C4A30006  15.131  30.293   7.628
 2040POPC   C1B30007  15.371  29.939   8.670
 2040POPC   C2B30008  15.434  29.726   8.297
 2040POPC   C3B30009  15.366  29.883   7.883
 2040POPC   C4B30010  15.663  30.040   7.649
 2041POPC   NC330011  13.632  30.926   9.698
 2041POPC   PO430012  13.894  30.371   9.409
 2041POPC   GL130013  13.657  30.548   9.075
 2041POPC   GL230014  13.538  30.899   9.171
 2041POPC   C1A30015  13.809  30.505   8.648
 2041POPC   D2A30016  13.742  30.725   8.275
 2041POPC   C3A30017  13.903  30.697   7.873
 2041POPC   C4A30018  13.670  30.470   7.629
 2041POPC   C1B30019  13.652  31.005   8.732
 2041POPC   C2B30020  13.434  31.098   8.314
 2041POPC   C3B30021  13.384  30.835   7.911
 2041POPC   C4B30022  13.312  30.786   7.425
 2042POPC   NC330023  37.329  23.421   9.433
 2042POPC   PO430024  37.023  24.033   9.519
 2042POPC   GL130025  36.957  23.703   9.229
 2042POPC   GL230026  36.690  23.850   9.137
 2042POPC   C1A30027  37.035  23.569   8.825
 2042POPC   D2A30028  37.224  23.753   8.457
 2042POPC   C3A30029  36.948  23.589   8.120
 2042POPC   C4A30030  36.961  23.503   7.711
 2042POPC   C1B30031  36.890  24.073   8.811
 2042POPC   C2B30032  36.767  23.970   8.396
 2042POPC   C3B30033  36.552  24.057   8.019
 2042POPC   C4B30034  36.807  23.994   7.649
 2043POPC   NC330035  38.958  40.443   9.776
 2043POPC   PO430036  39.461  40.063   9.439
 2043POPC   GL130037  39.320  39.940   9.110
 2043POPC   GL230038  39.024  39.882   9.165
 2043POPC   C1A30039  39.200  40.084   8.716
 2043POPC   D2A30040  38.976  40.297   8.435
 2043POPC   C3A30041  39.132  40.166   8.058
 2043POPC   C4A30042  39.386  40.262   7.711
 2043POPC   C1B30043  38.829  39.745   8.786
 2043POPC   C2B30044  38.729  39.861   8.358
 2043POPC   C3B30045  38.793  39.810   7.913
 2043POPC   C4B30046  38.949  39.931   7.494
 2044POPC   NC330047  18.296  25.072   9.391
 2044POPC   PO430048  17.938  25.612   9.325
 2044POPC   GL130049  18.216  25.493   9.032
 2044POPC   GL230050  18.015  25.180   8.965
 2044POPC   C1A30051  18.478  25.230   8.786
 2044POPC   D2A30052  18.347  25.065   8.425
 2044POPC   C3A30053  18.489  25.334   8.134
 2044POPC   C4A30054  18.518  25.342   7.712
 2044POPC   C1B30055  17.880  25.298   8.543
 2044POPC   C2B30056  17.911  25.340   8.082
 2044POPC   C3B30057  18.002  25.440   7.637
 2044POPC   C4B30058  18.211  25.479   7.197
 2045POPC   NC330059   3.680   7.722   9.457
 2045POPC   PO430060   3.273   7.195   9.312
 2045POPC   GL130061   3.510   7.451   9.041
 2045POPC   GL230062   3.891   7.445   9.023
 2045POPC   C1A30063   3.350   7.353   8.655
 2045POPC   D2A30064   3.279   7.144   8.279
 2045POPC   C3A30065   3.259   7.417   7.906
 2045POPC   C4A30066   3.538   7.391   7.517
 2045POPC   C1B30067   3.851   7.395   8.569
 2045POPC   C2B30068   3.585   7.614   8.272
 2045POPC   C3B30069   3.656   7.768   7.869
 2045POPC   C4B30070   3.779   7.884   7.449
 2046POPC   NC330071  30.615   8.091   9.541
 2046POPC   PO430072  31.197   8.376   9.746
 2046POPC   GL130073  31.049   8.132   9.284
 2046POPC   GL230074  30.741   8.325   9.131
 2046POPC   C1A30075  31.029   8.180   8.777
 2046POPC   D2A30076  30.935   8.017   8.380
 2046POPC   C3A30077  30.655   8.041   8.041
 2046POPC   C4A30078  30.887   8.242   7.736
 2046POPC   C1B30079  30.527   8.086   8.758
 2046POPC   C2B30080  30.238   8.041   8.373
 2046POPC   C3B30081  30.106   7.955   7.921
 2046POPC   C4B30082  30.376   8.102   7.583
 2047POPC   NC330083   5.063  13.608   9.485
 2047POPC   PO430084   5.473  14.003   9.346
 2047POPC   GL130085   5.409  13.543   9.106
 2047POPC   GL230086   5.085  13.450   9.007
 2047POPC   C1A30087   5.593  13.296   8.735
 2047POPC   D2A30088   5.695  13.445   8.306
 2047POPC   C3A30089   5.338  13.575   8.056
 2047POPC   C4A30090   5.018  13.575   7.738
 2047POPC   C1B30091   5.181  13.583   8.573
 2047POPC   C2B30092   4.873  13.503   8.236
 2047POPC   C3B30093   4.548  13.454   7.917
 2047POPC   C4B30094   4.552  13.645   7.473
 2048POPC   NC330095  15.410  36.056   9.700
 2048POPC   PO430096  14.815  36.352   9.605
 2048POPC   GL130097  15.008  36.021   9.310
 2048POPC   GL230098  15.378  36.040   9.207
 2048POPC   C1A30099  15.031  35.923   8.852
 2048POPC   D2A30100  14.957  35.615   8.513
 2048POPC   C3A30101  14.972  35.846   8.117
 2048POPC   C4A30102  15.277  35.806   7.777
 2048POPC   C1B30103  15.480  36.169   8.817
 2048POPC   C2B30104  15.258  36.165   8.426
 2048POPC   C3B30105  15.313  36.249   7.994
 2048POPC   C4B30106  15.218  36.340   7.562
 2049POPC   NC330107  12.798  30.389   9.569
 2049POPC   PO430108  13.202  30.864   9.573
 2049POPC   GL130109  13.019  30.700   9.202
 2049POPC   GL230110  12.817  30.965   9.209
 2049POPC   C1A30111  12.836  30.719   8.762
 2049POPC   D2A30112  13.131  30.702   8.426
 2049POPC   C3A30113  13.014  30.510   8.046
 2049POPC   C4A30114  12.756  30.618   7.694
 2049POPC   C1B30115  13.139  31.095   8.874
 2049POPC   C2B30116  12.969  31.211   8.478
 2049POPC   C3B30117  12.813  30.986   8.115
 2049POPC   C4B30118  12.971  31.076   7.704
 2050POPC   NC330119  42.401  32.027   9.546
 2050POPC   PO430120  42.808  32.543   9.428
 2050POPC   GL130121  42.543  32.382   9.062
 2050POPC   GL230122  42.503  32.067   9.055
 2050POPC   C1A30123  42.293  32.441   8.679
 2050POPC   D2A30124  42.195  32.606   8.258
 2050POPC   C3A30125  42.159  32.447   7.850
 2050POPC   C4A30126  42.299  32.393   7.438
 2050POPC   C1B30127  42.133  31.968   8.809
 2050POPC   C2B30128  41.916  32.147   8.475
 2050POPC   C3B30129  42.007  31.999   8.071
 2050POPC   C4B30130  42.233  31.947   7.697
 2051POPC   NC330131   4.786  34.229   9.489
 2051POPC   PO430132   5.262  33.793   9.586
 2051POPC   GL130133   5.185  33.906   9.182
 2051POPC   GL230134   4.839  33.839   9.139
 2051POPC   C1A30135   5.397  33.709   8.826
 2051POPC   D2A30136   5.288  33.541   8.451
 2051POPC   C3A30137   5.419  33.777   8.138
 2051POPC   C4A30138   5.112  33.800   7.861
 2051POPC   C1B30139   4.950  33.915   8.717
 2051POPC   C2B30140   4.984  34.014   8.312
 2051POPC   C3B30141   4.664  33.830   8.100
 2051POPC   C4B30142   4.665  33.592   7.732
 2052POPC   NC330143  38.625  30.929   9.420
 2052POPC   PO430144  38.837  30.316   9.458
 2052POPC   GL130145  38.705  30.525   9.117
 2052POPC   GL230146  38.361  30.483   9.056
 2052POPC   C1A30147  38.669  30.795   8.780
 2052POPC   D2A30148  38.726  31.088   8.471
 2052POPC   C3A30149  38.577  30.860   8.076
 2052POPC   C4A30150  38.410  30.817   7.649
 2052POPC   C1B30151  38.147  30.273   8.724
 2052POPC   C2B30152  38.037  30.453   8.302
 2052POPC   C3B30153  38.066  30.547   7.877
 2052POPC   C4B30154  38.102  30.293   7.485
 2053POPC   NC330155   7.158  19.082   9.456
 2053POPC   PO430156   7.811  19.342   9.484
 2053POPC   GL130157   7.555  19.296   9.094
 2053POPC   GL230158   7.338  18.968   9.008
 2053POPC   C1A30159   7.682  19.112   8.684
 2053POPC   D2A30160   7.429  18.913   8.406
 2053POPC   C3A30161   7.322  19.130   8.025
 2053POPC   C4A30162   7.501  19.337   7.688
 2053POPC   C1B30163   7.619  18.631   8.874
 2053POPC   C2B30164   7.670  18.443   8.463
 2053POPC   C3B30165   7.673  18.593   8.060
 2053POPC   C4B30166   7.783  18.953   7.830
 2054POPC   NC330167  16.787   6.052   9.416
 2054POPC   PO430168  16.941   5.355   9.457
 2054POPC   GL130169  16.730   5.571   9.054
 2054POPC   GL230170  16.630   5.918   8.971
 2054POPC   C1A30171  16.890   5.632   8.632
 2054POPC   D2A30172  16.706   5.812   8.282
 2054POPC   C3A30173  16.701   5.596   7.864
 2054POPC   C4A30174  16.850   5.613   7.429
 2054POPC   C1B30175  16.613   6.188   8.619
 2054POPC   C2B30176  16.695   6.322   8.199
 2054POPC   C3B30177  16.538   6.078   7.863
 2054POPC   C4B30178  16.278   6.204   7.547
 2055POPC   NC330179  15.688  21.552   9.487
 2055POPC   PO430180  16.377  21.576   9.432
 2055POPC   GL130181  16.226  21.634   9.038
 2055POPC   GL230182  16.007  21.359   9.102
 2055POPC   C1A30183  16.229  21.419   8.619
 2055POPC   D2A30184  16.008  21.109   8.354
 2055POPC   C3A30185  15.888  21.267   7.968
 2055POPC   C4A30186  16.086  21.499   7.624
 2055POPC   C1B30187  15.671  21.405   8.825
 2055POPC   C2B30188  15.612  21.452   8.411
 2055POPC   C3B30189  15.403  21.452   8.033
 2055POPC   C4B30190  15.523  21.424   7.663
 2056POPC   NC330191  32.707   4.639   9.567
 2056POPC   PO430192  32.874   5.340   9.574
 2056POPC   GL130193  33.052   5.274   9.161
 2056POPC   GL230194  32.943   4.950   9.216
 2056POPC   C1A30195  33.008   5.116   8.730
 2056POPC   D2A30196  32.767   5.310   8.394
 2056POPC   C3A30197  32.924   5.264   7.972
 2056POPC   C4A30198  32.745   5.313   7.540
 2056POPC   C1B30199  32.576   4.924   8.991
 2056POPC   C2B30200  32.556   4.881   8.571
 2056POPC   C3B30201  32.558   4.864   8.135
 2056POPC   C4B30202  32.757   4.842   7.741
 2057POPC   NC330203  10.407  33.353   9.400
 2057POPC   PO430204  10.653  32.733   9.370
 2057POPC   GL130205  10.471  32.708   8.996
 2057POPC   GL230206  10.172  32.831   9.117
 2057POPC   C1A30207  10.503  33.039   8.666
 2057POPC   D2A30208  10.641  33.383   8.357
 2057POPC   C3A30209  10.770  33.117   8.023
 2057POPC   C4A30210  10.749  32.674   7.915
 2057POPC   C1B30211  10.047  32.612   8.737
 2057POPC   C2B30212  10.188  32.727   8.354
 2057POPC   C3B30213  10.122  32.865   7.952
 2057POPC   C4B30214  10.139  32.735   7.545
 2058POPC   NC330215  40.362  38.395   9.429
 2058POPC   PO430216  40.875  38.185   9.633
 2058POPC   GL130217  40.833  38.375   9.204
 2058POPC   GL230218  40.713  38.067   9.109
 2058POPC   C1A30219  40.565  38.443   8.771
 2058POPC   D2A30220  40.427  38.603   8.340
 2058POPC   C3A30221  40.649  38.508   7.939
 2058POPC   C4A30222  40.682  38.505   7.483
 2058POPC   C1B30223  41.007  38.189   8.758
 2058POPC   C2B30224  40.968  38.418   8.362
 2058POPC   C3B30225  41.070  38.228   7.963
 2058POPC   C4B30226  41.163  38.368   7.586
 2059POPC   NC330227  44.328  41.080   9.377
 2059POPC   PO430228  44.932  41.232   9.459
 2059POPC   GL130229  44.692  41.518   9.171
 2059POPC   GL230230  44.792  41.890   9.224
 2059POPC   C1A30231  44.424  41.524   8.761
 2059POPC   D2A30232  44.224  41.611   8.327
 2059POPC   C3A30233  44.340  41.398   7.936
 2059POPC   C4A30234  44.651  41.303   7.593
 2059POPC   C1B30235  44.642  41.971   8.842
 2059POPC   C2B30236  44.498  42.040   8.443
 2059POPC   C3B30237  44.589  41.854   8.039
 2059POPC   C4B30238  44.854  41.765   7.666
 2060POPC   NC330239  23.932   3.171   9.477
 2060POPC   PO430240  23.784   3.777   9.512
 2060POPC   GL130241  23.818   3.605   9.135
 2060POPC   GL230242  23.606   3.383   9.076
 2060POPC   C1A30243  23.935   3.488   8.704
 2060POPC   D2A30244  24.054   3.442   8.281
 2060POPC   C3A30245  24.022   3.730   7.961
 2060POPC   C4A30246  23.757   3.709   7.606
 2060POPC   C1B30247  23.463   3.664   8.778
 2060POPC   C2B30248  23.368   3.477   8.442
 2060POPC   C3B30249  23.516   3.582   8.045
 2060POPC   C4B30250  23.354   3.347   7.779
 2061POPC   NC330251   4.055  33.251   9.425
 2061POPC   PO430252   4.451  33.884   9.470
 2061POPC   GL130253   4.194  33.687   9.194
 2061POPC   GL230254   4.445  33.485   9.089
 2061POPC   C1A30255   4.035  33.554   8.787
 2061POPC   D2A30256   4.034  33.824   8.418
 2061POPC   C3A30257   4.194  33.638   8.012
 2061POPC   C4A30258   4.081  33.796   7.600
 2061POPC   C1B30259   4.462  33.814   8.771
 2061POPC   C2B30260   4.546  34.174   8.524
 2061POPC   C3B30261   4.541  34.332   8.109
 2061POPC   C4B30262   4.475  34.082   7.690
 2062POPC   NC330263   1.735  30.858   9.468
 2062POPC   PO430264   1.984  31.499   9.668
 2062POPC   GL130265   1.813  31.414   9.285
 2062POPC   GL230266   1.580  31.709   9.329
 2062POPC   C1A30267   2.031  31.377   8.862
 2062POPC   D2A30268   2.169  31.662   8.526
 2062POPC   C3A30269   2.035  31.538   8.134
 2062POPC   C4A30270   2.112  31.265   7.793
 2062POPC   C1B30271   1.553  31.610   8.879
 2062POPC   C2B30272   1.650  31.451   8.489
 2062POPC   C3B30273   1.605  31.239   8.093
 2062POPC   C4B30274   1.669  31.509   7.750
 2063POPC   NC330275  28.323  27.774   9.605
 2063POPC   PO430276  28.966  27.874   9.498
 2063POPC   GL130277  28.843  27.705   9.132
 2063POPC   GL230278  28.822  27.364   9.199
 2063POPC   C1A30279  29.118  27.775   8.792
 2063POPC   D2A30280  29.166  28.054   8.439
 2063POPC   C3A30281  29.267  27.828   8.042
 2063POPC   C4A30282  29.521  27.718   7.684
 2063POPC   C1B30283  28.888  27.316   8.749
 2063POPC   C2B30284  28.995  27.521   8.360
 2063POPC   C3B30285  28.918  27.445   7.920
 2063POPC   C4B30286  29.127  27.386   7.532
 2064POPC   NC330287   7.737  11.038   9.560
 2064POPC   PO430288   7.070  11.316   9.685
 2064POPC   GL130289   7.275  11.365   9.276
 2064POPC   GL230290   6.981  11.383   9.071
 2064POPC   C1A30291   7.479  11.207   8.887
 2064POPC   D2A30292   7.651  11.292   8.479
 2064POPC   C3A30293   7.449  11.249   8.049
 2064POPC   C4A30294   7.492  11.283   7.593
 2064POPC   C1B30295   7.029  11.006   8.794
 2064POPC   C2B30296   7.175  10.931   8.375
 2064POPC   C3B30297   7.050  10.890   7.946
 2064POPC   C4B30298   7.001  11.246   7.645
 2065POPC   NC330299   1.721  44.879   9.384
 2065POPC   PO430300   2.177  44.536   9.713
 2065POPC   GL130301   2.158  44.593   9.232
 2065POPC   GL230302   2.156  44.949   9.087
 2065POPC   C1A30303   1.995  44.523   8.794
 2065POPC   D2A30304   2.124  44.698   8.372
 2065POPC   C3A30305   1.849  44.559   8.045
 2065POPC   C4A30306   1.921  44.295   7.719
 2065POPC   C1B30307   1.832  44.997   8.733
 2065POPC   C2B30308   1.776   0.045   8.270
 2065POPC   C3B30309   1.975   0.026   7.874
 2065POPC   C4B30310   1.823  44.782   7.517
 2066POPC   NC330311  11.859  13.923   9.559
 2066POPC   PO430312  12.260  13.379   9.435
 2066POPC   GL130313  12.119  13.580   9.095
 2066POPC   GL230314  12.220  13.900   9.196
 2066POPC   C1A30315  11.999  13.502   8.665
 2066POPC   D2A30316  11.998  13.605   8.221
 2066POPC   C3A30317  12.115  13.475   7.856
 2066POPC   C4A30318  12.130  13.400   7.394
 2066POPC   C1B30319  11.993  14.007   8.824
 2066POPC   C2B30320  11.729  13.984   8.455
 2066POPC   C3B30321  11.650  13.918   8.009
 2066POPC   C4B30322  11.965  13.990   7.695
 2067POPC   NC330323  38.280   7.655   9.513
 2067POPC   PO430324  38.472   7.053   9.432
 2067POPC   GL130325  38.473   7.363   9.113
 2067POPC   GL230326  38.677   7.626   9.157
 2067POPC   C1A30327  38.380   7.566   8.719
 2067POPC   D2A30328  38.295   7.390   8.317
 2067POPC   C3A30329  38.361   7.656   7.959
 2067POPC   C4A30330  38.407   7.636   7.515
 2067POPC   C1B30331  38.867   7.688   8.797
 2067POPC   C2B30332  38.812   7.459   8.414
 2067POPC   C3B30333  38.727   7.288   8.026
 2067POPC   C4B30334  38.876   7.549   7.690
 2068POPC   NC330335   2.477   9.098   9.502
 2068POPC   PO430336   2.946   8.590   9.553
 2068POPC   GL130337   2.710   8.727   9.193
 2068POPC   GL230338   2.854   9.069   9.149
 2068POPC   C1A30339   2.789   8.750   8.729
 2068POPC   D2A30340   2.512   8.759   8.385
 2068POPC   C3A30341   2.632   8.733   7.987
 2068POPC   C4A30342   2.877   8.888   7.662
 2068POPC   C1B30343   2.802   9.268   8.740
 2068POPC   C2B30344   2.765   9.198   8.299
 2068POPC   C3B30345   2.548   9.236   7.922
 2068POPC   C4B30346   2.558   9.260   7.497
 2069POPC   NC330347   3.383  17.144   9.558
 2069POPC   PO430348   3.582  16.638   9.820
 2069POPC   GL130349   3.611  16.727   9.330
 2069POPC   GL230350   3.953  16.770   9.145
 2069POPC   C1A30351   3.524  16.853   8.872
 2069POPC   D2A30352   3.671  16.862   8.416
 2069POPC   C3A30353   3.408  16.816   8.012
 2069POPC   C4A30354   3.208  16.838   7.576
 2069POPC   C1B30355   3.989  17.090   8.781
 2069POPC   C2B30356   3.937  17.299   8.383
 2069POPC   C3B30357   3.822  17.133   7.992
 2069POPC   C4B30358   3.923  17.342   7.677
 2070POPC   NC330359  41.782   5.973   9.364
 2070POPC   PO430360  41.076   5.702   9.396
 2070POPC   GL130361  41.399   5.784   9.072
 2070POPC   GL230362  41.470   6.145   9.001
 2070POPC   C1A30363  41.710   5.682   8.745
 2070POPC   D2A30364  41.644   5.573   8.335
 2070POPC   C3A30365  41.691   5.549   7.930
 2070POPC   C4A30366  41.343   5.543   7.663
 2070POPC   C1B30367  41.783   6.180   8.663
 2070POPC   C2B30368  41.831   6.048   8.219
 2070POPC   C3B30369  41.513   6.033   7.898
 2070POPC   C4B30370  41.484   6.289   7.545
 2071POPC   NC330371   8.932  31.743   9.483
 2071POPC   PO430372   8.769  31.012   9.431
 2071POPC   GL130373   9.049  31.246   9.088
 2071POPC   GL230374   8.942  31.595   9.014
 2071POPC   C1A30375   9.103  31.310   8.626
 2071POPC   D2A30376   8.758  31.264   8.301
 2071POPC   C3A30377   8.840  31.074   7.929
 2071POPC   C4A30378   9.068  31.276   7.580
 2071POPC   C1B30379   8.698  31.620   8.655
 2071POPC   C2B30380   8.979  31.723   8.312
 2071POPC   C3B30381   8.956  31.597   7.922
 2071POPC   C4B30382   8.685  31.706   7.558
 2072POPC   NC330383  44.206   3.010   9.463
 2072POPC   PO430384  43.563   3.105   9.569
 2072POPC   GL130385  43.646   2.856   9.203
 2072POPC   GL230386  43.961   2.662   9.177
 2072POPC   C1A30387  43.569   2.767   8.785
 2072POPC   D2A30388  43.666   2.980   8.421
 2072POPC   C3A30389  43.661   2.841   8.014
 2072POPC   C4A30390  43.909   2.791   7.649
 2072POPC   C1B30391  43.950   2.405   8.807
 2072POPC   C2B30392  43.916   2.524   8.385
 2072POPC   C3B30393  44.188   2.723   8.085
 2072POPC   C4B30394  44.275   2.469   7.723
 2073POPC   NC330395  15.832  28.169   9.596
 2073POPC   PO430396  16.011  28.802   9.601
 2073POPC   GL130397  15.892  28.568   9.206
 2073POPC   GL230398  16.232  28.437   9.162
 2073POPC   C1A30399  15.660  28.590   8.765
 2073POPC   D2A30400  15.487  28.664   8.327
 2073POPC   C3A30401  15.749  28.564   7.981
 2073POPC   C4A30402  15.876  28.549   7.563
 2073POPC   C1B30403  16.078  28.292   8.777
 2073POPC   C2B30404  15.823  28.249   8.390
 2073POPC   C3B30405  15.933  28.070   7.978
 2073POPC   C4B30406  16.191  28.123   7.595
 2074POPC   NC330407   6.227  15.862   9.724
 2074POPC   PO430408   6.772  16.026   9.465
 2074POPC   GL130409   6.615  16.070   9.103
 2074POPC   GL230410   6.296  16.061   9.222
 2074POPC   C1A30411   6.749  16.086   8.699
 2074POPC   D2A30412   6.857  15.819   8.381
 2074POPC   C3A30413   6.655  15.793   8.017
 2074POPC   C4A30414   6.971  15.634   7.746
 2074POPC   C1B30415   6.266  15.822   8.842
 2074POPC   C2B30416   6.296  15.892   8.402
 2074POPC   C3B30417   6.268  16.142   8.017
 2074POPC   C4B30418   6.550  16.223   7.683
 2075POPC   NC330419  40.503  28.916   9.268
 2075POPC   PO430420  40.958  29.380   9.587
 2075POPC   GL130421  40.972  29.123   9.178
 2075POPC   GL230422  41.092  28.761   9.138
 2075POPC   C1A30423  40.823  29.298   8.768
 2075POPC   D2A30424  40.620  29.402   8.358
 2075POPC   C3A30425  40.864  29.341   7.980
 2075POPC   C4A30426  40.683  29.000   7.750
 2075POPC   C1B30427  40.967  28.807   8.678
 2075POPC   C2B30428  40.908  28.887   8.223
 2075POPC   C3B30429  41.164  28.909   7.814
 2075POPC   C4B30430  41.004  28.879   7.369
 2076POPC   NC330431   8.003  35.448   9.478
 2076POPC   PO430432   8.408  34.961   9.697
 2076POPC   GL130433   8.238  35.040   9.207
 2076POPC   GL230434   7.889  35.219   9.052
 2076POPC   C1A30435   8.239  35.101   8.726
 2076POPC   D2A30436   7.963  35.206   8.376
 2076POPC   C3A30437   8.252  35.277   8.049
 2076POPC   C4A30438   8.309  35.309   7.603
 2076POPC   C1B30439   8.151  35.587   8.835
 2076POPC   C2B30440   8.112  35.731   8.399
 2076POPC   C3B30441   7.915  35.662   7.999
 2076POPC   C4B30442   8.109  35.834   7.641
 2077POPC   NC330443   6.117  10.748   9.698
 2077POPC   PO430444   5.781  10.153   9.540
 2077POPC   GL130445   5.807  10.467   9.224
 2077POPC   GL230446   6.150  10.537   9.237
 2077POPC   C1A30447   5.663  10.430   8.792
 2077POPC   D2A30448   5.653  10.628   8.396
 2077POPC   C3A30449   5.627  10.372   8.029
 2077POPC   C4A30450   5.823  10.345   7.642
 2077POPC   C1B30451   6.070  10.775   8.874
 2077POPC   C2B30452   6.169  10.681   8.456
 2077POPC   C3B30453   6.032  10.660   8.048
 2077POPC   C4B30454   6.153  10.730   7.672
 2078POPC   NC330455  32.015  31.311   9.459
 2078POPC   PO430456  32.634  31.526   9.668
 2078POPC   GL130457  32.571  31.521   9.189
 2078POPC   GL230458  32.625  31.865   9.039
 2078POPC   C1A30459  32.397  31.243   8.800
 2078POPC   D2A30460  32.503  31.177   8.358
 2078POPC   C3A30461  32.249  31.245   7.997
 2078POPC   C4A30462  32.260  31.295   7.539
 2078POPC   C1B30463  32.767  31.561   8.720
 2078POPC   C2B30464  32.801  31.615   8.307
 2078POPC   C3B30465  32.469  31.701   8.078
 2078POPC   C4B30466  32.392  31.806   7.666
 2079POPC   NC330467  16.300  34.700   9.486
 2079POPC   PO430468  15.655  34.445   9.653
 2079POPC   GL130469  15.847  34.645   9.288
 2079POPC   GL230470  16.016  34.335   9.166
 2079POPC   C1A30471  15.944  34.704   8.822
 2079POPC   D2A30472  15.745  34.392   8.509
 2079POPC   C3A30473  15.767  34.431   8.035
 2079POPC   C4A30474  16.051  34.749   7.873
 2079POPC   C1B30475  16.199  34.268   8.730
 2079POPC   C2B30476  16.224  34.362   8.244
 2079POPC   C3B30477  16.214  34.261   7.763
 2079POPC   C4B30478  16.202  34.180   7.266
 2080POPC   NC330479  37.434  21.141   9.552
 2080POPC   PO430480  37.985  21.657   9.464
 2080POPC   GL130481  37.634  21.494   9.202
 2080POPC   GL230482  37.769  21.199   9.170
 2080POPC   C1A30483  37.439  21.277   8.812
 2080POPC   D2A30484  37.668  21.355   8.428
 2080POPC   C3A30485  37.504  21.222   8.041
 2080POPC   C4A30486  37.518  21.556   7.768
 2080POPC   C1B30487  37.936  21.114   8.800
 2080POPC   C2B30488  38.118  21.104   8.386
 2080POPC   C3B30489  38.063  20.917   7.970
 2080POPC   C4B30490  37.820  21.118   7.623
 2081POPC   NC330491  19.963   2.462   9.448
 2081POPC   PO430492  19.596   3.063   9.478
 2081POPC   GL130493  19.731   2.834   9.131
 2081POPC   GL230494  19.606   2.510   9.053
 2081POPC   C1A30495  19.815   2.870   8.689
 2081POPC   D2A30496  19.717   2.588   8.375
 2081POPC   C3A30497  19.663   2.803   8.035
 2081POPC   C4A30498  19.450   2.762   7.686
 2081POPC   C1B30499  19.973   2.416   8.800
 2081POPC   C2B30500  20.208   2.592   8.474
 2081POPC   C3B30501  20.135   2.516   8.040
 2081POPC   C4B30502  20.024   2.746   7.686
 2082POPC   NC330503  14.961  35.198   9.457
 2082POPC   PO430504  14.409  35.563   9.428
 2082POPC   GL130505  14.430  35.405   9.066
 2082POPC   GL230506  14.525  35.069   9.175
 2082POPC   C1A30507  14.249  35.503   8.683
 2082POPC   D2A30508  14.043  35.244   8.385
 2082POPC   C3A30509  14.242  35.383   8.042
 2082POPC   C4A30510  14.687  35.463   7.870
 2082POPC   C1B30511  14.260  35.003   8.813
 2082POPC   C2B30512  14.460  34.950   8.418
 2082POPC   C3B30513  14.554  34.995   8.006
 2082POPC   C4B30514  14.386  35.094   7.605
 2083POPC   NC330515  38.356  24.377   9.774
 2083POPC   PO430516  38.460  24.953   9.737
 2083POPC   GL130517  38.569  24.618   9.331
 2083POPC   GL230518  38.333  24.320   9.218
 2083POPC   C1A30519  38.485  24.604   8.848
 2083POPC   D2A30520  38.193  24.601   8.486
 2083POPC   C3A30521  38.406  24.473   8.122
 2083POPC   C4A30522  38.406  24.542   7.700
 2083POPC   C1B30523  38.132  24.201   8.808
 2083POPC   C2B30524  38.188  24.055   8.358
 2083POPC   C3B30525  38.222  24.059   7.888
 2083POPC   C4B30526  38.687  24.109   7.710
 2084POPC   NC330527  32.185   0.280   9.569
 2084POPC   PO430528  31.925   0.958   9.434
 2084POPC   GL130529  32.177   0.680   9.158
 2084POPC   GL230530  32.481   0.854   8.986
 2084POPC   C1A30531  32.205   0.445   8.780
 2084POPC   D2A30532  32.330   0.373   8.334
 2084POPC   C3A30533  32.163   0.355   7.929
 2084POPC   C4A30534  32.232   0.221   7.486
 2084POPC   C1B30535  32.652   0.652   8.600
 2084POPC   C2B30536  32.819   0.245   8.434
 2084POPC   C3B30537  32.656   0.167   8.003
 2084POPC   C4B30538  32.613   0.495   7.678
 2085POPC   NC330539  20.583  29.236   9.417
 2085POPC   PO430540  20.686  28.598   9.464
 2085POPC   GL130541  20.659  28.843   9.116
 2085POPC   GL230542  20.338  28.997   9.038
 2085POPC   C1A30543  20.752  29.089   8.769
 2085POPC   D2A30544  20.987  29.189   8.416
 2085POPC   C3A30545  20.854  29.234   8.031
 2085POPC   C4A30546  20.872  29.023   7.658
 2085POPC   C1B30547  20.317  29.385   8.802
 2085POPC   C2B30548  20.489  29.352   8.400
 2085POPC   C3B30549  20.288  29.393   8.044
 2085POPC   C4B30550  20.489  29.359   7.693
 2086POPC   NC330551   9.248  19.591   9.561
 2086POPC   PO430552   9.359  20.316   9.517
 2086POPC   GL130553   9.172  20.007   9.230
 2086POPC   GL230554   8.815  20.026   9.166
 2086POPC   C1A30555   9.145  19.805   8.826
 2086POPC   D2A30556   9.214  19.516   8.523
 2086POPC   C3A30557   9.223  19.770   8.168
 2086POPC   C4A30558   9.190  19.706   7.732
 2086POPC   C1B30559   8.636  19.892   8.752
 2086POPC   C2B30560   8.740  19.691   8.333
 2086POPC   C3B30561   8.687  19.800   7.879
 2086POPC   C4B30562   8.525  19.932   7.452
 2087POPC   NC330563  13.902  24.315   9.715
 2087POPC   PO430564  13.703  23.736   9.464
 2087POPC   GL130565  13.657  23.688   9.034
 2087POPC   GL230566  13.344  23.860   9.044
 2087POPC   C1A30567  13.625  23.928   8.629
 2087POPC   D2A30568  13.834  23.905   8.236
 2087POPC   C3A30569  13.769  23.871   7.788
 2087POPC   C4A30570  13.928  23.710   7.392
 2087POPC   C1B30571  13.308  23.478   8.763
 2087POPC   C2B30572  13.357  23.613   8.353
 2087POPC   C3B30573  13.542  23.487   8.024
 2087POPC   C4B30574  13.401  23.492   7.605
 2088POPC   NC330575  30.559  15.537   9.456
 2088POPC   PO430576  30.321  16.180   9.372
 2088POPC   GL130577  30.557  16.077   8.950
 2088POPC   GL230578  30.754  15.788   9.029
 2088POPC   C1A30579  30.663  15.981   8.514
 2088POPC   D2A30580  30.444  15.680   8.240
 2088POPC   C3A30581  30.552  15.878   7.884
 2088POPC   C4A30582  30.828  16.202   7.981
 2088POPC   C1B30583  31.107  15.889   8.746
 2088POPC   C2B30584  31.173  15.934   8.282
 2088POPC   C3B30585  31.035  15.698   7.903
 2088POPC   C4B30586  31.020  15.771   7.451
 2089POPC   NC330587  15.828  22.542   9.485
 2089POPC   PO430588  16.180  23.125   9.573
 2089POPC   GL130589  15.964  23.064   9.167
 2089POPC   GL230590  15.901  22.691   9.005
 2089POPC   C1A30591  15.866  23.128   8.727
 2089POPC   D2A30592  15.870  22.738   8.470
 2089POPC   C3A30593  16.117  22.821   8.108
 2089POPC   C4A30594  15.963  23.119   7.825
 2089POPC   C1B30595  15.667  22.323   8.749
 2089POPC   C2B30596  15.489  22.431   8.292
 2089POPC   C3B30597  15.576  22.793   8.011
 2089POPC   C4B30598  15.398  23.161   7.782
 2090POPC   NC330599  25.216  44.748   9.551
 2090POPC   PO430600  24.676  44.419   9.555
 2090POPC   GL130601  24.990  44.437   9.208
 2090POPC   GL230602  25.399  44.498   9.134
 2090POPC   C1A30603  25.025  44.662   8.833
 2090POPC   D2A30604  24.877  44.809   8.476
 2090POPC   C3A30605  25.054  44.576   8.176
 2090POPC   C4A30606  25.252  44.675   7.809
 2090POPC   C1B30607  25.481  44.413   8.676
 2090POPC   C2B30608  25.597  44.474   8.225
 2090POPC   C3B30609  25.619  44.312   7.786
 2090POPC   C4B30610  25.637  44.125   7.360
 2091POPC   NC330611  33.702   4.597   9.483
 2091POPC   PO430612  34.207   4.045   9.555
 2091POPC   GL130613  33.960   4.053   9.175
 2091POPC   GL230614  33.604   4.232   9.146
 2091POPC   C1A30615  33.967   4.259   8.795
 2091POPC   D2A30616  33.820   4.434   8.453
 2091POPC   C3A30617  33.876   4.349   8.070
 2091POPC   C4A30618  33.852   4.306   7.666
 2091POPC   C1B30619  33.446   4.444   8.789
 2091POPC   C2B30620  33.302   4.445   8.349
 2091POPC   C3B30621  33.386   4.314   7.910
 2091POPC   C4B30622  33.424   4.533   7.496
 2092POPC   NC330623  35.944  31.099   9.514
 2092POPC   PO430624  36.161  30.414   9.525
 2092POPC   GL130625  36.048  30.577   9.128
 2092POPC   GL230626  36.191  30.905   9.082
 2092POPC   C1A30627  36.250  30.465   8.752
 2092POPC   D2A30628  36.337  30.628   8.348
 2092POPC   C3A30629  36.152  30.540   7.961
 2092POPC   C4A30630  36.082  30.899   7.709
 2092POPC   C1B30631  36.515  30.914   8.766
 2092POPC   C2B30632  36.632  31.032   8.372
 2092POPC   C3B30633  36.498  30.960   7.961
 2092POPC   C4B30634  36.511  31.064   7.497
 2093POPC   NC330635  40.135  39.249   9.408
 2093POPC   PO430636  39.476  39.292   9.616
 2093POPC   GL130637  39.673  39.204   9.207
 2093POPC   GL230638  39.634  38.860   9.166
 2093POPC   C1A30639  39.825  39.421   8.796
 2093POPC   D2A30640  40.107  39.595   8.465
 2093POPC   C3A30641  39.976  39.466   8.044
 2093POPC   C4A30642  39.594  39.309   7.844
 2093POPC   C1B30643  39.892  38.908   8.786
 2093POPC   C2B30644  40.001  39.047   8.367
 2093POPC   C3B30645  39.956  38.954   7.923
 2093POPC   C4B30646  39.717  38.877   7.527
 2094POPC   NC330647  12.311  23.575   9.426
 2094POPC   PO430648  11.764  24.063   9.385
 2094POPC   GL130649  12.009  23.874   9.034
 2094POPC   GL230650  11.962  23.517   9.050
 2094POPC   C1A30651  12.009  23.747   8.586
 2094POPC   D2A30652  12.320  23.665   8.242
 2094POPC   C3A30653  12.250  23.859   7.832
 2094POPC   C4A30654  12.224  23.837   7.368
 2094POPC   C1B30655  11.635  23.394   8.744
 2094POPC   C2B30656  11.538  23.610   8.365
 2094POPC   C3B30657  11.834  23.748   8.078
 2094POPC   C4B30658  11.863  23.606   7.623
 2095POPC   NC330659   2.501  36.563   9.590
 2095POPC   PO430660   2.975  36.973   9.571
 2095POPC   GL130661   2.847  36.713   9.204
 2095POPC   GL230662   2.502  36.695   9.094
 2095POPC   C1A30663   2.912  36.643   8.764
 2095POPC   D2A30664   2.941  36.858   8.373
 2095POPC   C3A30665   2.967  36.646   7.989
 2095POPC   C4A30666   3.012  36.819   7.563
 2095POPC   C1B30667   2.465  36.857   8.636
 2095POPC   C2B30668   2.491  36.696   8.209
 2095POPC   C3B30669   2.558  36.865   7.807
 2095POPC   C4B30670   2.755  37.272   7.735
 2096POPC   NC330671  37.236  12.740   9.408
 2096POPC   PO430672  37.831  13.087   9.400
 2096POPC   GL130673  37.622  12.925   9.070
 2096POPC   GL230674  37.929  12.784   8.998
 2096POPC   C1A30675  37.643  13.064   8.651
 2096POPC   D2A30676  37.800  12.916   8.264
 2096POPC   C3A30677  37.518  12.865   7.938
 2096POPC   C4A30678  37.588  12.685   7.513
 2096POPC   C1B30679  37.700  12.562   8.683
 2096POPC   C2B30680  37.837  12.403   8.301
 2096POPC   C3B30681  37.937  12.555   7.882
 2096POPC   C4B30682  38.093  12.507   7.454
 2097POPC   NC330683   4.420  40.735   9.742
 2097POPC   PO430684   3.997  41.184   9.292
 2097POPC   GL130685   4.136  40.993   8.976
 2097POPC   GL230686   4.387  40.832   9.076
 2097POPC   C1A30687   4.255  40.966   8.580
 2097POPC   D2A30688   4.276  41.208   8.244
 2097POPC   C3A30689   4.092  40.913   8.007
 2097POPC   C4A30690   4.322  40.673   7.759
 2097POPC   C1B30691   4.476  40.514   8.721
 2097POPC   C2B30692   4.386  40.471   8.254
 2097POPC   C3B30693   4.569  40.256   7.837
 2097POPC   C4B30694   4.642  40.347   7.362
 2098POPC   NC330695  28.641  11.164   9.742
 2098POPC   PO430696  28.158  10.996   9.550
 2098POPC   GL130697  28.518  11.146   9.233
 2098POPC   GL230698  28.760  11.451   9.225
 2098POPC   C1A30699  28.578  11.197   8.767
 2098POPC   D2A30700  28.698  11.101   8.321
 2098POPC   C3A30701  28.466  11.281   7.942
 2098POPC   C4A30702  28.107  11.208   7.641
 2098POPC   C1B30703  28.903  11.588   8.777
 2098POPC   C2B30704  28.937  11.572   8.293
 2098POPC   C3B30705  28.838  11.659   7.841
 2098POPC   C4B30706  28.727  11.416   7.493
 2099POPC   NC330707  42.829  11.585  10.051
 2099POPC   PO430708  42.779  11.073   9.694
 2099POPC   GL130709  42.781  11.058   9.247
 2099POPC   GL230710  42.917  11.361   9.219
 2099POPC   C1A30711  42.904  11.033   8.811
 2099POPC   D2A30712  43.113  11.277   8.507
 2099POPC   C3A30713  42.976  11.173   8.110
 2099POPC   C4A30714  43.107  11.212   7.707
 2099POPC   C1B30715  42.804  11.557   8.821
 2099POPC   C2B30716  42.865  11.724   8.415
 2099POPC   C3B30717  43.125  11.650   8.056
 2099POPC   C4B30718  42.763  11.576   7.796
 2100POPC   NC330719  39.892  42.816   9.577
 2100POPC   PO430720  39.878  42.191   9.486
 2100POPC   GL130721  40.117  42.279   9.143
 2100POPC   GL230722  40.123  42.614   9.172
 2100POPC   C1A30723  40.053  42.174   8.736
 2100POPC   D2A30724  39.799  42.188   8.397
 2100POPC   C3A30725  40.022  42.186   8.019
 2100POPC   C4A30726  39.850  42.332   7.610
 2100POPC   C1B30727  40.342  42.603   8.782
 2100POPC   C2B30728  40.395  42.446   8.355
 2100POPC   C3B30729  40.260  42.608   7.932
 2100POPC   C4B30730  40.231  42.620   7.453
 2101POPC   NC330731  35.479  18.385   9.888
 2101POPC   PO430732  35.336  18.846   9.454
 2101POPC   GL130733  35.468  19.002   9.079
 2101POPC   GL230734  35.484  19.357   9.159
 2101POPC   C1A30735  35.567  18.827   8.670
 2101POPC   D2A30736  35.713  18.922   8.245
 2101POPC   C3A30737  35.372  18.749   7.979
 2101POPC   C4A30738  35.051  18.647   7.692
 2101POPC   C1B30739  35.223  19.322   8.770
 2101POPC   C2B30740  35.229  19.098   8.373
 2101POPC   C3B30741  35.253  19.262   7.960
 2101POPC   C4B30742  35.017  19.606   7.787
 2102POPC   NC330743  11.242  42.042   9.826
 2102POPC   PO430744  11.099  42.635   9.475
 2102POPC   GL130745  11.333  42.441   9.166
 2102POPC   GL230746  11.094  42.282   9.064
 2102POPC   C1A30747  11.476  42.387   8.742
 2102POPC   D2A30748  11.359  42.266   8.321
 2102POPC   C3A30749  11.580  42.350   7.933
 2102POPC   C4A30750  11.569  42.214   7.497
 2102POPC   C1B30751  11.067  42.043   8.712
 2102POPC   C2B30752  10.891  42.051   8.323
 2102POPC   C3B30753  11.073  42.101   7.917
 2102POPC   C4B30754  10.810  41.953   7.611
 2103POPC   NC330755   1.085  44.301   9.656
 2103POPC   PO430756   1.719  44.367   9.373
 2103POPC   GL130757   1.503  44.572   9.026
 2103POPC   GL230758   1.166  44.744   9.059
 2103POPC   C1A30759   1.419  44.700   8.606
 2103POPC   D2A30760   1.265  44.988   8.312
 2103POPC   C3A30761   1.420  44.897   7.896
 2103POPC   C4A30762   1.420  44.526   7.689
 2103POPC   C1B30763   0.881  44.580   8.722
 2103POPC   C2B30764   0.630  44.556   8.318
 2103POPC   C3B30765   0.892  44.606   7.960
 2103POPC   C4B30766   0.973  44.815   7.586
 2104POPC   NC330767  22.952  15.030   9.669
 2104POPC   PO430768  22.444  15.214   9.282
 2104POPC   GL130769  22.902  15.219   9.142
 2104POPC   GL230770  23.076  15.538   9.216
 2104POPC   C1A30771  23.163  15.097   8.751
 2104POPC   D2A30772  23.278  14.899   8.327
 2104POPC   C3A30773  23.266  15.003   7.848
 2104POPC   C4A30774  23.275  14.802   7.409
 2104POPC   C1B30775  23.043  15.587   8.755
 2104POPC   C2B30776  23.092  15.399   8.325
 2104POPC   C3B30777  23.034  15.463   7.862
 2104POPC   C4B30778  22.890  15.656   7.462
 2105POPC   NC330779  26.082  30.429   9.385
 2105POPC   PO430780  26.086  31.067   9.680
 2105POPC   GL130781  26.187  30.908   9.292
 2105POPC   GL230782  25.846  30.816   9.126
 2105POPC   C1A30783  26.258  30.898   8.843
 2105POPC   D2A30784  26.101  30.784   8.423
 2105POPC   C3A30785  26.214  30.865   7.984
 2105POPC   C4A30786  25.939  30.719   7.640
 2105POPC   C1B30787  25.910  30.476   8.786
 2105POPC   C2B30788  26.108  30.261   8.461
 2105POPC   C3B30789  25.994  30.395   8.069
 2105POPC   C4B30790  26.061  30.225   7.682
 2106POPC   NC330791   8.599  39.769   9.631
 2106POPC   PO430792   8.157  40.251   9.453
 2106POPC   GL130793   8.116  39.934   9.129
 2106POPC   GL230794   8.419  39.792   9.157
 2106POPC   C1A30795   8.134  40.026   8.669
 2106POPC   D2A30796   8.487  40.216   8.434
 2106POPC   C3A30797   8.357  40.411   8.055
 2106POPC   C4A30798   8.088  40.269   7.717
 2106POPC   C1B30799   8.383  39.614   8.782
 2106POPC   C2B30800   8.544  39.665   8.393
 2106POPC   C3B30801   8.350  39.855   8.052
 2106POPC   C4B30802   8.413  39.678   7.646
 2107POPC   NC330803  10.571  23.992   9.576
 2107POPC   PO430804  10.336  23.391   9.597
 2107POPC   GL130805  10.435  23.472   9.159
 2107POPC   GL230806  10.468  23.806   9.108
 2107POPC   C1A30807  10.552  23.498   8.693
 2107POPC   D2A30808  10.516  23.741   8.306
 2107POPC   C3A30809  10.571  23.800   7.863
 2107POPC   C4A30810  10.444  23.567   7.490
 2107POPC   C1B30811  10.261  23.928   8.720
 2107POPC   C2B30812  10.051  23.918   8.314
 2107POPC   C3B30813  10.273  24.212   8.014
 2107POPC   C4B30814  10.182  24.281   7.544
 2108POPC   NC330815  28.961  31.796   9.504
 2108POPC   PO430816  29.338  32.368   9.566
 2108POPC   GL130817  29.219  32.368   9.146
 2108POPC   GL230818  29.272  32.024   9.174
 2108POPC   C1A30819  29.091  32.459   8.732
 2108POPC   D2A30820  28.982  32.293   8.348
 2108POPC   C3A30821  29.196  32.366   7.998
 2108POPC   C4A30822  29.024  32.455   7.621
 2108POPC   C1B30823  29.112  31.953   8.787
 2108POPC   C2B30824  29.005  31.792   8.403
 2108POPC   C3B30825  28.989  31.899   8.005
 2108POPC   C4B30826  29.262  31.931   7.707
 2109POPC   NC330827  32.587  28.374   9.513
 2109POPC   PO430828  32.111  28.223   9.135
 2109POPC   GL130829  32.187  28.596   9.080
 2109POPC   GL230830  31.839  28.648   9.233
 2109POPC   C1A30831  32.414  28.611   8.660
 2109POPC   D2A30832  32.598  28.340   8.339
 2109POPC   C3A30833  32.353  28.319   7.967
 2109POPC   C4A30834  32.441  28.338   7.540
 2109POPC   C1B30835  31.757  28.634   8.778
 2109POPC   C2B30836  31.976  28.718   8.391
 2109POPC   C3B30837  31.933  28.792   7.978
 2109POPC   C4B30838  31.977  28.501   7.637
 2110POPC   NC330839  18.728  27.304   9.282
 2110POPC   PO430840  18.966  27.757   9.632
 2110POPC   GL130841  19.051  27.753   9.201
 2110POPC   GL230842  19.389  27.683   9.244
 2110POPC   C1A30843  19.108  27.507   8.802
 2110POPC   D2A30844  19.194  27.219   8.451
 2110POPC   C3A30845  19.085  27.445   8.105
 2110POPC   C4A30846  18.845  27.633   7.797
 2110POPC   C1B30847  19.550  27.795   8.854
 2110POPC   C2B30848  19.466  27.661   8.461
 2110POPC   C3B30849  19.546  27.634   8.063
 2110POPC   C4B30850  19.368  27.624   7.655
 2111POPC   NC330851  36.640  12.056   9.390
 2111POPC   PO430852  37.197  11.656   9.509
 2111POPC   GL130853  37.089  11.927   9.130
 2111POPC   GL230854  37.051  12.298   9.136
 2111POPC   C1A30855  36.819  12.037   8.758
 2111POPC   D2A30856  36.847  12.331   8.417
 2111POPC   C3A30857  36.820  12.175   8.005
 2111POPC   C4A30858  36.803  12.018   7.578
 2111POPC   C1B30859  37.183  12.524   8.758
 2111POPC   C2B30860  37.334  12.530   8.308
 2111POPC   C3B30861  37.289  12.375   7.847
 2111POPC   C4B30862  37.150  12.365   7.391
 2112POPC   NC330863  29.209  33.401   9.403
 2112POPC   PO430864  28.949  34.097   9.525
 2112POPC   GL130865  29.187  33.914   9.216
 2112POPC   GL230866  28.908  33.728   9.126
 2112POPC   C1A30867  29.472  33.998   8.876
 2112POPC   D2A30868  29.541  33.841   8.445
 2112POPC   C3A30869  29.193  33.714   8.194
 2112POPC   C4A30870  29.258  33.797   7.765
 2112POPC   C1B30871  29.053  33.729   8.725
 2112POPC   C2B30872  28.915  33.409   8.512
 2112POPC   C3B30873  28.671  33.548   8.194
 2112POPC   C4B30874  28.844  33.500   7.800
 2113POPC   NC330875  35.562  17.377   9.605
 2113POPC   PO430876  34.951  17.503   9.408
 2113POPC   GL130877  35.254  17.359   9.161
 2113POPC   GL230878  35.392  17.681   9.183
 2113POPC   C1A30879  35.475  17.405   8.765
 2113POPC   D2A30880  35.360  17.591   8.350
 2113POPC   C3A30881  35.219  17.323   8.017
 2113POPC   C4A30882  35.524  17.031   7.931
 2113POPC   C1B30883  35.440  17.900   8.789
 2113POPC   C2B30884  35.771  17.853   8.503
 2113POPC   C3B30885  35.760  17.754   8.065
 2113POPC   C4B30886  35.339  17.798   7.869
 2114POPC   NC330887  37.413   8.833   9.522
 2114POPC   PO430888  37.298   9.417   9.762
 2114POPC   GL130889  37.566   9.279   9.341
 2114POPC   GL230890  37.870   9.047   9.315
 2114POPC   C1A30891  37.551   9.051   8.906
 2114POPC   D2A30892  37.482   9.057   8.440
 2114POPC   C3A30893  37.708   9.027   8.056
 2114POPC   C4A30894  37.579   9.133   7.657
 2114POPC   C1B30895  37.984   8.763   8.948
 2114POPC   C2B30896  37.964   8.775   8.498
 2114POPC   C3B30897  38.069   8.669   8.062
 2114POPC   C4B30898  37.802   8.668   7.675
 2115POPC   NC330899  15.733  26.460   9.536
 2115POPC   PO430900  16.298  26.858   9.484
 2115POPC   GL130901  16.124  26.957   9.090
 2115POPC   GL230902  15.885  26.692   9.111
 2115POPC   C1A30903  15.811  27.061   8.758
 2115POPC   D2A30904  15.830  27.226   8.337
 2115POPC   C3A30905  16.118  26.942   8.124
 2115POPC   C4A30906  16.276  26.719   7.764
 2115POPC   C1B30907  16.088  26.561   8.720
 2115POPC   C2B30908  16.005  26.384   8.292
 2115POPC   C3B30909  15.813  26.534   7.882
 2115POPC   C4B30910  15.587  26.662   7.502
 2116POPC   NC330911   8.682  33.809   9.528
 2116POPC   PO430912   9.275  33.695   9.545
 2116POPC   GL130913   9.043  33.881   9.140
 2116POPC   GL230914   8.692  33.735   9.043
 2116POPC   C1A30915   8.980  33.874   8.657
 2116POPC   D2A30916   9.041  34.033   8.278
 2116POPC   C3A30917   8.792  33.955   7.937
 2116POPC   C4A30918   8.999  34.127   7.591
 2116POPC   C1B30919   8.716  33.460   8.699
 2116POPC   C2B30920   8.778  33.541   8.276
 2116POPC   C3B30921   8.530  33.424   7.925
 2116POPC   C4B30922   8.626  33.448   7.457
 2117POPC   NC330923  17.064  20.347   9.830
 2117POPC   PO430924  16.567  20.701   9.702
 2117POPC   GL130925  16.583  20.534   9.298
 2117POPC   GL230926  16.707  20.828   9.140
 2117POPC   C1A30927  16.808  20.418   8.872
 2117POPC   D2A30928  16.739  20.614   8.466
 2117POPC   C3A30929  16.897  20.396   8.102
 2117POPC   C4A30930  17.091  20.396   7.687
 2117POPC   C1B30931  16.358  20.667   8.869
 2117POPC   C2B30932  16.213  20.650   8.455
 2117POPC   C3B30933  16.400  20.583   8.049
 2117POPC   C4B30934  16.719  20.775   7.788
 2118POPC   NC330935  14.566   1.713   9.505
 2118POPC   PO430936  14.507   1.028   9.488
 2118POPC   GL130937  14.430   1.118   9.102
 2118POPC   GL230938  14.378   1.465   9.085
 2118POPC   C1A30939  14.297   1.059   8.707
 2118POPC   D2A30940  14.496   1.277   8.415
 2118POPC   C3A30941  14.570   1.125   8.034
 2118POPC   C4A30942  14.927   1.194   7.813
 2118POPC   C1B30943  14.054   1.493   8.763
 2118POPC   C2B30944  14.014   1.385   8.306
 2118POPC   C3B30945  14.328   1.560   7.995
 2118POPC   C4B30946  14.471   1.361   7.587
 2119POPC   NC330947  14.093   5.444   9.512
 2119POPC   PO430948  14.383   6.008   9.557
 2119POPC   GL130949  14.434   6.056   9.155
 2119POPC   GL230950  14.299   5.708   9.083
 2119POPC   C1A30951  14.509   6.186   8.757
 2119POPC   D2A30952  14.294   6.124   8.391
 2119POPC   C3A30953  14.500   5.970   8.056
 2119POPC   C4A30954  14.436   6.088   7.656
 2119POPC   C1B30955  14.704   5.715   8.854
 2119POPC   C2B30956  14.813   5.820   8.462
 2119POPC   C3B30957  14.724   5.524   8.125
 2119POPC   C4B30958  14.644   5.614   7.679
 2120POPC   NC330959  25.121  30.249   9.596
 2120POPC   PO430960  25.519  29.689   9.518
 2120POPC   GL130961  25.355  29.890   9.154
 2120POPC   GL230962  25.005  29.963   9.175
 2120POPC   C1A30963  25.266  29.666   8.780
 2120POPC   D2A30964  25.115  29.807   8.402
 2120POPC   C3A30965  25.373  29.719   8.047
 2120POPC   C4A30966  25.296  29.828   7.631
 2120POPC   C1B30967  24.826  30.047   8.774
 2120POPC   C2B30968  24.584  29.913   8.426
 2120POPC   C3B30969  24.753  29.807   8.045
 2120POPC   C4B30970  24.800  29.974   7.698
 2121POPC   NC330971  41.250   5.174   9.486
 2121POPC   PO430972  41.875   5.494   9.366
 2121POPC   GL130973  41.590   5.293   9.095
 2121POPC   GL230974  41.634   4.945   9.101
 2121POPC   C1A30975  41.514   5.189   8.654
 2121POPC   D2A30976  41.732   5.080   8.247
 2121POPC   C3A30977  41.422   5.070   7.893
 2121POPC   C4A30978  41.318   5.098   7.445
 2121POPC   C1B30979  41.871   4.824   8.720
 2121POPC   C2B30980  41.794   4.558   8.340
 2121POPC   C3B30981  41.762   4.668   7.944
 2121POPC   C4B30982  41.826   4.948   7.607
 2122POPC   NC330983  30.371  28.914   9.392
 2122POPC   PO430984  30.891  29.030   9.631
 2122POPC   GL130985  30.926  28.958   9.194
 2122POPC   GL230986  31.076  29.289   9.090
 2122POPC   C1A30987  30.725  28.992   8.774
 2122POPC   D2A30988  30.559  29.160   8.374
 2122POPC   C3A30989  30.708  29.026   7.979
 2122POPC   C4A30990  30.641  29.184   7.566
 2122POPC   C1B30991  31.132  29.319   8.642
 2122POPC   C2B30992  31.002  29.387   8.245
 2122POPC   C3B30993  31.099  29.325   7.822
 2122POPC   C4B30994  31.026  29.467   7.412
 2123POPC   NC330995  41.436  23.382   9.434
 2123POPC   PO430996  41.833  22.865   9.494
 2123POPC   GL130997  41.584  22.999   9.124
 2123POPC   GL230998  41.772  23.294   9.045
 2123POPC   C1A30999  41.353  23.186   8.742
 2123POPC   D2A31000  41.114  23.151   8.333
 2123POPC   C3A31001  41.298  22.894   7.996
 2123POPC   C4A31002  41.642  22.715   7.803
 2123POPC   C1B31003  41.869  23.088   8.633
 2123POPC   C2B31004  41.640  23.197   8.245
 2123POPC   C3B31005  41.675  23.241   7.779
 2123POPC   C4B31006  41.843  23.046   7.409
 2124POPC   NC331007   5.642  21.317   9.490
 2124POPC   PO431008   6.246  21.540   9.351
 2124POPC   GL131009   5.976  21.406   9.069
 2124POPC   GL231010   6.107  21.674   8.868
 2124POPC   C1A31011   5.665  21.200   8.802
 2124POPC   D2A31012   5.344  21.266   8.488
 2124POPC   C3A31013   5.531  21.211   8.106
 2124POPC   C4A31014   5.751  21.409   7.737
 2124POPC   C1B31015   6.120  21.360   8.583
 2124POPC   C2B31016   6.002  21.369   8.188
 2124POPC   C3B31017   6.120  21.097   7.879
 2124POPC   C4B31018   6.530  21.107   7.800
 2125POPC   NC331019  32.635  19.764   9.516
 2125POPC   PO431020  33.202  20.064   9.753
 2125POPC   GL131021  33.036  19.927   9.232
 2125POPC   GL231022  32.833  19.631   9.057
 2125POPC   C1A31023  33.046  19.931   8.712
 2125POPC   D2A31024  33.177  20.125   8.286
 2125POPC   C3A31025  33.159  19.918   7.876
 2125POPC   C4A31026  33.222  19.495   7.748
 2125POPC   C1B31027  32.975  19.409   8.684
 2125POPC   C2B31028  33.074  19.573   8.284
 2125POPC   C3B31029  32.775  19.590   7.974
 2125POPC   C4B31030  32.677  19.627   7.582
 2126POPC   NC331031   9.686  37.414   9.232
 2126POPC   PO431032   9.603  36.830   9.621
 2126POPC   GL131033   9.784  36.859   9.183
 2126POPC   GL231034   9.519  36.797   8.928
 2126POPC   C1A31035   9.927  37.038   8.755
 2126POPC   D2A31036   9.753  36.836   8.391
 2126POPC   C3A31037   9.652  37.058   8.055
 2126POPC   C4A31038   9.784  37.030   7.633
 2126POPC   C1B31039   9.415  36.502   8.582
 2126POPC   C2B31040   9.287  36.659   8.202
 2126POPC   C3B31041   9.503  36.624   7.828
 2126POPC   C4B31042   9.369  36.633   7.397
 2127POPC   NC331043  36.277  12.517   9.584
 2127POPC   PO431044  35.986  13.181   9.490
 2127POPC   GL131045  36.126  12.896   9.189
 2127POPC   GL231046  35.922  12.597   9.241
 2127POPC   C1A31047  36.136  13.064   8.776
 2127POPC   D2A31048  36.367  13.121   8.402
 2127POPC   C3A31049  36.167  13.154   8.017
 2127POPC   C4A31050  36.377  13.176   7.612
 2127POPC   C1B31051  35.995  12.583   8.793
 2127POPC   C2B31052  35.951  12.780   8.383
 2127POPC   C3B31053  35.985  12.671   7.952
 2127POPC   C4B31054  35.944  12.515   7.548
 2128POPC   NC331055  27.327  29.284   9.635
 2128POPC   PO431056  27.679  28.783   9.630
 2128POPC   GL131057  27.616  29.041   9.257
 2128POPC   GL231058  27.271  29.136   9.147
 2128POPC   C1A31059  27.655  29.086   8.805
 2128POPC   D2A31060  27.880  29.224   8.441
 2128POPC   C3A31061  27.828  29.043   8.027
 2128POPC   C4A31062  27.457  28.865   7.794
 2128POPC   C1B31063  27.329  29.455   8.800
 2128POPC   C2B31064  27.472  29.545   8.386
 2128POPC   C3B31065  27.407  29.370   7.966
 2128POPC   C4B31066  27.374  29.564   7.533
 2129POPC   NC331067   1.514   9.361   9.452
 2129POPC   PO431068   2.026   8.982   9.541
 2129POPC   GL131069   2.077   8.706   9.211
 2129POPC   GL231070   1.720   8.737   9.108
 2129POPC   C1A31071   2.290   8.862   8.839
 2129POPC   D2A31072   2.251   9.173   8.478
 2129POPC   C3A31073   2.149   8.958   8.077
 2129POPC   C4A31074   2.255   8.876   7.670
 2129POPC   C1B31075   1.820   8.678   8.727
 2129POPC   C2B31076   1.753   8.923   8.387
 2129POPC   C3B31077   1.647   8.822   7.968
 2129POPC   C4B31078   1.676   8.618   7.547
 2130POPC   NC331079  19.756   4.222   9.524
 2130POPC   PO431080  20.166   4.622   9.197
 2130POPC   GL131081  20.036   4.252   8.971
 2130POPC   GL231082  19.724   4.049   9.037
 2130POPC   C1A31083  20.143   4.355   8.553
 2130POPC   D2A31084  19.912   4.493   8.215
 2130POPC   C3A31085  19.984   4.209   7.881
 2130POPC   C4A31086  19.830   4.328   7.448
 2130POPC   C1B31087  19.666   4.133   8.602
 2130POPC   C2B31088  19.603   4.024   8.183
 2130POPC   C3B31089  19.527   4.027   7.744
 2130POPC   C4B31090  19.528   3.948   7.295
 2131POPC   NC331091  29.307  15.367   9.644
 2131POPC   PO431092  29.006  15.977   9.687
 2131POPC   GL131093  29.153  16.030   9.241
 2131POPC   GL231094  29.396  15.790   9.134
 2131POPC   C1A31095  28.986  16.010   8.809
 2131POPC   D2A31096  28.909  15.781   8.403
 2131POPC   C3A31097  28.984  15.979   7.977
 2131POPC   C4A31098  29.242  16.164   7.648
 2131POPC   C1B31099  29.457  15.806   8.681
 2131POPC   C2B31100  29.410  15.743   8.227
 2131POPC   C3B31101  29.537  15.780   7.794
 2131POPC   C4B31102  29.420  15.595   7.401
 2132POPC   NC331103  21.303  37.953   9.714
 2132POPC   PO431104  21.129  37.335   9.630
 2132POPC   GL131105  21.140  37.575   9.251
 2132POPC   GL231106  21.467  37.457   9.140
 2132POPC   C1A31107  21.146  37.689   8.794
 2132POPC   D2A31108  21.042  37.605   8.345
 2132POPC   C3A31109  21.296  37.757   7.972
 2132POPC   C4A31110  21.107  37.742   7.570
 2132POPC   C1B31111  21.413  37.251   8.719
 2132POPC   C2B31112  21.362  37.208   8.264
 2132POPC   C3B31113  21.547  37.335   7.870
 2132POPC   C4B31114  21.600  37.563   7.529
 2133POPC   NC331115  26.665   2.346   9.361
 2133POPC   PO431116  27.096   1.874   9.608
 2133POPC   GL131117  26.926   1.921   9.174
 2133POPC   GL231118  26.569   1.862   9.196
 2133POPC   C1A31119  26.849   2.163   8.758
 2133POPC   D2A31120  26.851   1.948   8.365
 2133POPC   C3A31121  26.678   2.152   8.027
 2133POPC   C4A31122  26.730   2.037   7.637
 2133POPC   C1B31123  26.607   1.715   8.767
 2133POPC   C2B31124  26.442   1.605   8.392
 2133POPC   C3B31125  26.304   1.798   8.017
 2133POPC   C4B31126  26.304   1.740   7.604
 2134POPC   NC331127   5.995  31.945  10.088
 2134POPC   PO431128   5.724  32.373   9.609
 2134POPC   GL131129   5.965  32.373   9.231
 2134POPC   GL231130   5.937  32.054   9.036
 2134POPC   C1A31131   6.056  32.509   8.818
 2134POPC   D2A31132   6.047  32.210   8.491
 2134POPC   C3A31133   5.801  32.317   8.154
 2134POPC   C4A31134   6.007  32.345   7.771
 2134POPC   C1B31135   5.642  31.993   8.701
 2134POPC   C2B31136   5.683  31.811   8.300
 2134POPC   C3B31137   5.759  31.900   7.853
 2134POPC   C4B31138   5.549  32.222   7.579
 2135POPC   NC331139  39.857  25.443   9.563
 2135POPC   PO431140  40.264  25.023   9.238
 2135POPC   GL131141  39.970  25.294   9.096
 2135POPC   GL231142  39.711  25.092   9.163
 2135POPC   C1A31143  40.020  25.526   8.754
 2135POPC   D2A31144  40.249  25.340   8.480
 2135POPC   C3A31145  40.154  25.451   8.091
 2135POPC   C4A31146  40.164  25.093   7.812
 2135POPC   C1B31147  39.824  24.988   8.707
 2135POPC   C2B31148  39.733  25.164   8.275
 2135POPC   C3B31149  39.617  24.950   7.870
 2135POPC   C4B31150  39.556  25.102   7.415
 2136POPC   NC331151  41.670  27.500   9.468
 2136POPC   PO431152  41.070  27.841   9.418
 2136POPC   GL131153  41.280  27.594   9.156
 2136POPC   GL231154  41.526  27.814   9.073
 2136POPC   C1A31155  41.330  27.461   8.724
 2136POPC   D2A31156  41.428  27.635   8.324
 2136POPC   C3A31157  41.636  27.331   8.053
 2136POPC   C4A31158  41.726  27.310   7.614
 2136POPC   C1B31159  41.816  27.596   8.783
 2136POPC   C2B31160  41.934  27.712   8.360
 2136POPC   C3B31161  41.742  27.824   7.946
 2136POPC   C4B31162  41.343  27.679   7.769
 2137POPC   NC331163  19.318  44.533   9.653
 2137POPC   PO431164  18.694  44.452   9.709
 2137POPC   GL131165  18.856  44.610   9.251
 2137POPC   GL231166  19.213  44.577   9.135
 2137POPC   C1A31167  18.901  44.779   8.780
 2137POPC   D2A31168  18.975   0.037   8.389
 2137POPC   C3A31169  19.008  44.866   7.974
 2137POPC   C4A31170  18.762  44.559   7.754
 2137POPC   C1B31171  19.409  44.607   8.706
 2137POPC   C2B31172  19.326  44.518   8.261
 2137POPC   C3B31173  19.314  44.469   7.825
 2137POPC   C4B31174  19.498  44.726   7.542
 2138POPC   NC331175  40.718  25.564   9.369
 2138POPC   PO431176  40.465  25.038   9.747
 2138POPC   GL131177  40.766  25.065   9.292
 2138POPC   GL231178  41.093  25.124   9.133
 2138POPC   C1A31179  40.733  25.162   8.790
 2138POPC   D2A31180  40.955  25.067   8.400
 2138POPC   C3A31181  40.683  25.074   8.033
 2138POPC   C4A31182  40.563  25.430   7.784
 2138POPC   C1B31183  41.192  25.417   8.746
 2138POPC   C2B31184  41.162  25.642   8.339
 2138POPC   C3B31185  41.073  25.396   8.001
 2138POPC   C4B31186  41.367  25.284   7.746
 2139POPC   NC331187  38.502  32.528   9.550
 2139POPC   PO431188  38.931  32.110   9.476
 2139POPC   GL131189  38.589  32.102   9.162
 2139POPC   GL231190  38.217  32.256   9.161
 2139POPC   C1A31191  38.629  32.215   8.727
 2139POPC   D2A31192  38.619  32.015   8.347
 2139POPC   C3A31193  38.556  32.200   7.950
 2139POPC   C4A31194  38.294  32.065   7.645
 2139POPC   C1B31195  38.130  32.079   8.716
 2139POPC   C2B31196  38.141  32.135   8.270
 2139POPC   C3B31197  38.014  32.432   7.934
 2139POPC   C4B31198  37.849  32.313   7.510
 2140POPC   NC331199  29.181  16.396   9.612
 2140POPC   PO431200  29.135  17.102   9.657
 2140POPC   GL131201  29.279  16.879   9.270
 2140POPC   GL231202  29.135  16.559   9.142
 2140POPC   C1A31203  29.324  16.915   8.827
 2140POPC   D2A31204  29.413  16.734   8.437
 2140POPC   C3A31205  29.285  16.993   8.094
 2140POPC   C4A31206  29.396  17.024   7.671
 2140POPC   C1B31207  29.371  16.359   8.819
 2140POPC   C2B31208  29.265  16.216   8.410
 2140POPC   C3B31209  29.251  16.453   8.049
 2140POPC   C4B31210  28.994  16.667   7.769
 2141POPC   NC331211   3.944  38.031   9.381
 2141POPC   PO431212   3.354  37.813   9.682
 2141POPC   GL131213   3.579  37.636   9.301
 2141POPC   GL231214   3.564  37.913   9.062
 2141POPC   C1A31215   3.615  37.427   8.876
 2141POPC   D2A31216   3.434  37.531   8.483
 2141POPC   C3A31217   3.547  37.452   8.032
 2141POPC   C4A31218   3.191  37.629   7.772
 2141POPC   C1B31219   3.887  37.851   8.739
 2141POPC   C2B31220   3.837  37.809   8.317
 2141POPC   C3B31221   3.651  37.943   7.915
 2141POPC   C4B31222   3.760  38.150   7.511
 2142POPC   NC331223   6.988   5.902   9.555
 2142POPC   PO431224   6.421   6.190   9.588
 2142POPC   GL131225   6.478   5.855   9.245
 2142POPC   GL231226   6.542   5.493   9.351
 2142POPC   C1A31227   6.611   5.956   8.815
 2142POPC   D2A31228   6.633   6.151   8.400
 2142POPC   C3A31229   6.581   5.910   8.028
 2142POPC   C4A31230   6.684   6.009   7.595
 2142POPC   C1B31231   6.663   5.449   8.902
 2142POPC   C2B31232   6.558   5.552   8.484
 2142POPC   C3B31233   6.529   5.391   8.084
 2142POPC   C4B31234   6.315   5.561   7.740
 2143POPC   NC331235  37.365   6.255   9.489
 2143POPC   PO431236  37.746   5.736   9.607
 2143POPC   GL131237  37.568   5.681   9.214
 2143POPC   GL231238  37.928   5.631   9.126
 2143POPC   C1A31239  37.529   5.913   8.820
 2143POPC   D2A31240  37.802   5.965   8.454
 2143POPC   C3A31241  37.571   5.934   8.078
 2143POPC   C4A31242  37.451   5.748   7.688
 2143POPC   C1B31243  37.749   5.477   8.737
 2143POPC   C2B31244  37.519   5.523   8.369
 2143POPC   C3B31245  37.693   5.388   7.972
 2143POPC   C4B31246  37.931   5.402   7.590
 2144POPC   NC331247   0.990  41.664   9.368
 2144POPC   PO431248   1.548  41.242   9.504
 2144POPC   GL131249   1.292  41.269   9.134
 2144POPC   GL231250   0.930  41.324   8.994
 2144POPC   C1A31251   1.314  41.441   8.723
 2144POPC   D2A31252   1.131  41.322   8.362
 2144POPC   C3A31253   1.269  41.607   8.079
 2144POPC   C4A31254   1.365  41.567   7.683
 2144POPC   C1B31255   0.873  41.708   8.735
 2144POPC   C2B31256   0.867  41.865   8.336
 2144POPC   C3B31257   0.731  41.606   8.025
 2144POPC   C4B31258   0.876  41.728   7.643
 2145POPC   NC331259   3.131   8.951   9.833
 2145POPC   PO431260   3.752   8.845   9.494
 2145POPC   GL131261   3.528   9.054   9.186
 2145POPC   GL231262   3.691   8.828   8.935
 2145POPC   C1A31263   3.247   9.014   8.805
 2145POPC   D2A31264   3.246   8.690   8.466
 2145POPC   C3A31265   3.157   8.915   8.099
 2145POPC   C4A31266   3.059   9.305   7.876
 2145POPC   C1B31267   4.005   8.595   8.660
 2145POPC   C2B31268   3.976   8.524   8.209
 2145POPC   C3B31269   3.685   8.778   7.953
 2145POPC   C4B31270   3.399   9.000   7.649
 2146POPC   NC331271  13.045  44.998   9.411
 2146POPC   PO431272  12.808  44.366   9.425
 2146POPC   GL131273  12.657  44.642   9.106
 2146POPC   GL231274  12.841  44.896   8.949
 2146POPC   C1A31275  12.634  44.540   8.666
 2146POPC   D2A31276  12.829  44.805   8.385
 2146POPC   C3A31277  12.810  44.657   7.973
 2146POPC   C4A31278  12.877  44.579   7.527
 2146POPC   C1B31279  13.260  44.955   8.789
 2146POPC   C2B31280  13.423  44.959   8.407
 2146POPC   C3B31281  13.217   0.008   8.065
 2146POPC   C4B31282  13.158  44.967   7.649
 2147POPC   NC331283  36.645   3.038   9.942
 2147POPC   PO431284  37.026   2.701   9.562
 2147POPC   GL131285  37.054   2.765   9.141
 2147POPC   GL231286  36.690   2.866   9.137
 2147POPC   C1A31287  36.979   2.714   8.703
 2147POPC   D2A31288  36.632   2.697   8.454
 2147POPC   C3A31289  36.640   2.515   8.054
 2147POPC   C4A31290  36.841   2.623   7.658
 2147POPC   C1B31291  36.675   3.130   8.756
 2147POPC   C2B31292  36.930   3.137   8.420
 2147POPC   C3B31293  37.027   2.855   8.130
 2147POPC   C4B31294  36.747   3.072   7.869
 2148POPC   NC331295  31.432   0.829   9.411
 2148POPC   PO431296  31.730   0.190   9.546
 2148POPC   GL131297  31.562   0.370   9.211
 2148POPC   GL231298  31.234   0.238   9.266
 2148POPC   C1A31299  31.666   0.575   8.822
 2148POPC   D2A31300  31.834   0.416   8.448
 2148POPC   C3A31301  31.667   0.299   8.078
 2148POPC   C4A31302  31.749   0.191   7.676
 2148POPC   C1B31303  31.310   0.175   8.819
 2148POPC   C2B31304  31.303   0.443   8.447
 2148POPC   C3B31305  31.219   0.509   8.005
 2148POPC   C4B31306  31.267   0.119   7.765
 2149POPC   NC331307  14.056  36.571   9.253
 2149POPC   PO431308  14.282  37.198   9.579
 2149POPC   GL131309  14.365  37.042   9.195
 2149POPC   GL231310  14.022  37.046   9.086
 2149POPC   C1A31311  14.427  37.143   8.760
 2149POPC   D2A31312  14.538  37.207   8.353
 2149POPC   C3A31313  14.295  36.994   8.041
 2149POPC   C4A31314  14.338  37.155   7.652
 2149POPC   C1B31315  14.018  36.876   8.646
 2149POPC   C2B31316  14.291  36.617   8.420
 2149POPC   C3B31317  14.316  36.479   7.989
 2149POPC   C4B31318  14.133  36.669   7.627
 2150POPC   NC331319  23.310   5.582   9.343
 2150POPC   PO431320  22.822   5.987   9.680
 2150POPC   GL131321  22.891   5.863   9.221
 2150POPC   GL231322  22.572   5.823   9.016
 2150POPC   C1A31323  23.046   5.894   8.770
 2150POPC   D2A31324  23.028   6.117   8.348
 2150POPC   C3A31325  23.089   5.885   7.935
 2150POPC   C4A31326  23.285   5.738   7.527
 2150POPC   C1B31327  22.649   5.541   8.722
 2150POPC   C2B31328  22.852   5.608   8.344
 2150POPC   C3B31329  22.762   5.433   7.971
 2150POPC   C4B31330  22.804   5.625   7.595
 2151POPC   NC331331  26.630  35.623   9.410
 2151POPC   PO431332  26.770  35.014   9.472
 2151POPC   GL131333  26.953  35.211   9.109
 2151POPC   GL231334  27.116  35.534   9.192
 2151POPC   C1A31335  26.814  35.187   8.654
 2151POPC   D2A31336  26.588  35.213   8.243
 2151POPC   C3A31337  26.859  35.167   7.901
 2151POPC   C4A31338  26.912  35.022   7.491
 2151POPC   C1B31339  27.001  35.651   8.759
 2151POPC   C2B31340  26.877  35.629   8.305
 2151POPC   C3B31341  26.698  35.645   7.868
 2151POPC   C4B31342  26.586  35.777   7.433
 2152POPC   NC331343  39.527   6.594   9.354
 2152POPC   PO431344  40.005   6.942   9.668
 2152POPC   GL131345  39.897   6.953   9.185
 2152POPC   GL231346  39.903   6.619   9.010
 2152POPC   C1A31347  40.090   6.971   8.710
 2152POPC   D2A31348  40.020   6.714   8.312
 2152POPC   C3A31349  40.046   6.777   7.860
 2152POPC   C4A31350  40.325   6.863   7.510
 2152POPC   C1B31351  40.214   6.425   8.692
 2152POPC   C2B31352  40.198   6.212   8.264
 2152POPC   C3B31353  40.020   6.241   7.833
 2152POPC   C4B31354  39.655   6.503   7.657
 2153POPC   NC331355  16.774  25.613   9.515
 2153POPC   PO431356  17.173  25.029   9.599
 2153POPC   GL131357  17.059  25.262   9.240
 2153POPC   GL231358  16.673  25.249   9.153
 2153POPC   C1A31359  17.039  25.368   8.825
 2153POPC   D2A31360  16.664  25.373   8.597
 2153POPC   C3A31361  16.750  25.294   8.191
 2153POPC   C4A31362  16.879  25.300   7.776
 2153POPC   C1B31363  16.500  24.946   8.836
 2153POPC   C2B31364  16.466  24.932   8.364
 2153POPC   C3B31365  16.417  25.030   7.862
 2153POPC   C4B31366  16.336  24.917   7.379
 2154POPC   NC331367  28.536  17.108   9.336
 2154POPC   PO431368  28.502  16.428   9.326
 2154POPC   GL131369  28.446  16.741   9.008
 2154POPC   GL231370  28.777  16.884   8.945
 2154POPC   C1A31371  28.335  16.903   8.606
 2154POPC   D2A31372  28.030  17.042   8.316
 2154POPC   C3A31373  28.188  16.856   7.952
 2154POPC   C4A31374  28.077  16.528   7.695
 2154POPC   C1B31375  28.912  16.557   8.652
 2154POPC   C2B31376  28.760  16.346   8.267
 2154POPC   C3B31377  28.555  16.393   7.847
 2154POPC   C4B31378  28.545  16.680   7.464
 2155POPC   NC331379  14.052  25.170   9.403
 2155POPC   PO431380  14.546  25.618   9.516
 2155POPC   GL131381  14.487  25.411   9.108
 2155POPC   GL231382  14.149  25.519   9.063
 2155POPC   C1A31383  14.484  25.123   8.730
 2155POPC   D2A31384  14.187  24.851   8.438
 2155POPC   C3A31385  14.285  24.900   7.971
 2155POPC   C4A31386  14.725  25.038   7.854
 2155POPC   C1B31387  14.077  25.430   8.635
 2155POPC   C2B31388  14.337  25.312   8.272
 2155POPC   C3B31389  14.416  25.445   7.879
 2155POPC   C4B31390  14.205  25.767   7.674
 2156POPC   NC331391  22.719  31.226   9.318
 2156POPC   PO431392  22.695  31.944   9.430
 2156POPC   GL131393  22.778  31.869   9.046
 2156POPC   GL231394  23.001  31.563   9.008
 2156POPC   C1A31395  22.707  31.805   8.668
 2156POPC   D2A31396  22.785  31.500   8.364
 2156POPC   C3A31397  23.157  31.632   8.148
 2156POPC   C4A31398  23.196  31.744   7.745
 2156POPC   C1B31399  23.240  31.304   8.677
 2156POPC   C2B31400  23.157  31.132   8.255
 2156POPC   C3B31401  23.134  31.214   7.811
 2156POPC   C4B31402  23.017  31.016   7.427
 2157POPC   NC331403   9.291  16.969   9.706
 2157POPC   PO431404   8.939  17.259   9.229
 2157POPC   GL131405   9.182  17.467   8.967
 2157POPC   GL231406   8.924  17.730   9.020
 2157POPC   C1A31407   9.258  17.743   8.638
 2157POPC   D2A31408   9.111  17.701   8.243
 2157POPC   C3A31409   9.125  17.280   8.012
 2157POPC   C4A31410   8.716  17.258   7.792
 2157POPC   C1B31411   8.837  18.043   8.722
 2157POPC   C2B31412   8.858  18.212   8.328
 2157POPC   C3B31413   8.818  18.008   7.938
 2157POPC   C4B31414   9.055  17.688   7.734
 2158POPC   NC331415  15.196  38.273   9.565
 2158POPC   PO431416  15.531  38.690   9.445
 2158POPC   GL131417  15.307  38.439   9.094
 2158POPC   GL231418  15.476  38.150   9.089
 2158POPC   C1A31419  15.170  38.205   8.684
 2158POPC   D2A31420  15.251  38.411   8.298
 2158POPC   C3A31421  15.006  38.321   7.949
 2158POPC   C4A31422  14.807  38.140   7.612
 2158POPC   C1B31423  15.637  38.403   8.683
 2158POPC   C2B31424  15.748  38.485   8.232
 2158POPC   C3B31425  15.545  38.348   7.874
 2158POPC   C4B31426  15.310  38.164   7.586
 2159POPC   NC331427  36.196  19.488   9.516
 2159POPC   PO431428  36.562  19.962   9.419
 2159POPC   GL131429  36.338  19.755   9.112
 2159POPC   GL231430  36.047  19.868   9.025
 2159POPC   C1A31431  36.319  19.439   8.799
 2159POPC   D2A31432  36.457  19.518   8.361
 2159POPC   C3A31433  36.181  19.770   8.072
 2159POPC   C4A31434  35.942  19.796   7.671
 2159POPC   C1B31435  36.073  19.837   8.598
 2159POPC   C2B31436  35.766  19.986   8.337
 2159POPC   C3B31437  35.766  20.193   7.951
 2159POPC   C4B31438  35.728  20.266   7.533
 2160POPC   NC331439  32.326   8.851   9.482
 2160POPC   PO431440  31.807   8.793   9.072
 2160POPC   GL131441  32.170   9.012   9.035
 2160POPC   GL231442  32.238   9.372   9.187
 2160POPC   C1A31443  32.492   8.796   8.796
 2160POPC   D2A31444  32.417   8.563   8.379
 2160POPC   C3A31445  32.203   8.763   8.008
 2160POPC   C4A31446  32.438   8.885   7.607
 2160POPC   C1B31447  32.453   9.319   8.778
 2160POPC   C2B31448  32.391   9.107   8.411
 2160POPC   C3B31449  32.366   9.243   8.043
 2160POPC   C4B31450  32.097   9.222   7.748
 2161POPC   NC331451   1.973   7.745   9.435
 2161POPC   PO431452   1.883   7.063   9.539
 2161POPC   GL131453   1.744   7.313   9.203
 2161POPC   GL231454   2.101   7.369   9.099
 2161POPC   C1A31455   1.744   7.321   8.749
 2161POPC   D2A31456   2.061   7.344   8.439
 2161POPC   C3A31457   1.843   7.437   8.062
 2161POPC   C4A31458   2.023   7.731   7.727
 2161POPC   C1B31459   2.161   7.712   8.788
 2161POPC   C2B31460   2.318   7.826   8.399
 2161POPC   C3B31461   2.351   7.552   8.068
 2161POPC   C4B31462   2.258   7.138   7.915
 2162POPC   NC331463  29.513   3.458   9.505
 2162POPC   PO431464  30.053   3.871   9.567
 2162POPC   GL131465  29.943   3.595   9.232
 2162POPC   GL231466  29.638   3.726   9.088
 2162POPC   C1A31467  30.140   3.418   8.888
 2162POPC   D2A31468  30.143   3.396   8.433
 2162POPC   C3A31469  29.937   3.599   8.110
 2162POPC   C4A31470  29.972   3.623   7.674
 2162POPC   C1B31471  29.887   3.826   8.722
 2162POPC   C2B31472  30.008   4.026   8.357
 2162POPC   C3B31473  29.849   4.065   7.924
 2162POPC   C4B31474  29.679   4.006   7.501
 2163POPC   NC331475  24.195   2.091   9.506
 2163POPC   PO431476  24.875   1.894   9.594
 2163POPC   GL131477  24.592   1.957   9.193
 2163POPC   GL231478  24.280   1.835   9.103
 2163POPC   C1A31479  24.441   2.198   8.802
 2163POPC   D2A31480  24.401   1.984   8.418
 2163POPC   C3A31481  24.320   2.207   8.062
 2163POPC   C4A31482  24.636   2.225   7.764
 2163POPC   C1B31483  24.067   1.798   8.742
 2163POPC   C2B31484  24.084   1.582   8.343
 2163POPC   C3B31485  24.369   1.677   7.998
 2163POPC   C4B31486  24.300   1.862   7.598
 2164POPC   NC331487  11.233  18.051   9.361
 2164POPC   PO431488  11.015  18.599   9.624
 2164POPC   GL131489  11.082  18.497   9.217
 2164POPC   GL231490  10.808  18.295   9.123
 2164POPC   C1A31491  11.368  18.431   8.862
 2164POPC   D2A31492  11.275  18.656   8.514
 2164POPC   C3A31493  11.360  18.606   8.074
 2164POPC   C4A31494  11.559  18.354   7.784
 2164POPC   C1B31495  10.949  18.162   8.726
 2164POPC   C2B31496  11.149  18.107   8.332
 2164POPC   C3B31497  11.076  18.191   7.906
 2164POPC   C4B31498  10.728  18.221   7.634
 2165POPC   NC331499  44.581  28.041   9.333
 2165POPC   PO431500  44.868  28.660   9.446
 2165POPC   GL131501  44.834  28.456   9.075
 2165POPC   GL231502   0.044  28.198   9.112
 2165POPC   C1A31503  44.534  28.349   8.748
 2165POPC   D2A31504  44.341  28.084   8.432
 2165POPC   C3A31505  44.589  28.068   8.042
 2165POPC   C4A31506  44.490  28.285   7.657
 2165POPC   C1B31507   0.018  28.111   8.695
 2165POPC   C2B31508   0.179  27.854   8.390
 2165POPC   C3B31509   0.149  27.935   7.993
 2165POPC   C4B31510  45.000  28.184   7.727
 2166POPC   NC331511  41.315  38.182   9.518
 2166POPC   PO431512  41.831  38.150   9.341
 2166POPC   GL131513  41.557  38.412   9.083
 2166POPC   GL231514  41.752  38.705   9.033
 2166POPC   C1A31515  41.383  38.530   8.667
 2166POPC   D2A31516  41.449  38.250   8.319
 2166POPC   C3A31517  41.572  38.258   7.880
 2166POPC   C4A31518  41.491  37.920   7.593
 2166POPC   C1B31519  41.882  38.542   8.618
 2166POPC   C2B31520  41.778  38.638   8.176
 2166POPC   C3B31521  41.974  38.555   7.767
 2166POPC   C4B31522  41.938  38.180   7.500
 2167POPC   NC331523  14.918   2.009   9.892
 2167POPC   PO431524  15.380   2.146   9.458
 2167POPC   GL131525  15.190   1.814   9.223
 2167POPC   GL231526  14.890   1.934   9.187
 2167POPC   C1A31527  15.248   1.809   8.799
 2167POPC   D2A31528  15.018   2.098   8.533
 2167POPC   C3A31529  15.206   2.141   8.140
 2167POPC   C4A31530  15.179   2.018   7.723
 2167POPC   C1B31531  14.727   1.753   8.827
 2167POPC   C2B31532  14.662   1.755   8.388
 2167POPC   C3B31533  14.858   1.688   7.985
 2167POPC   C4B31534  14.874   1.648   7.529
 2168POPC   NC331535   6.268  17.952   9.544
 2168POPC   PO431536   6.550  18.575   9.735
 2168POPC   GL131537   6.485  18.518   9.255
 2168POPC   GL231538   6.513  18.158   9.132
 2168POPC   C1A31539   6.505  18.511   8.783
 2168POPC   D2A31540   6.330  18.157   8.531
 2168POPC   C3A31541   6.345  18.227   8.074
 2168POPC   C4A31542   6.471  18.643   7.943
 2168POPC   C1B31543   6.831  18.124   8.775
 2168POPC   C2B31544   6.771  18.340   8.362
 2168POPC   C3B31545   6.832  18.270   7.913
 2168POPC   C4B31546   6.674  17.911   7.720
 2169POPC   NC331547  42.484  10.750   9.521
 2169POPC   PO431548  42.220  10.105   9.528
 2169POPC   GL131549  42.335  10.224   9.096
 2169POPC   GL231550  42.390  10.594   9.052
 2169POPC   C1A31551  42.232  10.315   8.653
 2169POPC   D2A31552  42.495  10.295   8.298
 2169POPC   C3A31553  42.332  10.579   7.983
 2169POPC   C4A31554  42.156  10.407   7.630
 2169POPC   C1B31555  42.658  10.598   8.692
 2169POPC   C2B31556  42.684  10.802   8.285
 2169POPC   C3B31557  42.750  10.825   7.797
 2169POPC   C4B31558  42.939  10.823   7.364
 2170POPC   NC331559  28.944   8.800   9.329
 2170POPC   PO431560  29.550   8.646   9.569
 2170POPC   GL131561  29.429   8.675   9.154
 2170POPC   GL231562  29.543   9.015   9.182
 2170POPC   C1A31563  29.240   8.877   8.766
 2170POPC   D2A31564  28.979   8.791   8.401
 2170POPC   C3A31565  29.150   8.932   8.025
 2170POPC   C4A31566  29.242   8.714   7.673
 2170POPC   C1B31567  29.609   9.250   8.808
 2170POPC   C2B31568  29.516   9.371   8.374
 2170POPC   C3B31569  29.369   9.442   7.954
 2170POPC   C4B31570  29.437   9.180   7.647
 2171POPC   NC331571  28.262  20.826   9.472
 2171POPC   PO431572  28.024  20.214   9.407
 2171POPC   GL131573  28.296  20.440   9.052
 2171POPC   GL231574  28.472  20.788   9.026
 2171POPC   C1A31575  28.176  20.649   8.661
 2171POPC   D2A31576  27.961  20.587   8.319
 2171POPC   C3A31577  28.150  20.484   7.962
 2171POPC   C4A31578  28.193  20.719   7.594
 2171POPC   C1B31579  28.657  20.610   8.678
 2171POPC   C2B31580  28.524  20.472   8.312
 2171POPC   C3B31581  28.627  20.672   7.939
 2171POPC   C4B31582  28.769  20.576   7.541
 2172POPC   NC331583  39.431  42.020   9.476
 2172POPC   PO431584  39.100  42.543   9.739
 2172POPC   GL131585  39.296  42.533   9.295
 2172POPC   GL231586  39.596  42.387   9.133
 2172POPC   C1A31587  39.313  42.683   8.850
 2172POPC   D2A31588  39.441  42.549   8.443
 2172POPC   C3A31589  39.212  42.495   8.083
 2172POPC   C4A31590  39.350  42.485   7.676
 2172POPC   C1B31591  39.361  42.166   8.801
 2172POPC   C2B31592  39.299  42.051   8.353
 2172POPC   C3B31593  39.530  42.103   7.953
 2172POPC   C4B31594  39.494  41.999   7.485
 2173POPC   NC331595   1.421   2.322   9.475
 2173POPC   PO431596   1.090   2.969   9.491
 2173POPC   GL131597   1.079   2.779   9.077
 2173POPC   GL231598   1.052   2.388   9.102
 2173POPC   C1A31599   1.244   2.988   8.702
 2173POPC   D2A31600   1.517   3.133   8.366
 2173POPC   C3A31601   1.661   2.748   8.151
 2173POPC   C4A31602   1.473   2.572   7.777
 2173POPC   C1B31603   1.104   2.489   8.649
 2173POPC   C2B31604   0.946   2.768   8.308
 2173POPC   C3B31605   0.865   2.604   7.884
 2173POPC   C4B31606   1.056   2.281   7.606
 2174POPC   NC331607   3.157  29.817   9.903
 2174POPC   PO431608   3.607  30.170   9.583
 2174POPC   GL131609   3.692  30.023   9.183
 2174POPC   GL231610   3.305  30.009   9.148
 2174POPC   C1A31611   3.911  29.949   8.785
 2174POPC   D2A31612   3.848  30.097   8.363
 2174POPC   C3A31613   3.911  29.794   8.029
 2174POPC   C4A31614   3.797  29.784   7.597
 2174POPC   C1B31615   3.425  30.063   8.720
 2174POPC   C2B31616   3.354  30.219   8.324
 2174POPC   C3B31617   3.215  30.234   7.913
 2174POPC   C4B31618   3.216  29.815   7.720
 2175POPC   NC331619  26.544   7.296   9.548
 2175POPC   PO431620  27.201   7.439   9.495
 2175POPC   GL131621  26.964   7.396   9.126
 2175POPC   GL231622  26.640   7.233   9.068
 2175POPC   C1A31623  27.123   7.189   8.751
 2175POPC   D2A31624  27.073   7.354   8.349
 2175POPC   C3A31625  27.154   7.109   7.986
 2175POPC   C4A31626  27.016   7.124   7.579
 2175POPC   C1B31627  26.672   7.452   8.700
 2175POPC   C2B31628  26.359   7.652   8.486
 2175POPC   C3B31629  26.401   7.460   8.100
 2175POPC   C4B31630  26.782   7.481   7.877
 2176POPC   NC331631  25.201  16.355   9.417
 2176POPC   PO431632  25.516  16.881   9.697
 2176POPC   GL131633  25.329  16.811   9.222
 2176POPC   GL231634  25.065  17.013   9.066
 2176POPC   C1A31635  25.406  16.641   8.798
 2176POPC   D2A31636  25.693  16.574   8.462
 2176POPC   C3A31637  25.538  16.773   8.132
 2176POPC   C4A31638  25.218  16.747   7.863
 2176POPC   C1B31639  24.972  16.899   8.663
 2176POPC   C2B31640  25.132  17.043   8.276
 2176POPC   C3B31641  25.001  17.209   7.871
 2176POPC   C4B31642  24.815  16.937   7.601
 2177POPC   NC331643   7.587   9.153   9.641
 2177POPC   PO431644   7.216   8.835   9.160
 2177POPC   GL131645   7.656   8.882   9.164
 2177POPC   GL231646   7.708   9.230   9.163
 2177POPC   C1A31647   7.699   8.886   8.748
 2177POPC   D2A31648   7.326   8.929   8.501
 2177POPC   C3A31649   7.458   8.761   8.132
 2177POPC   C4A31650   7.406   8.700   7.722
 2177POPC   C1B31651   7.607   9.381   8.766
 2177POPC   C2B31652   7.703   9.240   8.365
 2177POPC   C3B31653   7.562   9.243   7.987
 2177POPC   C4B31654   7.213   9.163   7.737
 2178POPC   NC331655  32.711  11.949   9.376
 2178POPC   PO431656  33.141  12.438   9.425
 2178POPC   GL131657  33.194  12.158   9.069
 2178POPC   GL231658  32.838  12.131   8.915
 2178POPC   C1A31659  33.246  12.069   8.617
 2178POPC   D2A31660  32.856  12.042   8.383
 2178POPC   C3A31661  32.906  12.270   8.043
 2178POPC   C4A31662  33.317  12.279   7.859
 2178POPC   C1B31663  32.937  11.677   8.753
 2178POPC   C2B31664  33.153  11.592   8.332
 2178POPC   C3B31665  33.054  11.781   7.929
 2178POPC   C4B31666  32.654  11.882   7.749
 2179POPC   NC331667  35.075  44.106   9.697
 2179POPC   PO431668  35.478  43.671   9.593
 2179POPC   GL131669  35.219  43.790   9.258
 2179POPC   GL231670  35.357  44.109   9.188
 2179POPC   C1A31671  35.351  43.766   8.814
 2179POPC   D2A31672  35.550  43.909   8.444
 2179POPC   C3A31673  35.289  43.926   8.089
 2179POPC   C4A31674  35.481  43.829   7.718
 2179POPC   C1B31675  35.459  44.286   8.755
 2179POPC   C2B31676  35.434  44.410   8.297
 2179POPC   C3B31677  35.326  44.364   7.823
 2179POPC   C4B31678  35.111  44.112   7.503
 2180POPC   NC331679  34.907  15.091   9.780
 2180POPC   PO431680  34.391  15.300   9.464
 2180POPC   GL131681  34.727  15.191   9.225
 2180POPC   GL231682  34.867  14.865   9.293
 2180POPC   C1A31683  34.626  15.407   8.842
 2180POPC   D2A31684  34.241  15.477   8.598
 2180POPC   C3A31685  34.249  15.350   8.152
 2180POPC   C4A31686  34.477  15.232   7.771
 2180POPC   C1B31687  34.585  14.825   8.920
 2180POPC   C2B31688  34.593  15.018   8.510
 2180POPC   C3B31689  34.806  14.935   8.146
 2180POPC   C4B31690  34.710  14.788   7.765
 2181POPC   NC331691  44.373   7.336   9.585
 2181POPC   PO431692  43.675   7.143   9.606
 2181POPC   GL131693  43.778   7.177   9.206
 2181POPC   GL231694  44.060   7.336   9.169
 2181POPC   C1A31695  43.687   7.362   8.816
 2181POPC   D2A31696  43.950   7.295   8.468
 2181POPC   C3A31697  43.827   7.458   8.086
 2181POPC   C4A31698  43.832   7.226   7.702
 2181POPC   C1B31699  44.129   7.629   8.825
 2181POPC   C2B31700  44.056   7.803   8.418
 2181POPC   C3B31701  44.250   7.819   8.042
 2181POPC   C4B31702  44.212   7.574   7.737
 2182POPC   NC331703  27.873  16.597   9.570
 2182POPC   PO431704  27.223  17.008   9.509
 2182POPC   GL131705  27.568  16.824   9.225
 2182POPC   GL231706  27.514  16.550   8.975
 2182POPC   C1A31707  27.907  16.857   8.899
 2182POPC   D2A31708  27.831  16.638   8.535
 2182POPC   C3A31709  27.771  16.632   8.087
 2182POPC   C4A31710  27.580  16.397   7.776
 2182POPC   C1B31711  27.362  16.846   8.682
 2182POPC   C2B31712  27.450  16.953   8.269
 2182POPC   C3B31713  27.348  16.843   7.853
 2182POPC   C4B31714  27.046  16.522   7.799
 2183POPC   NC331715  10.005  28.128   9.296
 2183POPC   PO431716  10.527  28.513   9.604
 2183POPC   GL131717  10.688  28.346   9.188
 2183POPC   GL231718  10.742  28.017   9.089
 2183POPC   C1A31719  10.785  28.358   8.729
 2183POPC   D2A31720  10.687  28.103   8.364
 2183POPC   C3A31721  10.679  28.402   8.076
 2183POPC   C4A31722  10.509  28.576   7.761
 2183POPC   C1B31723  10.411  28.027   8.785
 2183POPC   C2B31724  10.172  28.118   8.392
 2183POPC   C3B31725  10.255  28.151   7.942
 2183POPC   C4B31726  10.314  27.874   7.609
 2184POPC   NC331727  17.701  12.630   9.400
 2184POPC   PO431728  17.101  12.771   9.697
 2184POPC   GL131729  17.272  12.664   9.170
 2184POPC   GL231730  17.538  12.892   8.994
 2184POPC   C1A31731  17.264  12.564   8.714
 2184POPC   D2A31732  17.611  12.514   8.417
 2184POPC   C3A31733  17.581  12.609   8.002
 2184POPC   C4A31734  17.510  12.567   7.588
 2184POPC   C1B31735  17.448  13.050   8.591
 2184POPC   C2B31736  17.243  12.982   8.192
 2184POPC   C3B31737  17.372  13.027   7.775
 2184POPC   C4B31738  17.815  12.999   7.667
 2185POPC   NC331739   7.432  13.788   9.440
 2185POPC   PO431740   7.431  13.110   9.320
 2185POPC   GL131741   7.561  13.483   9.053
 2185POPC   GL231742   7.320  13.781   8.961
 2185POPC   C1A31743   7.641  13.606   8.623
 2185POPC   D2A31744   7.509  13.369   8.270
 2185POPC   C3A31745   7.774  13.410   7.924
 2185POPC   C4A31746   7.672  13.303   7.521
 2185POPC   C1B31747   7.001  13.860   8.647
 2185POPC   C2B31748   6.979  13.827   8.222
 2185POPC   C3B31749   7.269  13.960   7.926
 2185POPC   C4B31750   7.013  13.955   7.608
 2186POPC   NC331751   6.570   2.409   9.531
 2186POPC   PO431752   6.755   3.007   9.526
 2186POPC   GL131753   6.541   2.917   9.144
 2186POPC   GL231754   6.704   2.599   9.083
 2186POPC   C1A31755   6.524   2.845   8.670
 2186POPC   D2A31756   6.746   2.925   8.297
 2186POPC   C3A31757   6.670   2.788   7.889
 2186POPC   C4A31758   6.938   3.047   7.653
 2186POPC   C1B31759   6.547   2.339   8.715
 2186POPC   C2B31760   6.489   2.481   8.295
 2186POPC   C3B31761   6.284   2.451   7.922
 2186POPC   C4B31762   6.529   2.374   7.582
 2187POPC   NC331763   6.489   5.036   9.604
 2187POPC   PO431764   7.061   5.435   9.448
 2187POPC   GL131765   6.833   5.053   9.200
 2187POPC   GL231766   6.451   5.025   9.107
 2187POPC   C1A31767   6.814   4.948   8.744
 2187POPC   D2A31768   6.932   5.198   8.379
 2187POPC   C3A31769   6.885   5.018   7.984
 2187POPC   C4A31770   6.632   5.156   7.642
 2187POPC   C1B31771   6.417   4.652   8.843
 2187POPC   C2B31772   6.302   4.625   8.386
 2187POPC   C3B31773   6.353   4.835   7.956
 2187POPC   C4B31774   6.346   4.760   7.483
 2188POPC   NC331775   7.721   2.024   9.521
 2188POPC   PO431776   7.045   2.334   9.462
 2188POPC   GL131777   7.321   2.064   9.176
 2188POPC   GL231778   7.614   1.796   9.106
 2188POPC   C1A31779   7.558   2.232   8.842
 2188POPC   D2A31780   7.477   2.495   8.505
 2188POPC   C3A31781   7.471   2.297   8.131
 2188POPC   C4A31782   7.273   2.157   7.767
 2188POPC   C1B31783   7.379   1.724   8.787
 2188POPC   C2B31784   7.472   1.914   8.457
 2188POPC   C3B31785   7.514   1.783   8.054
 2188POPC   C4B31786   7.169   1.664   7.841
 2189POPC   NC331787  26.423   9.088   9.508
 2189POPC   PO431788  26.836   8.582   9.488
 2189POPC   GL131789  26.755   8.665   9.061
 2189POPC   GL231790  26.570   8.985   9.017
 2189POPC   C1A31791  26.944   8.606   8.658
 2189POPC   D2A31792  26.993   8.793   8.253
 2189POPC   C3A31793  26.727   8.697   7.904
 2189POPC   C4A31794  26.739   8.498   7.495
 2189POPC   C1B31795  26.525   8.904   8.579
 2189POPC   C2B31796  26.578   9.101   8.188
 2189POPC   C3B31797  26.771   9.234   7.807
 2189POPC   C4B31798  26.769   9.433   7.382
 2190POPC   NC331799  28.960   3.063   9.366
 2190POPC   PO431800  29.131   3.749   9.503
 2190POPC   GL131801  29.135   3.532   9.153
 2190POPC   GL231802  28.796   3.500   9.123
 2190POPC   C1A31803  29.291   3.375   8.785
 2190POPC   D2A31804  29.586   3.491   8.460
 2190POPC   C3A31805  29.472   3.389   8.038
 2190POPC   C4A31806  29.426   3.556   7.645
 2190POPC   C1B31807  28.878   3.700   8.726
 2190POPC   C2B31808  29.077   3.624   8.317
 2190POPC   C3B31809  28.969   3.566   7.886
 2190POPC   C4B31810  28.955   3.458   7.454
 2191POPC   NC331811  44.430  24.279   9.442
 2191POPC   PO431812   0.101  24.644   9.424
 2191POPC   GL131813  44.773  24.560   9.120
 2191POPC   GL231814  44.424  24.693   9.103
 2191POPC   C1A31815  44.753  24.466   8.691
 2191POPC   D2A31816  44.993  24.395   8.351
 2191POPC   C3A31817  44.788  24.313   8.000
 2191POPC   C4A31818  44.862  24.571   7.677
 2191POPC   C1B31819  44.236  24.562   8.724
 2191POPC   C2B31820  44.362  24.480   8.278
 2191POPC   C3B31821  44.371  24.647   7.839
 2191POPC   C4B31822  44.479  24.737   7.387
 2192POPC   NC331823   1.477  30.012   9.872
 2192POPC   PO431824   1.968  29.773   9.480
 2192POPC   GL131825   1.849  29.959   9.109
 2192POPC   GL231826   1.538  30.129   9.136
 2192POPC   C1A31827   2.004  29.887   8.687
 2192POPC   D2A31828   1.839  29.745   8.288
 2192POPC   C3A31829   2.044  29.784   7.874
 2192POPC   C4A31830   2.316  29.971   7.576
 2192POPC   C1B31831   1.475  29.933   8.728
 2192POPC   C2B31832   1.506  30.137   8.340
 2192POPC   C3B31833   1.612  30.047   7.935
 2192POPC   C4B31834   1.784  30.053   7.524
 2193POPC   NC331835  22.933   1.618   9.474
 2193POPC   PO431836  22.861   2.285   9.466
 2193POPC   GL131837  22.929   1.964   9.110
 2193POPC   GL231838  23.285   1.987   9.151
 2193POPC   C1A31839  22.698   1.826   8.697
 2193POPC   D2A31840  22.763   2.089   8.287
 2193POPC   C3A31841  22.691   2.072   7.809
 2193POPC   C4A31842  22.732   2.258   7.388
 2193POPC   C1B31843  23.153   2.326   8.829
 2193POPC   C2B31844  23.074   2.506   8.411
 2193POPC   C3B31845  23.124   2.346   7.974
 2193POPC   C4B31846  23.195   1.940   7.794
 2194POPC   NC331847  41.697   7.572   9.650
 2194POPC   PO431848  41.265   7.894   9.322
 2194POPC   GL131849  41.329   7.479   9.147
 2194POPC   GL231850  41.669   7.343   9.161
 2194POPC   C1A31851  41.394   7.453   8.722
 2194POPC   D2A31852  41.605   7.362   8.351
 2194POPC   C3A31853  41.543   7.584   8.014
 2194POPC   C4A31854  41.384   7.573   7.628
 2194POPC   C1B31855  41.944   7.394   8.783
 2194POPC   C2B31856  42.061   7.161   8.387
 2194POPC   C3B31857  42.075   7.424   8.029
 2194POPC   C4B31858  41.849   7.377   7.654
 2195POPC   NC331859  15.939   9.625   9.538
 2195POPC   PO431860  16.021  10.337   9.593
 2195POPC   GL131861  15.902  10.029   9.215
 2195POPC   GL231862  15.739   9.660   9.085
 2195POPC   C1A31863  16.024   9.958   8.803
 2195POPC   D2A31864  15.793   9.763   8.490
 2195POPC   C3A31865  16.026   9.833   8.152
 2195POPC   C4A31866  15.928   9.940   7.740
 2195POPC   C1B31867  15.721   9.317   8.755
 2195POPC   C2B31868  15.610   9.259   8.325
 2195POPC   C3B31869  15.769   9.448   7.951
 2195POPC   C4B31870  16.009   9.298   7.617
 2196POPC   NC331871  13.422  35.171   9.848
 2196POPC   PO431872  13.921  34.845   9.472
 2196POPC   GL131873  13.661  34.773   9.140
 2196POPC   GL231874  13.746  34.467   9.007
 2196POPC   C1A31875  13.766  34.876   8.707
 2196POPC   D2A31876  13.629  34.599   8.416
 2196POPC   C3A31877  13.498  34.720   8.018
 2196POPC   C4A31878  13.611  34.592   7.645
 2196POPC   C1B31879  13.480  34.222   8.762
 2196POPC   C2B31880  13.240  34.279   8.411
 2196POPC   C3B31881  13.475  34.207   8.025
 2196POPC   C4B31882  13.399  34.122   7.597
 2197POPC   NC331883  31.027  19.379   9.472
 2197POPC   PO431884  31.550  19.762   9.547
 2197POPC   GL131885  31.687  19.768   9.121
 2197POPC   GL231886  31.503  20.048   9.096
 2197POPC   C1A31887  31.582  19.759   8.679
 2197POPC   D2A31888  31.648  20.104   8.396
 2197POPC   C3A31889  31.796  19.940   8.021
 2197POPC   C4A31890  31.720  19.544   7.826
 2197POPC   C1B31891  31.237  20.143   8.752
 2197POPC   C2B31892  31.160  20.286   8.342
 2197POPC   C3B31893  31.254  20.159   7.951
 2197POPC   C4B31894  31.462  19.952   7.624
 2198POPC   NC331895  33.939  28.121   9.599
 2198POPC   PO431896  33.466  28.605   9.498
 2198POPC   GL131897  33.766  28.409   9.218
 2198POPC   GL231898  34.155  28.419   9.252
 2198POPC   C1A31899  33.716  28.317   8.819
 2198POPC   D2A31900  33.622  28.547   8.465
 2198POPC   C3A31901  33.684  28.228   8.158
 2198POPC   C4A31902  33.710  28.358   7.753
 2198POPC   C1B31903  34.274  28.260   8.866
 2198POPC   C2B31904  34.119  28.364   8.445
 2198POPC   C3B31905  34.158  28.449   7.998
 2198POPC   C4B31906  34.164  28.412   7.508
 2199POPC   NC331907   2.302  18.585   9.903
 2199POPC   PO431908   1.841  18.257   9.583
 2199POPC   GL131909   1.904  18.384   9.162
 2199POPC   GL231910   2.260  18.300   9.139
 2199POPC   C1A31911   1.944  18.233   8.730
 2199POPC   D2A31912   1.738  18.109   8.352
 2199POPC   C3A31913   1.956  18.186   7.956
 2199POPC   C4A31914   1.765  18.444   7.680
 2199POPC   C1B31915   2.514  18.405   8.774
 2199POPC   C2B31916   2.627  18.358   8.343
 2199POPC   C3B31917   2.464  18.533   7.955
 2199POPC   C4B31918   2.266  18.393   7.576
 2200POPC   NC331919  32.847  10.305   9.557
 2200POPC   PO431920  33.284  10.895   9.629
 2200POPC   GL131921  33.184  10.576   9.276
 2200POPC   GL231922  32.850  10.672   9.155
 2200POPC   C1A31923  33.200  10.327   8.876
 2200POPC   D2A31924  33.110  10.402   8.431
 2200POPC   C3A31925  32.914  10.339   8.007
 2200POPC   C4A31926  33.091  10.214   7.613
 2200POPC   C1B31927  32.733  10.523   8.744
 2200POPC   C2B31928  32.658  10.670   8.321
 2200POPC   C3B31929  32.651  10.821   7.905
 2200POPC   C4B31930  32.725  10.539   7.536
 2201POPC   NC331931  41.604  25.824   9.475
 2201POPC   PO431932  41.354  26.468   9.461
 2201POPC   GL131933  41.367  26.127   9.120
 2201POPC   GL231934  41.697  25.898   9.005
 2201POPC   C1A31935  41.314  25.935   8.722
 2201POPC   D2A31936  41.630  25.894   8.422
 2201POPC   C3A31937  41.413  26.017   8.062
 2201POPC   C4A31938  41.237  25.799   7.751
 2201POPC   C1B31939  41.793  26.256   8.779
 2201POPC   C2B31940  41.942  26.338   8.343
 2201POPC   C3B31941  41.841  26.270   7.905
 2201POPC   C4B31942  41.704  25.978   7.633
 2202POPC   NC331943   5.898  14.156   9.435
 2202POPC   PO431944   6.116  13.479   9.486
 2202POPC   GL131945   6.219  13.665   9.132
 2202POPC   GL231946   5.863  13.736   9.120
 2202POPC   C1A31947   6.127  13.626   8.718
 2202POPC   D2A31948   6.094  13.941   8.441
 2202POPC   C3A31949   6.056  13.735   8.061
 2202POPC   C4A31950   6.131  13.398   7.830
 2202POPC   C1B31951   5.648  13.815   8.708
 2202POPC   C2B31952   5.620  13.964   8.271
 2202POPC   C3B31953   5.625  13.928   7.823
 2202POPC   C4B31954   5.543  13.801   7.370
 2203POPC   NC331955  22.422  30.906   9.670
 2203POPC   PO431956  23.040  30.593   9.665
 2203POPC   GL131957  22.976  30.756   9.208
 2203POPC   GL231958  23.167  30.490   9.058
 2203POPC   C1A31959  22.957  30.858   8.725
 2203POPC   D2A31960  22.657  30.967   8.356
 2203POPC   C3A31961  22.758  30.891   7.913
 2203POPC   C4A31962  22.749  30.596   7.544
 2203POPC   C1B31963  23.273  30.435   8.608
 2203POPC   C2B31964  23.073  30.629   8.251
 2203POPC   C3B31965  23.205  30.663   7.830
 2203POPC   C4B31966  23.553  30.426   7.681
 2204POPC   NC331967  40.611  22.817   9.443
 2204POPC   PO431968  40.220  23.278   9.407
 2204POPC   GL131969  40.596  23.163   9.088
 2204POPC   GL231970  40.997  23.070   9.153
 2204POPC   C1A31971  40.776  22.942   8.707
 2204POPC   D2A31972  40.636  22.878   8.305
 2204POPC   C3A31973  40.790  23.016   7.924
 2204POPC   C4A31974  40.549  22.863   7.604
 2204POPC   C1B31975  41.207  22.715   8.853
 2204POPC   C2B31976  41.160  22.634   8.436
 2204POPC   C3B31977  40.942  22.531   8.073
 2204POPC   C4B31978  41.093  22.517   7.672
 2205POPC   NC331979  14.226  29.250   9.569
 2205POPC   PO431980  14.754  28.967   9.489
 2205POPC   GL131981  14.475  28.964   9.178
 2205POPC   GL231982  14.160  28.842   9.212
 2205POPC   C1A31983  14.389  29.158   8.830
 2205POPC   D2A31984  14.420  29.362   8.432
 2205POPC   C3A31985  14.613  29.183   8.094
 2205POPC   C4A31986  14.464  29.033   7.748
 2205POPC   C1B31987  13.946  28.913   8.825
 2205POPC   C2B31988  14.135  28.925   8.457
 2205POPC   C3B31989  14.113  28.936   8.080
 2205POPC   C4B31990  13.876  28.934   7.730
 2206POPC   NC331991  11.209   9.492   9.516
 2206POPC   PO431992  11.590  10.011   9.635
 2206POPC   GL131993  11.425   9.872   9.182
 2206POPC   GL231994  11.137   9.635   9.048
 2206POPC   C1A31995  11.434   9.900   8.712
 2206POPC   D2A31996  11.565   9.745   8.329
 2206POPC   C3A31997  11.485   9.914   7.946
 2206POPC   C4A31998  11.498   9.609   7.651
 2206POPC   C1B31999  11.402   9.397   8.771
 2206POPC   C2B32000  11.378   9.267   8.374
 2206POPC   C3B32001  11.187   9.465   8.025
 2206POPC   C4B32002  10.946   9.306   7.677
 2207POPC   NC332003  11.232   1.645   9.297
 2207POPC   PO432004  11.114   0.870   9.360
 2207POPC   GL132005  11.259   1.171   9.113
 2207POPC   GL232006  10.947   1.306   9.036
 2207POPC   C1A32007  11.379   1.346   8.713
 2207POPC   D2A32008  11.380   1.104   8.347
 2207POPC   C3A32009  11.707   1.202   8.087
 2207POPC   C4A32010  11.531   1.421   7.758
 2207POPC   C1B32011  10.965   1.046   8.677
 2207POPC   C2B32012  10.903   1.323   8.317
 2207POPC   C3B32013  11.023   1.403   7.898
 2207POPC   C4B32014  11.048   1.497   7.451
 2208POPC   NC332015  28.722  27.003  10.102
 2208POPC   PO432016  28.190  27.243   9.678
 2208POPC   GL132017  28.417  27.062   9.266
 2208POPC   GL232018  28.367  26.722   9.208
 2208POPC   C1A32019  28.568  26.919   8.799
 2208POPC   D2A32020  28.411  26.957   8.365
 2208POPC   C3A32021  28.514  26.737   7.970
 2208POPC   C4A32022  28.408  26.823   7.524
 2208POPC   C1B32023  28.265  26.504   8.835
 2208POPC   C2B32024  28.305  26.465   8.396
 2208POPC   C3B32025  28.088  26.425   8.008
 2208POPC   C4B32026  28.331  26.339   7.668
 2209POPC   NC332027  24.680  42.028   9.457
 2209POPC   PO432028  24.278  42.531   9.602
 2209POPC   GL132029  24.396  42.411   9.257
 2209POPC   GL232030  24.149  42.219   9.160
 2209POPC   C1A32031  24.545  42.364   8.867
 2209POPC   D2A32032  24.429  42.411   8.474
 2209POPC   C3A32033  24.570  42.180   8.134
 2209POPC   C4A32034  24.451  42.243   7.710
 2209POPC   C1B32035  24.079  42.162   8.752
 2209POPC   C2B32036  24.118  42.023   8.308
 2209POPC   C3B32037  24.005  42.037   7.861
 2209POPC   C4B32038  24.149  41.876   7.438
 2210POPC   NC332039  29.081  38.609   9.621
 2210POPC   PO432040  29.709  38.480   9.557
 2210POPC   GL132041  29.414  38.667   9.208
 2210POPC   GL232042  29.074  38.516   9.103
 2210POPC   C1A32043  29.378  38.781   8.734
 2210POPC   D2A32044  29.646  38.710   8.320
 2210POPC   C3A32045  29.529  38.595   7.869
 2210POPC   C4A32046  29.100  38.533   7.680
 2210POPC   C1B32047  29.076  38.370   8.655
 2210POPC   C2B32048  29.179  38.421   8.195
 2210POPC   C3B32049  29.258  38.094   7.835
 2210POPC   C4B32050  29.115  38.078   7.384
 2211POPC   NC332051  28.173  18.378   9.584
 2211POPC   PO432052  28.523  17.828   9.758
 2211POPC   GL132053  28.315  17.961   9.312
 2211POPC   GL232054  28.322  18.279   9.103
 2211POPC   C1A32055  28.429  17.880   8.834
 2211POPC   D2A32056  28.446  17.667   8.419
 2211POPC   C3A32057  28.494  17.942   8.035
 2211POPC   C4A32058  28.339  18.029   7.621
 2211POPC   C1B32059  28.571  18.359   8.735
 2211POPC   C2B32060  28.597  18.412   8.284
 2211POPC   C3B32061  28.406  18.508   7.869
 2211POPC   C4B32062  28.152  18.862   7.680
 2212POPC   NC332063  20.804   9.761   9.629
 2212POPC   PO432064  20.382  10.165   9.924
 2212POPC   GL132065  20.453  10.024   9.353
 2212POPC   GL232066  20.532   9.700   9.207
 2212POPC   C1A32067  20.328   9.912   8.816
 2212POPC   D2A32068  20.303   9.729   8.334
 2212POPC   C3A32069  20.570   9.813   7.959
 2212POPC   C4A32070  20.683   9.617   7.549
 2212POPC   C1B32071  20.820   9.845   8.874
 2212POPC   C2B32072  20.788   9.634   8.453
 2212POPC   C3B32073  20.949   9.497   8.053
 2212POPC   C4B32074  21.122   9.751   7.765
 2213POPC   NC332075  29.943  18.955   9.388
 2213POPC   PO432076  30.594  19.199   9.466
 2213POPC   GL132077  30.284  19.190   9.097
 2213POPC   GL232078  30.266  18.835   9.013
 2213POPC   C1A32079  30.055  19.173   8.679
 2213POPC   D2A32080  30.164  19.136   8.223
 2213POPC   C3A32081  29.934  19.301   7.827
 2213POPC   C4A32082  29.501  19.363   7.750
 2213POPC   C1B32083  29.966  18.661   8.727
 2213POPC   C2B32084  30.035  18.618   8.286
 2213POPC   C3B32085  29.914  18.808   7.928
 2213POPC   C4B32086  30.154  18.846   7.602
 2214POPC   NC332087  22.367   2.437   9.569
 2214POPC   PO432088  22.047   1.788   9.679
 2214POPC   GL132089  22.087   1.865   9.237
 2214POPC   GL232090  22.432   2.006   9.221
 2214POPC   C1A32091  22.180   1.877   8.778
 2214POPC   D2A32092  22.329   1.688   8.369
 2214POPC   C3A32093  22.099   1.829   8.027
 2214POPC   C4A32094  22.162   2.043   7.671
 2214POPC   C1B32095  22.591   2.281   8.882
 2214POPC   C2B32096  22.383   2.363   8.514
 2214POPC   C3B32097  22.325   2.307   8.083
 2214POPC   C4B32098  22.375   2.493   7.665
 2215POPC   NC332099  21.437   2.545   9.516
 2215POPC   PO432100  21.132   3.124   9.690
 2215POPC   GL132101  21.247   3.003   9.228
 2215POPC   GL232102  20.914   3.106   9.138
 2215POPC   C1A32103  21.442   2.719   8.838
 2215POPC   D2A32104  21.445   2.407   8.458
 2215POPC   C3A32105  21.459   2.600   8.029
 2215POPC   C4A32106  21.733   2.918   7.792
 2215POPC   C1B32107  21.063   3.077   8.719
 2215POPC   C2B32108  21.324   2.981   8.374
 2215POPC   C3B32109  21.290   3.086   7.958
 2215POPC   C4B32110  21.144   2.993   7.566
 2216POPC   NC332111  42.055  18.581   9.503
 2216POPC   PO432112  42.620  18.149   9.525
 2216POPC   GL132113  42.556  18.295   9.154
 2216POPC   GL232114  42.233  18.320   9.126
 2216POPC   C1A32115  42.613  18.466   8.767
 2216POPC   D2A32116  42.463  18.274   8.417
 2216POPC   C3A32117  42.642  18.393   8.044
 2216POPC   C4A32118  42.762  18.305   7.667
 2216POPC   C1B32119  42.086  18.437   8.762
 2216POPC   C2B32120  41.968  18.494   8.369
 2216POPC   C3B32121  42.128  18.296   8.015
 2216POPC   C4B32122  42.286  18.463   7.641
 2217POPC   NC332123  19.329   7.900   9.491
 2217POPC   PO432124  19.260   8.636   9.607
 2217POPC   GL132125  19.109   8.314   9.236
 2217POPC   GL232126  19.428   8.274   9.063
 2217POPC   C1A32127  18.900   8.140   8.808
 2217POPC   D2A32128  18.936   7.901   8.424
 2217POPC   C3A32129  18.835   8.061   8.015
 2217POPC   C4A32130  19.019   8.131   7.642
 2217POPC   C1B32131  19.367   8.178   8.614
 2217POPC   C2B32132  19.331   8.122   8.149
 2217POPC   C3B32133  19.295   8.498   7.845
 2217POPC   C4B32134  19.279   8.490   7.383
 2218POPC   NC332135   0.635  33.591   9.430
 2218POPC   PO432136   0.431  34.153   9.608
 2218POPC   GL132137   0.356  33.925   9.164
 2218POPC   GL232138   0.600  33.685   8.941
 2218POPC   C1A32139   0.251  33.963   8.709
 2218POPC   D2A32140   0.066  34.065   8.287
 2218POPC   C3A32141   0.246  33.897   7.884
 2218POPC   C4A32142   0.544  33.931   7.528
 2218POPC   C1B32143   0.875  33.664   8.581
 2218POPC   C2B32144   0.882  33.461   8.157
 2218POPC   C3B32145   0.672  33.476   7.742
 2218POPC   C4B32146   0.632  33.482   7.279
 2219POPC   NC332147  13.510   8.081   9.627
 2219POPC   PO432148  13.287   8.732   9.602
 2219POPC   GL132149  13.444   8.401   9.240
 2219POPC   GL232150  13.393   8.023   9.141
 2219POPC   C1A32151  13.813   8.263   8.945
 2219POPC   D2A32152  14.144   8.225   8.576
 2219POPC   C3A32153  13.985   8.114   8.150
 2219POPC   C4A32154  13.852   8.305   7.751
 2219POPC   C1B32155  13.484   7.905   8.742
 2219POPC   C2B32156  13.393   7.970   8.316
 2219POPC   C3B32157  13.545   7.917   7.907
 2219POPC   C4B32158  13.531   7.955   7.470
 2220POPC   NC332159  44.448   0.518   9.731
 2220POPC   PO432160  43.696   0.427   9.549
 2220POPC   GL132161  43.769   0.486   9.127
 2220POPC   GL232162  44.096   0.514   9.190
 2220POPC   C1A32163  43.995   0.623   8.716
 2220POPC   D2A32164  43.953   0.449   8.315
 2220POPC   C3A32165  44.040   0.580   7.886
 2220POPC   C4A32166  43.745   0.563   7.552
 2220POPC   C1B32167  43.991   0.127   8.860
 2220POPC   C2B32168  44.221   0.042   8.460
 2220POPC   C3B32169  44.230   0.008   8.032
 2220POPC   C4B32170  44.108   0.129   7.598
 2221POPC   NC332171   4.017   9.241   9.471
 2221POPC   PO432172   4.645   8.926   9.453
 2221POPC   GL132173   4.476   8.686   9.137
 2221POPC   GL232174   4.163   8.817   9.106
 2221POPC   C1A32175   4.546   8.709   8.702
 2221POPC   D2A32176   4.352   8.835   8.344
 2221POPC   C3A32177   4.602   9.111   8.147
 2221POPC   C4A32178   4.592   8.993   7.752
 2221POPC   C1B32179   4.133   9.096   8.747
 2221POPC   C2B32180   4.063   9.260   8.306
 2221POPC   C3B32181   4.103   9.069   7.896
 2221POPC   C4B32182   4.233   9.127   7.422
 2222POPC   NC332183  35.166  12.283   9.462
 2222POPC   PO432184  34.500  12.035   9.508
 2222POPC   GL132185  34.252  12.005   9.157
 2222POPC   GL232186  34.557  12.033   8.949
 2222POPC   C1A32187  34.102  12.078   8.754
 2222POPC   D2A32188  34.358  12.139   8.416
 2222POPC   C3A32189  34.201  11.997   8.040
 2222POPC   C4A32190  34.311  12.371   7.834
 2222POPC   C1B32191  34.943  12.243   8.821
 2222POPC   C2B32192  35.064  12.380   8.419
 2222POPC   C3B32193  34.770  12.340   8.118
 2222POPC   C4B32194  34.751  12.097   7.782
 2223POPC   NC332195  39.258  25.795   9.629
 2223POPC   PO432196  38.952  26.277   9.323
 2223POPC   GL132197  39.252  25.994   9.150
 2223POPC   GL232198  39.542  26.243   9.188
 2223POPC   C1A32199  39.146  25.768   8.754
 2223POPC   D2A32200  38.769  25.754   8.438
 2223POPC   C3A32201  38.873  25.870   8.003
 2223POPC   C4A32202  39.239  25.778   7.763
 2223POPC   C1B32203  39.365  26.259   8.741
 2223POPC   C2B32204  39.286  26.047   8.348
 2223POPC   C3B32205  39.256  26.238   7.997
 2223POPC   C4B32206  39.103  26.299   7.616
 2224POPC   NC332207  36.935   6.615   9.524
 2224POPC   PO432208  36.433   6.976   9.693
 2224POPC   GL132209  36.471   6.702   9.230
 2224POPC   GL232210  36.812   6.571   9.040
 2224POPC   C1A32211  36.488   6.840   8.765
 2224POPC   D2A32212  36.801   6.688   8.469
 2224POPC   C3A32213  36.818   6.691   8.005
 2224POPC   C4A32214  37.148   6.771   7.691
 2224POPC   C1B32215  37.226   6.532   8.758
 2224POPC   C2B32216  37.363   6.409   8.301
 2224POPC   C3B32217  37.270   6.270   7.846
 2224POPC   C4B32218  37.505   6.262   7.443
 2225POPC   NC332219  17.262  26.295   9.827
 2225POPC   PO432220  17.365  26.890   9.489
 2225POPC   GL132221  17.515  26.817   9.084
 2225POPC   GL232222  17.488  27.155   8.980
 2225POPC   C1A32223  17.264  26.748   8.713
 2225POPC   D2A32224  17.088  26.834   8.340
 2225POPC   C3A32225  17.168  26.558   7.975
 2225POPC   C4A32226  17.275  26.418   7.546
 2225POPC   C1B32227  17.754  26.960   8.653
 2225POPC   C2B32228  17.568  27.017   8.264
 2225POPC   C3B32229  17.602  26.831   7.892
 2225POPC   C4B32230  17.958  26.624   7.736
 2226POPC   NC332231  40.718  12.483   9.557
 2226POPC   PO432232  40.411  11.785   9.646
 2226POPC   GL132233  40.568  11.924   9.249
 2226POPC   GL232234  40.490  12.259   9.155
 2226POPC   C1A32235  40.672  11.872   8.825
 2226POPC   D2A32236  40.733  12.084   8.463
 2226POPC   C3A32237  40.863  11.816   8.138
 2226POPC   C4A32238  40.933  12.058   7.780
 2226POPC   C1B32239  40.270  12.200   8.786
 2226POPC   C2B32240  40.216  12.176   8.378
 2226POPC   C3B32241  40.445  12.102   8.014
 2226POPC   C4B32242  40.377  12.348   7.677
 2227POPC   NC332243   5.208  21.079   9.900
 2227POPC   PO432244   5.335  21.655   9.625
 2227POPC   GL132245   5.118  21.329   9.378
 2227POPC   GL232246   5.305  21.355   9.119
 2227POPC   C1A32247   4.881  21.131   8.979
 2227POPC   D2A32248   4.812  21.233   8.526
 2227POPC   C3A32249   4.921  21.133   8.089
 2227POPC   C4A32250   5.241  21.172   7.712
 2227POPC   C1B32251   5.092  21.575   8.806
 2227POPC   C2B32252   5.195  21.766   8.422
 2227POPC   C3B32253   5.150  21.591   8.006
 2227POPC   C4B32254   4.838  21.471   7.689
 2228POPC   NC332255  24.370   8.556   9.327
 2228POPC   PO432256  24.472   8.015   9.595
 2228POPC   GL132257  24.409   8.074   9.138
 2228POPC   GL232258  24.056   8.224   9.073
 2228POPC   C1A32259  24.358   8.054   8.684
 2228POPC   D2A32260  24.469   8.235   8.262
 2228POPC   C3A32261  24.384   8.000   7.875
 2228POPC   C4A32262  24.342   8.129   7.449
 2228POPC   C1B32263  23.891   8.258   8.660
 2228POPC   C2B32264  24.007   8.424   8.232
 2228POPC   C3B32265  24.117   8.468   7.768
 2228POPC   C4B32266  24.344   8.643   7.374
 2229POPC   NC332267  21.136  44.426   9.769
 2229POPC   PO432268  21.282   0.026   9.561
 2229POPC   GL132269  21.557  44.722   9.314
 2229POPC   GL232270  21.342  44.445   9.241
 2229POPC   C1A32271  21.713  44.505   8.879
 2229POPC   D2A32272  21.708  44.411   8.437
 2229POPC   C3A32273  21.533  44.626   8.036
 2229POPC   C4A32274  21.230  44.391   7.745
 2229POPC   C1B32275  21.294  44.769   8.887
 2229POPC   C2B32276  21.205  44.717   8.452
 2229POPC   C3B32277  21.023  44.741   8.044
 2229POPC   C4B32278  21.132  44.876   7.618
 2230POPC   NC332279  24.278  30.498   9.486
 2230POPC   PO432280  24.916  30.691   9.744
 2230POPC   GL132281  24.714  30.811   9.318
 2230POPC   GL232282  24.873  31.118   9.183
 2230POPC   C1A32283  24.625  30.706   8.908
 2230POPC   D2A32284  24.683  30.789   8.490
 2230POPC   C3A32285  24.473  30.700   8.163
 2230POPC   C4A32286  24.451  30.732   7.749
 2230POPC   C1B32287  25.032  31.037   8.771
 2230POPC   C2B32288  25.158  30.910   8.354
 2230POPC   C3B32289  24.926  30.936   7.990
 2230POPC   C4B32290  24.938  30.798   7.546
 2231POPC   NC332291  19.212  12.478   9.394
 2231POPC   PO432292  19.079  13.116   9.362
 2231POPC   GL132293  18.953  12.831   9.010
 2231POPC   GL232294  18.787  12.550   9.140
 2231POPC   C1A32295  19.098  12.726   8.569
 2231POPC   D2A32296  19.300  12.450   8.243
 2231POPC   C3A32297  19.303  12.702   7.901
 2231POPC   C4A32298  19.013  13.047   7.862
 2231POPC   C1B32299  18.873  12.343   8.801
 2231POPC   C2B32300  18.854  12.279   8.407
 2231POPC   C3B32301  18.810  12.604   8.136
 2231POPC   C4B32302  18.769  12.603   7.730
 2232POPC   NC332303  33.764  17.496   9.602
 2232POPC   PO432304  34.244  17.158   9.318
 2232POPC   GL132305  33.962  17.509   9.134
 2232POPC   GL232306  33.582  17.452   9.101
 2232POPC   C1A32307  33.869  17.726   8.748
 2232POPC   D2A32308  33.988  17.570   8.354
 2232POPC   C3A32309  34.003  17.804   7.988
 2232POPC   C4A32310  34.007  17.602   7.578
 2232POPC   C1B32311  33.460  17.445   8.625
 2232POPC   C2B32312  33.511  17.676   8.234
 2232POPC   C3B32313  33.559  17.606   7.801
 2232POPC   C4B32314  33.546  17.560   7.349
 2233POPC   NC332315  27.623  35.722   9.347
 2233POPC   PO432316  27.754  35.109   9.623
 2233POPC   GL132317  27.841  35.282   9.234
 2233POPC   GL232318  27.506  35.204   9.159
 2233POPC   C1A32319  27.881  35.427   8.794
 2233POPC   D2A32320  27.638  35.488   8.416
 2233POPC   C3A32321  27.769  35.397   7.999
 2233POPC   C4A32322  27.635  35.502   7.575
 2233POPC   C1B32323  27.325  35.236   8.746
 2233POPC   C2B32324  27.210  35.221   8.304
 2233POPC   C3B32325  27.254  35.491   7.958
 2233POPC   C4B32326  27.080  35.543   7.555
 2234POPC   NC332327  20.732   7.844   9.437
 2234POPC   PO432328  20.802   8.471   9.527
 2234POPC   GL132329  20.623   8.268   9.141
 2234POPC   GL232330  20.354   7.958   9.138
 2234POPC   C1A32331  20.720   8.426   8.734
 2234POPC   D2A32332  20.728   8.598   8.323
 2234POPC   C3A32333  20.803   8.360   7.960
 2234POPC   C4A32334  20.921   7.929   7.807
 2234POPC   C1B32335  20.307   8.100   8.725
 2234POPC   C2B32336  20.519   8.132   8.333
 2234POPC   C3B32337  20.418   8.039   7.908
 2234POPC   C4B32338  20.233   7.933   7.528
 2235POPC   NC332339  39.725  12.579   9.489
 2235POPC   PO432340  39.710  13.106   9.164
 2235POPC   GL132341  39.917  12.749   8.987
 2235POPC   GL232342  40.273  12.706   8.987
 2235POPC   C1A32343  40.034  12.626   8.561
 2235POPC   D2A32344  39.705  12.639   8.287
 2235POPC   C3A32345  39.769  12.992   8.035
 2235POPC   C4A32346  39.725  12.782   7.703
 2235POPC   C1B32347  40.432  12.987   8.683
 2235POPC   C2B32348  40.215  13.022   8.296
 2235POPC   C3B32349  40.227  12.894   7.846
 2235POPC   C4B32350  40.038  13.146   7.488
 2236POPC   NC332351   4.161  42.741   9.389
 2236POPC   PO432352   4.500  43.302   9.628
 2236POPC   GL132353   4.277  43.346   9.244
 2236POPC   GL232354   3.985  43.163   9.189
 2236POPC   C1A32355   4.319  43.209   8.810
 2236POPC   D2A32356   4.351  42.918   8.493
 2236POPC   C3A32357   4.437  43.188   8.158
 2236POPC   C4A32358   4.368  43.195   7.733
 2236POPC   C1B32359   3.811  43.142   8.781
 2236POPC   C2B32360   3.955  43.232   8.401
 2236POPC   C3B32361   3.918  43.191   7.964
 2236POPC   C4B32362   3.889  42.890   7.652
 2237POPC   NC332363  16.406  28.873   9.377
 2237POPC   PO432364  16.978  29.040   9.687
 2237POPC   GL132365  16.872  29.078   9.245
 2237POPC   GL232366  16.653  29.318   9.200
 2237POPC   C1A32367  16.855  28.976   8.790
 2237POPC   D2A32368  16.910  29.272   8.447
 2237POPC   C3A32369  17.090  29.215   8.044
 2237POPC   C4A32370  16.958  28.996   7.744
 2237POPC   C1B32371  16.437  29.287   8.798
 2237POPC   C2B32372  16.460  29.020   8.426
 2237POPC   C3B32373  16.531  29.104   7.987
 2237POPC   C4B32374  16.266  29.430   7.748
 2238POPC   NC332375  27.437   5.971   9.742
 2238POPC   PO432376  28.053   5.886   9.659
 2238POPC   GL132377  27.786   5.850   9.325
 2238POPC   GL232378  27.803   5.515   9.273
 2238POPC   C1A32379  27.793   5.949   8.891
 2238POPC   D2A32380  27.727   6.223   8.523
 2238POPC   C3A32381  27.596   5.976   8.166
 2238POPC   C4A32382  27.608   6.174   7.759
 2238POPC   C1B32383  27.958   5.469   8.884
 2238POPC   C2B32384  27.719   5.531   8.516
 2238POPC   C3B32385  27.852   5.496   8.089
 2238POPC   C4B32386  27.776   5.685   7.696
 2239POPC   NC332387  20.877  31.235   9.632
 2239POPC   PO432388  20.542  31.724   9.423
 2239POPC   GL132389  20.724  31.729   9.074
 2239POPC   GL232390  20.792  31.366   9.133
 2239POPC   C1A32391  20.451  31.682   8.734
 2239POPC   D2A32392  20.387  31.298   8.504
 2239POPC   C3A32393  20.536  31.489   8.143
 2239POPC   C4A32394  20.318  31.771   7.887
 2239POPC   C1B32395  20.864  31.396   8.702
 2239POPC   C2B32396  20.877  31.076   8.381
 2239POPC   C3B32397  20.791  31.076   7.981
 2239POPC   C4B32398  20.516  31.263   7.665
 2240POPC   NC332399  25.038   7.036   9.265
 2240POPC   PO432400  25.352   7.584   9.397
 2240POPC   GL132401  25.389   7.386   9.048
 2240POPC   GL232402  25.594   7.115   9.118
 2240POPC   C1A32403  25.243   7.492   8.656
 2240POPC   D2A32404  24.961   7.418   8.344
 2240POPC   C3A32405  25.180   7.549   7.998
 2240POPC   C4A32406  25.081   7.407   7.605
 2240POPC   C1B32407  25.393   7.008   8.706
 2240POPC   C2B32408  25.397   7.136   8.288
 2240POPC   C3B32409  25.558   7.233   7.895
 2240POPC   C4B32410  25.686   7.122   7.519
 2241POPC   NC332411  15.813   3.456   9.521
 2241POPC   PO432412  15.912   4.083   9.530
 2241POPC   GL132413  15.953   3.799   9.160
 2241POPC   GL232414  16.072   3.422   9.081
 2241POPC   C1A32415  15.784   3.725   8.775
 2241POPC   D2A32416  15.876   3.462   8.442
 2241POPC   C3A32417  15.723   3.537   8.050
 2241POPC   C4A32418  15.985   3.419   7.702
 2241POPC   C1B32419  16.278   3.641   8.756
 2241POPC   C2B32420  16.181   3.902   8.412
 2241POPC   C3B32421  16.237   3.700   8.040
 2241POPC   C4B32422  16.516   3.470   7.798
 2242POPC   NC332423   1.500   0.669   9.209
 2242POPC   PO432424   1.287   0.039   9.485
 2242POPC   GL132425   1.160   0.268   9.143
 2242POPC   GL232426   0.939   0.541   9.279
 2242POPC   C1A32427   1.371   0.229   8.753
 2242POPC   D2A32428   1.556   0.459   8.418
 2242POPC   C3A32429   1.335   0.386   8.015
 2242POPC   C4A32430   1.357   0.694   7.710
 2242POPC   C1B32431   0.948   0.616   8.832
 2242POPC   C2B32432   1.054   0.498   8.425
 2242POPC   C3B32433   0.918   0.645   8.023
 2242POPC   C4B32434   0.874   0.831   7.637
 2243POPC   NC332435  16.703  13.050   9.505
 2243POPC   PO432436  17.345  13.110   9.389
 2243POPC   GL132437  17.011  13.071   9.072
 2243POPC   GL232438  16.794  12.750   9.052
 2243POPC   C1A32439  16.959  12.940   8.621
 2243POPC   D2A32440  16.812  12.643   8.292
 2243POPC   C3A32441  17.018  12.627   7.867
 2243POPC   C4A32442  17.053  12.426   7.454
 2243POPC   C1B32443  16.490  12.769   8.714
 2243POPC   C2B32444  16.331  12.879   8.328
 2243POPC   C3B32445  16.439  12.735   7.934
 2243POPC   C4B32446  16.570  12.496   7.591
 2244POPC   NC332447  21.586  35.879   9.528
 2244POPC   PO432448  21.227  36.380   9.519
 2244POPC   GL132449  21.225  36.282   9.081
 2244POPC   GL232450  21.370  35.938   9.052
 2244POPC   C1A32451  21.199  36.250   8.646
 2244POPC   D2A32452  21.361  35.951   8.340
 2244POPC   C3A32453  21.473  36.129   7.918
 2244POPC   C4A32454  21.531  36.490   7.640
 2244POPC   C1B32455  21.087  35.744   8.749
 2244POPC   C2B32456  20.891  35.728   8.342
 2244POPC   C3B32457  21.022  35.828   7.922
 2244POPC   C4B32458  21.290  35.774   7.598
 2245POPC   NC332459  15.341  32.507   9.398
 2245POPC   PO432460  14.709  32.336   9.602
 2245POPC   GL132461  14.942  32.242   9.184
 2245POPC   GL232462  15.298  32.089   9.126
 2245POPC   C1A32463  15.045  32.319   8.746
 2245POPC   D2A32464  15.350  32.255   8.420
 2245POPC   C3A32465  15.139  32.334   8.043
 2245POPC   C4A32466  14.894  32.232   7.720
 2245POPC   C1B32467  15.587  31.905   8.829
 2245POPC   C2B32468  15.582  31.803   8.378
 2245POPC   C3B32469  15.351  31.871   7.987
 2245POPC   C4B32470  15.382  32.133   7.617
 2246POPC   NC332471  31.164   6.596   9.331
 2246POPC   PO432472  31.629   7.057   9.486
 2246POPC   GL132473  31.776   6.864   9.081
 2246POPC   GL232474  31.590   6.560   9.050
 2246POPC   C1A32475  31.645   6.769   8.609
 2246POPC   D2A32476  31.202   6.700   8.415
 2246POPC   C3A32477  31.294   6.704   8.018
 2246POPC   C4A32478  31.709   6.680   7.853
 2246POPC   C1B32479  31.341   6.330   8.736
 2246POPC   C2B32480  31.380   6.128   8.335
 2246POPC   C3B32481  31.486   6.245   7.936
 2246POPC   C4B32482  31.361   6.493   7.546
 2247POPC   NC332483   8.030  37.375   9.653
 2247POPC   PO432484   8.529  37.816   9.358
 2247POPC   GL132485   8.117  37.707   9.151
 2247POPC   GL232486   8.120  37.344   9.088
 2247POPC   C1A32487   8.024  37.693   8.698
 2247POPC   D2A32488   8.260  37.507   8.356
 2247POPC   C3A32489   8.274  37.671   7.943
 2247POPC   C4A32490   8.016  37.953   7.760
 2247POPC   C1B32491   7.776  37.239   8.745
 2247POPC   C2B32492   7.604  37.499   8.454
 2247POPC   C3B32493   7.784  37.583   8.097
 2247POPC   C4B32494   7.850  37.303   7.786
 2248POPC   NC332495   2.596  40.102   9.489
 2248POPC   PO432496   3.011  39.535   9.611
 2248POPC   GL132497   2.989  39.853   9.282
 2248POPC   GL232498   2.697  39.725   9.149
 2248POPC   C1A32499   2.871  40.124   8.882
 2248POPC   D2A32500   2.824  39.986   8.463
 2248POPC   C3A32501   2.830  40.170   8.046
 2248POPC   C4A32502   3.073  40.087   7.723
 2248POPC   C1B32503   2.574  39.624   8.731
 2248POPC   C2B32504   2.524  39.604   8.272
 2248POPC   C3B32505   2.463  39.772   7.870
 2248POPC   C4B32506   2.428  40.179   7.715
 2249POPC   NC332507   1.694   5.885   9.631
 2249POPC   PO432508   2.153   5.473   9.741
 2249POPC   GL132509   2.040   5.785   9.292
 2249POPC   GL232510   2.092   6.135   9.285
 2249POPC   C1A32511   1.810   5.728   8.846
 2249POPC   D2A32512   1.558   5.714   8.425
 2249POPC   C3A32513   1.721   5.721   7.980
 2249POPC   C4A32514   2.153   5.669   7.777
 2249POPC   C1B32515   2.252   6.041   8.884
 2249POPC   C2B32516   2.057   5.990   8.487
 2249POPC   C3B32517   2.077   6.078   8.081
 2249POPC   C4B32518   2.246   6.185   7.706
 2250POPC   NC332519  23.931   4.800   9.559
 2250POPC   PO432520  23.638   5.414   9.612
 2250POPC   GL132521  23.685   5.275   9.146
 2250POPC   GL232522  23.893   4.974   9.080
 2250POPC   C1A32523  23.513   5.056   8.734
 2250POPC   D2A32524  23.388   4.778   8.372
 2250POPC   C3A32525  23.370   4.895   7.939
 2250POPC   C4A32526  23.702   5.161   7.767
 2250POPC   C1B32527  23.976   5.253   8.726
 2250POPC   C2B32528  23.785   5.301   8.314
 2250POPC   C3B32529  24.100   5.086   8.073
 2250POPC   C4B32530  24.299   5.191   7.711
 2251POPC   NC332531   2.592  39.343   9.522
 2251POPC   PO432532   2.946  38.711   9.527
 2251POPC   GL132533   3.071  38.991   9.134
 2251POPC   GL232534   3.085  39.347   9.166
 2251POPC   C1A32535   2.950  39.170   8.701
 2251POPC   D2A32536   3.067  39.207   8.257
 2251POPC   C3A32537   2.712  39.212   7.964
 2251POPC   C4A32538   2.273  39.279   7.911
 2251POPC   C1B32539   3.086  39.652   8.830
 2251POPC   C2B32540   3.274  39.693   8.463
 2251POPC   C3B32541   3.026  39.695   8.100
 2251POPC   C4B32542   2.924  39.609   7.731
 2252POPC   NC332543  23.381   6.502   9.381
 2252POPC   PO432544  24.053   6.806   9.475
 2252POPC   GL132545  23.871   6.693   9.098
 2252POPC   GL232546  23.548   6.823   9.018
 2252POPC   C1A32547  23.870   6.628   8.664
 2252POPC   D2A32548  23.612   6.768   8.341
 2252POPC   C3A32549  23.796   6.595   7.983
 2252POPC   C4A32550  24.058   6.817   7.702
 2252POPC   C1B32551  23.295   6.553   8.719
 2252POPC   C2B32552  23.078   6.646   8.323
 2252POPC   C3B32553  23.259   6.734   7.930
 2252POPC   C4B32554  23.548   6.855   7.619
 2253POPC   NC332555  10.407   5.453   9.607
 2253POPC   PO432556  10.235   4.712   9.572
 2253POPC   GL132557  10.397   5.039   9.296
 2253POPC   GL232558  10.322   5.378   9.108
 2253POPC   C1A32559  10.713   5.018   8.986
 2253POPC   D2A32560  10.640   4.860   8.590
 2253POPC   C3A32561  10.795   4.946   8.214
 2253POPC   C4A32562  10.513   4.959   7.845
 2253POPC   C1B32563  10.731   5.526   8.912
 2253POPC   C2B32564  10.843   5.410   8.489
 2253POPC   C3B32565  10.603   5.394   8.128
 2253POPC   C4B32566  10.370   5.457   7.752
 2254POPC   NC332567  27.116  16.552   9.511
 2254POPC   PO432568  26.467  16.705   9.566
 2254POPC   GL132569  26.683  16.752   9.154
 2254POPC   GL232570  27.048  16.778   9.077
 2254POPC   C1A32571  26.638  16.715   8.697
 2254POPC   D2A32572  26.921  16.694   8.326
 2254POPC   C3A32573  26.628  16.799   7.996
 2254POPC   C4A32574  26.598  16.655   7.559
 2254POPC   C1B32575  26.930  17.103   8.852
 2254POPC   C2B32576  26.829  17.170   8.449
 2254POPC   C3B32577  27.008  17.159   8.067
 2254POPC   C4B32578  26.923  17.031   7.642
 2255POPC   NC332579  26.952  33.457   9.735
 2255POPC   PO432580  26.886  32.802   9.606
 2255POPC   GL132581  26.841  32.918   9.163
 2255POPC   GL232582  27.182  32.941   8.984
 2255POPC   C1A32583  26.700  32.862   8.746
 2255POPC   D2A32584  26.791  32.933   8.315
 2255POPC   C3A32585  26.491  33.117   8.029
 2255POPC   C4A32586  26.313  32.924   7.636
 2255POPC   C1B32587  27.007  33.262   8.681
 2255POPC   C2B32588  27.057  33.365   8.244
 2255POPC   C3B32589  26.970  33.158   7.867
 2255POPC   C4B32590  26.658  33.287   7.580
 2256POPC   NC332591  43.749  31.193   9.562
 2256POPC   PO432592  43.708  31.776   9.354
 2256POPC   GL132593  43.983  31.592   9.052
 2256POPC   GL232594  43.939  31.220   9.062
 2256POPC   C1A32595  43.963  31.702   8.626
 2256POPC   D2A32596  43.767  31.494   8.285
 2256POPC   C3A32597  43.798  31.737   7.906
 2256POPC   C4A32598  43.643  31.679   7.489
 2256POPC   C1B32599  44.222  31.266   8.674
 2256POPC   C2B32600  44.237  31.203   8.206
 2256POPC   C3B32601  43.933  31.226   7.881
 2256POPC   C4B32602  44.009  31.315   7.470
 2257POPC   NC332603  12.007   2.411   9.583
 2257POPC   PO432604  11.902   3.035   9.343
 2257POPC   GL132605  12.088   2.680   9.125
 2257POPC   GL232606  12.344   2.396   9.133
 2257POPC   C1A32607  12.167   2.723   8.687
 2257POPC   D2A32608  12.336   2.888   8.318
 2257POPC   C3A32609  11.968   3.048   8.139
 2257POPC   C4A32610  11.806   2.896   7.779
 2257POPC   C1B32611  12.216   2.236   8.757
 2257POPC   C2B32612  11.915   2.288   8.437
 2257POPC   C3B32613  12.017   2.523   8.059
 2257POPC   C4B32614  12.313   2.691   7.731
 2258POPC   NC332615  44.257   3.760   9.430
 2258POPC   PO432616  43.775   3.766   9.865
 2258POPC   GL132617  43.811   3.535   9.376
 2258POPC   GL232618  43.880   3.766   9.068
 2258POPC   C1A32619  43.901   3.256   8.953
 2258POPC   D2A32620  44.103   3.219   8.515
 2258POPC   C3A32621  43.835   3.407   8.179
 2258POPC   C4A32622  43.826   3.287   7.749
 2258POPC   C1B32623  44.254   3.601   8.810
 2258POPC   C2B32624  44.468   3.610   8.425
 2258POPC   C3B32625  44.332   3.863   8.096
 2258POPC   C4B32626  43.950   3.821   7.857
 2259POPC   NC332627   9.238  30.965   9.468
 2259POPC   PO432628   9.082  30.327   9.512
 2259POPC   GL132629   8.993  30.414   9.096
 2259POPC   GL232630   9.059  30.719   9.087
 2259POPC   C1A32631   8.932  30.453   8.681
 2259POPC   D2A32632   9.099  30.418   8.308
 2259POPC   C3A32633   8.898  30.560   7.938
 2259POPC   C4A32634   9.080  30.772   7.592
 2259POPC   C1B32635   9.284  30.835   8.730
 2259POPC   C2B32636   9.178  30.914   8.310
 2259POPC   C3B32637   9.350  31.092   7.968
 2259POPC   C4B32638   9.517  31.013   7.572
 2260POPC   NC332639   4.084  30.036   9.598
 2260POPC   PO432640   4.503  30.460   9.248
 2260POPC   GL132641   4.313  30.180   9.010
 2260POPC   GL232642   4.247  29.845   9.153
 2260POPC   C1A32643   4.236  30.303   8.615
 2260POPC   D2A32644   4.188  30.457   8.219
 2260POPC   C3A32645   4.253  30.172   7.874
 2260POPC   C4A32646   4.517  30.259   7.529
 2260POPC   C1B32647   4.407  29.779   8.723
 2260POPC   C2B32648   4.328  29.906   8.309
 2260POPC   C3B32649   4.421  29.686   7.941
 2260POPC   C4B32650   4.120  29.402   7.760
 2261POPC   NC332651  18.975  25.770   9.616
 2261POPC   PO432652  19.146  26.196   9.142
 2261POPC   GL132653  18.939  26.023   8.898
 2261POPC   GL232654  18.828  25.740   9.102
 2261POPC   C1A32655  19.148  25.932   8.500
 2261POPC   D2A32656  19.451  25.682   8.285
 2261POPC   C3A32657  19.317  25.681   7.881
 2261POPC   C4A32658  19.233  26.058   7.663
 2261POPC   C1B32659  18.786  25.610   8.673
 2261POPC   C2B32660  18.707  25.800   8.256
 2261POPC   C3B32661  18.811  25.769   7.814
 2261POPC   C4B32662  18.791  26.012   7.414
 2262POPC   NC332663  39.729  43.753   9.884
 2262POPC   PO432664  40.102  43.234   9.536
 2262POPC   GL132665  39.984  43.103   9.131
 2262POPC   GL232666  39.661  42.929   9.125
 2262POPC   C1A32667  40.000  43.125   8.697
 2262POPC   D2A32668  39.898  43.474   8.461
 2262POPC   C3A32669  39.771  43.384   8.046
 2262POPC   C4A32670  39.973  43.435   7.676
 2262POPC   C1B32671  39.821  42.658   8.778
 2262POPC   C2B32672  39.947  42.687   8.371
 2262POPC   C3B32673  39.728  42.639   8.005
 2262POPC   C4B32674  39.756  42.844   7.603
 2263POPC   NC332675  40.063   4.257   9.467
 2263POPC   PO432676  39.678   4.781   9.624
 2263POPC   GL132677  39.843   4.640   9.170
 2263POPC   GL232678  40.190   4.528   9.070
 2263POPC   C1A32679  39.868   4.516   8.683
 2263POPC   D2A32680  39.915   4.222   8.323
 2263POPC   C3A32681  39.788   4.383   7.912
 2263POPC   C4A32682  39.741   4.204   7.463
 2263POPC   C1B32683  40.309   4.224   8.768
 2263POPC   C2B32684  40.424   4.273   8.375
 2263POPC   C3B32685  40.367   4.349   7.974
 2263POPC   C4B32686  40.219   4.331   7.605
 2264POPC   NC332687  43.209  17.842   9.353
 2264POPC   PO432688  42.770  17.383   9.536
 2264POPC   GL132689  42.686  17.616   9.127
 2264POPC   GL232690  42.998  17.543   9.017
 2264POPC   C1A32691  42.648  17.564   8.636
 2264POPC   D2A32692  42.845  17.428   8.224
 2264POPC   C3A32693  42.726  17.347   7.785
 2264POPC   C4A32694  43.016  17.440   7.412
 2264POPC   C1B32695  43.285  17.638   8.694
 2264POPC   C2B32696  43.203  17.781   8.319
 2264POPC   C3B32697  43.307  17.621   7.920
 2264POPC   C4B32698  43.351  17.846   7.538
 2265POPC   NC332699  13.838   3.955   9.150
 2265POPC   PO432700  13.665   3.363   9.484
 2265POPC   GL132701  13.820   3.420   9.095
 2265POPC   GL232702  13.492   3.591   9.061
 2265POPC   C1A32703  13.825   3.437   8.643
 2265POPC   D2A32704  13.883   3.291   8.218
 2265POPC   C3A32705  13.804   3.575   7.909
 2265POPC   C4A32706  13.569   3.908   7.819
 2265POPC   C1B32707  13.328   3.301   8.768
 2265POPC   C2B32708  13.435   3.109   8.371
 2265POPC   C3B32709  13.493   3.121   7.909
 2265POPC   C4B32710  13.214   3.162   7.556
 2266POPC   NC332711  11.081   6.611   9.508
 2266POPC   PO432712  10.458   6.763   9.471
 2266POPC   GL132713  10.478   6.690   9.079
 2266POPC   GL232714  10.862   6.749   9.061
 2266POPC   C1A32715  10.362   6.412   8.774
 2266POPC   D2A32716  10.525   6.321   8.382
 2266POPC   C3A32717  10.390   6.648   8.174
 2266POPC   C4A32718  10.268   6.645   7.745
 2266POPC   C1B32719  10.790   6.688   8.640
 2266POPC   C2B32720  10.938   6.785   8.255
 2266POPC   C3B32721  10.776   6.705   7.861
 2266POPC   C4B32722  10.617   6.269   7.860
 2267POPC   NC332723  20.088   0.810   9.458
 2267POPC   PO432724  19.653   0.283   9.413
 2267POPC   GL132725  19.891   0.443   9.107
 2267POPC   GL232726  19.729   0.736   9.092
 2267POPC   C1A32727  20.112   0.291   8.734
 2267POPC   D2A32728  19.868   0.320   8.378
 2267POPC   C3A32729  19.997   0.131   8.044
 2267POPC   C4A32730  19.886   0.221   7.647
 2267POPC   C1B32731  19.910   0.749   8.684
 2267POPC   C2B32732  20.034   0.779   8.266
 2267POPC   C3B32733  19.862   0.669   7.903
 2267POPC   C4B32734  19.455   0.599   7.802
 2268POPC   NC332735  12.977  38.614   9.198
 2268POPC   PO432736  13.443  38.231   9.524
 2268POPC   GL132737  13.596  38.379   9.192
 2268POPC   GL232738  13.933  38.266   9.147
 2268POPC   C1A32739  13.573  38.420   8.788
 2268POPC   D2A32740  13.657  38.209   8.443
 2268POPC   C3A32741  13.680  38.440   8.080
 2268POPC   C4A32742  13.729  38.368   7.671
 2268POPC   C1B32743  14.093  38.348   8.699
 2268POPC   C2B32744  14.166  38.200   8.263
 2268POPC   C3B32745  14.222  38.354   7.826
 2268POPC   C4B32746  14.105  38.643   7.460
 2269POPC   NC332747   9.706  10.571   9.535
 2269POPC   PO432748  10.118  10.083   9.231
 2269POPC   GL132749   9.789  10.356   9.067
 2269POPC   GL232750   9.820  10.732   9.059
 2269POPC   C1A32751   9.728  10.440   8.645
 2269POPC   D2A32752   9.641  10.249   8.266
 2269POPC   C3A32753   9.594  10.476   7.876
 2269POPC   C4A32754   9.752  10.455   7.443
 2269POPC   C1B32755   9.475  10.857   8.741
 2269POPC   C2B32756   9.549  10.773   8.298
 2269POPC   C3B32757   9.392  10.940   7.917
 2269POPC   C4B32758   9.522  10.901   7.491
 2270POPC   NC332759  23.408  43.168   9.542
 2270POPC   PO432760  24.075  43.344   9.537
 2270POPC   GL132761  23.811  43.165   9.212
 2270POPC   GL232762  23.520  43.377   9.086
 2270POPC   C1A32763  23.796  43.089   8.775
 2270POPC   D2A32764  23.740  43.255   8.373
 2270POPC   C3A32765  23.825  42.964   8.067
 2270POPC   C4A32766  23.754  42.973   7.631
 2270POPC   C1B32767  23.301  43.399   8.668
 2270POPC   C2B32768  23.307  43.484   8.206
 2270POPC   C3B32769  23.608  43.402   7.869
 2270POPC   C4B32770  23.574  43.364   7.369
 2271POPC   NC332771  37.799  19.498   9.386
 2271POPC   PO432772  37.451  19.012   9.755
 2271POPC   GL132773  37.791  18.990   9.300
 2271POPC   GL232774  37.955  19.218   8.993
 2271POPC   C1A32775  37.728  18.794   8.851
 2271POPC   D2A32776  37.908  18.950   8.497
 2271POPC   C3A32777  37.826  19.084   8.100
 2271POPC   C4A32778  37.600  18.936   7.737
 2271POPC   C1B32779  37.541  19.243   8.720
 2271POPC   C2B32780  37.457  19.425   8.312
 2271POPC   C3B32781  37.550  19.457   7.890
 2271POPC   C4B32782  37.957  19.447   7.705
 2272POPC   NC332783   5.849  17.064   9.384
 2272POPC   PO432784   6.045  16.350   9.570
 2272POPC   GL132785   5.997  16.504   9.163
 2272POPC   GL232786   5.689  16.608   9.235
 2272POPC   C1A32787   6.060  16.808   8.779
 2272POPC   D2A32788   6.347  16.857   8.404
 2272POPC   C3A32789   6.174  16.671   8.006
 2272POPC   C4A32790   6.066  17.031   7.765
 2272POPC   C1B32791   5.626  16.563   8.810
 2272POPC   C2B32792   5.622  16.864   8.467
 2272POPC   C3B32793   5.682  16.804   8.054
 2272POPC   C4B32794   5.473  16.608   7.714
 2273POPC   NC332795  40.477  35.132   9.393
 2273POPC   PO432796  40.176  34.532   9.501
 2273POPC   GL132797  39.942  34.571   9.116
 2273POPC   GL232798  40.190  34.797   9.006
 2273POPC   C1A32799  39.717  34.721   8.720
 2273POPC   D2A32800  39.595  35.012   8.420
 2273POPC   C3A32801  39.608  34.808   8.031
 2273POPC   C4A32802  39.785  34.793   7.616
 2273POPC   C1B32803  40.149  34.479   8.663
 2273POPC   C2B32804  39.985  34.560   8.280
 2273POPC   C3B32805  40.114  34.871   8.005
 2273POPC   C4B32806  40.368  34.923   7.661
 2274POPC   NC332807  31.642  13.847   9.467
 2274POPC   PO432808  31.165  13.477   9.681
 2274POPC   GL132809  31.257  13.571   9.230
 2274POPC   GL232810  31.398  13.896   9.029
 2274POPC   C1A32811  31.221  13.456   8.804
 2274POPC   D2A32812  31.325  13.659   8.424
 2274POPC   C3A32813  31.393  13.522   8.034
 2274POPC   C4A32814  31.228  13.732   7.691
 2274POPC   C1B32815  31.710  13.688   8.735
 2274POPC   C2B32816  31.832  13.817   8.265
 2274POPC   C3B32817  31.718  13.817   7.778
 2274POPC   C4B32818  31.535  13.860   7.317
 2275POPC   NC332819  32.418   0.983   9.482
 2275POPC   PO432820  32.268   1.610   9.675
 2275POPC   GL132821  32.312   1.564   9.219
 2275POPC   GL232822  32.170   1.267   9.108
 2275POPC   C1A32823  32.359   1.593   8.753
 2275POPC   D2A32824  32.513   1.559   8.290
 2275POPC   C3A32825  32.241   1.272   8.049
 2275POPC   C4A32826  31.833   1.220   7.844
 2275POPC   C1B32827  32.027   0.994   8.771
 2275POPC   C2B32828  32.261   0.900   8.422
 2275POPC   C3B32829  32.429   0.800   8.024
 2275POPC   C4B32830  32.177   0.770   7.630
 2276POPC   NC332831   8.644  22.107   9.387
 2276POPC   PO432832   9.319  22.355   9.273
 2276POPC   GL132833   9.067  22.059   9.056
 2276POPC   GL232834   9.184  21.722   9.134
 2276POPC   C1A32835   8.824  22.150   8.659
 2276POPC   D2A32836   8.808  22.011   8.222
 2276POPC   C3A32837   8.824  22.297   7.899
 2276POPC   C4A32838   8.847  22.465   7.480
 2276POPC   C1B32839   9.108  21.733   8.672
 2276POPC   C2B32840   9.289  22.054   8.432
 2276POPC   C3B32841   9.276  22.019   8.021
 2276POPC   C4B32842   9.204  22.155   7.595
 2277POPC   NC332843   8.349  36.386   9.454
 2277POPC   PO432844   7.953  35.889   9.565
 2277POPC   GL132845   8.120  36.014   9.171
 2277POPC   GL232846   8.434  35.848   9.189
 2277POPC   C1A32847   7.955  36.101   8.743
 2277POPC   D2A32848   7.872  36.373   8.349
 2277POPC   C3A32849   7.884  36.180   7.970
 2277POPC   C4A32850   7.856  36.297   7.555
 2277POPC   C1B32851   8.474  36.153   8.826
 2277POPC   C2B32852   8.338  36.217   8.402
 2277POPC   C3B32853   8.425  36.116   7.977
 2277POPC   C4B32854   8.528  35.693   7.893
 2278POPC   NC332855  22.157  28.781   9.524
 2278POPC   PO432856  21.952  29.506   9.607
 2278POPC   GL132857  21.998  29.186   9.244
 2278POPC   GL232858  22.344  29.127   9.212
 2278POPC   C1A32859  22.166  29.270   8.778
 2278POPC   D2A32860  22.076  29.070   8.420
 2278POPC   C3A32861  22.217  29.275   8.081
 2278POPC   C4A32862  22.063  29.179   7.683
 2278POPC   C1B32863  22.370  28.820   8.844
 2278POPC   C2B32864  22.478  28.751   8.369
 2278POPC   C3B32865  22.385  28.814   7.898
 2278POPC   C4B32866  22.422  28.903   7.420
 2279POPC   NC332867  25.495   6.204   9.586
 2279POPC   PO432868  25.038   6.634   9.462
 2279POPC   GL132869  25.277   6.613   9.067
 2279POPC   GL232870  25.414   6.290   9.093
 2279POPC   C1A32871  25.112   6.596   8.632
 2279POPC   D2A32872  24.851   6.909   8.383
 2279POPC   C3A32873  25.006   7.045   7.967
 2279POPC   C4A32874  25.243   6.910   7.598
 2279POPC   C1B32875  25.601   6.384   8.710
 2279POPC   C2B32876  25.446   6.362   8.305
 2279POPC   C3B32877  25.316   6.490   7.893
 2279POPC   C4B32878  25.243   6.403   7.448
 2280POPC   NC332879  20.746   4.092   9.583
 2280POPC   PO432880  20.307   4.550   9.682
 2280POPC   GL132881  20.498   4.263   9.192
 2280POPC   GL232882  20.849   4.283   9.131
 2280POPC   C1A32883  20.637   4.454   8.704
 2280POPC   D2A32884  20.794   4.487   8.228
 2280POPC   C3A32885  20.485   4.379   7.954
 2280POPC   C4A32886  20.460   4.068   7.660
 2280POPC   C1B32887  20.939   4.035   8.786
 2280POPC   C2B32888  21.030   3.918   8.376
 2280POPC   C3B32889  20.923   3.961   7.955
 2280POPC   C4B32890  20.958   4.283   7.686
 2281POPC   NC332891   3.908   6.417   9.593
 2281POPC   PO432892   4.494   6.653   9.469
 2281POPC   GL132893   4.317   6.683   9.089
 2281POPC   GL232894   4.173   6.992   9.150
 2281POPC   C1A32895   4.488   6.693   8.653
 2281POPC   D2A32896   4.597   6.706   8.189
 2281POPC   C3A32897   4.458   6.361   7.908
 2281POPC   C4A32898   4.164   6.161   7.632
 2281POPC   C1B32899   4.025   6.934   8.718
 2281POPC   C2B32900   4.076   6.846   8.269
 2281POPC   C3B32901   4.153   6.846   7.816
 2281POPC   C4B32902   3.918   7.033   7.444
 2282POPC   NC332903  32.578  14.730   9.397
 2282POPC   PO432904  32.169  14.182   9.540
 2282POPC   GL132905  32.300  14.130   9.105
 2282POPC   GL232906  32.230  14.486   9.090
 2282POPC   C1A32907  32.327  14.253   8.631
 2282POPC   D2A32908  31.987  14.397   8.348
 2282POPC   C3A32909  31.981  14.255   7.926
 2282POPC   C4A32910  31.934  14.159   7.480
 2282POPC   C1B32911  31.980  14.700   8.790
 2282POPC   C2B32912  32.071  14.968   8.433
 2282POPC   C3B32913  32.151  14.789   8.037
 2282POPC   C4B32914  31.926  14.720   7.688
 2283POPC   NC332915  26.742   8.150   9.370
 2283POPC   PO432916  26.306   7.701   9.451
 2283POPC   GL132917  26.587   7.765   9.088
 2283POPC   GL232918  26.353   8.001   8.950
 2283POPC   C1A32919  26.781   7.952   8.689
 2283POPC   D2A32920  26.820   7.810   8.281
 2283POPC   C3A32921  26.938   8.064   7.930
 2283POPC   C4A32922  26.798   8.007   7.535
 2283POPC   C1B32923  26.491   8.373   8.699
 2283POPC   C2B32924  26.697   8.338   8.289
 2283POPC   C3B32925  26.473   8.263   7.877
 2283POPC   C4B32926  26.258   8.618   7.669
 2284POPC   NC332927  38.182  14.788   9.426
 2284POPC   PO432928  38.249  14.095   9.641
 2284POPC   GL132929  38.187  14.307   9.251
 2284POPC   GL232930  38.461  14.476   9.117
 2284POPC   C1A32931  38.172  14.260   8.779
 2284POPC   D2A32932  38.444  14.373   8.421
 2284POPC   C3A32933  38.302  14.296   7.975
 2284POPC   C4A32934  38.444  14.289   7.496
 2284POPC   C1B32935  38.435  14.748   8.795
 2284POPC   C2B32936  38.629  14.922   8.477
 2284POPC   C3B32937  38.649  14.731   8.085
 2284POPC   C4B32938  38.372  14.739   7.729
 2285POPC   NC332939  11.568   0.712   9.430
 2285POPC   PO432940  11.183   0.066   9.522
 2285POPC   GL132941  11.415   0.308   9.172
 2285POPC   GL232942  11.177   0.540   8.987
 2285POPC   C1A32943  11.544   0.326   8.713
 2285POPC   D2A32944  11.223   0.585   8.443
 2285POPC   C3A32945  11.144   0.430   8.046
 2285POPC   C4A32946  11.230   0.515   7.626
 2285POPC   C1B32947  11.487   0.827   8.791
 2285POPC   C2B32948  11.724   0.735   8.409
 2285POPC   C3B32949  11.574   0.705   7.984
 2285POPC   C4B32950  11.603   0.879   7.577
 2286POPC   NC332951   8.011  22.564   9.476
 2286POPC   PO432952   8.209  21.916   9.462
 2286POPC   GL132953   8.179  22.190   9.164
 2286POPC   GL232954   7.831  22.140   9.184
 2286POPC   C1A32955   8.358  22.317   8.786
 2286POPC   D2A32956   8.336  22.062   8.426
 2286POPC   C3A32957   8.316  22.182   7.990
 2286POPC   C4A32958   8.003  22.016   7.721
 2286POPC   C1B32959   7.845  22.216   8.752
 2286POPC   C2B32960   8.014  22.532   8.462
 2286POPC   C3B32961   7.885  22.485   8.064
 2286POPC   C4B32962   7.960  22.553   7.667
 2287POPC   NC332963  13.983  26.701   9.444
 2287POPC   PO432964  13.346  27.029   9.405
 2287POPC   GL132965  13.647  26.900   9.124
 2287POPC   GL232966  13.462  26.611   9.080
 2287POPC   C1A32967  13.853  26.679   8.760
 2287POPC   D2A32968  13.697  26.568   8.336
 2287POPC   C3A32969  13.934  26.626   7.932
 2287POPC   C4A32970  14.008  26.655   7.441
 2287POPC   C1B32971  13.394  26.902   8.690
 2287POPC   C2B32972  13.324  26.952   8.275
 2287POPC   C3B32973  13.549  26.933   7.949
 2287POPC   C4B32974  13.528  26.768   7.555
 2288POPC   NC332975  10.295   1.978   9.461
 2288POPC   PO432976  10.891   1.626   9.613
 2288POPC   GL132977  10.749   1.813   9.204
 2288POPC   GL232978  10.720   2.161   9.147
 2288POPC   C1A32979  10.462   1.817   8.817
 2288POPC   D2A32980  10.214   1.657   8.455
 2288POPC   C3A32981  10.509   1.627   8.117
 2288POPC   C4A32982  10.662   1.724   7.706
 2288POPC   C1B32983  10.638   2.294   8.730
 2288POPC   C2B32984  10.452   2.107   8.336
 2288POPC   C3B32985  10.301   2.082   7.915
 2288POPC   C4B32986  10.542   2.188   7.547
 2289POPC   NC332987  43.700   5.352   9.594
 2289POPC   PO432988  44.315   5.012   9.562
 2289POPC   GL132989  44.014   5.102   9.236
 2289POPC   GL232990  43.860   4.833   9.064
 2289POPC   C1A32991  43.867   5.324   8.870
 2289POPC   D2A32992  44.066   5.461   8.505
 2289POPC   C3A32993  44.043   5.287   8.085
 2289POPC   C4A32994  43.711   5.232   7.774
 2289POPC   C1B32995  43.587   4.899   8.717
 2289POPC   C2B32996  43.625   4.999   8.290
 2289POPC   C3B32997  43.544   4.752   7.910
 2289POPC   C4B32998  43.605   4.807   7.453
 2290POPC   NC332999  26.619  20.888   9.587
 2290POPC   PO433000  27.036  20.330   9.513
 2290POPC   GL133001  27.027  20.497   9.137
 2290POPC   GL233002  26.854  20.747   9.165
 2290POPC   C1A33003  26.847  20.389   8.743
 2290POPC   D2A33004  26.762  20.296   8.287
 2290POPC   C3A33005  26.632  20.612   7.940
 2290POPC   C4A33006  26.340  20.863   7.663
 2290POPC   C1B33007  26.901  20.911   8.763
 2290POPC   C2B33008  27.016  20.958   8.335
 2290POPC   C3B33009  27.157  21.090   7.935
 2290POPC   C4B33010  26.954  21.029   7.519
 2291POPC   NC333011  40.509   0.022   9.447
 2291POPC   PO433012  41.199   0.013   9.337
 2291POPC   GL133013  40.856  44.804   9.113
 2291POPC   GL233014  40.673  44.500   9.220
 2291POPC   C1A33015  40.685  44.749   8.718
 2291POPC   D2A33016  40.841  44.750   8.301
 2291POPC   C3A33017  40.621  44.788   7.924
 2291POPC   C4A33018  40.743  44.720   7.486
 2291POPC   C1B33019  40.383  44.319   8.905
 2291POPC   C2B33020  40.345  44.449   8.477
 2291POPC   C3B33021  40.394  44.300   8.072
 2291POPC   C4B33022  40.780  44.318   7.823
 2292POPC   NC333023  41.122   2.460   9.394
 2292POPC   PO433024  40.721   1.807   9.431
 2292POPC   GL133025  40.883   2.031   9.098
 2292POPC   GL233026  41.166   1.884   9.118
 2292POPC   C1A33027  40.867   2.224   8.691
 2292POPC   D2A33028  40.883   2.471   8.351
 2292POPC   C3A33029  40.994   2.316   7.987
 2292POPC   C4A33030  40.791   2.016   7.748
 2292POPC   C1B33031  41.057   1.744   8.677
 2292POPC   C2B33032  41.006   1.836   8.215
 2292POPC   C3B33033  41.076   1.606   7.808
 2292POPC   C4B33034  41.178   1.702   7.361
 2293POPC   NC333035  16.229   6.867   9.284
 2293POPC   PO433036  15.702   6.500   9.555
 2293POPC   GL133037  15.817   6.276   9.161
 2293POPC   GL233038  15.881   6.564   9.026
 2293POPC   C1A33039  16.100   6.195   8.768
 2293POPC   D2A33040  16.235   6.510   8.444
 2293POPC   C3A33041  16.168   6.427   8.007
 2293POPC   C4A33042  16.101   6.696   7.645
 2293POPC   C1B33043  15.606   6.363   8.700
 2293POPC   C2B33044  15.717   6.356   8.270
 2293POPC   C3B33045  15.687   6.671   7.948
 2293POPC   C4B33046  15.573   6.611   7.519
 2294POPC   NC333047  19.994  31.093   9.739
 2294POPC   PO433048  19.962  30.442   9.431
 2294POPC   GL133049  19.830  30.786   9.169
 2294POPC   GL233050  19.481  30.897   9.176
 2294POPC   C1A33051  20.011  30.977   8.772
 2294POPC   D2A33052  20.010  30.756   8.367
 2294POPC   C3A33053  20.117  30.940   7.962
 2294POPC   C4A33054  20.059  30.779   7.528
 2294POPC   C1B33055  19.558  30.746   8.712
 2294POPC   C2B33056  19.496  30.670   8.246
 2294POPC   C3B33057  19.622  30.670   7.791
 2294POPC   C4B33058  19.562  30.823   7.333
 2295POPC   NC333059  35.023  26.569   9.505
 2295POPC   PO433060  34.458  26.542   9.278
 2295POPC   GL133061  34.781  26.658   9.048
 2295POPC   GL233062  34.786  26.979   9.200
 2295POPC   C1A33063  34.801  26.735   8.608
 2295POPC   D2A33064  34.609  26.916   8.273
 2295POPC   C3A33065  34.672  26.744   7.901
 2295POPC   C4A33066  34.386  26.413   7.792
 2295POPC   C1B33067  34.826  27.204   8.799
 2295POPC   C2B33068  34.981  27.234   8.347
 2295POPC   C3B33069  34.697  27.286   7.940
 2295POPC   C4B33070  34.471  27.073   7.567
 2296POPC   NC333071  32.716   6.696   9.406
 2296POPC   PO433072  33.369   6.842   9.488
 2296POPC   GL133073  33.166   6.529   9.206
 2296POPC   GL233074  32.991   6.836   9.010
 2296POPC   C1A33075  33.077   6.392   8.773
 2296POPC   D2A33076  33.085   6.776   8.506
 2296POPC   C3A33077  33.080   6.753   8.069
 2296POPC   C4A33078  33.310   6.453   7.844
 2296POPC   C1B33079  32.624   6.677   8.735
 2296POPC   C2B33080  32.615   6.661   8.286
 2296POPC   C3B33081  32.504   6.772   7.874
 2296POPC   C4B33082  32.745   6.755   7.459
 2297POPC   NC333083  20.349  36.583   9.931
 2297POPC   PO433084  20.409  37.157   9.553
 2297POPC   GL133085  20.671  36.877   9.262
 2297POPC   GL233086  20.466  37.017   9.055
 2297POPC   C1A33087  20.508  36.546   8.883
 2297POPC   D2A33088  20.327  36.571   8.493
 2297POPC   C3A33089  20.557  36.558   8.091
 2297POPC   C4A33090  20.701  36.799   7.704
 2297POPC   C1B33091  20.569  37.019   8.649
 2297POPC   C2B33092  20.334  37.032   8.282
 2297POPC   C3B33093  20.323  37.109   7.880
 2297POPC   C4B33094  20.254  37.030   7.470
 2298POPC   NC333095  14.904  20.035   9.530
 2298POPC   PO433096  15.321  19.468   9.599
 2298POPC   GL133097  15.023  19.518   9.220
 2298POPC   GL233098  15.164  19.826   9.147
 2298POPC   C1A33099  15.085  19.530   8.745
 2298POPC   D2A33100  15.423  19.748   8.471
 2298POPC   C3A33101  15.382  19.833   8.012
 2298POPC   C4A33102  15.023  19.647   7.843
 2298POPC   C1B33103  15.032  20.033   8.756
 2298POPC   C2B33104  14.973  19.955   8.326
 2298POPC   C3B33105  15.002  20.174   7.932
 2298POPC   C4B33106  14.910  20.023   7.537
 2299POPC   NC333107  14.949  15.254   9.653
 2299POPC   PO433108  15.391  14.850   9.893
 2299POPC   GL133109  15.177  14.806   9.427
 2299POPC   GL233110  14.820  14.900   9.269
 2299POPC   C1A33111  15.248  15.010   8.992
 2299POPC   D2A33112  15.216  15.315   8.631
 2299POPC   C3A33113  15.379  15.270   8.199
 2299POPC   C4A33114  15.491  15.635   7.944
 2299POPC   C1B33115  14.749  15.110   8.848
 2299POPC   C2B33116  14.736  15.431   8.508
 2299POPC   C3B33117  14.933  15.515   8.081
 2299POPC   C4B33118  15.146  15.332   7.721
 2300POPC   NC333119  43.461  19.286   9.698
 2300POPC   PO433120  42.845  18.997   9.589
 2300POPC   GL133121  42.895  19.140   9.166
 2300POPC   GL233122  43.209  19.189   9.258
 2300POPC   C1A33123  42.798  19.197   8.731
 2300POPC   D2A33124  42.850  19.026   8.306
 2300POPC   C3A33125  42.729  19.287   7.961
 2300POPC   C4A33126  42.939  19.216   7.597
 2300POPC   C1B33127  43.284  19.333   8.872
 2300POPC   C2B33128  43.321  19.191   8.480
 2300POPC   C3B33129  43.249  19.240   8.057
 2300POPC   C4B33130  43.441  19.217   7.676
 2301POPC   NC333131  39.182  32.493   9.627
 2301POPC   PO433132  39.407  31.924   9.742
 2301POPC   GL133133  39.382  32.155   9.265
 2301POPC   GL233134  39.093  32.225   9.024
 2301POPC   C1A33135  39.585  32.304   8.865
 2301POPC   D2A33136  39.521  32.362   8.401
 2301POPC   C3A33137  39.460  32.546   7.987
 2301POPC   C4A33138  39.322  32.381   7.596
 2301POPC   C1B33139  39.122  32.102   8.597
 2301POPC   C2B33140  39.041  32.284   8.197
 2301POPC   C3B33141  39.035  32.050   7.833
 2301POPC   C4B33142  38.891  31.960   7.425
 2302POPC   NC333143  41.579  11.733   9.502
 2302POPC   PO433144  41.202  12.377   9.496
 2302POPC   GL133145  41.340  12.173   9.136
 2302POPC   GL233146  40.992  12.210   9.038
 2302POPC   C1A33147  41.638  12.117   8.762
 2302POPC   D2A33148  41.713  12.262   8.342
 2302POPC   C3A33149  41.936  12.046   8.012
 2302POPC   C4A33150  42.034  12.277   7.665
 2302POPC   C1B33151  41.164  11.932   8.725
 2302POPC   C2B33152  41.258  12.033   8.339
 2302POPC   C3B33153  41.415  12.002   7.930
 2302POPC   C4B33154  41.354  11.779   7.547
 2303POPC   NC333155   4.530   1.840   9.544
 2303POPC   PO433156   3.886   2.015   9.450
 2303POPC   GL133157   4.244   2.120   9.165
 2303POPC   GL233158   4.620   2.104   9.111
 2303POPC   C1A33159   4.248   2.070   8.734
 2303POPC   D2A33160   4.081   1.825   8.410
 2303POPC   C3A33161   4.189   1.979   8.010
 2303POPC   C4A33162   4.162   1.872   7.580
 2303POPC   C1B33163   4.687   1.827   8.706
 2303POPC   C2B33164   4.625   1.785   8.234
 2303POPC   C3B33165   4.646   1.867   7.775
 2303POPC   C4B33166   4.599   2.109   7.359
 2304POPC   NC333167  22.908  27.420   9.540
 2304POPC   PO433168  23.264  26.897   9.758
 2304POPC   GL133169  23.149  27.023   9.294
 2304POPC   GL233170  23.139  27.334   9.086
 2304POPC   C1A33171  23.079  26.875   8.846
 2304POPC   D2A33172  22.794  26.727   8.499
 2304POPC   C3A33173  23.032  26.712   8.116
 2304POPC   C4A33174  23.080  26.695   7.673
 2304POPC   C1B33175  23.333  27.290   8.691
 2304POPC   C2B33176  23.374  27.042   8.320
 2304POPC   C3B33177  23.239  27.139   7.888
 2304POPC   C4B33178  23.026  27.168   7.469
 2305POPC   NC333179   2.221  20.227   9.377
 2305POPC   PO433180   1.985  20.925   9.446
 2305POPC   GL133181   2.048  20.658   9.119
 2305POPC   GL233182   1.750  20.442   9.163
 2305POPC   C1A33183   2.323  20.524   8.777
 2305POPC   D2A33184   2.258  20.337   8.391
 2305POPC   C3A33185   2.299  20.631   8.031
 2305POPC   C4A33186   2.075  20.955   7.829
 2305POPC   C1B33187   1.865  20.163   8.804
 2305POPC   C2B33188   1.756  20.018   8.395
 2305POPC   C3B33189   1.889  20.266   8.038
 2305POPC   C4B33190   1.724  20.575   7.752
 2306POPC   NC333191  24.995  25.113   9.448
 2306POPC   PO433192  24.294  25.177   9.564
 2306POPC   GL133193  24.526  25.312   9.189
 2306POPC   GL233194  24.216  25.340   9.033
 2306POPC   C1A33195  24.656  25.387   8.718
 2306POPC   D2A33196  24.729  25.547   8.268
 2306POPC   C3A33197  24.646  25.401   7.855
 2306POPC   C4A33198  24.949  25.304   7.524
 2306POPC   C1B33199  24.220  25.094   8.645
 2306POPC   C2B33200  24.387  25.147   8.232
 2306POPC   C3B33201  24.166  25.123   7.840
 2306POPC   C4B33202  23.954  25.116   7.400
 2307POPC   NC333203  37.466  34.028   9.490
 2307POPC   PO433204  38.082  33.684   9.426
 2307POPC   GL133205  37.988  33.986   9.122
 2307POPC   GL233206  37.640  33.949   9.019
 2307POPC   C1A33207  38.003  33.843   8.680
 2307POPC   D2A33208  37.650  33.828   8.435
 2307POPC   C3A33209  37.586  34.072   8.071
 2307POPC   C4A33210  37.755  33.970   7.695
 2307POPC   C1B33211  37.312  34.097   8.754
 2307POPC   C2B33212  37.152  33.942   8.354
 2307POPC   C3B33213  37.348  33.608   8.082
 2307POPC   C4B33214  37.399  33.591   7.658
 2308POPC   NC333215  26.854  28.847   9.376
 2308POPC   PO433216  26.885  29.369   9.796
 2308POPC   GL133217  26.826  29.348   9.331
 2308POPC   GL233218  26.482  29.266   9.241
 2308POPC   C1A33219  26.855  29.274   8.855
 2308POPC   D2A33220  27.156  29.079   8.517
 2308POPC   C3A33221  27.033  29.004   8.091
 2308POPC   C4A33222  27.026  29.162   7.685
 2308POPC   C1B33223  26.339  29.333   8.789
 2308POPC   C2B33224  26.521  29.212   8.412
 2308POPC   C3B33225  26.654  29.337   8.035
 2308POPC   C4B33226  26.544  29.328   7.624
 2309POPC   NC333227  17.245  29.558   9.552
 2309POPC   PO433228  17.540  28.896   9.487
 2309POPC   GL133229  17.399  29.187   9.198
 2309POPC   GL233230  17.683  29.065   8.964
 2309POPC   C1A33231  17.281  29.322   8.788
 2309POPC   D2A33232  17.555  29.145   8.441
 2309POPC   C3A33233  17.777  29.125   8.054
 2309POPC   C4A33234  17.681  29.447   7.749
 2309POPC   C1B33235  17.341  28.813   8.757
 2309POPC   C2B33236  17.175  28.810   8.362
 2309POPC   C3B33237  17.379  28.792   7.980
 2309POPC   C4B33238  17.469  28.979   7.609
 2310POPC   NC333239  35.646  28.329   9.380
 2310POPC   PO433240  35.127  28.688   9.486
 2310POPC   GL133241  35.189  28.428   9.134
 2310POPC   GL233242  35.166  28.070   9.192
 2310POPC   C1A33243  35.345  28.470   8.723
 2310POPC   D2A33244  35.588  28.524   8.361
 2310POPC   C3A33245  35.519  28.270   8.011
 2310POPC   C4A33246  35.415  28.459   7.626
 2310POPC   C1B33247  35.257  27.976   8.752
 2310POPC   C2B33248  35.131  28.163   8.358
 2310POPC   C3B33249  35.026  28.103   7.929
 2310POPC   C4B33250  35.006  28.168   7.472
 2311POPC   NC333251  22.454  34.558   9.444
 2311POPC   PO433252  23.159  34.510   9.440
 2311POPC   GL133253  22.902  34.657   9.117
 2311POPC   GL233254  22.693  34.380   9.049
 2311POPC   C1A33255  23.010  34.861   8.702
 2311POPC   D2A33256  23.181  34.737   8.317
 2311POPC   C3A33257  22.987  34.817   7.963
 2311POPC   C4A33258  22.946  34.422   7.746
 2311POPC   C1B33259  22.873  34.380   8.670
 2311POPC   C2B33260  22.762  34.447   8.267
 2311POPC   C3B33261  22.518  34.630   7.929
 2311POPC   C4B33262  22.656  34.925   7.589
 2312POPC   NC333263   7.227  34.110   9.508
 2312POPC   PO433264   7.620  33.558   9.506
 2312POPC   GL133265   7.356  33.718   9.182
 2312POPC   GL233266   7.679  33.758   9.045
 2312POPC   C1A33267   7.281  33.869   8.746
 2312POPC   D2A33268   7.443  34.051   8.322
 2312POPC   C3A33269   7.267  33.820   7.948
 2312POPC   C4A33270   7.051  33.618   7.579
 2312POPC   C1B33271   7.801  33.756   8.651
 2312POPC   C2B33272   7.673  33.597   8.272
 2312POPC   C3B33273   7.771  33.784   7.913
 2312POPC   C4B33274   7.697  33.755   7.505
 2313POPC   NC333275  14.855  26.937   9.510
 2313POPC   PO433276  15.546  26.884   9.475
 2313POPC   GL133277  15.303  26.702   9.152
 2313POPC   GL233278  15.468  26.369   9.114
 2313POPC   C1A33279  15.078  26.872   8.766
 2313POPC   D2A33280  15.217  27.067   8.371
 2313POPC   C3A33281  15.068  26.863   8.002
 2313POPC   C4A33282  14.827  26.904   7.608
 2313POPC   C1B33283  15.561  26.606   8.720
 2313POPC   C2B33284  15.639  26.757   8.309
 2313POPC   C3B33285  15.588  27.014   7.930
 2313POPC   C4B33286  15.298  27.070   7.600
 2314POPC   NC333287   6.366  35.540   9.683
 2314POPC   PO433288   5.804  35.294   9.456
 2314POPC   GL133289   5.959  35.293   9.083
 2314POPC   GL233290   6.178  35.038   9.155
 2314POPC   C1A33291   5.891  35.400   8.642
 2314POPC   D2A33292   5.539  35.486   8.354
 2314POPC   C3A33293   5.712  35.564   7.956
 2314POPC   C4A33294   6.119  35.471   7.745
 2314POPC   C1B33295   6.032  34.913   8.787
 2314POPC   C2B33296   6.141  34.989   8.423
 2314POPC   C3B33297   5.869  35.105   8.121
 2314POPC   C4B33298   5.910  34.956   7.714
 2315POPC   NC333299   1.926   4.056   9.303
 2315POPC   PO433300   1.955   4.655   9.496
 2315POPC   GL133301   1.835   4.520   9.082
 2315POPC   GL233302   2.136   4.379   9.004
 2315POPC   C1A33303   1.928   4.584   8.620
 2315POPC   D2A33304   1.788   4.550   8.216
 2315POPC   C3A33305   2.045   4.321   7.919
 2315POPC   C4A33306   1.700   4.496   7.679
 2315POPC   C1B33307   2.109   4.094   8.641
 2315POPC   C2B33308   1.830   4.050   8.324
 2315POPC   C3B33309   1.663   3.994   7.934
 2315POPC   C4B33310   1.884   4.015   7.526
 2316POPC   NC333311  16.958  32.389   9.537
 2316POPC   PO433312  16.461  31.847   9.364
 2316POPC   GL133313  16.832  32.017   9.173
 2316POPC   GL233314  16.765  32.350   9.072
 2316POPC   C1A33315  16.845  31.955   8.732
 2316POPC   D2A33316  16.510  31.917   8.453
 2316POPC   C3A33317  16.461  32.202   8.106
 2316POPC   C4A33318  16.611  32.414   7.781
 2316POPC   C1B33319  16.717  32.564   8.689
 2316POPC   C2B33320  16.861  32.333   8.367
 2316POPC   C3B33321  17.059  32.374   8.007
 2316POPC   C4B33322  17.059  32.723   7.759
 2317POPC   NC333323  38.112  31.196   9.516
 2317POPC   PO433324  37.458  31.439   9.535
 2317POPC   GL133325  37.729  31.464   9.184
 2317POPC   GL233326  37.496  31.295   9.009
 2317POPC   C1A33327  37.757  31.630   8.720
 2317POPC   D2A33328  37.947  31.495   8.335
 2317POPC   C3A33329  37.676  31.478   7.988
 2317POPC   C4A33330  37.381  31.361   7.654
 2317POPC   C1B33331  37.949  31.183   8.828
 2317POPC   C2B33332  38.198  31.043   8.464
 2317POPC   C3B33333  38.097  31.079   8.023
 2317POPC   C4B33334  37.803  31.079   7.694
 2318POPC   NC333335   1.687   8.650   9.586
 2318POPC   PO433336   2.127   8.196   9.466
 2318POPC   GL133337   1.851   8.220   9.125
 2318POPC   GL233338   1.520   8.052   9.222
 2318POPC   C1A33339   1.961   8.198   8.678
 2318POPC   D2A33340   1.793   8.403   8.293
 2318POPC   C3A33341   2.015   8.464   7.902
 2318POPC   C4A33342   1.976   8.224   7.525
 2318POPC   C1B33343   1.664   7.815   8.846
 2318POPC   C2B33344   1.800   7.820   8.390
 2318POPC   C3B33345   1.617   7.908   7.962
 2318POPC   C4B33346   1.591   7.907   7.478
 2319POPC   NC333347  41.464   0.783   9.463
 2319POPC   PO433348  41.633   1.459   9.422
 2319POPC   GL133349  41.547   1.168   9.107
 2319POPC   GL233350  41.329   1.417   9.001
 2319POPC   C1A33351  41.677   1.018   8.696
 2319POPC   D2A33352  41.502   0.898   8.312
 2319POPC   C3A33353  41.765   0.978   7.960
 2319POPC   C4A33354  41.930   1.356   7.789
 2319POPC   C1B33355  41.232   1.259   8.648
 2319POPC   C2B33356  41.207   1.363   8.273
 2319POPC   C3B33357  41.306   1.169   7.936
 2319POPC   C4B33358  41.422   1.279   7.527
 2320POPC   NC333359   8.231  31.185   9.394
 2320POPC   PO433360   8.534  31.789   9.273
 2320POPC   GL133361   8.327  31.534   9.009
 2320POPC   GL233362   8.546  31.257   9.014
 2320POPC   C1A33363   7.971  31.547   8.733
 2320POPC   D2A33364   7.808  31.557   8.278
 2320POPC   C3A33365   8.016  31.269   7.976
 2320POPC   C4A33366   7.989  31.278   7.502
 2320POPC   C1B33367   8.346  31.183   8.634
 2320POPC   C2B33368   8.304  31.500   8.361
 2320POPC   C3B33369   8.457  31.620   8.013
 2320POPC   C4B33370   8.455  31.298   7.710
 2321POPC   NC333371  32.998   5.789   9.612
 2321POPC   PO433372  32.537   6.275   9.463
 2321POPC   GL133373  32.839   6.076   9.139
 2321POPC   GL233374  33.150   5.863   9.122
 2321POPC   C1A33375  32.703   5.776   8.768
 2321POPC   D2A33376  32.895   5.794   8.341
 2321POPC   C3A33377  32.820   5.763   7.893
 2321POPC   C4A33378  33.161   5.988   7.665
 2321POPC   C1B33379  33.162   5.589   8.751
 2321POPC   C2B33380  33.295   5.451   8.327
 2321POPC   C3B33381  33.346   5.539   7.875
 2321POPC   C4B33382  33.189   5.521   7.446
 2322POPC   NC333383  43.959  21.771   9.445
 2322POPC   PO433384  43.636  21.141   9.500
 2322POPC   GL133385  43.802  21.362   9.163
 2322POPC   GL233386  44.137  21.249   9.197
 2322POPC   C1A33387  43.676  21.303   8.718
 2322POPC   D2A33388  43.465  21.120   8.364
 2322POPC   C3A33389  43.682  21.267   8.065
 2322POPC   C4A33390  43.748  21.351   7.694
 2322POPC   C1B33391  44.160  21.497   8.836
 2322POPC   C2B33392  44.325  21.501   8.447
 2322POPC   C3B33393  44.155  21.539   8.037
 2322POPC   C4B33394  44.384  21.590   7.693
 2323POPC   NC333395  11.546   4.865   9.565
 2323POPC   PO433396  10.970   5.390   9.566
 2323POPC   GL133397  11.166   5.120   9.272
 2323POPC   GL233398  11.528   5.195   9.186
 2323POPC   C1A33399  11.179   5.224   8.823
 2323POPC   D2A33400  11.375   5.245   8.412
 2323POPC   C3A33401  11.177   5.443   8.089
 2323POPC   C4A33402  10.953   5.213   7.789
 2323POPC   C1B33403  11.692   5.095   8.788
 2323POPC   C2B33404  11.881   5.194   8.414
 2323POPC   C3B33405  11.733   5.071   8.036
 2323POPC   C4B33406  11.473   5.213   7.744
 2324POPC   NC333407   8.192   9.536   9.444
 2324POPC   PO433408   8.138  10.170   9.593
 2324POPC   GL133409   8.048   9.983   9.154
 2324POPC   GL233410   7.961   9.653   9.026
 2324POPC   C1A33411   8.276   9.952   8.743
 2324POPC   D2A33412   8.454   9.719   8.392
 2324POPC   C3A33413   8.260   9.846   8.012
 2324POPC   C4A33414   7.940  10.086   7.779
 2324POPC   C1B33415   8.221   9.418   8.753
 2324POPC   C2B33416   8.193   9.272   8.321
 2324POPC   C3B33417   8.052   9.378   7.870
 2324POPC   C4B33418   8.034   9.539   7.421
 2325POPC   NC333419   8.835  15.587   9.388
 2325POPC   PO433420   8.775  14.985   9.445
 2325POPC   GL133421   9.020  15.162   9.137
 2325POPC   GL233422   9.353  15.080   9.172
 2325POPC   C1A33423   8.979  15.244   8.717
 2325POPC   D2A33424   8.761  15.138   8.341
 2325POPC   C3A33425   8.999  15.242   8.003
 2325POPC   C4A33426   8.926  15.404   7.592
 2325POPC   C1B33427   9.259  14.810   8.796
 2325POPC   C2B33428   9.320  15.001   8.395
 2325POPC   C3B33429   9.313  14.852   8.001
 2325POPC   C4B33430   9.116  14.919   7.602
 2326POPC   NC333431  10.851  26.235   9.463
 2326POPC   PO433432  10.255  26.455   9.490
 2326POPC   GL133433  10.437  26.140   9.174
 2326POPC   GL233434  10.687  25.830   9.181
 2326POPC   C1A33435  10.345  26.091   8.757
 2326POPC   D2A33436  10.507  26.154   8.356
 2326POPC   C3A33437  10.263  26.034   7.980
 2326POPC   C4A33438  10.395  25.755   7.656
 2326POPC   C1B33439  10.820  25.839   8.750
 2326POPC   C2B33440  10.739  25.703   8.337
 2326POPC   C3B33441  10.775  25.918   7.964
 2326POPC   C4B33442  11.046  25.734   7.717
 2327POPC   NC333443  33.206   8.873   9.628
 2327POPC   PO433444  32.660   9.193   9.407
 2327POPC   GL133445  32.872   8.849   9.191
 2327POPC   GL233446  33.147   9.025   9.040
 2327POPC   C1A33447  32.989   8.632   8.783
 2327POPC   D2A33448  33.064   8.955   8.446
 2327POPC   C3A33449  32.809   8.934   8.066
 2327POPC   C4A33450  32.958   8.959   7.639
 2327POPC   C1B33451  33.430   9.275   8.726
 2327POPC   C2B33452  33.312   9.447   8.336
 2327POPC   C3B33453  33.274   9.240   7.939
 2327POPC   C4B33454  33.173   9.399   7.508
 2328POPC   NC333455  38.852  18.987   9.468
 2328POPC   PO433456  38.258  19.444   9.422
 2328POPC   GL133457  38.579  19.411   9.134
 2328POPC   GL233458  38.558  19.051   9.061
 2328POPC   C1A33459  38.415  19.406   8.737
 2328POPC   D2A33460  38.366  19.119   8.426
 2328POPC   C3A33461  38.340  19.263   8.025
 2328POPC   C4A33462  38.620  19.062   7.702
 2328POPC   C1B33463  38.276  18.784   8.833
 2328POPC   C2B33464  38.232  18.570   8.421
 2328POPC   C3B33465  38.287  18.749   8.032
 2328POPC   C4B33466  38.103  18.939   7.681
 2329POPC   NC333467   7.975   7.719   9.331
 2329POPC   PO433468   8.517   8.156   9.455
 2329POPC   GL133469   8.268   8.155   9.129
 2329POPC   GL233470   8.281   8.459   8.977
 2329POPC   C1A33471   8.214   7.965   8.742
 2329POPC   D2A33472   8.117   8.077   8.352
 2329POPC   C3A33473   8.400   8.070   8.032
 2329POPC   C4A33474   8.188   8.058   7.689
 2329POPC   C1B33475   7.989   8.458   8.669
 2329POPC   C2B33476   7.952   8.728   8.325
 2329POPC   C3B33477   8.096   8.472   8.015
 2329POPC   C4B33478   7.779   8.357   7.739
 2330POPC   NC333479  30.323   0.371   9.514
 2330POPC   PO433480  29.673   0.374   9.744
 2330POPC   GL133481  29.818   0.310   9.273
 2330POPC   GL233482  30.077   0.549   9.100
 2330POPC   C1A33483  29.789   0.261   8.795
 2330POPC   D2A33484  29.924   0.482   8.412
 2330POPC   C3A33485  29.815   0.377   7.976
 2330POPC   C4A33486  29.955   0.640   7.643
 2330POPC   C1B33487  30.293   0.310   8.736
 2330POPC   C2B33488  30.394   0.279   8.274
 2330POPC   C3B33489  30.279   0.214   7.838
 2330POPC   C4B33490  30.132   0.171   7.412
 2331POPC   NC333491   6.113  44.052   9.465
 2331POPC   PO433492   5.543  44.253   9.380
 2331POPC   GL133493   5.762  43.985   9.105
 2331POPC   GL233494   5.616  43.665   9.020
 2331POPC   C1A33495   6.067  43.791   8.814
 2331POPC   D2A33496   5.966  43.466   8.514
 2331POPC   C3A33497   5.859  43.721   8.149
 2331POPC   C4A33498   5.981  43.903   7.761
 2331POPC   C1B33499   5.600  43.907   8.619
 2331POPC   C2B33500   5.549  44.172   8.263
 2331POPC   C3B33501   5.512  44.078   7.818
 2331POPC   C4B33502   5.557  43.701   7.578
 2332POPC   NC333503  34.918   7.662   9.478
 2332POPC   PO433504  34.288   7.234   9.468
 2332POPC   GL133505  34.379   7.335   9.058
 2332POPC   GL233506  34.545   7.639   9.100
 2332POPC   C1A33507  34.529   7.453   8.637
 2332POPC   D2A33508  34.338   7.611   8.286
 2332POPC   C3A33509  34.489   7.330   7.978
 2332POPC   C4A33510  34.441   7.192   7.568
 2332POPC   C1B33511  34.837   7.841   8.819
 2332POPC   C2B33512  34.944   7.736   8.396
 2332POPC   C3B33513  34.787   7.753   7.996
 2332POPC   C4B33514  35.036   7.883   7.657
 2333POPC   NC333515  38.720  39.487   9.604
 2333POPC   PO433516  38.098  39.308   9.634
 2333POPC   GL133517  38.415  39.160   9.296
 2333POPC   GL233518  38.691  39.367   9.117
 2333POPC   C1A33519  38.373  39.048   8.851
 2333POPC   D2A33520  38.279  39.235   8.473
 2333POPC   C3A33521  38.216  39.136   8.063
 2333POPC   C4A33522  38.340  38.975   7.671
 2333POPC   C1B33523  38.906  39.259   8.723
 2333POPC   C2B33524  38.737  39.344   8.308
 2333POPC   C3B33525  38.664  39.316   7.877
 2333POPC   C4B33526  38.643  39.535   7.499
 2334POPC   NC333527   9.106  16.363   9.332
 2334POPC   PO433528   8.820  16.774   9.737
 2334POPC   GL133529   8.820  16.765   9.266
 2334POPC   GL233530   9.212  16.830   9.176
 2334POPC   C1A33531   8.775  16.796   8.799
 2334POPC   D2A33532   8.995  17.009   8.443
 2334POPC   C3A33533   8.829  16.836   8.055
 2334POPC   C4A33534   8.774  16.576   7.707
 2334POPC   C1B33535   9.268  16.635   8.753
 2334POPC   C2B33536   9.047  16.505   8.396
 2334POPC   C3B33537   9.187  16.467   7.998
 2334POPC   C4B33538   9.362  16.582   7.632
 2335POPC   NC333539  28.189   0.267   9.555
 2335POPC   PO433540  28.887   0.240   9.397
 2335POPC   GL133541  28.500   0.411   9.163
 2335POPC   GL233542  28.201   0.626   9.167
 2335POPC   C1A33543  28.423   0.517   8.721
 2335POPC   D2A33544  28.457   0.271   8.381
 2335POPC   C3A33545  28.287   0.418   8.040
 2335POPC   C4A33546  28.439   0.496   7.638
 2335POPC   C1B33547  27.968   0.321   8.903
 2335POPC   C2B33548  27.923   0.275   8.452
 2335POPC   C3B33549  27.878   0.111   8.019
 2335POPC   C4B33550  27.950   0.417   7.669
 2336POPC   NC333551  19.432  13.452   9.355
 2336POPC   PO433552  20.065  13.354   9.306
 2336POPC   GL133553  20.024  13.664   8.986
 2336POPC   GL233554  19.717  13.883   8.944
 2336POPC   C1A33555  19.912  13.557   8.579
 2336POPC   D2A33556  19.677  13.628   8.197
 2336POPC   C3A33557  19.736  13.289   7.926
 2336POPC   C4A33558  19.912  13.261   7.510
 2336POPC   C1B33559  19.778  14.034   8.495
 2336POPC   C2B33560  20.136  13.850   8.220
 2336POPC   C3B33561  20.041  13.710   7.828
 2336POPC   C4B33562  19.608  13.762   7.708
 2337POPC   NC333563  36.470  13.263   9.400
 2337POPC   PO433564  36.701  12.544   9.403
 2337POPC   GL133565  36.865  12.839   9.084
 2337POPC   GL233566  36.658  13.132   8.948
 2337POPC   C1A33567  37.131  13.035   8.769
 2337POPC   D2A33568  36.876  13.022   8.404
 2337POPC   C3A33569  36.988  12.792   8.035
 2337POPC   C4A33570  37.129  12.827   7.609
 2337POPC   C1B33571  36.538  12.744   8.720
 2337POPC   C2B33572  36.436  12.627   8.296
 2337POPC   C3B33573  36.493  12.765   7.897
 2337POPC   C4B33574  36.737  12.530   7.644
 2338POPC   NC333575  37.806  22.162   9.479
 2338POPC   PO433576  37.142  22.159   9.604
 2338POPC   GL133577  37.387  21.966   9.202
 2338POPC   GL233578  37.665  22.184   9.002
 2338POPC   C1A33579  37.530  21.772   8.758
 2338POPC   D2A33580  37.747  21.989   8.410
 2338POPC   C3A33581  37.829  21.922   7.950
 2338POPC   C4A33582  37.601  22.041   7.557
 2338POPC   C1B33583  37.573  22.425   8.624
 2338POPC   C2B33584  37.697  22.472   8.192
 2338POPC   C3B33585  37.832  22.454   7.774
 2338POPC   C4B33586  37.879  22.544   7.337
 2339POPC   NC333587  42.079  29.963   9.594
 2339POPC   PO433588  42.575  29.590   9.436
 2339POPC   GL133589  42.353  29.910   9.164
 2339POPC   GL233590  42.034  29.743   9.103
 2339POPC   C1A33591  42.499  30.109   8.767
 2339POPC   D2A33592  42.580  29.826   8.402
 2339POPC   C3A33593  42.456  29.914   7.989
 2339POPC   C4A33594  42.262  29.730   7.646
 2339POPC   C1B33595  41.987  30.050   8.774
 2339POPC   C2B33596  42.127  30.172   8.318
 2339POPC   C3B33597  41.944  30.063   7.874
 2339POPC   C4B33598  41.887  29.960   7.405
 2340POPC   NC333599  20.423  30.364   9.446
 2340POPC   PO433600  20.448  31.039   9.599
 2340POPC   GL133601  20.635  30.886   9.257
 2340POPC   GL233602  20.332  30.731   9.104
 2340POPC   C1A33603  20.695  30.924   8.823
 2340POPC   D2A33604  20.592  30.593   8.521
 2340POPC   C3A33605  20.704  30.562   8.074
 2340POPC   C4A33606  20.556  30.753   7.690
 2340POPC   C1B33607  20.147  30.438   8.775
 2340POPC   C2B33608  20.224  30.284   8.338
 2340POPC   C3B33609  20.219  30.422   7.913
 2340POPC   C4B33610  20.349  30.369   7.455
 2341POPC   NC333611  20.333  11.393   9.528
 2341POPC   PO433612  21.053  11.298   9.688
 2341POPC   GL133613  20.864  11.441   9.302
 2341POPC   GL233614  20.639  11.225   9.172
 2341POPC   C1A33615  20.872  11.534   8.865
 2341POPC   D2A33616  20.659  11.567   8.450
 2341POPC   C3A33617  20.703  11.189   8.209
 2341POPC   C4A33618  20.677  11.145   7.783
 2341POPC   C1B33619  20.354  11.341   8.841
 2341POPC   C2B33620  20.225  11.205   8.429
 2341POPC   C3B33621  20.227  11.345   7.997
 2341POPC   C4B33622  20.209  11.531   7.556
 2342POPC   NC333623  37.433   1.437   9.374
 2342POPC   PO433624  38.004   1.530   9.701
 2342POPC   GL133625  37.939   1.611   9.184
 2342POPC   GL233626  37.576   1.592   8.920
 2342POPC   C1A33627  38.004   1.472   8.738
 2342POPC   D2A33628  37.681   1.557   8.406
 2342POPC   C3A33629  37.855   1.534   7.989
 2342POPC   C4A33630  37.930   1.153   7.797
 2342POPC   C1B33631  37.575   1.134   8.784
 2342POPC   C2B33632  37.268   0.854   8.546
 2342POPC   C3B33633  37.123   0.958   8.129
 2342POPC   C4B33634  37.406   1.181   7.837
 2343POPC   NC333635  33.116  11.211   9.917
 2343POPC   PO433636  32.778  11.507   9.457
 2343POPC   GL133637  32.954  11.258   9.101
 2343POPC   GL233638  33.230  11.044   9.100
 2343POPC   C1A33639  32.863  11.035   8.697
 2343POPC   D2A33640  32.699  11.189   8.296
 2343POPC   C3A33641  32.965  11.256   7.922
 2343POPC   C4A33642  33.407  11.383   7.863
 2343POPC   C1B33643  33.324  11.306   8.737
 2343POPC   C2B33644  33.439  11.144   8.354
 2343POPC   C3B33645  33.148  10.849   8.180
 2343POPC   C4B33646  33.120  10.746   7.763
 2344POPC   NC333647   4.256  44.555   9.454
 2344POPC   PO433648   4.495   0.233   9.463
 2344POPC   GL133649   4.530  44.883   9.137
 2344POPC   GL233650   4.730  44.630   9.215
 2344POPC   C1A33651   4.313  44.558   8.824
 2344POPC   D2A33652   3.931  44.495   8.545
 2344POPC   C3A33653   4.041  44.493   8.128
 2344POPC   C4A33654   4.098  44.674   7.708
 2344POPC   C1B33655   4.817  44.513   8.782
 2344POPC   C2B33656   4.634  44.448   8.372
 2344POPC   C3B33657   4.509  44.538   7.950
 2344POPC   C4B33658   4.546  44.470   7.492
 2345POPC   NC333659  29.109  30.109   9.767
 2345POPC   PO433660  28.732  29.593   9.560
 2345POPC   GL133661  28.988  29.754   9.195
 2345POPC   GL233662  29.130  30.084   9.187
 2345POPC   C1A33663  29.175  29.782   8.752
 2345POPC   D2A33664  29.013  29.903   8.316
 2345POPC   C3A33665  29.118  29.807   7.853
 2345POPC   C4A33666  29.018  29.813   7.394
 2345POPC   C1B33667  29.016  30.254   8.726
 2345POPC   C2B33668  29.152  30.378   8.270
 2345POPC   C3B33669  29.091  30.317   7.852
 2345POPC   C4B33670  29.164  30.311   7.392
 2346POPC   NC333671  20.655   3.161   9.710
 2346POPC   PO433672  20.185   2.872   9.369
 2346POPC   GL133673  20.220   2.827   8.996
 2346POPC   GL233674  20.550   2.774   9.007
 2346POPC   C1A33675  20.296   3.073   8.678
 2346POPC   D2A33676  20.615   2.919   8.487
 2346POPC   C3A33677  20.454   2.911   8.098
 2346POPC   C4A33678  20.539   2.673   7.751
 2346POPC   C1B33679  20.946   2.617   8.941
 2346POPC   C2B33680  21.002   2.600   8.511
 2346POPC   C3B33681  20.951   2.748   8.083
 2346POPC   C4B33682  21.050   2.512   7.719
 2347POPC   NC333683  16.942   0.480   9.723
 2347POPC   PO433684  17.202   0.858   9.334
 2347POPC   GL133685  16.792   0.613   9.224
 2347POPC   GL233686  16.695   0.258   9.344
 2347POPC   C1A33687  16.599   0.751   8.813
 2347POPC   D2A33688  16.713   0.872   8.373
 2347POPC   C3A33689  16.602   0.649   8.007
 2347POPC   C4A33690  16.605   0.428   7.619
 2347POPC   C1B33691  16.700   0.252   8.883
 2347POPC   C2B33692  16.642   0.349   8.441
 2347POPC   C3B33693  16.687   0.140   8.023
 2347POPC   C4B33694  16.448  44.944   7.652
 2348POPC   NC333695  13.901  44.484   9.472
 2348POPC   PO433696  14.179   0.092   9.616
 2348POPC   GL133697  14.056  44.939   9.222
 2348POPC   GL233698  14.318  44.698   9.186
 2348POPC   C1A33699  14.232  44.975   8.780
 2348POPC   D2A33700  14.262  44.766   8.381
 2348POPC   C3A33701  14.356  44.874   7.956
 2348POPC   C4A33702  14.142  44.752   7.603
 2348POPC   C1B33703  14.140  44.469   8.813
 2348POPC   C2B33704  14.081  44.282   8.387
 2348POPC   C3B33705  14.213  44.374   7.971
 2348POPC   C4B33706  14.586  44.457   7.733
 2349POPC   NC333707  15.822  25.631   9.456
 2349POPC   PO433708  16.067  26.175   9.683
 2349POPC   GL133709  15.945  26.109   9.209
 2349POPC   GL233710  15.979  25.760   9.016
 2349POPC   C1A33711  15.771  26.136   8.772
 2349POPC   D2A33712  15.841  25.841   8.454
 2349POPC   C3A33713  15.656  26.025   8.101
 2349POPC   C4A33714  15.908  26.059   7.742
 2349POPC   C1B33715  16.309  25.706   8.764
 2349POPC   C2B33716  16.498  25.938   8.436
 2349POPC   C3B33717  16.307  25.926   8.045
 2349POPC   C4B33718  16.297  25.535   7.833
 2350POPC   NC333719   7.667   3.856   9.537
 2350POPC   PO433720   7.331   3.265   9.599
 2350POPC   GL133721   7.483   3.480   9.242
 2350POPC   GL233722   7.216   3.734   9.229
 2350POPC   C1A33723   7.630   3.451   8.801
 2350POPC   D2A33724   7.572   3.356   8.339
 2350POPC   C3A33725   7.643   3.686   8.008
 2350POPC   C4A33726   7.614   3.874   7.570
 2350POPC   C1B33727   7.131   3.416   8.876
 2350POPC   C2B33728   6.990   3.356   8.448
 2350POPC   C3B33729   7.140   3.347   8.032
 2350POPC   C4B33730   7.370   3.409   7.656
 2351POPC   NC333731  42.598  44.577   9.414
 2351POPC   PO433732  42.157   0.040   9.487
 2351POPC   GL133733  42.224  44.854   9.103
 2351POPC   GL233734  42.535  44.985   9.079
 2351POPC   C1A33735  42.120  44.699   8.683
 2351POPC   D2A33736  41.965  44.671   8.258
 2351POPC   C3A33737  42.007   0.065   8.009
 2351POPC   C4A33738  42.194   0.069   7.592
 2351POPC   C1B33739  42.595  44.942   8.657
 2351POPC   C2B33740  42.449  44.912   8.244
 2351POPC   C3B33741  42.548  44.765   7.821
 2351POPC   C4B33742  42.600  44.332   7.647
 2352POPC   NC333743   7.179  36.805   9.624
 2352POPC   PO433744   7.606  37.210   9.786
 2352POPC   GL133745   7.315  37.127   9.274
 2352POPC   GL233746   6.979  37.040   9.219
 2352POPC   C1A33747   7.444  36.873   8.876
 2352POPC   D2A33748   7.609  36.793   8.480
 2352POPC   C3A33749   7.511  36.983   8.079
 2352POPC   C4A33750   7.769  36.773   7.748
 2352POPC   C1B33751   6.959  36.790   8.836
 2352POPC   C2B33752   7.087  36.840   8.414
 2352POPC   C3B33753   7.036  36.716   7.981
 2352POPC   C4B33754   7.279  36.842   7.631
 2353POPC   NC333755  23.883   5.765   9.817
 2353POPC   PO433756  23.440   6.021   9.389
 2353POPC   GL133757  23.730   5.823   9.125
 2353POPC   GL233758  23.899   6.166   9.102
 2353POPC   C1A33759  23.599   5.607   8.720
 2353POPC   D2A33760  23.377   5.728   8.342
 2353POPC   C3A33761  23.609   5.717   7.939
 2353POPC   C4A33762  24.012   5.578   7.863
 2353POPC   C1B33763  23.711   6.119   8.691
 2353POPC   C2B33764  23.873   5.931   8.311
 2353POPC   C3B33765  23.959   6.100   7.874
 2353POPC   C4B33766  24.224   6.097   7.477
 2354POPC   NC333767  30.369  34.503   9.454
 2354POPC   PO433768  31.011  34.740   9.459
 2354POPC   GL133769  30.773  34.656   9.163
 2354POPC   GL233770  30.732  34.364   9.129
 2354POPC   C1A33771  30.789  34.678   8.746
 2354POPC   D2A33772  30.674  34.867   8.407
 2354POPC   C3A33773  30.625  34.618   8.074
 2354POPC   C4A33774  30.565  34.686   7.652
 2354POPC   C1B33775  30.579  34.213   8.786
 2354POPC   C2B33776  30.525  34.177   8.348
 2354POPC   C3B33777  30.335  34.198   7.935
 2354POPC   C4B33778  30.371  34.234   7.486
 2355POPC   NC333779  14.880  25.941   9.585
 2355POPC   PO433780  15.468  25.896   9.341
 2355POPC   GL133781  15.087  25.993   9.141
 2355POPC   GL233782  14.950  26.324   9.224
 2355POPC   C1A33783  14.942  25.904   8.785
 2355POPC   D2A33784  15.291  25.935   8.522
 2355POPC   C3A33785  15.118  25.963   8.147
 2355POPC   C4A33786  15.289  25.820   7.790
 2355POPC   C1B33787  15.110  26.369   8.774
 2355POPC   C2B33788  15.206  26.482   8.356
 2355POPC   C3B33789  15.307  26.403   7.929
 2355POPC   C4B33790  14.948  26.233   7.735
 2356POPC   NC333791  17.094  33.117   9.359
 2356POPC   PO433792  16.535  32.671   9.445
 2356POPC   GL133793  16.717  32.878   9.102
 2356POPC   GL233794  17.072  32.742   9.008
 2356POPC   C1A33795  16.527  33.089   8.759
 2356POPC   D2A33796  16.692  33.163   8.370
 2356POPC   C3A33797  16.715  32.793   8.149
 2356POPC   C4A33798  16.592  32.903   7.741
 2356POPC   C1B33799  17.056  33.038   8.702
 2356POPC   C2B33800  17.242  33.232   8.352
 2356POPC   C3B33801  17.088  33.202   7.935
 2356POPC   C4B33802  16.998  33.156   7.476
 2357POPC   NC333803  25.627   0.564   9.492
 2357POPC   PO433804  26.272   0.459   9.510
 2357POPC   GL133805  26.150   0.411   9.099
 2357POPC   GL233806  25.954   0.692   9.097
 2357POPC   C1A33807  26.082   0.241   8.684
 2357POPC   D2A33808  26.069   0.424   8.293
 2357POPC   C3A33809  26.113   0.231   7.917
 2357POPC   C4A33810  26.314   0.409   7.562
 2357POPC   C1B33811  25.649   0.478   8.835
 2357POPC   C2B33812  25.573   0.333   8.434
 2357POPC   C3B33813  25.638   0.410   8.006
 2357POPC   C4B33814  25.865   0.640   7.678
 2358POPC   NC333815  35.154  19.631   9.462
 2358POPC   PO433816  35.815  19.723   9.452
 2358POPC   GL133817  35.564  20.003   9.160
 2358POPC   GL233818  35.269  19.816   9.018
 2358POPC   C1A33819  35.461  20.164   8.742
 2358POPC   D2A33820  35.153  19.920   8.469
 2358POPC   C3A33821  35.079  20.034   8.016
 2358POPC   C4A33822  35.299  20.007   7.597
 2358POPC   C1B33823  35.608  19.667   8.756
 2358POPC   C2B33824  35.498  19.542   8.353
 2358POPC   C3B33825  35.501  19.729   7.966
 2358POPC   C4B33826  35.468  19.530   7.565
 2359POPC   NC333827  30.828  44.467   9.794
 2359POPC   PO433828  30.445  44.948   9.793
 2359POPC   GL133829  30.608  44.690   9.356
 2359POPC   GL233830  30.754  44.416   9.256
 2359POPC   C1A33831  30.560  44.726   8.857
 2359POPC   D2A33832  30.324  44.825   8.487
 2359POPC   C3A33833  30.549  44.817   8.062
 2359POPC   C4A33834  30.940  44.745   7.834
 2359POPC   C1B33835  30.852  44.327   8.801
 2359POPC   C2B33836  30.691  44.451   8.426
 2359POPC   C3B33837  30.715  44.320   8.035
 2359POPC   C4B33838  30.376  44.327   7.749
 2360POPC   NC333839  12.249  29.878   9.506
 2360POPC   PO433840  11.570  29.834   9.576
 2360POPC   GL133841  11.836  30.066   9.228
 2360POPC   GL233842  11.985  29.763   9.082
 2360POPC   C1A33843  12.016  30.256   8.823
 2360POPC   D2A33844  12.146  30.252   8.370
 2360POPC   C3A33845  11.992  30.177   7.923
 2360POPC   C4A33846  12.030  29.763   7.668
 2360POPC   C1B33847  12.322  29.824   8.787
 2360POPC   C2B33848  12.504  29.874   8.382
 2360POPC   C3B33849  12.431  29.794   7.969
 2360POPC   C4B33850  12.540  29.830   7.534
 2361POPC   NC333851  15.669  11.420   9.527
 2361POPC   PO433852  16.257  11.059   9.703
 2361POPC   GL133853  16.050  11.115   9.303
 2361POPC   GL233854  16.143  11.482   9.294
 2361POPC   C1A33855  15.772  11.197   8.927
 2361POPC   D2A33856  15.579  11.474   8.616
 2361POPC   C3A33857  15.576  11.245   8.235
 2361POPC   C4A33858  15.679  11.338   7.799
 2361POPC   C1B33859  16.274  11.368   8.889
 2361POPC   C2B33860  16.063  11.321   8.511
 2361POPC   C3B33861  16.119  11.174   8.128
 2361POPC   C4B33862  16.213  11.378   7.777
 2362POPC   NC333863  33.882  18.428   9.387
 2362POPC   PO433864  33.508  17.888   9.616
 2362POPC   GL133865  33.722  17.965   9.181
 2362POPC   GL233866  34.101  18.073   9.079
 2362POPC   C1A33867  33.710  18.207   8.773
 2362POPC   D2A33868  33.850  18.103   8.380
 2362POPC   C3A33869  33.606  18.154   8.004
 2362POPC   C4A33870  33.762  18.055   7.604
 2362POPC   C1B33871  34.140  18.481   8.771
 2362POPC   C2B33872  33.974  18.607   8.342
 2362POPC   C3B33873  34.094  18.341   7.976
 2362POPC   C4B33874  34.183  18.348   7.535
 2363POPC   NC333875  12.723  16.620   9.455
 2363POPC   PO433876  13.422  16.732   9.526
 2363POPC   GL133877  13.137  16.743   9.163
 2363POPC   GL233878  12.940  16.431   9.011
 2363POPC   C1A33879  13.130  16.799   8.727
 2363POPC   D2A33880  13.008  16.594   8.325
 2363POPC   C3A33881  12.919  16.831   7.938
 2363POPC   C4A33882  12.904  16.697   7.492
 2363POPC   C1B33883  12.591  16.456   8.682
 2363POPC   C2B33884  12.465  16.602   8.236
 2363POPC   C3B33885  12.498  16.542   7.768
 2363POPC   C4B33886  12.475  16.532   7.294
 2364POPC   NC333887  42.087   8.184   9.554
 2364POPC   PO433888  42.683   7.872   9.457
 2364POPC   GL133889  42.338   7.925   9.167
 2364POPC   GL233890  42.271   8.288   9.094
 2364POPC   C1A33891  42.207   7.930   8.738
 2364POPC   D2A33892  41.976   7.888   8.357
 2364POPC   C3A33893  42.256   7.938   8.026
 2364POPC   C4A33894  42.343   8.058   7.577
 2364POPC   C1B33895  42.048   8.419   8.727
 2364POPC   C2B33896  42.160   8.406   8.288
 2364POPC   C3B33897  42.042   8.367   7.858
 2364POPC   C4B33898  42.167   8.518   7.431
 2365POPC   NC333899  32.742  43.530   9.729
 2365POPC   PO433900  33.049  44.102   9.725
 2365POPC   GL133901  32.955  44.200   9.257
 2365POPC   GL233902  32.579  44.214   9.239
 2365POPC   C1A33903  33.079  44.172   8.802
 2365POPC   D2A33904  32.971  43.885   8.444
 2365POPC   C3A33905  33.210  43.814   8.041
 2365POPC   C4A33906  33.163  44.001   7.636
 2365POPC   C1B33907  32.563  44.015   8.820
 2365POPC   C2B33908  32.481  44.080   8.369
 2365POPC   C3B33909  32.517  43.779   8.008
 2365POPC   C4B33910  32.781  43.631   7.655
 2366POPC   NC333911  42.591   9.021   9.378
 2366POPC   PO433912  41.996   8.609   9.396
 2366POPC   GL133913  42.225   8.819   9.080
 2366POPC   GL233914  42.226   9.202   9.061
 2366POPC   C1A33915  42.382   8.805   8.677
 2366POPC   D2A33916  42.053   8.919   8.408
 2366POPC   C3A33917  42.146   8.858   8.000
 2366POPC   C4A33918  42.474   8.616   7.857
 2366POPC   C1B33919  42.347   9.314   8.641
 2366POPC   C2B33920  42.579   9.110   8.290
 2366POPC   C3B33921  42.499   9.188   7.871
 2366POPC   C4B33922  42.156   9.440   7.754
 2367POPC   NC333923  28.540  33.888   9.451
 2367POPC   PO433924  27.980  33.557   9.459
 2367POPC   GL133925  28.153  33.750   9.124
 2367POPC   GL233926  28.428  33.494   9.125
 2367POPC   C1A33927  28.192  34.112   8.854
 2367POPC   D2A33928  28.091  34.190   8.422
 2367POPC   C3A33929  28.150  33.791   8.202
 2367POPC   C4A33930  28.354  33.681   7.812
 2367POPC   C1B33931  28.477  33.624   8.711
 2367POPC   C2B33932  28.596  33.998   8.510
 2367POPC   C3B33933  28.545  34.136   8.093
 2367POPC   C4B33934  28.787  33.998   7.721
 2368POPC   NC333935  30.814   8.641   9.593
 2368POPC   PO433936  31.039   9.323   9.468
 2368POPC   GL133937  30.994   9.075   9.117
 2368POPC   GL233938  30.707   8.872   9.153
 2368POPC   C1A33939  30.845   9.056   8.703
 2368POPC   D2A33940  30.484   9.001   8.457
 2368POPC   C3A33941  30.628   9.022   8.088
 2368POPC   C4A33942  30.869   9.264   7.814
 2368POPC   C1B33943  30.546   8.634   8.799
 2368POPC   C2B33944  30.538   8.460   8.372
 2368POPC   C3B33945  30.497   8.527   7.927
 2368POPC   C4B33946  30.378   8.875   7.679
 2369POPC   NC333947  17.496   5.637   9.574
 2369POPC   PO433948  17.209   6.275   9.480
 2369POPC   GL133949  17.436   5.985   9.199
 2369POPC   GL233950  17.174   5.749   9.180
 2369POPC   C1A33951  17.478   5.747   8.785
 2369POPC   D2A33952  17.689   5.887   8.438
 2369POPC   C3A33953  17.537   5.945   8.061
 2369POPC   C4A33954  17.585   5.672   7.733
 2369POPC   C1B33955  17.091   6.066   8.826
 2369POPC   C2B33956  17.152   6.073   8.393
 2369POPC   C3B33957  17.042   5.989   7.955
 2369POPC   C4B33958  17.192   5.955   7.568
 2370POPC   NC333959   5.513   4.841   9.509
 2370POPC   PO433960   6.085   5.233   9.526
 2370POPC   GL133961   5.940   4.972   9.227
 2370POPC   GL233962   5.699   5.181   9.132
 2370POPC   C1A33963   6.014   4.943   8.789
 2370POPC   D2A33964   6.230   5.157   8.457
 2370POPC   C3A33965   6.019   5.213   8.068
 2370POPC   C4A33966   6.011   5.163   7.633
 2370POPC   C1B33967   5.508   5.009   8.815
 2370POPC   C2B33968   5.658   4.988   8.401
 2370POPC   C3B33969   5.575   4.961   7.977
 2370POPC   C4B33970   5.526   4.993   7.524
 2371POPC   NC333971  18.549  22.984   9.511
 2371POPC   PO433972  17.910  22.678   9.523
 2371POPC   GL133973  18.108  22.902   9.099
 2371POPC   GL233974  18.148  23.250   9.065
 2371POPC   C1A33975  18.283  22.919   8.672
 2371POPC   D2A33976  18.209  22.993   8.257
 2371POPC   C3A33977  18.345  22.783   7.890
 2371POPC   C4A33978  18.052  22.452   7.716
 2371POPC   C1B33979  18.482  23.370   8.799
 2371POPC   C2B33980  18.654  23.211   8.411
 2371POPC   C3B33981  18.479  23.350   8.010
 2371POPC   C4B33982  18.462  23.313   7.561
 2372POPC   NC333983   6.570  13.416   9.442
 2372POPC   PO433984   6.993  13.961   9.451
 2372POPC   GL133985   6.842  13.686   9.114
 2372POPC   GL233986   7.002  13.344   9.145
 2372POPC   C1A33987   6.666  13.466   8.760
 2372POPC   D2A33988   6.509  13.600   8.391
 2372POPC   C3A33989   6.604  13.497   8.014
 2372POPC   C4A33990   6.512  13.791   7.745
 2372POPC   C1B33991   7.163  13.357   8.728
 2372POPC   C2B33992   7.011  13.326   8.310
 2372POPC   C3B33993   7.132  13.463   7.872
 2372POPC   C4B33994   6.838  13.487   7.518
 2373POPC   NC333995   3.292  33.112   9.718
 2373POPC   PO433996   3.868  32.794   9.490
 2373POPC   GL133997   3.704  33.038   9.148
 2373POPC   GL233998   3.394  33.094   9.228
 2373POPC   C1A33999   3.856  33.063   8.733
 2373POPC   D2A34000   3.823  33.302   8.350
 2373POPC   C3A34001   3.704  33.041   7.987
 2373POPC   C4A34002   3.782  33.136   7.566
 2373POPC   C1B34003   3.306  32.849   8.887
 2373POPC   C2B34004   3.390  33.013   8.476
 2373POPC   C3B34005   3.326  33.319   8.166
 2373POPC   C4B34006   3.282  33.244   7.708
 2374POPC   NC334007  17.090  13.431   9.625
 2374POPC   PO434008  16.547  13.600   9.321
 2374POPC   GL134009  16.724  13.495   9.032
 2374POPC   GL234010  16.514  13.183   9.031
 2374POPC   C1A34011  16.735  13.785   8.674
 2374POPC   D2A34012  16.584  13.801   8.239
 2374POPC   C3A34013  16.762  13.554   7.894
 2374POPC   C4A34014  17.073  13.408   7.545
 2374POPC   C1B34015  16.631  13.297   8.587
 2374POPC   C2B34016  16.745  13.135   8.183
 2374POPC   C3B34017  16.758  13.068   7.745
 2374POPC   C4B34018  16.574  13.377   7.459
 2375POPC   NC334019   0.995   7.929   9.540
 2375POPC   PO434020   1.222   8.618   9.524
 2375POPC   GL134021   1.249   8.505   9.108
 2375POPC   GL234022   1.027   8.222   9.112
 2375POPC   C1A34023   1.456   8.295   8.781
 2375POPC   D2A34024   1.381   8.117   8.381
 2375POPC   C3A34025   1.378   8.352   7.972
 2375POPC   C4A34026   1.116   8.032   7.799
 2375POPC   C1B34027   0.914   8.344   8.682
 2375POPC   C2B34028   0.937   8.320   8.230
 2375POPC   C3B34029   0.826   8.469   7.808
 2375POPC   C4B34030   0.847   8.673   7.390
 2376POPC   NC334031  44.840   3.039   9.674
 2376POPC   PO434032  44.410   2.577   9.505
 2376POPC   GL134033  44.585   2.835   9.152
 2376POPC   GL234034  44.949   2.895   9.201
 2376POPC   C1A34035  44.430   2.731   8.709
 2376POPC   D2A34036  44.521   2.390   8.394
 2376POPC   C3A34037  44.679   2.514   7.994
 2376POPC   C4A34038  44.627   2.945   7.817
 2376POPC   C1B34039  44.959   2.824   8.742
 2376POPC   C2B34040  44.999   2.737   8.293
 2376POPC   C3B34041   0.079   2.747   7.795
 2376POPC   C4B34042   0.020   2.941   7.337
 2377POPC   NC334043  37.092  42.399   9.698
 2377POPC   PO434044  36.468  42.342   9.439
 2377POPC   GL134045  36.831  42.513   9.252
 2377POPC   GL234046  36.980  42.190   9.211
 2377POPC   C1A34047  37.046  42.536   8.832
 2377POPC   D2A34048  36.978  42.450   8.422
 2377POPC   C3A34049  37.223  42.398   8.045
 2377POPC   C4A34050  36.925  42.501   7.748
 2377POPC   C1B34051  37.110  42.026   8.772
 2377POPC   C2B34052  37.116  41.961   8.294
 2377POPC   C3B34053  37.110  41.945   7.817
 2377POPC   C4B34054  37.013  41.886   7.364
 2378POPC   NC334055  29.137  35.216   9.568
 2378POPC   PO434056  29.005  35.841   9.458
 2378POPC   GL134057  28.893  35.493   9.143
 2378POPC   GL234058  28.910  35.099   9.140
 2378POPC   C1A34059  28.898  35.376   8.704
 2378POPC   D2A34060  29.144  35.520   8.393
 2378POPC   C3A34061  28.999  35.533   7.984
 2378POPC   C4A34062  29.339  35.583   7.702
 2378POPC   C1B34063  29.323  35.205   8.935
 2378POPC   C2B34064  29.432  35.123   8.529
 2378POPC   C3B34065  29.369  35.179   8.081
 2378POPC   C4B34066  28.981  35.049   7.880
 2379POPC   NC334067  33.922   8.989   9.400
 2379POPC   PO434068  33.510   9.129   9.918
 2379POPC   GL134069  33.530   8.720   9.313
 2379POPC   GL234070  33.855   8.592   9.094
 2379POPC   C1A34071  33.518   8.782   8.781
 2379POPC   D2A34072  33.570   8.981   8.342
 2379POPC   C3A34073  33.607   8.832   7.914
 2379POPC   C4A34074  33.726   9.039   7.551
 2379POPC   C1B34075  34.041   8.894   8.763
 2379POPC   C2B34076  34.064   9.142   8.382
 2379POPC   C3B34077  34.107   9.039   7.946
 2379POPC   C4B34078  34.231   8.881   7.532
 2380POPC   NC334079  10.907  16.562   9.220
 2380POPC   PO434080  11.198  17.001   9.665
 2380POPC   GL134081  11.210  17.033   9.198
 2380POPC   GL234082  11.388  16.755   9.100
 2380POPC   C1A34083  11.152  16.936   8.713
 2380POPC   D2A34084  11.285  17.130   8.316
 2380POPC   C3A34085  11.378  16.852   7.986
 2380POPC   C4A34086  11.153  16.537   7.809
 2380POPC   C1B34087  11.585  16.590   8.737
 2380POPC   C2B34088  11.506  16.472   8.303
 2380POPC   C3B34089  11.611  16.356   7.875
 2380POPC   C4B34090  11.463  16.341   7.434
 2381POPC   NC334091  42.756  41.107   9.876
 2381POPC   PO434092  42.172  41.055   9.470
 2381POPC   GL134093  41.946  40.941   9.114
 2381POPC   GL234094  42.211  41.065   8.917
 2381POPC   C1A34095  41.897  40.760   8.678
 2381POPC   D2A34096  42.181  40.821   8.337
 2381POPC   C3A34097  42.084  40.689   7.920
 2381POPC   C4A34098  42.447  40.506   7.671
 2381POPC   C1B34099  42.588  40.963   8.675
 2381POPC   C2B34100  42.817  40.994   8.283
 2381POPC   C3B34101  42.494  40.975   7.946
 2381POPC   C4B34102  42.337  41.185   7.607
 2382POPC   NC334103  29.425  11.618   9.886
 2382POPC   PO434104  29.795  11.258   9.484
 2382POPC   GL134105  29.885  11.276   9.050
 2382POPC   GL234106  29.643  11.067   8.858
 2382POPC   C1A34107  29.903  11.441   8.633
 2382POPC   D2A34108  29.719  11.177   8.360
 2382POPC   C3A34109  29.844  11.293   8.001
 2382POPC   C4A34110  29.933  11.470   7.624
 2382POPC   C1B34111  30.070  10.960   8.680
 2382POPC   C2B34112  30.161  10.940   8.245
 2382POPC   C3B34113  30.011  10.870   7.789
 2382POPC   C4B34114  30.128  11.050   7.384
 2383POPC   NC334115  12.239   3.829   9.439
 2383POPC   PO434116  11.876   4.470   9.488
 2383POPC   GL134117  12.039   4.219   9.175
 2383POPC   GL234118  11.800   3.998   9.001
 2383POPC   C1A34119  12.208   4.231   8.771
 2383POPC   D2A34120  12.043   4.338   8.393
 2383POPC   C3A34121  12.158   4.331   7.985
 2383POPC   C4A34122  11.777   4.126   7.812
 2383POPC   C1B34123  11.737   4.434   8.813
 2383POPC   C2B34124  11.706   4.708   8.447
 2383POPC   C3B34125  11.715   4.573   8.035
 2383POPC   C4B34126  11.468   4.693   7.686
 2384POPC   NC334127  34.301  16.434   9.444
 2384POPC   PO434128  34.514  15.834   9.671
 2384POPC   GL134129  34.606  16.028   9.269
 2384POPC   GL234130  34.941  16.048   9.176
 2384POPC   C1A34131  34.568  15.943   8.806
 2384POPC   D2A34132  34.294  15.964   8.429
 2384POPC   C3A34133  34.472  15.820   8.042
 2384POPC   C4A34134  34.320  15.703   7.640
 2384POPC   C1B34135  34.989  16.259   8.749
 2384POPC   C2B34136  35.042  16.321   8.285
 2384POPC   C3B34137  34.985  16.333   7.821
 2384POPC   C4B34138  34.706  16.035   7.628
 2385POPC   NC334139   2.655   4.360   9.605
 2385POPC   PO434140   2.371   3.974   9.213
 2385POPC   GL134141   2.638   4.332   9.099
 2385POPC   GL234142   2.994   4.470   9.191
 2385POPC   C1A34143   2.518   4.471   8.706
 2385POPC   D2A34144   2.744   4.484   8.370
 2385POPC   C3A34145   2.555   4.310   8.033
 2385POPC   C4A34146   2.564   4.552   7.663
 2385POPC   C1B34147   3.269   4.595   8.817
 2385POPC   C2B34148   3.170   4.770   8.388
 2385POPC   C3B34149   2.991   4.654   7.961
 2385POPC   C4B34150   3.106   4.613   7.518
 2386POPC   NC334151   3.832   4.103   9.482
 2386POPC   PO434152   4.475   4.139   9.589
 2386POPC   GL134153   4.371   4.403   9.208
 2386POPC   GL234154   4.008   4.465   9.155
 2386POPC   C1A34155   4.475   4.458   8.738
 2386POPC   D2A34156   4.513   4.217   8.310
 2386POPC   C3A34157   4.443   4.396   7.911
 2386POPC   C4A34158   4.668   4.050   7.749
 2386POPC   C1B34159   4.085   4.138   8.866
 2386POPC   C2B34160   4.058   4.303   8.468
 2386POPC   C3B34161   3.874   4.237   8.097
 2386POPC   C4B34162   3.988   4.291   7.691
 2387POPC   NC334163  27.990  31.605   9.553
 2387POPC   PO434164  28.514  31.129   9.560
 2387POPC   GL134165  28.382  31.419   9.258
 2387POPC   GL234166  28.061  31.318   9.155
 2387POPC   C1A34167  28.385  31.649   8.891
 2387POPC   D2A34168  28.408  31.516   8.500
 2387POPC   C3A34169  28.170  31.642   8.158
 2387POPC   C4A34170  28.362  31.840   7.798
 2387POPC   C1B34171  28.159  31.156   8.804
 2387POPC   C2B34172  27.990  31.140   8.399
 2387POPC   C3B34173  28.149  31.077   7.999
 2387POPC   C4B34174  28.334  31.340   7.714
 2388POPC   NC334175  31.854   6.702   9.681
 2388POPC   PO434176  32.384   7.009   9.443
 2388POPC   GL134177  32.321   6.922   9.082
 2388POPC   GL234178  32.239   6.595   9.098
 2388POPC   C1A34179  32.141   6.986   8.726
 2388POPC   D2A34180  32.134   6.737   8.404
 2388POPC   C3A34181  31.990   6.982   8.118
 2388POPC   C4A34182  32.071   6.987   7.684
 2388POPC   C1B34183  31.972   6.398   8.770
 2388POPC   C2B34184  31.844   6.331   8.345
 2388POPC   C3B34185  32.108   6.379   7.985
 2388POPC   C4B34186  31.916   6.225   7.620
 2389POPC   NC334187  26.901  42.007   9.496
 2389POPC   PO434188  26.843  41.395   9.350
 2389POPC   GL134189  26.812  41.756   9.059
 2389POPC   GL234190  27.124  41.972   9.048
 2389POPC   C1A34191  26.706  41.843   8.633
 2389POPC   D2A34192  26.999  41.869   8.262
 2389POPC   C3A34193  26.884  41.761   7.832
 2389POPC   C4A34194  26.569  41.831   7.512
 2389POPC   C1B34195  27.179  41.677   8.705
 2389POPC   C2B34196  26.895  41.397   8.465
 2389POPC   C3B34197  26.902  41.292   8.040
 2389POPC   C4B34198  27.217  41.384   7.710
 2390POPC   NC334199  37.508   7.946   9.533
 2390POPC   PO434200  37.817   8.585   9.561
 2390POPC   GL134201  37.700   8.391   9.192
 2390POPC   GL234202  37.823   8.067   9.151
 2390POPC   C1A34203  37.656   8.395   8.748
 2390POPC   D2A34204  37.865   8.282   8.374
 2390POPC   C3A34205  37.715   8.292   7.976
 2390POPC   C4A34206  37.495   8.255   7.559
 2390POPC   C1B34207  37.882   7.882   8.743
 2390POPC   C2B34208  38.107   7.853   8.381
 2390POPC   C3B34209  37.863   7.809   8.011
 2390POPC   C4B34210  37.931   7.987   7.607
 2391POPC   NC334211   1.481  20.887   9.469
 2391POPC   PO434212   1.097  20.341   9.508
 2391POPC   GL134213   1.011  20.710   9.229
 2391POPC   GL234214   1.310  20.769   9.009
 2391POPC   C1A34215   0.845  20.756   8.797
 2391POPC   D2A34216   1.106  20.769   8.415
 2391POPC   C3A34217   0.995  20.586   8.012
 2391POPC   C4A34218   1.239  20.723   7.683
 2391POPC   C1B34219   1.260  20.395   8.751
 2391POPC   C2B34220   1.311  20.259   8.315
 2391POPC   C3B34221   1.402  20.211   7.891
 2391POPC   C4B34222   1.356  20.283   7.468
 2392POPC   NC334223   6.641  21.330   9.443
 2392POPC   PO434224   7.233  21.706   9.484
 2392POPC   GL134225   7.004  21.559   9.115
 2392POPC   GL234226   6.675  21.734   9.109
 2392POPC   C1A34227   6.977  21.168   8.861
 2392POPC   D2A34228   7.020  20.841   8.531
 2392POPC   C3A34229   6.893  20.995   8.128
 2392POPC   C4A34230   7.003  21.068   7.671
 2392POPC   C1B34231   6.605  21.519   8.717
 2392POPC   C2B34232   6.537  21.424   8.285
 2392POPC   C3B34233   6.369  21.567   7.910
 2392POPC   C4B34234   6.576  21.579   7.563
 2393POPC   NC334235  13.732  41.526   9.612
 2393POPC   PO434236  13.235  41.805   9.463
 2393POPC   GL134237  13.500  41.724   9.071
 2393POPC   GL234238  13.747  41.434   9.118
 2393POPC   C1A34239  13.564  41.832   8.594
 2393POPC   D2A34240  13.537  41.524   8.219
 2393POPC   C3A34241  13.489  41.642   7.790
 2393POPC   C4A34242  13.442  41.523   7.366
 2393POPC   C1B34243  13.979  41.692   8.843
 2393POPC   C2B34244  14.031  41.696   8.374
 2393POPC   C3B34245  13.971  41.537   7.937
 2393POPC   C4B34246  13.948  41.754   7.525
 2394POPC   NC334247   5.702   9.094   9.473
 2394POPC   PO434248   6.278   8.699   9.478
 2394POPC   GL134249   6.032   8.830   9.163
 2394POPC   GL234250   6.098   9.147   9.157
 2394POPC   C1A34251   5.794   8.903   8.799
 2394POPC   D2A34252   5.727   8.724   8.398
 2394POPC   C3A34253   5.741   8.928   8.002
 2394POPC   C4A34254   6.029   8.799   7.688
 2394POPC   C1B34255   5.941   9.390   8.827
 2394POPC   C2B34256   5.777   9.254   8.421
 2394POPC   C3B34257   5.915   9.452   8.065
 2394POPC   C4B34258   5.879   9.326   7.673
 2395POPC   NC334259   7.772  39.671   9.438
 2395POPC   PO434260   7.414  40.196   9.526
 2395POPC   GL134261   7.280  40.158   9.111
 2395POPC   GL234262   7.624  40.060   9.078
 2395POPC   C1A34263   7.230  40.046   8.665
 2395POPC   D2A34264   7.202  39.807   8.274
 2395POPC   C3A34265   7.225  39.942   7.852
 2395POPC   C4A34266   7.445  40.235   7.619
 2395POPC   C1B34267   7.676  39.777   8.770
 2395POPC   C2B34268   7.679  39.974   8.400
 2395POPC   C3B34269   7.721  40.030   8.002
 2395POPC   C4B34270   7.935  39.764   7.762
 2396POPC   NC334271  20.285  34.216   9.559
 2396POPC   PO434272  20.517  34.865   9.476
 2396POPC   GL134273  20.636  34.458   9.266
 2396POPC   GL234274  20.650  34.694   9.012
 2396POPC   C1A34275  20.701  34.208   8.874
 2396POPC   D2A34276  20.872  34.364   8.459
 2396POPC   C3A34277  20.681  34.294   8.044
 2396POPC   C4A34278  20.624  34.597   7.720
 2396POPC   C1B34279  20.538  34.794   8.609
 2396POPC   C2B34280  20.552  34.792   8.186
 2396POPC   C3B34281  20.424  35.065   7.868
 2396POPC   C4B34282  20.381  34.928   7.421
 2397POPC   NC334283  32.962  16.830   9.227
 2397POPC   PO434284  32.479  16.911   9.687
 2397POPC   GL134285  32.430  16.752   9.225
 2397POPC   GL234286  32.117  16.570   9.169
 2397POPC   C1A34287  32.318  16.841   8.773
 2397POPC   D2A34288  32.203  17.056   8.392
 2397POPC   C3A34289  32.319  16.904   8.003
 2397POPC   C4A34290  32.399  16.713   7.644
 2397POPC   C1B34291  32.028  16.401   8.779
 2397POPC   C2B34292  32.164  16.508   8.352
 2397POPC   C3B34293  32.028  16.412   7.907
 2397POPC   C4B34294  32.212  16.275   7.489
 2398POPC   NC334295  12.125  37.120   9.677
 2398POPC   PO434296  11.900  37.737   9.623
 2398POPC   GL134297  11.939  37.751   9.184
 2398POPC   GL234298  12.303  37.784   9.085
 2398POPC   C1A34299  11.757  37.631   8.782
 2398POPC   D2A34300  11.834  37.435   8.374
 2398POPC   C3A34301  11.646  37.671   8.036
 2398POPC   C4A34302  11.713  37.975   7.733
 2398POPC   C1B34303  12.268  37.628   8.672
 2398POPC   C2B34304  12.359  37.711   8.269
 2398POPC   C3B34305  12.173  37.612   7.947
 2398POPC   C4B34306  12.333  37.384   7.595
 2399POPC   NC334307  14.329  14.763   9.413
 2399POPC   PO434308  14.530  15.430   9.576
 2399POPC   GL134309  14.375  15.258   9.177
 2399POPC   GL234310  14.032  15.146   9.145
 2399POPC   C1A34311  14.266  15.363   8.738
 2399POPC   D2A34312  14.180  15.502   8.325
 2399POPC   C3A34313  14.482  15.280   8.112
 2399POPC   C4A34314  14.659  15.193   7.753
 2399POPC   C1B34315  14.024  14.920   8.725
 2399POPC   C2B34316  14.099  14.977   8.269
 2399POPC   C3B34317  14.123  15.085   7.830
 2399POPC   C4B34318  13.858  14.961   7.533
 2400POPC   NC334319   2.525  17.843   9.584
 2400POPC   PO434320   3.088  17.486   9.624
 2400POPC   GL134321   2.987  17.672   9.242
 2400POPC   GL234322   2.675  17.514   9.213
 2400POPC   C1A34323   2.967  17.561   8.792
 2400POPC   D2A34324   3.152  17.681   8.432
 2400POPC   C3A34325   2.982  17.521   8.073
 2400POPC   C4A34326   2.803  17.689   7.720
 2400POPC   C1B34327   2.527  17.808   8.878
 2400POPC   C2B34328   2.655  17.843   8.419
 2400POPC   C3B34329   2.446  17.972   8.032
 2400POPC   C4B34330   2.372  17.913   7.585
 2401POPC   NC334331  31.361  39.898   9.518
 2401POPC   PO434332  31.747  40.252   9.314
 2401POPC   GL134333  31.382  40.091   9.038
 2401POPC   GL234334  31.376  39.719   9.037
 2401POPC   C1A34335  31.256  39.963   8.599
 2401POPC   D2A34336  31.384  39.790   8.176
 2401POPC   C3A34337  31.333  40.053   7.805
 2401POPC   C4A34338  31.643  40.198   7.476
 2401POPC   C1B34339  31.735  39.856   8.743
 2401POPC   C2B34340  31.934  39.853   8.332
 2401POPC   C3B34341  31.833  39.931   7.912
 2401POPC   C4B34342  31.652  39.660   7.656
 2402POPC   NC334343  17.404  38.672   9.777
 2402POPC   PO434344  17.740  38.643   9.399
 2402POPC   GL134345  17.677  38.309   9.058
 2402POPC   GL234346  17.349  38.163   8.888
 2402POPC   C1A34347  17.764  38.152   8.635
 2402POPC   D2A34348  17.501  38.196   8.264
 2402POPC   C3A34349  17.641  38.333   7.851
 2402POPC   C4A34350  17.573  38.735   7.653
 2402POPC   C1B34351  17.417  38.540   8.645
 2402POPC   C2B34352  17.180  38.760   8.318
 2402POPC   C3B34353  17.066  38.824   7.868
 2402POPC   C4B34354  17.102  38.576   7.467
 2403POPC   NC334355  36.334  21.953   9.489
 2403POPC   PO434356  35.727  21.581   9.615
 2403POPC   GL134357  35.853  21.950   9.278
 2403POPC   GL234358  36.081  21.804   9.093
 2403POPC   C1A34359  36.040  22.300   8.947
 2403POPC   D2A34360  35.975  22.541   8.548
 2403POPC   C3A34361  35.914  22.336   8.137
 2403POPC   C4A34362  35.945  22.495   7.731
 2403POPC   C1B34363  35.841  21.857   8.787
 2403POPC   C2B34364  36.013  21.898   8.398
 2403POPC   C3B34365  36.125  21.864   7.969
 2403POPC   C4B34366  35.952  22.010   7.554
 2404POPC   NC334367  39.934  34.144   9.413
 2404POPC   PO434368  39.618  33.456   9.394
 2404POPC   GL134369  39.734  33.753   9.027
 2404POPC   GL234370  39.990  34.050   8.934
 2404POPC   C1A34371  40.002  33.637   8.655
 2404POPC   D2A34372  40.249  33.499   8.295
 2404POPC   C3A34373  40.224  33.861   8.022
 2404POPC   C4A34374  39.768  33.824   7.961
 2404POPC   C1B34375  39.654  34.223   8.705
 2404POPC   C2B34376  39.517  34.370   8.294
 2404POPC   C3B34377  39.719  34.332   7.878
 2404POPC   C4B34378  40.151  34.439   7.714
 2405POPC   NC334379  41.541  15.409   9.553
 2405POPC   PO434380  41.324  14.732   9.486
 2405POPC   GL134381  41.534  15.037   9.194
 2405POPC   GL234382  41.861  14.974   9.032
 2405POPC   C1A34383  41.464  15.062   8.735
 2405POPC   D2A34384  41.251  15.204   8.362
 2405POPC   C3A34385  41.446  15.069   7.956
 2405POPC   C4A34386  41.390  15.276   7.550
 2405POPC   C1B34387  41.975  15.280   8.698
 2405POPC   C2B34388  41.766  15.367   8.282
 2405POPC   C3B34389  41.805  15.431   7.831
 2405POPC   C4B34390  41.848  15.502   7.360
 2406POPC   NC334391  19.026  10.782   9.508
 2406POPC   PO434392  19.591  10.501   9.533
 2406POPC   GL134393  19.383  10.681   9.146
 2406POPC   GL234394  19.455  10.369   9.043
 2406POPC   C1A34395  18.971  10.573   8.884
 2406POPC   D2A34396  18.867  10.451   8.416
 2406POPC   C3A34397  19.185  10.600   8.061
 2406POPC   C4A34398  19.104  10.746   7.576
 2406POPC   C1B34399  19.382  10.463   8.639
 2406POPC   C2B34400  19.284  10.167   8.357
 2406POPC   C3B34401  19.070  10.094   8.006
 2406POPC   C4B34402  19.220  10.275   7.611
 2407POPC   NC334403  35.843   0.617   9.509
 2407POPC   PO434404  35.218   0.289   9.505
 2407POPC   GL134405  35.456   0.398   9.198
 2407POPC   GL234406  35.420   0.076   9.067
 2407POPC   C1A34407  35.220   0.441   8.803
 2407POPC   D2A34408  35.085   0.502   8.398
 2407POPC   C3A34409  35.355   0.691   8.114
 2407POPC   C4A34410  35.292   0.587   7.699
 2407POPC   C1B34411  35.760   0.259   8.823
 2407POPC   C2B34412  35.623   0.398   8.466
 2407POPC   C3B34413  35.456   0.198   8.102
 2407POPC   C4B34414  35.615   0.196   7.714
 2408POPC   NC334415   4.277  31.853   9.502
 2408POPC   PO434416   4.655  31.306   9.534
 2408POPC   GL134417   4.446  31.219   9.146
 2408POPC   GL234418   4.377  31.563   9.099
 2408POPC   C1A34419   4.304  31.231   8.703
 2408POPC   D2A34420   4.079  31.373   8.330
 2408POPC   C3A34421   4.311  31.464   7.979
 2408POPC   C4A34422   4.448  31.130   7.736
 2408POPC   C1B34423   4.211  31.726   8.726
 2408POPC   C2B34424   4.217  31.862   8.323
 2408POPC   C3B34425   4.032  31.921   7.943
 2408POPC   C4B34426   4.222  31.802   7.587
 2409POPC   NC334427  25.027   4.305   9.770
 2409POPC   PO434428  24.310   4.545   9.645
 2409POPC   GL134429  24.275   4.431   9.218
 2409POPC   GL234430  24.602   4.495   9.082
 2409POPC   C1A34431  24.248   4.314   8.781
 2409POPC   D2A34432  24.027   4.295   8.400
 2409POPC   C3A34433  24.244   4.354   8.022
 2409POPC   C4A34434  24.149   4.662   7.695
 2409POPC   C1B34435  24.965   4.530   8.855
 2409POPC   C2B34436  24.841   4.569   8.454
 2409POPC   C3B34437  24.908   4.402   8.077
 2409POPC   C4B34438  24.665   4.349   7.726
 2410POPC   NC334439  12.743  32.833   9.176
 2410POPC   PO434440  12.535  33.421   9.441
 2410POPC   GL134441  12.621  33.313   9.008
 2410POPC   GL234442  12.553  33.614   8.919
 2410POPC   C1A34443  12.539  33.110   8.566
 2410POPC   D2A34444  12.614  32.875   8.168
 2410POPC   C3A34445  12.975  32.777   7.851
 2410POPC   C4A34446  12.986  32.657   7.376
 2410POPC   C1B34447  12.707  33.591   8.510
 2410POPC   C2B34448  12.817  33.382   8.110
 2410POPC   C3B34449  12.670  33.184   7.710
 2410POPC   C4B34450  12.425  33.391   7.333
 2411POPC   NC334451  19.502   9.923   9.359
 2411POPC   PO434452  18.797   9.895   9.471
 2411POPC   GL134453  18.817   9.776   9.089
 2411POPC   GL234454  19.056  10.056   9.009
 2411POPC   C1A34455  19.140   9.584   8.849
 2411POPC   D2A34456  19.410   9.746   8.578
 2411POPC   C3A34457  19.372   9.670   8.122
 2411POPC   C4A34458  19.336   9.792   7.671
 2411POPC   C1B34459  18.868   9.954   8.610
 2411POPC   C2B34460  18.884   9.608   8.336
 2411POPC   C3B34461  18.883   9.630   7.892
 2411POPC   C4B34462  18.743   9.980   7.616
 2412POPC   NC334463  31.328  29.173   9.528
 2412POPC   PO434464  31.850  29.539   9.260
 2412POPC   GL134465  31.606  29.316   8.973
 2412POPC   GL234466  31.518  29.004   9.084
 2412POPC   C1A34467  31.626  29.086   8.593
 2412POPC   D2A34468  31.456  29.142   8.227
 2412POPC   C3A34469  31.668  29.228   7.856
 2412POPC   C4A34470  31.442  29.180   7.487
 2412POPC   C1B34471  31.226  28.855   8.791
 2412POPC   C2B34472  31.026  28.850   8.371
 2412POPC   C3B34473  31.191  28.847   7.938
 2412POPC   C4B34474  31.515  28.737   7.690
 2413POPC   NC334475  40.735  41.478   9.716
 2413POPC   PO434476  41.245  41.406   9.339
 2413POPC   GL134477  40.798  41.469   9.176
 2413POPC   GL234478  40.531  41.731   9.064
 2413POPC   C1A34479  40.637  41.334   8.762
 2413POPC   D2A34480  40.892  41.215   8.404
 2413POPC   C3A34481  40.758  41.359   7.975
 2413POPC   C4A34482  40.451  41.657   7.781
 2413POPC   C1B34483  40.879  41.779   8.758
 2413POPC   C2B34484  40.930  41.705   8.332
 2413POPC   C3B34485  40.967  41.805   7.909
 2413POPC   C4B34486  40.774  41.978   7.538
 2414POPC   NC334487   1.052  40.236   9.619
 2414POPC   PO434488   1.295  39.754   9.397
 2414POPC   GL134489   1.266  40.159   9.135
 2414POPC   GL234490   0.999  40.411   9.135
 2414POPC   C1A34491   1.431  40.386   8.783
 2414POPC   D2A34492   1.606  40.365   8.331
 2414POPC   C3A34493   1.270  40.319   8.006
 2414POPC   C4A34494   1.100  40.373   7.597
 2414POPC   C1B34495   0.940  40.284   8.701
 2414POPC   C2B34496   0.794  40.401   8.279
 2414POPC   C3B34497   0.708  40.217   7.871
 2414POPC   C4B34498   0.666  40.083   7.422
 2415POPC   NC334499   6.301  15.348   9.342
 2415POPC   PO434500   5.664  15.018   9.524
 2415POPC   GL134501   5.890  15.127   9.146
 2415POPC   GL234502   6.202  14.926   9.128
 2415POPC   C1A34503   5.982  15.040   8.682
 2415POPC   D2A34504   5.829  14.953   8.252
 2415POPC   C3A34505   5.759  15.351   8.025
 2415POPC   C4A34506   5.511  15.534   7.720
 2415POPC   C1B34507   6.495  15.024   8.761
 2415POPC   C2B34508   6.378  14.944   8.328
 2415POPC   C3B34509   6.205  15.113   7.956
 2415POPC   C4B34510   5.918  14.999   7.646
 2416POPC   NC334511  13.423  36.111   9.506
 2416POPC   PO434512  14.062  36.223   9.543
 2416POPC   GL134513  13.799  36.120   9.102
 2416POPC   GL234514  13.453  36.154   9.019
 2416POPC   C1A34515  13.683  36.042   8.606
 2416POPC   D2A34516  13.484  36.122   8.218
 2416POPC   C3A34517  13.757  36.052   7.889
 2416POPC   C4A34518  13.791  35.864   7.479
 2416POPC   C1B34519  13.227  36.226   8.672
 2416POPC   C2B34520  13.099  36.457   8.312
 2416POPC   C3B34521  13.111  36.286   7.894
 2416POPC   C4B34522  13.369  36.121   7.572
 2417POPC   NC334523  16.035  10.685   9.908
 2417POPC   PO434524  15.552  10.786   9.471
 2417POPC   GL134525  15.860  10.605   9.175
 2417POPC   GL234526  16.213  10.416   9.038
 2417POPC   C1A34527  15.799  10.444   8.786
 2417POPC   D2A34528  16.122  10.395   8.496
 2417POPC   C3A34529  15.921  10.324   8.127
 2417POPC   C4A34530  15.657  10.368   7.796
 2417POPC   C1B34531  16.138  10.837   8.804
 2417POPC   C2B34532  15.813  10.862   8.479
 2417POPC   C3B34533  15.741  10.812   8.029
 2417POPC   C4B34534  15.978  10.950   7.675
 2418POPC   NC334535   4.831  36.623   9.510
 2418POPC   PO434536   5.116  37.263   9.328
 2418POPC   GL134537   5.259  36.984   9.037
 2418POPC   GL234538   5.209  36.664   9.168
 2418POPC   C1A34539   5.252  36.953   8.602
 2418POPC   D2A34540   5.421  36.777   8.248
 2418POPC   C3A34541   5.186  36.914   7.901
 2418POPC   C4A34542   5.207  37.073   7.470
 2418POPC   C1B34543   4.969  36.571   8.795
 2418POPC   C2B34544   4.804  36.726   8.383
 2418POPC   C3B34545   4.786  36.583   7.943
 2418POPC   C4B34546   5.003  36.594   7.547
 2419POPC   NC334547  37.616  30.340   9.367
 2419POPC   PO434548  38.173  30.745   9.449
 2419POPC   GL134549  37.862  30.810   9.162
 2419POPC   GL234550  37.543  30.873   9.323
 2419POPC   C1A34551  37.864  30.700   8.716
 2419POPC   D2A34552  37.536  30.582   8.426
 2419POPC   C3A34553  37.573  30.508   7.990
 2419POPC   C4A34554  37.482  30.173   7.692
 2419POPC   C1B34555  37.411  30.817   8.890
 2419POPC   C2B34556  37.505  31.106   8.528
 2419POPC   C3B34557  37.413  31.051   8.089
 2419POPC   C4B34558  37.318  30.844   7.700
 2420POPC   NC334559  20.841   0.105   9.433
 2420POPC   PO434560  20.550   0.705   9.513
 2420POPC   GL134561  20.399   0.560   9.117
 2420POPC   GL234562  20.473   0.200   9.085
 2420POPC   C1A34563  20.570   0.540   8.713
 2420POPC   D2A34564  20.416   0.466   8.338
 2420POPC   C3A34565  20.652   0.573   8.009
 2420POPC   C4A34566  20.314   0.435   7.780
 2420POPC   C1B34567  20.792   0.052   8.745
 2420POPC   C2B34568  20.832   0.144   8.294
 2420POPC   C3B34569  20.697   0.080   7.844
 2420POPC   C4B34570  20.682  44.982   7.376
 2421POPC   NC334571  11.465  27.746   9.983
 2421POPC   PO434572  12.059  27.571   9.626
 2421POPC   GL134573  12.205  27.623   9.220
 2421POPC   GL234574  12.301  27.291   9.175
 2421POPC   C1A34575  11.998  27.522   8.830
 2421POPC   D2A34576  11.749  27.663   8.470
 2421POPC   C3A34577  11.838  27.533   8.050
 2421POPC   C4A34578  12.055  27.588   7.677
 2421POPC   C1B34579  12.498  27.422   8.817
 2421POPC   C2B34580  12.548  27.322   8.420
 2421POPC   C3B34581  12.359  27.385   8.051
 2421POPC   C4B34582  12.390  27.166   7.702
 2422POPC   NC334583  22.274   1.346   9.592
 2422POPC   PO434584  21.765   1.412   9.297
 2422POPC   GL134585  22.058   1.251   9.052
 2422POPC   GL234586  22.362   1.081   9.151
 2422POPC   C1A34587  22.014   1.375   8.636
 2422POPC   D2A34588  21.943   1.366   8.199
 2422POPC   C3A34589  22.253   1.259   7.917
 2422POPC   C4A34590  22.504   1.596   7.846
 2422POPC   C1B34591  22.492   1.243   8.759
 2422POPC   C2B34592  22.326   1.043   8.390
 2422POPC   C3B34593  22.513   0.695   8.208
 2422POPC   C4B34594  22.514   0.654   7.779
 2423POPC   NC334595  12.346  20.161   9.493
 2423POPC   PO434596  11.796  19.738   9.527
 2423POPC   GL134597  12.086  19.706   9.153
 2423POPC   GL234598  12.116  20.056   9.039
 2423POPC   C1A34599  11.936  19.546   8.735
 2423POPC   D2A34600  12.080  19.557   8.293
 2423POPC   C3A34601  11.926  19.790   7.931
 2423POPC   C4A34602  11.849  19.870   7.473
 2423POPC   C1B34603  12.234  19.950   8.613
 2423POPC   C2B34604  12.426  19.971   8.190
 2423POPC   C3B34605  12.344  20.302   7.908
 2423POPC   C4B34606  11.936  20.282   7.764
 2424POPC   NC334607  40.599  34.368   9.516
 2424POPC   PO434608  40.851  34.876   9.336
 2424POPC   GL134609  40.659  34.577   9.010
 2424POPC   GL234610  40.421  34.310   9.048
 2424POPC   C1A34611  40.638  34.403   8.557
 2424POPC   D2A34612  40.468  34.459   8.131
 2424POPC   C3A34613  40.777  34.598   7.832
 2424POPC   C4A34614  41.074  34.343   7.577
 2424POPC   C1B34615  40.836  34.098   8.905
 2424POPC   C2B34616  41.003  33.992   8.463
 2424POPC   C3B34617  40.903  34.076   8.016
 2424POPC   C4B34618  40.578  34.152   7.702
 2425POPC   NC334619   4.800   0.978   9.508
 2425POPC   PO434620   4.944   1.642   9.549
 2425POPC   GL134621   4.910   1.402   9.208
 2425POPC   GL234622   5.182   1.200   9.245
 2425POPC   C1A34623   4.755   1.346   8.825
 2425POPC   D2A34624   4.936   1.417   8.413
 2425POPC   C3A34625   4.746   1.253   8.054
 2425POPC   C4A34626   4.803   0.985   7.679
 2425POPC   C1B34627   5.230   1.151   8.800
 2425POPC   C2B34628   5.335   1.107   8.364
 2425POPC   C3B34629   5.249   1.159   7.929
 2425POPC   C4B34630   5.310   0.747   7.743
 2426POPC   NC334631  35.968  20.212   9.419
 2426POPC   PO434632  36.164  20.874   9.519
 2426POPC   GL134633  36.155  20.594   9.127
 2426POPC   GL234634  36.357  20.292   9.051
 2426POPC   C1A34635  36.327  20.660   8.672
 2426POPC   D2A34636  36.276  20.953   8.289
 2426POPC   C3A34637  36.504  20.951   7.895
 2426POPC   C4A34638  36.400  20.789   7.499
 2426POPC   C1B34639  35.965  20.310   8.753
 2426POPC   C2B34640  35.966  20.480   8.335
 2426POPC   C3B34641  36.072  20.623   7.900
 2426POPC   C4B34642  36.229  20.304   7.602
 2427POPC   NC334643  13.868   4.527   9.544
 2427POPC   PO434644  13.411   4.078   9.274
 2427POPC   GL134645  13.497   4.437   9.038
 2427POPC   GL234646  13.863   4.474   9.053
 2427POPC   C1A34647  13.384   4.411   8.613
 2427POPC   D2A34648  13.583   4.154   8.285
 2427POPC   C3A34649  13.466   4.378   7.907
 2427POPC   C4A34650  13.716   4.347   7.541
 2427POPC   C1B34651  13.902   4.402   8.645
 2427POPC   C2B34652  13.758   4.635   8.318
 2427POPC   C3B34653  13.933   4.548   7.971
 2427POPC   C4B34654  14.036   4.766   7.640
 2428POPC   NC334655  13.729  24.142   9.247
 2428POPC   PO434656  13.866  24.753   9.517
 2428POPC   GL134657  13.766  24.696   9.114
 2428POPC   GL234658  13.450  24.550   9.058
 2428POPC   C1A34659  13.712  24.792   8.689
 2428POPC   D2A34660  13.362  24.724   8.443
 2428POPC   C3A34661  13.529  24.634   8.096
 2428POPC   C4A34662  13.587  24.884   7.783
 2428POPC   C1B34663  13.272  24.297   8.735
 2428POPC   C2B34664  13.303  24.170   8.305
 2428POPC   C3B34665  13.166  24.357   7.905
 2428POPC   C4B34666  13.372  24.466   7.524
 2429POPC   NC334667   3.876   3.112   9.606
 2429POPC   PO434668   3.565   3.726   9.556
 2429POPC   GL134669   3.632   3.757   9.132
 2429POPC   GL234670   3.330   3.571   9.129
 2429POPC   C1A34671   3.551   3.652   8.691
 2429POPC   D2A34672   3.767   3.307   8.479
 2429POPC   C3A34673   3.818   3.412   8.064
 2429POPC   C4A34674   3.723   3.824   7.829
 2429POPC   C1B34675   3.291   3.169   8.934
 2429POPC   C2B34676   3.281   3.127   8.511
 2429POPC   C3B34677   3.319   3.507   8.254
 2429POPC   C4B34678   3.361   3.473   7.834
 2430POPC   NC334679  35.511  12.986   9.453
 2430POPC   PO434680  35.636  12.304   9.565
 2430POPC   GL134681  35.418  12.578   9.152
 2430POPC   GL234682  35.587  12.852   8.957
 2430POPC   C1A34683  35.108  12.734   8.809
 2430POPC   D2A34684  35.227  12.963   8.432
 2430POPC   C3A34685  35.061  12.840   8.023
 2430POPC   C4A34686  35.059  13.021   7.603
 2430POPC   C1B34687  35.518  12.488   8.657
 2430POPC   C2B34688  35.501  12.562   8.228
 2430POPC   C3B34689  35.559  12.935   8.015
 2430POPC   C4B34690  35.489  12.747   7.659
 2431POPC   NC334691  31.470   8.923   9.348
 2431POPC   PO434692  31.881   9.429   9.585
 2431POPC   GL134693  31.734   9.375   9.140
 2431POPC   GL234694  31.469   9.209   8.928
 2431POPC   C1A34695  31.929   9.357   8.722
 2431POPC   D2A34696  31.896   8.950   8.475
 2431POPC   C3A34697  31.741   9.009   8.041
 2431POPC   C4A34698  31.398   9.200   7.828
 2431POPC   C1B34699  31.319   8.839   8.678
 2431POPC   C2B34700  31.029   8.620   8.462
 2431POPC   C3B34701  31.099   8.825   8.081
 2431POPC   C4B34702  30.913   8.760   7.723
 2432POPC   NC334703  19.211  34.925   9.483
 2432POPC   PO434704  18.553  34.769   9.295
 2432POPC   GL134705  18.934  34.531   9.201
 2432POPC   GL234706  19.055  34.808   9.018
 2432POPC   C1A34707  19.160  34.353   8.847
 2432POPC   D2A34708  19.164  34.601   8.485
 2432POPC   C3A34709  19.353  34.398   8.152
 2432POPC   C4A34710  19.167  34.399   7.755
 2432POPC   C1B34711  19.357  34.996   8.759
 2432POPC   C2B34712  19.216  35.132   8.373
 2432POPC   C3B34713  19.154  34.866   8.045
 2432POPC   C4B34714  19.099  34.974   7.645
 2433POPC   NC334715  15.327  24.765   9.526
 2433POPC   PO434716  14.999  24.121   9.408
 2433POPC   GL134717  15.084  24.456   9.156
 2433POPC   GL234718  15.438  24.491   9.104
 2433POPC   C1A34719  15.085  24.376   8.743
 2433POPC   D2A34720  15.362  24.510   8.465
 2433POPC   C3A34721  15.415  24.168   8.202
 2433POPC   C4A34722  15.070  24.192   7.914
 2433POPC   C1B34723  15.611  24.819   8.845
 2433POPC   C2B34724  15.542  25.006   8.435
 2433POPC   C3B34725  15.631  24.724   8.094
 2433POPC   C4B34726  15.556  24.431   7.792
 2434POPC   NC334727  18.432  11.988   9.616
 2434POPC   PO434728  17.826  12.300   9.725
 2434POPC   GL134729  18.033  12.232   9.301
 2434POPC   GL234730  18.335  12.446   9.367
 2434POPC   C1A34731  18.100  11.898   8.945
 2434POPC   D2A34732  18.283  11.656   8.587
 2434POPC   C3A34733  18.225  11.785   8.162
 2434POPC   C4A34734  18.238  11.806   7.725
 2434POPC   C1B34735  18.396  12.309   8.949
 2434POPC   C2B34736  18.375  12.159   8.524
 2434POPC   C3B34737  18.439  12.245   8.106
 2434POPC   C4B34738  18.340  12.318   7.715
 2435POPC   NC334739  12.990  10.534   9.315
 2435POPC   PO434740  12.493  10.072   9.556
 2435POPC   GL134741  12.628  10.227   9.168
 2435POPC   GL234742  12.539  10.606   9.096
 2435POPC   C1A34743  12.819  10.229   8.742
 2435POPC   D2A34744  12.724  10.386   8.327
 2435POPC   C3A34745  13.028  10.404   8.015
 2435POPC   C4A34746  12.972  10.462   7.587
 2435POPC   C1B34747  12.754  10.741   8.714
 2435POPC   C2B34748  12.648  10.900   8.312
 2435POPC   C3B34749  12.689  10.836   7.852
 2435POPC   C4B34750  12.717  10.850   7.375
 2436POPC   NC334751  13.436  13.788   9.639
 2436POPC   PO434752  13.859  13.359   9.762
 2436POPC   GL134753  13.792  13.502   9.346
 2436POPC   GL234754  14.002  13.729   9.173
 2436POPC   C1A34755  13.557  13.548   8.957
 2436POPC   D2A34756  13.465  13.396   8.529
 2436POPC   C3A34757  13.696  13.611   8.177
 2436POPC   C4A34758  13.622  13.716   7.729
 2436POPC   C1B34759  14.165  13.950   8.831
 2436POPC   C2B34760  14.170  13.855   8.388
 2436POPC   C3B34761  14.112  13.862   7.950
 2436POPC   C4B34762  14.113  13.903   7.514
 2437POPC   NC334763  34.077  15.627   9.568
 2437POPC   PO434764  33.801  16.263   9.412
 2437POPC   GL134765  33.822  15.852   9.180
 2437POPC   GL234766  34.157  15.857   9.089
 2437POPC   C1A34767  33.797  15.727   8.745
 2437POPC   D2A34768  33.582  16.059   8.501
 2437POPC   C3A34769  33.610  16.029   8.083
 2437POPC   C4A34770  33.835  15.778   7.777
 2437POPC   C1B34771  33.992  16.195   8.784
 2437POPC   C2B34772  33.982  16.368   8.343
 2437POPC   C3B34773  34.114  16.187   7.927
 2437POPC   C4B34774  34.134  16.176   7.447
 2438POPC   NC334775   3.664  34.780   9.625
 2438POPC   PO434776   3.559  34.190   9.487
 2438POPC   GL134777   3.747  34.444   9.137
 2438POPC   GL234778   3.755  34.840   9.129
 2438POPC   C1A34779   3.630  34.326   8.701
 2438POPC   D2A34780   3.640  34.203   8.268
 2438POPC   C3A34781   3.734  34.552   7.968
 2438POPC   C4A34782   3.609  34.681   7.557
 2438POPC   C1B34783   3.959  34.747   8.756
 2438POPC   C2B34784   3.695  34.772   8.422
 2438POPC   C3B34785   3.611  35.064   8.094
 2438POPC   C4B34786   3.899  35.043   7.780
 2439POPC   NC334787  18.098  23.972   9.588
 2439POPC   PO434788  18.330  23.382   9.569
 2439POPC   GL134789  18.296  23.727   9.187
 2439POPC   GL234790  17.993  23.975   9.077
 2439POPC   C1A34791  18.419  23.878   8.778
 2439POPC   D2A34792  18.586  23.726   8.375
 2439POPC   C3A34793  18.471  23.856   7.939
 2439POPC   C4A34794  18.674  23.779   7.530
 2439POPC   C1B34795  17.982  23.630   8.768
 2439POPC   C2B34796  18.134  23.482   8.406
 2439POPC   C3B34797  17.966  23.642   8.030
 2439POPC   C4B34798  18.078  23.687   7.612
 2440POPC   NC334799  14.321   6.466   9.510
 2440POPC   PO434800  14.052   7.058   9.219
 2440POPC   GL134801  14.171   6.667   9.031
 2440POPC   GL234802  14.510   6.588   9.059
 2440POPC   C1A34803  14.196   6.596   8.602
 2440POPC   D2A34804  14.398   6.791   8.263
 2440POPC   C3A34805  14.375   6.482   7.989
 2440POPC   C4A34806  14.095   6.472   7.663
 2440POPC   C1B34807  14.657   6.783   8.712
 2440POPC   C2B34808  14.885   6.902   8.337
 2440POPC   C3B34809  14.793   6.819   7.888
 2440POPC   C4B34810  14.587   6.598   7.536
 2441POPC   NC334811  26.134  16.390   9.413
 2441POPC   PO434812  26.415  15.784   9.489
 2441POPC   GL134813  26.204  15.990   9.105
 2441POPC   GL234814  25.827  16.023   9.095
 2441POPC   C1A34815  26.086  16.226   8.715
 2441POPC   D2A34816  25.894  16.103   8.336
 2441POPC   C3A34817  26.103  16.009   7.961
 2441POPC   C4A34818  26.338  16.213   7.642
 2441POPC   C1B34819  25.539  16.150   8.719
 2441POPC   C2B34820  25.409  16.167   8.241
 2441POPC   C3B34821  25.582  15.933   7.858
 2441POPC   C4B34822  25.509  15.893   7.372
 2442POPC   NC334823  31.060  34.267   9.511
 2442POPC   PO434824  31.713  34.525   9.386
 2442POPC   GL134825  31.621  34.408   9.038
 2442POPC   GL234826  31.263  34.411   9.078
 2442POPC   C1A34827  31.813  34.498   8.648
 2442POPC   D2A34828  31.695  34.368   8.244
 2442POPC   C3A34829  31.530  34.731   8.068
 2442POPC   C4A34830  31.737  34.942   7.776
 2442POPC   C1B34831  31.273  34.534   8.666
 2442POPC   C2B34832  31.020  34.370   8.366
 2442POPC   C3B34833  31.231  34.307   8.024
 2442POPC   C4B34834  31.102  34.675   7.785
 2443POPC   NC334835  14.984  29.356   9.592
 2443POPC   PO434836  15.279  28.761   9.675
 2443POPC   GL134837  15.192  28.974   9.246
 2443POPC   GL234838  15.274  29.295   9.166
 2443POPC   C1A34839  14.894  29.067   8.877
 2443POPC   D2A34840  14.673  28.872   8.511
 2443POPC   C3A34841  14.979  28.846   8.199
 2443POPC   C4A34842  15.126  29.015   7.863
 2443POPC   C1B34843  15.163  29.491   8.789
 2443POPC   C2B34844  15.001  29.306   8.425
 2443POPC   C3B34845  15.080  29.485   8.034
 2443POPC   C4B34846  15.329  29.439   7.634
 2444POPC   NC334847   9.588   7.798   9.609
 2444POPC   PO434848   9.892   8.321   9.585
 2444POPC   GL134849   9.711   8.117   9.217
 2444POPC   GL234850   9.656   7.775   9.072
 2444POPC   C1A34851   9.600   8.244   8.815
 2444POPC   D2A34852   9.868   8.316   8.479
 2444POPC   C3A34853   9.718   8.412   8.101
 2444POPC   C4A34854   9.623   8.510   7.708
 2444POPC   C1B34855   9.646   7.780   8.592
 2444POPC   C2B34856   9.527   7.936   8.184
 2444POPC   C3B34857   9.710   7.947   7.781
 2444POPC   C4B34858   9.836   7.984   7.356
 2445POPC   NC334859  40.414  20.386   9.561
 2445POPC   PO434860  41.028  20.767   9.359
 2445POPC   GL134861  41.005  20.521   8.976
 2445POPC   GL234862  40.667  20.430   9.067
 2445POPC   C1A34863  40.761  20.453   8.545
 2445POPC   D2A34864  40.438  20.306   8.260
 2445POPC   C3A34865  40.597  20.301   7.842
 2445POPC   C4A34866  40.979  20.511   7.734
 2445POPC   C1B34867  40.665  20.854   8.807
 2445POPC   C2B34868  40.833  20.979   8.421
 2445POPC   C3B34869  40.717  20.796   8.057
 2445POPC   C4B34870  40.542  20.810   7.643
 2446POPC   NC334871  14.834   5.920   9.466
 2446POPC   PO434872  15.547   5.647   9.559
 2446POPC   GL134873  15.386   5.926   9.247
 2446POPC   GL234874  15.182   5.642   9.177
 2446POPC   C1A34875  15.215   5.972   8.796
 2446POPC   D2A34876  15.229   6.145   8.376
 2446POPC   C3A34877  15.072   5.879   8.031
 2446POPC   C4A34878  15.035   5.954   7.608
 2446POPC   C1B34879  15.371   5.486   8.827
 2446POPC   C2B34880  15.300   5.576   8.405
 2446POPC   C3B34881  15.244   5.406   7.995
 2446POPC   C4B34882  15.105   5.453   7.577
 2447POPC   NC334883  37.546  34.776   9.514
 2447POPC   PO434884  37.891  34.284   9.588
 2447POPC   GL134885  37.707  34.430   9.189
 2447POPC   GL234886  37.871  34.759   9.129
 2447POPC   C1A34887  37.499  34.595   8.791
 2447POPC   D2A34888  37.309  34.448   8.384
 2447POPC   C3A34889  37.444  34.561   7.973
 2447POPC   C4A34890  37.364  34.291   7.592
 2447POPC   C1B34891  38.024  34.441   8.818
 2447POPC   C2B34892  37.821  34.340   8.451
 2447POPC   C3B34893  37.944  34.469   8.061
 2447POPC   C4B34894  37.915  34.623   7.689
 2448POPC   NC334895  12.622  40.654   9.532
 2448POPC   PO434896  12.416  41.270   9.465
 2448POPC   GL134897  12.482  41.171   9.021
 2448POPC   GL234898  12.702  40.909   9.081
 2448POPC   C1A34899  12.622  41.021   8.582
 2448POPC   D2A34900  12.508  40.856   8.158
 2448POPC   C3A34901  12.701  40.511   7.887
 2448POPC   C4A34902  12.740  40.339   7.451
 2448POPC   C1B34903  13.006  40.759   8.772
 2448POPC   C2B34904  12.963  40.672   8.312
 2448POPC   C3B34905  13.092  40.857   7.900
 2448POPC   C4B34906  13.460  41.126   7.788
 2449POPC   NC334907  11.031  30.369   9.414
 2449POPC   PO434908  11.494  30.819   9.425
 2449POPC   GL134909  11.365  30.597   9.076
 2449POPC   GL234910  11.008  30.691   9.035
 2449POPC   C1A34911  11.531  30.382   8.726
 2449POPC   D2A34912  11.385  30.376   8.274
 2449POPC   C3A34913  11.430  30.752   7.973
 2449POPC   C4A34914  11.469  30.436   7.699
 2449POPC   C1B34915  11.084  30.600   8.625
 2449POPC   C2B34916  11.026  30.814   8.254
 2449POPC   C3B34917  10.972  30.612   7.833
 2449POPC   C4B34918  11.083  30.602   7.395
 2450POPC   NC334919  34.691  17.868   9.567
 2450POPC   PO434920  34.407  18.477   9.412
 2450POPC   GL134921  34.726  18.313   9.138
 2450POPC   GL234922  34.927  17.981   9.116
 2450POPC   C1A34923  34.676  18.455   8.727
 2450POPC   D2A34924  34.456  18.425   8.345
 2450POPC   C3A34925  34.617  18.477   7.911
 2450POPC   C4A34926  34.644  18.455   7.422
 2450POPC   C1B34927  34.545  17.958   8.834
 2450POPC   C2B34928  34.369  17.908   8.439
 2450POPC   C3B34929  34.502  18.000   8.047
 2450POPC   C4B34930  34.399  17.918   7.657
 2451POPC   NC334931   9.238  13.893   9.349
 2451POPC   PO434932   9.022  13.315   9.493
 2451POPC   GL134933   8.902  13.550   9.098
 2451POPC   GL234934   8.961  13.853   8.928
 2451POPC   C1A34935   8.830  13.465   8.635
 2451POPC   D2A34936   9.020  13.594   8.248
 2451POPC   C3A34937   8.776  13.700   7.878
 2451POPC   C4A34938   9.001  13.582   7.493
 2451POPC   C1B34939   9.316  13.722   8.682
 2451POPC   C2B34940   9.444  13.928   8.292
 2451POPC   C3B34941   9.240  13.890   7.870
 2451POPC   C4B34942   9.272  13.984   7.423
 2452POPC   NC334943  41.500  30.366   9.351
 2452POPC   PO434944  41.352  31.002   9.558
 2452POPC   GL134945  41.364  30.825   9.166
 2452POPC   GL234946  41.735  30.806   9.196
 2452POPC   C1A34947  41.458  30.619   8.759
 2452POPC   D2A34948  41.643  30.309   8.464
 2452POPC   C3A34949  41.590  30.421   8.048
 2452POPC   C4A34950  41.257  30.666   7.807
 2452POPC   C1B34951  41.823  30.991   8.812
 2452POPC   C2B34952  41.731  30.865   8.404
 2452POPC   C3B34953  41.664  30.962   8.020
 2452POPC   C4B34954  41.729  30.743   7.674
 2453POPC   NC334955  17.915  23.164   9.495
 2453POPC   PO434956  17.188  23.013   9.663
 2453POPC   GL134957  17.283  22.996   9.219
 2453POPC   GL234958  17.611  22.904   9.125
 2453POPC   C1A34959  17.265  23.063   8.761
 2453POPC   D2A34960  17.155  22.898   8.328
 2453POPC   C3A34961  17.402  22.924   7.935
 2453POPC   C4A34962  17.747  22.838   7.612
 2453POPC   C1B34963  17.795  23.084   8.702
 2453POPC   C2B34964  17.747  23.203   8.217
 2453POPC   C3B34965  18.041  23.189   7.813
 2453POPC   C4B34966  17.957  23.275   7.336
 2454POPC   NC334967  26.684  19.891   9.552
 2454POPC   PO434968  27.345  19.730   9.583
 2454POPC   GL134969  27.198  19.754   9.161
 2454POPC   GL234970  26.919  20.006   9.119
 2454POPC   C1A34971  26.920  19.625   8.819
 2454POPC   D2A34972  26.706  19.629   8.433
 2454POPC   C3A34973  26.922  19.669   8.063
 2454POPC   C4A34974  26.690  19.633   7.693
 2454POPC   C1B34975  26.544  19.970   8.823
 2454POPC   C2B34976  26.333  19.974   8.406
 2454POPC   C3B34977  26.374  20.152   8.000
 2454POPC   C4B34978  26.781  20.122   7.789
 2455POPC   NC334979   3.244  37.351   9.598
 2455POPC   PO434980   3.701  36.825   9.474
 2455POPC   GL134981   3.637  36.995   9.117
 2455POPC   GL234982   3.300  37.012   9.176
 2455POPC   C1A34983   3.760  36.900   8.698
 2455POPC   D2A34984   3.851  36.710   8.277
 2455POPC   C3A34985   3.609  36.861   7.910
 2455POPC   C4A34986   3.496  36.743   7.490
 2455POPC   C1B34987   3.265  37.037   8.745
 2455POPC   C2B34988   3.411  37.040   8.335
 2455POPC   C3B34989   3.188  37.106   7.939
 2455POPC   C4B34990   3.331  37.216   7.522
 2456POPC   NC334991  14.591  33.606   9.396
 2456POPC   PO434992  14.087  34.066   9.554
 2456POPC   GL134993  14.306  34.012   9.190
 2456POPC   GL234994  14.141  33.672   9.164
 2456POPC   C1A34995  14.451  34.173   8.771
 2456POPC   D2A34996  14.374  34.009   8.323
 2456POPC   C3A34997  14.500  34.051   7.845
 2456POPC   C4A34998  14.598  34.088   7.363
 2456POPC   C1B34999  14.370  33.656   8.782
 2456POPC   C2B35000  14.491  33.507   8.378
 2456POPC   C3B35001  14.461  33.543   7.950
 2456POPC   C4B35002  14.169  33.323   7.681
 2457POPC   NC335003  12.661  34.709   9.581
 2457POPC   PO435004  13.383  34.774   9.596
 2457POPC   GL135005  13.092  34.670   9.278
 2457POPC   GL235006  13.239  34.383   9.165
 2457POPC   C1A35007  12.784  34.560   8.943
 2457POPC   D2A35008  12.693  34.556   8.501
 2457POPC   C3A35009  12.665  34.907   8.196
 2457POPC   C4A35010  12.550  34.798   7.765
 2457POPC   C1B35011  13.272  34.694   8.796
 2457POPC   C2B35012  13.141  34.797   8.370
 2457POPC   C3B35013  12.965  34.497   8.043
 2457POPC   C4B35014  13.051  34.515   7.611
 2458POPC   NC335015  44.430  44.566   9.680
 2458POPC   PO435016  44.864   0.003   9.478
 2458POPC   GL135017  44.640  44.731   9.226
 2458POPC   GL235018  44.256  44.737   9.232
 2458POPC   C1A35019  44.514  44.841   8.814
 2458POPC   D2A35020  44.701  44.807   8.423
 2458POPC   C3A35021  44.736   0.043   8.068
 2458POPC   C4A35022  44.594  44.877   7.709
 2458POPC   C1B35023  44.274  44.395   8.912
 2458POPC   C2B35024  44.492  44.337   8.507
 2458POPC   C3B35025  44.437  44.504   8.086
 2458POPC   C4B35026  44.410  44.218   7.758
 2459POPC   NC335027  23.119  33.056   9.547
 2459POPC   PO435028  22.467  33.072   9.670
 2459POPC   GL135029  22.692  33.167   9.279
 2459POPC   GL235030  22.807  32.890   9.126
 2459POPC   C1A35031  22.723  33.288   8.824
 2459POPC   D2A35032  22.604  33.160   8.394
 2459POPC   C3A35033  22.896  33.087   8.060
 2459POPC   C4A35034  22.918  33.308   7.696
 2459POPC   C1B35035  22.917  32.763   8.717
 2459POPC   C2B35036  22.848  32.612   8.313
 2459POPC   C3B35037  22.922  32.598   7.881
 2459POPC   C4B35038  23.180  32.878   7.663
 2460POPC   NC335039  36.595   7.556   9.647
 2460POPC   PO435040  36.836   7.020   9.329
 2460POPC   GL135041  36.798   7.230   9.017
 2460POPC   GL235042  36.783   7.520   9.163
 2460POPC   C1A35043  36.859   7.182   8.627
 2460POPC   D2A35044  36.664   7.175   8.256
 2460POPC   C3A35045  36.966   7.190   7.947
 2460POPC   C4A35046  37.026   7.434   7.585
 2460POPC   C1B35047  36.942   7.674   8.789
 2460POPC   C2B35048  36.996   7.610   8.362
 2460POPC   C3B35049  36.901   7.723   7.978
 2460POPC   C4B35050  36.577   7.971   7.805
 2461POPC   NC335051   3.268   4.907   9.467
 2461POPC   PO435052   3.739   5.280   9.494
 2461POPC   GL135053   3.522   5.181   9.152
 2461POPC   GL235054   3.677   4.873   9.043
 2461POPC   C1A35055   3.277   5.092   8.809
 2461POPC   D2A35056   3.577   5.051   8.540
 2461POPC   C3A35057   3.545   5.011   8.106
 2461POPC   C4A35058   3.549   4.808   7.668
 2461POPC   C1B35059   3.937   5.249   8.856
 2461POPC   C2B35060   3.867   5.455   8.444
 2461POPC   C3B35061   4.053   5.384   8.066
 2461POPC   C4B35062   3.868   5.195   7.734
 2462POPC   NC335063  40.227  30.443   9.817
 2462POPC   PO435064  39.676  30.412   9.395
 2462POPC   GL135065  39.908  30.618   9.087
 2462POPC   GL235066  39.581  30.706   8.941
 2462POPC   C1A35067  39.983  30.910   8.748
 2462POPC   D2A35068  39.861  30.721   8.367
 2462POPC   C3A35069  39.701  31.001   8.068
 2462POPC   C4A35070  39.887  31.134   7.684
 2462POPC   C1B35071  39.686  30.313   8.724
 2462POPC   C2B35072  39.619  30.228   8.298
 2462POPC   C3B35073  39.638  30.494   7.934
 2462POPC   C4B35074  39.494  30.811   7.641
 2463POPC   NC335075   0.050   8.241   9.449
 2463POPC   PO435076   0.760   8.334   9.574
 2463POPC   GL135077   0.512   8.265   9.216
 2463POPC   GL235078   0.463   7.940   9.280
 2463POPC   C1A35079   0.314   8.251   8.805
 2463POPC   D2A35080   0.451   8.253   8.374
 2463POPC   C3A35081   0.262   8.358   7.965
 2463POPC   C4A35082   0.389   8.453   7.509
 2463POPC   C1B35083   0.684   7.897   8.888
 2463POPC   C2B35084   0.788   7.838   8.440
 2463POPC   C3B35085   0.661   7.930   8.036
 2463POPC   C4B35086   0.412   7.947   7.694
 2464POPC   NC335087  16.735  22.959   9.524
 2464POPC   PO435088  16.858  23.561   9.253
 2464POPC   GL135089  16.810  23.136   9.046
 2464POPC   GL235090  16.465  23.036   9.096
 2464POPC   C1A35091  16.810  22.814   8.705
 2464POPC   D2A35092  16.635  22.989   8.292
 2464POPC   C3A35093  16.892  23.088   7.926
 2464POPC   C4A35094  16.986  22.720   7.683
 2464POPC   C1B35095  16.307  22.855   8.710
 2464POPC   C2B35096  16.430  22.530   8.394
 2464POPC   C3B35097  16.599  22.567   7.996
 2464POPC   C4B35098  16.463  22.868   7.713
 2465POPC   NC335099  21.057  34.227   9.486
 2465POPC   PO435100  21.496  34.659   9.465
 2465POPC   GL135101  21.423  34.345   9.151
 2465POPC   GL235102  21.121  34.450   9.020
 2465POPC   C1A35103  21.504  34.217   8.753
 2465POPC   D2A35104  21.397  34.502   8.444
 2465POPC   C3A35105  21.518  34.463   8.041
 2465POPC   C4A35106  21.342  34.240   7.708
 2465POPC   C1B35107  21.046  34.775   8.710
 2465POPC   C2B35108  21.048  34.873   8.277
 2465POPC   C3B35109  21.122  34.699   7.842
 2465POPC   C4B35110  21.026  34.530   7.392
 2466POPC   NC335111  20.075  35.890   9.489
 2466POPC   PO435112  19.582  35.457   9.466
 2466POPC   GL135113  19.788  35.405   9.060
 2466POPC   GL235114  20.098  35.580   8.955
 2466POPC   C1A35115  19.767  35.293   8.622
 2466POPC   D2A35116  19.600  35.441   8.258
 2466POPC   C3A35117  19.450  35.269   7.890
 2466POPC   C4A35118  19.559  35.175   7.473
 2466POPC   C1B35119  20.266  35.217   8.734
 2466POPC   C2B35120  20.145  35.077   8.327
 2466POPC   C3B35121  19.931  35.147   7.958
 2466POPC   C4B35122  20.060  35.282   7.574
 2467POPC   NC335123   1.208  24.941   9.835
 2467POPC   PO435124   1.007  25.460  10.089
 2467POPC   GL135125   1.088  25.345   9.544
 2467POPC   GL235126   1.388  25.416   9.308
 2467POPC   C1A35127   1.038  25.173   9.041
 2467POPC   D2A35128   0.889  25.258   8.588
 2467POPC   C3A35129   1.149  25.223   8.179
 2467POPC   C4A35130   0.977  25.161   7.766
 2467POPC   C1B35131   1.344  25.513   8.806
 2467POPC   C2B35132   1.532  25.528   8.350
 2467POPC   C3B35133   1.628  25.287   7.956
 2467POPC   C4B35134   1.865  25.091   7.617
 2468POPC   NC335135  32.382   5.390   9.512
 2468POPC   PO435136  32.178   4.720   9.548
 2468POPC   GL135137  32.075   4.800   9.131
 2468POPC   GL235138  32.117   5.160   9.148
 2468POPC   C1A35139  32.030   4.931   8.715
 2468POPC   D2A35140  32.117   4.711   8.396
 2468POPC   C3A35141  32.033   4.846   8.020
 2468POPC   C4A35142  32.275   4.942   7.709
 2468POPC   C1B35143  32.342   5.332   8.780
 2468POPC   C2B35144  32.260   5.226   8.347
 2468POPC   C3B35145  32.425   5.373   7.947
 2468POPC   C4B35146  32.313   5.585   7.548
 2469POPC   NC335147  34.437  34.895   9.475
 2469POPC   PO435148  34.771  34.359   9.651
 2469POPC   GL135149  34.753  34.490   9.206
 2469POPC   GL235150  34.882  34.147   9.126
 2469POPC   C1A35151  34.461  34.680   8.839
 2469POPC   D2A35152  34.229  34.896   8.455
 2469POPC   C3A35153  34.322  34.695   8.058
 2469POPC   C4A35154  34.272  34.594   7.627
 2469POPC   C1B35155  34.715  34.246   8.714
 2469POPC   C2B35156  34.637  34.331   8.263
 2469POPC   C3B35157  34.655  34.334   7.810
 2469POPC   C4B35158  34.777  34.715   7.593
 2470POPC   NC335159  30.623  36.235   9.501
 2470POPC   PO435160  30.561  35.594   9.521
 2470POPC   GL135161  30.616  35.829   9.151
 2470POPC   GL235162  30.867  36.053   9.089
 2470POPC   C1A35163  30.413  36.094   8.832
 2470POPC   D2A35164  30.467  36.055   8.402
 2470POPC   C3A35165  30.341  36.324   8.068
 2470POPC   C4A35166  30.645  36.323   7.718
 2470POPC   C1B35167  30.872  35.866   8.709
 2470POPC   C2B35168  30.980  35.968   8.330
 2470POPC   C3B35169  31.050  36.097   7.938
 2470POPC   C4B35170  30.927  35.901   7.605
 2471POPC   NC335171  13.541  32.658   9.483
 2471POPC   PO435172  14.074  32.335   9.315
 2471POPC   GL135173  13.850  32.228   9.010
 2471POPC   GL235174  13.612  31.961   9.125
 2471POPC   C1A35175  13.469  32.346   8.783
 2471POPC   D2A35176  13.286  32.169   8.414
 2471POPC   C3A35177  13.308  32.379   8.031
 2471POPC   C4A35178  13.721  32.411   7.842
 2471POPC   C1B35179  13.687  31.896   8.677
 2471POPC   C2B35180  13.781  32.094   8.282
 2471POPC   C3B35181  13.572  31.942   7.931
 2471POPC   C4B35182  13.681  31.684   7.618
 2472POPC   NC335183   5.990   2.405   9.903
 2472POPC   PO435184   5.744   2.038   9.386
 2472POPC   GL135185   5.860   2.202   9.050
 2472POPC   GL235186   5.509   2.260   8.955
 2472POPC   C1A35187   6.095   2.025   8.736
 2472POPC   D2A35188   6.080   2.200   8.372
 2472POPC   C3A35189   6.112   1.981   7.996
 2472POPC   C4A35190   5.968   2.146   7.620
 2472POPC   C1B35191   5.588   1.951   8.678
 2472POPC   C2B35192   5.715   1.834   8.288
 2472POPC   C3B35193   5.606   1.849   7.868
 2472POPC   C4B35194   5.439   1.540   7.614
 2473POPC   NC335195  43.157  28.106   9.353
 2473POPC   PO435196  43.299  28.693   9.155
 2473POPC   GL135197  42.950  28.584   8.917
 2473POPC   GL235198  43.077  28.236   8.876
 2473POPC   C1A35199  42.864  28.557   8.488
 2473POPC   D2A35200  43.019  28.194   8.295
 2473POPC   C3A35201  43.034  28.337   7.882
 2473POPC   C4A35202  43.312  28.694   7.779
 2473POPC   C1B35203  43.418  28.345   8.615
 2473POPC   C2B35204  43.526  28.537   8.234
 2473POPC   C3B35205  43.521  28.218   7.917
 2473POPC   C4B35206  43.330  28.047   7.525
 2474POPC   NC335207  43.913  14.695   9.353
 2474POPC   PO435208  43.631  15.282   9.261
 2474POPC   GL135209  43.812  15.040   8.986
 2474POPC   GL235210  44.115  15.104   9.117
 2474POPC   C1A35211  43.844  15.022   8.567
 2474POPC   D2A35212  43.577  15.192   8.255
 2474POPC   C3A35213  43.741  15.100   7.860
 2474POPC   C4A35214  43.855  14.738   7.599
 2474POPC   C1B35215  44.136  15.444   8.842
 2474POPC   C2B35216  44.002  15.491   8.428
 2474POPC   C3B35217  44.158  15.197   8.164
 2474POPC   C4B35218  44.260  15.026   7.765
 2475POPC   NC335219  44.448  26.557   9.517
 2475POPC   PO435220  44.947  27.046   9.545
 2475POPC   GL135221  44.579  26.967   9.199
 2475POPC   GL235222  44.448  26.580   9.028
 2475POPC   C1A35223  44.574  26.965   8.744
 2475POPC   D2A35224  44.897  26.736   8.535
 2475POPC   C3A35225  44.988  26.779   8.128
 2475POPC   C4A35226  44.920  27.049   7.822
 2475POPC   C1B35227  44.548  26.366   8.635
 2475POPC   C2B35228  44.576  26.439   8.200
 2475POPC   C3B35229  44.503  26.763   7.913
 2475POPC   C4B35230  44.278  26.730   7.514
 2476POPC   NC335231   7.106  22.215   9.455
 2476POPC   PO435232   6.482  22.351   9.341
 2476POPC   GL135233   6.606  22.225   8.986
 2476POPC   GL235234   6.913  22.330   8.982
 2476POPC   C1A35235   6.432  22.019   8.628
 2476POPC   D2A35236   6.503  21.937   8.213
 2476POPC   C3A35237   6.532  22.063   7.771
 2476POPC   C4A35238   6.952  21.952   7.657
 2476POPC   C1B35239   6.795  22.368   8.549
 2476POPC   C2B35240   6.561  22.452   8.206
 2476POPC   C3B35241   6.891  22.347   7.976
 2476POPC   C4B35242   7.108  22.479   7.658
 2477POPC   NC335243  10.120  28.308   9.762
 2477POPC   PO435244   9.649  28.506   9.298
 2477POPC   GL135245   9.932  28.570   9.036
 2477POPC   GL235246  10.264  28.629   9.157
 2477POPC   C1A35247   9.819  28.497   8.615
 2477POPC   D2A35248   9.691  28.563   8.222
 2477POPC   C3A35249   9.754  28.165   8.043
 2477POPC   C4A35250   9.819  27.994   7.653
 2477POPC   C1B35251  10.306  28.525   8.688
 2477POPC   C2B35252  10.208  28.586   8.227
 2477POPC   C3B35253   9.978  28.605   7.803
 2477POPC   C4B35254   9.914  28.741   7.335
 2478POPC   NC335255  31.709   8.215   9.459
 2478POPC   PO435256  31.137   8.613   9.257
 2478POPC   GL135257  31.457   8.424   9.014
 2478POPC   GL235258  31.478   8.090   8.996
 2478POPC   C1A35259  31.682   8.391   8.605
 2478POPC   D2A35260  31.539   8.595   8.260
 2478POPC   C3A35261  31.262   8.330   8.082
 2478POPC   C4A35262  31.450   8.158   7.751
 2478POPC   C1B35263  31.425   7.956   8.573
 2478POPC   C2B35264  31.560   7.875   8.178
 2478POPC   C3B35265  31.880   7.875   7.868
 2478POPC   C4B35266  31.819   7.797   7.418
 2479POPC   NC335267  37.127  31.095   9.518
 2479POPC   PO435268  36.455  31.148   9.438
 2479POPC   GL135269  36.607  31.402   9.086
 2479POPC   GL235270  36.981  31.476   9.125
 2479POPC   C1A35271  36.706  31.453   8.656
 2479POPC   D2A35272  36.997  31.368   8.278
 2479POPC   C3A35273  36.774  31.605   7.955
 2479POPC   C4A35274  36.368  31.450   7.817
 2479POPC   C1B35275  37.196  31.584   8.706
 2479POPC   C2B35276  37.133  31.849   8.366
 2479POPC   C3B35277  37.269  31.783   7.973
 2479POPC   C4B35278  37.124  31.776   7.578
 2480POPC   NC335279  25.418   3.282   9.695
 2480POPC   PO435280  25.008   3.767   9.616
 2480POPC   GL135281  25.047   3.632   9.188
 2480POPC   GL235282  24.804   3.361   9.091
 2480POPC   C1A35283  25.373   3.574   8.879
 2480POPC   D2A35284  25.418   3.754   8.455
 2480POPC   C3A35285  25.503   3.527   8.083
 2480POPC   C4A35286  25.294   3.316   7.714
 2480POPC   C1B35287  24.936   3.478   8.656
 2480POPC   C2B35288  25.012   3.451   8.205
 2480POPC   C3B35289  24.860   3.150   7.920
 2480POPC   C4B35290  24.679   3.233   7.550
 2481POPC   NC335291   5.061  41.353   9.542
 2481POPC   PO435292   5.236  41.925   9.828
 2481POPC   GL135293   5.237  41.742   9.277
 2481POPC   GL235294   5.255  41.366   9.089
 2481POPC   C1A35295   5.049  41.695   8.785
 2481POPC   D2A35296   5.246  41.576   8.355
 2481POPC   C3A35297   5.002  41.641   7.970
 2481POPC   C4A35298   5.116  41.858   7.593
 2481POPC   C1B35299   5.210  41.171   8.682
 2481POPC   C2B35300   5.122  41.066   8.257
 2481POPC   C3B35301   5.224  41.216   7.849
 2481POPC   C4B35302   5.353  41.427   7.446
 2482POPC   NC335303  39.965  27.167   9.290
 2482POPC   PO435304  40.098  27.852   9.422
 2482POPC   GL135305  39.935  27.643   9.059
 2482POPC   GL235306  40.262  27.479   9.022
 2482POPC   C1A35307  39.677  27.525   8.686
 2482POPC   D2A35308  39.568  27.487   8.233
 2482POPC   C3A35309  39.813  27.723   7.915
 2482POPC   C4A35310  39.855  27.661   7.432
 2482POPC   C1B35311  40.109  27.256   8.680
 2482POPC   C2B35312  40.070  27.499   8.350
 2482POPC   C3B35313  40.037  27.289   8.029
 2482POPC   C4B35314  40.188  27.416   7.723
 2483POPC   NC335315   0.167  30.681   9.469
 2483POPC   PO435316   0.826  30.933   9.581
 2483POPC   GL135317   0.589  30.828   9.199
 2483POPC   GL235318   0.251  31.016   9.104
 2483POPC   C1A35319   0.466  30.619   8.830
 2483POPC   D2A35320   0.379  30.710   8.417
 2483POPC   C3A35321   0.595  30.536   8.089
 2483POPC   C4A35322   0.361  30.427   7.765
 2483POPC   C1B35323   0.004  30.842   8.780
 2483POPC   C2B35324  44.877  30.707   8.390
 2483POPC   C3B35325   0.072  30.812   8.008
 2483POPC   C4B35326  44.914  30.973   7.623
 2484POPC   NC335327  17.501  34.934   9.605
 2484POPC   PO435328  17.236  35.546   9.750
 2484POPC   GL135329  17.389  35.320   9.268
 2484POPC   GL235330  17.634  35.416   9.097
 2484POPC   C1A35331  17.279  35.441   8.775
 2484POPC   D2A35332  17.465  35.590   8.359
 2484POPC   C3A35333  17.309  35.415   7.964
 2484POPC   C4A35334  17.355  35.525   7.541
 2484POPC   C1B35335  17.829  35.545   8.711
 2484POPC   C2B35336  17.942  35.384   8.283
 2484POPC   C3B35337  17.935  35.542   7.846
 2484POPC   C4B35338  17.863  35.586   7.379
 2485POPC   NC335339   9.857   3.283   9.586
 2485POPC   PO435340   9.638   3.913   9.500
 2485POPC   GL135341   9.955   3.717   9.273
 2485POPC   GL235342   9.751   3.439   9.119
 2485POPC   C1A35343  10.034   3.758   8.832
 2485POPC   D2A35344   9.741   3.562   8.555
 2485POPC   C3A35345   9.739   3.737   8.119
 2485POPC   C4A35346  10.014   3.567   7.752
 2485POPC   C1B35347   9.543   3.146   8.845
 2485POPC   C2B35348   9.605   3.086   8.427
 2485POPC   C3B35349   9.792   3.229   8.078
 2485POPC   C4B35350   9.608   3.061   7.752
 2486POPC   NC335351  37.116  29.194   9.516
 2486POPC   PO435352  36.471  29.041   9.439
 2486POPC   GL135353  36.812  29.034   9.130
 2486POPC   GL235354  37.073  28.768   9.176
 2486POPC   C1A35355  36.856  28.933   8.700
 2486POPC   D2A35356  36.750  29.144   8.303
 2486POPC   C3A35357  36.801  29.060   7.860
 2486POPC   C4A35358  36.738  29.412   7.634
 2486POPC   C1B35359  37.324  29.050   8.883
 2486POPC   C2B35360  37.271  29.108   8.421
 2486POPC   C3B35361  37.217  29.303   7.995
 2486POPC   C4B35362  37.173  29.227   7.503
 2487POPC   NC335363  38.751   2.728   9.472
 2487POPC   PO435364  38.175   2.467   9.583
 2487POPC   GL135365  38.240   2.747   9.243
 2487POPC   GL235366  38.557   2.774   9.013
 2487POPC   C1A35367  38.104   2.786   8.836
 2487POPC   D2A35368  38.395   2.816   8.482
 2487POPC   C3A35369  38.215   3.050   8.139
 2487POPC   C4A35370  38.213   2.888   7.738
 2487POPC   C1B35371  38.758   2.497   8.698
 2487POPC   C2B35372  38.845   2.619   8.281
 2487POPC   C3B35373  38.668   2.688   7.892
 2487POPC   C4B35374  38.840   2.626   7.490
 2488POPC   NC335375  29.465  42.563   9.969
 2488POPC   PO435376  29.024  42.346   9.591
 2488POPC   GL135377  29.254  42.473   9.249
 2488POPC   GL235378  29.051  42.213   9.098
 2488POPC   C1A35379  29.361  42.469   8.800
 2488POPC   D2A35380  29.087  42.448   8.427
 2488POPC   C3A35381  29.311  42.426   8.053
 2488POPC   C4A35382  29.176  42.499   7.652
 2488POPC   C1B35383  29.115  42.037   8.705
 2488POPC   C2B35384  29.438  42.060   8.390
 2488POPC   C3B35385  29.597  42.029   7.976
 2488POPC   C4B35386  29.623  42.218   7.604
 2489POPC   NC335387   8.390  32.173   9.492
 2489POPC   PO435388   7.736  31.985   9.446
 2489POPC   GL135389   8.071  31.990   9.107
 2489POPC   GL235390   8.196  32.341   9.057
 2489POPC   C1A35391   8.269  31.959   8.676
 2489POPC   D2A35392   8.133  31.967   8.234
 2489POPC   C3A35393   7.926  32.324   8.073
 2489POPC   C4A35394   7.948  32.387   7.646
 2489POPC   C1B35395   8.523  32.415   8.767
 2489POPC   C2B35396   8.627  32.610   8.348
 2489POPC   C3B35397   8.428  32.418   7.967
 2489POPC   C4B35398   8.307  32.032   7.727
 2490POPC   NC335399  26.204   3.863   9.524
 2490POPC   PO435400  25.669   4.294   9.633
 2490POPC   GL135401  25.788   4.320   9.252
 2490POPC   GL235402  25.837   3.994   9.195
 2490POPC   C1A35403  26.043   4.375   8.891
 2490POPC   D2A35404  26.221   4.377   8.499
 2490POPC   C3A35405  26.038   4.425   8.102
 2490POPC   C4A35406  26.130   4.320   7.695
 2490POPC   C1B35407  25.706   3.992   8.806
 2490POPC   C2B35408  25.933   3.962   8.433
 2490POPC   C3B35409  25.795   3.973   8.047
 2490POPC   C4B35410  25.704   4.066   7.669
 2491POPC   NC335411  41.937  10.432   9.673
 2491POPC   PO435412  41.291  10.448   9.394
 2491POPC   GL135413  41.282  10.650   9.000
 2491POPC   GL235414  41.170  11.008   9.104
 2491POPC   C1A35415  41.673  10.593   8.744
 2491POPC   D2A35416  41.948  10.679   8.391
 2491POPC   C3A35417  41.849  10.398   8.048
 2491POPC   C4A35418  41.625  10.254   7.691
 2491POPC   C1B35419  41.036  10.964   8.670
 2491POPC   C2B35420  41.313  10.718   8.382
 2491POPC   C3B35421  41.384  10.677   7.928
 2491POPC   C4B35422  41.125  10.429   7.623
 2492POPC   NC335423   8.797  35.060   9.947
 2492POPC   PO435424   8.702  35.263   9.349
 2492POPC   GL135425   9.002  35.253   9.038
 2492POPC   GL235426   9.226  35.581   8.990
 2492POPC   C1A35427   8.747  35.208   8.683
 2492POPC   D2A35428   8.595  35.481   8.391
 2492POPC   C3A35429   8.962  35.568   8.131
 2492POPC   C4A35430   8.800  35.242   7.917
 2492POPC   C1B35431   9.160  35.471   8.585
 2492POPC   C2B35432   9.123  35.088   8.316
 2492POPC   C3B35433   9.388  34.956   7.979
 2492POPC   C4B35434   9.252  35.252   7.672
 2493POPC   NC335435   7.150  29.972   9.444
 2493POPC   PO435436   7.602  30.326   9.780
 2493POPC   GL135437   7.725  30.307   9.296
 2493POPC   GL235438   7.601  29.984   9.158
 2493POPC   C1A35439   7.763  30.343   8.822
 2493POPC   D2A35440   7.655  30.044   8.460
 2493POPC   C3A35441   7.606  30.171   7.997
 2493POPC   C4A35442   7.302  30.139   7.659
 2493POPC   C1B35443   7.587  29.661   8.815
 2493POPC   C2B35444   7.534  29.531   8.348
 2493POPC   C3B35445   7.659  29.666   7.903
 2493POPC   C4B35446   7.665  29.837   7.465
 2494POPC   NC335447  23.878  15.404   9.733
 2494POPC   PO435448  23.246  15.445   9.705
 2494POPC   GL135449  23.564  15.593   9.364
 2494POPC   GL235450  23.927  15.560   9.251
 2494POPC   C1A35451  23.545  15.388   8.961
 2494POPC   D2A35452  23.671  15.152   8.598
 2494POPC   C3A35453  23.583  15.285   8.185
 2494POPC   C4A35454  23.721  15.452   7.812
 2494POPC   C1B35455  24.055  15.228   8.988
 2494POPC   C2B35456  24.173  15.213   8.561
 2494POPC   C3B35457  24.089  15.209   8.137
 2494POPC   C4B35458  24.058  14.882   7.825
 2495POPC   NC335459  30.530  18.145   9.372
 2495POPC   PO435460  31.133  18.357   9.504
 2495POPC   GL135461  30.940  18.315   9.086
 2495POPC   GL235462  30.677  18.540   9.084
 2495POPC   C1A35463  30.724  17.993   8.761
 2495POPC   D2A35464  30.473  17.862   8.382
 2495POPC   C3A35465  30.658  18.060   8.003
 2495POPC   C4A35466  31.081  18.084   7.897
 2495POPC   C1B35467  30.409  18.404   8.757
 2495POPC   C2B35468  30.478  18.379   8.345
 2495POPC   C3B35469  30.422  18.512   7.897
 2495POPC   C4B35470  30.373  18.388   7.442
 2496POPC   NC335471   1.916  40.939   9.586
 2496POPC   PO435472   2.374  40.514   9.476
 2496POPC   GL135473   2.221  40.778   9.184
 2496POPC   GL235474   2.449  41.006   9.132
 2496POPC   C1A35475   2.261  40.594   8.796
 2496POPC   D2A35476   2.092  40.543   8.408
 2496POPC   C3A35477   2.327  40.623   8.045
 2496POPC   C4A35478   2.181  40.613   7.638
 2496POPC   C1B35479   2.249  41.100   8.738
 2496POPC   C2B35480   2.141  41.065   8.298
 2496POPC   C3B35481   2.177  41.075   7.845
 2496POPC   C4B35482   2.296  41.022   7.385
 2497POPC   NC335483  17.969  26.037   9.507
 2497POPC   PO435484  18.639  26.084   9.633
 2497POPC   GL135485  18.413  26.001   9.229
 2497POPC   GL235486  18.168  26.210   9.075
 2497POPC   C1A35487  18.439  25.934   8.775
 2497POPC   D2A35488  18.267  25.629   8.486
 2497POPC   C3A35489  18.228  25.753   8.030
 2497POPC   C4A35490  18.356  25.808   7.587
 2497POPC   C1B35491  17.942  26.004   8.713
 2497POPC   C2B35492  17.990  26.156   8.286
 2497POPC   C3B35493  18.367  26.262   8.025
 2497POPC   C4B35494  18.404  26.423   7.585
 2498POPC   NC335495  32.612  42.545   9.618
 2498POPC   PO435496  33.124  42.313   9.588
 2498POPC   GL135497  32.958  42.402   9.165
 2498POPC   GL235498  32.624  42.276   9.165
 2498POPC   C1A35499  33.013  42.535   8.698
 2498POPC   D2A35500  32.843  42.670   8.269
 2498POPC   C3A35501  33.118  42.724   7.898
 2498POPC   C4A35502  33.192  42.674   7.450
 2498POPC   C1B35503  32.784  42.067   8.783
 2498POPC   C2B35504  32.938  42.153   8.343
 2498POPC   C3B35505  32.850  42.287   7.905
 2498POPC   C4B35506  32.880  42.224   7.445
 2499POPC   NC335507  37.811   5.288   9.573
 2499POPC   PO435508  38.192   4.756   9.524
 2499POPC   GL135509  37.802   4.833   9.194
 2499POPC   GL235510  37.669   5.170   9.114
 2499POPC   C1A35511  37.630   4.877   8.727
 2499POPC   D2A35512  37.710   5.052   8.363
 2499POPC   C3A35513  37.464   4.915   7.995
 2499POPC   C4A35514  37.638   4.785   7.593
 2499POPC   C1B35515  37.303   5.250   8.841
 2499POPC   C2B35516  37.153   5.164   8.421
 2499POPC   C3B35517  37.175   5.328   7.977
 2499POPC   C4B35518  37.387   5.236   7.575
 2500POPC   NC335519  19.268  28.102   9.550
 2500POPC   PO435520  19.198  28.723   9.521
 2500POPC   GL135521  19.267  28.684   9.113
 2500POPC   GL235522  19.202  28.344   9.120
 2500POPC   C1A35523  19.160  28.641   8.673
 2500POPC   D2A35524  19.218  28.326   8.353
 2500POPC   C3A35525  19.109  28.447   7.930
 2500POPC   C4A35526  18.711  28.522   7.746
 2500POPC   C1B35527  19.099  28.047   8.788
 2500POPC   C2B35528  18.996  27.850   8.408
 2500POPC   C3B35529  19.175  27.953   7.998
 2500POPC   C4B35530  19.046  28.024   7.554
 2501POPC   NC335531  21.257   8.327   9.551
 2501POPC   PO435532  21.813   7.875   9.501
 2501POPC   GL135533  21.628   8.256   9.217
 2501POPC   GL235534  21.463   8.014   9.148
 2501POPC   C1A35535  21.292   8.357   8.850
 2501POPC   D2A35536  21.092   8.236   8.423
 2501POPC   C3A35537  21.296   8.257   8.021
 2501POPC   C4A35538  21.479   8.586   7.757
 2501POPC   C1B35539  21.628   7.823   8.824
 2501POPC   C2B35540  21.391   7.808   8.492
 2501POPC   C3B35541  21.305   7.743   8.108
 2501POPC   C4B35542  21.462   7.850   7.729
 2502POPC   NC335543  30.162  16.611   9.476
 2502POPC   PO435544  29.593  16.329   9.423
 2502POPC   GL135545  29.832  16.512   9.099
 2502POPC   GL235546  29.835  16.884   9.164
 2502POPC   C1A35547  29.838  16.681   8.706
 2502POPC   D2A35548  29.954  16.580   8.302
 2502POPC   C3A35549  29.710  16.700   7.986
 2502POPC   C4A35550  29.892  16.792   7.620
 2502POPC   C1B35551  30.216  16.997   8.866
 2502POPC   C2B35552  30.343  16.876   8.468
 2502POPC   C3B35553  30.222  16.932   8.047
 2502POPC   C4B35554  30.382  16.908   7.654
 2503POPC   NC335555   7.621   7.184   9.834
 2503POPC   PO435556   8.218   7.324   9.452
 2503POPC   GL135557   8.392   7.331   9.108
 2503POPC   GL235558   8.440   7.672   9.083
 2503POPC   C1A35559   8.261   7.375   8.705
 2503POPC   D2A35560   8.036   7.577   8.446
 2503POPC   C3A35561   7.841   7.323   8.179
 2503POPC   C4A35562   7.957   7.238   7.775
 2503POPC   C1B35563   8.706   7.649   8.762
 2503POPC   C2B35564   8.514   7.737   8.388
 2503POPC   C3B35565   8.309   7.571   8.009
 2503POPC   C4B35566   8.555   7.706   7.692
 2504POPC   NC335567  30.070   4.859   9.459
 2504POPC   PO435568  29.621   5.268   9.765
 2504POPC   GL135569  29.782   5.317   9.327
 2504POPC   GL235570  29.666   5.016   9.161
 2504POPC   C1A35571  30.033   5.326   8.908
 2504POPC   D2A35572  29.997   5.442   8.437
 2504POPC   C3A35573  30.040   5.262   8.013
 2504POPC   C4A35574  30.031   5.472   7.621
 2504POPC   C1B35575  29.682   4.801   8.762
 2504POPC   C2B35576  29.645   4.982   8.346
 2504POPC   C3B35577  29.671   4.921   7.905
 2504POPC   C4B35578  29.823   5.017   7.494
 2505POPC   NC335579  29.494  26.817   9.649
 2505POPC   PO435580  29.999  26.523   9.484
 2505POPC   GL135581  29.906  26.386   9.069
 2505POPC   GL235582  29.782  26.046   9.116
 2505POPC   C1A35583  29.860  26.242   8.626
 2505POPC   D2A35584  29.695  26.205   8.198
 2505POPC   C3A35585  30.016  26.216   7.892
 2505POPC   C4A35586  30.163  25.944   7.556
 2505POPC   C1B35587  29.804  25.748   8.751
 2505POPC   C2B35588  29.925  25.757   8.293
 2505POPC   C3B35589  29.756  25.771   7.848
 2505POPC   C4B35590  29.763  25.641   7.391
 2506POPC   NC335591  35.566   2.579   9.637
 2506POPC   PO435592  35.198   3.160   9.521
 2506POPC   GL135593  35.364   2.842   9.190
 2506POPC   GL235594  35.507   2.484   9.150
 2506POPC   C1A35595  35.311   2.694   8.740
 2506POPC   D2A35596  35.444   2.412   8.416
 2506POPC   C3A35597  35.434   2.634   8.037
 2506POPC   C4A35598  35.477   2.776   7.631
 2506POPC   C1B35599  35.607   2.161   8.863
 2506POPC   C2B35600  35.825   2.061   8.463
 2506POPC   C3B35601  35.626   2.049   8.079
 2506POPC   C4B35602  35.528   2.102   7.647
 2507POPC   NC335603  33.599  12.373   9.554
 2507POPC   PO435604  33.756  11.667   9.588
 2507POPC   GL135605  33.766  11.793   9.183
 2507POPC   GL235606  33.728  12.155   9.105
 2507POPC   C1A35607  33.645  11.756   8.759
 2507POPC   D2A35608  33.778  11.935   8.383
 2507POPC   C3A35609  33.562  11.855   8.029
 2507POPC   C4A35610  33.817  11.769   7.694
 2507POPC   C1B35611  33.681  12.351   8.694
 2507POPC   C2B35612  33.897  12.419   8.274
 2507POPC   C3B35613  33.813  12.280   7.839
 2507POPC   C4B35614  33.656  12.356   7.393
 2508POPC   NC335615  21.255  11.094   9.284
 2508POPC   PO435616  21.762  10.550   9.539
 2508POPC   GL135617  21.591  10.464   9.119
 2508POPC   GL235618  21.443  10.761   8.952
 2508POPC   C1A35619  21.262  10.284   8.834
 2508POPC   D2A35620  21.046  10.084   8.476
 2508POPC   C3A35621  21.075  10.189   8.037
 2508POPC   C4A35622  21.364  10.470   7.873
 2508POPC   C1B35623  21.389  10.659   8.497
 2508POPC   C2B35624  21.715  10.708   8.187
 2508POPC   C3B35625  21.609  10.897   7.777
 2508POPC   C4B35626  21.173  10.953   7.776
 2509POPC   NC335627  39.652   2.581   9.776
 2509POPC   PO435628  39.351   3.014   9.344
 2509POPC   GL135629  39.013   3.009   9.082
 2509POPC   GL235630  39.064   2.663   9.062
 2509POPC   C1A35631  39.009   2.958   8.635
 2509POPC   D2A35632  39.348   2.873   8.324
 2509POPC   C3A35633  39.326   3.015   7.921
 2509POPC   C4A35634  39.299   2.952   7.474
 2509POPC   C1B35635  39.308   2.540   8.692
 2509POPC   C2B35636  39.285   2.344   8.280
 2509POPC   C3B35637  39.171   2.529   7.875
 2509POPC   C4B35638  39.350   2.441   7.473
 2510POPC   NC335639   0.625  25.044   9.558
 2510POPC   PO435640   0.139  25.521   9.669
 2510POPC   GL135641   0.224  25.268   9.218
 2510POPC   GL235642   0.538  25.091   9.070
 2510POPC   C1A35643   0.126  24.945   8.843
 2510POPC   D2A35644   0.398  24.980   8.511
 2510POPC   C3A35645   0.231  25.262   8.221
 2510POPC   C4A35646   0.336  25.215   7.818
 2510POPC   C1B35647   0.421  25.420   8.781
 2510POPC   C2B35648   0.547  25.606   8.425
 2510POPC   C3B35649   0.701  25.452   8.086
 2510POPC   C4B35650   0.685  25.597   7.692
 2511POPC   NC335651  12.752  41.642   9.453
 2511POPC   PO435652  12.619  42.366   9.300
 2511POPC   GL135653  12.642  41.956   9.069
 2511POPC   GL235654  12.975  41.769   9.012
 2511POPC   C1A35655  12.574  41.600   8.743
 2511POPC   D2A35656  12.629  41.441   8.308
 2511POPC   C3A35657  12.753  41.731   7.951
 2511POPC   C4A35658  13.043  41.786   7.584
 2511POPC   C1B35659  12.988  41.304   8.862
 2511POPC   C2B35660  13.107  41.146   8.428
 2511POPC   C3B35661  13.066  41.344   8.035
 2511POPC   C4B35662  12.669  41.221   7.848
 2512POPC   NC335663   5.719  42.604   9.640
 2512POPC   PO435664   5.981  41.950   9.684
 2512POPC   GL135665   5.823  42.179   9.275
 2512POPC   GL235666   5.883  42.569   9.158
 2512POPC   C1A35667   5.811  42.101   8.826
 2512POPC   D2A35668   5.480  42.102   8.499
 2512POPC   C3A35669   5.697  42.258   8.114
 2512POPC   C4A35670   5.890  42.022   7.783
 2512POPC   C1B35671   6.167  42.482   8.813
 2512POPC   C2B35672   6.128  42.302   8.411
 2512POPC   C3B35673   6.199  42.424   7.973
 2512POPC   C4B35674   6.048  42.444   7.541
 2513POPC   NC335675   5.239  28.550   9.785
 2513POPC   PO435676   5.430  28.099   9.494
 2513POPC   GL135677   5.219  28.170   9.070
 2513POPC   GL235678   5.135  28.514   8.980
 2513POPC   C1A35679   5.066  28.143   8.618
 2513POPC   D2A35680   4.902  28.256   8.215
 2513POPC   C3A35681   4.991  28.028   7.816
 2513POPC   C4A35682   5.372  28.156   7.561
 2513POPC   C1B35683   4.933  28.645   8.587
 2513POPC   C2B35684   4.947  28.771   8.136
 2513POPC   C3B35685   5.109  28.541   7.809
 2513POPC   C4B35686   4.920  28.382   7.437
 2514POPC   NC335687  11.799  27.964   9.529
 2514POPC   PO435688  12.209  28.554   9.514
 2514POPC   GL135689  12.341  28.470   9.133
 2514POPC   GL235690  12.092  28.199   9.150
 2514POPC   C1A35691  12.260  28.456   8.711
 2514POPC   D2A35692  12.073  28.268   8.357
 2514POPC   C3A35693  12.271  28.442   8.047
 2514POPC   C4A35694  12.061  28.704   7.789
 2514POPC   C1B35695  11.991  28.009   8.784
 2514POPC   C2B35696  12.257  27.771   8.466
 2514POPC   C3B35697  12.243  27.886   8.057
 2514POPC   C4B35698  12.276  28.062   7.694
 2515POPC   NC335699   3.959  36.159   9.357
 2515POPC   PO435700   4.557  36.348   9.273
 2515POPC   GL135701   4.301  36.422   8.968
 2515POPC   GL235702   4.055  36.672   9.054
 2515POPC   C1A35703   4.402  36.408   8.531
 2515POPC   D2A35704   4.679  36.171   8.251
 2515POPC   C3A35705   4.606  36.109   7.810
 2515POPC   C4A35706   4.351  35.991   7.458
 2515POPC   C1B35707   3.897  36.405   8.684
 2515POPC   C2B35708   3.991  36.186   8.275
 2515POPC   C3B35709   4.142  36.357   7.863
 2515POPC   C4B35710   3.982  36.712   7.617
 2516POPC   NC335711  44.213   3.863   9.985
 2516POPC   PO435712  43.935   4.150   9.430
 2516POPC   GL135713  43.926   4.331   9.045
 2516POPC   GL235714  44.257   4.532   8.954
 2516POPC   C1A35715  43.675   4.199   8.697
 2516POPC   D2A35716  43.736   3.948   8.326
 2516POPC   C3A35717  43.606   4.189   7.972
 2516POPC   C4A35718  43.866   4.414   7.702
 2516POPC   C1B35719  43.993   4.602   8.611
 2516POPC   C2B35720  43.928   4.589   8.189
 2516POPC   C3B35721  44.085   4.845   7.819
 2516POPC   C4B35722  44.275   4.710   7.420
 2517POPC   NC335723  10.693  22.279   9.438
 2517POPC   PO435724  10.148  21.829   9.454
 2517POPC   GL135725  10.284  22.120   9.178
 2517POPC   GL235726  10.621  22.075   8.992
 2517POPC   C1A35727  10.186  22.110   8.750
 2517POPC   D2A35728  10.348  21.767   8.543
 2517POPC   C3A35729  10.364  21.885   8.138
 2517POPC   C4A35730  10.160  22.100   7.826
 2517POPC   C1B35731  10.670  22.242   8.586
 2517POPC   C2B35732  10.434  22.404   8.257
 2517POPC   C3B35733  10.601  22.317   7.883
 2517POPC   C4B35734  10.792  21.933   7.808
 2518POPC   NC335735  44.883  43.790   9.333
 2518POPC   PO435736  44.348  43.750   9.672
 2518POPC   GL135737  44.396  44.033   9.279
 2518POPC   GL235738  44.685  44.233   9.119
 2518POPC   C1A35739  44.433  43.892   8.825
 2518POPC   D2A35740  44.341  43.577   8.495
 2518POPC   C3A35741  44.403  43.717   8.062
 2518POPC   C4A35742  44.710  43.673   7.734
 2518POPC   C1B35743  44.891  44.160   8.752
 2518POPC   C2B35744  44.811  43.905   8.419
 2518POPC   C3B35745  44.806  44.090   8.049
 2518POPC   C4B35746  44.920  44.206   7.648
 2519POPC   NC335747  43.409  22.586   9.629
 2519POPC   PO435748  42.817  22.174   9.552
 2519POPC   GL135749  43.039  22.275   9.205
 2519POPC   GL235750  42.966  21.926   9.101
 2519POPC   C1A35751  43.268  22.211   8.822
 2519POPC   D2A35752  43.469  22.117   8.458
 2519POPC   C3A35753  43.200  22.081   8.101
 2519POPC   C4A35754  43.373  22.022   7.691
 2519POPC   C1B35755  42.861  21.873   8.642
 2519POPC   C2B35756  42.677  21.836   8.244
 2519POPC   C3B35757  42.742  22.020   7.839
 2519POPC   C4B35758  42.886  22.408   7.744
 2520POPC   NC335759  13.076   1.460   9.097
 2520POPC   PO435760  12.591   1.080   9.455
 2520POPC   GL135761  12.687   1.108   9.075
 2520POPC   GL235762  12.571   1.410   9.028
 2520POPC   C1A35763  12.830   1.064   8.674
 2520POPC   D2A35764  13.065   1.317   8.466
 2520POPC   C3A35765  13.027   1.164   8.085
 2520POPC   C4A35766  13.172   1.402   7.778
 2520POPC   C1B35767  12.626   1.514   8.626
 2520POPC   C2B35768  12.579   1.312   8.259
 2520POPC   C3B35769  12.658   1.454   7.848
 2520POPC   C4B35770  12.836   1.485   7.404
 2521POPC   NC335771  23.325   3.643   9.435
 2521POPC   PO435772  22.607   3.519   9.312
 2521POPC   GL135773  22.917   3.737   9.115
 2521POPC   GL235774  23.090   3.449   9.013
 2521POPC   C1A35775  23.005   3.858   8.686
 2521POPC   D2A35776  23.226   3.926   8.301
 2521POPC   C3A35777  23.007   3.653   8.013
 2521POPC   C4A35778  22.839   3.751   7.618
 2521POPC   C1B35779  22.808   3.294   8.678
 2521POPC   C2B35780  22.671   3.292   8.228
 2521POPC   C3B35781  22.882   3.174   7.843
 2521POPC   C4B35782  22.998   3.294   7.415
 2522POPC   NC335783  20.316  19.240   9.645
 2522POPC   PO435784  20.774  19.188   9.641
 2522POPC   GL135785  20.623  18.994   9.245
 2522POPC   GL235786  20.274  18.920   9.200
 2522POPC   C1A35787  20.639  18.989   8.767
 2522POPC   D2A35788  20.583  19.248   8.366
 2522POPC   C3A35789  20.577  19.073   7.920
 2522POPC   C4A35790  20.428  18.773   7.582
 2522POPC   C1B35791  20.132  18.973   8.736
 2522POPC   C2B35792  20.240  18.867   8.293
 2522POPC   C3B35793  20.073  19.011   7.881
 2522POPC   C4B35794  20.231  19.279   7.544
 2523POPC   NC335795  33.486  34.316   9.493
 2523POPC   PO435796  33.984  34.774   9.431
 2523POPC   GL135797  33.664  34.653   9.159
 2523POPC   GL235798  33.485  34.932   9.115
 2523POPC   C1A35799  33.713  34.425   8.747
 2523POPC   D2A35800  33.859  34.576   8.338
 2523POPC   C3A35801  34.012  34.296   8.000
 2523POPC   C4A35802  33.590  34.283   7.813
 2523POPC   C1B35803  33.769  34.946   8.761
 2523POPC   C2B35804  33.730  35.174   8.394
 2523POPC   C3B35805  33.600  35.040   8.017
 2523POPC   C4B35806  33.846  34.737   7.849
 2524POPC   NC335807  37.316  17.984   9.895
 2524POPC   PO435808  37.445  17.444   9.534
 2524POPC   GL135809  37.626  17.422   9.154
 2524POPC   GL235810  37.863  17.169   9.155
 2524POPC   C1A35811  37.537  17.347   8.752
 2524POPC   D2A35812  37.603  17.611   8.420
 2524POPC   C3A35813  37.430  17.544   8.053
 2524POPC   C4A35814  37.631  17.617   7.658
 2524POPC   C1B35815  37.972  17.042   8.760
 2524POPC   C2B35816  37.753  17.055   8.362
 2524POPC   C3B35817  37.836  17.228   7.944
 2524POPC   C4B35818  37.813  17.156   7.481
 2525POPC   NC335819  28.334   5.529   9.760
 2525POPC   PO435820  28.506   6.169   9.400
 2525POPC   GL135821  28.272   6.003   9.121
 2525POPC   GL235822  28.279   5.671   9.234
 2525POPC   C1A35823  28.229   6.134   8.704
 2525POPC   D2A35824  28.084   5.862   8.378
 2525POPC   C3A35825  28.072   6.027   7.961
 2525POPC   C4A35826  28.381   6.211   7.724
 2525POPC   C1B35827  28.434   5.684   8.789
 2525POPC   C2B35828  28.573   5.707   8.380
 2525POPC   C3B35829  28.437   5.659   7.975
 2525POPC   C4B35830  28.639   5.398   7.669
 2526POPC   NC335831  21.211  36.860   9.552
 2526POPC   PO435832  21.848  36.783   9.390
 2526POPC   GL135833  21.457  36.775   9.101
 2526POPC   GL235834  21.153  37.049   9.099
 2526POPC   C1A35835  21.394  36.739   8.643
 2526POPC   D2A35836  21.299  36.695   8.218
 2526POPC   C3A35837  21.642  36.854   7.971
 2526POPC   C4A35838  21.998  37.077   7.734
 2526POPC   C1B35839  20.979  36.686   8.911
 2526POPC   C2B35840  20.866  36.655   8.493
 2526POPC   C3B35841  20.851  36.989   8.165
 2526POPC   C4B35842  21.156  37.012   7.825
 2527POPC   NC335843  14.592  24.335   9.294
 2527POPC   PO435844  14.880  24.849   9.422
 2527POPC   GL135845  14.662  24.802   9.068
 2527POPC   GL235846  14.290  24.768   9.103
 2527POPC   C1A35847  14.612  24.602   8.666
 2527POPC   D2A35848  14.767  24.338   8.325
 2527POPC   C3A35849  14.637  24.523   7.940
 2527POPC   C4A35850  14.316  24.519   7.585
 2527POPC   C1B35851  14.115  24.455   8.786
 2527POPC   C2B35852  13.896  24.393   8.376
 2527POPC   C3B35853  13.923  24.366   7.896
 2527POPC   C4B35854  13.837  24.275   7.440
 2528POPC   NC335855  28.052  26.812   9.584
 2528POPC   PO435856  27.461  26.880   9.619
 2528POPC   GL135857  27.581  26.940   9.191
 2528POPC   GL235858  27.915  27.044   9.159
 2528POPC   C1A35859  27.522  27.121   8.752
 2528POPC   D2A35860  27.395  26.869   8.395
 2528POPC   C3A35861  27.529  26.855   7.940
 2528POPC   C4A35862  27.437  26.532   7.616
 2528POPC   C1B35863  28.049  26.978   8.754
 2528POPC   C2B35864  27.916  26.809   8.357
 2528POPC   C3B35865  28.038  26.925   7.945
 2528POPC   C4B35866  27.916  26.703   7.587
 2529POPC   NC335867  42.454  17.722   9.586
 2529POPC   PO435868  41.975  17.284   9.456
 2529POPC   GL135869  42.186  17.455   9.136
 2529POPC   GL235870  42.189  17.815   9.165
 2529POPC   C1A35871  42.126  17.487   8.700
 2529POPC   D2A35872  42.295  17.288   8.304
 2529POPC   C3A35873  42.253  17.520   7.903
 2529POPC   C4A35874  42.175  17.541   7.428
 2529POPC   C1B35875  42.324  17.954   8.788
 2529POPC   C2B35876  42.244  17.829   8.359
 2529POPC   C3B35877  42.546  17.888   8.081
 2529POPC   C4B35878  42.386  17.962   7.675
 2530POPC   NC335879  39.543   2.598   9.279
 2530POPC   PO435880  40.034   2.989   9.592
 2530POPC   GL135881  40.076   2.848   9.170
 2530POPC   GL235882  39.782   2.988   9.055
 2530POPC   C1A35883  40.174   3.018   8.719
 2530POPC   D2A35884  40.361   3.031   8.298
 2530POPC   C3A35885  40.129   2.800   7.952
 2530POPC   C4A35886  39.793   2.978   7.726
 2530POPC   C1B35887  39.861   2.632   8.750
 2530POPC   C2B35888  39.863   2.726   8.370
 2530POPC   C3B35889  39.661   2.584   8.027
 2530POPC   C4B35890  39.829   2.472   7.671
 2531POPC   NC335891   3.163  21.403   9.873
 2531POPC   PO435892   2.537  21.378   9.593
 2531POPC   GL135893   2.752  21.311   9.106
 2531POPC   GL235894   2.784  21.620   8.905
 2531POPC   C1A35895   2.917  21.214   8.680
 2531POPC   D2A35896   2.882  21.555   8.348
 2531POPC   C3A35897   3.095  21.482   7.976
 2531POPC   C4A35898   2.998  21.453   7.555
 2531POPC   C1B35899   2.448  21.508   8.627
 2531POPC   C2B35900   2.397  21.771   8.262
 2531POPC   C3B35901   2.628  21.653   7.885
 2531POPC   C4B35902   2.522  21.552   7.438
 2532POPC   NC335903  10.891  38.696   9.565
 2532POPC   PO435904  10.186  38.648   9.760
 2532POPC   GL135905  10.475  38.440   9.407
 2532POPC   GL235906  10.512  38.774   9.234
 2532POPC   C1A35907  10.720  38.343   8.987
 2532POPC   D2A35908  10.606  38.208   8.558
 2532POPC   C3A35909  10.708  38.282   8.132
 2532POPC   C4A35910  10.747  38.150   7.685
 2532POPC   C1B35911  10.753  38.842   8.866
 2532POPC   C2B35912  10.602  38.746   8.458
 2532POPC   C3B35913  10.410  38.757   8.053
 2532POPC   C4B35914  10.713  38.668   7.806
 2533POPC   NC335915  10.208   7.163   9.565
 2533POPC   PO435916  10.711   7.659   9.750
 2533POPC   GL135917  10.530   7.512   9.328
 2533POPC   GL235918  10.631   7.191   9.213
 2533POPC   C1A35919  10.536   7.592   8.847
 2533POPC   D2A35920  10.733   7.600   8.451
 2533POPC   C3A35921  10.562   7.761   8.072
 2533POPC   C4A35922  10.505   7.433   7.771
 2533POPC   C1B35923  10.523   7.100   8.781
 2533POPC   C2B35924  10.530   7.118   8.332
 2533POPC   C3B35925  10.200   7.095   8.001
 2533POPC   C4B35926  10.182   7.111   7.532
 2534POPC   NC335927  43.128  23.250   9.505
 2534POPC   PO435928  42.898  23.799   9.766
 2534POPC   GL135929  42.933  23.636   9.261
 2534POPC   GL235930  43.309  23.492   9.120
 2534POPC   C1A35931  43.003  23.717   8.806
 2534POPC   D2A35932  43.001  24.010   8.482
 2534POPC   C3A35933  42.993  23.834   8.083
 2534POPC   C4A35934  42.833  23.973   7.692
 2534POPC   C1B35935  43.440  23.238   8.774
 2534POPC   C2B35936  43.255  23.115   8.383
 2534POPC   C3B35937  43.197  23.348   8.003
 2534POPC   C4B35938  43.474  23.436   7.647
 2535POPC   NC335939  32.119  17.444   9.674
 2535POPC   PO435940  32.640  17.892   9.574
 2535POPC   GL135941  32.250  17.736   9.269
 2535POPC   GL235942  32.143  17.366   9.186
 2535POPC   C1A35943  32.358  17.640   8.815
 2535POPC   D2A35944  32.528  17.447   8.468
 2535POPC   C3A35945  32.337  17.578   8.109
 2535POPC   C4A35946  32.344  17.381   7.719
 2535POPC   C1B35947  31.978  17.309   8.788
 2535POPC   C2B35948  31.787  17.358   8.393
 2535POPC   C3B35949  31.902  17.306   7.980
 2535POPC   C4B35950  31.855  17.567   7.646
 2536POPC   NC335951  26.107  19.431   9.581
 2536POPC   PO435952  26.248  18.725   9.583
 2536POPC   GL135953  26.134  18.852   9.164
 2536POPC   GL235954  26.067  19.188   9.143
 2536POPC   C1A35955  26.202  19.009   8.709
 2536POPC   D2A35956  25.973  18.950   8.413
 2536POPC   C3A35957  26.080  19.111   8.033
 2536POPC   C4A35958  26.329  19.228   7.680
 2536POPC   C1B35959  25.803  19.333   8.762
 2536POPC   C2B35960  25.649  19.321   8.307
 2536POPC   C3B35961  25.743  19.463   7.870
 2536POPC   C4B35962  25.914  19.594   7.457
 2537POPC   NC335963   3.510  24.220   9.171
 2537POPC   PO435964   3.586  23.806   9.550
 2537POPC   GL135965   3.420  23.636   9.179
 2537POPC   GL235966   3.660  23.390   9.164
 2537POPC   C1A35967   3.322  23.496   8.748
 2537POPC   D2A35968   3.484  23.315   8.361
 2537POPC   C3A35969   3.442  23.545   7.969
 2537POPC   C4A35970   3.432  23.981   7.766
 2537POPC   C1B35971   3.836  23.473   8.733
 2537POPC   C2B35972   3.981  23.380   8.302
 2537POPC   C3B35973   3.977  23.477   7.858
 2537POPC   C4B35974   3.695  23.561   7.508
 2538POPC   NC335975  42.898  24.279   9.783
 2538POPC   PO435976  43.333  23.902   9.422
 2538POPC   GL135977  43.431  24.175   9.081
 2538POPC   GL235978  43.185  24.449   9.061
 2538POPC   C1A35979  43.397  24.267   8.664
 2538POPC   D2A35980  43.171  24.521   8.414
 2538POPC   C3A35981  43.159  24.311   8.058
 2538POPC   C4A35982  43.240  24.459   7.683
 2538POPC   C1B35983  42.849  24.660   8.805
 2538POPC   C2B35984  42.739  24.818   8.364
 2538POPC   C3B35985  42.855  24.708   7.925
 2538POPC   C4B35986  42.905  24.736   7.412
 2539POPC   NC335987  25.983   5.701   9.486
 2539POPC   PO435988  26.625   5.922   9.344
 2539POPC   GL135989  26.403   5.595   9.082
 2539POPC   GL235990  26.042   5.600   9.015
 2539POPC   C1A35991  26.368   5.693   8.649
 2539POPC   D2A35992  26.297   6.028   8.382
 2539POPC   C3A35993  26.198   5.842   8.032
 2539POPC   C4A35994  26.456   5.614   7.745
 2539POPC   C1B35995  25.908   5.929   8.739
 2539POPC   C2B35996  25.744   5.924   8.337
 2539POPC   C3B35997  25.738   5.650   7.962
 2539POPC   C4B35998  25.972   5.793   7.572
 2540POPC   NC335999  12.283   4.709   9.430
 2540POPC   PO436000  11.872   5.275   9.565
 2540POPC   GL136001  12.042   5.119   9.195
 2540POPC   GL236002  11.906   4.802   9.112
 2540POPC   C1A36003  12.214   5.247   8.804
 2540POPC   D2A36004  12.304   5.474   8.425
 2540POPC   C3A36005  12.177   5.338   7.982
 2540POPC   C4A36006  11.952   5.227   7.569
 2540POPC   C1B36007  12.146   4.751   8.709
 2540POPC   C2B36008  12.183   4.822   8.243
 2540POPC   C3B36009  12.133   4.827   7.809
 2540POPC   C4B36010  11.948   4.537   7.556
 2541POPC   NC336011  33.194   2.053   9.660
 2541POPC   PO436012  32.806   2.484   9.474
 2541POPC   GL136013  32.874   2.260   9.034
 2541POPC   GL236014  33.134   2.067   9.145
 2541POPC   C1A36015  32.789   1.881   8.703
 2541POPC   D2A36016  33.016   1.564   8.437
 2541POPC   C3A36017  33.002   1.657   8.002
 2541POPC   C4A36018  32.955   2.020   7.771
 2541POPC   C1B36019  33.288   1.900   8.765
 2541POPC   C2B36020  33.531   2.044   8.448
 2541POPC   C3B36021  33.361   2.079   8.057
 2541POPC   C4B36022  33.440   1.981   7.622
 2542POPC   NC336023   0.317  40.983   9.491
 2542POPC   PO436024   0.786  40.599   9.580
 2542POPC   GL136025   0.542  40.644   9.186
 2542POPC   GL236026   0.747  40.880   9.115
 2542POPC   C1A36027   0.322  40.856   8.808
 2542POPC   D2A36028   0.362  40.683   8.361
 2542POPC   C3A36029   0.361  40.872   7.933
 2542POPC   C4A36030   0.095  40.901   7.531
 2542POPC   C1B36031   0.798  40.775   8.691
 2542POPC   C2B36032   0.798  40.934   8.261
 2542POPC   C3B36033   0.861  40.754   7.850
 2542POPC   C4B36034   0.902  40.882   7.397
 2543POPC   NC336035  21.638   1.014   9.501
 2543POPC   PO436036  21.105   1.471   9.568
 2543POPC   GL136037  21.231   1.218   9.181
 2543POPC   GL236038  21.422   1.452   8.943
 2543POPC   C1A36039  21.164   1.106   8.708
 2543POPC   D2A36040  21.420   1.381   8.424
 2543POPC   C3A36041  21.224   1.415   8.008
 2543POPC   C4A36042  21.206   1.091   7.712
 2543POPC   C1B36043  21.652   1.038   8.812
 2543POPC   C2B36044  21.801   0.947   8.442
 2543POPC   C3B36045  21.583   1.038   8.084
 2543POPC   C4B36046  21.760   1.212   7.739
 2544POPC   NC336047  41.714   4.243   9.544
 2544POPC   PO436048  41.253   4.718   9.364
 2544POPC   GL136049  41.503   4.447   9.138
 2544POPC   GL236050  41.306   4.154   9.145
 2544POPC   C1A36051  41.524   4.421   8.729
 2544POPC   D2A36052  41.296   4.331   8.373
 2544POPC   C3A36053  41.311   4.463   7.933
 2544POPC   C4A36054  41.423   4.611   7.528
 2544POPC   C1B36055  41.654   3.968   8.904
 2544POPC   C2B36056  41.783   4.004   8.477
 2544POPC   C3B36057  41.650   4.098   8.058
 2544POPC   C4B36058  41.594   4.139   7.616
 2545POPC   NC336059  34.665  31.946   9.754
 2545POPC   PO436060  34.249  31.579   9.338
 2545POPC   GL136061  34.653  31.531   9.183
 2545POPC   GL236062  34.672  31.875   9.119
 2545POPC   C1A36063  34.792  31.531   8.740
 2545POPC   D2A36064  34.686  31.704   8.294
 2545POPC   C3A36065  34.567  31.545   7.860
 2545POPC   C4A36066  34.516  31.366   7.436
 2545POPC   C1B36067  34.402  31.871   8.719
 2545POPC   C2B36068  34.175  31.685   8.368
 2545POPC   C3B36069  34.153  31.859   7.944
 2545POPC   C4B36070  34.290  31.842   7.500
 2546POPC   NC336071  12.619  24.523   9.498
 2546POPC   PO436072  13.300  24.253   9.437
 2546POPC   GL136073  12.966  24.325   9.163
 2546POPC   GL236074  12.989  24.718   9.207
 2546POPC   C1A36075  12.753  24.301   8.751
 2546POPC   D2A36076  12.908  24.486   8.345
 2546POPC   C3A36077  12.672  24.431   7.942
 2546POPC   C4A36078  12.521  24.185   7.565
 2546POPC   C1B36079  12.989  24.762   8.778
 2546POPC   C2B36080  12.858  24.979   8.378
 2546POPC   C3B36081  13.057  24.858   7.982
 2546POPC   C4B36082  13.150  24.928   7.522
 2547POPC   NC336083   5.382  10.398   9.521
 2547POPC   PO436084   4.861  10.770   9.671
 2547POPC   GL136085   5.063  10.677   9.239
 2547POPC   GL236086   5.415  10.823   9.251
 2547POPC   C1A36087   5.167  10.320   8.885
 2547POPC   D2A36088   5.341  10.164   8.452
 2547POPC   C3A36089   5.139  10.304   8.049
 2547POPC   C4A36090   5.278  10.264   7.625
 2547POPC   C1B36091   5.334  10.817   8.817
 2547POPC   C2B36092   5.152  10.669   8.443
 2547POPC   C3B36093   5.283  10.799   8.031
 2547POPC   C4B36094   5.485  10.726   7.672
 2548POPC   NC336095  36.546  27.077   9.878
 2548POPC   PO436096  37.083  26.873   9.512
 2548POPC   GL136097  36.939  26.648   9.132
 2548POPC   GL236098  37.134  26.389   9.194
 2548POPC   C1A36099  36.784  26.627   8.697
 2548POPC   D2A36100  36.952  26.885   8.353
 2548POPC   C3A36101  36.814  27.002   7.945
 2548POPC   C4A36102  36.731  26.748   7.595
 2548POPC   C1B36103  37.286  26.504   8.776
 2548POPC   C2B36104  37.346  26.532   8.324
 2548POPC   C3B36105  37.123  26.560   7.895
 2548POPC   C4B36106  37.206  26.641   7.420
 2549POPC   NC336107  17.482  12.555   9.887
 2549POPC   PO436108  17.375  12.207   9.359
 2549POPC   GL136109  17.468  12.136   8.971
 2549POPC   GL236110  17.668  12.405   8.958
 2549POPC   C1A36111  17.211  12.074   8.620
 2549POPC   D2A36112  17.181  12.300   8.238
 2549POPC   C3A36113  17.377  12.151   7.876
 2549POPC   C4A36114  17.349  12.021   7.433
 2549POPC   C1B36115  17.947  12.330   8.740
 2549POPC   C2B36116  17.888  12.031   8.462
 2549POPC   C3B36117  17.908  12.190   8.066
 2549POPC   C4B36118  17.840  12.186   7.658
 2550POPC   NC336119   3.398  42.099   9.466
 2550POPC   PO436120   3.664  42.794   9.419
 2550POPC   GL136121   3.497  42.478   9.027
 2550POPC   GL236122   3.325  42.108   8.985
 2550POPC   C1A36123   3.662  42.206   8.644
 2550POPC   D2A36124   3.543  41.917   8.309
 2550POPC   C3A36125   3.722  42.003   7.945
 2550POPC   C4A36126   3.861  42.422   7.847
 2550POPC   C1B36127   3.150  42.162   8.608
 2550POPC   C2B36128   2.954  42.195   8.243
 2550POPC   C3B36129   3.189  42.046   7.941
 2550POPC   C4B36130   3.367  42.176   7.584
 2551POPC   NC336131   3.394  22.424   9.642
 2551POPC   PO436132   3.335  21.749   9.629
 2551POPC   GL136133   3.488  22.028   9.250
 2551POPC   GL236134   3.419  22.390   9.136
 2551POPC   C1A36135   3.526  22.008   8.795
 2551POPC   D2A36136   3.765  22.115   8.401
 2551POPC   C3A36137   3.575  22.102   7.955
 2551POPC   C4A36138   3.637  22.244   7.513
 2551POPC   C1B36139   3.554  22.513   8.709
 2551POPC   C2B36140   3.399  22.471   8.260
 2551POPC   C3B36141   3.471  22.612   7.820
 2551POPC   C4B36142   3.452  22.735   7.384
 2552POPC   NC336143  35.733  33.989   9.338
 2552POPC   PO436144  36.123  33.541   9.713
 2552POPC   GL136145  36.286  33.761   9.237
 2552POPC   GL236146  36.610  33.605   9.161
 2552POPC   C1A36147  36.130  34.040   8.863
 2552POPC   D2A36148  36.174  34.043   8.440
 2552POPC   C3A36149  35.940  33.745   8.263
 2552POPC   C4A36150  35.842  33.733   7.848
 2552POPC   C1B36151  36.356  33.587   8.765
 2552POPC   C2B36152  36.378  33.410   8.357
 2552POPC   C3B36153  36.330  33.582   7.945
 2552POPC   C4B36154  36.206  33.552   7.493
 2553POPC   NC336155  39.329  33.081   9.450
 2553POPC   PO436156  38.832  32.771   9.769
 2553POPC   GL136157  38.988  32.717   9.240
 2553POPC   GL236158  39.313  32.683   9.128
 2553POPC   C1A36159  38.982  32.642   8.735
 2553POPC   D2A36160  38.860  32.842   8.304
 2553POPC   C3A36161  38.988  32.795   7.861
 2553POPC   C4A36162  39.063  33.175   7.600
 2553POPC   C1B36163  39.502  32.775   8.731
 2553POPC   C2B36164  39.618  32.868   8.348
 2553POPC   C3B36165  39.367  33.077   8.059
 2553POPC   C4B36166  39.495  32.952   7.657
 2554POPC   NC336167  23.121  34.981   9.511
 2554POPC   PO436168  22.908  35.645   9.437
 2554POPC   GL136169  23.105  35.378   9.153
 2554POPC   GL236170  22.867  35.162   9.076
 2554POPC   C1A36171  23.251  35.318   8.717
 2554POPC   D2A36172  23.051  35.230   8.307
 2554POPC   C3A36173  23.258  35.252   7.896
 2554POPC   C4A36174  23.139  35.530   7.551
 2554POPC   C1B36175  22.605  35.284   8.724
 2554POPC   C2B36176  22.585  35.471   8.299
 2554POPC   C3B36177  22.749  35.364   7.868
 2554POPC   C4B36178  22.658  35.410   7.413
 2555POPC   NC336179   1.701  43.950   9.170
 2555POPC   PO436180   1.214  43.824   9.628
 2555POPC   GL136181   1.060  43.865   9.215
 2555POPC   GL236182   0.820  43.576   9.175
 2555POPC   C1A36183   1.115  44.104   8.818
 2555POPC   D2A36184   0.949  44.170   8.384
 2555POPC   C3A36185   1.177  44.170   7.983
 2555POPC   C4A36186   1.473  44.025   7.644
 2555POPC   C1B36187   1.130  43.554   8.817
 2555POPC   C2B36188   1.309  43.779   8.453
 2555POPC   C3B36189   1.258  43.678   8.022
 2555POPC   C4B36190   1.479  43.458   7.746
 2556POPC   NC336191  16.123   7.790   9.354
 2556POPC   PO436192  16.115   8.513   9.320
 2556POPC   GL136193  15.921   8.417   8.956
 2556POPC   GL236194  15.803   8.111   9.085
 2556POPC   C1A36195  16.110   8.426   8.548
 2556POPC   D2A36196  16.388   8.172   8.279
 2556POPC   C3A36197  16.216   8.227   7.874
 2556POPC   C4A36198  15.840   8.431   7.806
 2556POPC   C1B36199  15.878   7.974   8.662
 2556POPC   C2B36200  15.806   8.137   8.238
 2556POPC   C3B36201  15.780   7.911   7.851
 2556POPC   C4B36202  15.972   8.021   7.473
 2557POPC   NC336203  22.141  43.403   9.407
 2557POPC   PO436204  22.362  42.764   9.472
 2557POPC   GL136205  22.465  42.944   9.098
 2557POPC   GL236206  22.386  43.301   9.000
 2557POPC   C1A36207  22.243  42.907   8.726
 2557POPC   D2A36208  21.931  43.035   8.452
 2557POPC   C3A36209  22.149  42.990   8.077
 2557POPC   C4A36210  22.142  43.000   7.663
 2557POPC   C1B36211  22.309  43.410   8.607
 2557POPC   C2B36212  22.482  43.326   8.269
 2557POPC   C3B36213  22.332  43.446   7.920
 2557POPC   C4B36214  22.211  43.517   7.553
 2558POPC   NC336215  34.035   2.846   9.505
 2558POPC   PO436216  33.503   2.364   9.538
 2558POPC   GL136217  33.678   2.618   9.194
 2558POPC   GL236218  34.022   2.480   9.154
 2558POPC   C1A36219  33.560   2.839   8.819
 2558POPC   D2A36220  33.681   2.900   8.385
 2558POPC   C3A36221  33.599   2.519   8.176
 2558POPC   C4A36222  33.696   2.352   7.792
 2558POPC   C1B36223  34.089   2.829   8.830
 2558POPC   C2B36224  34.182   3.090   8.452
 2558POPC   C3B36225  34.022   3.072   8.043
 2558POPC   C4B36226  33.771   2.837   7.783
 2559POPC   NC336227  24.516  29.067   9.674
 2559POPC   PO436228  24.656  29.670   9.470
 2559POPC   GL136229  24.638  29.273   9.215
 2559POPC   GL236230  24.608  28.883   9.192
 2559POPC   C1A36231  24.404  29.220   8.832
 2559POPC   D2A36232  24.302  29.457   8.467
 2559POPC   C3A36233  24.400  29.228   8.082
 2559POPC   C4A36234  24.762  29.156   7.756
 2559POPC   C1B36235  24.587  28.740   8.776
 2559POPC   C2B36236  24.416  28.767   8.364
 2559POPC   C3B36237  24.510  28.742   7.935
 2559POPC   C4B36238  24.301  29.021   7.614
 2560POPC   NC336239  33.198   2.721   9.600
 2560POPC   PO436240  32.739   3.191   9.425
 2560POPC   GL136241  32.804   2.845   9.105
 2560POPC   GL236242  33.154   2.683   9.103
 2560POPC   C1A36243  32.839   2.659   8.682
 2560POPC   D2A36244  33.206   2.745   8.428
 2560POPC   C3A36245  33.232   2.947   8.038
 2560POPC   C4A36246  32.839   2.873   7.810
 2560POPC   C1B36247  33.290   2.406   8.792
 2560POPC   C2B36248  33.051   2.242   8.454
 2560POPC   C3B36249  32.914   2.446   8.100
 2560POPC   C4B36250  33.200   2.498   7.782
 2561POPC   NC336251   8.799  20.413   9.513
 2561POPC   PO436252   9.073  21.056   9.575
 2561POPC   GL136253   8.923  20.822   9.247
 2561POPC   GL236254   9.170  20.585   9.138
 2561POPC   C1A36255   8.850  20.785   8.810
 2561POPC   D2A36256   9.110  20.645   8.449
 2561POPC   C3A36257   8.988  20.600   8.037
 2561POPC   C4A36258   9.064  20.184   7.887
 2561POPC   C1B36259   9.022  20.296   8.795
 2561POPC   C2B36260   8.820  20.205   8.367
 2561POPC   C3B36261   8.551  20.348   7.991
 2561POPC   C4B36262   8.679  20.397   7.606
 2562POPC   NC336263  36.679  34.678   9.487
 2562POPC   PO436264  37.252  34.433   9.414
 2562POPC   GL136265  37.175  34.817   9.168
 2562POPC   GL236266  36.900  34.684   9.046
 2562POPC   C1A36267  37.147  34.992   8.738
 2562POPC   D2A36268  36.962  34.814   8.385
 2562POPC   C3A36269  36.907  34.770   7.969
 2562POPC   C4A36270  37.135  34.753   7.618
 2562POPC   C1B36271  36.912  34.435   8.738
 2562POPC   C2B36272  36.757  34.353   8.350
 2562POPC   C3B36273  36.988  34.256   7.987
 2562POPC   C4B36274  36.841  34.355   7.612
 2563POPC   NC336275  13.140  19.906   9.509
 2563POPC   PO436276  12.495  19.690   9.485
 2563POPC   GL136277  12.672  19.937   9.119
 2563POPC   GL236278  13.018  19.785   9.033
 2563POPC   C1A36279  12.738  19.991   8.642
 2563POPC   D2A36280  12.930  19.861   8.248
 2563POPC   C3A36281  12.817  19.979   7.804
 2563POPC   C4A36282  13.033  20.254   7.479
 2563POPC   C1B36283  12.796  19.483   8.777
 2563POPC   C2B36284  12.569  19.504   8.390
 2563POPC   C3B36285  12.469  19.522   7.941
 2563POPC   C4B36286  12.693  19.512   7.570
 2564POPC   NC336287  18.326   3.209   9.521
 2564POPC   PO436288  18.758   3.588   9.333
 2564POPC   GL136289  18.558   3.304   9.074
 2564POPC   GL236290  18.201   3.261   9.029
 2564POPC   C1A36291  18.550   3.367   8.647
 2564POPC   D2A36292  18.581   3.667   8.339
 2564POPC   C3A36293  18.344   3.511   8.015
 2564POPC   C4A36294  18.384   3.450   7.576
 2564POPC   C1B36295  17.889   3.487   8.799
 2564POPC   C2B36296  17.916   3.739   8.410
 2564POPC   C3B36297  18.013   3.881   7.994
 2564POPC   C4B36298  17.884   3.479   7.751
 2565POPC   NC336299  26.312  30.670   9.819
 2565POPC   PO436300  26.771  30.947   9.459
 2565POPC   GL136301  26.762  30.812   9.065
 2565POPC   GL236302  26.542  30.569   9.151
 2565POPC   C1A36303  26.964  30.837   8.657
 2565POPC   D2A36304  27.111  30.623   8.281
 2565POPC   C3A36305  26.930  30.681   7.839
 2565POPC   C4A36306  27.066  30.981   7.475
 2565POPC   C1B36307  26.527  30.504   8.704
 2565POPC   C2B36308  26.667  30.330   8.330
 2565POPC   C3B36309  26.486  30.433   7.972
 2565POPC   C4B36310  26.429  30.540   7.551
 2566POPC   NC336311   3.787  32.270   9.500
 2566POPC   PO436312   3.214  32.525   9.780
 2566POPC   GL136313   3.389  32.483   9.254
 2566POPC   GL236314   3.717  32.542   9.072
 2566POPC   C1A36315   3.396  32.188   8.827
 2566POPC   D2A36316   3.311  31.988   8.372
 2566POPC   C3A36317   3.456  32.121   7.953
 2566POPC   C4A36318   3.310  32.516   7.722
 2566POPC   C1B36319   3.653  32.591   8.630
 2566POPC   C2B36320   3.519  32.576   8.200
 2566POPC   C3B36321   3.804  32.486   7.845
 2566POPC   C4B36322   3.905  32.670   7.417
 2567POPC   NC336323   0.620  29.117   9.408
 2567POPC   PO436324   0.221  29.592   9.524
 2567POPC   GL136325   0.316  29.421   9.121
 2567POPC   GL236326   0.646  29.560   9.130
 2567POPC   C1A36327   0.221  29.079   8.807
 2567POPC   D2A36328   0.041  29.041   8.391
 2567POPC   C3A36329   0.294  29.006   8.000
 2567POPC   C4A36330   0.165  29.253   7.620
 2567POPC   C1B36331   0.691  29.292   8.779
 2567POPC   C2B36332   0.500  29.282   8.395
 2567POPC   C3B36333   0.488  29.488   8.004
 2567POPC   C4B36334   0.657  29.269   7.683
 2568POPC   NC336335  28.640  15.070   9.315
 2568POPC   PO436336  28.169  15.495   9.462
 2568POPC   GL136337  28.247  15.338   9.087
 2568POPC   GL236338  28.137  14.985   9.186
 2568POPC   C1A36339  28.269  15.429   8.640
 2568POPC   D2A36340  28.085  15.280   8.254
 2568POPC   C3A36341  28.350  15.246   7.880
 2568POPC   C4A36342  28.218  15.307   7.453
 2568POPC   C1B36343  28.349  14.935   8.755
 2568POPC   C2B36344  28.473  14.961   8.308
 2568POPC   C3B36345  28.547  14.765   7.904
 2568POPC   C4B36346  28.625  14.526   7.482
 2569POPC   NC336347   9.312  43.441   9.829
 2569POPC   PO436348   9.034  43.948   9.469
 2569POPC   GL136349   9.038  43.796   9.106
 2569POPC   GL236350   8.882  44.097   8.985
 2569POPC   C1A36351   9.252  43.804   8.745
 2569POPC   D2A36352   9.458  43.921   8.401
 2569POPC   C3A36353   9.144  43.956   8.095
 2569POPC   C4A36354   9.193  43.821   7.699
 2569POPC   C1B36355   8.734  43.757   8.686
 2569POPC   C2B36356   8.784  43.566   8.268
 2569POPC   C3B36357   8.697  43.717   7.850
 2569POPC   C4B36358   8.813  44.134   7.675
 2570POPC   NC336359  31.184  44.179   9.312
 2570POPC   PO436360  31.148  44.730   9.591
 2570POPC   GL136361  31.274  44.667   9.168
 2570POPC   GL236362  31.006  44.833   9.059
 2570POPC   C1A36363  31.473  44.624   8.748
 2570POPC   D2A36364  31.484  44.944   8.398
 2570POPC   C3A36365  31.590  44.777   8.000
 2570POPC   C4A36366  31.802  44.460   7.777
 2570POPC   C1B36367  31.020  44.781   8.623
 2570POPC   C2B36368  31.166  44.573   8.272
 2570POPC   C3B36369  31.220  44.323   7.929
 2570POPC   C4B36370  30.962  44.301   7.553
 2571POPC   NC336371  20.451   8.780   9.590
 2571POPC   PO436372  20.730   9.334   9.488
 2571POPC   GL136373  20.466   9.160   9.162
 2571POPC   GL236374  20.637   8.820   9.124
 2571POPC   C1A36375  20.372   9.400   8.756
 2571POPC   D2A36376  20.277   9.209   8.337
 2571POPC   C3A36377  20.423   9.332   7.927
 2571POPC   C4A36378  20.379   9.232   7.471
 2571POPC   C1B36379  20.587   8.943   8.688
 2571POPC   C2B36380  20.760   9.089   8.279
 2571POPC   C3B36381  20.702   8.895   7.863
 2571POPC   C4B36382  20.990   8.665   7.606
 2572POPC   NC336383  16.190   4.466   9.494
 2572POPC   PO436384  15.522   4.729   9.370
 2572POPC   GL136385  15.805   4.420   9.159
 2572POPC   GL236386  15.761   4.592   8.902
 2572POPC   C1A36387  16.076   4.186   8.839
 2572POPC   D2A36388  16.020   4.456   8.473
 2572POPC   C3A36389  16.134   4.490   8.057
 2572POPC   C4A36390  16.352   4.174   7.878
 2572POPC   C1B36391  15.576   4.196   8.749
 2572POPC   C2B36392  15.669   4.002   8.359
 2572POPC   C3B36393  15.860   4.047   7.962
 2572POPC   C4B36394  15.855   4.360   7.611
 2573POPC   NC336395  11.112  32.669   9.449
 2573POPC   PO436396  11.591  33.164   9.650
 2573POPC   GL136397  11.471  33.085   9.216
 2573POPC   GL236398  11.698  33.329   9.121
 2573POPC   C1A36399  11.248  32.881   8.825
 2573POPC   D2A36400  11.022  32.796   8.413
 2573POPC   C3A36401  11.238  32.862   8.008
 2573POPC   C4A36402  11.327  32.616   7.651
 2573POPC   C1B36403  11.675  33.126   8.718
 2573POPC   C2B36404  11.541  33.214   8.297
 2573POPC   C3B36405  11.676  33.117   7.875
 2573POPC   C4B36406  11.520  33.020   7.421
 2574POPC   NC336407  19.274   7.033   9.205
 2574POPC   PO436408  18.771   6.664   9.424
 2574POPC   GL136409  19.068   6.565   9.111
 2574POPC   GL236410  19.278   6.263   9.108
 2574POPC   C1A36411  19.205   6.620   8.721
 2574POPC   D2A36412  19.444   6.917   8.502
 2574POPC   C3A36413  19.323   6.918   8.072
 2574POPC   C4A36414  19.115   6.681   7.762
 2574POPC   C1B36415  19.436   6.158   8.751
 2574POPC   C2B36416  19.353   6.341   8.340
 2574POPC   C3B36417  19.164   6.163   7.982
 2574POPC   C4B36418  19.295   6.230   7.592
 2575POPC   NC336419  14.624  30.832   9.604
 2575POPC   PO436420  15.254  30.686   9.578
 2575POPC   GL136421  15.045  30.681   9.211
 2575POPC   GL236422  15.392  30.743   9.033
 2575POPC   C1A36423  14.981  30.640   8.792
 2575POPC   D2A36424  15.242  30.791   8.427
 2575POPC   C3A36425  15.132  30.628   8.011
 2575POPC   C4A36426  14.857  30.757   7.642
 2575POPC   C1B36427  15.662  30.922   8.720
 2575POPC   C2B36428  15.740  30.796   8.291
 2575POPC   C3B36429  15.519  30.966   7.949
 2575POPC   C4B36430  15.354  30.836   7.572
 2576POPC   NC336431  30.605  17.178   9.500
 2576POPC   PO436432  30.833  17.795   9.366
 2576POPC   GL136433  30.757  17.437   9.096
 2576POPC   GL236434  31.042  17.211   9.060
 2576POPC   C1A36435  30.674  17.264   8.691
 2576POPC   D2A36436  30.819  17.089   8.299
 2576POPC   C3A36437  30.591  17.269   7.966
 2576POPC   C4A36438  30.577  17.643   7.752
 2576POPC   C1B36439  31.111  17.620   8.783
 2576POPC   C2B36440  30.986  17.730   8.341
 2576POPC   C3B36441  31.042  17.522   7.933
 2576POPC   C4B36442  31.015  17.612   7.486
 2577POPC   NC336443   2.837  24.557   9.830
 2577POPC   PO436444   2.597  24.127   9.593
 2577POPC   GL136445   2.737  24.321   9.158
 2577POPC   GL236446   3.061  24.489   9.053
 2577POPC   C1A36447   2.630  24.401   8.698
 2577POPC   D2A36448   2.367  24.524   8.322
 2577POPC   C3A36449   2.593  24.360   7.992
 2577POPC   C4A36450   3.059  24.291   8.028
 2577POPC   C1B36451   2.944  24.802   8.712
 2577POPC   C2B36452   2.860  24.737   8.243
 2577POPC   C3B36453   2.886  24.706   7.755
 2577POPC   C4B36454   2.963  24.551   7.307
 2578POPC   NC336455  44.714  17.996   9.544
 2578POPC   PO436456  44.368  18.678   9.416
 2578POPC   GL136457  44.297  18.364   9.145
 2578POPC   GL236458  44.628  18.265   9.134
 2578POPC   C1A36459  44.361  18.306   8.705
 2578POPC   D2A36460  44.657  18.547   8.465
 2578POPC   C3A36461  44.593  18.462   8.039
 2578POPC   C4A36462  44.609  18.674   7.654
 2578POPC   C1B36463  44.830  18.160   8.764
 2578POPC   C2B36464  44.772  18.010   8.334
 2578POPC   C3B36465  44.954  18.108   7.937
 2578POPC   C4B36466  44.830  18.137   7.526
 2579POPC   NC336467  16.030   0.832   9.511
 2579POPC   PO436468  15.820   0.159   9.442
 2579POPC   GL136469  15.914   0.495   9.142
 2579POPC   GL236470  16.282   0.523   9.178
 2579POPC   C1A36471  15.740   0.692   8.740
 2579POPC   D2A36472  15.571   0.563   8.307
 2579POPC   C3A36473  15.829   0.729   7.938
 2579POPC   C4A36474  16.208   0.755   7.642
 2579POPC   C1B36475  16.210   0.435   8.731
 2579POPC   C2B36476  16.179   0.559   8.292
 2579POPC   C3B36477  16.168   0.315   7.903
 2579POPC   C4B36478  15.890  44.998   7.696
 2580POPC   NC336479  36.753  11.531   9.620
 2580POPC   PO436480  37.237  11.036   9.773
 2580POPC   GL136481  36.977  11.129   9.333
 2580POPC   GL236482  36.914  11.437   9.135
 2580POPC   C1A36483  36.885  11.017   8.855
 2580POPC   D2A36484  36.831  11.247   8.435
 2580POPC   C3A36485  37.060  11.280   8.044
 2580POPC   C4A36486  36.799  11.077   7.735
 2580POPC   C1B36487  37.076  11.591   8.722
 2580POPC   C2B36488  36.852  11.748   8.325
 2580POPC   C3B36489  36.715  11.620   7.911
 2580POPC   C4B36490  36.914  11.514   7.507
 2581POPC   NC336491   3.694  43.267   9.578
 2581POPC   PO436492   3.057  43.383   9.523
 2581POPC   GL136493   3.280  43.480   9.160
 2581POPC   GL236494   3.464  43.205   9.131
 2581POPC   C1A36495   3.397  43.527   8.720
 2581POPC   D2A36496   3.567  43.553   8.292
 2581POPC   C3A36497   3.409  43.200   8.005
 2581POPC   C4A36498   3.427  43.097   7.546
 2581POPC   C1B36499   3.294  43.021   8.758
 2581POPC   C2B36500   3.219  42.654   8.526
 2581POPC   C3B36501   3.435  42.425   8.204
 2581POPC   C4B36502   3.422  42.672   7.837
 2582POPC   NC336503  32.074  32.178   9.487
 2582POPC   PO436504  32.694  32.228   9.405
 2582POPC   GL136505  32.366  32.335   9.123
 2582POPC   GL236506  32.138  32.037   9.011
 2582POPC   C1A36507  32.209  32.485   8.745
 2582POPC   D2A36508  32.152  32.427   8.315
 2582POPC   C3A36509  31.872  32.518   7.972
 2582POPC   C4A36510  31.961  32.595   7.555
 2582POPC   C1B36511  32.231  31.722   8.698
 2582POPC   C2B36512  32.014  31.679   8.292
 2582POPC   C3B36513  32.076  32.029   8.021
 2582POPC   C4B36514  32.343  32.349   7.800
 2583POPC   NC336515   4.943   4.261   9.528
 2583POPC   PO436516   5.057   4.872   9.482
 2583POPC   GL136517   5.213   4.685   9.127
 2583POPC   GL236518   5.204   4.315   9.088
 2583POPC   C1A36519   5.171   4.642   8.711
 2583POPC   D2A36520   4.897   4.507   8.431
 2583POPC   C3A36521   4.974   4.396   8.019
 2583POPC   C4A36522   5.259   4.608   7.764
 2583POPC   C1B36523   5.387   4.121   8.733
 2583POPC   C2B36524   5.194   4.051   8.344
 2583POPC   C3B36525   5.366   4.064   7.938
 2583POPC   C4B36526   5.216   4.093   7.513
 2584POPC   NC336527   8.194   5.350   9.445
 2584POPC   PO436528   8.467   4.681   9.404
 2584POPC   GL136529   8.308   4.827   9.024
 2584POPC   GL236530   8.330   5.182   9.007
 2584POPC   C1A36531   8.401   4.911   8.569
 2584POPC   D2A36532   8.147   4.950   8.185
 2584POPC   C3A36533   8.128   4.887   7.721
 2584POPC   C4A36534   8.008   5.155   7.359
 2584POPC   C1B36535   8.519   5.439   8.722
 2584POPC   C2B36536   8.480   5.371   8.321
 2584POPC   C3B36537   8.577   5.534   7.977
 2584POPC   C4B36538   8.363   5.342   7.680
 2585POPC   NC336539   7.530   5.453   9.477
 2585POPC   PO436540   7.360   5.939   9.830
 2585POPC   GL136541   7.479   5.951   9.361
 2585POPC   GL236542   7.227   6.079   9.134
 2585POPC   C1A36543   7.599   5.829   8.912
 2585POPC   D2A36544   7.543   5.918   8.440
 2585POPC   C3A36545   7.644   5.722   8.078
 2585POPC   C4A36546   7.440   5.670   7.689
 2585POPC   C1B36547   7.090   5.786   8.860
 2585POPC   C2B36548   7.004   5.778   8.459
 2585POPC   C3B36549   7.115   5.805   8.061
 2585POPC   C4B36550   6.915   5.580   7.751
 2586POPC   NC336551  41.179  20.305   9.448
 2586POPC   PO436552  41.514  19.671   9.481
 2586POPC   GL136553  41.532  19.918   9.143
 2586POPC   GL236554  41.485  19.605   8.961
 2586POPC   C1A36555  41.442  20.096   8.757
 2586POPC   D2A36556  41.394  19.835   8.398
 2586POPC   C3A36557  41.654  19.953   8.070
 2586POPC   C4A36558  41.799  19.956   7.629
 2586POPC   C1B36559  41.758  19.387   8.690
 2586POPC   C2B36560  41.654  19.370   8.268
 2586POPC   C3B36561  41.731  19.487   7.878
 2586POPC   C4B36562  41.851  19.231   7.608
 2587POPC   NC336563   5.486  17.917   9.457
 2587POPC   PO436564   6.000  18.336   9.434
 2587POPC   GL136565   5.854  18.089   9.132
 2587POPC   GL236566   5.560  18.295   9.096
 2587POPC   C1A36567   5.839  18.150   8.702
 2587POPC   D2A36568   5.891  18.346   8.328
 2587POPC   C3A36569   5.869  18.094   7.983
 2587POPC   C4A36570   5.665  18.131   7.606
 2587POPC   C1B36571   5.499  18.655   8.800
 2587POPC   C2B36572   5.564  18.777   8.365
 2587POPC   C3B36573   5.537  18.500   8.001
 2587POPC   C4B36574   5.561  18.651   7.624
 2588POPC   NC336575  20.358  22.619   9.615
 2588POPC   PO436576  20.439  23.203   9.462
 2588POPC   GL136577  20.587  22.950   9.089
 2588POPC   GL236578  20.458  22.602   9.072
 2588POPC   C1A36579  20.639  22.896   8.618
 2588POPC   D2A36580  20.623  22.728   8.186
 2588POPC   C3A36581  20.757  22.959   7.803
 2588POPC   C4A36582  20.809  23.221   7.418
 2588POPC   C1B36583  20.248  22.536   8.652
 2588POPC   C2B36584  20.178  22.464   8.159
 2588POPC   C3B36585  20.360  22.633   7.759
 2588POPC   C4B36586  20.528  22.785   7.380
 2589POPC   NC336587   9.451  15.568   9.576
 2589POPC   PO436588   9.642  14.928   9.578
 2589POPC   GL136589   9.862  15.053   9.203
 2589POPC   GL236590   9.794  15.394   9.176
 2589POPC   C1A36591   9.699  15.061   8.786
 2589POPC   D2A36592   9.760  15.333   8.461
 2589POPC   C3A36593   9.787  15.093   8.095
 2589POPC   C4A36594   9.977  15.085   7.674
 2589POPC   C1B36595   9.444  15.528   8.866
 2589POPC   C2B36596   9.282  15.528   8.423
 2589POPC   C3B36597   9.499  15.524   8.047
 2589POPC   C4B36598   9.487  15.238   7.714
 2590POPC   NC336599  39.498  11.018   9.335
 2590POPC   PO436600  38.904  11.321   9.517
 2590POPC   GL136601  39.064  11.131   9.097
 2590POPC   GL236602  39.216  10.855   8.919
 2590POPC   C1A36603  39.270  11.297   8.702
 2590POPC   D2A36604  39.129  11.316   8.328
 2590POPC   C3A36605  39.389  11.440   8.051
 2590POPC   C4A36606  39.137  11.513   7.691
 2590POPC   C1B36607  39.588  10.909   8.695
 2590POPC   C2B36608  39.663  11.098   8.368
 2590POPC   C3B36609  39.742  11.008   7.998
 2590POPC   C4B36610  39.527  11.131   7.675
 2591POPC   NC336611  34.158   0.552   9.435
 2591POPC   PO436612  33.597   0.435   9.723
 2591POPC   GL136613  33.595   0.378   9.244
 2591POPC   GL236614  33.421   0.666   9.181
 2591POPC   C1A36615  33.810   0.390   8.827
 2591POPC   D2A36616  34.142   0.617   8.585
 2591POPC   C3A36617  34.105   0.658   8.161
 2591POPC   C4A36618  33.856   0.389   7.902
 2591POPC   C1B36619  33.541   0.811   8.747
 2591POPC   C2B36620  33.640   0.621   8.367
 2591POPC   C3B36621  33.488   0.751   7.981
 2591POPC   C4B36622  33.538   0.639   7.542
 2592POPC   NC336623  28.989   8.378   9.754
 2592POPC   PO436624  29.427   7.919   9.433
 2592POPC   GL136625  29.307   8.152   9.148
 2592POPC   GL236626  29.047   8.324   9.232
 2592POPC   C1A36627  29.188   8.076   8.772
 2592POPC   D2A36628  29.348   8.430   8.562
 2592POPC   C3A36629  29.346   8.432   8.121
 2592POPC   C4A36630  29.223   8.224   7.745
 2592POPC   C1B36631  28.895   8.457   8.807
 2592POPC   C2B36632  28.886   8.288   8.370
 2592POPC   C3B36633  28.846   8.475   7.932
 2592POPC   C4B36634  28.866   8.473   7.442
 2593POPC   NC336635  10.733   3.571   9.441
 2593POPC   PO436636  10.293   3.169   9.637
 2593POPC   GL136637  10.344   3.407   9.144
 2593POPC   GL236638  10.553   3.719   9.007
 2593POPC   C1A36639  10.402   3.455   8.637
 2593POPC   D2A36640  10.168   3.512   8.303
 2593POPC   C3A36641  10.361   3.322   8.020
 2593POPC   C4A36642  10.585   3.509   7.695
 2593POPC   C1B36643  10.676   4.041   8.730
 2593POPC   C2B36644  10.805   3.983   8.315
 2593POPC   C3B36645  10.920   3.791   7.964
 2593POPC   C4B36646  10.906   3.870   7.545
 2594POPC   NC336647   7.681  10.137   9.490
 2594POPC   PO436648   7.262  10.628   9.745
 2594POPC   GL136649   7.170  10.491   9.250
 2594POPC   GL236650   7.337  10.228   9.130
 2594POPC   C1A36651   7.300  10.583   8.776
 2594POPC   D2A36652   7.258  10.418   8.336
 2594POPC   C3A36653   7.589  10.441   8.030
 2594POPC   C4A36654   7.536  10.807   7.782
 2594POPC   C1B36655   7.134  10.101   8.736
 2594POPC   C2B36656   7.345   9.922   8.355
 2594POPC   C3B36657   7.282  10.054   7.908
 2594POPC   C4B36658   7.166  10.417   7.711
 2595POPC   NC336659  37.700  19.562   9.906
 2595POPC   PO436660  37.446  20.030   9.571
 2595POPC   GL136661  37.706  19.962   9.200
 2595POPC   GL236662  37.870  20.212   9.024
 2595POPC   C1A36663  37.739  19.705   8.795
 2595POPC   D2A36664  37.949  19.483   8.462
 2595POPC   C3A36665  37.822  19.787   8.153
 2595POPC   C4A36666  37.877  20.127   7.823
 2595POPC   C1B36667  37.830  20.157   8.567
 2595POPC   C2B36668  37.451  20.089   8.349
 2595POPC   C3B36669  37.364  19.947   7.951
 2595POPC   C4B36670  37.476  20.001   7.529
 2596POPC   NC336671  43.625   7.662   9.608
 2596POPC   PO436672  43.057   7.446   9.769
 2596POPC   GL136673  43.149   7.656   9.358
 2596POPC   GL236674  43.336   7.409   9.274
 2596POPC   C1A36675  43.313   7.711   8.883
 2596POPC   D2A36676  43.361   7.827   8.456
 2596POPC   C3A36677  43.044   7.848   8.164
 2596POPC   C4A36678  43.241   7.831   7.775
 2596POPC   C1B36679  42.985   7.344   8.954
 2596POPC   C2B36680  43.042   7.394   8.507
 2596POPC   C3B36681  43.290   7.421   8.114
 2596POPC   C4B36682  42.963   7.425   7.746
 2597POPC   NC336683  15.357  33.398   9.340
 2597POPC   PO436684  14.959  32.770   9.260
 2597POPC   GL136685  15.132  33.048   9.067
 2597POPC   GL236686  14.890  33.277   9.163
 2597POPC   C1A36687  15.157  33.046   8.658
 2597POPC   D2A36688  15.117  32.716   8.410
 2597POPC   C3A36689  15.169  32.840   8.014
 2597POPC   C4A36690  14.887  32.762   7.711
 2597POPC   C1B36691  14.810  33.388   8.767
 2597POPC   C2B36692  15.013  33.475   8.384
 2597POPC   C3B36693  14.934  33.294   8.022
 2597POPC   C4B36694  15.057  33.343   7.651
 2598POPC   NC336695  10.537  37.875   9.641
 2598POPC   PO436696  10.969  37.392   9.685
 2598POPC   GL136697  10.652  37.574   9.256
 2598POPC   GL236698  10.527  37.902   9.124
 2598POPC   C1A36699  10.544  37.452   8.800
 2598POPC   D2A36700  10.291  37.321   8.392
 2598POPC   C3A36701  10.546  37.362   8.011
 2598POPC   C4A36702  10.833  37.632   7.787
 2598POPC   C1B36703  10.198  38.057   8.812
 2598POPC   C2B36704  10.098  37.912   8.368
 2598POPC   C3B36705  10.391  37.837   7.990
 2598POPC   C4B36706  10.424  37.780   7.516
 2599POPC   NC336707  21.064  28.343   9.559
 2599POPC   PO436708  21.675  28.734   9.516
 2599POPC   GL136709  21.467  28.689   9.159
 2599POPC   GL236710  21.147  28.705   9.212
 2599POPC   C1A36711  21.511  28.521   8.768
 2599POPC   D2A36712  21.400  28.262   8.454
 2599POPC   C3A36713  21.430  28.427   8.054
 2599POPC   C4A36714  21.247  28.130   7.800
 2599POPC   C1B36715  20.996  28.570   8.838
 2599POPC   C2B36716  21.137  28.697   8.441
 2599POPC   C3B36717  21.027  28.744   8.045
 2599POPC   C4B36718  20.887  28.512   7.689
 2600POPC   NC336719  20.209  38.428   9.558
 2600POPC   PO436720  20.876  38.039   9.606
 2600POPC   GL136721  20.816  38.233   9.173
 2600POPC   GL236722  20.549  38.485   9.166
 2600POPC   C1A36723  20.953  38.463   8.771
 2600POPC   D2A36724  20.800  38.482   8.331
 2600POPC   C3A36725  21.034  38.404   7.906
 2600POPC   C4A36726  20.995  38.229   7.468
 2600POPC   C1B36727  20.476  38.297   8.768
 2600POPC   C2B36728  20.280  38.304   8.368
 2600POPC   C3B36729  20.484  38.291   8.000
 2600POPC   C4B36730  20.617  38.690   7.889
 2601POPC   NC336731  36.579  15.439   9.389
 2601POPC   PO436732  37.037  14.982   9.255
 2601POPC   GL136733  36.907  15.311   9.019
 2601POPC   GL236734  36.594  15.143   8.979
 2601POPC   C1A36735  36.781  15.441   8.614
 2601POPC   D2A36736  36.948  15.274   8.263
 2601POPC   C3A36737  36.930  15.266   7.845
 2601POPC   C4A36738  37.094  15.038   7.500
 2601POPC   C1B36739  36.760  14.883   8.641
 2601POPC   C2B36740  36.632  14.879   8.214
 2601POPC   C3B36741  36.782  14.766   7.813
 2601POPC   C4B36742  36.654  14.780   7.374
 2602POPC   NC336743  38.772  25.569   9.276
 2602POPC   PO436744  39.393  25.379   9.452
 2602POPC   GL136745  39.141  25.280   9.062
 2602POPC   GL236746  39.302  24.983   8.891
 2602POPC   C1A36747  38.997  25.296   8.608
 2602POPC   D2A36748  39.183  25.536   8.255
 2602POPC   C3A36749  39.271  25.311   7.916
 2602POPC   C4A36750  39.124  25.016   7.672
 2602POPC   C1B36751  39.525  25.395   8.786
 2602POPC   C2B36752  39.600  25.664   8.486
 2602POPC   C3B36753  39.655  25.669   8.067
 2602POPC   C4B36754  39.760  25.413   7.760
 2603POPC   NC336755  10.774  24.572   9.834
 2603POPC   PO436756  10.158  24.267   9.645
 2603POPC   GL136757  10.321  24.303   9.249
 2603POPC   GL236758  10.106  24.579   9.196
 2603POPC   C1A36759  10.659  24.227   8.922
 2603POPC   D2A36760  10.571  24.243   8.476
 2603POPC   C3A36761  10.807  24.141   8.160
 2603POPC   C4A36762  10.712  24.308   7.789
 2603POPC   C1B36763  10.286  24.541   8.799
 2603POPC   C2B36764  10.637  24.738   8.581
 2603POPC   C3B36765  10.574  24.665   8.145
 2603POPC   C4B36766  10.389  24.693   7.744
 2604POPC   NC336767  10.272  32.502   9.500
 2604POPC   PO436768  10.959  32.233   9.583
 2604POPC   GL136769  10.618  32.232   9.208
 2604POPC   GL236770  10.729  31.941   8.988
 2604POPC   C1A36771  10.346  32.215   8.800
 2604POPC   D2A36772  10.137  32.219   8.374
 2604POPC   C3A36773  10.306  32.371   7.964
 2604POPC   C4A36774  10.506  32.375   7.557
 2604POPC   C1B36775  10.815  32.373   8.773
 2604POPC   C2B36776  10.627  32.438   8.389
 2604POPC   C3B36777  10.790  32.175   8.070
 2604POPC   C4B36778  10.984  32.239   7.676
 2605POPC   NC336779  43.542   4.451   9.532
 2605POPC   PO436780  42.936   4.275   9.675
 2605POPC   GL136781  43.112   4.337   9.215
 2605POPC   GL236782  43.432   4.498   9.049
 2605POPC   C1A36783  43.102   4.120   8.802
 2605POPC   D2A36784  43.253   4.224   8.383
 2605POPC   C3A36785  43.113   4.023   8.028
 2605POPC   C4A36786  42.949   4.167   7.686
 2605POPC   C1B36787  43.154   4.609   8.733
 2605POPC   C2B36788  43.157   4.751   8.348
 2605POPC   C3B36789  43.018   4.612   7.977
 2605POPC   C4B36790  43.136   4.804   7.624
 2606POPC   NC336791  35.508  22.956   9.697
 2606POPC   PO436792  35.860  22.383   9.581
 2606POPC   GL136793  35.687  22.736   9.241
 2606POPC   GL236794  35.495  23.097   9.217
 2606POPC   C1A36795  35.729  22.927   8.787
 2606POPC   D2A36796  35.788  22.990   8.335
 2606POPC   C3A36797  35.589  22.730   8.024
 2606POPC   C4A36798  35.524  22.767   7.577
 2606POPC   C1B36799  35.257  22.820   8.925
 2606POPC   C2B36800  35.294  22.840   8.457
 2606POPC   C3B36801  35.122  22.917   8.043
 2606POPC   C4B36802  35.045  22.518   7.824
 2607POPC   NC336803  28.834   1.454   9.591
 2607POPC   PO436804  28.472   0.885   9.510
 2607POPC   GL136805  28.405   1.124   9.140
 2607POPC   GL236806  28.619   0.882   9.003
 2607POPC   C1A36807  28.122   1.319   8.791
 2607POPC   D2A36808  28.138   1.577   8.383
 2607POPC   C3A36809  28.300   1.400   7.971
 2607POPC   C4A36810  28.589   1.592   7.663
 2607POPC   C1B36811  28.587   1.122   8.662
 2607POPC   C2B36812  28.300   1.037   8.364
 2607POPC   C3B36813  28.534   0.850   8.069
 2607POPC   C4B36814  28.567   1.037   7.696
 2608POPC   NC336815  36.661  26.070   9.805
 2608POPC   PO436816  37.085  25.893   9.316
 2608POPC   GL136817  36.942  25.949   8.958
 2608POPC   GL236818  36.674  26.215   9.001
 2608POPC   C1A36819  37.045  25.796   8.567
 2608POPC   D2A36820  37.039  26.115   8.289
 2608POPC   C3A36821  36.988  25.960   7.911
 2608POPC   C4A36822  36.765  26.235   7.641
 2608POPC   C1B36823  36.600  26.046   8.599
 2608POPC   C2B36824  36.525  26.094   8.178
 2608POPC   C3B36825  36.502  25.837   7.840
 2608POPC   C4B36826  36.420  25.721   7.433
 2609POPC   NC336827  32.305  25.749   9.538
 2609POPC   PO436828  32.404  26.282   9.503
 2609POPC   GL136829  32.353  26.273   9.090
 2609POPC   GL236830  32.570  26.493   8.998
 2609POPC   C1A36831  32.175  26.366   8.681
 2609POPC   D2A36832  32.177  26.108   8.323
 2609POPC   C3A36833  32.189  26.262   7.901
 2609POPC   C4A36834  32.233  26.049   7.497
 2609POPC   C1B36835  32.672  26.272   8.616
 2609POPC   C2B36836  32.687  26.110   8.191
 2609POPC   C3B36837  32.683  26.094   7.740
 2609POPC   C4B36838  32.763  26.073   7.284
 2610POPC   NC336839   3.462  39.660   9.608
 2610POPC   PO436840   3.796  40.222   9.476
 2610POPC   GL136841   3.453  40.053   9.245
 2610POPC   GL236842   3.499  39.703   9.116
 2610POPC   C1A36843   3.372  40.078   8.804
 2610POPC   D2A36844   3.617  40.134   8.441
 2610POPC   C3A36845   3.459  39.978   8.074
 2610POPC   C4A36846   3.571  40.097   7.688
 2610POPC   C1B36847   3.749  39.739   8.749
 2610POPC   C2B36848   3.855  39.682   8.316
 2610POPC   C3B36849   3.884  39.730   7.846
 2610POPC   C4B36850   3.815  39.726   7.366
 2611POPC   NC336851  37.365  14.644   9.277
 2611POPC   PO436852  36.855  14.329   9.583
 2611POPC   GL136853  36.700  14.233   9.161
 2611POPC   GL236854  36.853  14.551   9.074
 2611POPC   C1A36855  36.490  14.399   8.772
 2611POPC   D2A36856  36.662  14.386   8.350
 2611POPC   C3A36857  36.602  14.103   8.015
 2611POPC   C4A36858  36.664  14.313   7.612
 2611POPC   C1B36859  37.011  14.335   8.718
 2611POPC   C2B36860  37.222  14.407   8.309
 2611POPC   C3B36861  37.103  14.377   7.879
 2611POPC   C4B36862  37.111  14.513   7.417
 2612POPC   NC336863  19.350  26.479   9.439
 2612POPC   PO436864  19.979  26.628   9.487
 2612POPC   GL136865  19.883  26.843   9.172
 2612POPC   GL236866  19.541  26.884   9.172
 2612POPC   C1A36867  19.928  26.972   8.788
 2612POPC   D2A36868  20.059  26.786   8.434
 2612POPC   C3A36869  19.780  26.735   8.141
 2612POPC   C4A36870  19.841  26.744   7.720
 2612POPC   C1B36871  19.554  26.640   8.761
 2612POPC   C2B36872  19.319  26.677   8.371
 2612POPC   C3B36873  19.347  26.553   7.905
 2612POPC   C4B36874  19.397  26.811   7.528
 2613POPC   NC336875  40.530  28.881   9.785
 2613POPC   PO436876  40.797  28.405   9.437
 2613POPC   GL136877  40.913  28.256   9.068
 2613POPC   GL236878  40.658  28.505   8.947
 2613POPC   C1A36879  41.096  28.279   8.670
 2613POPC   D2A36880  40.829  28.360   8.334
 2613POPC   C3A36881  40.992  28.456   7.939
 2613POPC   C4A36882  41.013  28.390   7.524
 2613POPC   C1B36883  40.523  28.135   8.736
 2613POPC   C2B36884  40.437  28.002   8.313
 2613POPC   C3B36885  40.652  28.088   7.896
 2613POPC   C4B36886  40.623  28.071   7.405
 2614POPC   NC336887  44.161  25.100   9.405
 2614POPC   PO436888  43.675  25.520   9.439
 2614POPC   GL136889  43.887  25.360   9.037
 2614POPC   GL236890  44.018  25.014   8.946
 2614POPC   C1A36891  43.689  25.198   8.624
 2614POPC   D2A36892  43.814  25.417   8.269
 2614POPC   C3A36893  44.180  25.476   8.093
 2614POPC   C4A36894  43.950  25.453   7.717
 2614POPC   C1B36895  44.193  25.262   8.614
 2614POPC   C2B36896  44.283  25.009   8.261
 2614POPC   C3B36897  43.988  24.986   7.929
 2614POPC   C4B36898  44.077  25.026   7.458
 2615POPC   NC336899  35.491   3.559   9.454
 2615POPC   PO436900  34.931   4.004   9.516
 2615POPC   GL136901  35.048   3.653   9.205
 2615POPC   GL236902  35.039   3.270   9.057
 2615POPC   C1A36903  35.294   3.657   8.820
 2615POPC   D2A36904  35.504   3.856   8.500
 2615POPC   C3A36905  35.362   3.711   8.101
 2615POPC   C4A36906  35.651   3.654   7.794
 2615POPC   C1B36907  35.461   3.188   8.822
 2615POPC   C2B36908  35.622   3.361   8.419
 2615POPC   C3B36909  35.519   3.193   8.018
 2615POPC   C4B36910  35.166   3.185   7.771
 2616POPC   NC336911  27.175  43.431   9.458
 2616POPC   PO436912  27.685  43.191   9.603
 2616POPC   GL136913  27.636  43.025   9.211
 2616POPC   GL236914  27.885  43.263   9.108
 2616POPC   C1A36915  27.482  43.108   8.787
 2616POPC   D2A36916  27.253  43.162   8.398
 2616POPC   C3A36917  27.423  42.974   8.042
 2616POPC   C4A36918  27.464  43.271   7.747
 2616POPC   C1B36919  27.895  43.418   8.694
 2616POPC   C2B36920  27.782  43.219   8.323
 2616POPC   C3B36921  27.943  43.262   7.906
 2616POPC   C4B36922  27.842  43.638   7.640
 2617POPC   NC336923  43.567  26.246   9.333
 2617POPC   PO436924  42.951  26.210   9.451
 2617POPC   GL136925  43.040  25.929   9.095
 2617POPC   GL236926  42.897  25.581   9.029
 2617POPC   C1A36927  43.290  26.044   8.727
 2617POPC   D2A36928  43.554  26.064   8.376
 2617POPC   C3A36929  43.400  26.295   8.006
 2617POPC   C4A36930  43.091  26.108   7.686
 2617POPC   C1B36931  42.891  25.757   8.598
 2617POPC   C2B36932  42.955  25.778   8.126
 2617POPC   C3B36933  43.026  25.597   7.685
 2617POPC   C4B36934  43.038  25.734   7.238
 2618POPC   NC336935  14.574  37.593   9.553
 2618POPC   PO436936  14.925  37.231   9.178
 2618POPC   GL136937  14.581  37.526   9.052
 2618POPC   GL236938  14.209  37.537   9.149
 2618POPC   C1A36939  14.383  37.674   8.676
 2618POPC   D2A36940  14.380  37.696   8.272
 2618POPC   C3A36941  14.470  37.907   7.921
 2618POPC   C4A36942  14.531  37.708   7.524
 2618POPC   C1B36943  13.964  37.404   8.760
 2618POPC   C2B36944  14.010  37.297   8.324
 2618POPC   C3B36945  14.083  37.513   7.904
 2618POPC   C4B36946  14.037  37.490   7.422
 2619POPC   NC336947  32.465  36.390   9.431
 2619POPC   PO436948  32.031  35.975   9.492
 2619POPC   GL136949  32.214  36.033   9.107
 2619POPC   GL236950  32.543  35.935   9.137
 2619POPC   C1A36951  32.099  36.216   8.703
 2619POPC   D2A36952  31.851  36.262   8.332
 2619POPC   C3A36953  32.092  36.237   7.968
 2619POPC   C4A36954  32.320  36.088   7.635
 2619POPC   C1B36955  32.566  36.007   8.692
 2619POPC   C2B36956  32.551  36.092   8.263
 2619POPC   C3B36957  32.756  35.970   7.887
 2619POPC   C4B36958  32.707  35.832   7.456
 2620POPC   NC336959   9.159  18.998   9.462
 2620POPC   PO436960   8.784  19.539   9.603
 2620POPC   GL136961   8.888  19.526   9.162
 2620POPC   GL236962   9.193  19.382   9.095
 2620POPC   C1A36963   8.747  19.386   8.745
 2620POPC   D2A36964   8.876  19.151   8.395
 2620POPC   C3A36965   8.951  19.343   8.009
 2620POPC   C4A36966   8.789  19.030   7.763
 2620POPC   C1B36967   9.202  19.041   8.796
 2620POPC   C2B36968   9.308  18.779   8.446
 2620POPC   C3B36969   9.206  18.905   8.052
 2620POPC   C4B36970   9.157  18.695   7.685
 2621POPC   NC336971   6.946   1.877   9.511
 2621POPC   PO436972   6.248   2.104   9.656
 2621POPC   GL136973   6.424   2.058   9.170
 2621POPC   GL236974   6.792   2.097   9.089
 2621POPC   C1A36975   6.552   1.810   8.758
 2621POPC   D2A36976   6.527   1.958   8.331
 2621POPC   C3A36977   6.526   1.669   7.956
 2621POPC   C4A36978   6.415   1.865   7.592
 2621POPC   C1B36979   7.034   2.109   8.690
 2621POPC   C2B36980   7.023   1.950   8.250
 2621POPC   C3B36981   6.798   2.093   7.896
 2621POPC   C4B36982   6.869   2.041   7.429
 2622POPC   NC336983   4.827  18.409   9.700
 2622POPC   PO436984   5.144  17.922   9.746
 2622POPC   GL136985   5.093  18.217   9.310
 2622POPC   GL236986   4.862  18.511   9.199
 2622POPC   C1A36987   5.134  18.244   8.835
 2622POPC   D2A36988   5.272  18.350   8.426
 2622POPC   C3A36989   5.171  18.129   8.038
 2622POPC   C4A36990   5.154  18.329   7.638
 2622POPC   C1B36991   4.702  18.531   8.802
 2622POPC   C2B36992   4.835  18.608   8.394
 2622POPC   C3B36993   4.768  18.418   8.017
 2622POPC   C4B36994   4.495  18.416   7.690
 2623POPC   NC336995  19.675   3.208   9.904
 2623POPC   PO436996  19.734   3.760   9.463
 2623POPC   GL136997  20.030   3.633   9.106
 2623POPC   GL236998  19.913   3.294   8.984
 2623POPC   C1A36999  20.179   3.581   8.662
 2623POPC   D2A37000  20.066   3.883   8.348
 2623POPC   C3A37001  19.976   3.682   7.969
 2623POPC   C4A37002  20.004   3.247   7.800
 2623POPC   C1B37003  19.682   3.611   8.723
 2623POPC   C2B37004  19.387   3.628   8.432
 2623POPC   C3B37005  19.463   3.550   8.017
 2623POPC   C4B37006  19.640   3.547   7.592
 2624POPC   NC337007   6.478  44.454   9.716
 2624POPC   PO437008   6.879  44.901   9.490
 2624POPC   GL137009   6.683  44.647   9.179
 2624POPC   GL237010   6.618  44.971   9.006
 2624POPC   C1A37011   6.542  44.490   8.755
 2624POPC   D2A37012   6.301  44.609   8.354
 2624POPC   C3A37013   6.485  44.466   7.955
 2624POPC   C4A37014   6.851  44.205   7.936
 2624POPC   C1B37015   6.973  44.764   8.759
 2624POPC   C2B37016   6.884  44.569   8.343
 2624POPC   C3B37017   6.904  44.763   7.944
 2624POPC   C4B37018   6.549   0.036   7.816
 2625POPC   NC337019   8.411   8.612   9.443
 2625POPC   PO437020   8.049   9.113   9.640
 2625POPC   GL137021   8.195   9.051   9.204
 2625POPC   GL237022   8.543   9.134   9.286
 2625POPC   C1A37023   8.191   8.915   8.753
 2625POPC   D2A37024   8.458   8.798   8.393
 2625POPC   C3A37025   8.315   8.927   7.962
 2625POPC   C4A37026   7.884   8.880   7.824
 2625POPC   C1B37027   8.637   9.087   8.858
 2625POPC   C2B37028   8.701   9.248   8.448
 2625POPC   C3B37029   8.589   9.365   8.023
 2625POPC   C4B37030   8.486   9.342   7.593
 2626POPC   NC337031  14.262  19.314   9.789
 2626POPC   PO437032  14.438  19.908   9.438
 2626POPC   GL137033  14.653  19.905   9.092
 2626POPC   GL237034  14.716  20.254   9.101
 2626POPC   C1A37035  14.614  19.731   8.688
 2626POPC   D2A37036  14.475  19.812   8.275
 2626POPC   C3A37037  14.094  19.688   8.041
 2626POPC   C4A37038  14.066  19.396   7.690
 2626POPC   C1B37039  14.586  20.260   8.671
 2626POPC   C2B37040  14.621  20.309   8.229
 2626POPC   C3B37041  14.509  20.068   7.847
 2626POPC   C4B37042  14.523  19.638   7.754
 2627POPC   NC337043  22.606  14.160   9.669
 2627POPC   PO437044  22.531  13.505   9.854
 2627POPC   GL137045  22.499  13.547   9.367
 2627POPC   GL237046  22.659  13.844   9.242
 2627POPC   C1A37047  22.532  13.432   8.880
 2627POPC   D2A37048  22.673  13.608   8.438
 2627POPC   C3A37049  22.706  13.441   7.988
 2627POPC   C4A37050  22.547  13.065   7.751
 2627POPC   C1B37051  22.962  13.718   8.895
 2627POPC   C2B37052  23.186  13.561   8.508
 2627POPC   C3B37053  23.228  13.457   8.055
 2627POPC   C4B37054  23.263  13.327   7.608
 2628POPC   NC337055  13.678  12.994   9.527
 2628POPC   PO437056  13.403  12.365   9.695
 2628POPC   GL137057  13.412  12.630   9.276
 2628POPC   GL237058  13.699  12.626   9.116
 2628POPC   C1A37059  13.419  12.985   8.878
 2628POPC   D2A37060  13.353  12.890   8.420
 2628POPC   C3A37061  13.424  13.193   8.054
 2628POPC   C4A37062  13.826  13.259   7.818
 2628POPC   C1B37063  13.308  12.497   8.805
 2628POPC   C2B37064  13.293  12.359   8.394
 2628POPC   C3B37065  13.624  12.549   8.114
 2628POPC   C4B37066  13.568  12.822   7.743
 2629POPC   NC337067  20.241  28.676   9.404
 2629POPC   PO437068  20.514  28.135   9.745
 2629POPC   GL137069  20.633  28.080   9.286
 2629POPC   GL237070  20.466  28.337   9.091
 2629POPC   C1A37071  20.768  28.025   8.820
 2629POPC   D2A37072  20.842  28.282   8.448
 2629POPC   C3A37073  20.610  28.332   8.089
 2629POPC   C4A37074  20.743  28.032   7.804
 2629POPC   C1B37075  20.488  28.581   8.724
 2629POPC   C2B37076  20.638  28.772   8.392
 2629POPC   C3B37077  20.495  28.894   8.048
 2629POPC   C4B37078  20.382  28.809   7.679
 2630POPC   NC337079  12.638  11.638   9.453
 2630POPC   PO437080  12.668  10.956   9.476
 2630POPC   GL137081  12.895  11.034   9.117
 2630POPC   GL237082  12.949  11.364   9.162
 2630POPC   C1A37083  12.649  11.244   8.770
 2630POPC   D2A37084  12.593  11.561   8.449
 2630POPC   C3A37085  12.653  11.319   8.033
 2630POPC   C4A37086  12.887  11.304   7.632
 2630POPC   C1B37087  13.072  11.541   8.778
 2630POPC   C2B37088  13.028  11.304   8.406
 2630POPC   C3B37089  13.181  11.387   8.028
 2630POPC   C4B37090  13.419  11.238   7.666
 2631POPC   NC337091  11.619  26.123   9.462
 2631POPC   PO437092  11.946  26.586   9.752
 2631POPC   GL137093  11.946  26.368   9.204
 2631POPC   GL237094  11.586  26.329   9.005
 2631POPC   C1A37095  12.007  26.082   8.840
 2631POPC   D2A37096  12.172  26.203   8.441
 2631POPC   C3A37097  12.019  26.048   8.069
 2631POPC   C4A37098  12.076  25.804   7.718
 2631POPC   C1B37099  11.753  26.490   8.651
 2631POPC   C2B37100  11.806  26.507   8.232
 2631POPC   C3B37101  11.611  26.324   7.942
 2631POPC   C4B37102  11.869  26.275   7.624
 2632POPC   NC337103  18.424  44.802   9.824
 2632POPC   PO437104  17.956  44.431   9.558
 2632POPC   GL137105  18.312  44.609   9.291
 2632POPC   GL237106  18.467  44.937   9.324
 2632POPC   C1A37107  18.440  44.542   8.850
 2632POPC   D2A37108  18.272  44.619   8.413
 2632POPC   C3A37109  18.292  44.431   7.973
 2632POPC   C4A37110  18.247  44.725   7.609
 2632POPC   C1B37111  18.493   0.075   8.896
 2632POPC   C2B37112  18.471   0.106   8.452
 2632POPC   C3B37113  18.490  44.921   8.039
 2632POPC   C4B37114  18.634   0.045   7.631
 2633POPC   NC337115  15.734  19.662   9.600
 2633POPC   PO437116  15.769  20.286   9.634
 2633POPC   GL137117  15.658  20.084   9.261
 2633POPC   GL237118  15.988  19.975   9.210
 2633POPC   C1A37119  15.613  19.756   8.938
 2633POPC   D2A37120  15.918  19.665   8.622
 2633POPC   C3A37121  15.834  19.640   8.174
 2633POPC   C4A37122  16.088  19.722   7.825
 2633POPC   C1B37123  16.375  20.146   9.015
 2633POPC   C2B37124  16.426  20.209   8.557
 2633POPC   C3B37125  16.363  20.065   8.118
 2633POPC   C4B37126  16.614  19.755   7.851
 2634POPC   NC337127  14.023  35.318   9.396
 2634POPC   PO437128  13.405  35.533   9.534
 2634POPC   GL137129  13.586  35.602   9.116
 2634POPC   GL237130  13.688  35.267   9.030
 2634POPC   C1A37131  13.746  35.556   8.654
 2634POPC   D2A37132  13.876  35.712   8.266
 2634POPC   C3A37133  13.744  35.519   7.919
 2634POPC   C4A37134  13.823  35.092   7.844
 2634POPC   C1B37135  13.380  35.203   8.688
 2634POPC   C2B37136  13.549  35.152   8.309
 2634POPC   C3B37137  13.332  35.210   7.983
 2634POPC   C4B37138  13.034  34.962   7.846
 2635POPC   NC337139  19.465  27.268   9.551
 2635POPC   PO437140  19.902  27.870   9.605
 2635POPC   GL137141  19.903  27.681   9.199
 2635POPC   GL237142  19.821  27.350   9.204
 2635POPC   C1A37143  20.007  27.494   8.763
 2635POPC   D2A37144  19.992  27.676   8.393
 2635POPC   C3A37145  20.007  27.480   8.015
 2635POPC   C4A37146  19.854  27.761   7.675
 2635POPC   C1B37147  19.550  27.281   8.837
 2635POPC   C2B37148  19.705  27.209   8.395
 2635POPC   C3B37149  19.513  27.134   8.003
 2635POPC   C4B37150  19.703  27.240   7.647
 2636POPC   NC337151  12.643  25.736   9.396
 2636POPC   PO437152  12.971  25.196   9.473
 2636POPC   GL137153  13.094  25.444   9.141
 2636POPC   GL237154  12.839  25.209   8.963
 2636POPC   C1A37155  12.993  25.669   8.765
 2636POPC   D2A37156  12.677  25.444   8.542
 2636POPC   C3A37157  12.700  25.410   8.130
 2636POPC   C4A37158  12.933  25.295   7.766
 2636POPC   C1B37159  12.494  24.904   8.776
 2636POPC   C2B37160  12.433  24.690   8.348
 2636POPC   C3B37161  12.518  24.947   7.954
 2636POPC   C4B37162  12.613  25.001   7.489
 2637POPC   NC337163   4.801   9.388   9.463
 2637POPC   PO437164   5.102  10.035   9.600
 2637POPC   GL137165   5.076   9.807   9.218
 2637POPC   GL237166   5.364   9.592   9.150
 2637POPC   C1A37167   5.124   9.810   8.764
 2637POPC   D2A37168   4.893   9.797   8.386
 2637POPC   C3A37169   5.100   9.804   8.007
 2637POPC   C4A37170   4.976   9.809   7.581
 2637POPC   C1B37171   5.440   9.384   8.795
 2637POPC   C2B37172   5.324   9.503   8.392
 2637POPC   C3B37173   5.423   9.371   8.012
 2637POPC   C4B37174   5.426   9.583   7.678
 2638POPC   NC337175  14.202  28.231   9.600
 2638POPC   PO437176  14.786  28.147   9.264
 2638POPC   GL137177  14.458  28.413   9.176
 2638POPC   GL237178  14.114  28.269   9.111
 2638POPC   C1A37179  14.340  28.595   8.797
 2638POPC   D2A37180  14.267  28.443   8.384
 2638POPC   C3A37181  14.524  28.610   8.063
 2638POPC   C4A37182  14.801  28.661   7.705
 2638POPC   C1B37183  14.181  28.055   8.722
 2638POPC   C2B37184  14.084  27.972   8.276
 2638POPC   C3B37185  14.256  28.141   7.891
 2638POPC   C4B37186  14.138  28.040   7.473
 2639POPC   NC337187   7.390  29.010   9.569
 2639POPC   PO437188   7.427  29.621   9.554
 2639POPC   GL137189   7.268  29.388   9.170
 2639POPC   GL237190   7.167  29.025   9.107
 2639POPC   C1A37191   7.205  29.321   8.701
 2639POPC   D2A37192   7.013  29.222   8.308
 2639POPC   C3A37193   7.292  29.274   7.946
 2639POPC   C4A37194   7.598  29.221   7.598
 2639POPC   C1B37195   7.224  28.805   8.704
 2639POPC   C2B37196   7.407  28.898   8.313
 2639POPC   C3B37197   7.303  28.754   7.892
 2639POPC   C4B37198   7.088  28.450   7.599
 2640POPC   NC337199  22.515  32.631   9.480
 2640POPC   PO437200  22.159  33.290   9.319
 2640POPC   GL137201  22.255  32.914   9.140
 2640POPC   GL237202  21.907  32.806   9.118
 2640POPC   C1A37203  22.428  32.838   8.755
 2640POPC   D2A37204  22.306  32.733   8.332
 2640POPC   C3A37205  22.477  32.864   7.930
 2640POPC   C4A37206  22.409  33.259   7.667
 2640POPC   C1B37207  21.968  33.067   8.732
 2640POPC   C2B37208  22.074  33.257   8.335
 2640POPC   C3B37209  22.011  33.038   7.946
 2640POPC   C4B37210  22.051  32.565   7.883
 2641POPC   NC337211   7.581  42.843   9.501
 2641POPC   PO437212   6.979  43.137   9.429
 2641POPC   GL137213   7.231  43.119   9.018
 2641POPC   GL237214   7.613  43.147   9.066
 2641POPC   C1A37215   7.377  43.231   8.573
 2641POPC   D2A37216   7.364  43.049   8.148
 2641POPC   C3A37217   7.135  43.324   7.856
 2641POPC   C4A37218   6.881  43.452   7.493
 2641POPC   C1B37219   7.878  43.182   8.699
 2641POPC   C2B37220   7.881  43.346   8.296
 2641POPC   C3B37221   7.650  43.416   7.918
 2641POPC   C4B37222   7.561  43.117   7.641
 2642POPC   NC337223  32.632  32.661   9.519
 2642POPC   PO437224  33.251  32.272   9.609
 2642POPC   GL137225  33.063  32.510   9.214
 2642POPC   GL237226  33.059  32.229   9.063
 2642POPC   C1A37227  33.182  32.593   8.749
 2642POPC   D2A37228  33.018  32.399   8.388
 2642POPC   C3A37229  33.149  32.418   7.965
 2642POPC   C4A37230  32.837  32.415   7.620
 2642POPC   C1B37231  32.727  32.350   8.788
 2642POPC   C2B37232  32.534  32.111   8.501
 2642POPC   C3B37233  32.678  32.161   8.111
 2642POPC   C4B37234  32.865  31.928   7.831
 2643POPC   NC337235  38.509  11.083   9.472
 2643POPC   PO437236  38.827  11.579   9.062
 2643POPC   GL137237  38.578  11.269   8.995
 2643POPC   GL237238  38.258  11.249   9.065
 2643POPC   C1A37239  38.681  11.025   8.682
 2643POPC   D2A37240  38.815  10.927   8.322
 2643POPC   C3A37241  38.746  11.154   7.959
 2643POPC   C4A37242  38.511  10.929   7.623
 2643POPC   C1B37243  38.185  11.157   8.645
 2643POPC   C2B37244  38.322  11.066   8.253
 2643POPC   C3B37245  38.242  11.244   7.903
 2643POPC   C4B37246  37.877  11.302   7.736
 2644POPC   NC337247  25.759  25.366   9.350
 2644POPC   PO437248  26.203  25.027   9.408
 2644POPC   GL137249  26.139  25.263   9.026
 2644POPC   GL237250  26.256  25.587   9.173
 2644POPC   C1A37251  25.812  25.269   8.655
 2644POPC   D2A37252  25.649  25.310   8.188
 2644POPC   C3A37253  25.813  25.078   7.801
 2644POPC   C4A37254  25.987  24.835   7.426
 2644POPC   C1B37255  26.127  25.668   8.730
 2644POPC   C2B37256  26.104  25.523   8.307
 2644POPC   C3B37257  26.042  25.526   7.869
 2644POPC   C4B37258  26.005  25.797   7.536
 2645POPC   NC337259   7.657  30.744   9.549
 2645POPC   PO437260   7.195  30.358   9.219
 2645POPC   GL137261   7.464  30.700   9.062
 2645POPC   GL237262   7.417  31.026   9.197
 2645POPC   C1A37263   7.511  30.759   8.623
 2645POPC   D2A37264   7.388  30.460   8.362
 2645POPC   C3A37265   7.227  30.541   7.981
 2645POPC   C4A37266   7.411  30.698   7.641
 2645POPC   C1B37267   7.779  31.093   8.875
 2645POPC   C2B37268   7.888  31.050   8.437
 2645POPC   C3B37269   7.641  30.876   8.108
 2645POPC   C4B37270   7.563  31.152   7.773
 2646POPC   NC337271  36.340  10.080   9.870
 2646POPC   PO437272  36.205   9.807   9.245
 2646POPC   GL137273  36.153   9.690   8.879
 2646POPC   GL237274  35.832   9.505   8.964
 2646POPC   C1A37275  36.220   9.833   8.446
 2646POPC   D2A37276  36.353   9.672   8.059
 2646POPC   C3A37277  36.275   9.831   7.663
 2646POPC   C4A37278  36.323   9.626   7.245
 2646POPC   C1B37279  35.967   9.367   8.553
 2646POPC   C2B37280  35.682   9.511   8.243
 2646POPC   C3B37281  35.818   9.785   7.914
 2646POPC   C4B37282  35.840   9.658   7.466
 2647POPC   NC337283   9.515  41.114   9.511
 2647POPC   PO437284   9.804  40.526   9.704
 2647POPC   GL137285   9.801  40.660   9.250
 2647POPC   GL237286   9.812  40.982   9.130
 2647POPC   C1A37287   9.694  40.605   8.788
 2647POPC   D2A37288   9.842  40.565   8.365
 2647POPC   C3A37289   9.611  40.573   7.978
 2647POPC   C4A37290   9.554  40.379   7.544
 2647POPC   C1B37291  10.069  41.002   8.800
 2647POPC   C2B37292   9.971  41.091   8.395
 2647POPC   C3B37293   9.985  40.957   7.997
 2647POPC   C4B37294   9.740  40.907   7.629
 2648POPC   NC337295  11.816  18.539   9.661
 2648POPC   PO437296  11.634  17.887   9.504
 2648POPC   GL137297  11.861  18.184   9.205
 2648POPC   GL237298  12.029  18.536   9.187
 2648POPC   C1A37299  11.901  18.266   8.769
 2648POPC   D2A37300  12.201  18.247   8.431
 2648POPC   C3A37301  12.016  18.213   8.002
 2648POPC   C4A37302  12.033  18.370   7.584
 2648POPC   C1B37303  12.240  18.683   8.798
 2648POPC   C2B37304  12.463  18.699   8.442
 2648POPC   C3B37305  12.421  18.522   8.056
 2648POPC   C4B37306  12.396  18.693   7.680
 2649POPC   NC337307  43.357  41.294   9.485
 2649POPC   PO437308  42.720  41.684   9.577
 2649POPC   GL137309  43.053  41.627   9.196
 2649POPC   GL237310  43.115  41.317   9.038
 2649POPC   C1A37311  43.283  41.693   8.782
 2649POPC   D2A37312  43.197  41.867   8.413
 2649POPC   C3A37313  43.282  41.674   8.001
 2649POPC   C4A37314  43.250  41.843   7.593
 2649POPC   C1B37315  42.898  41.374   8.666
 2649POPC   C2B37316  42.834  41.549   8.262
 2649POPC   C3B37317  42.864  41.312   7.876
 2649POPC   C4B37318  42.815  41.338   7.414
 2650POPC   NC337319  34.227  11.663   9.549
 2650POPC   PO437320  34.727  11.157   9.484
 2650POPC   GL137321  34.478  11.210   9.170
 2650POPC   GL237322  34.557  11.558   9.161
 2650POPC   C1A37323  34.461  11.255   8.739
 2650POPC   D2A37324  34.678  11.293   8.371
 2650POPC   C3A37325  34.408  11.358   7.997
 2650POPC   C4A37326  34.669  11.311   7.621
 2650POPC   C1B37327  34.838  11.629   8.797
 2650POPC   C2B37328  34.819  11.886   8.421
 2650POPC   C3B37329  34.820  11.664   8.029
 2650POPC   C4B37330  35.008  11.661   7.641
 2651POPC   NC337331  33.992  13.736   9.296
 2651POPC   PO437332  34.446  13.255   9.508
 2651POPC   GL137333  33.987  13.183   9.288
 2651POPC   GL237334  33.616  13.289   9.265
 2651POPC   C1A37335  33.908  13.249   8.836
 2651POPC   D2A37336  33.965  13.685   8.613
 2651POPC   C3A37337  33.997  13.719   8.153
 2651POPC   C4A37338  34.284  13.564   7.832
 2651POPC   C1B37339  33.511  13.579   8.870
 2651POPC   C2B37340  33.466  13.500   8.436
 2651POPC   C3B37341  33.510  13.626   7.993
 2651POPC   C4B37342  33.820  13.531   7.666
 2652POPC   NC337343  17.461  22.662   9.591
 2652POPC   PO437344  17.467  22.038   9.593
 2652POPC   GL137345  17.610  22.059   9.175
 2652POPC   GL237346  17.550  22.388   9.185
 2652POPC   C1A37347  17.631  22.078   8.742
 2652POPC   D2A37348  17.791  21.852   8.380
 2652POPC   C3A37349  17.635  22.052   8.010
 2652POPC   C4A37350  17.339  21.925   7.737
 2652POPC   C1B37351  17.251  22.554   8.920
 2652POPC   C2B37352  17.124  22.412   8.525
 2652POPC   C3B37353  17.105  22.399   8.076
 2652POPC   C4B37354  17.406  22.434   7.732
 2653POPC   NC337355  40.534   8.883   9.584
 2653POPC   PO437356  41.156   8.837   9.482
 2653POPC   GL137357  40.883   8.927   9.136
 2653POPC   GL237358  40.521   9.015   9.065
 2653POPC   C1A37359  40.799   8.749   8.734
 2653POPC   D2A37360  40.583   8.733   8.375
 2653POPC   C3A37361  40.840   8.653   8.031
 2653POPC   C4A37362  40.920   8.832   7.644
 2653POPC   C1B37363  40.760   9.273   8.760
 2653POPC   C2B37364  40.923   9.141   8.352
 2653POPC   C3B37365  40.726   9.161   7.977
 2653POPC   C4B37366  40.747   9.314   7.558
 2654POPC   NC337367  44.253  30.790   9.434
 2654POPC   PO437368  44.900  31.061   9.467
 2654POPC   GL137369  44.671  30.930   9.172
 2654POPC   GL237370  44.736  30.589   9.182
 2654POPC   C1A37371  44.492  30.845   8.787
 2654POPC   D2A37372  44.358  30.711   8.385
 2654POPC   C3A37373  44.544  30.820   7.995
 2654POPC   C4A37374  44.414  31.112   7.692
 2654POPC   C1B37375  44.643  30.361   8.803
 2654POPC   C2B37376  44.642  30.255   8.369
 2654POPC   C3B37377  44.963  30.289   8.083
 2654POPC   C4B37378  44.840  30.474   7.719
 2655POPC   NC337379  10.107   6.394   9.452
 2655POPC   PO437380   9.677   6.943   9.569
 2655POPC   GL137381   9.954   6.820   9.209
 2655POPC   GL237382   9.897   6.504   9.011
 2655POPC   C1A37383  10.058   6.898   8.767
 2655POPC   D2A37384   9.956   6.590   8.465
 2655POPC   C3A37385   9.845   6.726   8.053
 2655POPC   C4A37386   9.747   6.844   7.626
 2655POPC   C1B37387   9.924   6.160   8.777
 2655POPC   C2B37388  10.088   6.076   8.442
 2655POPC   C3B37389  10.088   6.262   8.055
 2655POPC   C4B37390   9.839   6.346   7.704
 2656POPC   NC337391  29.766  15.067   9.226
 2656POPC   PO437392  29.075  14.986   9.470
 2656POPC   GL137393  29.131  15.331   9.167
 2656POPC   GL237394  28.834  15.510   9.047
 2656POPC   C1A37395  29.272  15.325   8.759
 2656POPC   D2A37396  29.315  14.932   8.522
 2656POPC   C3A37397  29.446  14.977   8.100
 2656POPC   C4A37398  29.348  15.157   7.693
 2656POPC   C1B37399  28.777  15.247   8.652
 2656POPC   C2B37400  28.951  15.185   8.219
 2656POPC   C3B37401  28.848  15.281   7.773
 2656POPC   C4B37402  28.641  15.038   7.443
 2657POPC   NC337403   5.603  37.954   9.608
 2657POPC   PO437404   5.952  37.368   9.567
 2657POPC   GL137405   5.785  37.477   9.165
 2657POPC   GL237406   5.791  37.843   9.138
 2657POPC   C1A37407   5.841  37.560   8.723
 2657POPC   D2A37408   5.652  37.693   8.344
 2657POPC   C3A37409   5.925  37.519   8.065
 2657POPC   C4A37410   5.883  37.538   7.663
 2657POPC   C1B37411   6.026  38.039   8.779
 2657POPC   C2B37412   6.104  37.948   8.323
 2657POPC   C3B37413   5.878  38.024   7.922
 2657POPC   C4B37414   5.855  38.065   7.454
 2658POPC   NC337415  36.863  32.554   9.444
 2658POPC   PO437416  36.994  31.892   9.528
 2658POPC   GL137417  36.980  32.140   9.141
 2658POPC   GL237418  37.226  32.424   9.089
 2658POPC   C1A37419  36.990  32.197   8.704
 2658POPC   D2A37420  36.784  32.350   8.359
 2658POPC   C3A37421  36.870  32.121   7.996
 2658POPC   C4A37422  36.981  32.430   7.783
 2658POPC   C1B37423  37.311  32.583   8.655
 2658POPC   C2B37424  37.286  32.333   8.273
 2658POPC   C3B37425  37.445  32.252   7.880
 2658POPC   C4B37426  37.299  32.263   7.455
 2659POPC   NC337427   3.892  18.694   9.489
 2659POPC   PO437428   3.525  18.197   9.610
 2659POPC   GL137429   3.700  18.241   9.230
 2659POPC   GL237430   3.526  18.539   9.141
 2659POPC   C1A37431   3.813  18.115   8.824
 2659POPC   D2A37432   3.837  18.318   8.428
 2659POPC   C3A37433   3.548  18.217   8.095
 2659POPC   C4A37434   3.700  18.141   7.690
 2659POPC   C1B37435   3.454  18.489   8.721
 2659POPC   C2B37436   3.496  18.683   8.299
 2659POPC   C3B37437   3.692  18.633   7.864
 2659POPC   C4B37438   3.596  18.546   7.404
 2660POPC   NC337439  36.892   4.623   9.579
 2660POPC   PO437440  37.407   5.061   9.531
 2660POPC   GL137441  37.021   5.016   9.234
 2660POPC   GL237442  36.865   5.329   9.079
 2660POPC   C1A37443  36.889   4.873   8.827
 2660POPC   D2A37444  36.674   4.821   8.445
 2660POPC   C3A37445  36.930   4.843   8.070
 2660POPC   C4A37446  36.691   4.661   7.757
 2660POPC   C1B37447  36.642   5.313   8.669
 2660POPC   C2B37448  36.701   5.283   8.196
 2660POPC   C3B37449  36.735   5.179   7.730
 2660POPC   C4B37450  36.493   5.367   7.407
 2661POPC   NC337451   4.183  40.478   9.373
 2661POPC   PO437452   4.544  39.996   9.706
 2661POPC   GL137453   4.554  39.878   9.287
 2661POPC   GL237454   4.616  39.519   9.272
 2661POPC   C1A37455   4.280  39.853   8.912
 2661POPC   D2A37456   4.121  40.106   8.564
 2661POPC   C3A37457   4.200  40.018   8.121
 2661POPC   C4A37458   4.064  40.212   7.711
 2661POPC   C1B37459   4.771  39.702   8.867
 2661POPC   C2B37460   4.552  39.803   8.471
 2661POPC   C3B37461   4.641  39.734   8.025
 2661POPC   C4B37462   4.370  39.791   7.676
 2662POPC   NC337463  14.266   7.888   9.395
 2662POPC   PO437464  14.521   8.459   9.633
 2662POPC   GL137465  14.516   8.323   9.215
 2662POPC   GL237466  14.716   8.052   9.123
 2662POPC   C1A37467  14.530   8.500   8.833
 2662POPC   D2A37468  14.652   8.577   8.435
 2662POPC   C3A37469  14.413   8.386   8.127
 2662POPC   C4A37470  14.354   8.438   7.701
 2662POPC   C1B37471  14.508   7.908   8.775
 2662POPC   C2B37472  14.406   7.806   8.358
 2662POPC   C3B37473  14.530   7.838   7.950
 2662POPC   C4B37474  14.200   7.938   7.711
 2663POPC   NC337475  31.479   5.695   9.547
 2663POPC   PO437476  31.645   6.337   9.489
 2663POPC   GL137477  31.374   6.081   9.184
 2663POPC   GL237478  31.601   5.820   9.086
 2663POPC   C1A37479  31.197   5.829   8.789
 2663POPC   D2A37480  31.311   5.615   8.378
 2663POPC   C3A37481  31.140   5.810   7.984
 2663POPC   C4A37482  31.282   5.958   7.577
 2663POPC   C1B37483  31.692   5.957   8.705
 2663POPC   C2B37484  31.817   5.801   8.314
 2663POPC   C3B37485  31.722   5.818   7.876
 2663POPC   C4B37486  31.823   5.746   7.438
 2664POPC   NC337487  31.329  31.705   9.492
 2664POPC   PO437488  31.625  31.038   9.513
 2664POPC   GL137489  31.517  31.346   9.197
 2664POPC   GL237490  31.806  31.539   9.027
 2664POPC   C1A37491  31.310  31.587   8.843
 2664POPC   D2A37492  31.496  31.798   8.486
 2664POPC   C3A37493  31.531  31.549   8.138
 2664POPC   C4A37494  31.405  31.535   7.731
 2664POPC   C1B37495  31.921  31.313   8.636
 2664POPC   C2B37496  31.744  31.062   8.303
 2664POPC   C3B37497  31.756  31.172   7.878
 2664POPC   C4B37498  31.924  31.603   7.766
 2665POPC   NC337499  24.806  31.900   9.486
 2665POPC   PO437500  25.531  31.889   9.551
 2665POPC   GL137501  25.231  32.131   9.310
 2665POPC   GL237502  25.394  32.374   9.144
 2665POPC   C1A37503  25.030  32.076   8.893
 2665POPC   D2A37504  25.238  32.034   8.489
 2665POPC   C3A37505  25.053  32.285   8.133
 2665POPC   C4A37506  24.882  32.085   7.754
 2665POPC   C1B37507  25.243  32.520   8.785
 2665POPC   C2B37508  25.453  32.503   8.451
 2665POPC   C3B37509  25.574  32.264   8.135
 2665POPC   C4B37510  25.412  32.387   7.749
 2666POPC   NC337511  36.272  16.471   9.483
 2666POPC   PO437512  35.829  17.026   9.453
 2666POPC   GL137513  36.126  16.858   9.173
 2666POPC   GL237514  35.903  16.594   9.110
 2666POPC   C1A37515  36.385  16.668   8.859
 2666POPC   D2A37516  36.284  16.730   8.465
 2666POPC   C3A37517  36.384  16.543   8.100
 2666POPC   C4A37518  36.456  16.837   7.754
 2666POPC   C1B37519  35.837  16.824   8.714
 2666POPC   C2B37520  35.843  16.842   8.255
 2666POPC   C3B37521  35.957  16.685   7.848
 2666POPC   C4B37522  35.895  16.402   7.491
 2667POPC   NC337523  12.189  35.266   9.461
 2667POPC   PO437524  11.520  35.007   9.520
 2667POPC   GL137525  11.731  35.254   9.140
 2667POPC   GL237526  11.854  35.619   9.137
 2667POPC   C1A37527  11.887  35.380   8.685
 2667POPC   D2A37528  12.144  35.240   8.311
 2667POPC   C3A37529  11.947  35.181   7.892
 2667POPC   C4A37530  12.110  34.988   7.505
 2667POPC   C1B37531  12.274  35.699   8.859
 2667POPC   C2B37532  12.495  35.643   8.443
 2667POPC   C3B37533  12.334  35.632   8.032
 2667POPC   C4B37534  11.967  35.672   7.789
 2668POPC   NC337535  12.425  19.242   9.614
 2668POPC   PO437536  12.935  18.790   9.511
 2668POPC   GL137537  12.760  19.052   9.224
 2668POPC   GL237538  13.043  19.276   9.207
 2668POPC   C1A37539  12.761  18.926   8.810
 2668POPC   D2A37540  12.828  19.072   8.419
 2668POPC   C3A37541  12.820  18.820   8.074
 2668POPC   C4A37542  12.744  19.046   7.738
 2668POPC   C1B37543  13.238  19.207   8.796
 2668POPC   C2B37544  13.186  19.432   8.420
 2668POPC   C3B37545  12.969  19.405   8.030
 2668POPC   C4B37546  13.191  19.322   7.672
 2669POPC   NC337547  38.915  28.582   9.640
 2669POPC   PO437548  39.207  28.001   9.502
 2669POPC   GL137549  39.196  28.227   9.098
 2669POPC   GL237550  39.095  28.574   9.083
 2669POPC   C1A37551  39.291  28.353   8.654
 2669POPC   D2A37552  39.272  28.301   8.225
 2669POPC   C3A37553  38.975  28.090   7.951
 2669POPC   C4A37554  39.163  28.137   7.556
 2669POPC   C1B37555  38.893  28.686   8.692
 2669POPC   C2B37556  39.031  28.781   8.263
 2669POPC   C3B37557  39.058  28.575   7.842
 2669POPC   C4B37558  38.964  28.738   7.407
 2670POPC   NC337559   7.604  14.979   9.500
 2670POPC   PO437560   7.411  15.601   9.704
 2670POPC   GL137561   7.346  15.551   9.238
 2670POPC   GL237562   7.440  15.220   9.086
 2670POPC   C1A37563   7.212  15.554   8.772
 2670POPC   D2A37564   6.984  15.285   8.473
 2670POPC   C3A37565   7.195  15.274   8.081
 2670POPC   C4A37566   7.458  15.619   7.963
 2670POPC   C1B37567   7.493  15.086   8.666
 2670POPC   C2B37568   7.742  15.205   8.292
 2670POPC   C3B37569   7.659  15.132   7.873
 2670POPC   C4B37570   7.453  14.814   7.626
 2671POPC   NC337571   0.828  42.449   9.453
 2671POPC   PO437572   0.185  42.130   9.516
 2671POPC   GL137573   0.474  42.197   9.168
 2671POPC   GL237574   0.482  42.540   9.061
 2671POPC   C1A37575   0.600  42.137   8.741
 2671POPC   D2A37576   0.502  42.261   8.312
 2671POPC   C3A37577   0.615  42.095   7.901
 2671POPC   C4A37578   0.585  42.093   7.412
 2671POPC   C1B37579   0.696  42.731   8.685
 2671POPC   C2B37580   0.756  42.704   8.204
 2671POPC   C3B37581   0.582  42.588   7.785
 2671POPC   C4B37582   0.673  42.624   7.329
 2672POPC   NC337583  12.779   8.663   9.447
 2672POPC   PO437584  13.064   8.038   9.524
 2672POPC   GL137585  12.930   8.290   9.118
 2672POPC   GL237586  13.142   8.354   8.822
 2672POPC   C1A37587  12.625   8.365   8.757
 2672POPC   D2A37588  12.430   8.015   8.477
 2672POPC   C3A37589  12.540   8.063   8.063
 2672POPC   C4A37590  12.661   8.420   7.837
 2672POPC   C1B37591  12.949   7.993   8.603
 2672POPC   C2B37592  12.926   7.775   8.198
 2672POPC   C3B37593  13.037   8.062   7.824
 2672POPC   C4B37594  13.125   8.290   7.391
 2673POPC   NC337595  35.069  20.544   9.705
 2673POPC   PO437596  35.664  20.620   9.347
 2673POPC   GL137597  35.648  20.669   8.952
 2673POPC   GL237598  35.447  20.955   8.927
 2673POPC   C1A37599  35.511  20.625   8.546
 2673POPC   D2A37600  35.382  20.333   8.270
 2673POPC   C3A37601  35.332  20.455   7.867
 2673POPC   C4A37602  35.597  20.724   7.707
 2673POPC   C1B37603  35.083  20.858   8.672
 2673POPC   C2B37604  35.059  20.728   8.280
 2673POPC   C3B37605  35.194  20.939   7.963
 2673POPC   C4B37606  35.113  20.857   7.576
 2674POPC   NC337607   7.709  17.491   9.477
 2674POPC   PO437608   8.304  17.626   9.642
 2674POPC   GL137609   8.165  17.559   9.217
 2674POPC   GL237610   7.929  17.803   9.090
 2674POPC   C1A37611   8.229  17.352   8.806
 2674POPC   D2A37612   8.119  17.482   8.385
 2674POPC   C3A37613   7.925  17.194   8.108
 2674POPC   C4A37614   7.836  17.273   7.684
 2674POPC   C1B37615   8.331  17.864   8.831
 2674POPC   C2B37616   8.523  17.795   8.408
 2674POPC   C3B37617   8.439  17.648   7.981
 2674POPC   C4B37618   8.595  17.715   7.554
 2675POPC   NC337619  17.921  20.787   9.561
 2675POPC   PO437620  17.498  20.329   9.692
 2675POPC   GL137621  17.587  20.454   9.255
 2675POPC   GL237622  17.654  20.780   9.120
 2675POPC   C1A37623  17.423  20.365   8.824
 2675POPC   D2A37624  17.251  20.548   8.447
 2675POPC   C3A37625  17.436  20.394   8.067
 2675POPC   C4A37626  17.552  20.574   7.675
 2675POPC   C1B37627  17.450  20.932   8.743
 2675POPC   C2B37628  17.571  21.108   8.353
 2675POPC   C3B37629  17.373  20.898   8.047
 2675POPC   C4B37630  17.192  20.908   7.669
 2676POPC   NC337631  32.775  30.160   9.695
 2676POPC   PO437632  33.062  29.497   9.700
 2676POPC   GL137633  33.033  29.857   9.330
 2676POPC   GL237634  32.747  30.073   9.191
 2676POPC   C1A37635  33.153  29.924   8.868
 2676POPC   D2A37636  33.226  30.176   8.488
 2676POPC   C3A37637  33.217  29.988   8.094
 2676POPC   C4A37638  33.344  29.911   7.694
 2676POPC   C1B37639  32.694  30.156   8.741
 2676POPC   C2B37640  32.819  29.862   8.421
 2676POPC   C3B37641  32.841  29.668   8.020
 2676POPC   C4B37642  32.844  29.918   7.656
 2677POPC   NC337643   2.381  33.388   9.412
 2677POPC   PO437644   2.774  33.817   9.773
 2677POPC   GL137645   2.818  33.674   9.315
 2677POPC   GL237646   3.135  33.529   9.202
 2677POPC   C1A37647   2.823  33.738   8.847
 2677POPC   D2A37648   2.971  33.663   8.420
 2677POPC   C3A37649   2.781  33.899   8.088
 2677POPC   C4A37650   2.521  33.737   7.773
 2677POPC   C1B37651   3.077  33.295   8.792
 2677POPC   C2B37652   2.880  33.163   8.384
 2677POPC   C3B37653   2.853  33.386   7.987
 2677POPC   C4B37654   3.196  33.722   7.886
 2678POPC   NC337655  37.045   9.814   9.703
 2678POPC   PO437656  36.364   9.643   9.710
 2678POPC   GL137657  36.685   9.736   9.311
 2678POPC   GL237658  36.557   9.449   9.137
 2678POPC   C1A37659  36.698   9.802   8.808
 2678POPC   D2A37660  36.766   9.774   8.360
 2678POPC   C3A37661  37.085   9.897   8.049
 2678POPC   C4A37662  36.937   9.741   7.685
 2678POPC   C1B37663  36.874   9.333   8.818
 2678POPC   C2B37664  37.060   9.339   8.458
 2678POPC   C3B37665  36.970   9.388   8.065
 2678POPC   C4B37666  37.081   9.262   7.693
 2679POPC   NC337667  24.127  25.605   9.514
 2679POPC   PO437668  24.494  26.118   9.370
 2679POPC   GL137669  24.677  26.089   8.967
 2679POPC   GL237670  24.737  25.762   9.049
 2679POPC   C1A37671  24.725  25.949   8.568
 2679POPC   D2A37672  24.485  26.007   8.220
 2679POPC   C3A37673  24.616  25.903   7.824
 2679POPC   C4A37674  24.398  26.110   7.488
 2679POPC   C1B37675  24.322  25.775   8.827
 2679POPC   C2B37676  24.257  25.582   8.468
 2679POPC   C3B37677  24.205  25.602   8.042
 2679POPC   C4B37678  24.210  25.633   7.607
 2680POPC   NC337679   6.805  43.563   9.405
 2680POPC   PO437680   6.540  44.171   9.369
 2680POPC   GL137681   6.500  44.000   8.985
 2680POPC   GL237682   6.530  43.655   8.977
 2680POPC   C1A37683   6.733  43.923   8.605
 2680POPC   D2A37684   6.571  44.160   8.359
 2680POPC   C3A37685   6.364  43.956   8.089
 2680POPC   C4A37686   6.463  44.016   7.688
 2680POPC   C1B37687   6.914  43.461   8.749
 2680POPC   C2B37688   7.043  43.564   8.318
 2680POPC   C3B37689   6.780  43.679   7.958
 2680POPC   C4B37690   6.374  43.537   7.776
 2681POPC   NC337691  41.664  44.930   9.474
 2681POPC   PO437692  41.990  44.402   9.260
 2681POPC   GL137693  41.735  44.650   9.030
 2681POPC   GL237694  41.384  44.654   9.061
 2681POPC   C1A37695  41.606  44.519   8.628
 2681POPC   D2A37696  41.287  44.484   8.352
 2681POPC   C3A37697  41.529  44.565   8.006
 2681POPC   C4A37698  41.838  44.686   7.702
 2681POPC   C1B37699  41.217  44.885   8.681
 2681POPC   C2B37700  41.299  44.993   8.233
 2681POPC   C3B37701  41.122  44.807   7.842
 2681POPC   C4B37702  41.209  44.891   7.394
 2682POPC   NC337703  14.285  13.261   9.664
 2682POPC   PO437704  14.779  13.669   9.525
 2682POPC   GL137705  14.528  13.699   9.143
 2682POPC   GL237706  14.374  13.377   9.180
 2682POPC   C1A37707  14.478  13.551   8.698
 2682POPC   D2A37708  14.705  13.308   8.351
 2682POPC   C3A37709  14.727  13.569   7.983
 2682POPC   C4A37710  14.609  13.928   7.696
 2682POPC   C1B37711  14.028  13.280   8.934
 2682POPC   C2B37712  14.007  13.364   8.521
 2682POPC   C3B37713  14.216  13.391   8.136
 2682POPC   C4B37714  14.305  13.456   7.706
 2683POPC   NC337715  12.022  33.273   9.516
 2683POPC   PO437716  12.392  32.620   9.402
 2683POPC   GL137717  12.263  32.988   9.199
 2683POPC   GL237718  11.949  32.871   9.159
 2683POPC   C1A37719  12.142  33.264   8.846
 2683POPC   D2A37720  12.027  33.340   8.412
 2683POPC   C3A37721  12.308  33.291   8.094
 2683POPC   C4A37722  12.164  33.164   7.694
 2683POPC   C1B37723  12.213  32.731   8.785
 2683POPC   C2B37724  12.093  32.835   8.415
 2683POPC   C3B37725  12.128  32.797   8.024
 2683POPC   C4B37726  12.462  32.669   7.733
 2684POPC   NC337727  43.975  44.017   9.683
 2684POPC   PO437728  43.360  43.688   9.721
 2684POPC   GL137729  43.649  43.829   9.341
 2684POPC   GL237730  43.998  43.683   9.279
 2684POPC   C1A37731  43.794  44.126   8.998
 2684POPC   D2A37732  44.011  44.071   8.598
 2684POPC   C3A37733  43.803  44.140   8.215
 2684POPC   C4A37734  43.896  44.138   7.787
 2684POPC   C1B37735  43.777  43.616   8.885
 2684POPC   C2B37736  43.671  43.699   8.480
 2684POPC   C3B37737  43.871  43.648   8.089
 2684POPC   C4B37738  43.777  43.649   7.687
 2685POPC   NC337739  16.460  26.392   9.572
 2685POPC   PO437740  17.038  25.998   9.523
 2685POPC   GL137741  16.798  26.187   9.229
 2685POPC   GL237742  16.479  25.987   9.193
 2685POPC   C1A37743  16.863  26.382   8.835
 2685POPC   D2A37744  17.054  26.321   8.444
 2685POPC   C3A37745  16.775  26.247   8.088
 2685POPC   C4A37746  16.766  26.411   7.675
 2685POPC   C1B37747  16.798  25.826   8.868
 2685POPC   C2B37748  16.992  25.749   8.453
 2685POPC   C3B37749  16.799  25.749   8.025
 2685POPC   C4B37750  16.623  25.890   7.623
 2686POPC   NC337751  28.498  34.538   5.478
 2686POPC   PO437752  28.002  34.889   5.452
 2686POPC   GL137753  28.088  34.576   5.829
 2686POPC   GL237754  28.389  34.467   5.947
 2686POPC   C1A37755  28.162  34.714   6.302
 2686POPC   D2A37756  28.091  34.797   6.752
 2686POPC   C3A37757  28.396  34.598   6.946
 2686POPC   C4A37758  28.592  34.650   7.314
 2686POPC   C1B37759  28.351  34.218   6.313
 2686POPC   C2B37760  28.523  34.169   6.728
 2686POPC   C3B37761  28.584  34.158   7.203
 2686POPC   C4B37762  28.422  34.307   7.630
 2687POPC   NC337763  32.867  32.544   5.355
 2687POPC   PO437764  33.460  32.215   5.377
 2687POPC   GL137765  33.172  32.433   5.751
 2687POPC   GL237766  32.888  32.221   5.783
 2687POPC   C1A37767  32.926  32.523   6.180
 2687POPC   D2A37768  32.701  32.631   6.556
 2687POPC   C3A37769  32.858  32.401   6.920
 2687POPC   C4A37770  33.163  32.167   7.158
 2687POPC   C1B37771  32.846  31.990   6.178
 2687POPC   C2B37772  32.955  31.980   6.620
 2687POPC   C3B37773  32.627  31.945   6.950
 2687POPC   C4B37774  32.739  31.987   7.352
 2688POPC   NC337775  21.673  12.573   5.551
 2688POPC   PO437776  22.201  12.224   5.301
 2688POPC   GL137777  21.961  12.137   5.705
 2688POPC   GL237778  22.139  11.858   5.870
 2688POPC   C1A37779  21.890  12.153   6.186
 2688POPC   D2A37780  22.231  12.099   6.510
 2688POPC   C3A37781  22.148  12.134   6.941
 2688POPC   C4A37782  21.799  12.405   7.090
 2688POPC   C1B37783  22.180  11.654   6.279
 2688POPC   C2B37784  22.122  11.627   6.741
 2688POPC   C3B37785  22.041  11.675   7.179
 2688POPC   C4B37786  22.217  11.661   7.599
 2689POPC   NC337787  30.907  36.068   5.212
 2689POPC   PO437788  31.527  36.010   5.432
 2689POPC   GL137789  31.424  35.941   5.850
 2689POPC   GL237790  31.732  36.078   5.944
 2689POPC   C1A37791  31.244  36.095   6.270
 2689POPC   D2A37792  31.102  36.221   6.698
 2689POPC   C3A37793  31.365  36.298   7.058
 2689POPC   C4A37794  31.395  36.034   7.415
 2689POPC   C1B37795  31.668  35.807   6.274
 2689POPC   C2B37796  31.565  35.952   6.662
 2689POPC   C3B37797  31.754  35.954   7.037
 2689POPC   C4B37798  31.700  35.596   7.191
 2690POPC   NC337799  15.305  12.927   5.299
 2690POPC   PO437800  15.598  12.379   5.485
 2690POPC   GL137801  15.284  12.721   5.773
 2690POPC   GL237802  15.072  13.062   5.790
 2690POPC   C1A37803  15.329  12.914   6.208
 2690POPC   D2A37804  15.599  12.971   6.583
 2690POPC   C3A37805  15.412  12.817   6.985
 2690POPC   C4A37806  15.479  12.712   7.419
 2690POPC   C1B37807  14.796  13.020   6.201
 2690POPC   C2B37808  14.715  12.932   6.665
 2690POPC   C3B37809  14.956  13.034   7.074
 2690POPC   C4B37810  15.031  12.934   7.554
 2691POPC   NC337811  17.163  24.626   5.228
 2691POPC   PO437812  16.544  24.287   5.381
 2691POPC   GL137813  16.769  24.439   5.769
 2691POPC   GL237814  16.985  24.756   5.760
 2691POPC   C1A37815  16.804  24.279   6.199
 2691POPC   D2A37816  16.952  24.378   6.624
 2691POPC   C3A37817  16.685  24.215   6.951
 2691POPC   C4A37818  16.688  24.276   7.378
 2691POPC   C1B37819  16.983  24.777   6.249
 2691POPC   C2B37820  16.748  24.850   6.653
 2691POPC   C3B37821  16.821  24.710   7.070
 2691POPC   C4B37822  17.134  24.388   7.137
 2692POPC   NC337823  23.496   8.500   5.448
 2692POPC   PO437824  23.229   7.939   5.142
 2692POPC   GL137825  23.431   8.020   5.585
 2692POPC   GL237826  23.773   8.052   5.654
 2692POPC   C1A37827  23.375   8.117   6.054
 2692POPC   D2A37828  23.484   7.835   6.429
 2692POPC   C3A37829  23.534   7.886   6.889
 2692POPC   C4A37830  23.399   7.986   7.321
 2692POPC   C1B37831  23.845   7.967   6.082
 2692POPC   C2B37832  23.799   8.257   6.417
 2692POPC   C3B37833  23.826   8.323   6.845
 2692POPC   C4B37834  23.926   8.386   7.267
 2693POPC   NC337835  43.019  12.836   5.338
 2693POPC   PO437836  43.390  13.384   5.479
 2693POPC   GL137837  43.090  13.089   5.793
 2693POPC   GL237838  43.217  12.754   5.907
 2693POPC   C1A37839  42.894  13.013   6.258
 2693POPC   D2A37840  42.797  12.756   6.661
 2693POPC   C3A37841  42.897  12.984   7.067
 2693POPC   C4A37842  43.198  13.190   7.337
 2693POPC   C1B37843  43.250  12.672   6.379
 2693POPC   C2B37844  43.270  12.680   6.834
 2693POPC   C3B37845  43.568  12.476   7.072
 2693POPC   C4B37846  43.673  12.352   7.462
 2694POPC   NC337847  37.342  39.175   5.336
 2694POPC   PO437848  36.764  39.066   5.402
 2694POPC   GL137849  37.051  39.057   5.797
 2694POPC   GL237850  37.308  39.314   5.845
 2694POPC   C1A37851  36.954  39.168   6.272
 2694POPC   D2A37852  36.917  39.446   6.664
 2694POPC   C3A37853  36.866  39.230   7.070
 2694POPC   C4A37854  36.623  39.259   7.474
 2694POPC   C1B37855  37.355  39.483   6.269
 2694POPC   C2B37856  37.383  39.632   6.692
 2694POPC   C3B37857  37.301  39.517   7.105
 2694POPC   C4B37858  37.103  39.407   7.478
 2695POPC   NC337859  15.236  31.784   5.318
 2695POPC   PO437860  14.945  32.320   5.586
 2695POPC   GL137861  15.032  31.927   5.774
 2695POPC   GL237862  15.343  32.067   5.910
 2695POPC   C1A37863  14.889  31.927   6.185
 2695POPC   D2A37864  14.883  32.313   6.435
 2695POPC   C3A37865  15.055  32.287   6.861
 2695POPC   C4A37866  14.981  32.056   7.244
 2695POPC   C1B37867  15.411  32.402   6.236
 2695POPC   C2B37868  15.597  32.500   6.651
 2695POPC   C3B37869  15.497  32.478   7.088
 2695POPC   C4B37870  15.145  32.512   7.350
 2696POPC   NC337871  28.563  28.762   5.016
 2696POPC   PO437872  28.243  28.188   5.263
 2696POPC   GL137873  28.258  28.293   5.755
 2696POPC   GL237874  28.542  28.403   5.922
 2696POPC   C1A37875  28.087  28.384   6.227
 2696POPC   D2A37876  28.186  28.284   6.720
 2696POPC   C3A37877  28.116  28.542   7.140
 2696POPC   C4A37878  27.970  28.435   7.579
 2696POPC   C1B37879  28.572  28.327   6.358
 2696POPC   C2B37880  28.769  28.521   6.697
 2696POPC   C3B37881  28.572  28.357   7.041
 2696POPC   C4B37882  28.719  28.164   7.352
 2697POPC   NC337883  11.377  14.697   5.669
 2697POPC   PO437884  11.955  14.683   5.447
 2697POPC   GL137885  11.881  14.492   5.803
 2697POPC   GL237886  11.968  14.169   5.708
 2697POPC   C1A37887  11.727  14.456   6.216
 2697POPC   D2A37888  11.829  14.197   6.563
 2697POPC   C3A37889  11.855  14.440   6.893
 2697POPC   C4A37890  11.888  14.358   7.289
 2697POPC   C1B37891  12.056  14.085   6.122
 2697POPC   C2B37892  12.340  14.178   6.442
 2697POPC   C3B37893  12.295  14.173   6.894
 2697POPC   C4B37894  12.362  14.223   7.352
 2698POPC   NC337895  20.038  30.855   5.143
 2698POPC   PO437896  19.639  30.447   5.535
 2698POPC   GL137897  19.910  30.454   5.844
 2698POPC   GL237898  19.903  30.788   5.823
 2698POPC   C1A37899  19.916  30.400   6.274
 2698POPC   D2A37900  20.015  30.576   6.625
 2698POPC   C3A37901  19.656  30.610   6.863
 2698POPC   C4A37902  19.892  30.438   7.178
 2698POPC   C1B37903  20.024  30.921   6.223
 2698POPC   C2B37904  19.877  31.061   6.630
 2698POPC   C3B37905  19.962  30.989   7.050
 2698POPC   C4B37906  20.097  31.260   7.350
 2699POPC   NC337907   3.982  37.959   5.548
 2699POPC   PO437908   4.522  37.589   5.334
 2699POPC   GL137909   4.367  37.587   5.763
 2699POPC   GL237910   4.420  37.934   5.824
 2699POPC   C1A37911   4.423  37.388   6.188
 2699POPC   D2A37912   4.448  37.554   6.615
 2699POPC   C3A37913   4.146  37.419   6.957
 2699POPC   C4A37914   4.123  37.570   7.394
 2699POPC   C1B37915   4.256  37.867   6.224
 2699POPC   C2B37916   4.316  38.058   6.616
 2699POPC   C3B37917   4.364  37.885   6.990
 2699POPC   C4B37918   4.211  38.057   7.291
 2700POPC   NC337919  37.175  19.150   5.285
 2700POPC   PO437920  36.481  19.254   5.275
 2700POPC   GL137921  36.761  19.303   5.647
 2700POPC   GL237922  36.969  19.016   5.790
 2700POPC   C1A37923  36.685  19.303   6.111
 2700POPC   D2A37924  36.889  19.076   6.452
 2700POPC   C3A37925  36.890  19.295   6.856
 2700POPC   C4A37926  36.952  19.062   7.213
 2700POPC   C1B37927  37.320  18.829   6.048
 2700POPC   C2B37928  37.431  18.762   6.461
 2700POPC   C3B37929  37.248  18.776   6.870
 2700POPC   C4B37930  37.432  18.818   7.275
 2701POPC   NC337931  11.591  15.803   5.524
 2701POPC   PO437932  11.894  16.396   5.593
 2701POPC   GL137933  11.975  16.131   5.922
 2701POPC   GL237934  11.741  15.875   6.014
 2701POPC   C1A37935  12.175  16.181   6.281
 2701POPC   D2A37936  12.044  16.027   6.660
 2701POPC   C3A37937  12.234  16.225   6.942
 2701POPC   C4A37938  11.933  16.305   7.148
 2701POPC   C1B37939  12.061  15.673   6.295
 2701POPC   C2B37940  12.288  15.570   6.708
 2701POPC   C3B37941  12.241  15.708   7.136
 2701POPC   C4B37942  12.162  15.631   7.612
 2702POPC   NC337943  38.655  25.031   5.385
 2702POPC   PO437944  38.770  25.731   5.550
 2702POPC   GL137945  38.592  25.352   5.778
 2702POPC   GL237946  38.665  25.505   6.057
 2702POPC   C1A37947  38.504  25.019   6.145
 2702POPC   D2A37948  38.351  25.061   6.618
 2702POPC   C3A37949  38.438  24.884   7.074
 2702POPC   C4A37950  38.644  24.943   7.511
 2702POPC   C1B37951  38.253  25.466   6.183
 2702POPC   C2B37952  38.177  25.555   6.606
 2702POPC   C3B37953  38.493  25.478   6.936
 2702POPC   C4B37954  38.394  25.340   7.337
 2703POPC   NC337955  10.125  26.238   5.424
 2703POPC   PO437956   9.627  25.819   5.268
 2703POPC   GL137957   9.666  25.929   5.742
 2703POPC   GL237958   9.746  26.278   5.820
 2703POPC   C1A37959   9.847  25.926   6.193
 2703POPC   D2A37960  10.003  25.797   6.621
 2703POPC   C3A37961   9.846  25.912   7.049
 2703POPC   C4A37962   9.443  25.919   7.279
 2703POPC   C1B37963   9.868  26.444   6.223
 2703POPC   C2B37964   9.757  26.285   6.623
 2703POPC   C3B37965   9.545  26.332   7.011
 2703POPC   C4B37966   9.610  26.395   7.453
 2704POPC   NC337967  26.198   1.771   5.470
 2704POPC   PO437968  26.124   2.365   5.223
 2704POPC   GL137969  25.982   2.225   5.692
 2704POPC   GL237970  25.716   1.951   5.707
 2704POPC   C1A37971  26.091   2.106   6.160
 2704POPC   D2A37972  26.323   2.367   6.479
 2704POPC   C3A37973  26.252   2.234   6.904
 2704POPC   C4A37974  26.054   2.020   7.245
 2704POPC   C1B37975  25.632   1.885   6.160
 2704POPC   C2B37976  25.856   1.893   6.588
 2704POPC   C3B37977  25.703   1.699   6.959
 2704POPC   C4B37978  25.805   1.605   7.374
 2705POPC   NC337979  37.317  29.161   5.059
 2705POPC   PO437980  36.672  29.071   5.342
 2705POPC   GL137981  36.888  29.087   5.741
 2705POPC   GL237982  37.058  29.400   5.709
 2705POPC   C1A37983  36.956  28.884   6.171
 2705POPC   D2A37984  36.909  28.617   6.553
 2705POPC   C3A37985  36.977  28.891   6.915
 2705POPC   C4A37986  36.731  29.046   7.272
 2705POPC   C1B37987  36.887  29.392   6.156
 2705POPC   C2B37988  37.076  29.261   6.564
 2705POPC   C3B37989  37.010  29.401   7.003
 2705POPC   C4B37990  36.786  29.730   7.220
 2706POPC   NC337991   9.000   7.066   5.314
 2706POPC   PO437992   9.238   7.753   5.266
 2706POPC   GL137993   9.114   7.616   5.753
 2706POPC   GL237994   8.740   7.573   5.863
 2706POPC   C1A37995   9.062   7.430   6.220
 2706POPC   D2A37996   8.980   7.592   6.646
 2706POPC   C3A37997   9.201   7.397   7.026
 2706POPC   C4A37998   9.378   7.213   7.422
 2706POPC   C1B37999   8.607   7.757   6.293
 2706POPC   C2B38000   8.537   7.849   6.760
 2706POPC   C3B38001   8.722   7.553   7.098
 2706POPC   C4B38002   8.924   7.408   7.494
 2707POPC   NC338003   3.736  33.585   5.059
 2707POPC   PO438004   3.241  33.989   5.339
 2707POPC   GL138005   3.432  33.791   5.688
 2707POPC   GL238006   3.353  34.039   5.891
 2707POPC   C1A38007   3.786  33.824   6.024
 2707POPC   D2A38008   3.922  33.704   6.448
 2707POPC   C3A38009   3.643  33.737   6.837
 2707POPC   C4A38010   3.741  33.972   7.241
 2707POPC   C1B38011   3.352  33.830   6.276
 2707POPC   C2B38012   3.186  33.946   6.620
 2707POPC   C3B38013   3.104  34.013   7.025
 2707POPC   C4B38014   3.247  33.910   7.406
 2708POPC   NC338015  15.613   7.124   5.636
 2708POPC   PO438016  15.981   6.751   5.207
 2708POPC   GL138017  15.911   6.686   5.657
 2708POPC   GL238018  16.232   6.749   5.828
 2708POPC   C1A38019  15.862   6.432   6.041
 2708POPC   D2A38020  16.138   6.482   6.399
 2708POPC   C3A38021  15.990   6.505   6.827
 2708POPC   C4A38022  15.917   6.343   7.249
 2708POPC   C1B38023  15.955   6.928   6.160
 2708POPC   C2B38024  15.775   7.105   6.532
 2708POPC   C3B38025  15.709   7.203   6.978
 2708POPC   C4B38026  15.886   6.853   7.194
 2709POPC   NC338027  40.609  25.926   5.125
 2709POPC   PO438028  40.979  26.490   5.267
 2709POPC   GL138029  40.870  26.244   5.633
 2709POPC   GL238030  40.875  25.868   5.643
 2709POPC   C1A38031  40.825  26.277   6.082
 2709POPC   D2A38032  40.764  26.035   6.436
 2709POPC   C3A38033  40.843  26.221   6.787
 2709POPC   C4A38034  40.837  26.057   7.183
 2709POPC   C1B38035  41.062  25.790   6.089
 2709POPC   C2B38036  41.052  25.624   6.543
 2709POPC   C3B38037  40.838  25.603   6.968
 2709POPC   C4B38038  40.924  25.550   7.432
 2710POPC   NC338039  35.804   4.676   5.307
 2710POPC   PO438040  36.253   5.364   5.419
 2710POPC   GL138041  36.182   5.258   5.843
 2710POPC   GL238042  36.207   4.881   5.781
 2710POPC   C1A38043  36.381   5.340   6.263
 2710POPC   D2A38044  36.122   5.317   6.634
 2710POPC   C3A38045  36.258   5.147   7.024
 2710POPC   C4A38046  35.957   5.150   7.392
 2710POPC   C1B38047  36.083   4.941   6.228
 2710POPC   C2B38048  36.327   4.857   6.584
 2710POPC   C3B38049  36.329   4.650   6.982
 2710POPC   C4B38050  36.359   4.825   7.416
 2711POPC   NC338051   7.508  35.776   5.350
 2711POPC   PO438052   7.185  36.373   5.370
 2711POPC   GL138053   7.407  36.083   5.743
 2711POPC   GL238054   7.754  35.823   5.787
 2711POPC   C1A38055   7.173  35.960   6.136
 2711POPC   D2A38056   6.944  35.998   6.547
 2711POPC   C3A38057   7.135  36.223   6.889
 2711POPC   C4A38058   7.293  36.106   7.291
 2711POPC   C1B38059   7.701  35.973   6.180
 2711POPC   C2B38060   7.486  36.040   6.551
 2711POPC   C3B38061   7.646  36.170   6.926
 2711POPC   C4B38062   7.863  35.928   7.201
 2712POPC   NC338063  15.998  29.159   5.289
 2712POPC   PO438064  16.428  28.699   5.422
 2712POPC   GL138065  16.172  28.959   5.708
 2712POPC   GL238066  16.150  29.336   5.730
 2712POPC   C1A38067  15.970  28.930   6.089
 2712POPC   D2A38068  16.104  29.138   6.450
 2712POPC   C3A38069  16.204  28.952   6.835
 2712POPC   C4A38070  16.141  29.185   7.219
 2712POPC   C1B38071  15.837  29.422   6.050
 2712POPC   C2B38072  15.603  29.407   6.447
 2712POPC   C3B38073  15.748  29.243   6.853
 2712POPC   C4B38074  15.441  29.356   7.134
 2713POPC   NC338075   7.508  15.199   5.438
 2713POPC   PO438076   7.466  14.587   5.648
 2713POPC   GL138077   7.292  14.935   5.863
 2713POPC   GL238078   7.369  15.331   5.901
 2713POPC   C1A38079   7.362  14.992   6.292
 2713POPC   D2A38080   7.737  15.054   6.537
 2713POPC   C3A38081   7.601  14.867   6.900
 2713POPC   C4A38082   7.516  14.552   7.174
 2713POPC   C1B38083   7.240  15.488   6.328
 2713POPC   C2B38084   7.288  15.258   6.728
 2713POPC   C3B38085   7.229  15.135   7.155
 2713POPC   C4B38086   7.301  15.299   7.561
 2714POPC   NC338087  26.852   4.887   5.335
 2714POPC   PO438088  27.116   5.500   5.493
 2714POPC   GL138089  27.015   5.208   5.779
 2714POPC   GL238090  26.672   5.117   5.752
 2714POPC   C1A38091  26.954   5.309   6.196
 2714POPC   D2A38092  26.938   5.064   6.542
 2714POPC   C3A38093  26.898   5.335   6.882
 2714POPC   C4A38094  26.963   5.206   7.264
 2714POPC   C1B38095  26.598   4.916   6.145
 2714POPC   C2B38096  26.534   4.735   6.545
 2714POPC   C3B38097  26.610   4.896   6.966
 2714POPC   C4B38098  26.253   5.018   7.214
 2715POPC   NC338099  22.317   9.879   5.455
 2715POPC   PO438100  22.370  10.543   5.528
 2715POPC   GL138101  22.110  10.341   5.859
 2715POPC   GL238102  21.904  10.050   5.854
 2715POPC   C1A38103  22.055  10.362   6.305
 2715POPC   D2A38104  22.184  10.522   6.717
 2715POPC   C3A38105  21.950  10.510   7.089
 2715POPC   C4A38106  21.995  10.806   7.426
 2715POPC   C1B38107  22.256   9.927   6.147
 2715POPC   C2B38108  22.420  10.085   6.571
 2715POPC   C3B38109  22.449  10.200   7.041
 2715POPC   C4B38110  22.256  10.287   7.466
 2716POPC   NC338111  31.617   5.649   5.437
 2716POPC   PO438112  31.675   6.359   5.593
 2716POPC   GL138113  31.787   6.005   5.777
 2716POPC   GL238114  31.466   5.927   5.869
 2716POPC   C1A38115  31.841   5.923   6.215
 2716POPC   D2A38116  31.542   6.000   6.551
 2716POPC   C3A38117  31.757   5.996   6.919
 2716POPC   C4A38118  31.605   6.193   7.237
 2716POPC   C1B38119  31.135   5.995   6.167
 2716POPC   C2B38120  31.067   6.251   6.519
 2716POPC   C3B38121  31.192   6.179   6.925
 2716POPC   C4B38122  30.984   6.241   7.293
 2717POPC   NC338123  14.351  33.816   5.477
 2717POPC   PO438124  14.984  33.796   5.623
 2717POPC   GL138125  14.635  33.594   5.905
 2717POPC   GL238126  14.252  33.592   5.945
 2717POPC   C1A38127  14.616  33.580   6.360
 2717POPC   D2A38128  14.555  33.870   6.706
 2717POPC   C3A38129  14.470  33.671   7.085
 2717POPC   C4A38130  14.600  33.473   7.461
 2717POPC   C1B38131  14.223  33.927   6.274
 2717POPC   C2B38132  14.043  33.937   6.687
 2717POPC   C3B38133  14.165  34.070   7.097
 2717POPC   C4B38134  14.196  33.812   7.509
 2718POPC   NC338135  36.411  15.124   5.292
 2718POPC   PO438136  35.906  15.548   5.504
 2718POPC   GL138137  36.125  15.235   5.735
 2718POPC   GL238138  36.333  15.443   5.928
 2718POPC   C1A38139  36.014  14.995   6.113
 2718POPC   D2A38140  35.772  14.913   6.496
 2718POPC   C3A38141  36.014  14.864   6.879
 2718POPC   C4A38142  36.247  15.047   7.218
 2718POPC   C1B38143  36.033  15.525   6.270
 2718POPC   C2B38144  36.078  15.384   6.709
 2718POPC   C3B38145  36.282  15.535   7.088
 2718POPC   C4B38146  36.181  15.497   7.539
 2719POPC   NC338147   4.925  37.412   5.207
 2719POPC   PO438148   5.506  37.764   5.359
 2719POPC   GL138149   5.205  37.582   5.660
 2719POPC   GL238150   4.875  37.716   5.721
 2719POPC   C1A38151   5.068  37.380   6.059
 2719POPC   D2A38152   4.844  37.260   6.456
 2719POPC   C3A38153   4.944  37.531   6.819
 2719POPC   C4A38154   5.141  37.592   7.237
 2719POPC   C1B38155   4.770  37.781   6.201
 2719POPC   C2B38156   4.811  37.990   6.630
 2719POPC   C3B38157   4.846  37.986   7.103
 2719POPC   C4B38158   4.629  37.854   7.515
 2720POPC   NC338159  38.433   7.610   5.200
 2720POPC   PO438160  38.318   7.037   5.372
 2720POPC   GL138161  38.215   7.373   5.664
 2720POPC   GL238162  38.144   7.160   5.960
 2720POPC   C1A38163  38.287   7.648   6.059
 2720POPC   D2A38164  38.540   7.731   6.466
 2720POPC   C3A38165  38.475   7.742   6.931
 2720POPC   C4A38166  38.786   7.860   7.251
 2720POPC   C1B38167  38.459   7.221   6.303
 2720POPC   C2B38168  38.388   7.268   6.741
 2720POPC   C3B38169  38.309   7.241   7.184
 2720POPC   C4B38170  38.590   7.158   7.527
 2721POPC   NC338171  13.022  22.441   5.387
 2721POPC   PO438172  12.539  22.045   5.428
 2721POPC   GL138173  12.670  22.345   5.745
 2721POPC   GL238174  12.972  22.135   5.799
 2721POPC   C1A38175  12.824  22.493   6.136
 2721POPC   D2A38176  12.917  22.295   6.526
 2721POPC   C3A38177  12.704  22.227   6.921
 2721POPC   C4A38178  12.679  22.077   7.377
 2721POPC   C1B38179  13.230  22.052   6.154
 2721POPC   C2B38180  13.412  22.203   6.534
 2721POPC   C3B38181  13.194  22.063   6.909
 2721POPC   C4B38182  13.187  22.146   7.317
 2722POPC   NC338183  18.968  12.222   5.343
 2722POPC   PO438184  19.054  11.541   5.359
 2722POPC   GL138185  18.901  11.795   5.695
 2722POPC   GL238186  19.173  11.991   5.759
 2722POPC   C1A38187  18.948  11.762   6.166
 2722POPC   D2A38188  19.340  11.807   6.404
 2722POPC   C3A38189  19.283  11.841   6.846
 2722POPC   C4A38190  18.913  11.886   7.081
 2722POPC   C1B38191  19.163  12.229   6.148
 2722POPC   C2B38192  19.050  12.378   6.548
 2722POPC   C3B38193  19.122  12.323   6.950
 2722POPC   C4B38194  19.042  12.498   7.328
 2723POPC   NC338195  42.870  29.389   5.548
 2723POPC   PO438196  43.153  30.012   5.362
 2723POPC   GL138197  42.989  29.845   5.760
 2723POPC   GL238198  43.227  29.610   5.851
 2723POPC   C1A38199  42.912  29.730   6.224
 2723POPC   D2A38200  43.103  29.882   6.620
 2723POPC   C3A38201  42.961  29.792   7.020
 2723POPC   C4A38202  43.098  29.933   7.411
 2723POPC   C1B38203  43.436  29.753   6.239
 2723POPC   C2B38204  43.613  29.648   6.677
 2723POPC   C3B38205  43.479  29.745   7.105
 2723POPC   C4B38206  43.532  29.719   7.595
 2724POPC   NC338207   6.372  38.651   5.593
 2724POPC   PO438208   6.919  38.772   5.155
 2724POPC   GL138209   6.934  38.644   5.642
 2724POPC   GL238210   6.878  38.948   5.864
 2724POPC   C1A38211   6.768  38.501   6.096
 2724POPC   D2A38212   6.924  38.604   6.546
 2724POPC   C3A38213   6.723  38.463   6.958
 2724POPC   C4A38214   6.342  38.249   7.177
 2724POPC   C1B38215   6.643  38.968   6.296
 2724POPC   C2B38216   6.412  38.786   6.684
 2724POPC   C3B38217   6.311  38.837   7.148
 2724POPC   C4B38218   6.307  38.928   7.599
 2725POPC   NC338219  16.128  36.509   5.560
 2725POPC   PO438220  15.866  35.873   5.388
 2725POPC   GL138221  15.896  36.114   5.784
 2725POPC   GL238222  16.254  36.039   5.749
 2725POPC   C1A38223  16.113  36.290   6.188
 2725POPC   D2A38224  16.068  36.096   6.589
 2725POPC   C3A38225  16.031  36.311   6.967
 2725POPC   C4A38226  15.686  36.442   7.243
 2725POPC   C1B38227  16.172  35.792   6.108
 2725POPC   C2B38228  16.288  35.644   6.532
 2725POPC   C3B38229  16.147  35.696   6.939
 2725POPC   C4B38230  15.945  35.915   7.270
 2726POPC   NC338231  42.226   0.672   5.393
 2726POPC   PO438232  42.481   1.310   5.286
 2726POPC   GL138233  42.423   1.302   5.761
 2726POPC   GL238234  42.179   1.058   5.805
 2726POPC   C1A38235  42.626   1.481   6.180
 2726POPC   D2A38236  42.758   1.522   6.629
 2726POPC   C3A38237  42.578   1.344   7.014
 2726POPC   C4A38238  42.720   1.418   7.407
 2726POPC   C1B38239  42.365   1.048   6.215
 2726POPC   C2B38240  42.291   1.297   6.595
 2726POPC   C3B38241  42.083   1.330   7.018
 2726POPC   C4B38242  41.778   1.529   7.288
 2727POPC   NC338243  19.597   8.111   5.381
 2727POPC   PO438244  20.184   7.861   5.304
 2727POPC   GL138245  20.078   8.135   5.716
 2727POPC   GL238246  19.939   8.412   5.602
 2727POPC   C1A38247  19.919   8.032   6.166
 2727POPC   D2A38248  20.024   7.789   6.528
 2727POPC   C3A38249  20.030   8.071   6.845
 2727POPC   C4A38250  19.846   8.059   7.231
 2727POPC   C1B38251  19.904   8.524   6.045
 2727POPC   C2B38252  19.965   8.483   6.472
 2727POPC   C3B38253  19.994   8.579   6.905
 2727POPC   C4B38254  20.226   8.391   7.228
 2728POPC   NC338255   8.475   0.410   5.593
 2728POPC   PO438256   7.897   0.089   5.376
 2728POPC   GL138257   7.962   0.269   5.812
 2728POPC   GL238258   8.188   0.550   5.990
 2728POPC   C1A38259   7.937   0.202   6.252
 2728POPC   D2A38260   8.081   0.415   6.623
 2728POPC   C3A38261   8.014   0.222   6.997
 2728POPC   C4A38262   8.187   0.211   7.413
 2728POPC   C1B38263   8.480   0.357   6.281
 2728POPC   C2B38264   8.585   0.456   6.700
 2728POPC   C3B38265   8.463   0.501   7.112
 2728POPC   C4B38266   8.609   0.538   7.547
 2729POPC   NC338267   9.687  35.327   5.425
 2729POPC   PO438268   9.379  34.809   5.129
 2729POPC   GL138269   9.631  34.854   5.614
 2729POPC   GL238270   9.936  35.060   5.770
 2729POPC   C1A38271   9.551  35.081   6.086
 2729POPC   D2A38272   9.692  35.080   6.526
 2729POPC   C3A38273   9.465  35.326   6.837
 2729POPC   C4A38274   9.543  35.286   7.262
 2729POPC   C1B38275   9.934  35.460   6.079
 2729POPC   C2B38276   9.901  35.651   6.526
 2729POPC   C3B38277   9.926  35.526   6.985
 2729POPC   C4B38278   9.912  35.665   7.437
 2730POPC   NC338279  40.156  11.588   5.357
 2730POPC   PO438280  39.578  11.188   5.436
 2730POPC   GL138281  39.915  11.155   5.792
 2730POPC   GL238282  40.224  11.391   5.843
 2730POPC   C1A38283  40.030  11.136   6.243
 2730POPC   D2A38284  40.045  11.400   6.612
 2730POPC   C3A38285  39.719  11.402   6.904
 2730POPC   C4A38286  39.849  11.342   7.298
 2730POPC   C1B38287  40.502  11.389   6.212
 2730POPC   C2B38288  40.551  11.499   6.640
 2730POPC   C3B38289  40.388  11.330   7.017
 2730POPC   C4B38290  40.330  11.481   7.418
 2731POPC   NC338291   0.455  17.335   5.705
 2731POPC   PO438292   0.277  17.914   5.341
 2731POPC   GL138293   0.207  17.827   5.779
 2731POPC   GL238294   0.424  18.068   5.929
 2731POPC   C1A38295   0.193  17.636   6.206
 2731POPC   D2A38296   0.431  17.405   6.500
 2731POPC   C3A38297   0.286  17.457   6.913
 2731POPC   C4A38298   0.359  17.337   7.330
 2731POPC   C1B38299   0.596  17.924   6.339
 2731POPC   C2B38300   0.641  17.920   6.792
 2731POPC   C3B38301   0.466  17.874   7.202
 2731POPC   C4B38302   0.364  18.147   7.576
 2732POPC   NC338303  25.011  15.036   5.466
 2732POPC   PO438304  24.656  15.571   5.414
 2732POPC   GL138305  24.583  15.240   5.705
 2732POPC   GL238306  24.322  15.024   5.711
 2732POPC   C1A38307  24.657  15.156   6.136
 2732POPC   D2A38308  24.473  15.132   6.546
 2732POPC   C3A38309  24.660  15.047   6.944
 2732POPC   C4A38310  24.549  15.348   7.246
 2732POPC   C1B38311  24.192  14.934   6.149
 2732POPC   C2B38312  24.004  14.937   6.582
 2732POPC   C3B38313  24.137  15.129   6.963
 2732POPC   C4B38314  24.215  14.968   7.344
 2733POPC   NC338315   3.998   0.364   5.532
 2733POPC   PO438316   4.707   0.184   5.442
 2733POPC   GL138317   4.440   0.175   5.803
 2733POPC   GL238318   4.416   0.528   5.841
 2733POPC   C1A38319   4.103   0.013   6.116
 2733POPC   D2A38320   3.982   0.017   6.556
 2733POPC   C3A38321   4.323   0.197   6.807
 2733POPC   C4A38322   4.167   0.326   7.205
 2733POPC   C1B38323   4.397   0.412   6.298
 2733POPC   C2B38324   4.614   0.591   6.660
 2733POPC   C3B38325   4.370   0.735   7.002
 2733POPC   C4B38326   3.950   0.967   7.125
 2734POPC   NC338327   6.425  32.321   5.031
 2734POPC   PO438328   6.824  32.512   5.604
 2734POPC   GL138329   6.593  32.494   5.952
 2734POPC   GL238330   6.256  32.626   5.895
 2734POPC   C1A38331   6.423  32.157   6.202
 2734POPC   D2A38332   6.517  31.882   6.561
 2734POPC   C3A38333   6.780  32.115   6.875
 2734POPC   C4A38334   6.755  32.296   7.305
 2734POPC   C1B38335   6.280  32.690   6.302
 2734POPC   C2B38336   6.432  32.758   6.656
 2734POPC   C3B38337   6.431  32.533   7.002
 2734POPC   C4B38338   6.295  32.511   7.405
 2735POPC   NC338339  26.877   8.245   5.431
 2735POPC   PO438340  26.574   7.726   5.477
 2735POPC   GL138341  26.841   7.890   5.818
 2735POPC   GL238342  26.659   8.190   5.891
 2735POPC   C1A38343  27.018   8.025   6.225
 2735POPC   D2A38344  27.224   8.294   6.510
 2735POPC   C3A38345  27.105   8.280   6.936
 2735POPC   C4A38346  27.077   7.884   7.116
 2735POPC   C1B38347  26.522   7.991   6.281
 2735POPC   C2B38348  26.739   7.997   6.687
 2735POPC   C3B38349  26.563   7.940   7.082
 2735POPC   C4B38350  26.341   8.201   7.363
 2736POPC   NC338351  38.725   3.199   5.517
 2736POPC   PO438352  38.510   2.569   5.368
 2736POPC   GL138353  38.418   2.793   5.770
 2736POPC   GL238354  38.297   3.167   5.786
 2736POPC   C1A38355  38.497   2.723   6.231
 2736POPC   D2A38356  38.754   2.794   6.574
 2736POPC   C3A38357  38.539   2.741   6.970
 2736POPC   C4A38358  38.496   2.971   7.343
 2736POPC   C1B38359  38.108   3.036   6.163
 2736POPC   C2B38360  38.258   2.994   6.588
 2736POPC   C3B38361  38.120   3.049   7.007
 2736POPC   C4B38362  38.057   3.257   7.392
 2737POPC   NC338363  28.056  32.670   5.443
 2737POPC   PO438364  28.484  33.210   5.425
 2737POPC   GL138365  28.220  33.060   5.776
 2737POPC   GL238366  28.347  32.780   5.838
 2737POPC   C1A38367  28.224  33.183   6.230
 2737POPC   D2A38368  28.434  33.297   6.624
 2737POPC   C3A38369  28.215  33.287   6.999
 2737POPC   C4A38370  28.189  33.393   7.421
 2737POPC   C1B38371  28.154  32.670   6.188
 2737POPC   C2B38372  28.314  32.781   6.575
 2737POPC   C3B38373  28.289  32.771   6.994
 2737POPC   C4B38374  28.145  32.908   7.356
 2738POPC   NC338375  16.031  33.962   5.443
 2738POPC   PO438376  15.744  33.327   5.537
 2738POPC   GL138377  15.980  33.607   5.844
 2738POPC   GL238378  15.874  33.965   5.903
 2738POPC   C1A38379  16.171  33.762   6.259
 2738POPC   D2A38380  16.213  33.648   6.703
 2738POPC   C3A38381  16.031  33.699   7.126
 2738POPC   C4A38382  16.051  33.423   7.506
 2738POPC   C1B38383  15.695  33.927   6.286
 2738POPC   C2B38384  15.877  34.053   6.658
 2738POPC   C3B38385  15.733  34.128   7.047
 2738POPC   C4B38386  15.475  33.828   7.218
 2739POPC   NC338387  31.906   6.720   5.404
 2739POPC   PO438388  32.634   6.463   5.330
 2739POPC   GL138389  32.299   6.480   5.652
 2739POPC   GL238390  32.322   6.853   5.719
 2739POPC   C1A38391  32.115   6.404   6.105
 2739POPC   D2A38392  32.273   6.464   6.564
 2739POPC   C3A38393  32.111   6.429   7.026
 2739POPC   C4A38394  32.265   6.555   7.471
 2739POPC   C1B38395  32.554   6.706   6.109
 2739POPC   C2B38396  32.746   6.672   6.546
 2739POPC   C3B38397  32.558   6.713   6.971
 2739POPC   C4B38398  32.181   6.943   7.135
 2740POPC   NC338399  18.529   3.022   5.493
 2740POPC   PO438400  17.980   2.768   5.306
 2740POPC   GL138401  18.114   2.588   5.735
 2740POPC   GL238402  18.458   2.458   5.866
 2740POPC   C1A38403  18.077   2.572   6.203
 2740POPC   D2A38404  18.137   2.843   6.594
 2740POPC   C3A38405  18.173   2.702   7.033
 2740POPC   C4A38406  18.071   2.687   7.476
 2740POPC   C1B38407  18.571   2.695   6.295
 2740POPC   C2B38408  18.641   2.656   6.765
 2740POPC   C3B38409  18.673   2.682   7.228
 2740POPC   C4B38410  18.595   2.979   7.553
 2741POPC   NC338411  25.306  34.505   5.230
 2741POPC   PO438412  24.719  34.857   5.273
 2741POPC   GL138413  24.883  34.588   5.679
 2741POPC   GL238414  25.108  34.271   5.712
 2741POPC   C1A38415  25.144  34.616   6.096
 2741POPC   D2A38416  25.513  34.636   6.404
 2741POPC   C3A38417  25.383  34.655   6.840
 2741POPC   C4A38418  25.490  34.755   7.261
 2741POPC   C1B38419  25.366  34.163   6.141
 2741POPC   C2B38420  25.403  34.188   6.625
 2741POPC   C3B38421  25.420  34.207   7.107
 2741POPC   C4B38422  25.727  34.305   7.417
 2742POPC   NC338423  22.761  31.333   5.180
 2742POPC   PO438424  23.171  30.971   5.503
 2742POPC   GL138425  23.089  31.378   5.718
 2742POPC   GL238426  22.737  31.520   5.779
 2742POPC   C1A38427  23.148  31.520   6.160
 2742POPC   D2A38428  23.045  31.371   6.583
 2742POPC   C3A38429  23.202  31.226   6.971
 2742POPC   C4A38430  23.274  31.447   7.342
 2742POPC   C1B38431  22.616  31.601   6.236
 2742POPC   C2B38432  22.573  31.546   6.697
 2742POPC   C3B38433  22.840  31.617   7.061
 2742POPC   C4B38434  22.789  31.504   7.521
 2743POPC   NC338435  15.157  26.917   5.074
 2743POPC   PO438436  15.278  26.337   5.353
 2743POPC   GL138437  15.116  26.564   5.762
 2743POPC   GL238438  15.141  26.900   5.710
 2743POPC   C1A38439  15.318  26.836   6.186
 2743POPC   D2A38440  15.416  26.978   6.650
 2743POPC   C3A38441  15.331  26.903   7.093
 2743POPC   C4A38442  15.106  26.590   7.339
 2743POPC   C1B38443  14.822  26.823   6.061
 2743POPC   C2B38444  14.926  26.649   6.478
 2743POPC   C3B38445  14.863  26.812   6.888
 2743POPC   C4B38446  14.868  27.137   7.159
 2744POPC   NC338447   9.913  22.223   5.508
 2744POPC   PO438448   9.776  21.591   5.306
 2744POPC   GL138449   9.803  21.732   5.789
 2744POPC   GL238450   9.953  22.035   5.973
 2744POPC   C1A38451   9.545  21.859   6.182
 2744POPC   D2A38452   9.771  21.902   6.561
 2744POPC   C3A38453   9.738  22.109   6.884
 2744POPC   C4A38454   9.524  22.034   7.241
 2744POPC   C1B38455   9.900  22.329   6.348
 2744POPC   C2B38456   9.689  22.576   6.642
 2744POPC   C3B38457   9.655  22.562   7.063
 2744POPC   C4B38458   9.939  22.313   7.332
 2745POPC   NC338459  27.812  30.720   5.438
 2745POPC   PO438460  27.197  30.853   5.456
 2745POPC   GL138461  27.439  30.602   5.827
 2745POPC   GL238462  27.809  30.588   5.938
 2745POPC   C1A38463  27.466  30.570   6.315
 2745POPC   D2A38464  27.625  30.660   6.754
 2745POPC   C3A38465  27.282  30.716   7.021
 2745POPC   C4A38466  27.339  30.315   7.167
 2745POPC   C1B38467  27.984  30.632   6.359
 2745POPC   C2B38468  28.088  30.899   6.689
 2745POPC   C3B38469  28.060  30.809   7.089
 2745POPC   C4B38470  27.680  30.815   7.299
 2746POPC   NC338471   4.723  39.295   5.431
 2746POPC   PO438472   5.424  39.272   5.407
 2746POPC   GL138473   5.132  39.295   5.810
 2746POPC   GL238474   4.776  39.428   5.903
 2746POPC   C1A38475   5.259  39.228   6.264
 2746POPC   D2A38476   5.451  39.273   6.680
 2746POPC   C3A38477   5.243  39.030   6.985
 2746POPC   C4A38478   5.222  39.085   7.419
 2746POPC   C1B38479   4.785  39.051   6.171
 2746POPC   C2B38480   4.865  38.951   6.615
 2746POPC   C3B38481   4.748  39.269   6.931
 2746POPC   C4B38482   4.709  39.265   7.364
 2747POPC   NC338483  23.373   5.256   5.562
 2747POPC   PO438484  24.006   5.045   5.350
 2747POPC   GL138485  23.810   5.063   5.738
 2747POPC   GL238486  23.848   5.420   5.690
 2747POPC   C1A38487  23.617   5.087   6.160
 2747POPC   D2A38488  23.761   4.950   6.551
 2747POPC   C3A38489  23.538   5.093   6.934
 2747POPC   C4A38490  23.539   4.889   7.354
 2747POPC   C1B38491  23.943   5.472   6.122
 2747POPC   C2B38492  23.801   5.463   6.552
 2747POPC   C3B38493  24.006   5.349   6.942
 2747POPC   C4B38494  24.120   5.564   7.336
 2748POPC   NC338495  16.103  25.614   5.552
 2748POPC   PO438496  15.901  26.263   5.522
 2748POPC   GL138497  15.764  26.172   5.881
 2748POPC   GL238498  15.741  25.827   5.862
 2748POPC   C1A38499  15.833  26.222   6.287
 2748POPC   D2A38500  15.775  26.025   6.645
 2748POPC   C3A38501  15.975  26.315   6.887
 2748POPC   C4A38502  15.882  26.204   7.265
 2748POPC   C1B38503  16.110  25.825   6.162
 2748POPC   C2B38504  16.279  26.013   6.553
 2748POPC   C3B38505  16.167  25.838   6.956
 2748POPC   C4B38506  16.194  25.793   7.383
 2749POPC   NC338507  35.831  21.930   5.387
 2749POPC   PO438508  35.387  21.247   5.299
 2749POPC   GL138509  35.374  21.277   5.720
 2749POPC   GL238510  35.506  21.624   5.727
 2749POPC   C1A38511  35.252  21.266   6.151
 2749POPC   D2A38512  35.404  21.517   6.474
 2749POPC   C3A38513  35.433  21.274   6.842
 2749POPC   C4A38514  35.247  21.479   7.150
 2749POPC   C1B38515  35.716  21.782   6.098
 2749POPC   C2B38516  35.780  21.892   6.519
 2749POPC   C3B38517  35.723  21.702   6.909
 2749POPC   C4B38518  35.765  21.464   7.259
 2750POPC   NC338519  18.835  29.320   5.370
 2750POPC   PO438520  19.497  28.984   5.242
 2750POPC   GL138521  19.244  29.129   5.674
 2750POPC   GL238522  18.890  29.125   5.844
 2750POPC   C1A38523  19.298  29.284   6.132
 2750POPC   D2A38524  19.418  29.084   6.555
 2750POPC   C3A38525  19.088  29.151   6.886
 2750POPC   C4A38526  18.942  29.234   7.321
 2750POPC   C1B38527  19.100  28.808   6.120
 2750POPC   C2B38528  19.023  28.733   6.543
 2750POPC   C3B38529  18.999  28.661   6.978
 2750POPC   C4B38530  18.775  28.766   7.307
 2751POPC   NC338531  43.300  23.804   4.924
 2751POPC   PO438532  43.602  23.432   5.447
 2751POPC   GL138533  43.181  23.550   5.759
 2751POPC   GL238534  42.793  23.492   5.621
 2751POPC   C1A38535  43.026  23.799   6.121
 2751POPC   D2A38536  43.071  23.579   6.527
 2751POPC   C3A38537  43.131  23.806   6.920
 2751POPC   C4A38538  43.126  23.657   7.348
 2751POPC   C1B38539  42.746  23.386   6.065
 2751POPC   C2B38540  42.608  23.348   6.531
 2751POPC   C3B38541  42.812  23.391   6.994
 2751POPC   C4B38542  42.660  23.548   7.452
 2752POPC   NC338543   7.027  21.488   5.182
 2752POPC   PO438544   6.385  21.407   5.383
 2752POPC   GL138545   6.676  21.322   5.702
 2752POPC   GL238546   6.475  21.522   5.921
 2752POPC   C1A38547   6.944  21.475   6.080
 2752POPC   D2A38548   7.106  21.732   6.430
 2752POPC   C3A38549   6.860  21.619   6.786
 2752POPC   C4A38550   6.912  21.697   7.211
 2752POPC   C1B38551   6.441  21.072   6.113
 2752POPC   C2B38552   6.504  20.862   6.537
 2752POPC   C3B38553   6.395  20.984   6.983
 2752POPC   C4B38554   6.664  21.172   7.292
 2753POPC   NC338555   3.191  42.977   5.482
 2753POPC   PO438556   2.651  43.401   5.451
 2753POPC   GL138557   2.822  43.214   5.776
 2753POPC   GL238558   3.130  43.378   5.812
 2753POPC   C1A38559   2.641  42.987   6.087
 2753POPC   D2A38560   2.520  43.021   6.503
 2753POPC   C3A38561   2.716  43.043   6.910
 2753POPC   C4A38562   2.529  43.086   7.299
 2753POPC   C1B38563   3.298  43.449   6.189
 2753POPC   C2B38564   3.004  43.376   6.501
 2753POPC   C3B38565   3.077  43.444   6.925
 2753POPC   C4B38566   3.000  43.274   7.317
 2754POPC   NC338567  14.886  31.160   5.320
 2754POPC   PO438568  15.437  31.442   5.081
 2754POPC   GL138569  15.354  31.399   5.602
 2754POPC   GL238570  15.072  31.255   5.768
 2754POPC   C1A38571  15.288  31.591   6.083
 2754POPC   D2A38572  15.297  31.902   6.483
 2754POPC   C3A38573  15.206  31.739   6.915
 2754POPC   C4A38574  15.360  31.678   7.356
 2754POPC   C1B38575  15.135  31.111   6.187
 2754POPC   C2B38576  15.215  31.361   6.562
 2754POPC   C3B38577  15.287  31.230   6.994
 2754POPC   C4B38578  15.011  31.123   7.321
 2755POPC   NC338579  31.845  14.522   5.334
 2755POPC   PO438580  31.276  14.148   5.492
 2755POPC   GL138581  31.521  14.436   5.747
 2755POPC   GL238582  31.804  14.230   5.778
 2755POPC   C1A38583  31.385  14.539   6.163
 2755POPC   D2A38584  31.190  14.331   6.496
 2755POPC   C3A38585  31.305  14.589   6.849
 2755POPC   C4A38586  31.175  14.495   7.243
 2755POPC   C1B38587  31.855  14.357   6.177
 2755POPC   C2B38588  31.689  14.360   6.579
 2755POPC   C3B38589  31.751  14.280   6.990
 2755POPC   C4B38590  31.659  14.543   7.306
 2756POPC   NC338591   1.196  18.799   5.358
 2756POPC   PO438592   0.839  19.312   5.420
 2756POPC   GL138593   1.151  19.328   5.750
 2756POPC   GL238594   1.105  18.978   5.840
 2756POPC   C1A38595   1.209  19.314   6.214
 2756POPC   D2A38596   1.177  19.018   6.577
 2756POPC   C3A38597   1.234  19.172   7.028
 2756POPC   C4A38598   1.386  19.241   7.507
 2756POPC   C1B38599   1.426  18.768   6.121
 2756POPC   C2B38600   1.502  18.620   6.553
 2756POPC   C3B38601   1.311  18.668   6.960
 2756POPC   C4B38602   1.439  18.765   7.371
 2757POPC   NC338603  38.135   0.325   5.454
 2757POPC   PO438604  37.579   0.567   5.627
 2757POPC   GL138605  37.787   0.311   5.898
 2757POPC   GL238606  38.072   0.587   5.883
 2757POPC   C1A38607  37.619   0.141   6.317
 2757POPC   D2A38608  37.349   0.216   6.669
 2757POPC   C3A38609  37.604   0.410   6.975
 2757POPC   C4A38610  37.706   0.284   7.335
 2757POPC   C1B38611  38.102   0.834   6.278
 2757POPC   C2B38612  37.961   0.795   6.720
 2757POPC   C3B38613  37.995   0.707   7.172
 2757POPC   C4B38614  37.912   0.649   7.629
 2758POPC   NC338615  20.799  12.857   5.161
 2758POPC   PO438616  20.384  12.425   5.467
 2758POPC   GL138617  20.554  12.758   5.808
 2758POPC   GL238618  20.827  12.641   6.004
 2758POPC   C1A38619  20.592  12.994   6.261
 2758POPC   D2A38620  20.449  12.953   6.714
 2758POPC   C3A38621  20.674  12.751   7.058
 2758POPC   C4A38622  20.906  12.659   7.430
 2758POPC   C1B38623  20.562  12.479   6.272
 2758POPC   C2B38624  20.476  12.436   6.673
 2758POPC   C3B38625  20.245  12.453   7.028
 2758POPC   C4B38626  20.472  12.408   7.382
 2759POPC   NC338627  39.693  14.646   5.578
 2759POPC   PO438628  40.131  15.148   5.389
 2759POPC   GL138629  40.042  15.241   5.799
 2759POPC   GL238630  40.090  15.576   5.873
 2759POPC   C1A38631  40.127  15.094   6.205
 2759POPC   D2A38632  39.945  14.895   6.548
 2759POPC   C3A38633  40.075  15.047   6.922
 2759POPC   C4A38634  40.109  15.336   7.247
 2759POPC   C1B38635  39.756  15.508   6.162
 2759POPC   C2B38636  39.584  15.292   6.521
 2759POPC   C3B38637  39.696  15.425   6.903
 2759POPC   C4B38638  39.581  15.563   7.279
 2760POPC   NC338639   1.418   9.366   5.408
 2760POPC   PO438640   1.487   9.964   5.316
 2760POPC   GL138641   1.324   9.743   5.749
 2760POPC   GL238642   1.038   9.531   5.884
 2760POPC   C1A38643   1.376   9.691   6.235
 2760POPC   D2A38644   1.485   9.610   6.701
 2760POPC   C3A38645   1.490   9.870   7.103
 2760POPC   C4A38646   1.181  10.026   7.463
 2760POPC   C1B38647   1.080   9.262   6.294
 2760POPC   C2B38648   1.074   9.292   6.787
 2760POPC   C3B38649   1.053   9.618   7.135
 2760POPC   C4B38650   0.895   9.595   7.591
 2761POPC   NC338651  42.014   1.454   5.420
 2761POPC   PO438652  42.651   1.856   5.475
 2761POPC   GL138653  42.264   1.784   5.714
 2761POPC   GL238654  42.071   2.066   5.772
 2761POPC   C1A38655  42.152   1.693   6.138
 2761POPC   D2A38656  42.326   1.820   6.522
 2761POPC   C3A38657  42.236   1.844   6.955
 2761POPC   C4A38658  42.500   2.157   7.173
 2761POPC   C1B38659  41.965   2.172   6.229
 2761POPC   C2B38660  41.881   2.124   6.695
 2761POPC   C3B38661  41.995   2.299   7.113
 2761POPC   C4B38662  42.243   2.568   7.390
 2762POPC   NC338663  34.682   0.662   5.611
 2762POPC   PO438664  35.091   0.178   5.653
 2762POPC   GL138665  34.670   0.194   5.861
 2762POPC   GL238666  34.313   0.083   5.735
 2762POPC   C1A38667  34.684   0.448   6.241
 2762POPC   D2A38668  34.960   0.372   6.606
 2762POPC   C3A38669  34.833   0.405   7.049
 2762POPC   C4A38670  34.675   0.611   7.408
 2762POPC   C1B38671  34.286   0.122   6.201
 2762POPC   C2B38672  34.404   0.287   6.623
 2762POPC   C3B38673  34.329   0.414   7.039
 2762POPC   C4B38674  34.439   0.160   7.417
 2763POPC   NC338675  15.750  21.119   5.536
 2763POPC   PO438676  16.350  21.175   5.515
 2763POPC   GL138677  16.142  21.447   5.845
 2763POPC   GL238678  15.798  21.607   5.784
 2763POPC   C1A38679  16.106  21.344   6.291
 2763POPC   D2A38680  16.197  21.460   6.735
 2763POPC   C3A38681  16.064  21.253   7.106
 2763POPC   C4A38682  15.817  21.096   7.426
 2763POPC   C1B38683  15.911  21.796   6.187
 2763POPC   C2B38684  15.716  21.613   6.534
 2763POPC   C3B38685  15.628  21.426   6.902
 2763POPC   C4B38686  15.742  21.625   7.256
 2764POPC   NC338687   5.965   8.429   5.467
 2764POPC   PO438688   5.392   7.925   5.461
 2764POPC   GL138689   5.660   8.065   5.774
 2764POPC   GL238690   5.626   8.420   5.851
 2764POPC   C1A38691   5.545   8.091   6.219
 2764POPC   D2A38692   5.705   8.447   6.466
 2764POPC   C3A38693   5.819   8.260   6.841
 2764POPC   C4A38694   5.703   8.133   7.242
 2764POPC   C1B38695   6.013   8.245   6.105
 2764POPC   C2B38696   6.237   8.440   6.428
 2764POPC   C3B38697   6.261   8.491   6.868
 2764POPC   C4B38698   6.056   8.519   7.249
 2765POPC   NC338699  18.305  44.926   5.649
 2765POPC   PO438700  18.656  44.374   5.396
 2765POPC   GL138701  18.457  44.428   5.789
 2765POPC   GL238702  18.103  44.449   5.781
 2765POPC   C1A38703  18.514  44.606   6.202
 2765POPC   D2A38704  18.500  44.629   6.657
 2765POPC   C3A38705  18.803  44.816   6.907
 2765POPC   C4A38706  18.627  44.671   7.272
 2765POPC   C1B38707  18.137  44.254   6.217
 2765POPC   C2B38708  18.131  44.263   6.705
 2765POPC   C3B38709  18.116  44.534   7.118
 2765POPC   C4B38710  17.804  44.809   7.370
 2766POPC   NC338711  39.898   6.108   5.081
 2766POPC   PO438712  40.207   6.646   5.267
 2766POPC   GL138713  39.925   6.591   5.662
 2766POPC   GL238714  39.746   6.926   5.731
 2766POPC   C1A38715  39.954   6.676   6.130
 2766POPC   D2A38716  39.861   6.481   6.531
 2766POPC   C3A38717  39.937   6.619   6.952
 2766POPC   C4A38718  40.058   6.453   7.361
 2766POPC   C1B38719  39.573   7.019   6.124
 2766POPC   C2B38720  39.777   7.026   6.515
 2766POPC   C3B38721  39.648   7.047   6.934
 2766POPC   C4B38722  39.851   6.912   7.351
 2767POPC   NC338723   8.885  35.572   5.168
 2767POPC   PO438724   9.216  35.138   5.560
 2767POPC   GL138725   8.841  35.188   5.840
 2767POPC   GL238726   8.656  35.566   5.850
 2767POPC   C1A38727   8.685  35.238   6.257
 2767POPC   D2A38728   8.648  34.988   6.613
 2767POPC   C3A38729   8.888  35.133   6.969
 2767POPC   C4A38730   8.808  35.225   7.417
 2767POPC   C1B38731   8.846  35.721   6.269
 2767POPC   C2B38732   8.812  35.594   6.727
 2767POPC   C3B38733   9.000  35.629   7.155
 2767POPC   C4B38734   8.967  35.673   7.628
 2768POPC   NC338735  10.724  37.483   5.438
 2768POPC   PO438736  10.120  37.837   5.562
 2768POPC   GL138737  10.374  37.633   5.821
 2768POPC   GL238738  10.380  37.952   6.002
 2768POPC   C1A38739  10.612  37.529   6.181
 2768POPC   D2A38740  10.560  37.721   6.591
 2768POPC   C3A38741  10.662  37.468   6.968
 2768POPC   C4A38742  10.639  37.332   7.415
 2768POPC   C1B38743  10.815  38.032   6.070
 2768POPC   C2B38744  11.029  37.943   6.430
 2768POPC   C3B38745  10.934  37.965   6.838
 2768POPC   C4B38746  10.607  38.023   7.122
 2769POPC   NC338747  41.668  11.033   5.252
 2769POPC   PO438748  41.325  11.590   5.316
 2769POPC   GL138749  41.479  11.319   5.709
 2769POPC   GL238750  41.832  11.119   5.727
 2769POPC   C1A38751  41.392  11.392   6.176
 2769POPC   D2A38752  41.552  11.509   6.613
 2769POPC   C3A38753  41.393  11.308   6.967
 2769POPC   C4A38754  41.286  11.322   7.370
 2769POPC   C1B38755  41.891  11.352   6.099
 2769POPC   C2B38756  41.926  11.168   6.504
 2769POPC   C3B38757  41.896  11.078   6.936
 2769POPC   C4B38758  41.841  11.187   7.375
 2770POPC   NC338759  34.737   6.883   5.456
 2770POPC   PO438760  34.277   6.401   5.514
 2770POPC   GL138761  34.484   6.606   5.843
 2770POPC   GL238762  34.526   6.940   5.929
 2770POPC   C1A38763  34.652   6.423   6.190
 2770POPC   D2A38764  34.824   6.253   6.540
 2770POPC   C3A38765  34.606   6.222   6.912
 2770POPC   C4A38766  34.472   6.386   7.279
 2770POPC   C1B38767  34.729   6.896   6.324
 2770POPC   C2B38768  34.626   6.719   6.720
 2770POPC   C3B38769  34.533   6.902   7.142
 2770POPC   C4B38770  34.682   6.760   7.580
 2771POPC   NC338771  11.585  13.925   5.405
 2771POPC   PO438772  11.070  13.595   5.361
 2771POPC   GL138773  11.170  13.763   5.747
 2771POPC   GL238774  11.486  13.598   5.802
 2771POPC   C1A38775  11.143  13.655   6.202
 2771POPC   D2A38776  11.036  13.798   6.626
 2771POPC   C3A38777  11.184  13.684   7.036
 2771POPC   C4A38778  11.192  13.561   7.471
 2771POPC   C1B38779  11.658  13.692   6.200
 2771POPC   C2B38780  11.557  13.631   6.668
 2771POPC   C3B38781  11.642  13.469   7.141
 2771POPC   C4B38782  11.686  13.537   7.613
 2772POPC   NC338783   9.112  29.727   5.429
 2772POPC   PO438784   8.442  29.578   5.543
 2772POPC   GL138785   8.794  29.769   5.833
 2772POPC   GL238786   8.962  30.094   5.825
 2772POPC   C1A38787   9.203  29.645   6.066
 2772POPC   D2A38788   9.247  29.552   6.512
 2772POPC   C3A38789   9.065  29.844   6.805
 2772POPC   C4A38790   9.008  29.852   7.258
 2772POPC   C1B38791   8.921  29.994   6.299
 2772POPC   C2B38792   8.725  30.201   6.666
 2772POPC   C3B38793   8.956  30.295   7.060
 2772POPC   C4B38794   9.110  30.274   7.543
 2773POPC   NC338795  33.516  14.330   5.494
 2773POPC   PO438796  32.880  14.058   5.471
 2773POPC   GL138797  33.087  14.203   5.803
 2773POPC   GL238798  32.836  14.430   5.914
 2773POPC   C1A38799  33.317  14.156   6.197
 2773POPC   D2A38800  33.317  14.306   6.635
 2773POPC   C3A38801  33.056  14.368   6.995
 2773POPC   C4A38802  32.643  14.534   7.105
 2773POPC   C1B38803  32.816  14.113   6.262
 2773POPC   C2B38804  32.640  14.203   6.674
 2773POPC   C3B38805  32.718  13.994   7.041
 2773POPC   C4B38806  32.983  13.988   7.382
 2774POPC   NC338807  36.070   7.790   5.355
 2774POPC   PO438808  36.265   8.403   5.139
 2774POPC   GL138809  36.202   8.377   5.627
 2774POPC   GL238810  36.123   8.049   5.792
 2774POPC   C1A38811  36.186   8.446   6.104
 2774POPC   D2A38812  36.178   8.213   6.505
 2774POPC   C3A38813  36.373   8.446   6.826
 2774POPC   C4A38814  36.152   8.456   7.185
 2774POPC   C1B38815  36.022   7.829   6.182
 2774POPC   C2B38816  35.736   7.827   6.495
 2774POPC   C3B38817  35.914   7.937   6.871
 2774POPC   C4B38818  35.939   8.014   7.303
 2775POPC   NC338819  18.034  10.679   5.578
 2775POPC   PO438820  17.503  11.036   5.316
 2775POPC   GL138821  17.526  11.313   5.675
 2775POPC   GL238822  17.838  11.147   5.758
 2775POPC   C1A38823  17.331  11.480   6.061
 2775POPC   D2A38824  17.334  11.305   6.482
 2775POPC   C3A38825  17.518  11.294   6.884
 2775POPC   C4A38826  17.312  11.204   7.263
 2775POPC   C1B38827  17.747  11.219   6.181
 2775POPC   C2B38828  17.929  11.151   6.565
 2775POPC   C3B38829  17.941  10.871   6.900
 2775POPC   C4B38830  17.813  11.063   7.258
 2776POPC   NC338831   2.434   6.591   5.137
 2776POPC   PO438832   3.059   6.588   5.444
 2776POPC   GL138833   2.880   6.556   5.828
 2776POPC   GL238834   2.585   6.336   5.779
 2776POPC   C1A38835   2.883   6.812   6.221
 2776POPC   D2A38836   2.843   6.965   6.644
 2776POPC   C3A38837   3.108   6.829   6.997
 2776POPC   C4A38838   2.940   6.681   7.422
 2776POPC   C1B38839   2.463   6.539   6.126
 2776POPC   C2B38840   2.599   6.456   6.531
 2776POPC   C3B38841   2.679   6.542   6.954
 2776POPC   C4B38842   2.433   6.366   7.280
 2777POPC   NC338843  41.726   4.014   5.308
 2777POPC   PO438844  41.433   4.591   5.601
 2777POPC   GL138845  41.688   4.723   5.924
 2777POPC   GL238846  41.629   4.395   6.064
 2777POPC   C1A38847  41.679   4.812   6.378
 2777POPC   D2A38848  41.519   4.476   6.615
 2777POPC   C3A38849  41.402   4.430   7.028
 2777POPC   C4A38850  41.808   4.358   7.211
 2777POPC   C1B38851  41.513   4.049   6.340
 2777POPC   C2B38852  41.594   3.979   6.790
 2777POPC   C3B38853  41.236   3.954   7.058
 2777POPC   C4B38854  41.112   4.206   7.430
 2778POPC   NC338855  39.906  15.602   5.373
 2778POPC   PO438856  39.817  16.265   5.213
 2778POPC   GL138857  39.875  16.093   5.664
 2778POPC   GL238858  39.622  15.858   5.783
 2778POPC   C1A38859  40.081  16.031   6.092
 2778POPC   D2A38860  40.371  16.184   6.431
 2778POPC   C3A38861  40.247  16.098   6.878
 2778POPC   C4A38862  39.992  15.813   7.105
 2778POPC   C1B38863  39.575  16.153   6.162
 2778POPC   C2B38864  39.742  16.159   6.619
 2778POPC   C3B38865  39.558  16.048   7.039
 2778POPC   C4B38866  39.695  16.043   7.466
 2779POPC   NC338867  43.506  41.580   5.452
 2779POPC   PO438868  44.182  41.658   5.470
 2779POPC   GL138869  44.008  41.882   5.868
 2779POPC   GL238870  43.643  41.851   5.902
 2779POPC   C1A38871  43.938  41.889   6.366
 2779POPC   D2A38872  44.078  41.522   6.611
 2779POPC   C3A38873  44.251  41.402   7.023
 2779POPC   C4A38874  44.138  41.340   7.466
 2779POPC   C1B38875  43.718  41.464   6.193
 2779POPC   C2B38876  43.580  41.425   6.660
 2779POPC   C3B38877  43.751  41.652   7.049
 2779POPC   C4B38878  43.699  41.589   7.507
 2780POPC   NC338879   3.543  17.946   5.459
 2780POPC   PO438880   3.610  18.583   5.359
 2780POPC   GL138881   3.598  18.368   5.765
 2780POPC   GL238882   3.295  18.194   5.890
 2780POPC   C1A38883   3.577  18.517   6.179
 2780POPC   D2A38884   3.739  18.288   6.498
 2780POPC   C3A38885   3.629  18.384   6.905
 2780POPC   C4A38886   3.594  18.062   7.193
 2780POPC   C1B38887   3.223  18.206   6.354
 2780POPC   C2B38888   3.131  18.250   6.790
 2780POPC   C3B38889   3.160  18.300   7.240
 2780POPC   C4B38890   3.212  17.994   7.579
 2781POPC   NC338891  38.855  19.105   5.354
 2781POPC   PO438892  39.563  18.939   5.287
 2781POPC   GL138893  39.443  18.930   5.778
 2781POPC   GL238894  39.066  18.878   5.788
 2781POPC   C1A38895  39.353  19.096   6.204
 2781POPC   D2A38896  39.360  19.403   6.568
 2781POPC   C3A38897  39.232  19.246   6.988
 2781POPC   C4A38898  39.438  18.961   7.264
 2781POPC   C1B38899  38.873  18.954   6.227
 2781POPC   C2B38900  38.833  19.291   6.567
 2781POPC   C3B38901  38.687  19.253   6.991
 2781POPC   C4B38902  38.904  18.918   7.262
 2782POPC   NC338903  20.168   5.587   5.515
 2782POPC   PO438904  19.804   6.214   5.476
 2782POPC   GL138905  19.785   5.870   5.807
 2782POPC   GL238906  19.444   5.695   5.888
 2782POPC   C1A38907  19.995   5.948   6.226
 2782POPC   D2A38908  20.033   6.247   6.595
 2782POPC   C3A38909  19.943   6.071   6.955
 2782POPC   C4A38910  20.007   5.830   7.277
 2782POPC   C1B38911  19.669   5.545   6.226
 2782POPC   C2B38912  19.730   5.712   6.627
 2782POPC   C3B38913  19.691   5.495   7.005
 2782POPC   C4B38914  20.003   5.337   7.253
 2783POPC   NC338915  37.288  20.134   5.424
 2783POPC   PO438916  37.941  20.014   5.134
 2783POPC   GL138917  37.730  19.876   5.510
 2783POPC   GL238918  37.743  20.205   5.681
 2783POPC   C1A38919  37.703  19.633   5.920
 2783POPC   D2A38920  37.533  19.649   6.361
 2783POPC   C3A38921  37.706  19.584   6.795
 2783POPC   C4A38922  37.704  19.630   7.255
 2783POPC   C1B38923  37.549  20.090   6.097
 2783POPC   C2B38924  37.525  20.110   6.566
 2783POPC   C3B38925  37.505  20.081   7.009
 2783POPC   C4B38926  37.785  20.319   7.274
 2784POPC   NC338927  31.116   0.843   5.216
 2784POPC   PO438928  31.720   0.658   5.474
 2784POPC   GL138929  31.509   0.735   5.848
 2784POPC   GL238930  31.120   0.760   5.895
 2784POPC   C1A38931  31.480   0.531   6.264
 2784POPC   D2A38932  31.460   0.503   6.716
 2784POPC   C3A38933  31.685   0.185   6.926
 2784POPC   C4A38934  31.461   0.038   7.271
 2784POPC   C1B38935  31.049   0.797   6.370
 2784POPC   C2B38936  31.168   0.933   6.777
 2784POPC   C3B38937  31.409   0.846   7.138
 2784POPC   C4B38938  31.343   0.513   7.439
 2785POPC   NC338939  41.604  44.906   5.499
 2785POPC   PO438940  42.052  44.360   5.391
 2785POPC   GL138941  41.769  44.444   5.832
 2785POPC   GL238942  41.404  44.584   5.872
 2785POPC   C1A38943  41.668  44.554   6.313
 2785POPC   D2A38944  41.691  44.558   6.783
 2785POPC   C3A38945  41.372  44.494   7.080
 2785POPC   C4A38946  41.380  44.444   7.549
 2785POPC   C1B38947  41.444  44.971   6.156
 2785POPC   C2B38948  41.625   0.053   6.566
 2785POPC   C3B38949  41.525   0.031   7.008
 2785POPC   C4B38950  41.704   0.092   7.426
 2786POPC   NC338951  30.911   4.945   5.359
 2786POPC   PO438952  30.509   5.491   5.205
 2786POPC   GL138953  30.548   5.220   5.641
 2786POPC   GL238954  30.880   5.127   5.838
 2786POPC   C1A38955  30.472   4.938   6.046
 2786POPC   D2A38956  30.512   4.995   6.492
 2786POPC   C3A38957  30.698   5.304   6.773
 2786POPC   C4A38958  30.695   5.175   7.200
 2786POPC   C1B38959  30.975   4.987   6.292
 2786POPC   C2B38960  31.203   5.187   6.611
 2786POPC   C3B38961  31.166   5.274   7.013
 2786POPC   C4B38962  31.138   4.920   7.225
 2787POPC   NC338963   5.599   7.556   5.652
 2787POPC   PO438964   6.066   7.187   5.457
 2787POPC   GL138965   6.076   7.246   5.881
 2787POPC   GL238966   5.764   7.087   5.923
 2787POPC   C1A38967   6.229   7.503   6.243
 2787POPC   D2A38968   6.449   7.514   6.645
 2787POPC   C3A38969   6.128   7.567   6.978
 2787POPC   C4A38970   5.972   7.181   7.117
 2787POPC   C1B38971   5.622   6.895   6.312
 2787POPC   C2B38972   5.647   6.918   6.777
 2787POPC   C3B38973   5.470   7.256   7.001
 2787POPC   C4B38974   5.500   7.674   7.138
 2788POPC   NC338975   4.076  39.661   5.225
 2788POPC   PO438976   4.735  39.776   5.459
 2788POPC   GL138977   4.324  39.941   5.622
 2788POPC   GL238978   4.178  39.668   5.763
 2788POPC   C1A38979   4.114  40.141   6.012
 2788POPC   D2A38980   4.328  40.177   6.445
 2788POPC   C3A38981   4.133  40.218   6.858
 2788POPC   C4A38982   4.231  40.018   7.248
 2788POPC   C1B38983   4.490  39.799   6.091
 2788POPC   C2B38984   4.596  39.735   6.504
 2788POPC   C3B38985   4.608  39.941   6.885
 2788POPC   C4B38986   4.681  39.757   7.275
 2789POPC   NC338987  39.871  28.743   5.311
 2789POPC   PO438988  40.360  29.168   5.510
 2789POPC   GL138989  40.115  29.195   5.870
 2789POPC   GL238990  39.803  29.013   5.759
 2789POPC   C1A38991  40.233  29.153   6.331
 2789POPC   D2A38992  40.222  29.057   6.776
 2789POPC   C3A38993  40.184  29.390   7.031
 2789POPC   C4A38994  40.174  29.392   7.460
 2789POPC   C1B38995  39.958  28.786   6.134
 2789POPC   C2B38996  39.802  28.861   6.526
 2789POPC   C3B38997  39.685  28.987   6.918
 2789POPC   C4B38998  39.891  28.987   7.286
 2790POPC   NC338999  11.267  40.002   5.031
 2790POPC   PO439000  11.222  40.529   5.365
 2790POPC   GL139001  11.213  40.161   5.671
 2790POPC   GL239002  10.852  40.201   5.767
 2790POPC   C1A39003  11.204  39.806   6.014
 2790POPC   D2A39004  11.370  39.840   6.449
 2790POPC   C3A39005  11.451  39.574   6.794
 2790POPC   C4A39006  11.539  39.650   7.237
 2790POPC   C1B39007  10.990  40.228   6.210
 2790POPC   C2B39008  10.881  39.936   6.520
 2790POPC   C3B39009  11.040  39.830   6.930
 2790POPC   C4B39010  11.110  39.974   7.344
 2791POPC   NC339011   4.272  36.361   5.374
 2791POPC   PO439012   4.428  35.709   5.436
 2791POPC   GL139013   4.230  35.849   5.811
 2791POPC   GL239014   4.421  36.163   5.824
 2791POPC   C1A39015   4.196  35.919   6.275
 2791POPC   D2A39016   4.478  36.068   6.610
 2791POPC   C3A39017   4.457  36.272   7.027
 2791POPC   C4A39018   4.483  36.517   7.452
 2791POPC   C1B39019   4.076  36.346   6.032
 2791POPC   C2B39020   4.045  36.368   6.455
 2791POPC   C3B39021   3.975  36.324   6.879
 2791POPC   C4B39022   4.034  36.344   7.301
 2792POPC   NC339023  38.121  24.635   5.349
 2792POPC   PO439024  37.623  24.263   5.368
 2792POPC   GL139025  37.667  24.483   5.796
 2792POPC   GL239026  37.806  24.800   5.707
 2792POPC   C1A39027  37.624  24.380   6.264
 2792POPC   D2A39028  37.484  24.485   6.694
 2792POPC   C3A39029  37.690  24.391   7.080
 2792POPC   C4A39030  37.995  24.584   7.374
 2792POPC   C1B39031  37.989  24.902   6.117
 2792POPC   C2B39032  37.950  24.752   6.495
 2792POPC   C3B39033  37.992  24.747   6.888
 2792POPC   C4B39034  37.962  25.090   7.165
 2793POPC   NC339035  20.354  19.138   5.375
 2793POPC   PO439036  20.787  18.997   5.418
 2793POPC   GL139037  20.582  18.930   5.815
 2793POPC   GL239038  20.248  19.053   5.889
 2793POPC   C1A39039  20.602  19.045   6.265
 2793POPC   D2A39040  20.317  19.010   6.609
 2793POPC   C3A39041  20.382  19.178   7.046
 2793POPC   C4A39042  20.707  19.158   7.389
 2793POPC   C1B39043  20.270  18.653   6.150
 2793POPC   C2B39044  20.302  18.503   6.592
 2793POPC   C3B39045  20.312  18.672   7.036
 2793POPC   C4B39046  20.001  18.874   7.316
 2794POPC   NC339047   6.139  41.455   5.302
 2794POPC   PO439048   5.609  41.753   5.544
 2794POPC   GL139049   5.861  41.552   5.855
 2794POPC   GL239050   6.129  41.301   5.802
 2794POPC   C1A39051   5.753  41.613   6.298
 2794POPC   D2A39052   5.582  41.751   6.699
 2794POPC   C3A39053   5.700  41.524   7.052
 2794POPC   C4A39054   6.009  41.194   7.211
 2794POPC   C1B39055   6.240  41.491   6.215
 2794POPC   C2B39056   6.063  41.469   6.676
 2794POPC   C3B39057   6.216  41.640   7.054
 2794POPC   C4B39058   6.115  41.972   7.324
 2795POPC   NC339059  15.202   9.296   5.161
 2795POPC   PO439060  15.428   9.881   5.125
 2795POPC   GL139061  15.267   9.871   5.602
 2795POPC   GL239062  14.887   9.863   5.727
 2795POPC   C1A39063  15.300   9.825   6.048
 2795POPC   D2A39064  15.237   9.806   6.510
 2795POPC   C3A39065  15.023  10.094   6.787
 2795POPC   C4A39066  15.026  10.072   7.265
 2795POPC   C1B39067  14.820   9.877   6.203
 2795POPC   C2B39068  14.721   9.707   6.623
 2795POPC   C3B39069  14.848   9.645   7.055
 2795POPC   C4B39070  15.060   9.589   7.468
 2796POPC   NC339071  12.549   9.254   5.476
 2796POPC   PO439072  12.955   9.833   5.436
 2796POPC   GL139073  12.790   9.613   5.796
 2796POPC   GL239074  12.412   9.631   5.815
 2796POPC   C1A39075  12.828   9.740   6.219
 2796POPC   D2A39076  13.102   9.875   6.536
 2796POPC   C3A39077  12.961   9.661   6.870
 2796POPC   C4A39078  12.728   9.682   7.217
 2796POPC   C1B39079  12.446  10.026   6.031
 2796POPC   C2B39080  12.575  10.168   6.465
 2796POPC   C3B39081  12.519   9.989   6.874
 2796POPC   C4B39082  12.313   9.992   7.301
 2797POPC   NC339083  40.327   2.829   5.529
 2797POPC   PO439084  40.802   2.402   5.233
 2797POPC   GL139085  40.781   2.625   5.703
 2797POPC   GL239086  40.560   2.831   6.004
 2797POPC   C1A39087  40.945   2.551   6.134
 2797POPC   D2A39088  40.761   2.744   6.508
 2797POPC   C3A39089  40.973   2.562   6.855
 2797POPC   C4A39090  40.920   2.681   7.243
 2797POPC   C1B39091  40.591   3.217   6.338
 2797POPC   C2B39092  40.509   3.216   6.773
 2797POPC   C3B39093  40.515   2.913   7.089
 2797POPC   C4B39094  40.610   2.985   7.562
 2798POPC   NC339095  18.899   2.143   5.397
 2798POPC   PO439096  19.364   1.670   5.344
 2798POPC   GL139097  19.287   1.916   5.759
 2798POPC   GL239098  18.922   1.917   5.842
 2798POPC   C1A39099  19.254   2.113   6.186
 2798POPC   D2A39100  19.014   2.186   6.595
 2798POPC   C3A39101  19.201   2.083   7.002
 2798POPC   C4A39102  19.385   2.010   7.391
 2798POPC   C1B39103  18.822   1.810   6.253
 2798POPC   C2B39104  18.627   1.826   6.630
 2798POPC   C3B39105  18.764   1.821   7.041
 2798POPC   C4B39106  18.716   1.486   7.286
 2799POPC   NC339107  13.422  20.840   5.355
 2799POPC   PO439108  14.090  20.645   5.242
 2799POPC   GL139109  13.869  20.699   5.659
 2799POPC   GL239110  13.598  20.457   5.678
 2799POPC   C1A39111  13.885  20.587   6.115
 2799POPC   D2A39112  13.610  20.552   6.500
 2799POPC   C3A39113  13.762  20.612   6.926
 2799POPC   C4A39114  13.770  20.403   7.303
 2799POPC   C1B39115  13.412  20.743   6.004
 2799POPC   C2B39116  13.243  20.897   6.410
 2799POPC   C3B39117  13.282  20.813   6.865
 2799POPC   C4B39118  13.315  20.387   7.052
 2800POPC   NC339119  15.051  37.949   5.490
 2800POPC   PO439120  15.661  37.630   5.500
 2800POPC   GL139121  15.403  37.431   5.866
 2800POPC   GL239122  15.068  37.574   5.881
 2800POPC   C1A39123  15.380  37.453   6.333
 2800POPC   D2A39124  15.169  37.618   6.686
 2800POPC   C3A39125  15.362  37.619   7.051
 2800POPC   C4A39126  15.441  38.008   7.147
 2800POPC   C1B39127  14.892  37.748   6.271
 2800POPC   C2B39128  14.725  37.891   6.691
 2800POPC   C3B39129  14.884  37.965   7.139
 2800POPC   C4B39130  15.091  37.707   7.477
 2801POPC   NC339131  35.203   6.149   5.416
 2801POPC   PO439132  35.780   5.828   5.414
 2801POPC   GL139133  35.525   5.983   5.803
 2801POPC   GL239134  35.391   6.378   5.814
 2801POPC   C1A39135  35.494   5.797   6.248
 2801POPC   D2A39136  35.676   5.622   6.666
 2801POPC   C3A39137  35.503   5.768   7.066
 2801POPC   C4A39138  35.138   5.615   7.326
 2801POPC   C1B39139  35.560   6.320   6.189
 2801POPC   C2B39140  35.344   6.191   6.550
 2801POPC   C3B39141  35.449   6.273   6.951
 2801POPC   C4B39142  35.471   6.168   7.383
 2802POPC   NC339143   7.182  42.587   5.276
 2802POPC   PO439144   7.744  42.199   5.298
 2802POPC   GL139145   7.502  42.352   5.663
 2802POPC   GL239146   7.288  42.073   5.749
 2802POPC   C1A39147   7.448  42.514   6.119
 2802POPC   D2A39148   7.522  42.338   6.544
 2802POPC   C3A39149   7.398  42.523   6.926
 2802POPC   C4A39150   7.463  42.732   7.310
 2802POPC   C1B39151   7.555  42.000   6.140
 2802POPC   C2B39152   7.559  41.824   6.587
 2802POPC   C3B39153   7.491  42.028   6.999
 2802POPC   C4B39154   7.456  42.237   7.416
 2803POPC   NC339155  23.647  31.719   5.409
 2803POPC   PO439156  23.826  32.368   5.353
 2803POPC   GL139157  23.612  32.259   5.718
 2803POPC   GL239158  23.846  32.033   5.795
 2803POPC   C1A39159  23.582  32.397   6.158
 2803POPC   D2A39160  23.761  32.607   6.520
 2803POPC   C3A39161  23.679  32.347   6.860
 2803POPC   C4A39162  23.560  32.391   7.269
 2803POPC   C1B39163  23.496  31.901   6.085
 2803POPC   C2B39164  23.426  31.997   6.528
 2803POPC   C3B39165  23.438  31.786   6.950
 2803POPC   C4B39166  23.583  31.853   7.396
 2804POPC   NC339167  28.379  35.961   5.245
 2804POPC   PO439168  28.182  36.571   5.339
 2804POPC   GL139169  28.304  36.241   5.709
 2804POPC   GL239170  28.447  35.868   5.748
 2804POPC   C1A39171  28.450  36.212   6.185
 2804POPC   D2A39172  28.524  36.390   6.644
 2804POPC   C3A39173  28.206  36.399   7.005
 2804POPC   C4A39174  28.054  36.350   7.448
 2804POPC   C1B39175  28.733  35.774   6.120
 2804POPC   C2B39176  28.662  35.626   6.559
 2804POPC   C3B39177  28.738  35.717   6.980
 2804POPC   C4B39178  28.397  35.947   7.158
 2805POPC   NC339179   8.809   6.270   5.490
 2805POPC   PO439180   9.287   6.689   5.223
 2805POPC   GL139181   9.093   6.651   5.674
 2805POPC   GL239182   8.769   6.845   5.768
 2805POPC   C1A39183   8.937   6.447   6.090
 2805POPC   D2A39184   8.880   6.568   6.515
 2805POPC   C3A39185   9.110   6.332   6.815
 2805POPC   C4A39186   9.082   6.315   7.251
 2805POPC   C1B39187   8.751   6.974   6.223
 2805POPC   C2B39188   8.936   7.066   6.665
 2805POPC   C3B39189   8.954   6.946   7.130
 2805POPC   C4B39190   8.755   6.919   7.549
 2806POPC   NC339191  39.999  24.025   5.663
 2806POPC   PO439192  39.364  23.896   5.257
 2806POPC   GL139193  39.219  23.781   5.837
 2806POPC   GL239194  39.168  23.434   5.952
 2806POPC   C1A39195  39.203  23.888   6.257
 2806POPC   D2A39196  39.436  23.737   6.590
 2806POPC   C3A39197  39.261  23.894   6.955
 2806POPC   C4A39198  39.057  23.682   7.264
 2806POPC   C1B39199  39.158  23.247   6.359
 2806POPC   C2B39200  39.422  23.214   6.700
 2806POPC   C3B39201  39.457  23.404   7.103
 2806POPC   C4B39202  39.390  23.379   7.560
 2807POPC   NC339203  27.168  18.593   5.080
 2807POPC   PO439204  26.911  18.192   5.552
 2807POPC   GL139205  26.795  18.429   5.851
 2807POPC   GL239206  27.131  18.399   5.996
 2807POPC   C1A39207  26.693  18.390   6.270
 2807POPC   D2A39208  26.786  18.610   6.608
 2807POPC   C3A39209  26.688  18.410   6.943
 2807POPC   C4A39210  26.631  18.333   7.330
 2807POPC   C1B39211  26.964  17.976   6.178
 2807POPC   C2B39212  26.849  17.885   6.600
 2807POPC   C3B39213  26.889  17.938   7.054
 2807POPC   C4B39214  26.902  17.970   7.527
 2808POPC   NC339215  14.392   5.023   5.258
 2808POPC   PO439216  14.187   5.684   5.410
 2808POPC   GL139217  14.107   5.337   5.720
 2808POPC   GL239218  14.153   4.943   5.719
 2808POPC   C1A39219  14.278   5.243   6.140
 2808POPC   D2A39220  14.313   5.081   6.582
 2808POPC   C3A39221  14.464   5.340   6.947
 2808POPC   C4A39222  14.695   5.218   7.334
 2808POPC   C1B39223  14.296   4.738   6.128
 2808POPC   C2B39224  14.338   4.566   6.558
 2808POPC   C3B39225  14.435   4.768   6.987
 2808POPC   C4B39226  14.187   5.059   7.260
 2809POPC   NC339227  16.540  25.408   5.233
 2809POPC   PO439228  17.146  25.082   5.306
 2809POPC   GL139229  16.928  25.295   5.689
 2809POPC   GL239230  16.580  25.466   5.763
 2809POPC   C1A39231  16.858  25.284   6.161
 2809POPC   D2A39232  17.060  25.254   6.565
 2809POPC   C3A39233  16.865  25.280   6.952
 2809POPC   C4A39234  17.062  25.143   7.294
 2809POPC   C1B39235  16.318  25.326   6.145
 2809POPC   C2B39236  16.345  25.163   6.574
 2809POPC   C3B39237  16.336  25.320   7.022
 2809POPC   C4B39238  16.544  25.372   7.418
 2810POPC   NC339239   8.480  15.383   5.291
 2810POPC   PO439240   7.906  15.093   5.187
 2810POPC   GL139241   8.001  15.051   5.690
 2810POPC   GL239242   8.275  15.312   5.808
 2810POPC   C1A39243   8.107  14.926   6.161
 2810POPC   D2A39244   8.326  14.975   6.591
 2810POPC   C3A39245   8.063  15.070   6.969
 2810POPC   C4A39246   7.743  15.115   7.314
 2810POPC   C1B39247   8.551  15.223   6.200
 2810POPC   C2B39248   8.669  15.328   6.653
 2810POPC   C3B39249   8.588  15.529   7.040
 2810POPC   C4B39250   8.433  15.387   7.409
 2811POPC   NC339251  26.888  27.151   5.100
 2811POPC   PO439252  26.704  27.198   5.693
 2811POPC   GL139253  26.968  27.023   5.977
 2811POPC   GL239254  27.037  26.699   5.881
 2811POPC   C1A39255  27.020  26.905   6.417
 2811POPC   D2A39256  26.975  26.802   6.835
 2811POPC   C3A39257  26.637  26.903   7.170
 2811POPC   C4A39258  26.631  26.944   7.649
 2811POPC   C1B39259  27.174  26.452   6.275
 2811POPC   C2B39260  27.037  26.302   6.661
 2811POPC   C3B39261  27.186  26.408   7.044
 2811POPC   C4B39262  27.086  26.726   7.320
 2812POPC   NC339263  21.422   4.110   5.335
 2812POPC   PO439264  20.912   4.561   5.256
 2812POPC   GL139265  21.088   4.353   5.630
 2812POPC   GL239266  21.280   4.600   5.822
 2812POPC   C1A39267  21.345   4.099   5.984
 2812POPC   D2A39268  21.414   4.142   6.450
 2812POPC   C3A39269  21.586   4.485   6.726
 2812POPC   C4A39270  21.627   4.440   7.183
 2812POPC   C1B39271  20.962   4.397   6.117
 2812POPC   C2B39272  20.920   4.285   6.550
 2812POPC   C3B39273  21.165   4.280   6.938
 2812POPC   C4B39274  21.155   4.582   7.321
 2813POPC   NC339275  23.221  17.828   5.437
 2813POPC   PO439276  22.725  18.095   5.543
 2813POPC   GL139277  23.090  18.196   5.830
 2813POPC   GL239278  23.378  17.989   5.900
 2813POPC   C1A39279  23.150  18.262   6.297
 2813POPC   D2A39280  23.124  18.010   6.683
 2813POPC   C3A39281  22.996  18.098   7.120
 2813POPC   C4A39282  22.629  17.876   7.314
 2813POPC   C1B39283  23.423  17.756   6.271
 2813POPC   C2B39284  23.600  17.850   6.662
 2813POPC   C3B39285  23.418  17.768   7.028
 2813POPC   C4B39286  23.323  17.849   7.442
 2814POPC   NC339287  19.302  26.704   5.306
 2814POPC   PO439288  19.171  27.358   5.264
 2814POPC   GL139289  18.975  27.004   5.547
 2814POPC   GL239290  19.295  27.053   5.691
 2814POPC   C1A39291  18.985  26.748   5.967
 2814POPC   D2A39292  19.012  26.914   6.409
 2814POPC   C3A39293  18.915  26.750   6.827
 2814POPC   C4A39294  18.972  26.932   7.245
 2814POPC   C1B39295  19.403  27.045   6.104
 2814POPC   C2B39296  19.488  27.126   6.525
 2814POPC   C3B39297  19.185  27.210   6.853
 2814POPC   C4B39298  19.392  27.221   7.239
 2815POPC   NC339299  29.346  13.771   5.457
 2815POPC   PO439300  29.240  13.189   5.510
 2815POPC   GL139301  29.490  13.441   5.846
 2815POPC   GL239302  29.531  13.797   5.936
 2815POPC   C1A39303  29.371  13.485   6.305
 2815POPC   D2A39304  29.281  13.665   6.746
 2815POPC   C3A39305  29.416  13.478   7.151
 2815POPC   C4A39306  29.266  13.314   7.589
 2815POPC   C1B39307  29.193  13.968   6.225
 2815POPC   C2B39308  29.044  14.117   6.642
 2815POPC   C3B39309  28.986  13.950   7.095
 2815POPC   C4B39310  29.178  13.809   7.492
 2816POPC   NC339311   3.426  19.910   5.393
 2816POPC   PO439312   3.805  19.509   5.683
 2816POPC   GL139313   3.616  19.878   5.878
 2816POPC   GL239314   3.236  20.003   5.864
 2816POPC   C1A39315   3.500  19.866   6.292
 2816POPC   D2A39316   3.320  19.713   6.661
 2816POPC   C3A39317   3.520  19.820   7.030
 2816POPC   C4A39318   3.690  19.490   7.271
 2816POPC   C1B39319   3.247  20.309   6.225
 2816POPC   C2B39320   3.443  20.217   6.645
 2816POPC   C3B39321   3.246  20.284   7.011
 2816POPC   C4B39322   3.254  20.109   7.382
 2817POPC   NC339323  34.537  15.450   5.450
 2817POPC   PO439324  34.631  14.822   5.281
 2817POPC   GL139325  34.656  15.011   5.707
 2817POPC   GL239326  34.315  14.895   5.820
 2817POPC   C1A39327  34.660  15.341   6.081
 2817POPC   D2A39328  34.746  15.474   6.527
 2817POPC   C3A39329  34.647  15.293   6.970
 2817POPC   C4A39330  34.746  15.075   7.350
 2817POPC   C1B39331  34.599  14.840   6.180
 2817POPC   C2B39332  34.532  14.961   6.597
 2817POPC   C3B39333  34.479  14.808   7.017
 2817POPC   C4B39334  34.304  14.832   7.447
 2818POPC   NC339335  17.309   1.267   5.574
 2818POPC   PO439336  17.836   1.632   5.754
 2818POPC   GL139337  17.649   1.407   6.032
 2818POPC   GL239338  17.601   1.068   6.011
 2818POPC   C1A39339  17.732   1.300   6.441
 2818POPC   D2A39340  17.597   1.430   6.812
 2818POPC   C3A39341  17.654   1.124   7.107
 2818POPC   C4A39342  17.728   1.276   7.490
 2818POPC   C1B39343  17.222   1.186   6.214
 2818POPC   C2B39344  17.116   1.306   6.594
 2818POPC   C3B39345  17.163   1.225   6.990
 2818POPC   C4B39346  17.226   1.020   7.372
 2819POPC   NC339347   1.844   3.879   5.421
 2819POPC   PO439348   2.377   4.191   5.438
 2819POPC   GL139349   2.153   4.240   5.795
 2819POPC   GL239350   2.388   4.536   5.863
 2819POPC   C1A39351   1.955   4.054   6.191
 2819POPC   D2A39352   2.179   4.004   6.619
 2819POPC   C3A39353   1.971   4.198   6.964
 2819POPC   C4A39354   1.625   4.356   7.203
 2819POPC   C1B39355   2.097   4.549   6.213
 2819POPC   C2B39356   1.997   4.732   6.604
 2819POPC   C3B39357   1.909   4.712   7.022
 2819POPC   C4B39358   2.122   4.537   7.403
 2820POPC   NC339359  17.295  10.615   5.291
 2820POPC   PO439360  17.842  10.289   5.393
 2820POPC   GL139361  17.634  10.446   5.786
 2820POPC   GL239362  17.439  10.777   5.771
 2820POPC   C1A39363  17.733  10.694   6.176
 2820POPC   D2A39364  17.524  10.825   6.527
 2820POPC   C3A39365  17.516  10.581   6.881
 2820POPC   C4A39366  17.403  10.700   7.265
 2820POPC   C1B39367  17.237  10.514   6.129
 2820POPC   C2B39368  17.099  10.492   6.585
 2820POPC   C3B39369  17.040  10.352   7.028
 2820POPC   C4B39370  17.104  10.344   7.503
 2821POPC   NC339371  26.495  17.999   5.602
 2821POPC   PO439372  25.955  18.358   5.309
 2821POPC   GL139373  25.996  18.161   5.721
 2821POPC   GL239374  26.014  18.484   5.814
 2821POPC   C1A39375  26.191  18.183   6.179
 2821POPC   D2A39376  26.402  18.139   6.595
 2821POPC   C3A39377  26.200  18.217   6.979
 2821POPC   C4A39378  26.199  18.585   7.208
 2821POPC   C1B39379  25.845  18.725   6.141
 2821POPC   C2B39380  25.691  18.756   6.546
 2821POPC   C3B39381  25.801  18.791   6.959
 2821POPC   C4B39382  25.710  18.620   7.387
 2822POPC   NC339383  35.429  13.787   5.238
 2822POPC   PO439384  35.158  13.174   5.235
 2822POPC   GL139385  35.203  13.420   5.687
 2822POPC   GL239386  35.251  13.809   5.732
 2822POPC   C1A39387  35.099  13.527   6.150
 2822POPC   D2A39388  35.345  13.619   6.553
 2822POPC   C3A39389  35.165  13.678   6.971
 2822POPC   C4A39390  35.001  13.310   7.165
 2822POPC   C1B39391  35.530  13.793   6.100
 2822POPC   C2B39392  35.579  14.047   6.455
 2822POPC   C3B39393  35.611  13.997   6.856
 2822POPC   C4B39394  35.482  13.975   7.257
 2823POPC   NC339395  32.314  13.051   5.592
 2823POPC   PO439396  32.243  12.389   5.540
 2823POPC   GL139397  32.069  12.661   5.861
 2823POPC   GL239398  31.835  12.929   5.783
 2823POPC   C1A39399  32.087  12.744   6.294
 2823POPC   D2A39400  32.154  12.467   6.661
 2823POPC   C3A39401  32.163  12.695   7.029
 2823POPC   C4A39402  32.399  12.884   7.366
 2823POPC   C1B39403  31.916  13.220   6.130
 2823POPC   C2B39404  31.774  13.149   6.551
 2823POPC   C3B39405  32.027  13.226   6.899
 2823POPC   C4B39406  31.940  13.103   7.288
 2824POPC   NC339407  27.008   6.684   5.488
 2824POPC   PO439408  26.334   6.787   5.440
 2824POPC   GL139409  26.571   6.564   5.787
 2824POPC   GL239410  26.834   6.785   5.957
 2824POPC   C1A39411  26.541   6.498   6.252
 2824POPC   D2A39412  26.770   6.716   6.576
 2824POPC   C3A39413  26.777   6.536   6.957
 2824POPC   C4A39414  26.673   6.342   7.321
 2824POPC   C1B39415  27.156   6.878   6.296
 2824POPC   C2B39416  27.166   7.137   6.639
 2824POPC   C3B39417  27.248   6.840   6.962
 2824POPC   C4B39418  27.071   6.692   7.328
 2825POPC   NC339419   7.586  40.319   5.558
 2825POPC   PO439420   7.119  39.777   5.434
 2825POPC   GL139421   7.270  39.861   5.861
 2825POPC   GL239422   7.174  40.193   5.927
 2825POPC   C1A39423   7.298  39.907   6.341
 2825POPC   D2A39424   7.170  40.282   6.632
 2825POPC   C3A39425   7.395  40.243   7.037
 2825POPC   C4A39426   7.519  39.788   7.008
 2825POPC   C1B39427   7.508  40.344   6.222
 2825POPC   C2B39428   7.704  40.223   6.603
 2825POPC   C3B39429   7.919  40.146   6.970
 2825POPC   C4B39430   7.805  40.029   7.355
 2826POPC   NC339431  36.719  14.682   5.233
 2826POPC   PO439432  37.116  14.187   5.240
 2826POPC   GL139433  37.046  14.478   5.631
 2826POPC   GL239434  36.713  14.521   5.779
 2826POPC   C1A39435  37.119  14.686   6.059
 2826POPC   D2A39436  37.054  14.743   6.525
 2826POPC   C3A39437  37.280  14.456   6.841
 2826POPC   C4A39438  37.310  14.056   7.073
 2826POPC   C1B39439  36.749  14.337   6.205
 2826POPC   C2B39440  36.828  14.273   6.642
 2826POPC   C3B39441  36.794  14.259   7.085
 2826POPC   C4B39442  36.512  13.954   7.263
 2827POPC   NC339443   1.106  40.437   5.488
 2827POPC   PO439444   1.575  39.902   5.509
 2827POPC   GL139445   1.428  40.219   5.838
 2827POPC   GL239446   1.651  40.500   5.776
 2827POPC   C1A39447   1.257  40.304   6.304
 2827POPC   D2A39448   1.308  40.049   6.711
 2827POPC   C3A39449   1.150  40.025   7.169
 2827POPC   C4A39450   1.084  39.860   7.625
 2827POPC   C1B39451   1.753  40.331   6.207
 2827POPC   C2B39452   1.629  40.445   6.651
 2827POPC   C3B39453   1.609  40.253   7.072
 2827POPC   C4B39454   1.529  40.072   7.503
 2828POPC   NC339455  16.126   3.818   5.458
 2828POPC   PO439456  15.682   4.244   5.258
 2828POPC   GL139457  15.782   4.093   5.759
 2828POPC   GL239458  15.588   4.335   5.946
 2828POPC   C1A39459  16.086   4.295   6.136
 2828POPC   D2A39460  16.314   4.574   6.475
 2828POPC   C3A39461  16.257   4.482   6.925
 2828POPC   C4A39462  15.938   4.160   7.130
 2828POPC   C1B39463  15.648   4.367   6.357
 2828POPC   C2B39464  15.851   4.447   6.644
 2828POPC   C3B39465  15.742   4.586   6.998
 2828POPC   C4B39466  15.457   4.305   7.241
 2829POPC   NC339467   4.859  16.715   5.167
 2829POPC   PO439468   4.257  16.774   5.484
 2829POPC   GL139469   4.397  16.757   5.939
 2829POPC   GL239470   4.688  16.505   5.893
 2829POPC   C1A39471   4.430  17.006   6.353
 2829POPC   D2A39472   4.184  17.078   6.737
 2829POPC   C3A39473   4.334  16.822   7.073
 2829POPC   C4A39474   4.198  16.974   7.481
 2829POPC   C1B39475   4.820  16.660   6.297
 2829POPC   C2B39476   4.761  16.678   6.757
 2829POPC   C3B39477   4.611  16.348   7.061
 2829POPC   C4B39478   4.555  16.152   7.490
 2830POPC   NC339479  18.280  12.449   5.445
 2830POPC   PO439480  18.099  11.837   5.380
 2830POPC   GL139481  18.350  11.975   5.746
 2830POPC   GL239482  18.637  12.232   5.752
 2830POPC   C1A39483  18.165  12.077   6.150
 2830POPC   D2A39484  18.186  12.262   6.559
 2830POPC   C3A39485  18.032  12.052   6.898
 2830POPC   C4A39486  18.201  12.100   7.293
 2830POPC   C1B39487  18.656  12.184   6.202
 2830POPC   C2B39488  18.674  12.061   6.621
 2830POPC   C3B39489  18.580  12.261   6.993
 2830POPC   C4B39490  18.522  12.574   7.277
 2831POPC   NC339491  13.314  33.807   5.276
 2831POPC   PO439492  13.958  34.016   5.360
 2831POPC   GL139493  13.825  33.732   5.687
 2831POPC   GL239494  13.485  33.630   5.729
 2831POPC   C1A39495  13.766  33.751   6.136
 2831POPC   D2A39496  13.599  34.059   6.426
 2831POPC   C3A39497  13.556  33.971   6.858
 2831POPC   C4A39498  13.711  33.952   7.248
 2831POPC   C1B39499  13.326  33.498   6.118
 2831POPC   C2B39500  13.313  33.637   6.533
 2831POPC   C3B39501  13.249  33.518   6.936
 2831POPC   C4B39502  13.395  33.574   7.324
 2832POPC   NC339503  11.788   9.001   5.424
 2832POPC   PO439504  12.471   8.846   5.265
 2832POPC   GL139505  12.215   8.888   5.704
 2832POPC   GL239506  12.364   9.125   5.947
 2832POPC   C1A39507  11.875   8.936   6.071
 2832POPC   D2A39508  11.822   9.187   6.469
 2832POPC   C3A39509  11.991   9.097   6.873
 2832POPC   C4A39510  11.754   9.066   7.237
 2832POPC   C1B39511  12.313   8.750   6.227
 2832POPC   C2B39512  12.516   8.666   6.628
 2832POPC   C3B39513  12.407   8.796   7.025
 2832POPC   C4B39514  12.235   8.991   7.394
 2833POPC   NC339515  43.378  26.676   5.530
 2833POPC   PO439516  43.952  26.735   5.195
 2833POPC   GL139517  43.921  26.761   5.703
 2833POPC   GL239518  43.662  26.628   5.948
 2833POPC   C1A39519  43.990  26.967   6.137
 2833POPC   D2A39520  44.082  26.851   6.579
 2833POPC   C3A39521  43.876  26.923   6.982
 2833POPC   C4A39522  44.059  27.165   7.329
 2833POPC   C1B39523  43.479  26.657   6.337
 2833POPC   C2B39524  43.433  26.720   6.792
 2833POPC   C3B39525  43.583  26.536   7.200
 2833POPC   C4B39526  43.792  26.572   7.635
 2834POPC   NC339527  11.656  29.718   5.068
 2834POPC   PO439528  12.139  30.144   5.454
 2834POPC   GL139529  12.271  30.055   5.883
 2834POPC   GL239530  12.633  30.066   5.810
 2834POPC   C1A39531  12.082  29.843   6.269
 2834POPC   D2A39532  11.947  29.754   6.704
 2834POPC   C3A39533  11.884  30.143   6.935
 2834POPC   C4A39534  11.806  30.122   7.396
 2834POPC   C1B39535  12.561  29.687   6.113
 2834POPC   C2B39536  12.407  29.542   6.502
 2834POPC   C3B39537  12.409  29.571   6.910
 2834POPC   C4B39538  12.211  29.863   7.175
 2835POPC   NC339539  38.274   5.103   5.170
 2835POPC   PO439540  38.875   4.887   5.524
 2835POPC   GL139541  38.575   4.968   5.824
 2835POPC   GL239542  38.277   5.053   5.694
 2835POPC   C1A39543  38.592   5.093   6.231
 2835POPC   D2A39544  38.573   4.900   6.629
 2835POPC   C3A39545  38.743   5.061   7.006
 2835POPC   C4A39546  38.588   4.796   7.317
 2835POPC   C1B39547  38.095   5.179   6.119
 2835POPC   C2B39548  38.176   5.245   6.575
 2835POPC   C3B39549  38.234   5.088   7.007
 2835POPC   C4B39550  38.409   5.295   7.371
 2836POPC   NC339551  19.083   3.663   5.424
 2836POPC   PO439552  18.978   2.941   5.383
 2836POPC   GL139553  19.105   3.275   5.758
 2836POPC   GL239554  18.849   3.519   5.963
 2836POPC   C1A39555  19.295   3.435   6.172
 2836POPC   D2A39556  18.991   3.574   6.476
 2836POPC   C3A39557  19.000   3.526   6.910
 2836POPC   C4A39558  19.320   3.421   7.212
 2836POPC   C1B39559  19.080   3.892   6.064
 2836POPC   C2B39560  19.289   4.053   6.427
 2836POPC   C3B39561  19.310   3.911   6.844
 2836POPC   C4B39562  19.027   3.969   7.208
 2837POPC   NC339563  32.977  29.206   5.374
 2837POPC   PO439564  33.520  28.830   5.439
 2837POPC   GL139565  33.313  29.120   5.765
 2837POPC   GL239566  32.923  29.256   5.859
 2837POPC   C1A39567  33.229  29.073   6.194
 2837POPC   D2A39568  33.021  29.273   6.523
 2837POPC   C3A39569  33.207  29.137   6.905
 2837POPC   C4A39570  33.297  29.068   7.321
 2837POPC   C1B39571  32.716  29.029   6.173
 2837POPC   C2B39572  32.536  29.091   6.574
 2837POPC   C3B39573  32.723  29.153   6.983
 2837POPC   C4B39574  32.784  29.017   7.433
 2838POPC   NC339575  37.298  42.841   5.387
 2838POPC   PO439576  37.551  42.130   5.505
 2838POPC   GL139577  37.876  42.159   5.868
 2838POPC   GL239578  37.798  42.480   5.926
 2838POPC   C1A39579  38.009  42.321   6.341
 2838POPC   D2A39580  37.707  42.562   6.629
 2838POPC   C3A39581  37.786  42.576   7.070
 2838POPC   C4A39582  37.844  42.222   7.324
 2838POPC   C1B39583  37.513  42.266   6.228
 2838POPC   C2B39584  37.307  42.230   6.649
 2838POPC   C3B39585  37.404  42.119   7.073
 2838POPC   C4B39586  37.288  42.318   7.458
 2839POPC   NC339587  41.655  31.629   5.230
 2839POPC   PO439588  41.267  31.311   5.688
 2839POPC   GL139589  41.646  31.555   5.738
 2839POPC   GL239590  41.752  31.265   5.907
 2839POPC   C1A39591  41.660  31.701   6.138
 2839POPC   D2A39592  41.421  31.408   6.449
 2839POPC   C3A39593  41.364  31.521   6.881
 2839POPC   C4A39594  41.595  31.544   7.237
 2839POPC   C1B39595  41.683  31.011   6.249
 2839POPC   C2B39596  41.769  31.079   6.646
 2839POPC   C3B39597  41.576  31.082   7.005
 2839POPC   C4B39598  41.858  30.984   7.250
 2840POPC   NC339599  15.293  28.589   5.667
 2840POPC   PO439600  14.881  28.106   5.426
 2840POPC   GL139601  15.005  28.142   5.879
 2840POPC   GL239602  15.366  28.140   5.941
 2840POPC   C1A39603  15.072  28.331   6.290
 2840POPC   D2A39604  15.190  28.455   6.676
 2840POPC   C3A39605  14.900  28.308   6.961
 2840POPC   C4A39606  14.915  28.616   7.222
 2840POPC   C1B39607  15.516  28.117   6.377
 2840POPC   C2B39608  15.630  28.218   6.779
 2840POPC   C3B39609  15.388  28.318   7.173
 2840POPC   C4B39610  15.536  28.187   7.643
 2841POPC   NC339611  22.109  13.331   5.393
 2841POPC   PO439612  21.583  13.788   5.380
 2841POPC   GL139613  22.009  13.775   5.654
 2841POPC   GL239614  22.039  13.467   5.886
 2841POPC   C1A39615  22.222  13.896   6.072
 2841POPC   D2A39616  22.251  13.949   6.528
 2841POPC   C3A39617  22.262  13.730   6.909
 2841POPC   C4A39618  22.133  13.862   7.298
 2841POPC   C1B39619  21.883  13.246   6.296
 2841POPC   C2B39620  21.930  13.335   6.766
 2841POPC   C3B39621  22.047  13.351   7.223
 2841POPC   C4B39622  21.857  13.546   7.611
 2842POPC   NC339623  22.680  39.299   5.457
 2842POPC   PO439624  23.297  39.289   5.563
 2842POPC   GL139625  22.920  39.203   5.888
 2842POPC   GL239626  22.702  39.493   5.965
 2842POPC   C1A39627  22.564  39.070   6.209
 2842POPC   D2A39628  22.576  38.983   6.682
 2842POPC   C3A39629  22.683  39.297   6.995
 2842POPC   C4A39630  23.014  39.417   7.265
 2842POPC   C1B39631  22.873  39.404   6.442
 2842POPC   C2B39632  23.157  39.207   6.800
 2842POPC   C3B39633  23.476  39.248   7.163
 2842POPC   C4B39634  23.403  39.298   7.618
 2843POPC   NC339635  42.925   5.531   5.647
 2843POPC   PO439636  43.288   6.148   5.587
 2843POPC   GL139637  43.218   5.872   5.907
 2843POPC   GL239638  43.445   5.603   5.772
 2843POPC   C1A39639  42.959   5.765   6.271
 2843POPC   D2A39640  42.912   5.640   6.693
 2843POPC   C3A39641  43.049   5.964   6.984
 2843POPC   C4A39642  43.190   6.290   7.223
 2843POPC   C1B39643  43.424   5.497   6.215
 2843POPC   C2B39644  43.402   5.727   6.588
 2843POPC   C3B39645  43.373   5.596   6.999
 2843POPC   C4B39646  43.626   5.453   7.301
 2844POPC   NC339647   6.663  15.552   5.414
 2844POPC   PO439648   7.038  14.941   5.345
 2844POPC   GL139649   6.876  15.177   5.685
 2844POPC   GL239650   6.519  15.171   5.782
 2844POPC   C1A39651   6.903  15.184   6.113
 2844POPC   D2A39652   6.828  15.158   6.544
 2844POPC   C3A39653   6.840  15.455   6.898
 2844POPC   C4A39654   6.794  15.350   7.336
 2844POPC   C1B39655   6.405  15.072   6.223
 2844POPC   C2B39656   6.426  14.881   6.654
 2844POPC   C3B39657   6.527  14.987   7.078
 2844POPC   C4B39658   6.430  15.023   7.513
 2845POPC   NC339659  35.624  35.076   5.411
 2845POPC   PO439660  35.044  35.557   5.385
 2845POPC   GL139661  35.305  35.388   5.775
 2845POPC   GL239662  35.652  35.476   5.846
 2845POPC   C1A39663  35.217  35.171   6.212
 2845POPC   D2A39664  35.011  35.306   6.631
 2845POPC   C3A39665  35.209  35.338   7.024
 2845POPC   C4A39666  35.612  35.155   7.102
 2845POPC   C1B39667  35.499  35.592   6.277
 2845POPC   C2B39668  35.569  35.620   6.739
 2845POPC   C3B39669  35.870  35.597   7.066
 2845POPC   C4B39670  36.108  35.699   7.417
 2846POPC   NC339671   4.166   7.033   5.413
 2846POPC   PO439672   4.609   6.482   5.475
 2846POPC   GL139673   4.504   6.722   5.798
 2846POPC   GL239674   4.198   6.582   5.817
 2846POPC   C1A39675   4.575   6.598   6.230
 2846POPC   D2A39676   4.702   6.771   6.623
 2846POPC   C3A39677   4.487   6.639   6.977
 2846POPC   C4A39678   4.536   6.420   7.370
 2846POPC   C1B39679   4.174   6.894   6.144
 2846POPC   C2B39680   4.250   7.022   6.559
 2846POPC   C3B39681   4.083   6.962   6.974
 2846POPC   C4B39682   4.065   6.575   7.275
 2847POPC   NC339683  29.183  15.764   5.471
 2847POPC   PO439684  28.785  16.331   5.383
 2847POPC   GL139685  28.986  16.151   5.776
 2847POPC   GL239686  28.936  15.801   5.914
 2847POPC   C1A39687  29.212  16.127   6.179
 2847POPC   D2A39688  29.024  15.922   6.550
 2847POPC   C3A39689  28.912  16.171   6.926
 2847POPC   C4A39690  28.937  16.403   7.311
 2847POPC   C1B39691  28.907  15.494   6.262
 2847POPC   C2B39692  28.906  15.416   6.723
 2847POPC   C3B39693  29.063  15.707   7.031
 2847POPC   C4B39694  28.900  15.900   7.409
 2848POPC   NC339695  36.272  42.742   5.451
 2848POPC   PO439696  36.323  43.410   5.349
 2848POPC   GL139697  36.252  43.421   5.788
 2848POPC   GL239698  36.492  43.152   5.842
 2848POPC   C1A39699  36.067  43.401   6.231
 2848POPC   D2A39700  35.964  43.053   6.555
 2848POPC   C3A39701  36.068  43.064   6.992
 2848POPC   C4A39702  36.127  43.436   7.219
 2848POPC   C1B39703  36.573  43.335   6.243
 2848POPC   C2B39704  36.424  43.392   6.672
 2848POPC   C3B39705  36.550  43.194   7.046
 2848POPC   C4B39706  36.396  43.089   7.463
 2849POPC   NC339707  27.497   0.187   5.391
 2849POPC   PO439708  27.474   0.852   5.472
 2849POPC   GL139709  27.428   0.541   5.774
 2849POPC   GL239710  27.754   0.497   5.875
 2849POPC   C1A39711  27.329   0.346   6.179
 2849POPC   D2A39712  27.281   0.371   6.623
 2849POPC   C3A39713  27.546   0.632   6.857
 2849POPC   C4A39714  27.647   0.512   7.260
 2849POPC   C1B39715  27.756   0.093   6.090
 2849POPC   C2B39716  27.606  44.988   6.495
 2849POPC   C3B39717  27.749   0.170   6.893
 2849POPC   C4B39718  27.762   0.027   7.342
 2850POPC   NC339719  23.149   4.298   5.382
 2850POPC   PO439720  22.499   4.579   5.393
 2850POPC   GL139721  22.822   4.516   5.726
 2850POPC   GL239722  22.879   4.137   5.781
 2850POPC   C1A39723  22.707   4.528   6.175
 2850POPC   D2A39724  22.472   4.397   6.542
 2850POPC   C3A39725  22.718   4.378   6.904
 2850POPC   C4A39726  22.709   4.541   7.296
 2850POPC   C1B39727  23.158   4.293   6.111
 2850POPC   C2B39728  23.069   4.216   6.544
 2850POPC   C3B39729  23.229   4.316   6.958
 2850POPC   C4B39730  23.046   4.111   7.294
 2851POPC   NC339731   1.511  24.179   5.637
 2851POPC   PO439732   2.126  24.010   5.393
 2851POPC   GL139733   1.962  24.031   5.811
 2851POPC   GL239734   1.797  23.729   5.929
 2851POPC   C1A39735   2.121  24.111   6.227
 2851POPC   D2A39736   2.270  23.812   6.512
 2851POPC   C3A39737   2.309  23.810   6.951
 2851POPC   C4A39738   2.289  23.435   7.258
 2851POPC   C1B39739   1.625  23.985   6.248
 2851POPC   C2B39740   1.808  24.029   6.652
 2851POPC   C3B39741   1.796  23.781   6.996
 2851POPC   C4B39742   2.016  23.863   7.362
 2852POPC   NC339743  11.716   1.326   5.278
 2852POPC   PO439744  12.321   1.046   5.515
 2852POPC   GL139745  12.020   1.194   5.870
 2852POPC   GL239746  11.689   1.380   5.794
 2852POPC   C1A39747  12.104   1.203   6.328
 2852POPC   D2A39748  11.953   1.021   6.735
 2852POPC   C3A39749  12.241   1.149   7.051
 2852POPC   C4A39750  12.383   1.305   7.458
 2852POPC   C1B39751  11.615   1.302   6.237
 2852POPC   C2B39752  11.778   1.529   6.597
 2852POPC   C3B39753  11.921   1.533   7.020
 2852POPC   C4B39754  11.900   1.267   7.416
 2853POPC   NC339755  32.219  17.795   5.037
 2853POPC   PO439756  32.703  17.382   5.197
 2853POPC   GL139757  32.331  17.475   5.561
 2853POPC   GL239758  32.029  17.245   5.664
 2853POPC   C1A39759  32.172  17.661   6.003
 2853POPC   D2A39760  32.031  17.532   6.460
 2853POPC   C3A39761  32.187  17.703   6.854
 2853POPC   C4A39762  32.154  17.603   7.254
 2853POPC   C1B39763  32.140  17.144   6.078
 2853POPC   C2B39764  32.265  17.077   6.487
 2853POPC   C3B39765  32.166  17.187   6.902
 2853POPC   C4B39766  32.318  17.091   7.305
 2854POPC   NC339767  11.532  40.828   5.528
 2854POPC   PO439768  12.214  40.461   5.467
 2854POPC   GL139769  12.020  40.809   5.704
 2854POPC   GL239770  12.253  41.012   5.879
 2854POPC   C1A39771  11.841  40.774   6.118
 2854POPC   D2A39772  11.838  40.808   6.566
 2854POPC   C3A39773  11.696  40.560   6.896
 2854POPC   C4A39774  12.004  40.489   7.185
 2854POPC   C1B39775  12.025  41.243   6.201
 2854POPC   C2B39776  11.961  41.300   6.657
 2854POPC   C3B39777  12.080  41.144   7.077
 2854POPC   C4B39778  12.286  41.144   7.510
 2855POPC   NC339779   6.889   9.185   5.478
 2855POPC   PO439780   6.365   8.741   5.493
 2855POPC   GL139781   6.491   9.004   5.804
 2855POPC   GL239782   6.843   8.888   5.896
 2855POPC   C1A39783   6.446   8.904   6.234
 2855POPC   D2A39784   6.566   8.823   6.625
 2855POPC   C3A39785   6.333   8.971   6.983
 2855POPC   C4A39786   6.473   8.769   7.350
 2855POPC   C1B39787   6.773   9.286   6.167
 2855POPC   C2B39788   6.865   9.266   6.613
 2855POPC   C3B39789   6.833   9.024   7.016
 2855POPC   C4B39790   6.825   9.139   7.429
 2856POPC   NC339791  31.597   4.098   5.260
 2856POPC   PO439792  31.093   4.516   5.487
 2856POPC   GL139793  31.352   4.247   5.786
 2856POPC   GL239794  31.718   4.244   5.756
 2856POPC   C1A39795  31.442   4.297   6.238
 2856POPC   D2A39796  31.542   4.594   6.584
 2856POPC   C3A39797  31.331   4.484   7.002
 2856POPC   C4A39798  31.221   4.141   7.309
 2856POPC   C1B39799  31.966   4.337   6.107
 2856POPC   C2B39800  31.883   4.206   6.496
 2856POPC   C3B39801  31.874   4.345   6.900
 2856POPC   C4B39802  31.715   4.330   7.304
 2857POPC   NC339803   0.489  19.481   5.167
 2857POPC   PO439804   0.568  20.062   5.460
 2857POPC   GL139805   0.450  19.897   5.836
 2857POPC   GL239806   0.744  19.879   5.990
 2857POPC   C1A39807   0.233  20.074   6.219
 2857POPC   D2A39808   0.271  20.234   6.652
 2857POPC   C3A39809   0.469  19.947   6.929
 2857POPC   C4A39810   0.190  19.978   7.264
 2857POPC   C1B39811   0.791  19.618   6.340
 2857POPC   C2B39812   0.804  19.360   6.710
 2857POPC   C3B39813   0.624  19.478   7.099
 2857POPC   C4B39814   0.614  19.769   7.453
 2858POPC   NC339815  24.892  29.665   5.429
 2858POPC   PO439816  25.393  30.132   5.530
 2858POPC   GL139817  25.227  30.140   5.927
 2858POPC   GL239818  24.938  29.991   5.836
 2858POPC   C1A39819  25.071  30.051   6.339
 2858POPC   D2A39820  25.050  30.189   6.722
 2858POPC   C3A39821  25.296  29.953   6.995
 2858POPC   C4A39822  25.002  30.018   7.255
 2858POPC   C1B39823  24.964  29.619   6.123
 2858POPC   C2B39824  24.802  29.585   6.542
 2858POPC   C3B39825  24.943  29.532   6.983
 2858POPC   C4B39826  24.915  29.546   7.447
 2859POPC   NC339827  44.591  41.486   5.360
 2859POPC   PO439828   0.138  41.086   5.369
 2859POPC   GL139829  44.941  41.367   5.730
 2859POPC   GL239830  44.555  41.376   5.841
 2859POPC   C1A39831  44.905  41.512   6.181
 2859POPC   D2A39832  44.965  41.745   6.581
 2859POPC   C3A39833  44.762  41.595   6.969
 2859POPC   C4A39834  44.733  41.148   7.103
 2859POPC   C1B39835  44.388  41.682   6.146
 2859POPC   C2B39836  44.456  41.865   6.553
 2859POPC   C3B39837  44.281  41.906   6.973
 2859POPC   C4B39838  44.450  41.735   7.358
 2860POPC   NC339839  26.120   2.701   4.910
 2860POPC   PO439840  26.310   3.005   5.492
 2860POPC   GL139841  26.050   2.878   5.783
 2860POPC   GL239842  25.814   3.145   5.810
 2860POPC   C1A39843  26.024   2.604   6.121
 2860POPC   D2A39844  25.793   2.413   6.463
 2860POPC   C3A39845  25.912   2.620   6.827
 2860POPC   C4A39846  25.980   2.525   7.265
 2860POPC   C1B39847  25.978   3.130   6.221
 2860POPC   C2B39848  25.805   3.070   6.601
 2860POPC   C3B39849  25.868   3.079   7.033
 2860POPC   C4B39850  25.530   3.305   7.255
 2861POPC   NC339851  12.267  30.621   5.333
 2861POPC   PO439852  11.735  31.034   5.490
 2861POPC   GL139853  11.957  30.777   5.794
 2861POPC   GL239854  11.880  30.423   5.884
 2861POPC   C1A39855  12.076  30.800   6.236
 2861POPC   D2A39856  11.816  30.760   6.621
 2861POPC   C3A39857  11.985  30.733   7.047
 2861POPC   C4A39858  12.365  30.768   7.368
 2861POPC   C1B39859  11.983  30.326   6.348
 2861POPC   C2B39860  12.264  30.517   6.666
 2861POPC   C3B39861  12.316  30.354   7.095
 2861POPC   C4B39862  12.298  30.271   7.539
 2862POPC   NC339863  16.275  10.515   5.634
 2862POPC   PO439864  16.857  10.458   5.281
 2862POPC   GL139865  16.791  10.623   5.732
 2862POPC   GL239866  16.579  10.935   5.730
 2862POPC   C1A39867  16.709  10.504   6.207
 2862POPC   D2A39868  16.644  10.254   6.628
 2862POPC   C3A39869  16.481  10.421   6.974
 2862POPC   C4A39870  16.722  10.639   7.305
 2862POPC   C1B39871  16.621  11.022   6.167
 2862POPC   C2B39872  16.452  10.848   6.528
 2862POPC   C3B39873  16.512  10.928   6.942
 2862POPC   C4B39874  16.238  10.755   7.269
 2863POPC   NC339875  11.592  27.555   5.134
 2863POPC   PO439876  12.240  27.379   5.368
 2863POPC   GL139877  12.078  27.519   5.751
 2863POPC   GL239878  11.834  27.724   5.656
 2863POPC   C1A39879  12.130  27.519   6.192
 2863POPC   D2A39880  11.885  27.378   6.521
 2863POPC   C3A39881  12.011  27.521   6.934
 2863POPC   C4A39882  12.327  27.446   7.278
 2863POPC   C1B39883  11.810  27.920   6.087
 2863POPC   C2B39884  11.693  27.891   6.513
 2863POPC   C3B39885  11.793  27.993   6.922
 2863POPC   C4B39886  12.077  27.891   7.267
 2864POPC   NC339887   1.062  41.275   5.154
 2864POPC   PO439888   1.554  40.889   5.370
 2864POPC   GL139889   1.323  40.913   5.785
 2864POPC   GL239890   1.150  40.653   5.942
 2864POPC   C1A39891   1.130  41.058   6.233
 2864POPC   D2A39892   1.126  40.987   6.664
 2864POPC   C3A39893   1.160  40.559   6.827
 2864POPC   C4A39894   0.885  40.447   7.147
 2864POPC   C1B39895   1.537  40.772   6.213
 2864POPC   C2B39896   1.636  40.958   6.607
 2864POPC   C3B39897   1.515  40.886   6.999
 2864POPC   C4B39898   1.381  40.660   7.310
 2865POPC   NC339899  35.009  25.710   5.460
 2865POPC   PO439900  35.607  25.870   5.293
 2865POPC   GL139901  35.568  26.070   5.714
 2865POPC   GL239902  35.276  26.309   5.808
 2865POPC   C1A39903  35.543  26.041   6.169
 2865POPC   D2A39904  35.640  26.127   6.595
 2865POPC   C3A39905  35.437  25.945   6.978
 2865POPC   C4A39906  35.561  26.178   7.311
 2865POPC   C1B39907  35.075  26.290   6.248
 2865POPC   C2B39908  35.168  26.320   6.719
 2865POPC   C3B39909  35.130  26.414   7.171
 2865POPC   C4B39910  34.967  26.462   7.613
 2866POPC   NC339911  24.317   5.519   5.365
 2866POPC   PO439912  24.784   4.960   5.415
 2866POPC   GL139913  24.649   5.231   5.759
 2866POPC   GL239914  24.304   5.231   5.808
 2866POPC   C1A39915  24.621   5.127   6.217
 2866POPC   D2A39916  24.796   4.874   6.567
 2866POPC   C3A39917  24.768   5.002   7.001
 2866POPC   C4A39918  24.548   5.295   7.278
 2866POPC   C1B39919  24.134   4.976   6.161
 2866POPC   C2B39920  24.277   4.951   6.597
 2866POPC   C3B39921  24.257   4.823   7.023
 2866POPC   C4B39922  24.020   5.024   7.341
 2867POPC   NC339923  28.259  15.016   5.607
 2867POPC   PO439924  28.860  14.909   5.382
 2867POPC   GL139925  28.707  14.994   5.819
 2867POPC   GL239926  28.652  15.344   5.824
 2867POPC   C1A39927  28.602  15.074   6.293
 2867POPC   D2A39928  28.229  15.068   6.611
 2867POPC   C3A39929  28.279  14.939   7.085
 2867POPC   C4A39930  28.196  14.804   7.543
 2867POPC   C1B39931  28.351  15.492   6.137
 2867POPC   C2B39932  28.461  15.554   6.543
 2867POPC   C3B39933  28.351  15.434   6.940
 2867POPC   C4B39934  28.621  15.519   7.246
 2868POPC   NC339935   6.952  32.072   5.549
 2868POPC   PO439936   7.489  32.427   5.335
 2868POPC   GL139937   7.380  32.313   5.763
 2868POPC   GL239938   7.270  32.617   5.925
 2868POPC   C1A39939   7.531  32.217   6.213
 2868POPC   D2A39940   7.459  32.305   6.666
 2868POPC   C3A39941   7.668  32.072   6.995
 2868POPC   C4A39942   7.639  32.402   7.255
 2868POPC   C1B39943   7.168  32.844   6.313
 2868POPC   C2B39944   6.977  32.693   6.675
 2868POPC   C3B39945   7.141  32.523   7.035
 2868POPC   C4B39946   7.206  32.088   7.189
 2869POPC   NC339947   5.169   0.083   5.383
 2869POPC   PO439948   4.950  44.368   5.296
 2869POPC   GL139949   5.147  44.499   5.694
 2869POPC   GL239950   5.122  44.865   5.832
 2869POPC   C1A39951   5.144  44.429   6.151
 2869POPC   D2A39952   5.464  44.366   6.471
 2869POPC   C3A39953   5.494  44.702   6.808
 2869POPC   C4A39954   5.352  44.601   7.239
 2869POPC   C1B39955   5.254  44.933   6.267
 2869POPC   C2B39956   4.952  44.815   6.603
 2869POPC   C3B39957   4.690  44.838   6.994
 2869POPC   C4B39958   4.926  44.880   7.396
 2870POPC   NC339959   0.909  27.457   5.390
 2870POPC   PO439960   0.198  27.585   5.363
 2870POPC   GL139961   0.502  27.658   5.670
 2870POPC   GL239962   0.583  28.000   5.662
 2870POPC   C1A39963   0.616  27.414   6.038
 2870POPC   D2A39964   0.446  27.346   6.451
 2870POPC   C3A39965   0.661  27.310   6.837
 2870POPC   C4A39966   0.478  27.382   7.230
 2870POPC   C1B39967   0.598  27.927   6.102
 2870POPC   C2B39968   0.449  27.963   6.529
 2870POPC   C3B39969   0.562  27.819   6.945
 2870POPC   C4B39970   0.722  27.988   7.323
 2871POPC   NC339971  39.564  32.895   5.451
 2871POPC   PO439972  39.083  33.223   5.771
 2871POPC   GL139973  39.332  32.914   5.922
 2871POPC   GL239974  39.648  33.057   5.921
 2871POPC   C1A39975  39.499  32.716   6.278
 2871POPC   D2A39976  39.452  32.974   6.642
 2871POPC   C3A39977  39.382  32.705   6.989
 2871POPC   C4A39978  39.140  32.753   7.336
 2871POPC   C1B39979  39.704  33.466   6.150
 2871POPC   C2B39980  39.808  33.560   6.577
 2871POPC   C3B39981  39.769  33.259   6.911
 2871POPC   C4B39982  39.432  33.172   7.206
 2872POPC   NC339983  17.549  19.920   4.924
 2872POPC   PO439984  17.329  20.028   5.496
 2872POPC   GL139985  17.565  19.925   5.899
 2872POPC   GL239986  17.768  19.625   5.865
 2872POPC   C1A39987  17.532  19.982   6.364
 2872POPC   D2A39988  17.798  20.011   6.715
 2872POPC   C3A39989  17.564  19.943   7.101
 2872POPC   C4A39990  17.485  20.078   7.550
 2872POPC   C1B39991  17.654  19.492   6.310
 2872POPC   C2B39992  17.601  19.528   6.787
 2872POPC   C3B39993  17.632  19.479   7.278
 2872POPC   C4B39994  17.412  19.590   7.689
 2873POPC   NC339995   9.901  37.389   5.689
 2873POPC   PO439996   9.699  36.726   5.373
 2873POPC   GL139997   9.783  36.872   5.765
 2873POPC   GL239998  10.006  36.602   5.796
 2873POPC   C1A39999   9.752  36.878   6.222
 2873POPC   D2A40000   9.938  36.981   6.650
 2873POPC   C3A40001   9.695  37.288   6.930
 2873POPC   C4A40002   9.453  37.212   7.309
 2873POPC   C1B40003  10.063  36.475   6.206
 2873POPC   C2B40004  10.158  36.393   6.627
 2873POPC   C3B40005  10.058  36.538   7.016
 2873POPC   C4B40006   9.749  36.826   7.131
 2874POPC   NC340007  16.812  21.058   5.516
 2874POPC   PO440008  16.680  20.378   5.424
 2874POPC   GL140009  16.538  20.666   5.739
 2874POPC   GL240010  16.309  20.498   5.954
 2874POPC   C1A40011  16.762  20.661   6.134
 2874POPC   D2A40012  17.090  20.606   6.463
 2874POPC   C3A40013  17.014  20.780   6.871
 2874POPC   C4A40014  16.884  20.669   7.312
 2874POPC   C1B40015  16.367  20.382   6.415
 2874POPC   C2B40016  16.506  20.490   6.869
 2874POPC   C3B40017  16.675  20.222   7.229
 2874POPC   C4B40018  16.621  20.242   7.700
 2875POPC   NC340019  20.136  26.167   5.215
 2875POPC   PO440020  20.555  26.319   5.759
 2875POPC   GL140021  20.253  25.995   5.963
 2875POPC   GL240022  20.199  25.657   5.810
 2875POPC   C1A40023  20.192  26.026   6.401
 2875POPC   D2A40024  20.465  26.296   6.676
 2875POPC   C3A40025  20.696  26.166   7.056
 2875POPC   C4A40026  20.572  26.108   7.490
 2875POPC   C1B40027  20.366  25.567   6.262
 2875POPC   C2B40028  20.475  25.743   6.715
 2875POPC   C3B40029  20.432  25.720   7.175
 2875POPC   C4B40030  20.536  25.621   7.630
 2876POPC   NC340031  17.834   2.316   5.356
 2876POPC   PO440032  18.464   1.971   5.350
 2876POPC   GL140033  18.363   1.905   5.806
 2876POPC   GL240034  18.055   2.089   5.859
 2876POPC   C1A40035  18.304   1.660   6.219
 2876POPC   D2A40036  18.055   1.653   6.632
 2876POPC   C3A40037  18.251   1.842   6.975
 2876POPC   C4A40038  18.461   2.245   7.083
 2876POPC   C1B40039  18.022   2.075   6.321
 2876POPC   C2B40040  18.103   2.270   6.723
 2876POPC   C3B40041  17.944   2.248   7.156
 2876POPC   C4B40042  17.960   2.166   7.611
 2877POPC   NC340043  35.469  24.823   5.430
 2877POPC   PO440044  35.392  24.186   5.434
 2877POPC   GL140045  35.439  24.461   5.802
 2877POPC   GL240046  35.185  24.756   5.832
 2877POPC   C1A40047  35.530  24.537   6.237
 2877POPC   D2A40048  35.489  24.278   6.610
 2877POPC   C3A40049  35.429  24.459   7.024
 2877POPC   C4A40050  35.319  24.265   7.429
 2877POPC   C1B40051  35.037  24.501   6.159
 2877POPC   C2B40052  35.134  24.653   6.568
 2877POPC   C3B40053  34.867  24.663   6.882
 2877POPC   C4B40054  34.919  24.535   7.268
 2878POPC   NC340055  13.961  41.787   5.522
 2878POPC   PO440056  13.387  41.778   5.418
 2878POPC   GL140057  13.571  41.567   5.792
 2878POPC   GL240058  13.345  41.314   5.851
 2878POPC   C1A40059  13.803  41.694   6.188
 2878POPC   D2A40060  13.666  41.908   6.576
 2878POPC   C3A40061  13.683  41.799   7.019
 2878POPC   C4A40062  13.507  42.018   7.414
 2878POPC   C1B40063  13.646  41.211   6.189
 2878POPC   C2B40064  13.712  41.392   6.607
 2878POPC   C3B40065  13.721  41.257   7.033
 2878POPC   C4B40066  13.846  41.244   7.479
 2879POPC   NC340067  18.308  28.796   5.579
 2879POPC   PO440068  18.375  29.468   5.449
 2879POPC   GL140069  18.290  29.233   5.846
 2879POPC   GL240070  17.950  29.108   5.898
 2879POPC   C1A40071  18.438  28.972   6.212
 2879POPC   D2A40072  18.691  29.116   6.555
 2879POPC   C3A40073  18.576  29.128   6.994
 2879POPC   C4A40074  18.447  29.389   7.371
 2879POPC   C1B40075  17.941  29.086   6.337
 2879POPC   C2B40076  18.161  29.062   6.714
 2879POPC   C3B40077  18.113  29.047   7.173
 2879POPC   C4B40078  18.033  29.117   7.599
 2880POPC   NC340079  13.467  20.087   5.318
 2880POPC   PO440080  14.116  19.864   5.460
 2880POPC   GL140081  13.763  19.899   5.721
 2880POPC   GL240082  13.453  19.672   5.672
 2880POPC   C1A40083  13.886  19.911   6.142
 2880POPC   D2A40084  13.795  20.062   6.514
 2880POPC   C3A40085  13.803  19.799   6.856
 2880POPC   C4A40086  13.564  19.940   7.193
 2880POPC   C1B40087  13.483  19.592   6.151
 2880POPC   C2B40088  13.339  19.409   6.580
 2880POPC   C3B40089  13.273  19.511   7.053
 2880POPC   C4B40090  13.174  19.763   7.460
 2881POPC   NC340091  42.469  43.152   5.388
 2881POPC   PO440092  41.992  42.686   5.456
 2881POPC   GL140093  42.106  42.887   5.835
 2881POPC   GL240094  42.462  42.839   5.874
 2881POPC   C1A40095  42.122  42.851   6.283
 2881POPC   D2A40096  41.923  42.675   6.634
 2881POPC   C3A40097  42.039  42.819   7.043
 2881POPC   C4A40098  42.466  42.797   7.164
 2881POPC   C1B40099  42.592  42.686   6.326
 2881POPC   C2B40100  42.444  42.974   6.686
 2881POPC   C3B40101  42.290  43.272   7.048
 2881POPC   C4B40102  42.489  43.419   7.441
 2882POPC   NC340103  42.644  41.722   5.217
 2882POPC   PO440104  42.407  41.224   5.755
 2882POPC   GL140105  42.176  41.578   5.931
 2882POPC   GL240106  41.882  41.458   6.000
 2882POPC   C1A40107  42.302  41.785   6.279
 2882POPC   D2A40108  42.384  41.635   6.694
 2882POPC   C3A40109  42.425  41.305   7.031
 2882POPC   C4A40110  42.392  41.608   7.343
 2882POPC   C1B40111  42.089  41.308   6.349
 2882POPC   C2B40112  42.010  41.294   6.730
 2882POPC   C3B40113  41.973  41.541   7.029
 2882POPC   C4B40114  41.920  41.342   7.366
 2883POPC   NC340115  33.531  22.815   5.295
 2883POPC   PO440116  34.113  22.945   5.521
 2883POPC   GL140117  33.957  23.002   5.916
 2883POPC   GL240118  33.619  22.997   5.776
 2883POPC   C1A40119  33.930  22.814   6.355
 2883POPC   D2A40120  33.882  22.541   6.726
 2883POPC   C3A40121  33.839  22.793   7.051
 2883POPC   C4A40122  33.880  23.229   7.105
 2883POPC   C1B40123  33.458  22.954   6.220
 2883POPC   C2B40124  33.495  22.921   6.701
 2883POPC   C3B40125  33.403  23.016   7.172
 2883POPC   C4B40126  33.557  23.264   7.550
 2884POPC   NC340127  44.308  42.090   5.349
 2884POPC   PO440128  43.662  42.326   5.426
 2884POPC   GL140129  43.833  42.371   5.840
 2884POPC   GL240130  44.138  42.563   5.834
 2884POPC   C1A40131  43.718  42.379   6.277
 2884POPC   D2A40132  43.485  42.248   6.630
 2884POPC   C3A40133  43.785  42.169   6.921
 2884POPC   C4A40134  43.901  42.488   7.192
 2884POPC   C1B40135  44.232  42.248   6.172
 2884POPC   C2B40136  44.201  42.297   6.613
 2884POPC   C3B40137  44.357  42.402   7.025
 2884POPC   C4B40138  44.265  42.237   7.451
 2885POPC   NC340139  20.900  44.154   5.386
 2885POPC   PO440140  20.477  43.667   5.246
 2885POPC   GL140141  20.634  43.777   5.671
 2885POPC   GL240142  20.648  44.118   5.813
 2885POPC   C1A40143  20.623  43.611   6.100
 2885POPC   D2A40144  20.504  43.778   6.493
 2885POPC   C3A40145  20.671  43.722   6.881
 2885POPC   C4A40146  20.485  43.766   7.269
 2885POPC   C1B40147  20.726  44.168   6.249
 2885POPC   C2B40148  20.712  44.222   6.707
 2885POPC   C3B40149  20.648  44.221   7.143
 2885POPC   C4B40150  20.856  44.094   7.511
 2886POPC   NC340151  23.297   9.478   5.397
 2886POPC   PO440152  22.706   9.668   5.303
 2886POPC   GL140153  22.610   9.626   5.788
 2886POPC   GL240154  22.951   9.704   5.868
 2886POPC   C1A40155  22.641   9.623   6.286
 2886POPC   D2A40156  22.834   9.801   6.681
 2886POPC   C3A40157  22.659   9.688   7.076
 2886POPC   C4A40158  22.378   9.797   7.397
 2886POPC   C1B40159  23.163   9.823   6.267
 2886POPC   C2B40160  23.321   9.621   6.662
 2886POPC   C3B40161  23.194   9.782   7.076
 2886POPC   C4B40162  22.942  10.165   7.162
 2887POPC   NC340163   1.980  40.658   5.364
 2887POPC   PO440164   2.470  41.146   5.511
 2887POPC   GL140165   2.201  40.867   5.765
 2887POPC   GL240166   1.851  40.985   5.788
 2887POPC   C1A40167   2.109  40.679   6.156
 2887POPC   D2A40168   2.386  40.579   6.529
 2887POPC   C3A40169   2.056  40.695   6.780
 2887POPC   C4A40170   1.919  40.639   7.169
 2887POPC   C1B40171   1.875  41.158   6.209
 2887POPC   C2B40172   2.013  41.303   6.636
 2887POPC   C3B40173   1.952  41.134   7.049
 2887POPC   C4B40174   1.799  40.962   7.516
 2888POPC   NC340175  16.148  11.508   5.345
 2888POPC   PO440176  15.525  11.438   5.471
 2888POPC   GL140177  15.845  11.298   5.730
 2888POPC   GL240178  16.067  11.013   5.595
 2888POPC   C1A40179  15.932  11.528   6.097
 2888POPC   D2A40180  15.918  11.643   6.526
 2888POPC   C3A40181  16.035  11.524   6.952
 2888POPC   C4A40182  15.962  11.602   7.390
 2888POPC   C1B40183  16.123  11.007   6.049
 2888POPC   C2B40184  16.002  11.131   6.440
 2888POPC   C3B40185  16.040  11.034   6.842
 2888POPC   C4B40186  15.846  11.082   7.209
 2889POPC   NC340187  13.326  16.078   5.534
 2889POPC   PO440188  13.927  15.670   5.523
 2889POPC   GL140189  13.764  15.972   5.803
 2889POPC   GL240190  13.894  16.322   5.878
 2889POPC   C1A40191  13.539  16.027   6.164
 2889POPC   D2A40192  13.675  15.855   6.549
 2889POPC   C3A40193  13.546  16.071   6.911
 2889POPC   C4A40194  13.578  15.831   7.238
 2889POPC   C1B40195  13.871  16.375   6.343
 2889POPC   C2B40196  13.881  16.459   6.803
 2889POPC   C3B40197  13.961  16.202   7.205
 2889POPC   C4B40198  13.812  16.273   7.668
 2890POPC   NC340199  17.110  11.272   5.332
 2890POPC   PO440200  16.466  11.162   5.273
 2890POPC   GL140201  16.620  11.436   5.582
 2890POPC   GL240202  16.351  11.423   5.811
 2890POPC   C1A40203  16.833  11.449   5.984
 2890POPC   D2A40204  16.870  11.517   6.450
 2890POPC   C3A40205  16.954  11.245   6.839
 2890POPC   C4A40206  16.813  11.146   7.273
 2890POPC   C1B40207  16.398  11.485   6.253
 2890POPC   C2B40208  16.430  11.357   6.648
 2890POPC   C3B40209  16.553  11.507   7.023
 2890POPC   C4B40210  16.316  11.255   7.297
 2891POPC   NC340211  25.014  44.392   5.527
 2891POPC   PO440212  25.437  44.808   5.108
 2891POPC   GL140213  25.466  44.743   5.617
 2891POPC   GL240214  25.136  44.828   5.788
 2891POPC   C1A40215  25.620  44.688   6.093
 2891POPC   D2A40216  25.374  44.501   6.459
 2891POPC   C3A40217  25.440  44.468   6.952
 2891POPC   C4A40218  25.222  44.413   7.371
 2891POPC   C1B40219  24.953  44.663   6.175
 2891POPC   C2B40220  24.969  44.778   6.612
 2891POPC   C3B40221  24.992  44.751   7.030
 2891POPC   C4B40222  25.188  44.943   7.367
 2892POPC   NC340223  32.721   8.669   5.444
 2892POPC   PO440224  32.121   9.031   5.374
 2892POPC   GL140225  32.351   9.049   5.721
 2892POPC   GL240226  32.397   8.697   5.819
 2892POPC   C1A40227  32.281   9.296   6.083
 2892POPC   D2A40228  32.034   9.185   6.455
 2892POPC   C3A40229  32.122   8.987   6.860
 2892POPC   C4A40230  32.206   9.194   7.247
 2892POPC   C1B40231  32.079   8.819   6.104
 2892POPC   C2B40232  31.969   8.623   6.500
 2892POPC   C3B40233  31.919   8.492   6.916
 2892POPC   C4B40234  31.993   8.706   7.317
 2893POPC   NC340235  38.248  28.644   5.392
 2893POPC   PO440236  38.707  28.149   5.307
 2893POPC   GL140237  38.566  28.300   5.720
 2893POPC   GL240238  38.295  28.118   5.903
 2893POPC   C1A40239  38.676  28.380   6.157
 2893POPC   D2A40240  38.544  28.402   6.586
 2893POPC   C3A40241  38.766  28.505   6.964
 2893POPC   C4A40242  38.453  28.315   7.147
 2893POPC   C1B40243  38.138  28.299   6.292
 2893POPC   C2B40244  38.093  28.081   6.708
 2893POPC   C3B40245  38.021  28.086   7.172
 2893POPC   C4B40246  37.877  28.078   7.614
 2894POPC   NC340247   8.352  13.005   5.457
 2894POPC   PO440248   7.839  12.555   5.342
 2894POPC   GL140249   7.846  12.799   5.763
 2894POPC   GL240250   7.975  13.130   5.866
 2894POPC   C1A40251   8.008  12.718   6.205
 2894POPC   D2A40252   8.308  12.565   6.556
 2894POPC   C3A40253   8.165  12.640   6.992
 2894POPC   C4A40254   7.873  12.434   7.263
 2894POPC   C1B40255   8.300  13.155   6.217
 2894POPC   C2B40256   8.440  13.067   6.659
 2894POPC   C3B40257   8.457  13.040   7.106
 2894POPC   C4B40258   8.579  12.758   7.404
 2895POPC   NC340259   8.533  18.401   5.294
 2895POPC   PO440260   9.209  18.601   5.343
 2895POPC   GL140261   8.954  18.383   5.657
 2895POPC   GL240262   8.830  18.022   5.632
 2895POPC   C1A40263   9.069  18.433   6.108
 2895POPC   D2A40264   8.992  18.586   6.536
 2895POPC   C3A40265   8.995  18.280   6.888
 2895POPC   C4A40266   8.941  18.439   7.305
 2895POPC   C1B40267   8.712  17.994   6.113
 2895POPC   C2B40268   8.654  17.742   6.521
 2895POPC   C3B40269   8.786  17.763   6.955
 2895POPC   C4B40270   9.005  17.928   7.300
 2896POPC   NC340271  12.942  36.430   5.385
 2896POPC   PO440272  12.469  35.928   5.436
 2896POPC   GL140273  12.711  36.128   5.808
 2896POPC   GL240274  12.848  36.474   5.896
 2896POPC   C1A40275  12.891  35.953   6.210
 2896POPC   D2A40276  13.049  36.080   6.624
 2896POPC   C3A40277  12.863  35.948   7.012
 2896POPC   C4A40278  12.546  36.165   7.256
 2896POPC   C1B40279  13.134  36.759   6.204
 2896POPC   C2B40280  13.218  36.612   6.628
 2896POPC   C3B40281  12.981  36.452   6.965
 2896POPC   C4B40282  13.004  36.394   7.369
 2897POPC   NC340283  31.646  19.072   5.362
 2897POPC   PO440284  31.529  18.444   5.403
 2897POPC   GL140285  31.384  18.675   5.783
 2897POPC   GL240286  31.341  19.047   5.762
 2897POPC   C1A40287  31.553  18.846   6.187
 2897POPC   D2A40288  31.420  18.761   6.627
 2897POPC   C3A40289  31.510  19.096   6.939
 2897POPC   C4A40290  31.553  19.356   7.341
 2897POPC   C1B40291  31.308  19.345   6.105
 2897POPC   C2B40292  31.342  19.439   6.565
 2897POPC   C3B40293  31.147  19.451   6.999
 2897POPC   C4B40294  31.135  19.657   7.393
 2898POPC   NC340295  12.090   5.544   5.118
 2898POPC   PO440296  12.240   5.967   5.636
 2898POPC   GL140297  11.985   5.870   5.908
 2898POPC   GL240298  11.982   5.543   5.838
 2898POPC   C1A40299  11.951   6.029   6.305
 2898POPC   D2A40300  12.029   6.282   6.646
 2898POPC   C3A40301  11.873   6.092   7.000
 2898POPC   C4A40302  11.999   5.705   7.197
 2898POPC   C1B40303  12.307   5.663   6.223
 2898POPC   C2B40304  12.282   5.811   6.658
 2898POPC   C3B40305  12.481   5.582   6.976
 2898POPC   C4B40306  12.378   5.398   7.373
 2899POPC   NC340307  29.906  28.752   5.427
 2899POPC   PO440308  30.294  28.155   5.495
 2899POPC   GL140309  29.936  28.345   5.795
 2899POPC   GL240310  29.694  28.630   5.893
 2899POPC   C1A40311  29.997  28.472   6.269
 2899POPC   D2A40312  29.769  28.447   6.704
 2899POPC   C3A40313  29.969  28.289   7.118
 2899POPC   C4A40314  29.935  27.977   7.451
 2899POPC   C1B40315  29.677  28.924   6.260
 2899POPC   C2B40316  29.657  28.954   6.715
 2899POPC   C3B40317  29.809  28.793   7.092
 2899POPC   C4B40318  29.566  28.529   7.330
 2900POPC   NC340319  11.563  39.048   4.975
 2900POPC   PO440320  11.240  39.451   5.334
 2900POPC   GL140321  11.230  39.197   5.757
 2900POPC   GL240322  11.517  39.146   5.950
 2900POPC   C1A40323  11.046  39.148   6.160
 2900POPC   D2A40324  11.038  39.449   6.474
 2900POPC   C3A40325  11.034  39.286   6.870
 2900POPC   C4A40326  11.101  39.418   7.281
 2900POPC   C1B40327  11.539  39.324   6.340
 2900POPC   C2B40328  11.490  39.081   6.690
 2900POPC   C3B40329  11.509  39.148   7.112
 2900POPC   C4B40330  11.834  39.258   7.408
 2901POPC   NC340331  39.497   6.050   5.510
 2901POPC   PO440332  40.039   5.690   5.305
 2901POPC   GL140333  39.998   5.949   5.681
 2901POPC   GL240334  39.760   5.717   5.813
 2901POPC   C1A40335  39.920   6.141   6.124
 2901POPC   D2A40336  40.140   6.026   6.534
 2901POPC   C3A40337  40.002   6.106   6.966
 2901POPC   C4A40338  40.199   5.976   7.364
 2901POPC   C1B40339  40.029   5.648   6.168
 2901POPC   C2B40340  39.823   5.633   6.536
 2901POPC   C3B40341  40.048   5.569   6.908
 2901POPC   C4B40342  39.830   5.553   7.277
 2902POPC   NC340343   9.215  15.397   5.419
 2902POPC   PO440344   9.843  15.081   5.216
 2902POPC   GL140345   9.667  15.199   5.615
 2902POPC   GL240346   9.583  14.879   5.675
 2902POPC   C1A40347   9.636  15.292   6.082
 2902POPC   D2A40348   9.867  15.169   6.481
 2902POPC   C3A40349   9.892  15.413   6.870
 2902POPC   C4A40350   9.761  15.342   7.295
 2902POPC   C1B40351   9.518  14.792   6.097
 2902POPC   C2B40352   9.386  14.913   6.497
 2902POPC   C3B40353   9.557  15.024   6.903
 2902POPC   C4B40354   9.563  14.881   7.329
 2903POPC   NC340355   8.217  20.968   5.412
 2903POPC   PO440356   8.395  20.311   5.379
 2903POPC   GL140357   8.244  20.521   5.763
 2903POPC   GL240358   8.453  20.299   5.927
 2903POPC   C1A40359   8.166  20.631   6.234
 2903POPC   D2A40360   7.923  20.620   6.650
 2903POPC   C3A40361   8.104  20.680   7.062
 2903POPC   C4A40362   7.940  20.977   7.359
 2903POPC   C1B40363   8.538  20.314   6.341
 2903POPC   C2B40364   8.436  20.436   6.725
 2903POPC   C3B40365   8.586  20.334   7.103
 2903POPC   C4B40366   8.609  20.706   7.223
 2904POPC   NC340367   3.280  22.338   5.512
 2904POPC   PO440368   3.895  22.033   5.426
 2904POPC   GL140369   3.666  22.168   5.820
 2904POPC   GL240370   3.384  21.973   5.886
 2904POPC   C1A40371   3.552  22.244   6.271
 2904POPC   D2A40372   3.315  22.248   6.663
 2904POPC   C3A40373   3.572  22.371   7.025
 2904POPC   C4A40374   3.930  22.581   7.268
 2904POPC   C1B40375   3.226  21.790   6.283
 2904POPC   C2B40376   3.240  21.737   6.729
 2904POPC   C3B40377   3.218  22.002   7.121
 2904POPC   C4B40378   3.309  21.865   7.578
 2905POPC   NC340379   2.716  40.321   5.502
 2905POPC   PO440380   2.928  39.716   5.657
 2905POPC   GL140381   2.677  39.955   5.869
 2905POPC   GL240382   2.406  39.882   5.674
 2905POPC   C1A40383   2.761  40.142   6.250
 2905POPC   D2A40384   2.704  39.961   6.635
 2905POPC   C3A40385   2.644  40.145   7.026
 2905POPC   C4A40386   2.796  39.909   7.349
 2905POPC   C1B40387   2.283  39.687   6.071
 2905POPC   C2B40388   2.271  39.729   6.526
 2905POPC   C3B40389   2.402  39.691   6.965
 2905POPC   C4B40390   2.308  39.828   7.367
 2906POPC   NC340391   8.491   9.525   5.530
 2906POPC   PO440392   7.930   9.480   5.057
 2906POPC   GL140393   7.942   9.511   5.569
 2906POPC   GL240394   8.098   9.779   5.769
 2906POPC   C1A40395   7.870   9.495   6.088
 2906POPC   D2A40396   7.795   9.729   6.482
 2906POPC   C3A40397   7.957   9.713   6.916
 2906POPC   C4A40398   7.888  10.002   7.263
 2906POPC   C1B40399   8.253   9.852   6.216
 2906POPC   C2B40400   8.522   9.938   6.608
 2906POPC   C3B40401   8.404   9.964   7.077
 2906POPC   C4B40402   8.450   9.843   7.530
 2907POPC   NC340403   0.210   8.272   5.432
 2907POPC   PO440404   0.653   7.912   5.087
 2907POPC   GL140405   0.601   8.067   5.653
 2907POPC   GL240406   0.286   7.972   5.881
 2907POPC   C1A40407   0.470   8.382   6.085
 2907POPC   D2A40408   0.257   8.085   6.389
 2907POPC   C3A40409   0.232   8.139   6.809
 2907POPC   C4A40410   0.300   8.038   7.211
 2907POPC   C1B40411   0.702   7.963   6.167
 2907POPC   C2B40412   0.735   8.167   6.588
 2907POPC   C3B40413   0.781   7.981   6.972
 2907POPC   C4B40414   0.778   8.144   7.407
 2908POPC   NC340415  14.987  14.519   5.240
 2908POPC   PO440416  15.670  14.309   5.411
 2908POPC   GL140417  15.423  14.400   5.797
 2908POPC   GL240418  15.383  14.069   5.923
 2908POPC   C1A40419  15.207  14.508   6.208
 2908POPC   D2A40420  14.958  14.642   6.610
 2908POPC   C3A40421  15.235  14.729   6.977
 2908POPC   C4A40422  15.237  14.553   7.404
 2908POPC   C1B40423  15.478  14.007   6.339
 2908POPC   C2B40424  15.226  14.217   6.634
 2908POPC   C3B40425  15.257  14.208   7.044
 2908POPC   C4B40426  15.586  14.186   7.326
 2909POPC   NC340427   3.786  20.823   5.587
 2909POPC   PO440428   3.305  20.350   5.477
 2909POPC   GL140429   3.584  20.402   5.828
 2909POPC   GL240430   3.388  20.678   5.874
 2909POPC   C1A40431   3.770  20.331   6.255
 2909POPC   D2A40432   3.904  20.514   6.670
 2909POPC   C3A40433   3.753  20.307   7.041
 2909POPC   C4A40434   3.595  20.481   7.420
 2909POPC   C1B40435   3.577  20.822   6.229
 2909POPC   C2B40436   3.399  20.696   6.584
 2909POPC   C3B40437   3.483  20.751   7.001
 2909POPC   C4B40438   3.332  21.039   7.289
 2910POPC   NC340439  21.529  37.255   5.562
 2910POPC   PO440440  21.084  36.763   5.396
 2910POPC   GL140441  21.146  36.984   5.768
 2910POPC   GL240442  21.043  36.680   5.882
 2910POPC   C1A40443  21.386  37.003   6.186
 2910POPC   D2A40444  21.360  36.803   6.628
 2910POPC   C3A40445  21.510  37.051   7.011
 2910POPC   C4A40446  21.561  37.001   7.476
 2910POPC   C1B40447  21.143  36.564   6.234
 2910POPC   C2B40448  20.904  36.597   6.620
 2910POPC   C3B40449  21.020  36.802   6.992
 2910POPC   C4B40450  21.141  36.740   7.396
 2911POPC   NC340451   4.940   6.139   5.527
 2911POPC   PO440452   5.316   5.642   5.295
 2911POPC   GL140453   5.293   5.832   5.745
 2911POPC   GL240454   4.955   5.834   5.925
 2911POPC   C1A40455   5.373   5.911   6.217
 2911POPC   D2A40456   5.173   6.021   6.641
 2911POPC   C3A40457   5.330   5.915   7.063
 2911POPC   C4A40458   5.058   5.692   7.336
 2911POPC   C1B40459   4.764   5.807   6.339
 2911POPC   C2B40460   4.558   5.801   6.737
 2911POPC   C3B40461   4.727   5.979   7.097
 2911POPC   C4B40462   4.712   6.006   7.569
 2912POPC   NC340463  19.273  28.631   5.449
 2912POPC   PO440464  19.202  28.029   5.277
 2912POPC   GL140465  19.269  28.260   5.776
 2912POPC   GL240466  18.951  28.317   5.852
 2912POPC   C1A40467  19.208  28.269   6.279
 2912POPC   D2A40468  18.930  28.256   6.658
 2912POPC   C3A40469  19.162  28.187   7.044
 2912POPC   C4A40470  19.243  28.462   7.414
 2912POPC   C1B40471  18.710  28.476   6.199
 2912POPC   C2B40472  18.428  28.525   6.536
 2912POPC   C3B40473  18.473  28.536   6.962
 2912POPC   C4B40474  18.687  28.275   7.286
 2913POPC   NC340475  28.213  33.544   5.660
 2913POPC   PO440476  28.593  34.079   5.423
 2913POPC   GL140477  28.434  33.973   5.833
 2913POPC   GL240478  28.080  34.056   5.768
 2913POPC   C1A40479  28.480  33.710   6.212
 2913POPC   D2A40480  28.694  33.723   6.562
 2913POPC   C3A40481  28.506  33.702   6.962
 2913POPC   C4A40482  28.631  33.623   7.368
 2913POPC   C1B40483  27.989  33.893   6.163
 2913POPC   C2B40484  28.136  33.830   6.577
 2913POPC   C3B40485  28.079  33.995   6.968
 2913POPC   C4B40486  28.191  33.901   7.379
 2914POPC   NC340487  19.638   3.957   5.166
 2914POPC   PO440488  19.960   4.479   5.278
 2914POPC   GL140489  19.817   4.220   5.625
 2914POPC   GL240490  20.094   4.062   5.793
 2914POPC   C1A40491  19.618   4.248   6.045
 2914POPC   D2A40492  19.799   4.155   6.434
 2914POPC   C3A40493  19.647   4.293   6.805
 2914POPC   C4A40494  19.603   4.613   7.087
 2914POPC   C1B40495  20.106   4.454   6.036
 2914POPC   C2B40496  20.214   4.441   6.475
 2914POPC   C3B40497  20.118   4.527   6.895
 2914POPC   C4B40498  20.297   4.418   7.306
 2915POPC   NC340499  23.178   3.347   5.327
 2915POPC   PO440500  22.641   3.850   5.396
 2915POPC   GL140501  22.726   3.600   5.765
 2915POPC   GL240502  23.082   3.516   5.807
 2915POPC   C1A40503  22.625   3.498   6.197
 2915POPC   D2A40504  22.811   3.224   6.485
 2915POPC   C3A40505  22.852   3.302   6.906
 2915POPC   C4A40506  22.819   3.671   7.115
 2915POPC   C1B40507  23.045   3.790   6.176
 2915POPC   C2B40508  23.108   3.673   6.606
 2915POPC   C3B40509  23.289   3.793   6.969
 2915POPC   C4B40510  23.310   3.680   7.388
 2916POPC   NC340511  36.461   1.679   5.398
 2916POPC   PO440512  37.069   1.465   5.514
 2916POPC   GL140513  37.044   1.161   5.867
 2916POPC   GL240514  37.244   0.857   5.952
 2916POPC   C1A40515  36.940   1.373   6.244
 2916POPC   D2A40516  36.624   1.527   6.512
 2916POPC   C3A40517  36.621   1.369   6.922
 2916POPC   C4A40518  36.748   1.423   7.356
 2916POPC   C1B40519  37.379   1.117   6.282
 2916POPC   C2B40520  37.139   1.147   6.676
 2916POPC   C3B40521  37.043   1.079   7.104
 2916POPC   C4B40522  37.245   1.351   7.395
 2917POPC   NC340523  15.791  15.071   5.461
 2917POPC   PO440524  16.034  15.715   5.519
 2917POPC   GL140525  16.088  15.307   5.799
 2917POPC   GL240526  16.240  15.481   6.039
 2917POPC   C1A40527  15.886  14.973   6.161
 2917POPC   D2A40528  15.590  14.833   6.550
 2917POPC   C3A40529  15.681  15.012   6.960
 2917POPC   C4A40530  15.907  15.207   7.316
 2917POPC   C1B40531  15.789  15.475   6.183
 2917POPC   C2B40532  15.598  15.370   6.589
 2917POPC   C3B40533  15.661  15.543   7.013
 2917POPC   C4B40534  15.514  15.556   7.437
 2918POPC   NC340535  18.466  29.920   5.544
 2918POPC   PO440536  17.965  30.377   5.384
 2918POPC   GL140537  17.940  30.074   5.757
 2918POPC   GL240538  17.901  29.701   5.697
 2918POPC   C1A40539  18.164  30.040   6.133
 2918POPC   D2A40540  18.310  29.888   6.519
 2918POPC   C3A40541  18.043  30.011   6.844
 2918POPC   C4A40542  18.301  30.022   7.186
 2918POPC   C1B40543  17.982  29.561   6.118
 2918POPC   C2B40544  17.935  29.540   6.573
 2918POPC   C3B40545  18.155  29.528   6.969
 2918POPC   C4B40546  18.002  29.656   7.377
 2919POPC   NC340547  17.091  34.232   5.625
 2919POPC   PO440548  17.753  34.310   5.555
 2919POPC   GL140549  17.702  34.559   5.901
 2919POPC   GL240550  17.366  34.683   5.838
 2919POPC   C1A40551  17.457  34.395   6.266
 2919POPC   D2A40552  17.309  34.562   6.672
 2919POPC   C3A40553  17.650  34.500   6.965
 2919POPC   C4A40554  17.795  34.325   7.355
 2919POPC   C1B40555  17.414  34.918   6.243
 2919POPC   C2B40556  17.528  35.043   6.677
 2919POPC   C3B40557  17.316  34.915   7.068
 2919POPC   C4B40558  17.497  34.722   7.415
 2920POPC   NC340559   4.666  44.702   5.497
 2920POPC   PO440560   4.047  44.738   5.513
 2920POPC   GL140561   4.059  44.517   5.881
 2920POPC   GL240562   4.313  44.264   5.776
 2920POPC   C1A40563   3.960  44.544   6.340
 2920POPC   D2A40564   3.917  44.527   6.803
 2920POPC   C3A40565   4.150  44.827   7.089
 2920POPC   C4A40566   4.429  44.968   7.449
 2920POPC   C1B40567   4.456  44.352   6.209
 2920POPC   C2B40568   4.415  44.589   6.613
 2920POPC   C3B40569   4.389  44.393   7.018
 2920POPC   C4B40570   4.035  44.382   7.297
 2921POPC   NC340571  27.862  44.106   5.553
 2921POPC   PO440572  27.647  43.381   5.556
 2921POPC   GL140573  27.546  43.742   5.813
 2921POPC   GL240574  27.355  44.050   5.660
 2921POPC   C1A40575  27.577  43.747   6.276
 2921POPC   D2A40576  27.440  43.705   6.699
 2921POPC   C3A40577  27.747  43.783   7.023
 2921POPC   C4A40578  27.680  44.055   7.376
 2921POPC   C1B40579  27.265  44.092   6.074
 2921POPC   C2B40580  27.449  44.269   6.427
 2921POPC   C3B40581  27.457  44.225   6.860
 2921POPC   C4B40582  27.259  43.950   7.122
 2922POPC   NC340583  12.062  33.296   5.445
 2922POPC   PO440584  11.725  32.729   5.707
 2922POPC   GL140585  12.014  33.015   5.876
 2922POPC   GL240586  11.887  33.374   5.915
 2922POPC   C1A40587  12.328  32.808   6.120
 2922POPC   D2A40588  12.176  32.628   6.489
 2922POPC   C3A40589  12.167  32.925   6.850
 2922POPC   C4A40590  11.988  33.093   7.239
 2922POPC   C1B40591  12.296  33.337   6.157
 2922POPC   C2B40592  12.413  33.343   6.583
 2922POPC   C3B40593  12.138  33.455   6.922
 2922POPC   C4B40594  11.990  33.645   7.316
 2923POPC   NC340595  13.785  18.639   5.385
 2923POPC   PO440596  13.461  18.032   5.265
 2923POPC   GL140597  13.701  18.175   5.746
 2923POPC   GL240598  13.616  18.544   5.852
 2923POPC   C1A40599  13.594  18.155   6.197
 2923POPC   D2A40600  13.651  18.346   6.601
 2923POPC   C3A40601  13.741  18.060   6.949
 2923POPC   C4A40602  13.738  18.228   7.358
 2923POPC   C1B40603  13.329  18.596   6.210
 2923POPC   C2B40604  13.124  18.355   6.540
 2923POPC   C3B40605  13.271  18.250   6.955
 2923POPC   C4B40606  13.322  18.508   7.324
 2924POPC   NC340607  13.320   8.764   5.496
 2924POPC   PO440608  13.770   9.253   5.424
 2924POPC   GL140609  13.697   9.012   5.813
 2924POPC   GL240610  13.736   8.614   5.768
 2924POPC   C1A40611  13.743   9.209   6.253
 2924POPC   D2A40612  13.776   9.247   6.721
 2924POPC   C3A40613  13.382   9.094   6.919
 2924POPC   C4A40614  13.288   8.798   7.292
 2924POPC   C1B40615  13.848   8.699   6.194
 2924POPC   C2B40616  13.692   8.753   6.614
 2924POPC   C3B40617  13.781   8.847   7.065
 2924POPC   C4B40618  14.018   8.724   7.417
 2925POPC   NC340619  37.634  19.681   5.004
 2925POPC   PO440620  37.624  19.072   5.218
 2925POPC   GL140621  37.539  19.150   5.689
 2925POPC   GL240622  37.299  19.413   5.711
 2925POPC   C1A40623  37.700  19.166   6.154
 2925POPC   D2A40624  37.923  19.195   6.533
 2925POPC   C3A40625  37.742  18.985   6.876
 2925POPC   C4A40626  37.825  19.138   7.297
 2925POPC   C1B40627  37.219  19.315   6.131
 2925POPC   C2B40628  37.355  19.241   6.589
 2925POPC   C3B40629  37.375  19.279   7.037
 2925POPC   C4B40630  37.330  19.291   7.479
 2926POPC   NC340631  23.994  43.522   5.291
 2926POPC   PO440632  24.543  43.207   5.414
 2926POPC   GL140633  24.253  43.153   5.784
 2926POPC   GL240634  24.479  42.987   6.023
 2926POPC   C1A40635  24.165  43.342   6.216
 2926POPC   D2A40636  24.111  43.307   6.657
 2926POPC   C3A40637  24.370  43.200   7.013
 2926POPC   C4A40638  24.158  42.954   7.309
 2926POPC   C1B40639  24.471  42.943   6.482
 2926POPC   C2B40640  24.799  43.009   6.798
 2926POPC   C3B40641  24.912  42.955   7.237
 2926POPC   C4B40642  24.952  42.949   7.711
 2927POPC   NC340643  35.189  20.019   5.578
 2927POPC   PO440644  35.515  19.505   5.568
 2927POPC   GL140645  35.246  19.603   5.898
 2927POPC   GL240646  35.452  19.896   5.997
 2927POPC   C1A40647  35.178  19.674   6.347
 2927POPC   D2A40648  35.368  19.897   6.699
 2927POPC   C3A40649  35.177  19.887   7.100
 2927POPC   C4A40650  35.007  19.502   7.269
 2927POPC   C1B40651  35.696  19.675   6.332
 2927POPC   C2B40652  35.644  19.335   6.637
 2927POPC   C3B40653  35.491  19.477   7.034
 2927POPC   C4B40654  35.663  19.855   7.237
 2928POPC   NC340655  35.681   9.830   5.446
 2928POPC   PO440656  36.239  10.017   5.158
 2928POPC   GL140657  36.171   9.759   5.605
 2928POPC   GL240658  35.933   9.411   5.609
 2928POPC   C1A40659  36.246   9.699   6.078
 2928POPC   D2A40660  36.344   9.632   6.557
 2928POPC   C3A40661  36.241   9.985   6.879
 2928POPC   C4A40662  36.014  10.084   7.287
 2928POPC   C1B40663  35.897   9.343   6.057
 2928POPC   C2B40664  35.824   9.600   6.441
 2928POPC   C3B40665  35.845   9.643   6.891
 2928POPC   C4B40666  35.931   9.297   7.135
 2929POPC   NC340667   2.997  20.743   5.512
 2929POPC   PO440668   2.383  20.386   5.633
 2929POPC   GL140669   2.727  20.452   5.926
 2929POPC   GL240670   2.679  20.805   5.912
 2929POPC   C1A40671   2.703  20.489   6.395
 2929POPC   D2A40672   2.450  20.758   6.677
 2929POPC   C3A40673   2.481  20.679   7.120
 2929POPC   C4A40674   2.550  20.616   7.559
 2929POPC   C1B40675   3.039  20.829   6.196
 2929POPC   C2B40676   2.962  20.950   6.618
 2929POPC   C3B40677   2.968  20.704   6.987
 2929POPC   C4B40678   3.095  20.605   7.436
 2930POPC   NC340679  17.793  33.878   5.383
 2930POPC   PO440680  17.136  33.823   5.413
 2930POPC   GL140681  17.417  33.888   5.761
 2930POPC   GL240682  17.590  33.643   5.784
 2930POPC   C1A40683  17.298  33.833   6.183
 2930POPC   D2A40684  16.960  33.865   6.454
 2930POPC   C3A40685  17.139  33.986   6.860
 2930POPC   C4A40686  17.489  33.964   7.138
 2930POPC   C1B40687  17.810  33.883   6.114
 2930POPC   C2B40688  17.981  33.749   6.497
 2930POPC   C3B40689  17.926  33.967   6.876
 2930POPC   C4B40690  18.035  33.898   7.305
 2931POPC   NC340691   1.772  19.457   5.428
 2931POPC   PO440692   1.654  18.732   5.427
 2931POPC   GL140693   1.644  19.057   5.765
 2931POPC   GL240694   1.992  19.129   5.756
 2931POPC   C1A40695   1.712  19.162   6.235
 2931POPC   D2A40696   1.887  18.984   6.607
 2931POPC   C3A40697   1.735  19.002   7.023
 2931POPC   C4A40698   1.864  19.042   7.475
 2931POPC   C1B40699   2.218  19.235   6.123
 2931POPC   C2B40700   2.102  19.433   6.481
 2931POPC   C3B40701   2.062  19.394   6.894
 2931POPC   C4B40702   2.248  19.275   7.240
 2932POPC   NC340703  31.626  41.314   5.570
 2932POPC   PO440704  31.082  41.278   5.548
 2932POPC   GL140705  31.311  41.463   5.941
 2932POPC   GL240706  31.440  41.769   5.839
 2932POPC   C1A40707  31.213  41.759   6.307
 2932POPC   D2A40708  31.117  42.000   6.678
 2932POPC   C3A40709  31.299  41.834   7.074
 2932POPC   C4A40710  31.479  41.396   7.132
 2932POPC   C1B40711  31.707  41.759   6.230
 2932POPC   C2B40712  31.632  41.702   6.696
 2932POPC   C3B40713  31.807  41.791   7.134
 2932POPC   C4B40714  31.721  42.102   7.468
 2933POPC   NC340715  40.915  13.246   5.256
 2933POPC   PO440716  40.629  13.863   5.268
 2933POPC   GL140717  40.707  13.657   5.689
 2933POPC   GL240718  40.827  13.332   5.815
 2933POPC   C1A40719  40.589  13.679   6.149
 2933POPC   D2A40720  40.716  13.826   6.562
 2933POPC   C3A40721  40.612  13.554   6.917
 2933POPC   C4A40722  40.760  13.558   7.331
 2933POPC   C1B40723  41.057  13.457   6.233
 2933POPC   C2B40724  41.042  13.383   6.697
 2933POPC   C3B40725  41.200  13.437   7.133
 2933POPC   C4B40726  41.027  13.191   7.510
 2934POPC   NC340727  41.628  39.542   5.065
 2934POPC   PO440728  41.163  39.084   5.225
 2934POPC   GL140729  41.259  39.142   5.721
 2934POPC   GL240730  41.331  39.475   5.854
 2934POPC   C1A40731  41.255  39.124   6.219
 2934POPC   D2A40732  41.157  39.038   6.698
 2934POPC   C3A40733  41.345  39.234   7.077
 2934POPC   C4A40734  41.389  39.318   7.514
 2934POPC   C1B40735  41.627  39.462   6.210
 2934POPC   C2B40736  41.538  39.471   6.662
 2934POPC   C3B40737  41.799  39.436   7.067
 2934POPC   C4B40738  41.857  39.142   7.423
 2935POPC   NC340739  44.967   3.823   5.417
 2935POPC   PO440740  44.560   4.414   5.441
 2935POPC   GL140741  44.627   4.166   5.779
 2935POPC   GL240742  44.931   4.328   5.848
 2935POPC   C1A40743  44.577   4.401   6.192
 2935POPC   D2A40744  44.694   4.435   6.621
 2935POPC   C3A40745  44.424   4.330   6.951
 2935POPC   C4A40746  44.624   4.345   7.343
 2935POPC   C1B40747   0.050   4.226   6.280
 2935POPC   C2B40748   0.177   4.233   6.697
 2935POPC   C3B40749   0.068   4.415   7.103
 2935POPC   C4B40750   0.083   4.519   7.561
 2936POPC   NC340751  27.220  29.154   5.419
 2936POPC   PO440752  26.597  28.967   5.280
 2936POPC   GL140753  26.625  29.213   5.674
 2936POPC   GL240754  26.967  29.240   5.851
 2936POPC   C1A40755  26.542  29.285   6.135
 2936POPC   D2A40756  26.696  29.587   6.478
 2936POPC   C3A40757  26.917  29.364   6.841
 2936POPC   C4A40758  26.853  29.104   7.213
 2936POPC   C1B40759  27.104  28.987   6.202
 2936POPC   C2B40760  27.031  28.808   6.618
 2936POPC   C3B40761  27.245  28.814   6.996
 2936POPC   C4B40762  27.387  29.084   7.340
 2937POPC   NC340763  38.871  39.386   5.408
 2937POPC   PO440764  39.438  39.020   5.403
 2937POPC   GL140765  39.217  39.107   5.759
 2937POPC   GL240766  39.190  39.457   5.832
 2937POPC   C1A40767  39.147  39.071   6.217
 2937POPC   D2A40768  39.149  39.327   6.608
 2937POPC   C3A40769  39.127  39.056   6.960
 2937POPC   C4A40770  39.233  38.888   7.337
 2937POPC   C1B40771  38.863  39.493   6.169
 2937POPC   C2B40772  38.654  39.411   6.560
 2937POPC   C3B40773  38.702  39.546   6.977
 2937POPC   C4B40774  39.070  39.502   7.213
 2938POPC   NC340775  29.838   9.886   5.375
 2938POPC   PO440776  30.268   9.398   5.361
 2938POPC   GL140777  30.207   9.649   5.766
 2938POPC   GL240778  29.975   9.896   5.858
 2938POPC   C1A40779  30.160   9.650   6.269
 2938POPC   D2A40780  29.898   9.860   6.603
 2938POPC   C3A40781  29.749   9.690   6.984
 2938POPC   C4A40782  30.079   9.539   7.215
 2938POPC   C1B40783  30.072  10.153   6.218
 2938POPC   C2B40784  30.263  10.200   6.631
 2938POPC   C3B40785  30.167  10.108   7.079
 2938POPC   C4B40786  29.822  10.141   7.381
 2939POPC   NC340787  29.703  38.359   5.370
 2939POPC   PO440788  29.101  38.505   5.368
 2939POPC   GL140789  29.182  38.536   5.792
 2939POPC   GL240790  29.494  38.675   5.852
 2939POPC   C1A40791  29.245  38.272   6.162
 2939POPC   D2A40792  29.354  38.144   6.598
 2939POPC   C3A40793  29.180  38.366   6.951
 2939POPC   C4A40794  29.106  38.702   7.211
 2939POPC   C1B40795  29.327  38.777   6.261
 2939POPC   C2B40796  29.290  38.812   6.707
 2939POPC   C3B40797  29.579  38.688   7.021
 2939POPC   C4B40798  29.514  38.406   7.383
 2940POPC   NC340799   3.414   1.937   5.433
 2940POPC   PO440800   3.999   1.568   5.612
 2940POPC   GL140801   3.727   1.870   5.826
 2940POPC   GL240802   3.727   2.241   5.720
 2940POPC   C1A40803   3.518   1.855   6.236
 2940POPC   D2A40804   3.719   2.018   6.622
 2940POPC   C3A40805   3.590   1.917   7.042
 2940POPC   C4A40806   3.634   1.914   7.490
 2940POPC   C1B40807   3.544   2.351   6.125
 2940POPC   C2B40808   3.513   2.499   6.549
 2940POPC   C3B40809   3.807   2.493   6.896
 2940POPC   C4B40810   3.753   2.623   7.318
 2941POPC   NC340811  38.804  14.833   5.597
 2941POPC   PO440812  38.588  15.420   5.407
 2941POPC   GL140813  38.518  15.195   5.812
 2941POPC   GL240814  38.312  14.912   5.750
 2941POPC   C1A40815  38.592  15.317   6.260
 2941POPC   D2A40816  38.417  15.656   6.545
 2941POPC   C3A40817  38.317  15.528   6.984
 2941POPC   C4A40818  38.575  15.596   7.365
 2941POPC   C1B40819  38.187  14.972   6.168
 2941POPC   C2B40820  38.343  14.828   6.553
 2941POPC   C3B40821  38.401  15.017   6.947
 2941POPC   C4B40822  38.365  15.132   7.385
 2942POPC   NC340823  44.495  16.171   5.018
 2942POPC   PO440824  44.404  15.565   5.421
 2942POPC   GL140825  44.467  15.779   5.895
 2942POPC   GL240826  44.817  15.936   6.153
 2942POPC   C1A40827  44.565  15.546   6.253
 2942POPC   D2A40828  44.725  15.730   6.628
 2942POPC   C3A40829  44.492  15.713   6.995
 2942POPC   C4A40830  44.592  15.812   7.431
 2942POPC   C1B40831  44.444  16.062   6.341
 2942POPC   C2B40832  44.444  16.189   6.753
 2942POPC   C3B40833  44.661  16.244   7.126
 2942POPC   C4B40834  44.570  16.330   7.560
 2943POPC   NC340835  28.707  38.280   5.343
 2943POPC   PO440836  28.133  38.268   5.316
 2943POPC   GL140837  28.342  38.324   5.739
 2943POPC   GL240838  28.025  38.394   5.904
 2943POPC   C1A40839  28.722  38.450   6.053
 2943POPC   D2A40840  28.916  38.523   6.505
 2943POPC   C3A40841  28.703  38.585   6.943
 2943POPC   C4A40842  28.650  38.662   7.442
 2943POPC   C1B40843  28.265  38.529   6.287
 2943POPC   C2B40844  28.281  38.391   6.727
 2943POPC   C3B40845  28.263  38.502   7.178
 2943POPC   C4B40846  28.134  38.835   7.461
 2944POPC   NC340847  16.897   8.433   5.461
 2944POPC   PO440848  16.564   7.889   5.335
 2944POPC   GL140849  16.683   8.051   5.788
 2944POPC   GL240850  16.701   8.430   5.928
 2944POPC   C1A40851  16.837   8.061   6.248
 2944POPC   D2A40852  17.006   8.298   6.631
 2944POPC   C3A40853  16.966   8.084   7.025
 2944POPC   C4A40854  16.863   7.859   7.381
 2944POPC   C1B40855  16.379   8.628   6.221
 2944POPC   C2B40856  16.294   8.532   6.671
 2944POPC   C3B40857  16.601   8.444   7.006
 2944POPC   C4B40858  17.054   8.580   7.155
 2945POPC   NC340859  16.674  33.913   5.277
 2945POPC   PO440860  16.780  34.544   5.541
 2945POPC   GL140861  16.662  34.630   5.908
 2945POPC   GL240862  16.896  34.901   5.889
 2945POPC   C1A40863  16.758  34.653   6.345
 2945POPC   D2A40864  16.844  34.350   6.644
 2945POPC   C3A40865  16.561  34.374   6.962
 2945POPC   C4A40866  16.577  34.510   7.373
 2945POPC   C1B40867  16.949  35.140   6.233
 2945POPC   C2B40868  17.008  35.018   6.657
 2945POPC   C3B40869  16.852  34.775   6.964
 2945POPC   C4B40870  17.070  34.420   7.142
 2946POPC   NC340871   4.276  21.243   5.381
 2946POPC   PO440872   4.270  20.609   5.502
 2946POPC   GL140873   4.111  20.589   5.930
 2946POPC   GL240874   4.136  20.953   5.940
 2946POPC   C1A40875   4.293  20.397   6.329
 2946POPC   D2A40876   4.370  20.217   6.760
 2946POPC   C3A40877   4.221  20.449   7.126
 2946POPC   C4A40878   3.985  20.858   7.094
 2946POPC   C1B40879   4.571  20.804   6.034
 2946POPC   C2B40880   4.682  20.728   6.432
 2946POPC   C3B40881   4.399  20.741   6.759
 2946POPC   C4B40882   4.511  20.886   7.176
 2947POPC   NC340883   8.437  41.922   5.349
 2947POPC   PO440884   7.944  41.450   5.475
 2947POPC   GL140885   8.235  41.470   5.825
 2947POPC   GL240886   8.511  41.691   5.791
 2947POPC   C1A40887   8.365  41.473   6.251
 2947POPC   D2A40888   8.064  41.577   6.573
 2947POPC   C3A40889   8.145  41.464   7.013
 2947POPC   C4A40890   8.291  41.550   7.417
 2947POPC   C1B40891   8.665  41.862   6.170
 2947POPC   C2B40892   8.533  42.005   6.563
 2947POPC   C3B40893   8.477  41.873   6.988
 2947POPC   C4B40894   8.401  42.051   7.377
 2948POPC   NC340895  10.410  35.747   5.516
 2948POPC   PO440896  10.638  36.386   5.319
 2948POPC   GL140897  10.732  36.190   5.728
 2948POPC   GL240898  10.420  36.304   5.869
 2948POPC   C1A40899  10.680  36.007   6.160
 2948POPC   D2A40900  10.895  36.144   6.534
 2948POPC   C3A40901  10.764  36.065   6.920
 2948POPC   C4A40902  10.610  35.933   7.288
 2948POPC   C1B40903  10.552  36.523   6.283
 2948POPC   C2B40904  10.627  36.567   6.745
 2948POPC   C3B40905  10.534  36.434   7.188
 2948POPC   C4B40906  10.398  36.440   7.633
 2949POPC   NC340907  12.270   8.127   5.355
 2949POPC   PO440908  11.608   8.487   5.534
 2949POPC   GL140909  11.961   8.346   5.831
 2949POPC   GL240910  12.003   7.991   5.843
 2949POPC   C1A40911  12.195   8.245   6.269
 2949POPC   D2A40912  12.422   8.166   6.683
 2949POPC   C3A40913  12.243   8.203   7.112
 2949POPC   C4A40914  12.338   8.509   7.459
 2949POPC   C1B40915  11.770   7.972   6.237
 2949POPC   C2B40916  11.842   8.089   6.717
 2949POPC   C3B40917  11.810   7.911   7.158
 2949POPC   C4B40918  11.741   7.880   7.633
 2950POPC   NC340919  30.761   1.346   5.580
 2950POPC   PO440920  30.210   1.027   5.391
 2950POPC   GL140921  30.468   1.026   5.842
 2950POPC   GL240922  30.524   1.377   6.019
 2950POPC   C1A40923  30.470   0.971   6.330
 2950POPC   D2A40924  30.642   0.738   6.711
 2950POPC   C3A40925  30.484   0.923   7.093
 2950POPC   C4A40926  30.348   1.349   7.149
 2950POPC   C1B40927  30.867   1.311   6.370
 2950POPC   C2B40928  30.800   1.274   6.849
 2950POPC   C3B40929  30.913   1.152   7.298
 2950POPC   C4B40930  30.935   1.376   7.699
 2951POPC   NC340931  30.464  16.744   5.504
 2951POPC   PO440932  30.901  16.184   5.335
 2951POPC   GL140933  30.883  16.513   5.690
 2951POPC   GL240934  30.853  16.882   5.817
 2951POPC   C1A40935  30.724  16.504   6.131
 2951POPC   D2A40936  30.887  16.637   6.529
 2951POPC   C3A40937  30.700  16.522   6.932
 2951POPC   C4A40938  30.774  16.774   7.299
 2951POPC   C1B40939  30.743  17.040   6.219
 2951POPC   C2B40940  30.527  17.097   6.612
 2951POPC   C3B40941  30.666  17.182   7.013
 2951POPC   C4B40942  30.668  17.249   7.450
 2952POPC   NC340943  44.877  23.400   5.440
 2952POPC   PO440944  44.493  23.929   5.295
 2952POPC   GL140945  44.497  23.671   5.671
 2952POPC   GL240946  44.846  23.802   5.749
 2952POPC   C1A40947  44.500  23.709   6.131
 2952POPC   D2A40948  44.655  23.483   6.503
 2952POPC   C3A40949  44.484  23.625   6.916
 2952POPC   C4A40950  44.645  23.708   7.337
 2952POPC   C1B40951   0.012  23.751   6.173
 2952POPC   C2B40952   0.122  23.908   6.594
 2952POPC   C3B40953   0.026  23.663   6.939
 2952POPC   C4B40954   0.138  23.591   7.343
 2953POPC   NC340955   6.205  39.835   5.352
 2953POPC   PO440956   5.556  40.156   5.312
 2953POPC   GL140957   5.828  40.101   5.699
 2953POPC   GL240958   5.995  40.375   5.836
 2953POPC   C1A40959   5.805  40.033   6.182
 2953POPC   D2A40960   5.544  39.734   6.449
 2953POPC   C3A40961   5.526  39.780   6.905
 2953POPC   C4A40962   5.874  39.824   7.171
 2953POPC   C1B40963   6.232  40.412   6.224
 2953POPC   C2B40964   6.037  40.442   6.600
 2953POPC   C3B40965   5.744  40.251   6.860
 2953POPC   C4B40966   5.766  40.295   7.293
 2954POPC   NC340967   3.079  43.658   5.382
 2954POPC   PO440968   2.580  44.138   5.252
 2954POPC   GL140969   2.718  43.912   5.666
 2954POPC   GL240970   2.473  43.674   5.846
 2954POPC   C1A40971   2.933  43.791   6.066
 2954POPC   D2A40972   3.055  43.886   6.499
 2954POPC   C3A40973   2.866  43.923   6.879
 2954POPC   C4A40974   3.031  44.208   7.160
 2954POPC   C1B40975   2.545  43.474   6.243
 2954POPC   C2B40976   2.553  43.492   6.696
 2954POPC   C3B40977   2.591  43.544   7.102
 2954POPC   C4B40978   2.512  43.931   7.260
 2955POPC   NC340979   7.655  43.237   5.220
 2955POPC   PO440980   8.276  43.232   5.278
 2955POPC   GL140981   8.263  43.239   5.752
 2955POPC   GL240982   8.127  43.577   5.804
 2955POPC   C1A40983   8.301  42.964   6.174
 2955POPC   D2A40984   8.370  43.086   6.633
 2955POPC   C3A40985   8.179  42.851   6.995
 2955POPC   C4A40986   7.947  42.854   7.420
 2955POPC   C1B40987   8.148  43.445   6.235
 2955POPC   C2B40988   7.886  43.223   6.518
 2955POPC   C3B40989   7.982  43.319   6.935
 2955POPC   C4B40990   7.748  43.405   7.264
 2956POPC   NC340991  36.804  29.842   5.158
 2956POPC   PO440992  36.513  29.872   5.784
 2956POPC   GL140993  36.975  29.873   5.880
 2956POPC   GL240994  37.299  30.070   5.829
 2956POPC   C1A40995  37.186  29.787   6.253
 2956POPC   D2A40996  36.912  29.751   6.596
 2956POPC   C3A40997  37.150  29.894   6.891
 2956POPC   C4A40998  37.164  30.088   7.286
 2956POPC   C1B40999  37.127  30.323   6.152
 2956POPC   C2B41000  37.061  30.392   6.584
 2956POPC   C3B41001  36.772  30.237   6.896
 2956POPC   C4B41002  36.682  30.233   7.306
 2957POPC   NC341003   1.838   7.365   5.354
 2957POPC   PO441004   1.071   7.381   5.354
 2957POPC   GL141005   1.017   7.370   5.784
 2957POPC   GL241006   1.353   7.445   5.940
 2957POPC   C1A41007   0.898   7.470   6.199
 2957POPC   D2A41008   0.847   7.219   6.581
 2957POPC   C3A41009   0.974   7.442   6.949
 2957POPC   C4A41010   1.009   7.305   7.349
 2957POPC   C1B41011   1.377   7.410   6.395
 2957POPC   C2B41012   1.507   7.437   6.799
 2957POPC   C3B41013   1.473   7.447   7.224
 2957POPC   C4B41014   1.424   7.035   7.462
 2958POPC   NC341015  35.724  23.846   5.354
 2958POPC   PO441016  36.169  23.424   5.669
 2958POPC   GL141017  36.138  23.823   5.806
 2958POPC   GL241018  35.844  24.022   5.810
 2958POPC   C1A41019  36.275  23.908   6.185
 2958POPC   D2A41020  36.208  23.567   6.446
 2958POPC   C3A41021  36.189  23.642   6.873
 2958POPC   C4A41022  35.988  23.669   7.256
 2958POPC   C1B41023  35.774  23.809   6.209
 2958POPC   C2B41024  35.834  23.911   6.645
 2958POPC   C3B41025  35.581  23.944   7.039
 2958POPC   C4B41026  35.535  23.752   7.488
 2959POPC   NC341027  30.241   5.103   5.218
 2959POPC   PO441028  29.634   5.025   5.333
 2959POPC   GL141029  29.675   5.132   5.759
 2959POPC   GL241030  30.048   5.052   5.738
 2959POPC   C1A41031  29.625   5.318   6.186
 2959POPC   D2A41032  29.641   5.033   6.564
 2959POPC   C3A41033  29.789   5.053   6.967
 2959POPC   C4A41034  29.702   5.425   7.209
 2959POPC   C1B41035  29.963   4.919   6.178
 2959POPC   C2B41036  30.086   4.749   6.599
 2959POPC   C3B41037  30.314   4.896   6.952
 2959POPC   C4B41038  30.194   5.288   7.141
 2960POPC   NC341039   3.676  31.863   5.448
 2960POPC   PO441040   3.449  32.382   5.179
 2960POPC   GL141041   3.421  32.284   5.649
 2960POPC   GL241042   3.270  31.969   5.783
 2960POPC   C1A41043   3.366  32.449   6.079
 2960POPC   D2A41044   3.404  32.361   6.547
 2960POPC   C3A41045   3.747  32.493   6.872
 2960POPC   C4A41046   3.516  32.403   7.272
 2960POPC   C1B41047   3.348  31.834   6.211
 2960POPC   C2B41048   3.562  31.850   6.626
 2960POPC   C3B41049   3.778  32.007   7.034
 2960POPC   C4B41050   3.782  32.065   7.517
 2961POPC   NC341051  12.524  40.817   5.497
 2961POPC   PO441052  13.152  40.807   5.435
 2961POPC   GL141053  12.930  40.977   5.813
 2961POPC   GL241054  12.852  41.313   5.954
 2961POPC   C1A41055  12.843  40.845   6.251
 2961POPC   D2A41056  12.912  40.949   6.706
 2961POPC   C3A41057  13.022  40.711   7.074
 2961POPC   C4A41058  13.284  40.819   7.408
 2961POPC   C1B41059  12.527  41.249   6.263
 2961POPC   C2B41060  12.429  41.104   6.694
 2961POPC   C3B41061  12.646  41.123   7.123
 2961POPC   C4B41062  12.752  40.857   7.495
 2962POPC   NC341063   8.990   3.065   5.353
 2962POPC   PO441064   9.491   2.689   5.474
 2962POPC   GL141065   9.250   2.810   5.838
 2962POPC   GL241066   8.876   2.870   5.812
 2962POPC   C1A41067   9.210   2.658   6.271
 2962POPC   D2A41068   9.440   2.617   6.640
 2962POPC   C3A41069   9.140   2.739   6.932
 2962POPC   C4A41070   8.718   2.766   7.094
 2962POPC   C1B41071   8.720   2.833   6.231
 2962POPC   C2B41072   8.800   3.023   6.631
 2962POPC   C3B41073   8.635   3.250   6.980
 2962POPC   C4B41074   8.792   3.216   7.385
 2963POPC   NC341075  10.972  12.382   4.955
 2963POPC   PO441076  11.245  11.862   5.291
 2963POPC   GL141077  11.322  11.890   5.756
 2963POPC   GL241078  11.256  12.266   5.852
 2963POPC   C1A41079  11.461  11.741   6.152
 2963POPC   D2A41080  11.285  11.774   6.586
 2963POPC   C3A41081  11.389  11.930   7.012
 2963POPC   C4A41082  11.240  11.650   7.336
 2963POPC   C1B41083  11.281  12.210   6.296
 2963POPC   C2B41084  11.449  12.348   6.673
 2963POPC   C3B41085  11.449  12.444   7.088
 2963POPC   C4B41086  11.126  12.444   7.377
 2964POPC   NC341087  37.906  37.040   5.425
 2964POPC   PO441088  37.472  36.511   5.466
 2964POPC   GL141089  37.800  36.647   5.781
 2964POPC   GL241090  37.628  36.937   5.833
 2964POPC   C1A41091  37.882  36.754   6.241
 2964POPC   D2A41092  37.526  36.680   6.542
 2964POPC   C3A41093  37.505  36.808   6.978
 2964POPC   C4A41094  37.902  36.856   7.217
 2964POPC   C1B41095  37.668  37.226   6.152
 2964POPC   C2B41096  37.692  37.179   6.584
 2964POPC   C3B41097  37.577  37.349   6.970
 2964POPC   C4B41098  37.526  37.175   7.363
 2965POPC   NC341099  17.714  26.244   5.645
 2965POPC   PO441100  18.265  26.124   5.305
 2965POPC   GL141101  18.208  26.133   5.730
 2965POPC   GL241102  18.127  26.434   5.907
 2965POPC   C1A41103  18.226  25.977   6.149
 2965POPC   D2A41104  18.521  26.035   6.461
 2965POPC   C3A41105  18.351  26.210   6.793
 2965POPC   C4A41106  18.248  26.127   7.212
 2965POPC   C1B41107  18.108  26.535   6.371
 2965POPC   C2B41108  17.922  26.476   6.805
 2965POPC   C3B41109  17.815  26.056   6.951
 2965POPC   C4B41110  17.863  25.809   7.318
 2966POPC   NC341111  18.089  43.123   5.388
 2966POPC   PO441112  18.362  42.664   5.620
 2966POPC   GL141113  18.312  43.069   5.860
 2966POPC   GL241114  17.968  43.159   5.906
 2966POPC   C1A41115  18.307  43.320   6.265
 2966POPC   D2A41116  18.163  43.290   6.718
 2966POPC   C3A41117  18.392  43.280   7.120
 2966POPC   C4A41118  18.379  43.048   7.528
 2966POPC   C1B41119  17.966  42.945   6.340
 2966POPC   C2B41120  18.017  42.804   6.799
 2966POPC   C3B41121  17.952  43.001   7.225
 2966POPC   C4B41122  17.899  42.984   7.711
 2967POPC   NC341123  34.006  11.650   5.248
 2967POPC   PO441124  33.559  11.230   5.436
 2967POPC   GL141125  33.754  11.426   5.786
 2967POPC   GL241126  34.016  11.678   5.766
 2967POPC   C1A41127  33.673  11.589   6.192
 2967POPC   D2A41128  33.538  11.364   6.556
 2967POPC   C3A41129  33.718  11.423   6.956
 2967POPC   C4A41130  33.551  11.461   7.373
 2967POPC   C1B41131  34.182  11.556   6.187
 2967POPC   C2B41132  34.091  11.381   6.582
 2967POPC   C3B41133  34.247  11.337   6.994
 2967POPC   C4B41134  34.089  11.527   7.337
 2968POPC   NC341135  41.203   7.325   5.340
 2968POPC   PO441136  41.874   7.543   5.446
 2968POPC   GL141137  41.706   7.305   5.743
 2968POPC   GL241138  41.416   7.523   5.788
 2968POPC   C1A41139  41.791   7.225   6.197
 2968POPC   D2A41140  41.492   7.158   6.537
 2968POPC   C3A41141  41.551   7.328   6.949
 2968POPC   C4A41142  41.514   7.155   7.362
 2968POPC   C1B41143  41.727   7.717   6.079
 2968POPC   C2B41144  41.959   7.649   6.462
 2968POPC   C3B41145  41.979   7.628   6.904
 2968POPC   C4B41146  41.702   7.699   7.259
 2969POPC   NC341147  22.385  25.170   5.309
 2969POPC   PO441148  21.884  25.376   5.160
 2969POPC   GL141149  21.894  25.332   5.640
 2969POPC   GL241150  22.233  25.395   5.792
 2969POPC   C1A41151  21.876  25.244   6.125
 2969POPC   D2A41152  21.890  25.438   6.571
 2969POPC   C3A41153  22.017  25.342   7.035
 2969POPC   C4A41154  22.195  25.610   7.377
 2969POPC   C1B41155  22.337  25.472   6.268
 2969POPC   C2B41156  22.372  25.542   6.735
 2969POPC   C3B41157  22.620  25.445   7.112
 2969POPC   C4B41158  22.620  25.393   7.591
 2970POPC   NC341159   8.542  37.123   5.426
 2970POPC   PO441160   8.106  36.709   5.561
 2970POPC   GL141161   8.112  37.107   5.804
 2970POPC   GL241162   8.444  37.210   5.923
 2970POPC   C1A41163   8.081  37.202   6.266
 2970POPC   D2A41164   8.148  36.920   6.637
 2970POPC   C3A41165   8.187  37.129   7.031
 2970POPC   C4A41166   8.574  37.285   7.219
 2970POPC   C1B41167   8.366  36.765   6.173
 2970POPC   C2B41168   8.484  36.541   6.591
 2970POPC   C3B41169   8.435  36.663   7.057
 2970POPC   C4B41170   8.064  36.674   7.306
 2971POPC   NC341171  16.768  30.644   5.144
 2971POPC   PO441172  16.886  31.027   5.686
 2971POPC   GL141173  16.689  30.765   5.961
 2971POPC   GL241174  16.720  30.411   5.845
 2971POPC   C1A41175  16.389  30.693   6.277
 2971POPC   D2A41176  16.451  30.503   6.670
 2971POPC   C3A41177  16.778  30.688   6.896
 2971POPC   C4A41178  16.768  30.725   7.314
 2971POPC   C1B41179  16.839  30.362   6.291
 2971POPC   C2B41180  17.074  30.304   6.700
 2971POPC   C3B41181  16.934  30.252   7.145
 2971POPC   C4B41182  16.889  30.365   7.627
 2972POPC   NC341183  33.945   2.457   5.398
 2972POPC   PO441184  33.472   2.837   5.560
 2972POPC   GL141185  33.641   2.548   5.810
 2972POPC   GL241186  33.970   2.669   5.868
 2972POPC   C1A41187  33.626   2.580   6.236
 2972POPC   D2A41188  33.812   2.641   6.601
 2972POPC   C3A41189  33.600   2.649   6.993
 2972POPC   C4A41190  33.501   2.610   7.401
 2972POPC   C1B41191  34.113   2.895   6.233
 2972POPC   C2B41192  34.293   2.785   6.638
 2972POPC   C3B41193  34.111   2.591   7.008
 2972POPC   C4B41194  33.954   2.891   7.306
 2973POPC   NC341195  38.151  19.139   5.503
 2973POPC   PO441196  38.585  18.773   5.162
 2973POPC   GL141197  38.532  18.793   5.659
 2973POPC   GL241198  38.608  19.116   5.829
 2973POPC   C1A41199  38.395  18.782   6.147
 2973POPC   D2A41200  38.418  18.995   6.545
 2973POPC   C3A41201  38.239  18.937   6.939
 2973POPC   C4A41202  38.413  18.796   7.304
 2973POPC   C1B41203  38.368  19.337   6.158
 2973POPC   C2B41204  38.328  19.500   6.585
 2973POPC   C3B41205  38.172  19.472   7.000
 2973POPC   C4B41206  38.313  19.294   7.359
 2974POPC   NC341207   7.071  14.465   5.446
 2974POPC   PO441208   7.750  14.168   5.324
 2974POPC   GL141209   7.610  14.072   5.775
 2974POPC   GL241210   7.267  14.165   5.895
 2974POPC   C1A41211   7.659  14.072   6.230
 2974POPC   D2A41212   7.319  14.021   6.507
 2974POPC   C3A41213   7.183  14.227   6.885
 2974POPC   C4A41214   7.364  14.083   7.271
 2974POPC   C1B41215   7.182  14.469   6.253
 2974POPC   C2B41216   7.110  14.730   6.667
 2974POPC   C3B41217   7.017  14.669   7.118
 2974POPC   C4B41218   7.115  14.448   7.534
 2975POPC   NC341219  37.329  43.983   5.612
 2975POPC   PO441220  36.851  44.033   5.071
 2975POPC   GL141221  36.766  44.030   5.577
 2975POPC   GL241222  36.696  43.669   5.653
 2975POPC   C1A41223  36.878  44.157   6.061
 2975POPC   D2A41224  37.204  44.037   6.397
 2975POPC   C3A41225  37.088  44.030   6.865
 2975POPC   C4A41226  36.873  44.002   7.278
 2975POPC   C1B41227  36.919  43.662   6.066
 2975POPC   C2B41228  36.838  43.690   6.535
 2975POPC   C3B41229  36.866  43.578   6.994
 2975POPC   C4B41230  36.583  43.592   7.388
 2976POPC   NC341231   7.593   4.078   5.431
 2976POPC   PO441232   7.020   4.384   5.542
 2976POPC   GL141233   7.368   4.333   5.837
 2976POPC   GL241234   7.696   4.473   5.795
 2976POPC   C1A41235   7.325   4.239   6.271
 2976POPC   D2A41236   7.363   4.441   6.644
 2976POPC   C3A41237   7.328   4.244   7.024
 2976POPC   C4A41238   7.391   4.323   7.501
 2976POPC   C1B41239   7.828   4.221   6.194
 2976POPC   C2B41240   7.803   4.210   6.675
 2976POPC   C3B41241   7.795   4.162   7.156
 2976POPC   C4B41242   7.916   4.299   7.560
 2977POPC   NC341243   7.094  41.146   5.287
 2977POPC   PO441244   7.254  40.615   5.654
 2977POPC   GL141245   7.320  41.052   5.788
 2977POPC   GL241246   7.695  41.131   5.806
 2977POPC   C1A41247   7.292  41.143   6.228
 2977POPC   D2A41248   7.341  40.752   6.498
 2977POPC   C3A41249   7.350  40.773   6.923
 2977POPC   C4A41250   7.568  41.052   7.194
 2977POPC   C1B41251   7.670  40.806   6.116
 2977POPC   C2B41252   7.867  40.699   6.522
 2977POPC   C3B41253   7.897  40.690   6.968
 2977POPC   C4B41254   7.790  40.538   7.375
 2978POPC   NC341255  15.755   2.378   5.485
 2978POPC   PO441256  16.135   1.789   5.349
 2978POPC   GL141257  15.974   1.832   5.812
 2978POPC   GL241258  15.840   2.121   5.903
 2978POPC   C1A41259  15.938   1.845   6.311
 2978POPC   D2A41260  16.076   2.101   6.668
 2978POPC   C3A41261  16.003   2.012   7.121
 2978POPC   C4A41262  16.158   1.970   7.571
 2978POPC   C1B41263  15.572   2.343   6.167
 2978POPC   C2B41264  15.672   2.466   6.603
 2978POPC   C3B41265  15.561   2.287   6.996
 2978POPC   C4B41266  15.323   2.339   7.360
 2979POPC   NC341267  32.104   8.565   5.338
 2979POPC   PO441268  32.649   8.188   5.475
 2979POPC   GL141269  32.432   8.153   5.906
 2979POPC   GL241270  32.100   8.324   6.047
 2979POPC   C1A41271  32.327   7.947   6.308
 2979POPC   D2A41272  32.285   7.799   6.744
 2979POPC   C3A41273  32.168   8.062   7.103
 2979POPC   C4A41274  32.287   7.962   7.536
 2979POPC   C1B41275  32.425   8.466   6.299
 2979POPC   C2B41276  32.385   8.320   6.690
 2979POPC   C3B41277  32.407   8.560   7.030
 2979POPC   C4B41278  32.394   8.427   7.428
 2980POPC   NC341279  35.601   7.032   5.165
 2980POPC   PO441280  35.159   6.612   5.390
 2980POPC   GL141281  35.251   6.896   5.707
 2980POPC   GL241282  34.999   6.727   5.895
 2980POPC   C1A41283  35.453   6.961   6.140
 2980POPC   D2A41284  35.569   6.721   6.527
 2980POPC   C3A41285  35.471   6.900   6.914
 2980POPC   C4A41286  35.405   6.666   7.253
 2980POPC   C1B41287  35.132   6.582   6.286
 2980POPC   C2B41288  35.112   6.604   6.744
 2980POPC   C3B41289  34.931   6.572   7.147
 2980POPC   C4B41290  35.086   6.459   7.592
 2981POPC   NC341291  38.751  37.799   5.576
 2981POPC   PO441292  38.239  37.350   5.333
 2981POPC   GL141293  38.143  37.418   5.777
 2981POPC   GL241294  38.274  37.807   5.836
 2981POPC   C1A41295  38.151  37.380   6.270
 2981POPC   D2A41296  38.330  37.732   6.538
 2981POPC   C3A41297  38.530  37.707   6.961
 2981POPC   C4A41298  38.398  37.666   7.376
 2981POPC   C1B41299  38.585  38.032   6.176
 2981POPC   C2B41300  38.809  37.935   6.580
 2981POPC   C3B41301  38.915  38.063   7.002
 2981POPC   C4B41302  38.913  37.856   7.410
 2982POPC   NC341303   6.102   9.191   5.407
 2982POPC   PO441304   5.570   8.737   5.403
 2982POPC   GL141305   5.848   8.876   5.706
 2982POPC   GL241306   5.741   9.191   5.838
 2982POPC   C1A41307   5.986   8.748   6.092
 2982POPC   D2A41308   6.010   8.892   6.522
 2982POPC   C3A41309   5.824   8.782   6.889
 2982POPC   C4A41310   5.889   9.017   7.260
 2982POPC   C1B41311   6.097   9.260   6.115
 2982POPC   C2B41312   6.297   9.303   6.543
 2982POPC   C3B41313   6.064   9.394   6.926
 2982POPC   C4B41314   6.114   9.623   7.317
 2983POPC   NC341315  28.737  31.117   5.426
 2983POPC   PO441316  28.225  30.759   5.247
 2983POPC   GL141317  28.265  30.702   5.694
 2983POPC   GL241318  28.306  31.044   5.883
 2983POPC   C1A41319  28.415  30.575   6.082
 2983POPC   D2A41320  28.526  30.796   6.457
 2983POPC   C3A41321  28.448  30.529   6.830
 2983POPC   C4A41322  28.401  30.449   7.281
 2983POPC   C1B41323  28.618  31.272   6.182
 2983POPC   C2B41324  28.753  31.283   6.629
 2983POPC   C3B41325  28.523  31.042   6.931
 2983POPC   C4B41326  28.466  30.963   7.365
 2984POPC   NC341327   2.647  19.350   5.439
 2984POPC   PO441328   3.029  18.956   5.614
 2984POPC   GL141329   2.765  19.078   5.888
 2984POPC   GL241330   2.474  18.971   5.768
 2984POPC   C1A41331   2.749  19.262   6.286
 2984POPC   D2A41332   2.975  19.096   6.644
 2984POPC   C3A41333   2.968  19.282   7.067
 2984POPC   C4A41334   2.695  19.287   7.474
 2984POPC   C1B41335   2.490  18.809   6.208
 2984POPC   C2B41336   2.455  19.007   6.646
 2984POPC   C3B41337   2.597  18.935   7.096
 2984POPC   C4B41338   2.371  18.877   7.527
 2985POPC   NC341339   0.649  33.937   5.149
 2985POPC   PO441340   0.102  33.776   5.470
 2985POPC   GL141341   0.313  33.740   5.878
 2985POPC   GL241342   0.587  33.493   5.846
 2985POPC   C1A41343   0.232  33.910   6.307
 2985POPC   D2A41344   0.493  34.107   6.621
 2985POPC   C3A41345   0.343  34.032   7.055
 2985POPC   C4A41346   0.036  33.984   7.411
 2985POPC   C1B41347   0.641  33.579   6.307
 2985POPC   C2B41348   0.438  33.604   6.727
 2985POPC   C3B41349   0.146  33.559   7.092
 2985POPC   C4B41350   0.166  33.483   7.545
 2986POPC   NC341351  38.835  15.816   5.417
 2986POPC   PO441352  38.167  15.925   5.427
 2986POPC   GL141353  38.459  15.975   5.755
 2986POPC   GL241354  38.573  15.691   5.852
 2986POPC   C1A41355  38.446  16.197   6.129
 2986POPC   D2A41356  38.495  16.188   6.572
 2986POPC   C3A41357  38.139  16.023   6.822
 2986POPC   C4A41358  38.124  15.910   7.263
 2986POPC   C1B41359  38.802  15.836   6.181
 2986POPC   C2B41360  38.922  15.903   6.592
 2986POPC   C3B41361  38.678  15.905   6.963
 2986POPC   C4B41362  38.597  16.111   7.335
 2987POPC   NC341363   4.882   3.456   5.453
 2987POPC   PO441364   5.504   3.237   5.656
 2987POPC   GL141365   5.234   3.534   5.874
 2987POPC   GL241366   4.947   3.283   5.912
 2987POPC   C1A41367   5.222   3.831   6.253
 2987POPC   D2A41368   4.950   3.825   6.644
 2987POPC   C3A41369   5.205   3.843   7.016
 2987POPC   C4A41370   5.505   3.717   7.342
 2987POPC   C1B41371   4.968   3.391   6.324
 2987POPC   C2B41372   5.283   3.448   6.632
 2987POPC   C3B41373   5.090   3.333   6.989
 2987POPC   C4B41374   4.641   3.370   7.111
 2988POPC   NC341375  38.925  26.973   5.455
 2988POPC   PO441376  38.331  27.223   5.274
 2988POPC   GL141377  38.421  27.021   5.773
 2988POPC   GL241378  38.692  26.783   5.872
 2988POPC   C1A41379  38.247  26.755   6.137
 2988POPC   D2A41380  38.358  26.476   6.521
 2988POPC   C3A41381  38.466  26.636   6.937
 2988POPC   C4A41382  38.428  26.933   7.313
 2988POPC   C1B41383  38.691  26.947   6.328
 2988POPC   C2B41384  38.731  27.042   6.799
 2988POPC   C3B41385  38.910  26.827   7.166
 2988POPC   C4B41386  38.763  26.666   7.578
 2989POPC   NC341387   7.643   5.261   5.372
 2989POPC   PO441388   7.084   5.010   5.227
 2989POPC   GL141389   7.299   4.852   5.665
 2989POPC   GL241390   7.449   5.152   5.835
 2989POPC   C1A41391   7.317   4.766   6.171
 2989POPC   D2A41392   7.350   4.933   6.635
 2989POPC   C3A41393   7.292   4.770   7.078
 2989POPC   C4A41394   7.209   4.813   7.563
 2989POPC   C1B41395   7.498   5.263   6.269
 2989POPC   C2B41396   7.507   5.400   6.700
 2989POPC   C3B41397   7.614   5.170   7.036
 2989POPC   C4B41398   7.583   5.525   7.242
 2990POPC   NC341399  37.997   6.812   5.616
 2990POPC   PO441400  38.503   6.477   5.273
 2990POPC   GL141401  38.541   6.644   5.674
 2990POPC   GL241402  38.490   6.334   5.835
 2990POPC   C1A41403  38.494   6.742   6.126
 2990POPC   D2A41404  38.517   6.536   6.532
 2990POPC   C3A41405  38.517   6.794   6.916
 2990POPC   C4A41406  38.381   6.732   7.350
 2990POPC   C1B41407  38.804   6.311   6.134
 2990POPC   C2B41408  39.007   6.374   6.520
 2990POPC   C3B41409  38.856   6.398   6.947
 2990POPC   C4B41410  38.793   6.303   7.387
 2991POPC   NC341411   9.707   7.708   5.134
 2991POPC   PO441412   9.886   7.188   5.529
 2991POPC   GL141413   9.752   7.535   5.848
 2991POPC   GL241414   9.961   7.812   5.970
 2991POPC   C1A41415   9.548   7.698   6.262
 2991POPC   D2A41416   9.466   7.739   6.741
 2991POPC   C3A41417   9.739   7.518   7.035
 2991POPC   C4A41418   9.797   7.080   7.177
 2991POPC   C1B41419  10.122   7.525   6.272
 2991POPC   C2B41420  10.062   7.257   6.621
 2991POPC   C3B41421  10.240   7.243   6.994
 2991POPC   C4B41422  10.199   7.550   7.274
 2992POPC   NC341423   6.274   7.597   5.390
 2992POPC   PO441424   6.861   7.264   5.367
 2992POPC   GL141425   6.568   7.266   5.721
 2992POPC   GL241426   6.504   7.615   5.836
 2992POPC   C1A41427   6.568   7.126   6.168
 2992POPC   D2A41428   6.669   6.976   6.602
 2992POPC   C3A41429   6.819   7.261   6.941
 2992POPC   C4A41430   6.512   7.390   7.247
 2992POPC   C1B41431   6.815   7.594   6.156
 2992POPC   C2B41432   6.869   7.798   6.560
 2992POPC   C3B41433   6.673   7.853   6.976
 2992POPC   C4B41434   6.739   7.805   7.423
 2993POPC   NC341435  31.816  34.006   5.464
 2993POPC   PO441436  31.653  33.367   5.654
 2993POPC   GL141437  31.511  33.657   5.952
 2993POPC   GL241438  31.615  33.999   5.944
 2993POPC   C1A41439  31.554  33.608   6.404
 2993POPC   D2A41440  31.792  33.603   6.769
 2993POPC   C3A41441  31.707  33.938   7.072
 2993POPC   C4A41442  31.718  33.940   7.564
 2993POPC   C1B41443  31.282  34.010   6.286
 2993POPC   C2B41444  31.262  33.928   6.756
 2993POPC   C3B41445  31.284  34.233   7.092
 2993POPC   C4B41446  31.289  34.211   7.538
 2994POPC   NC341447  28.009  25.898   5.554
 2994POPC   PO441448  28.528  25.602   5.736
 2994POPC   GL141449  28.334  26.001   5.934
 2994POPC   GL241450  28.507  26.309   6.053
 2994POPC   C1A41451  28.063  26.186   6.261
 2994POPC   D2A41452  28.061  26.329   6.695
 2994POPC   C3A41453  28.260  26.045   6.945
 2994POPC   C4A41454  28.237  25.941   7.364
 2994POPC   C1B41455  28.354  26.616   6.374
 2994POPC   C2B41456  28.432  26.668   6.832
 2994POPC   C3B41457  28.643  26.388   7.145
 2994POPC   C4B41458  28.813  26.471   7.550
 2995POPC   NC341459   1.625  20.424   5.221
 2995POPC   PO441460   1.045  20.605   5.161
 2995POPC   GL141461   1.102  20.638   5.644
 2995POPC   GL241462   1.426  20.558   5.671
 2995POPC   C1A41463   1.146  20.799   6.094
 2995POPC   D2A41464   0.933  20.672   6.471
 2995POPC   C3A41465   1.067  20.815   6.892
 2995POPC   C4A41466   0.972  20.608   7.273
 2995POPC   C1B41467   1.435  20.360   6.093
 2995POPC   C2B41468   1.419  20.502   6.521
 2995POPC   C3B41469   1.362  20.419   6.962
 2995POPC   C4B41470   1.541  20.703   7.265
 2996POPC   NC341471  35.578  44.333   5.275
 2996POPC   PO441472  35.356  43.655   5.383
 2996POPC   GL141473  35.345  43.831   5.782
 2996POPC   GL241474  35.033  43.994   5.882
 2996POPC   C1A41475  35.465  43.704   6.187
 2996POPC   D2A41476  35.535  43.912   6.574
 2996POPC   C3A41477  35.480  43.653   6.925
 2996POPC   C4A41478  35.634  43.535   7.315
 2996POPC   C1B41479  34.964  43.647   6.130
 2996POPC   C2B41480  35.102  43.546   6.548
 2996POPC   C3B41481  35.003  43.489   6.996
 2996POPC   C4B41482  35.146  43.630   7.378
 2997POPC   NC341483  39.872  10.820   5.394
 2997POPC   PO441484  40.265  10.328   5.506
 2997POPC   GL141485  40.152  10.511   5.877
 2997POPC   GL241486  39.817  10.607   5.862
 2997POPC   C1A41487  40.215  10.642   6.316
 2997POPC   D2A41488  40.359  10.978   6.623
 2997POPC   C3A41489  40.033  10.955   6.948
 2997POPC   C4A41490  39.976  10.556   7.176
 2997POPC   C1B41491  39.811  10.284   6.219
 2997POPC   C2B41492  39.936  10.333   6.660
 2997POPC   C3B41493  39.764  10.121   7.033
 2997POPC   C4B41494  39.533  10.381   7.356
 2998POPC   NC341495  26.190  29.199   5.304
 2998POPC   PO441496  25.805  28.676   5.524
 2998POPC   GL141497  26.021  28.988   5.776
 2998POPC   GL241498  25.863  29.334   5.721
 2998POPC   C1A41499  26.096  28.946   6.225
 2998POPC   D2A41500  26.182  28.757   6.636
 2998POPC   C3A41501  26.445  29.037   6.844
 2998POPC   C4A41502  26.329  29.142   7.215
 2998POPC   C1B41503  25.935  29.475   6.145
 2998POPC   C2B41504  25.853  29.662   6.560
 2998POPC   C3B41505  25.990  29.474   6.963
 2998POPC   C4B41506  25.850  29.058   6.958
 2999POPC   NC341507  34.898  13.013   5.584
 2999POPC   PO441508  34.487  12.565   5.263
 2999POPC   GL141509  34.596  12.612   5.682
 2999POPC   GL241510  34.374  12.890   5.681
 2999POPC   C1A41511  34.629  12.794   6.114
 2999POPC   D2A41512  34.559  12.704   6.522
 2999POPC   C3A41513  34.706  12.985   6.834
 2999POPC   C4A41514  34.690  12.911   7.271
 2999POPC   C1B41515  34.246  13.151   6.024
 2999POPC   C2B41516  34.211  13.068   6.437
 2999POPC   C3B41517  34.188  12.903   6.797
 2999POPC   C4B41518  34.245  13.086   7.128
 3000POPC   NC341519  13.655  32.393   5.338
 3000POPC   PO441520  14.031  31.899   5.576
 3000POPC   GL141521  13.790  32.197   5.844
 3000POPC   GL241522  13.456  32.263   5.806
 3000POPC   C1A41523  13.969  32.461   6.191
 3000POPC   D2A41524  13.974  32.479   6.658
 3000POPC   C3A41525  13.717  32.169   6.896
 3000POPC   C4A41526  13.753  32.123   7.352
 3000POPC   C1B41527  13.439  32.501   6.209
 3000POPC   C2B41528  13.446  32.622   6.669
 3000POPC   C3B41529  13.444  32.535   7.130
 3000POPC   C4B41530  13.322  32.292   7.519
 3001POPC   NC341531  32.012  11.975   5.541
 3001POPC   PO441532  32.644  11.592   5.616
 3001POPC   GL141533  32.432  11.844   5.935
 3001POPC   GL241534  32.161  12.132   5.991
 3001POPC   C1A41535  32.590  12.148   6.237
 3001POPC   D2A41536  32.352  12.008   6.549
 3001POPC   C3A41537  32.441  12.096   6.948
 3001POPC   C4A41538  32.721  11.881   7.240
 3001POPC   C1B41539  31.992  11.748   6.191
 3001POPC   C2B41540  31.990  11.677   6.640
 3001POPC   C3B41541  31.922  11.955   6.990
 3001POPC   C4B41542  31.761  12.355   7.099
 3002POPC   NC341543  13.864  44.664   5.207
 3002POPC   PO441544  13.461  44.189   5.458
 3002POPC   GL141545  13.560  44.642   5.679
 3002POPC   GL241546  13.916  44.801   5.711
 3002POPC   C1A41547  13.455  44.844   6.116
 3002POPC   D2A41548  13.336  44.696   6.539
 3002POPC   C3A41549  13.424  44.850   6.973
 3002POPC   C4A41550  13.462  44.652   7.419
 3002POPC   C1B41551  13.928  44.705   6.162
 3002POPC   C2B41552  13.817  44.862   6.566
 3002POPC   C3B41553  13.918  44.747   6.993
 3002POPC   C4B41554  13.801  44.986   7.325
 3003POPC   NC341555  18.718  24.020   5.428
 3003POPC   PO441556  18.052  23.745   5.272
 3003POPC   GL141557  18.188  23.635   5.803
 3003POPC   GL241558  18.253  23.885   6.016
 3003POPC   C1A41559  18.003  23.505   6.274
 3003POPC   D2A41560  18.139  23.455   6.725
 3003POPC   C3A41561  17.842  23.668   7.025
 3003POPC   C4A41562  17.913  24.048   7.261
 3003POPC   C1B41563  18.595  23.929   6.313
 3003POPC   C2B41564  18.584  23.877   6.762
 3003POPC   C3B41565  18.402  24.150   7.084
 3003POPC   C4B41566  18.322  24.167   7.543
 3004POPC   NC341567  32.814  16.930   5.148
 3004POPC   PO441568  32.454  16.445   5.433
 3004POPC   GL141569  32.763  16.521   5.781
 3004POPC   GL241570  32.941  16.854   5.724
 3004POPC   C1A41571  33.027  16.625   6.175
 3004POPC   D2A41572  33.225  16.872   6.557
 3004POPC   C3A41573  33.207  16.689   6.975
 3004POPC   C4A41574  32.993  16.690   7.393
 3004POPC   C1B41575  33.022  17.120   6.146
 3004POPC   C2B41576  32.768  17.087   6.586
 3004POPC   C3B41577  32.776  17.027   7.080
 3004POPC   C4B41578  32.757  17.082   7.590
 3005POPC   NC341579  28.930   9.832   5.273
 3005POPC   PO441580  29.534   9.501   5.353
 3005POPC   GL141581  29.463   9.694   5.729
 3005POPC   GL241582  29.499  10.061   5.724
 3005POPC   C1A41583  29.246   9.542   6.107
 3005POPC   D2A41584  29.094   9.409   6.532
 3005POPC   C3A41585  29.225   9.632   6.900
 3005POPC   C4A41586  29.298   9.525   7.308
 3005POPC   C1B41587  29.588   9.923   6.184
 3005POPC   C2B41588  29.421  10.014   6.616
 3005POPC   C3B41589  29.407  10.104   7.084
 3005POPC   C4B41590  29.356   9.990   7.549
 3006POPC   NC341591  36.252  24.644   5.336
 3006POPC   PO441592  36.186  23.993   5.325
 3006POPC   GL141593  36.266  24.315   5.730
 3006POPC   GL241594  35.976  24.526   5.806
 3006POPC   C1A41595  36.393  24.547   6.148
 3006POPC   D2A41596  36.188  24.803   6.514
 3006POPC   C3A41597  36.003  24.629   6.920
 3006POPC   C4A41598  36.107  24.563   7.376
 3006POPC   C1B41599  35.965  24.299   6.238
 3006POPC   C2B41600  36.226  24.236   6.622
 3006POPC   C3B41601  36.118  24.133   7.065
 3006POPC   C4B41602  35.819  24.164   7.422
 3007POPC   NC341603   9.903  40.370   5.471
 3007POPC   PO441604   9.352  39.846   5.422
 3007POPC   GL141605   9.654  39.951   5.747
 3007POPC   GL241606   9.647  40.276   5.902
 3007POPC   C1A41607   9.668  39.797   6.162
 3007POPC   D2A41608   9.873  39.889   6.582
 3007POPC   C3A41609   9.678  39.783   6.969
 3007POPC   C4A41610   9.355  40.041   7.178
 3007POPC   C1B41611  10.001  40.243   6.215
 3007POPC   C2B41612  10.017  40.410   6.671
 3007POPC   C3B41613   9.810  40.330   7.077
 3007POPC   C4B41614   9.897  40.021   7.386
 3008POPC   NC341615  17.147   2.106   5.476
 3008POPC   PO441616  17.727   1.867   5.185
 3008POPC   GL141617  17.580   2.023   5.660
 3008POPC   GL241618  17.335   1.754   5.799
 3008POPC   C1A41619  17.553   2.113   6.102
 3008POPC   D2A41620  17.584   1.808   6.441
 3008POPC   C3A41621  17.592   1.958   6.854
 3008POPC   C4A41622  17.424   2.087   7.242
 3008POPC   C1B41623  17.135   1.717   6.216
 3008POPC   C2B41624  17.033   1.787   6.648
 3008POPC   C3B41625  17.076   1.751   7.062
 3008POPC   C4B41626  17.385   1.570   7.270
 3009POPC   NC341627   6.194  17.571   5.278
 3009POPC   PO441628   5.626  17.827   5.372
 3009POPC   GL141629   5.822  17.703   5.769
 3009POPC   GL241630   5.487  17.629   5.853
 3009POPC   C1A41631   5.970  17.600   6.221
 3009POPC   D2A41632   6.015  17.320   6.562
 3009POPC   C3A41633   6.018  17.561   6.954
 3009POPC   C4A41634   5.886  17.937   7.184
 3009POPC   C1B41635   5.539  17.836   6.241
 3009POPC   C2B41636   5.664  17.807   6.673
 3009POPC   C3B41637   5.434  17.778   7.040
 3009POPC   C4B41638   5.463  17.413   7.279
 3010POPC   NC341639   0.175  33.331   5.541
 3010POPC   PO441640   0.686  33.018   5.178
 3010POPC   GL141641   0.635  32.991   5.675
 3010POPC   GL241642   0.670  32.653   5.895
 3010POPC   C1A41643   0.596  33.072   6.151
 3010POPC   D2A41644   0.773  32.920   6.555
 3010POPC   C3A41645   0.560  33.137   6.912
 3010POPC   C4A41646   0.151  33.046   7.138
 3010POPC   C1B41647   0.407  32.588   6.317
 3010POPC   C2B41648   0.366  32.677   6.782
 3010POPC   C3B41649   0.625  32.721   7.180
 3010POPC   C4B41650   0.680  32.576   7.612
 3011POPC   NC341651  40.363  20.077   5.562
 3011POPC   PO441652  39.677  19.916   5.468
 3011POPC   GL141653  39.955  19.804   5.804
 3011POPC   GL241654  40.136  19.507   5.677
 3011POPC   C1A41655  40.056  20.006   6.230
 3011POPC   D2A41656  39.769  20.148   6.585
 3011POPC   C3A41657  39.655  19.807   6.864
 3011POPC   C4A41658  39.902  19.750   7.226
 3011POPC   C1B41659  40.256  19.520   6.114
 3011POPC   C2B41660  40.149  19.440   6.562
 3011POPC   C3B41661  40.283  19.396   7.008
 3011POPC   C4B41662  40.146  19.378   7.425
 3012POPC   NC341663  42.763  25.281   5.377
 3012POPC   PO441664  42.054  25.248   5.363
 3012POPC   GL141665  42.244  25.148   5.794
 3012POPC   GL241666  42.591  25.149   5.846
 3012POPC   C1A41667  42.355  25.320   6.240
 3012POPC   D2A41668  42.476  25.560   6.585
 3012POPC   C3A41669  42.328  25.307   6.884
 3012POPC   C4A41670  42.054  25.301   7.212
 3012POPC   C1B41671  42.529  24.830   6.176
 3012POPC   C2B41672  42.386  24.833   6.587
 3012POPC   C3B41673  42.632  24.833   6.944
 3012POPC   C4B41674  42.504  25.044   7.270
 3013POPC   NC341675  37.160  15.707   5.521
 3013POPC   PO441676  36.876  15.129   5.232
 3013POPC   GL141677  36.790  15.022   5.648
 3013POPC   GL241678  36.823  15.377   5.757
 3013POPC   C1A41679  36.698  14.988   6.100
 3013POPC   D2A41680  36.795  15.211   6.494
 3013POPC   C3A41681  36.676  15.049   6.893
 3013POPC   C4A41682  37.042  14.857   7.039
 3013POPC   C1B41683  36.772  15.617   6.156
 3013POPC   C2B41684  36.546  15.636   6.588
 3013POPC   C3B41685  36.773  15.572   6.991
 3013POPC   C4B41686  36.675  15.315   7.359
 3014POPC   NC341687   6.658   5.210   5.206
 3014POPC   PO441688   6.128   4.828   5.459
 3014POPC   GL141689   6.488   5.024   5.686
 3014POPC   GL241690   6.858   5.130   5.687
 3014POPC   C1A41691   6.648   4.946   6.106
 3014POPC   D2A41692   6.884   5.013   6.452
 3014POPC   C3A41693   6.641   5.024   6.831
 3014POPC   C4A41694   6.801   4.928   7.235
 3014POPC   C1B41695   7.022   5.368   6.075
 3014POPC   C2B41696   7.034   5.498   6.526
 3014POPC   C3B41697   7.082   5.259   6.938
 3014POPC   C4B41698   7.129   5.296   7.390
 3015POPC   NC341699  40.238  36.989   5.496
 3015POPC   PO441700  39.610  36.858   5.267
 3015POPC   GL141701  39.808  36.940   5.762
 3015POPC   GL241702  40.051  36.765   5.917
 3015POPC   C1A41703  39.687  37.017   6.243
 3015POPC   D2A41704  39.828  36.926   6.718
 3015POPC   C3A41705  40.136  37.129   7.001
 3015POPC   C4A41706  40.360  37.244   7.416
 3015POPC   C1B41707  39.964  36.603   6.328
 3015POPC   C2B41708  40.245  36.624   6.670
 3015POPC   C3B41709  40.276  36.612   7.085
 3015POPC   C4B41710  40.041  36.425   7.384
 3016POPC   NC341711  38.996  29.308   5.386
 3016POPC   PO441712  39.429  28.840   5.348
 3016POPC   GL141713  39.297  29.144   5.759
 3016POPC   GL241714  39.448  29.484   5.823
 3016POPC   C1A41715  39.157  29.268   6.204
 3016POPC   D2A41716  39.353  29.348   6.604
 3016POPC   C3A41717  39.220  29.197   7.025
 3016POPC   C4A41718  39.394  29.051   7.423
 3016POPC   C1B41719  39.689  29.289   6.184
 3016POPC   C2B41720  39.857  29.396   6.593
 3016POPC   C3B41721  39.670  29.499   6.982
 3016POPC   C4B41722  39.653  29.482   7.371
 3017POPC   NC341723  13.079  43.369   5.319
 3017POPC   PO441724  12.591  42.865   5.358
 3017POPC   GL141725  12.626  43.216   5.721
 3017POPC   GL241726  12.976  43.303   5.816
 3017POPC   C1A41727  12.630  43.424   6.167
 3017POPC   D2A41728  12.944  43.407   6.526
 3017POPC   C3A41729  12.886  43.248   6.947
 3017POPC   C4A41730  12.910  43.399   7.364
 3017POPC   C1B41731  13.026  43.034   6.182
 3017POPC   C2B41732  13.224  42.986   6.612
 3017POPC   C3B41733  13.226  42.860   7.061
 3017POPC   C4B41734  13.006  42.606   7.405
 3018POPC   NC341735  10.437   2.288   5.419
 3018POPC   PO441736  10.645   2.943   5.430
 3018POPC   GL141737  10.465   2.706   5.755
 3018POPC   GL241738  10.806   2.537   5.781
 3018POPC   C1A41739  10.252   2.900   6.125
 3018POPC   D2A41740  10.289   2.879   6.563
 3018POPC   C3A41741  10.154   3.072   6.931
 3018POPC   C4A41742  10.297   2.819   7.243
 3018POPC   C1B41743  10.810   2.880   6.096
 3018POPC   C2B41744  10.822   2.944   6.536
 3018POPC   C3B41745  10.744   2.849   6.948
 3018POPC   C4B41746  10.730   2.518   7.200
 3019POPC   NC341747  39.631  30.556   5.617
 3019POPC   PO441748  39.050  30.698   5.415
 3019POPC   GL141749  38.931  30.608   5.836
 3019POPC   GL241750  39.269  30.548   5.958
 3019POPC   C1A41751  38.960  30.669   6.316
 3019POPC   D2A41752  39.408  30.745   6.464
 3019POPC   C3A41753  39.455  31.023   6.827
 3019POPC   C4A41754  39.256  30.971   7.218
 3019POPC   C1B41755  39.249  30.240   6.297
 3019POPC   C2B41756  39.111  30.205   6.692
 3019POPC   C3B41757  39.267  30.532   6.922
 3019POPC   C4B41758  39.538  30.510   7.244
 3020POPC   NC341759   4.036  18.801   5.298
 3020POPC   PO441760   4.629  19.111   5.281
 3020POPC   GL141761   4.557  19.042   5.740
 3020POPC   GL241762   4.243  19.014   5.846
 3020POPC   C1A41763   4.644  18.970   6.172
 3020POPC   D2A41764   4.339  18.950   6.517
 3020POPC   C3A41765   4.471  19.015   6.940
 3020POPC   C4A41766   4.446  18.800   7.335
 3020POPC   C1B41767   4.293  19.366   6.173
 3020POPC   C2B41768   4.170  19.447   6.603
 3020POPC   C3B41769   3.973  19.216   6.904
 3020POPC   C4B41770   4.053  19.126   7.322
 3021POPC   NC341771  41.531  27.510   5.465
 3021POPC   PO441772  41.765  28.157   5.315
 3021POPC   GL141773  41.709  27.915   5.744
 3021POPC   GL241774  41.982  27.945   5.958
 3021POPC   C1A41775  41.617  27.561   6.107
 3021POPC   D2A41776  41.448  27.617   6.539
 3021POPC   C3A41777  41.579  27.372   6.914
 3021POPC   C4A41778  41.361  27.447   7.291
 3021POPC   C1B41779  41.686  28.018   6.288
 3021POPC   C2B41780  41.718  28.068   6.728
 3021POPC   C3B41781  41.562  27.869   7.068
 3021POPC   C4B41782  41.741  27.781   7.435
 3022POPC   NC341783   7.618   9.189   5.277
 3022POPC   PO441784   7.130   8.767   5.462
 3022POPC   GL141785   7.332   9.080   5.720
 3022POPC   GL241786   7.682   9.118   5.792
 3022POPC   C1A41787   7.285   9.205   6.145
 3022POPC   D2A41788   7.392   9.323   6.575
 3022POPC   C3A41789   7.312   8.984   6.852
 3022POPC   C4A41790   7.274   8.895   7.276
 3022POPC   C1B41791   7.769   9.034   6.247
 3022POPC   C2B41792   7.872   9.168   6.656
 3022POPC   C3B41793   7.757   9.115   7.071
 3022POPC   C4B41794   7.658   9.182   7.497
 3023POPC   NC341795  41.865  12.894   5.291
 3023POPC   PO441796  41.249  12.739   5.398
 3023POPC   GL141797  41.447  12.638   5.807
 3023POPC   GL241798  41.829  12.612   5.791
 3023POPC   C1A41799  41.473  12.844   6.223
 3023POPC   D2A41800  41.259  12.925   6.604
 3023POPC   C3A41801  41.492  13.088   6.929
 3023POPC   C4A41802  41.481  13.054   7.348
 3023POPC   C1B41803  41.957  12.605   6.235
 3023POPC   C2B41804  41.740  12.735   6.629
 3023POPC   C3B41805  41.843  12.747   7.039
 3023POPC   C4B41806  42.047  12.434   7.178
 3024POPC   NC341807  27.862  35.300   5.594
 3024POPC   PO441808  27.262  35.188   5.322
 3024POPC   GL141809  27.399  35.031   5.745
 3024POPC   GL241810  27.745  34.923   5.897
 3024POPC   C1A41811  27.454  35.201   6.185
 3024POPC   D2A41812  27.426  35.491   6.506
 3024POPC   C3A41813  27.358  35.351   6.909
 3024POPC   C4A41814  27.339  35.195   7.299
 3024POPC   C1B41815  27.960  35.170   6.239
 3024POPC   C2B41816  27.860  35.257   6.679
 3024POPC   C3B41817  27.832  35.292   7.135
 3024POPC   C4B41818  27.765  34.976   7.456
 3025POPC   NC341819  11.346  25.997   5.152
 3025POPC   PO441820  11.062  26.461   5.534
 3025POPC   GL141821  11.360  26.186   5.775
 3025POPC   GL241822  11.393  25.825   5.638
 3025POPC   C1A41823  11.278  26.136   6.233
 3025POPC   D2A41824  10.927  26.175   6.535
 3025POPC   C3A41825  11.009  25.962   6.909
 3025POPC   C4A41826  11.427  25.982   7.099
 3025POPC   C1B41827  11.247  25.652   6.026
 3025POPC   C2B41828  11.417  25.663   6.419
 3025POPC   C3B41829  11.298  25.547   6.838
 3025POPC   C4B41830  11.216  25.528   7.272
 3026POPC   NC341831  27.719   3.725   4.975
 3026POPC   PO441832  27.520   3.284   5.457
 3026POPC   GL141833  27.544   3.442   5.830
 3026POPC   GL241834  27.682   3.754   5.848
 3026POPC   C1A41835  27.268   3.562   6.115
 3026POPC   D2A41836  27.383   3.430   6.470
 3026POPC   C3A41837  27.483   3.666   6.791
 3026POPC   C4A41838  27.584   3.361   7.115
 3026POPC   C1B41839  27.713   3.823   6.283
 3026POPC   C2B41840  27.982   3.844   6.617
 3026POPC   C3B41841  27.937   3.745   7.037
 3026POPC   C4B41842  27.596   3.836   7.261
 3027POPC   NC341843  33.876  10.036   5.497
 3027POPC   PO441844  33.561   9.480   5.573
 3027POPC   GL141845  33.528   9.841   5.816
 3027POPC   GL241846  33.493   9.632   6.097
 3027POPC   C1A41847  33.719  10.102   6.139
 3027POPC   D2A41848  33.909   9.908   6.504
 3027POPC   C3A41849  34.013  10.054   6.927
 3027POPC   C4A41850  33.879   9.799   7.316
 3027POPC   C1B41851  33.934   9.510   6.117
 3027POPC   C2B41852  34.041   9.344   6.493
 3027POPC   C3B41853  33.918   9.526   6.884
 3027POPC   C4B41854  33.570   9.407   7.176
 3028POPC   NC341855   4.603  41.012   5.317
 3028POPC   PO441856   4.301  41.637   5.162
 3028POPC   GL141857   4.230  41.628   5.658
 3028POPC   GL241858   4.081  41.922   5.830
 3028POPC   C1A41859   4.339  41.585   6.145
 3028POPC   D2A41860   4.541  41.769   6.538
 3028POPC   C3A41861   4.595  41.591   6.958
 3028POPC   C4A41862   4.329  41.343   7.241
 3028POPC   C1B41863   4.015  41.957   6.293
 3028POPC   C2B41864   4.035  41.741   6.714
 3028POPC   C3B41865   4.161  41.802   7.151
 3028POPC   C4B41866   4.131  41.675   7.605
 3029POPC   NC341867  22.513  32.755   5.494
 3029POPC   PO441868  21.867  32.967   5.658
 3029POPC   GL141869  22.178  32.925   5.916
 3029POPC   GL241870  22.370  33.188   5.827
 3029POPC   C1A41871  22.072  32.858   6.340
 3029POPC   D2A41872  22.270  32.962   6.701
 3029POPC   C3A41873  22.024  32.891   7.068
 3029POPC   C4A41874  22.195  32.825   7.479
 3029POPC   C1B41875  22.162  33.357   6.218
 3029POPC   C2B41876  22.015  33.404   6.685
 3029POPC   C3B41877  22.179  33.398   7.125
 3029POPC   C4B41878  21.938  33.249   7.481
 3030POPC   NC341879  14.910   2.609   5.676
 3030POPC   PO441880  14.518   2.971   5.205
 3030POPC   GL141881  14.626   2.995   5.662
 3030POPC   GL241882  14.409   2.716   5.801
 3030POPC   C1A41883  14.691   2.912   6.200
 3030POPC   D2A41884  14.672   2.673   6.636
 3030POPC   C3A41885  14.518   2.838   7.087
 3030POPC   C4A41886  14.180   3.127   7.237
 3030POPC   C1B41887  14.213   2.707   6.250
 3030POPC   C2B41888  14.174   2.872   6.691
 3030POPC   C3B41889  14.005   2.665   7.072
 3030POPC   C4B41890  14.040   2.698   7.515
 3031POPC   NC341891   6.779   1.728   5.504
 3031POPC   PO441892   6.739   1.089   5.452
 3031POPC   GL141893   6.550   1.098   5.828
 3031POPC   GL241894   6.480   1.457   5.872
 3031POPC   C1A41895   6.641   0.875   6.205
 3031POPC   D2A41896   6.392   0.807   6.566
 3031POPC   C3A41897   6.426   1.054   6.934
 3031POPC   C4A41898   6.434   0.874   7.329
 3031POPC   C1B41899   6.388   1.644   6.278
 3031POPC   C2B41900   6.520   1.542   6.720
 3031POPC   C3B41901   6.407   1.593   7.155
 3031POPC   C4B41902   6.355   1.364   7.538
 3032POPC   NC341903   8.458  38.799   5.452
 3032POPC   PO441904   7.829  38.457   5.375
 3032POPC   GL141905   7.956  38.379   5.786
 3032POPC   GL241906   8.289  38.478   5.807
 3032POPC   C1A41907   8.033  38.253   6.213
 3032POPC   D2A41908   7.954  38.487   6.583
 3032POPC   C3A41909   8.021  38.370   7.025
 3032POPC   C4A41910   8.182  38.067   7.297
 3032POPC   C1B41911   8.416  38.571   6.227
 3032POPC   C2B41912   8.457  38.468   6.653
 3032POPC   C3B41913   8.367  38.726   6.998
 3032POPC   C4B41914   8.400  38.652   7.428
 3033POPC   NC341915   7.746   9.914   5.155
 3033POPC   PO441916   7.229   9.521   5.416
 3033POPC   GL141917   7.471   9.620   5.778
 3033POPC   GL241918   7.623   9.972   5.756
 3033POPC   C1A41919   7.347   9.703   6.211
 3033POPC   D2A41920   7.111   9.765   6.599
 3033POPC   C3A41921   7.443   9.811   6.872
 3033POPC   C4A41922   7.544   9.568   7.200
 3033POPC   C1B41923   7.320  10.181   6.050
 3033POPC   C2B41924   7.248  10.266   6.509
 3033POPC   C3B41925   7.126  10.194   6.964
 3033POPC   C4B41926   7.364  10.031   7.351
 3034POPC   NC341927  15.836   9.713   5.333
 3034POPC   PO441928  16.362  10.170   5.338
 3034POPC   GL141929  16.099   9.976   5.735
 3034POPC   GL241930  15.783   9.738   5.836
 3034POPC   C1A41931  16.188   9.696   6.142
 3034POPC   D2A41932  16.069   9.496   6.569
 3034POPC   C3A41933  16.064   9.619   7.030
 3034POPC   C4A41934  16.276   9.701   7.423
 3034POPC   C1B41935  15.727   9.799   6.301
 3034POPC   C2B41936  15.674   9.776   6.749
 3034POPC   C3B41937  15.419   9.703   7.097
 3034POPC   C4B41938  15.638   9.623   7.477
 3035POPC   NC341939  39.819  23.863   5.181
 3035POPC   PO441940  40.171  23.340   5.451
 3035POPC   GL141941  40.032  23.431   5.860
 3035POPC   GL241942  39.670  23.505   5.811
 3035POPC   C1A41943  40.072  23.668   6.246
 3035POPC   D2A41944  39.902  24.014   6.503
 3035POPC   C3A41945  39.779  23.934   6.927
 3035POPC   C4A41946  40.113  23.959   7.203
 3035POPC   C1B41947  39.678  23.333   6.259
 3035POPC   C2B41948  39.860  23.465   6.680
 3035POPC   C3B41949  39.954  23.487   7.101
 3035POPC   C4B41950  39.918  23.543   7.546
 3036POPC   NC341951  39.619   3.614   5.501
 3036POPC   PO441952  40.108   3.234   5.163
 3036POPC   GL141953  40.051   3.444   5.631
 3036POPC   GL241954  40.313   3.692   5.677
 3036POPC   C1A41955  39.922   3.457   6.116
 3036POPC   D2A41956  39.799   3.252   6.549
 3036POPC   C3A41957  39.855   3.530   6.932
 3036POPC   C4A41958  39.849   3.726   7.348
 3036POPC   C1B41959  40.385   3.692   6.152
 3036POPC   C2B41960  40.219   3.566   6.556
 3036POPC   C3B41961  40.352   3.666   6.998
 3036POPC   C4B41962  40.331   3.723   7.495
 3037POPC   NC341963  30.213  30.750   5.486
 3037POPC   PO441964  30.863  30.592   5.470
 3037POPC   GL141965  30.912  30.740   5.885
 3037POPC   GL241966  30.580  30.823   5.871
 3037POPC   C1A41967  30.819  30.878   6.319
 3037POPC   D2A41968  30.842  30.635   6.655
 3037POPC   C3A41969  30.790  30.764   7.016
 3037POPC   C4A41970  30.668  30.730   7.413
 3037POPC   C1B41971  30.432  30.571   6.200
 3037POPC   C2B41972  30.390  30.411   6.627
 3037POPC   C3B41973  30.343  30.507   7.045
 3037POPC   C4B41974  30.392  30.286   7.396
 3038POPC   NC341975   0.286  29.991   5.409
 3038POPC   PO441976   0.823  29.843   5.711
 3038POPC   GL141977   0.414  29.976   5.884
 3038POPC   GL241978   0.070  29.793   5.827
 3038POPC   C1A41979   0.420  29.945   6.254
 3038POPC   D2A41980   0.708  29.815   6.498
 3038POPC   C3A41981   0.761  30.073   6.837
 3038POPC   C4A41982   0.845  29.874   7.199
 3038POPC   C1B41983   0.046  29.615   6.234
 3038POPC   C2B41984   0.179  29.785   6.660
 3038POPC   C3B41985   0.317  29.900   7.062
 3038POPC   C4B41986   0.450  29.664   7.438
 3039POPC   NC341987  13.820  35.244   5.417
 3039POPC   PO441988  13.399  35.735   5.662
 3039POPC   GL141989  13.597  35.373   5.850
 3039POPC   GL241990  13.370  35.101   5.764
 3039POPC   C1A41991  13.842  35.252   6.199
 3039POPC   D2A41992  13.677  35.367   6.597
 3039POPC   C3A41993  13.764  35.190   6.983
 3039POPC   C4A41994  13.664  35.368   7.421
 3039POPC   C1B41995  13.331  35.127   6.231
 3039POPC   C2B41996  13.230  35.108   6.667
 3039POPC   C3B41997  13.276  35.227   7.105
 3039POPC   C4B41998  13.352  34.958   7.441
 3040POPC   NC341999  19.555  27.882   5.597
 3040POPC   PO442000  20.032  27.501   5.289
 3040POPC   GL142001  19.936  27.575   5.736
 3040POPC   GL242002  19.592  27.461   5.865
 3040POPC   C1A42003  19.984  27.775   6.140
 3040POPC   D2A42004  20.147  27.742   6.560
 3040POPC   C3A42005  19.870  27.464   6.800
 3040POPC   C4A42006  19.779  27.535   7.231
 3040POPC   C1B42007  19.494  27.682   6.261
 3040POPC   C2B42008  19.598  28.015   6.545
 3040POPC   C3B42009  19.764  27.987   6.951
 3040POPC   C4B42010  19.532  27.988   7.333
 3041POPC   NC342011  42.549  35.754   5.180
 3041POPC   PO442012  42.261  36.197   5.385
 3041POPC   GL142013  42.212  36.112   5.856
 3041POPC   GL242014  42.455  35.889   6.023
 3041POPC   C1A42015  42.126  36.192   6.328
 3041POPC   D2A42016  42.051  36.353   6.782
 3041POPC   C3A42017  42.190  36.078   7.120
 3041POPC   C4A42018  42.104  35.788   7.446
 3041POPC   C1B42019  42.633  36.122   6.405
 3041POPC   C2B42020  42.572  36.380   6.808
 3041POPC   C3B42021  42.660  36.229   7.221
 3041POPC   C4B42022  42.616  35.807   7.396
 3042POPC   NC342023  36.605  32.260   5.465
 3042POPC   PO442024  37.243  32.091   5.288
 3042POPC   GL142025  37.082  32.163   5.725
 3042POPC   GL242026  36.954  32.501   5.746
 3042POPC   C1A42027  36.968  32.174   6.199
 3042POPC   D2A42028  36.802  32.131   6.650
 3042POPC   C3A42029  36.997  32.179   7.043
 3042POPC   C4A42030  36.776  32.074   7.429
 3042POPC   C1B42031  36.839  32.668   6.125
 3042POPC   C2B42032  36.942  32.667   6.555
 3042POPC   C3B42033  36.676  32.641   6.903
 3042POPC   C4B42034  36.764  32.557   7.310
 3043POPC   NC342035  27.131   5.936   5.339
 3043POPC   PO442036  27.790   5.940   5.447
 3043POPC   GL142037  27.656   5.852   5.886
 3043POPC   GL242038  27.354   5.626   5.924
 3043POPC   C1A42039  27.671   5.853   6.341
 3043POPC   D2A42040  27.872   5.646   6.678
 3043POPC   C3A42041  27.762   5.934   6.977
 3043POPC   C4A42042  27.522   5.916   7.314
 3043POPC   C1B42043  27.142   5.816   6.250
 3043POPC   C2B42044  27.194   5.735   6.682
 3043POPC   C3B42045  27.408   5.515   6.984
 3043POPC   C4B42046  27.390   5.437   7.405
 3044POPC   NC342047  11.196  11.323   5.309
 3044POPC   PO442048  11.812  11.169   5.128
 3044POPC   GL142049  11.607  11.355   5.615
 3044POPC   GL242050  11.248  11.276   5.804
 3044POPC   C1A42051  11.660  11.259   6.094
 3044POPC   D2A42052  11.561  11.060   6.500
 3044POPC   C3A42053  11.340  11.288   6.834
 3044POPC   C4A42054  11.554  11.252   7.219
 3044POPC   C1B42055  11.114  11.380   6.232
 3044POPC   C2B42056  10.881  11.450   6.600
 3044POPC   C3B42057  10.795  11.222   6.944
 3044POPC   C4B42058  11.060  11.125   7.293
 3045POPC   NC342059   5.968  19.984   5.371
 3045POPC   PO442060   5.454  19.553   5.193
 3045POPC   GL142061   5.466  19.792   5.644
 3045POPC   GL242062   5.673  20.105   5.756
 3045POPC   C1A42063   5.655  19.709   6.086
 3045POPC   D2A42064   5.982  19.518   6.371
 3045POPC   C3A42065   5.950  19.583   6.857
 3045POPC   C4A42066   5.734  19.851   7.179
 3045POPC   C1B42067   6.011  20.088   6.116
 3045POPC   C2B42068   5.953  20.040   6.557
 3045POPC   C3B42069   6.181  20.050   6.956
 3045POPC   C4B42070   6.203  20.057   7.374
 3046POPC   NC342071  39.478   9.690   5.006
 3046POPC   PO442072  38.999   9.641   5.441
 3046POPC   GL142073  39.338   9.818   5.694
 3046POPC   GL242074  39.072   9.940   5.893
 3046POPC   C1A42075  39.581   9.750   6.110
 3046POPC   D2A42076  39.497   9.535   6.533
 3046POPC   C3A42077  39.457   9.681   6.971
 3046POPC   C4A42078  39.340   9.442   7.390
 3046POPC   C1B42079  39.237  10.070   6.272
 3046POPC   C2B42080  39.469  10.095   6.612
 3046POPC   C3B42081  39.263  10.177   6.974
 3046POPC   C4B42082  38.917  10.006   7.124
 3047POPC   NC342083   6.576  33.292   5.211
 3047POPC   PO442084   6.400  32.682   5.294
 3047POPC   GL142085   6.547  32.983   5.684
 3047POPC   GL242086   6.398  33.344   5.702
 3047POPC   C1A42087   6.680  32.976   6.178
 3047POPC   D2A42088   6.768  33.163   6.611
 3047POPC   C3A42089   6.724  32.944   7.040
 3047POPC   C4A42090   6.739  32.781   7.444
 3047POPC   C1B42091   6.219  33.160   6.071
 3047POPC   C2B42092   6.103  33.155   6.501
 3047POPC   C3B42093   6.295  33.176   6.918
 3047POPC   C4B42094   6.290  33.031   7.367
 3048POPC   NC342095   7.481   0.107   5.597
 3048POPC   PO442096   7.126  44.528   5.449
 3048POPC   GL142097   7.479  44.614   5.774
 3048POPC   GL242098   7.845  44.480   5.689
 3048POPC   C1A42099   7.437  44.795   6.219
 3048POPC   D2A42100   7.366  44.618   6.643
 3048POPC   C3A42101   7.376  44.851   7.029
 3048POPC   C4A42102   7.512  44.476   7.234
 3048POPC   C1B42103   7.925  44.719   6.044
 3048POPC   C2B42104   7.854  44.582   6.458
 3048POPC   C3B42105   7.833  44.725   6.876
 3048POPC   C4B42106   7.848  44.843   7.302
 3049POPC   NC342107  20.497   0.296   5.622
 3049POPC   PO442108  20.539   0.952   5.687
 3049POPC   GL142109  20.528   0.666   6.007
 3049POPC   GL242110  20.221   0.490   6.013
 3049POPC   C1A42111  20.499   0.669   6.442
 3049POPC   D2A42112  20.799   0.843   6.737
 3049POPC   C3A42113  20.753   0.586   7.088
 3049POPC   C4A42114  20.721   0.473   7.503
 3049POPC   C1B42115  20.360   0.108   6.234
 3049POPC   C2B42116  20.570   0.079   6.637
 3049POPC   C3B42117  20.353   0.019   6.999
 3049POPC   C4B42118  20.246   0.292   7.298
 3050POPC   NC342119  31.278  17.323   5.459
 3050POPC   PO442120  31.871  17.548   5.278
 3050POPC   GL142121  31.668  17.610   5.707
 3050POPC   GL242122  31.334  17.606   5.893
 3050POPC   C1A42123  31.711  17.404   6.107
 3050POPC   D2A42124  31.483  17.522   6.474
 3050POPC   C3A42125  31.713  17.500   6.878
 3050POPC   C4A42126  31.483  17.575   7.232
 3050POPC   C1B42127  31.209  17.227   6.117
 3050POPC   C2B42128  31.209  17.060   6.493
 3050POPC   C3B42129  31.269  17.246   6.873
 3050POPC   C4B42130  31.125  17.178   7.258
 3051POPC   NC342131  30.087   3.728   5.190
 3051POPC   PO442132  29.717   3.251   5.489
 3051POPC   GL142133  29.933   3.359   5.853
 3051POPC   GL242134  30.035   3.662   5.699
 3051POPC   C1A42135  30.171   3.265   6.254
 3051POPC   D2A42136  30.202   3.299   6.716
 3051POPC   C3A42137  29.941   3.560   6.886
 3051POPC   C4A42138  29.714   3.567   7.233
 3051POPC   C1B42139  30.038   3.820   6.131
 3051POPC   C2B42140  29.752   3.837   6.508
 3051POPC   C3B42141  29.751   4.033   6.953
 3051POPC   C4B42142  30.092   3.904   7.227
 3052POPC   NC342143  41.329   4.143   5.673
 3052POPC   PO442144  40.628   4.171   5.480
 3052POPC   GL142145  40.841   4.152   5.842
 3052POPC   GL242146  40.978   4.495   5.837
 3052POPC   C1A42147  40.715   4.110   6.254
 3052POPC   D2A42148  40.361   4.075   6.535
 3052POPC   C3A42149  40.602   4.121   6.896
 3052POPC   C4A42150  40.643   4.331   7.288
 3052POPC   C1B42151  41.145   4.428   6.243
 3052POPC   C2B42152  41.008   4.340   6.654
 3052POPC   C3B42153  40.800   4.650   6.908
 3052POPC   C4B42154  40.960   4.774   7.291
 3053POPC   NC342155  24.790   0.799   5.360
 3053POPC   PO442156  24.394   1.395   5.343
 3053POPC   GL142157  24.334   1.050   5.631
 3053POPC   GL242158  24.645   1.053   5.842
 3053POPC   C1A42159  24.195   0.954   6.068
 3053POPC   D2A42160  24.415   1.064   6.452
 3053POPC   C3A42161  24.270   1.045   6.877
 3053POPC   C4A42162  24.456   1.062   7.288
 3053POPC   C1B42163  24.782   1.349   6.233
 3053POPC   C2B42164  24.844   1.275   6.688
 3053POPC   C3B42165  24.806   1.432   7.126
 3053POPC   C4B42166  24.635   1.500   7.547
 3054POPC   NC342167  22.744   7.952   5.096
 3054POPC   PO442168  22.972   8.431   5.558
 3054POPC   GL142169  22.862   8.227   5.969
 3054POPC   GL242170  22.545   8.123   5.872
 3054POPC   C1A42171  22.999   8.128   6.403
 3054POPC   D2A42172  23.330   8.289   6.654
 3054POPC   C3A42173  23.154   8.326   7.048
 3054POPC   C4A42174  23.005   8.435   7.437
 3054POPC   C1B42175  22.503   7.918   6.272
 3054POPC   C2B42176  22.610   7.896   6.714
 3054POPC   C3B42177  22.626   8.188   7.085
 3054POPC   C4B42178  22.578   8.637   7.240
 3055POPC   NC342179   4.496  38.754   5.228
 3055POPC   PO442180   3.974  38.425   5.472
 3055POPC   GL142181   4.232  38.430   5.832
 3055POPC   GL242182   4.597  38.416   5.742
 3055POPC   C1A42183   4.092  38.350   6.279
 3055POPC   D2A42184   3.851  38.354   6.685
 3055POPC   C3A42185   4.007  38.489   7.108
 3055POPC   C4A42186   4.172  38.468   7.572
 3055POPC   C1B42187   4.579  38.273   6.186
 3055POPC   C2B42188   4.605  38.482   6.575
 3055POPC   C3B42189   4.493  38.406   6.975
 3055POPC   C4B42190   4.627  38.365   7.374
 3056POPC   NC342191  41.046   2.079   5.477
 3056POPC   PO442192  41.652   1.820   5.496
 3056POPC   GL142193  41.583   1.957   5.881
 3056POPC   GL242194  41.634   2.338   5.845
 3056POPC   C1A42195  41.657   1.759   6.282
 3056POPC   D2A42196  41.858   1.614   6.648
 3056POPC   C3A42197  41.536   1.772   6.920
 3056POPC   C4A42198  41.577   2.037   7.268
 3056POPC   C1B42199  41.432   2.268   6.246
 3056POPC   C2B42200  41.369   2.225   6.670
 3056POPC   C3B42201  41.484   2.469   6.995
 3056POPC   C4B42202  41.367   2.485   7.420
 3057POPC   NC342203  30.251   3.023   5.567
 3057POPC   PO442204  29.873   2.472   5.391
 3057POPC   GL142205  29.884   2.721   5.750
 3057POPC   GL242206  30.203   2.545   5.833
 3057POPC   C1A42207  29.778   2.936   6.171
 3057POPC   D2A42208  29.722   3.213   6.573
 3057POPC   C3A42209  29.810   3.082   7.026
 3057POPC   C4A42210  29.763   2.734   7.346
 3057POPC   C1B42211  30.259   2.736   6.208
 3057POPC   C2B42212  30.061   2.798   6.601
 3057POPC   C3B42213  30.237   2.820   7.002
 3057POPC   C4B42214  30.264   2.626   7.399
 3058POPC   NC342215  41.658  11.919   5.371
 3058POPC   PO442216  41.041  11.974   5.705
 3058POPC   GL142217  41.422  11.824   5.833
 3058POPC   GL242218  41.594  12.143   5.818
 3058POPC   C1A42219  41.603  11.842   6.246
 3058POPC   D2A42220  41.329  12.010   6.604
 3058POPC   C3A42221  41.428  11.821   7.018
 3058POPC   C4A42222  41.801  11.607   7.085
 3058POPC   C1B42223  41.546  12.331   6.221
 3058POPC   C2B42224  41.800  12.233   6.593
 3058POPC   C3B42225  41.603  12.293   6.983
 3058POPC   C4B42226  41.712  12.080   7.352
 3059POPC   NC342227   5.616  15.178   5.536
 3059POPC   PO442228   6.269  15.314   5.345
 3059POPC   GL142229   6.053  15.401   5.774
 3059POPC   GL242230   6.005  15.042   5.880
 3059POPC   C1A42231   5.991  15.397   6.266
 3059POPC   D2A42232   5.668  15.539   6.615
 3059POPC   C3A42233   5.824  15.556   7.031
 3059POPC   C4A42234   5.973  15.459   7.461
 3059POPC   C1B42235   5.960  14.876   6.328
 3059POPC   C2B42236   5.987  15.127   6.710
 3059POPC   C3B42237   5.985  15.057   7.134
 3059POPC   C4B42238   5.659  14.721   7.285
 3060POPC   NC342239  21.153   6.768   5.409
 3060POPC   PO442240  21.483   6.099   5.398
 3060POPC   GL142241  21.364   6.411   5.717
 3060POPC   GL242242  21.534   6.738   5.864
 3060POPC   C1A42243  21.226   6.432   6.143
 3060POPC   D2A42244  21.360   6.668   6.513
 3060POPC   C3A42245  21.426   6.584   6.950
 3060POPC   C4A42246  21.152   6.681   7.289
 3060POPC   C1B42247  21.692   6.986   6.267
 3060POPC   C2B42248  21.708   6.991   6.760
 3060POPC   C3B42249  21.560   7.017   7.200
 3060POPC   C4B42250  21.362   6.977   7.645
 3061POPC   NC342251  18.840  33.169   5.176
 3061POPC   PO442252  19.259  32.707   5.295
 3061POPC   GL142253  19.080  33.020   5.607
 3061POPC   GL242254  18.790  32.958   5.778
 3061POPC   C1A42255  19.190  33.155   6.068
 3061POPC   D2A42256  19.094  33.050   6.527
 3061POPC   C3A42257  19.302  33.232   6.902
 3061POPC   C4A42258  19.250  33.163   7.336
 3061POPC   C1B42259  18.694  33.126   6.210
 3061POPC   C2B42260  18.591  33.033   6.647
 3061POPC   C3B42261  18.811  33.080   7.069
 3061POPC   C4B42262  18.709  33.213   7.530
 3062POPC   NC342263  12.154  15.099   5.401
 3062POPC   PO442264  12.033  15.718   5.609
 3062POPC   GL142265  12.219  15.352   5.905
 3062POPC   GL242266  12.183  14.958   5.877
 3062POPC   C1A42267  12.153  15.176   6.353
 3062POPC   D2A42268  11.865  15.300   6.706
 3062POPC   C3A42269  12.100  15.217   7.088
 3062POPC   C4A42270  12.407  15.238   7.386
 3062POPC   C1B42271  12.224  14.640   6.185
 3062POPC   C2B42272  12.304  14.648   6.626
 3062POPC   C3B42273  12.255  14.720   7.062
 3062POPC   C4B42274  12.183  14.735   7.492
 3063POPC   NC342275  31.365   9.823   5.072
 3063POPC   PO442276  31.679   9.678   5.595
 3063POPC   GL142277  31.406   9.700   5.875
 3063POPC   GL242278  31.295  10.028   5.858
 3063POPC   C1A42279  31.426   9.770   6.288
 3063POPC   D2A42280  31.313   9.501   6.604
 3063POPC   C3A42281  31.427   9.687   6.985
 3063POPC   C4A42282  31.414   9.480   7.351
 3063POPC   C1B42283  31.002  10.062   6.171
 3063POPC   C2B42284  31.073   9.958   6.595
 3063POPC   C3B42285  30.936  10.081   6.961
 3063POPC   C4B42286  31.070   9.914   7.311
 3064POPC   NC342287  22.535  27.012   5.090
 3064POPC   PO442288  22.229  26.502   5.400
 3064POPC   GL142289  22.148  26.714   5.809
 3064POPC   GL242290  22.010  27.047   5.797
 3064POPC   C1A42291  22.174  26.723   6.266
 3064POPC   D2A42292  22.274  26.478   6.641
 3064POPC   C3A42293  22.140  26.479   7.064
 3064POPC   C4A42294  22.217  26.534   7.509
 3064POPC   C1B42295  21.885  27.247   6.189
 3064POPC   C2B42296  22.039  27.185   6.571
 3064POPC   C3B42297  22.162  26.993   6.939
 3064POPC   C4B42298  22.197  27.035   7.362
 3065POPC   NC342299  24.238  42.016   5.278
 3065POPC   PO442300  24.181  41.401   5.313
 3065POPC   GL142301  24.355  41.641   5.716
 3065POPC   GL242302  24.637  41.852   5.655
 3065POPC   C1A42303  24.343  41.621   6.221
 3065POPC   D2A42304  24.189  41.714   6.675
 3065POPC   C3A42305  24.364  41.549   7.088
 3065POPC   C4A42306  24.318  41.379   7.529
 3065POPC   C1B42307  24.763  41.933   6.100
 3065POPC   C2B42308  24.588  41.986   6.504
 3065POPC   C3B42309  24.698  41.930   6.936
 3065POPC   C4B42310  24.705  42.260   7.245
 3066POPC   NC342311  19.922  14.514   5.398
 3066POPC   PO442312  19.885  13.899   5.361
 3066POPC   GL142313  19.874  14.197   5.805
 3066POPC   GL242314  20.013  14.527   5.928
 3066POPC   C1A42315  19.858  14.173   6.301
 3066POPC   D2A42316  20.002  14.274   6.737
 3066POPC   C3A42317  19.679  14.209   7.038
 3066POPC   C4A42318  19.465  13.856   7.219
 3066POPC   C1B42319  19.702  14.667   6.250
 3066POPC   C2B42320  19.660  14.662   6.715
 3066POPC   C3B42321  19.876  14.675   7.131
 3066POPC   C4B42322  19.929  14.659   7.617
 3067POPC   NC342323  14.225   9.258   5.374
 3067POPC   PO442324  14.822   8.878   5.540
 3067POPC   GL142325  14.481   9.070   5.759
 3067POPC   GL242326  14.192   8.856   5.698
 3067POPC   C1A42327  14.273   9.162   6.153
 3067POPC   D2A42328  14.608   9.240   6.468
 3067POPC   C3A42329  14.639   9.156   6.908
 3067POPC   C4A42330  14.249   9.055   7.108
 3067POPC   C1B42331  14.351   8.659   6.078
 3067POPC   C2B42332  14.253   8.774   6.515
 3067POPC   C3B42333  14.518   8.663   6.832
 3067POPC   C4B42334  14.482   8.567   7.225
 3068POPC   NC342335  35.296   9.050   4.953
 3068POPC   PO442336  35.540   8.740   5.539
 3068POPC   GL142337  35.537   9.069   5.828
 3068POPC   GL242338  35.225   9.043   5.892
 3068POPC   C1A42339  35.472   9.212   6.295
 3068POPC   D2A42340  35.561   9.221   6.733
 3068POPC   C3A42341  35.293   9.144   7.089
 3068POPC   C4A42342  35.569   9.171   7.466
 3068POPC   C1B42343  35.332   8.717   6.203
 3068POPC   C2B42344  35.280   8.777   6.645
 3068POPC   C3B42345  35.193   8.607   7.040
 3068POPC   C4B42346  35.304   8.732   7.441
 3069POPC   NC342347  32.606   2.854   5.388
 3069POPC   PO442348  31.996   3.130   5.598
 3069POPC   GL142349  32.319   2.966   5.850
 3069POPC   GL242350  32.329   2.645   5.901
 3069POPC   C1A42351  32.264   2.921   6.308
 3069POPC   D2A42352  32.132   2.989   6.744
 3069POPC   C3A42353  32.435   2.883   7.007
 3069POPC   C4A42354  32.461   2.839   7.439
 3069POPC   C1B42355  32.073   2.442   6.209
 3069POPC   C2B42356  32.221   2.494   6.613
 3069POPC   C3B42357  32.074   2.495   7.004
 3069POPC   C4B42358  32.271   2.358   7.364
 3070POPC   NC342359  14.428  29.714   5.240
 3070POPC   PO442360  14.044  30.348   5.362
 3070POPC   GL142361  14.140  30.109   5.739
 3070POPC   GL242362  14.430  29.869   5.733
 3070POPC   C1A42363  14.362  30.159   6.142
 3070POPC   D2A42364  14.361  29.976   6.529
 3070POPC   C3A42365  14.473  30.194   6.872
 3070POPC   C4A42366  14.444  30.035   7.283
 3070POPC   C1B42367  14.437  29.499   6.031
 3070POPC   C2B42368  14.428  29.460   6.508
 3070POPC   C3B42369  14.395  29.644   6.932
 3070POPC   C4B42370  14.405  29.514   7.352
 3071POPC   NC342371  19.156  24.956   5.155
 3071POPC   PO442372  18.939  25.578   5.302
 3071POPC   GL142373  18.958  25.230   5.569
 3071POPC   GL242374  19.300  25.279   5.566
 3071POPC   C1A42375  18.828  25.133   6.010
 3071POPC   D2A42376  18.840  25.248   6.439
 3071POPC   C3A42377  18.929  25.362   6.849
 3071POPC   C4A42378  18.985  25.090   7.186
 3071POPC   C1B42379  19.286  25.399   6.021
 3071POPC   C2B42380  19.372  25.445   6.482
 3071POPC   C3B42381  19.440  25.328   6.923
 3071POPC   C4B42382  19.491  24.969   7.174
 3072POPC   NC342383  44.854  32.141   5.359
 3072POPC   PO442384  44.313  32.384   5.436
 3072POPC   GL142385  44.498  32.098   5.776
 3072POPC   GL242386  44.829  31.998   5.871
 3072POPC   C1A42387  44.375  32.088   6.204
 3072POPC   D2A42388  44.344  32.429   6.515
 3072POPC   C3A42389  44.437  32.335   6.929
 3072POPC   C4A42390  44.439  31.925   7.116
 3072POPC   C1B42391  44.854  32.300   6.234
 3072POPC   C2B42392  44.869  32.582   6.605
 3072POPC   C3B42393  44.864  32.611   7.048
 3072POPC   C4B42394  44.814  32.241   7.273
 3073POPC   NC342395  41.826  17.900   5.652
 3073POPC   PO442396  41.442  18.363   5.409
 3073POPC   GL142397  41.409  18.213   5.823
 3073POPC   GL242398  41.058  18.081   5.840
 3073POPC   C1A42399  41.612  18.230   6.235
 3073POPC   D2A42400  41.499  18.378   6.643
 3073POPC   C3A42401  41.762  18.617   6.908
 3073POPC   C4A42402  42.030  18.383   7.155
 3073POPC   C1B42403  41.090  18.385   6.209
 3073POPC   C2B42404  40.981  18.312   6.630
 3073POPC   C3B42405  41.188  18.158   6.991
 3073POPC   C4B42406  41.521  18.302   7.236
 3074POPC   NC342407   9.686  23.117   5.422
 3074POPC   PO442408  10.232  22.594   5.445
 3074POPC   GL142409   9.856  22.740   5.706
 3074POPC   GL242410   9.754  22.505   5.911
 3074POPC   C1A42411   9.606  22.956   6.082
 3074POPC   D2A42412   9.761  23.055   6.510
 3074POPC   C3A42413   9.620  23.042   6.916
 3074POPC   C4A42414   9.504  23.282   7.235
 3074POPC   C1B42415  10.085  22.769   6.160
 3074POPC   C2B42416  10.243  22.842   6.579
 3074POPC   C3B42417  10.101  22.812   7.024
 3074POPC   C4B42418   9.825  22.910   7.394
 3075POPC   NC342419  42.326  11.001   5.296
 3075POPC   PO442420  42.667  10.492   5.553
 3075POPC   GL142421  42.282  10.698   5.757
 3075POPC   GL242422  42.495  10.669   6.033
 3075POPC   C1A42423  42.043  10.783   6.175
 3075POPC   D2A42424  42.236  10.738   6.643
 3075POPC   C3A42425  42.061  10.607   7.096
 3075POPC   C4A42426  41.964  10.177   7.239
 3075POPC   C1B42427  42.743  10.885   6.336
 3075POPC   C2B42428  42.772  10.769   6.745
 3075POPC   C3B42429  42.555  10.471   6.984
 3075POPC   C4B42430  42.594  10.474   7.415
 3076POPC   NC342431  39.457  13.628   5.464
 3076POPC   PO442432  39.358  13.070   5.161
 3076POPC   GL142433  39.236  13.269   5.715
 3076POPC   GL242434  39.348  13.607   5.953
 3076POPC   C1A42435  39.355  13.166   6.181
 3076POPC   D2A42436  39.279  13.436   6.556
 3076POPC   C3A42437  39.321  13.342   7.008
 3076POPC   C4A42438  39.184  13.554   7.382
 3076POPC   C1B42439  39.321  13.888   6.355
 3076POPC   C2B42440  39.335  13.847   6.842
 3076POPC   C3B42441  39.098  14.076   7.148
 3076POPC   C4B42442  39.024  14.025   7.583
 3077POPC   NC342443  22.469  40.214   5.498
 3077POPC   PO442444  22.181  40.749   5.396
 3077POPC   GL142445  22.081  40.994   5.799
 3077POPC   GL242446  22.303  40.792   5.973
 3077POPC   C1A42447  22.199  41.260   6.186
 3077POPC   D2A42448  22.164  41.409   6.661
 3077POPC   C3A42449  22.239  41.122   7.016
 3077POPC   C4A42450  22.338  40.750   7.273
 3077POPC   C1B42451  22.211  40.746   6.425
 3077POPC   C2B42452  22.023  40.689   6.832
 3077POPC   C3B42453  21.971  40.401   7.192
 3077POPC   C4B42454  22.220  40.248   7.577
 3078POPC   NC342455  40.978  22.551   5.268
 3078POPC   PO442456  40.795  21.905   5.260
 3078POPC   GL142457  40.656  22.184   5.627
 3078POPC   GL242458  40.682  21.919   5.859
 3078POPC   C1A42459  40.470  22.325   6.069
 3078POPC   D2A42460  40.713  22.348   6.492
 3078POPC   C3A42461  40.638  22.224   6.925
 3078POPC   C4A42462  40.684  22.541   7.247
 3078POPC   C1B42463  40.985  22.224   6.093
 3078POPC   C2B42464  41.233  22.319   6.501
 3078POPC   C3B42465  41.193  22.144   6.917
 3078POPC   C4B42466  41.015  22.158   7.326
 3079POPC   NC342467  29.356  34.827   5.520
 3079POPC   PO442468  29.316  35.492   5.456
 3079POPC   GL142469  29.100  35.404   5.855
 3079POPC   GL242470  29.093  35.069   5.881
 3079POPC   C1A42471  28.977  35.344   6.294
 3079POPC   D2A42472  29.168  35.572   6.662
 3079POPC   C3A42473  29.125  35.378   7.069
 3079POPC   C4A42474  28.927  35.386   7.481
 3079POPC   C1B42475  29.442  35.181   6.184
 3079POPC   C2B42476  29.693  35.005   6.531
 3079POPC   C3B42477  29.637  35.149   6.982
 3079POPC   C4B42478  29.433  35.169   7.436
 3080POPC   NC342479  42.711   9.368   5.408
 3080POPC   PO442480  42.091   9.053   5.375
 3080POPC   GL142481  42.229   8.914   5.798
 3080POPC   GL242482  42.526   9.089   5.923
 3080POPC   C1A42483  42.187   8.946   6.273
 3080POPC   D2A42484  42.419   9.026   6.674
 3080POPC   C3A42485  42.264   8.892   7.092
 3080POPC   C4A42486  42.110   9.017   7.499
 3080POPC   C1B42487  42.692   8.811   6.245
 3080POPC   C2B42488  42.832   8.678   6.642
 3080POPC   C3B42489  42.758   8.822   7.049
 3080POPC   C4B42490  42.621   8.908   7.469
 3081POPC   NC342491  33.910  20.443   5.430
 3081POPC   PO442492  33.754  21.089   5.520
 3081POPC   GL142493  33.968  20.862   5.831
 3081POPC   GL242494  33.800  20.523   5.925
 3081POPC   C1A42495  34.075  20.766   6.254
 3081POPC   D2A42496  33.979  20.499   6.589
 3081POPC   C3A42497  34.000  20.718   6.972
 3081POPC   C4A42498  33.908  20.934   7.330
 3081POPC   C1B42499  33.600  20.249   6.271
 3081POPC   C2B42500  33.616  20.005   6.668
 3081POPC   C3B42501  33.478  20.144   7.097
 3081POPC   C4B42502  33.617  20.517   7.334
 3082POPC   NC342503  22.551   1.624   5.194
 3082POPC   PO442504  22.081   1.199   5.529
 3082POPC   GL142505  22.370   1.272   5.865
 3082POPC   GL242506  22.128   1.447   6.053
 3082POPC   C1A42507  22.521   1.335   6.309
 3082POPC   D2A42508  22.285   1.245   6.657
 3082POPC   C3A42509  22.429   1.438   7.002
 3082POPC   C4A42510  22.445   1.306   7.405
 3082POPC   C1B42511  21.829   1.448   6.357
 3082POPC   C2B42512  21.847   1.499   6.773
 3082POPC   C3B42513  21.955   1.329   7.175
 3082POPC   C4B42514  22.020   1.587   7.543
 3083POPC   NC342515  41.795   8.726   5.512
 3083POPC   PO442516  41.389   9.156   5.238
 3083POPC   GL142517  41.459   9.083   5.663
 3083POPC   GL242518  41.328   8.740   5.726
 3083POPC   C1A42519  41.418   9.163   6.105
 3083POPC   D2A42520  41.466   9.025   6.524
 3083POPC   C3A42521  41.438   9.232   6.953
 3083POPC   C4A42522  41.732   9.290   7.267
 3083POPC   C1B42523  41.566   8.633   6.121
 3083POPC   C2B42524  41.818   8.653   6.484
 3083POPC   C3B42525  41.839   8.917   6.838
 3083POPC   C4B42526  41.726   8.774   7.228
 3084POPC   NC342527  38.036  20.470   5.126
 3084POPC   PO442528  37.467  20.714   5.312
 3084POPC   GL142529  37.545  20.705   5.734
 3084POPC   GL242530  37.890  20.769   5.695
 3084POPC   C1A42531  37.459  20.575   6.146
 3084POPC   D2A42532  37.244  20.528   6.503
 3084POPC   C3A42533  37.498  20.572   6.854
 3084POPC   C4A42534  37.617  20.840   7.186
 3084POPC   C1B42535  37.963  20.496   6.052
 3084POPC   C2B42536  37.867  20.529   6.488
 3084POPC   C3B42537  38.002  20.632   6.916
 3084POPC   C4B42538  38.098  20.784   7.331
 3085POPC   NC342539   6.886  33.757   5.004
 3085POPC   PO442540   6.556  34.191   5.408
 3085POPC   GL142541   6.563  33.882   5.794
 3085POPC   GL242542   6.838  33.617   5.804
 3085POPC   C1A42543   6.491  33.998   6.230
 3085POPC   D2A42544   6.291  34.184   6.588
 3085POPC   C3A42545   6.463  34.018   6.952
 3085POPC   C4A42546   6.763  33.911   7.240
 3085POPC   C1B42547   6.623  33.504   6.192
 3085POPC   C2B42548   6.773  33.675   6.597
 3085POPC   C3B42549   6.912  33.498   6.993
 3085POPC   C4B42550   6.669  33.368   7.315
 3086POPC   NC342551  39.480   7.610   5.238
 3086POPC   PO442552  39.313   6.985   5.294
 3086POPC   GL142553  39.259   7.103   5.711
 3086POPC   GL242554  39.481   7.396   5.745
 3086POPC   C1A42555  39.129   7.254   6.138
 3086POPC   D2A42556  39.280   7.219   6.560
 3086POPC   C3A42557  38.917   7.357   6.828
 3086POPC   C4A42558  39.011   7.297   7.263
 3086POPC   C1B42559  39.461   7.658   6.121
 3086POPC   C2B42560  39.233   7.719   6.524
 3086POPC   C3B42561  39.348   7.603   6.928
 3086POPC   C4B42562  39.261   7.734   7.318
 3087POPC   NC342563   9.475  18.076   5.371
 3087POPC   PO442564  10.050  18.482   5.300
 3087POPC   GL142565   9.997  18.517   5.729
 3087POPC   GL242566   9.752  18.278   5.757
 3087POPC   C1A42567  10.178  18.486   6.148
 3087POPC   D2A42568  10.026  18.577   6.563
 3087POPC   C3A42569   9.808  18.288   6.826
 3087POPC   C4A42570   9.891  18.458   7.204
 3087POPC   C1B42571   9.659  18.423   6.185
 3087POPC   C2B42572   9.502  18.621   6.567
 3087POPC   C3B42573   9.343  18.640   6.984
 3087POPC   C4B42574   9.415  18.272   7.215
 3088POPC   NC342575  10.519  16.864   5.408
 3088POPC   PO442576  10.199  16.233   5.446
 3088POPC   GL142577  10.407  16.500   5.800
 3088POPC   GL242578  10.638  16.782   5.897
 3088POPC   C1A42579  10.284  16.614   6.213
 3088POPC   D2A42580  10.252  16.802   6.607
 3088POPC   C3A42581  10.292  16.569   7.006
 3088POPC   C4A42582  10.509  16.741   7.352
 3088POPC   C1B42583  10.756  16.849   6.339
 3088POPC   C2B42584  10.825  16.812   6.810
 3088POPC   C3B42585  10.887  17.064   7.189
 3088POPC   C4B42586  10.878  16.991   7.642
 3089POPC   NC342587  32.705   6.954   5.342
 3089POPC   PO442588  33.335   6.736   5.539
 3089POPC   GL142589  32.960   6.723   5.779
 3089POPC   GL242590  32.852   7.063   5.834
 3089POPC   C1A42591  32.988   6.445   6.148
 3089POPC   D2A42592  33.175   6.280   6.533
 3089POPC   C3A42593  32.992   6.403   6.925
 3089POPC   C4A42594  33.106   6.424   7.364
 3089POPC   C1B42595  33.096   6.969   6.240
 3089POPC   C2B42596  33.235   6.812   6.677
 3089POPC   C3B42597  33.321   6.826   7.142
 3089POPC   C4B42598  33.228   6.916   7.599
 3090POPC   NC342599  34.894   2.228   5.380
 3090POPC   PO442600  34.592   1.569   5.535
 3090POPC   GL142601  34.699   1.755   5.890
 3090POPC   GL242602  34.572   2.054   5.733
 3090POPC   C1A42603  34.451   1.944   6.225
 3090POPC   D2A42604  34.129   2.196   6.418
 3090POPC   C3A42605  34.349   2.192   6.785
 3090POPC   C4A42606  34.387   2.180   7.223
 3090POPC   C1B42607  34.826   2.228   6.050
 3090POPC   C2B42608  34.806   2.215   6.497
 3090POPC   C3B42609  35.025   2.166   6.857
 3090POPC   C4B42610  34.880   2.283   7.243
 3091POPC   NC342611   8.043  10.470   5.493
 3091POPC   PO442612   8.468   9.986   5.526
 3091POPC   GL142613   8.272  10.256   5.898
 3091POPC   GL242614   8.233  10.622   5.930
 3091POPC   C1A42615   8.275  10.357   6.362
 3091POPC   D2A42616   8.161  10.657   6.675
 3091POPC   C3A42617   8.092  10.499   7.093
 3091POPC   C4A42618   8.277  10.306   7.442
 3091POPC   C1B42619   7.957  10.858   6.212
 3091POPC   C2B42620   7.987  11.142   6.541
 3091POPC   C3B42621   7.868  11.011   6.933
 3091POPC   C4B42622   7.683  10.882   7.302
 3092POPC   NC342623  27.552  14.597   5.260
 3092POPC   PO442624  27.327  14.072   5.325
 3092POPC   GL142625  27.481  14.353   5.696
 3092POPC   GL242626  27.243  14.409   5.943
 3092POPC   C1A42627  27.686  14.675   6.013
 3092POPC   D2A42628  27.795  14.620   6.449
 3092POPC   C3A42629  27.858  14.731   6.881
 3092POPC   C4A42630  27.902  14.501   7.253
 3092POPC   C1B42631  27.283  14.667   6.334
 3092POPC   C2B42632  27.361  14.781   6.778
 3092POPC   C3B42633  27.402  14.725   7.244
 3092POPC   C4B42634  27.210  14.634   7.676
 3093POPC   NC342635  40.203  25.658   5.625
 3093POPC   PO442636  40.152  25.043   5.275
 3093POPC   GL142637  40.116  25.112   5.759
 3093POPC   GL242638  39.862  25.377   5.898
 3093POPC   C1A42639  39.969  25.002   6.215
 3093POPC   D2A42640  39.726  25.250   6.559
 3093POPC   C3A42641  39.923  25.397   6.924
 3093POPC   C4A42642  40.052  25.262   7.345
 3093POPC   C1B42643  40.038  25.559   6.320
 3093POPC   C2B42644  40.308  25.700   6.709
 3093POPC   C3B42645  40.280  25.725   7.203
 3093POPC   C4B42646  40.107  25.770   7.665
 3094POPC   NC342647  41.067  30.908   5.644
 3094POPC   PO442648  40.483  30.800   5.336
 3094POPC   GL142649  40.550  30.567   5.752
 3094POPC   GL242650  40.757  30.777   6.012
 3094POPC   C1A42651  40.476  30.444   6.210
 3094POPC   D2A42652  40.822  30.598   6.513
 3094POPC   C3A42653  40.680  30.528   6.921
 3094POPC   C4A42654  40.532  30.337   7.285
 3094POPC   C1B42655  40.672  31.074   6.381
 3094POPC   C2B42656  40.971  31.260   6.690
 3094POPC   C3B42657  41.070  31.121   7.118
 3094POPC   C4B42658  40.805  30.802   7.332
 3095POPC   NC342659  36.706   4.438   5.370
 3095POPC   PO442660  37.358   4.253   5.388
 3095POPC   GL142661  37.048   4.347   5.793
 3095POPC   GL242662  36.711   4.234   5.839
 3095POPC   C1A42663  36.910   4.438   6.273
 3095POPC   D2A42664  36.810   4.672   6.685
 3095POPC   C3A42665  37.018   4.486   7.010
 3095POPC   C4A42666  37.021   4.065   7.153
 3095POPC   C1B42667  36.441   4.541   6.114
 3095POPC   C2B42668  36.397   4.360   6.509
 3095POPC   C3B42669  36.603   4.227   6.895
 3095POPC   C4B42670  36.633   4.390   7.319
 3096POPC   NC342671  13.065   5.681   5.293
 3096POPC   PO442672  12.457   5.828   5.170
 3096POPC   GL142673  12.748   5.938   5.601
 3096POPC   GL242674  13.062   6.121   5.603
 3096POPC   C1A42675  12.849   5.727   6.051
 3096POPC   D2A42676  12.804   5.842   6.522
 3096POPC   C3A42677  13.055   5.766   6.928
 3096POPC   C4A42678  12.925   5.438   7.223
 3096POPC   C1B42679  13.086   6.181   6.053
 3096POPC   C2B42680  13.037   6.322   6.488
 3096POPC   C3B42681  12.941   6.344   6.938
 3096POPC   C4B42682  13.207   6.243   7.265
 3097POPC   NC342683   8.735   1.844   5.642
 3097POPC   PO442684   9.295   1.711   5.405
 3097POPC   GL142685   9.153   1.671   5.883
 3097POPC   GL242686   9.103   2.028   5.961
 3097POPC   C1A42687   8.802   1.743   6.253
 3097POPC   D2A42688   8.673   1.958   6.608
 3097POPC   C3A42689   8.926   1.759   6.897
 3097POPC   C4A42690   9.005   1.796   7.315
 3097POPC   C1B42691   8.822   2.297   6.211
 3097POPC   C2B42692   8.792   2.491   6.621
 3097POPC   C3B42693   8.886   2.282   7.012
 3097POPC   C4B42694   9.156   2.258   7.406
 3098POPC   NC342695  10.510  11.671   5.485
 3098POPC   PO442696  10.344  12.290   5.316
 3098POPC   GL142697  10.489  12.152   5.705
 3098POPC   GL242698  10.829  12.037   5.675
 3098POPC   C1A42699  10.418  12.065   6.130
 3098POPC   D2A42700  10.429  12.334   6.482
 3098POPC   C3A42701  10.381  12.118   6.862
 3098POPC   C4A42702  10.491  12.019   7.264
 3098POPC   C1B42703  10.929  11.874   6.095
 3098POPC   C2B42704  10.804  11.970   6.521
 3098POPC   C3B42705  10.873  11.854   6.961
 3098POPC   C4B42706  10.756  11.569   7.304
 3099POPC   NC342707  21.112  31.879   5.455
 3099POPC   PO442708  20.943  31.314   5.736
 3099POPC   GL142709  21.321  31.565   5.881
 3099POPC   GL242710  21.694  31.551   5.775
 3099POPC   C1A42711  21.374  31.498   6.322
 3099POPC   D2A42712  21.228  31.288   6.696
 3099POPC   C3A42713  21.329  31.523   7.044
 3099POPC   C4A42714  21.353  31.478   7.481
 3099POPC   C1B42715  21.819  31.317   6.157
 3099POPC   C2B42716  21.737  31.313   6.637
 3099POPC   C3B42717  21.715  31.195   7.066
 3099POPC   C4B42718  21.885  31.385   7.424
 3100POPC   NC342719  16.894  27.481   5.373
 3100POPC   PO442720  16.291  27.710   5.469
 3100POPC   GL142721  16.641  27.565   5.826
 3100POPC   GL242722  17.019  27.423   5.854
 3100POPC   C1A42723  16.850  27.732   6.236
 3100POPC   D2A42724  17.180  27.558   6.532
 3100POPC   C3A42725  17.008  27.506   6.949
 3100POPC   C4A42726  16.558  27.590   7.093
 3100POPC   C1B42727  16.783  27.225   6.184
 3100POPC   C2B42728  16.698  27.352   6.585
 3100POPC   C3B42729  16.677  27.117   6.965
 3100POPC   C4B42730  16.758  27.237   7.398
 3101POPC   NC342731  36.516  28.621   5.319
 3101POPC   PO442732  37.051  28.138   5.404
 3101POPC   GL142733  36.918  28.124   5.837
 3101POPC   GL242734  36.561  28.134   5.902
 3101POPC   C1A42735  36.914  28.119   6.292
 3101POPC   D2A42736  37.197  28.118   6.636
 3101POPC   C3A42737  37.076  28.379   6.978
 3101POPC   C4A42738  36.638  28.547   7.076
 3101POPC   C1B42739  36.384  28.155   6.315
 3101POPC   C2B42740  36.443  28.106   6.760
 3101POPC   C3B42741  36.714  28.026   7.064
 3101POPC   C4B42742  36.860  28.240   7.418
 3102POPC   NC342743   2.376  41.599   5.486
 3102POPC   PO442744   1.680  41.760   5.488
 3102POPC   GL142745   1.883  41.529   5.841
 3102POPC   GL242746   2.218  41.362   5.908
 3102POPC   C1A42747   1.944  41.661   6.259
 3102POPC   D2A42748   1.850  41.869   6.626
 3102POPC   C3A42749   1.827  41.625   6.969
 3102POPC   C4A42750   1.748  41.767   7.365
 3102POPC   C1B42751   2.443  41.600   6.213
 3102POPC   C2B42752   2.373  41.727   6.611
 3102POPC   C3B42753   2.361  41.512   6.965
 3102POPC   C4B42754   2.172  41.494   7.341
 3103POPC   NC342755  11.531  37.525   5.437
 3103POPC   PO442756  10.937  37.921   5.300
 3103POPC   GL142757  11.099  37.768   5.693
 3103POPC   GL242758  11.424  37.909   5.776
 3103POPC   C1A42759  11.122  37.554   6.107
 3103POPC   D2A42760  10.985  37.417   6.534
 3103POPC   C3A42761  11.196  37.532   6.921
 3103POPC   C4A42762  10.986  37.700   7.305
 3103POPC   C1B42763  11.571  37.780   6.179
 3103POPC   C2B42764  11.567  37.575   6.557
 3103POPC   C3B42765  11.697  37.728   6.938
 3103POPC   C4B42766  11.495  37.769   7.305
 3104POPC   NC342767  43.921  23.107   5.440
 3104POPC   PO442768  43.962  22.526   5.669
 3104POPC   GL142769  43.796  22.870   5.892
 3104POPC   GL242770  43.775  23.259   5.889
 3104POPC   C1A42771  43.731  22.781   6.281
 3104POPC   D2A42772  43.993  22.655   6.592
 3104POPC   C3A42773  43.842  22.735   6.976
 3104POPC   C4A42774  44.029  22.861   7.345
 3104POPC   C1B42775  43.831  23.269   6.289
 3104POPC   C2B42776  43.736  23.128   6.672
 3104POPC   C3B42777  44.001  23.224   6.999
 3104POPC   C4B42778  43.929  23.404   7.403
 3105POPC   NC342779   0.104  26.250   5.478
 3105POPC   PO442780   0.436  25.639   5.405
 3105POPC   GL142781   0.550  26.004   5.700
 3105POPC   GL242782   0.266  25.948   5.897
 3105POPC   C1A42783   0.612  26.188   6.161
 3105POPC   D2A42784   0.406  25.985   6.502
 3105POPC   C3A42785   0.370  26.182   6.885
 3105POPC   C4A42786   0.666  26.294   7.173
 3105POPC   C1B42787   0.114  25.647   6.216
 3105POPC   C2B42788   0.290  25.465   6.568
 3105POPC   C3B42789   0.329  25.680   6.944
 3105POPC   C4B42790   0.507  25.838   7.291
 3106POPC   NC342791  23.985  29.675   5.594
 3106POPC   PO442792  24.496  30.095   5.378
 3106POPC   GL142793  24.432  29.936   5.770
 3106POPC   GL242794  24.142  30.042   5.913
 3106POPC   C1A42795  24.574  29.956   6.206
 3106POPC   D2A42796  24.521  30.117   6.595
 3106POPC   C3A42797  24.635  29.934   6.910
 3106POPC   C4A42798  24.501  29.753   7.239
 3106POPC   C1B42799  24.235  30.342   6.239
 3106POPC   C2B42800  24.064  30.356   6.654
 3106POPC   C3B42801  24.199  30.230   7.081
 3106POPC   C4B42802  23.899  30.014   7.328
 3107POPC   NC342803  20.081  24.655   4.921
 3107POPC   PO442804  19.948  24.191   5.457
 3107POPC   GL142805  19.921  24.519   5.798
 3107POPC   GL242806  19.597  24.527   5.904
 3107POPC   C1A42807  19.966  24.537   6.259
 3107POPC   D2A42808  19.851  24.321   6.655
 3107POPC   C3A42809  19.807  24.601   7.023
 3107POPC   C4A42810  19.753  24.573   7.461
 3107POPC   C1B42811  19.458  24.495   6.331
 3107POPC   C2B42812  19.386  24.449   6.766
 3107POPC   C3B42813  19.506  24.205   7.137
 3107POPC   C4B42814  19.688  24.023   7.518
 3108POPC   NC342815   0.980   7.849   5.390
 3108POPC   PO442816   1.423   8.282   5.606
 3108POPC   GL142817   1.056   8.223   5.835
 3108POPC   GL242818   1.073   7.877   5.866
 3108POPC   C1A42819   1.042   8.362   6.245
 3108POPC   D2A42820   1.269   8.253   6.619
 3108POPC   C3A42821   1.109   8.369   7.019
 3108POPC   C4A42822   1.248   8.349   7.444
 3108POPC   C1B42823   1.246   7.884   6.229
 3108POPC   C2B42824   1.098   7.782   6.599
 3108POPC   C3B42825   1.284   7.878   6.979
 3108POPC   C4B42826   1.122   7.798   7.344
 3109POPC   NC342827  36.887  32.978   5.520
 3109POPC   PO442828  36.550  33.536   5.726
 3109POPC   GL142829  36.628  33.151   5.927
 3109POPC   GL242830  37.009  33.130   5.974
 3109POPC   C1A42831  36.675  33.087   6.351
 3109POPC   D2A42832  36.978  33.188   6.622
 3109POPC   C3A42833  36.713  33.184   6.927
 3109POPC   C4A42834  36.692  33.073   7.313
 3109POPC   C1B42835  37.316  32.961   6.243
 3109POPC   C2B42836  37.433  32.973   6.676
 3109POPC   C3B42837  37.156  32.923   7.044
 3109POPC   C4B42838  37.158  32.787   7.475
 3110POPC   NC342839  43.399  44.608   5.293
 3110POPC   PO442840  42.717  44.606   5.188
 3110POPC   GL142841  42.987  44.558   5.643
 3110POPC   GL242842  43.274  44.358   5.713
 3110POPC   C1A42843  42.906  44.709   6.118
 3110POPC   D2A42844  43.197  44.760   6.471
 3110POPC   C3A42845  43.107  44.620   6.902
 3110POPC   C4A42846  43.308  44.767   7.274
 3110POPC   C1B42847  43.262  44.351   6.144
 3110POPC   C2B42848  43.504  44.346   6.560
 3110POPC   C3B42849  43.583  44.409   7.017
 3110POPC   C4B42850  43.605  44.407   7.485
 3111POPC   NC342851   2.814   8.566   5.173
 3111POPC   PO442852   2.654   9.132   5.321
 3111POPC   GL142853   2.770   9.065   5.746
 3111POPC   GL242854   2.717   8.734   5.846
 3111POPC   C1A42855   2.612   9.123   6.190
 3111POPC   D2A42856   2.619   8.972   6.624
 3111POPC   C3A42857   2.685   9.203   7.016
 3111POPC   C4A42858   3.056   9.211   7.302
 3111POPC   C1B42859   3.021   8.803   6.194
 3111POPC   C2B42860   3.106   8.655   6.602
 3111POPC   C3B42861   2.940   8.767   6.996
 3111POPC   C4B42862   2.571   8.794   7.260
 3112POPC   NC342863   1.460  26.654   5.386
 3112POPC   PO442864   2.027  27.085   5.393
 3112POPC   GL142865   1.882  26.887   5.768
 3112POPC   GL242866   1.554  26.988   5.844
 3112POPC   C1A42867   1.894  26.942   6.251
 3112POPC   D2A42868   2.041  27.081   6.682
 3112POPC   C3A42869   2.093  26.983   7.147
 3112POPC   C4A42870   2.251  26.692   7.479
 3112POPC   C1B42871   1.397  26.836   6.261
 3112POPC   C2B42872   1.382  26.721   6.698
 3112POPC   C3B42873   1.595  26.891   7.057
 3112POPC   C4B42874   1.751  26.764   7.487
 3113POPC   NC342875  12.825  11.864   5.358
 3113POPC   PO442876  12.973  12.455   5.530
 3113POPC   GL142877  12.970  12.100   5.814
 3113POPC   GL242878  12.617  11.983   5.809
 3113POPC   C1A42879  12.858  12.163   6.248
 3113POPC   D2A42880  12.651  12.434   6.543
 3113POPC   C3A42881  12.885  12.364   6.920
 3113POPC   C4A42882  13.016  12.027   7.191
 3113POPC   C1B42883  12.576  11.737   6.193
 3113POPC   C2B42884  12.754  11.798   6.594
 3113POPC   C3B42885  12.699  11.662   6.991
 3113POPC   C4B42886  12.621  11.804   7.412
 3114POPC   NC342887  42.099  36.609   5.438
 3114POPC   PO442888  41.584  36.862   5.070
 3114POPC   GL142889  41.473  36.946   5.562
 3114POPC   GL242890  41.115  36.855   5.739
 3114POPC   C1A42891  41.545  36.855   6.028
 3114POPC   D2A42892  41.515  37.004   6.480
 3114POPC   C3A42893  41.597  36.777   6.888
 3114POPC   C4A42894  41.726  36.940   7.295
 3114POPC   C1B42895  41.040  36.935   6.236
 3114POPC   C2B42896  41.079  36.881   6.731
 3114POPC   C3B42897  41.200  37.064   7.140
 3114POPC   C4B42898  41.254  37.427   7.449
 3115POPC   NC342899  41.167  40.985   5.564
 3115POPC   PO442900  40.570  40.922   5.381
 3115POPC   GL142901  40.689  40.810   5.780
 3115POPC   GL242902  40.980  40.594   5.817
 3115POPC   C1A42903  40.565  40.953   6.181
 3115POPC   D2A42904  40.452  41.017   6.607
 3115POPC   C3A42905  40.647  40.834   6.962
 3115POPC   C4A42906  40.800  41.056   7.325
 3115POPC   C1B42907  41.071  40.861   6.201
 3115POPC   C2B42908  41.006  41.020   6.626
 3115POPC   C3B42909  41.156  40.829   7.013
 3115POPC   C4B42910  41.111  40.647   7.395
 3116POPC   NC342911  38.055  15.399   5.530
 3116POPC   PO442912  37.971  14.642   5.489
 3116POPC   GL142913  37.789  15.022   5.788
 3116POPC   GL242914  37.398  15.083   5.811
 3116POPC   C1A42915  37.761  15.262   6.226
 3116POPC   D2A42916  38.009  15.236   6.637
 3116POPC   C3A42917  37.919  15.196   7.094
 3116POPC   C4A42918  37.993  15.454   7.441
 3116POPC   C1B42919  37.257  15.152   6.257
 3116POPC   C2B42920  37.431  15.360   6.646
 3116POPC   C3B42921  37.391  15.281   7.087
 3116POPC   C4B42922  37.528  14.902   7.244
 3117POPC   NC342923  34.991  23.945   5.449
 3117POPC   PO442924  35.416  23.489   5.257
 3117POPC   GL142925  35.424  23.619   5.729
 3117POPC   GL242926  35.348  23.932   5.866
 3117POPC   C1A42927  35.357  23.521   6.197
 3117POPC   D2A42928  35.352  23.755   6.599
 3117POPC   C3A42929  35.349  23.494   6.998
 3117POPC   C4A42930  35.189  23.389   7.426
 3117POPC   C1B42931  35.053  23.938   6.175
 3117POPC   C2B42932  34.991  24.146   6.541
 3117POPC   C3B42933  35.023  24.140   6.958
 3117POPC   C4B42934  35.089  23.846   7.239
 3118POPC   NC342935  40.746  17.274   5.273
 3118POPC   PO442936  40.740  16.607   5.341
 3118POPC   GL142937  40.756  16.824   5.740
 3118POPC   GL242938  40.782  16.507   5.917
 3118POPC   C1A42939  40.832  17.002   6.155
 3118POPC   D2A42940  40.988  16.909   6.571
 3118POPC   C3A42941  40.741  16.898   6.954
 3118POPC   C4A42942  40.702  16.832   7.420
 3118POPC   C1B42943  41.216  16.433   6.049
 3118POPC   C2B42944  41.416  16.672   6.390
 3118POPC   C3B42945  41.318  16.605   6.834
 3118POPC   C4B42946  40.983  16.479   7.119
 3119POPC   NC342947  33.373  12.017   5.495
 3119POPC   PO442948  33.993  12.125   5.319
 3119POPC   GL142949  33.868  12.189   5.725
 3119POPC   GL242950  34.202  12.300   5.787
 3119POPC   C1A42951  33.609  12.108   6.118
 3119POPC   D2A42952  33.508  11.930   6.540
 3119POPC   C3A42953  33.668  12.163   6.879
 3119POPC   C4A42954  33.738  11.890   7.193
 3119POPC   C1B42955  34.113  12.070   6.191
 3119POPC   C2B42956  34.049  11.900   6.611
 3119POPC   C3B42957  34.211  11.959   7.041
 3119POPC   C4B42958  34.109  12.114   7.451
 3120POPC   NC342959  42.684   5.340   5.020
 3120POPC   PO442960  42.211   5.197   5.439
 3120POPC   GL142961  42.115   5.012   5.869
 3120POPC   GL242962  42.229   5.311   5.934
 3120POPC   C1A42963  42.177   5.038   6.356
 3120POPC   D2A42964  42.546   4.856   6.603
 3120POPC   C3A42965  42.536   4.807   7.064
 3120POPC   C4A42966  42.130   4.790   7.194
 3120POPC   C1B42967  42.534   5.480   6.190
 3120POPC   C2B42968  42.424   5.540   6.585
 3120POPC   C3B42969  42.281   5.239   6.849
 3120POPC   C4B42970  42.350   5.294   7.246
 3121POPC   NC342971  42.102  22.719   5.396
 3121POPC   PO442972  42.717  22.991   5.340
 3121POPC   GL142973  42.517  23.029   5.720
 3121POPC   GL242974  42.489  22.698   5.733
 3121POPC   C1A42975  42.665  22.911   6.154
 3121POPC   D2A42976  42.528  22.795   6.517
 3121POPC   C3A42977  42.504  22.988   6.886
 3121POPC   C4A42978  42.302  22.929   7.242
 3121POPC   C1B42979  42.165  22.802   6.065
 3121POPC   C2B42980  42.029  22.794   6.523
 3121POPC   C3B42981  42.152  22.572   6.888
 3121POPC   C4B42982  41.949  22.570   7.285
 3122POPC   NC342983  43.797  43.723   5.536
 3122POPC   PO442984  44.213  44.211   5.595
 3122POPC   GL142985  43.806  44.126   5.845
 3122POPC   GL242986  43.993  43.821   5.991
 3122POPC   C1A42987  43.578  43.952   6.222
 3122POPC   D2A42988  43.777  43.758   6.530
 3122POPC   C3A42989  43.815  43.995   6.853
 3122POPC   C4A42990  43.727  43.953   7.279
 3122POPC   C1B42991  44.273  43.674   6.309
 3122POPC   C2B42992  44.239  43.669   6.744
 3122POPC   C3B42993  44.193  43.819   7.123
 3122POPC   C4B42994  44.229  43.790   7.574
 3123POPC   NC342995  30.768   8.869   5.529
 3123POPC   PO442996  30.606   8.263   5.235
 3123POPC   GL142997  30.558   8.281   5.705
 3123POPC   GL242998  30.876   8.406   5.780
 3123POPC   C1A42999  30.633   8.117   6.157
 3123POPC   D2A43000  30.808   7.835   6.458
 3123POPC   C3A43001  30.719   8.005   6.852
 3123POPC   C4A43002  30.803   8.092   7.256
 3123POPC   C1B43003  30.868   8.573   6.212
 3123POPC   C2B43004  30.658   8.474   6.593
 3123POPC   C3B43005  30.796   8.560   7.006
 3123POPC   C4B43006  30.612   8.516   7.406
 3124POPC   NC343007  21.693  44.197   5.358
 3124POPC   PO443008  21.216  43.802   5.477
 3124POPC   GL143009  21.434  43.963   5.795
 3124POPC   GL243010  21.151  44.162   5.860
 3124POPC   C1A43011  21.513  44.078   6.257
 3124POPC   D2A43012  21.737  43.865   6.601
 3124POPC   C3A43013  21.592  43.891   7.028
 3124POPC   C4A43014  21.354  43.967   7.456
 3124POPC   C1B43015  21.085  43.818   6.146
 3124POPC   C2B43016  21.105  43.911   6.575
 3124POPC   C3B43017  21.090  43.992   7.011
 3124POPC   C4B43018  20.986  43.667   7.288
 3125POPC   NC343019   9.200  40.235   5.239
 3125POPC   PO443020   8.645  39.947   5.287
 3125POPC   GL143021   8.912  40.122   5.674
 3125POPC   GL243022   9.181  39.967   5.920
 3125POPC   C1A43023   8.802  40.208   6.141
 3125POPC   D2A43024   8.747  39.942   6.527
 3125POPC   C3A43025   8.896  40.112   6.908
 3125POPC   C4A43026   8.761  40.362   7.240
 3125POPC   C1B43027   9.259  39.989   6.404
 3125POPC   C2B43028   9.206  39.697   6.756
 3125POPC   C3B43029   8.835  39.589   6.985
 3125POPC   C4B43030   8.782  39.846   7.335
 3126POPC   NC343031  35.487  15.460   5.331
 3126POPC   PO443032  35.276  14.854   5.302
 3126POPC   GL143033  35.256  15.037   5.684
 3126POPC   GL243034  35.626  15.055   5.709
 3126POPC   C1A43035  35.079  15.051   6.100
 3126POPC   D2A43036  35.245  14.993   6.513
 3126POPC   C3A43037  35.130  15.273   6.815
 3126POPC   C4A43038  35.172  15.316   7.247
 3126POPC   C1B43039  35.566  15.279   6.103
 3126POPC   C2B43040  35.569  15.415   6.528
 3126POPC   C3B43041  35.615  15.203   6.906
 3126POPC   C4B43042  35.832  15.360   7.195
 3127POPC   NC343043   7.298   2.508   5.392
 3127POPC   PO443044   7.836   2.975   5.453
 3127POPC   GL143045   7.469   2.832   5.747
 3127POPC   GL243046   7.584   2.501   5.803
 3127POPC   C1A43047   7.247   2.723   6.171
 3127POPC   D2A43048   7.447   2.787   6.602
 3127POPC   C3A43049   7.353   2.736   7.055
 3127POPC   C4A43050   7.407   2.899   7.496
 3127POPC   C1B43051   7.767   2.733   6.149
 3127POPC   C2B43052   7.907   2.562   6.509
 3127POPC   C3B43053   7.793   2.476   6.894
 3127POPC   C4B43054   7.828   2.685   7.268
 3128POPC   NC343055   0.677  43.562   5.435
 3128POPC   PO443056   0.174  43.983   5.437
 3128POPC   GL143057   0.277  43.728   5.825
 3128POPC   GL243058   0.637  43.790   5.881
 3128POPC   C1A43059   0.308  43.840   6.283
 3128POPC   D2A43060   0.427  44.041   6.680
 3128POPC   C3A43061   0.324  43.751   7.008
 3128POPC   C4A43062   0.033  43.657   7.344
 3128POPC   C1B43063   0.704  43.519   6.225
 3128POPC   C2B43064   0.620  43.392   6.660
 3128POPC   C3B43065   0.798  43.562   7.040
 3128POPC   C4B43066   0.763  44.014   7.126
 3129POPC   NC343067   7.674  33.501   5.372
 3129POPC   PO443068   7.239  33.980   5.242
 3129POPC   GL143069   7.343  33.788   5.690
 3129POPC   GL243070   7.620  33.592   5.855
 3129POPC   C1A43071   7.225  33.879   6.145
 3129POPC   D2A43072   7.315  34.164   6.499
 3129POPC   C3A43073   7.199  33.921   6.857
 3129POPC   C4A43074   7.277  33.951   7.283
 3129POPC   C1B43075   7.599  33.551   6.267
 3129POPC   C2B43076   7.652  33.801   6.592
 3129POPC   C3B43077   7.656  33.726   6.993
 3129POPC   C4B43078   7.404  33.451   7.232
 3130POPC   NC343079  20.623  29.470   5.375
 3130POPC   PO443080  20.499  28.852   5.198
 3130POPC   GL143081  20.493  29.045   5.644
 3130POPC   GL243082  20.872  29.120   5.694
 3130POPC   C1A43083  20.489  29.116   6.110
 3130POPC   D2A43084  20.430  29.249   6.550
 3130POPC   C3A43085  20.685  29.234   6.909
 3130POPC   C4A43086  20.565  29.044   7.272
 3130POPC   C1B43087  21.006  29.215   6.116
 3130POPC   C2B43088  20.912  29.008   6.478
 3130POPC   C3B43089  21.069  28.912   6.858
 3130POPC   C4B43090  20.987  28.734   7.225
 3131POPC   NC343091  29.512   2.788   5.336
 3131POPC   PO443092  28.835   2.893   5.186
 3131POPC   GL143093  28.999   2.766   5.624
 3131POPC   GL243094  28.862   2.966   5.893
 3131POPC   C1A43095  29.306   2.739   6.002
 3131POPC   D2A43096  29.324   2.936   6.431
 3131POPC   C3A43097  29.459   2.786   6.829
 3131POPC   C4A43098  29.265   2.705   7.218
 3131POPC   C1B43099  28.856   2.786   6.340
 3131POPC   C2B43100  28.953   2.859   6.810
 3131POPC   C3B43101  28.849   2.989   7.241
 3131POPC   C4B43102  28.692   3.067   7.670
 3132POPC   NC343103  38.895  41.136   5.370
 3132POPC   PO443104  39.431  40.702   5.196
 3132POPC   GL143105  39.192  40.759   5.638
 3132POPC   GL243106  39.127  41.080   5.815
 3132POPC   C1A43107  39.303  40.663   6.111
 3132POPC   D2A43108  39.566  40.752   6.524
 3132POPC   C3A43109  39.421  40.618   6.969
 3132POPC   C4A43110  39.235  40.686   7.413
 3132POPC   C1B43111  39.222  41.145   6.248
 3132POPC   C2B43112  39.109  40.924   6.619
 3132POPC   C3B43113  38.945  40.907   7.019
 3132POPC   C4B43114  39.007  41.244   7.320
 3133POPC   NC343115  42.455  18.546   5.218
 3133POPC   PO443116  42.094  17.983   5.284
 3133POPC   GL143117  42.284  18.133   5.703
 3133POPC   GL243118  42.329  18.476   5.706
 3133POPC   C1A43119  42.139  18.171   6.168
 3133POPC   D2A43120  42.015  18.147   6.620
 3133POPC   C3A43121  42.415  18.206   6.841
 3133POPC   C4A43122  42.505  18.233   7.246
 3133POPC   C1B43123  41.939  18.582   5.940
 3133POPC   C2B43124  41.929  18.616   6.399
 3133POPC   C3B43125  42.231  18.668   6.745
 3133POPC   C4B43126  42.399  18.747   7.160
 3134POPC   NC343127   7.939  42.597   5.462
 3134POPC   PO443128   8.550  42.369   5.387
 3134POPC   GL143129   8.304  42.201   5.756
 3134POPC   GL243130   8.020  41.944   5.669
 3134POPC   C1A43131   8.213  42.402   6.161
 3134POPC   D2A43132   8.428  42.556   6.542
 3134POPC   C3A43133   8.283  42.349   6.907
 3134POPC   C4A43134   7.870  42.410   7.121
 3134POPC   C1B43135   8.076  41.886   6.117
 3134POPC   C2B43136   8.007  42.091   6.516
 3134POPC   C3B43137   7.977  41.941   6.913
 3134POPC   C4B43138   7.903  41.919   7.315
 3135POPC   NC343139  41.093  19.436   5.574
 3135POPC   PO443140  41.635  19.883   5.415
 3135POPC   GL143141  41.374  19.844   5.757
 3135POPC   GL243142  41.605  19.601   5.845
 3135POPC   C1A43143  41.339  19.766   6.228
 3135POPC   D2A43144  41.533  19.896   6.595
 3135POPC   C3A43145  41.314  19.749   6.947
 3135POPC   C4A43146  41.385  20.007   7.284
 3135POPC   C1B43147  41.827  19.631   6.247
 3135POPC   C2B43148  41.997  19.619   6.674
 3135POPC   C3B43149  41.816  19.805   7.026
 3135POPC   C4B43150  41.634  19.574   7.330
 3136POPC   NC343151  41.437   7.908   5.437
 3136POPC   PO443152  42.037   8.336   5.415
 3136POPC   GL143153  41.946   8.120   5.825
 3136POPC   GL243154  41.620   8.182   5.869
 3136POPC   C1A43155  41.851   8.162   6.319
 3136POPC   D2A43156  41.729   8.054   6.737
 3136POPC   C3A43157  41.560   8.311   7.059
 3136POPC   C4A43158  41.697   8.314   7.503
 3136POPC   C1B43159  41.360   8.038   6.231
 3136POPC   C2B43160  41.422   7.703   6.539
 3136POPC   C3B43161  41.314   7.842   6.965
 3136POPC   C4B43162  41.307   8.019   7.411
 3137POPC   NC343163  14.209  21.039   5.467
 3137POPC   PO443164  14.448  21.710   5.328
 3137POPC   GL143165  14.318  21.504   5.741
 3137POPC   GL243166  14.050  21.281   5.886
 3137POPC   C1A43167  14.505  21.368   6.141
 3137POPC   D2A43168  14.341  21.247   6.570
 3137POPC   C3A43169  14.617  21.173   6.942
 3137POPC   C4A43170  14.744  21.363   7.338
 3137POPC   C1B43171  14.031  21.568   6.246
 3137POPC   C2B43172  13.895  21.553   6.690
 3137POPC   C3B43173  13.942  21.551   7.129
 3137POPC   C4B43174  14.230  21.269   7.365
 3138POPC   NC343175  21.605  34.359   5.286
 3138POPC   PO443176  21.268  34.976   5.303
 3138POPC   GL143177  21.261  34.654   5.652
 3138POPC   GL243178  21.620  34.616   5.732
 3138POPC   C1A43179  21.274  34.646   6.132
 3138POPC   D2A43180  21.501  34.694   6.546
 3138POPC   C3A43181  21.340  34.614   6.978
 3138POPC   C4A43182  21.568  34.543   7.372
 3138POPC   C1B43183  21.454  34.221   5.934
 3138POPC   C2B43184  21.422  34.189   6.401
 3138POPC   C3B43185  21.615  34.222   6.826
 3138POPC   C4B43186  21.355  34.119   7.215
 3139POPC   NC343187  17.655  30.953   4.881
 3139POPC   PO443188  17.580  30.744   5.503
 3139POPC   GL143189  17.534  30.711   5.902
 3139POPC   GL243190  17.196  30.672   5.899
 3139POPC   C1A43191  17.609  30.899   6.298
 3139POPC   D2A43192  17.514  30.749   6.693
 3139POPC   C3A43193  17.810  30.895   7.032
 3139POPC   C4A43194  17.727  30.680   7.403
 3139POPC   C1B43195  17.098  30.802   6.334
 3139POPC   C2B43196  17.102  31.060   6.708
 3139POPC   C3B43197  17.313  31.011   7.090
 3139POPC   C4B43198  17.280  30.612   7.144
 3140POPC   NC343199  32.026  32.235   5.360
 3140POPC   PO443200  32.633  32.089   5.361
 3140POPC   GL143201  32.375  32.095   5.733
 3140POPC   GL243202  31.997  32.092   5.845
 3140POPC   C1A43203  32.438  32.300   6.116
 3140POPC   D2A43204  32.497  32.170   6.508
 3140POPC   C3A43205  32.352  32.373   6.851
 3140POPC   C4A43206  32.388  32.326   7.284
 3140POPC   C1B43207  31.970  32.199   6.294
 3140POPC   C2B43208  32.054  31.987   6.678
 3140POPC   C3B43209  31.950  32.133   7.084
 3140POPC   C4B43210  32.005  32.095   7.528
 3141POPC   NC343211   0.956  28.439   5.205
 3141POPC   PO443212   1.508  28.598   5.540
 3141POPC   GL143213   1.110  28.567   5.702
 3141POPC   GL243214   1.022  28.240   5.666
 3141POPC   C1A43215   1.014  28.702   6.122
 3141POPC   D2A43216   1.259  28.763   6.526
 3141POPC   C3A43217   1.265  28.420   6.836
 3141POPC   C4A43218   1.168  28.382   7.273
 3141POPC   C1B43219   1.065  28.177   6.123
 3141POPC   C2B43220   0.959  28.068   6.562
 3141POPC   C3B43221   1.084  27.966   6.983
 3141POPC   C4B43222   1.199  27.909   7.460
 3142POPC   NC343223  40.222  16.428   5.378
 3142POPC   PO443224  39.658  16.856   5.478
 3142POPC   GL143225  39.910  16.604   5.800
 3142POPC   GL243226  40.274  16.633   5.855
 3142POPC   C1A43227  39.952  16.494   6.259
 3142POPC   D2A43228  40.093  16.534   6.680
 3142POPC   C3A43229  39.884  16.456   7.071
 3142POPC   C4A43230  39.740  16.838   7.264
 3142POPC   C1B43231  40.402  16.752   6.280
 3142POPC   C2B43232  40.261  17.001   6.631
 3142POPC   C3B43233  40.221  16.871   7.049
 3142POPC   C4B43234  40.420  16.495   7.170
 3143POPC   NC343235  11.225   9.645   5.228
 3143POPC   PO443236  11.599  10.204   5.223
 3143POPC   GL143237  11.449   9.931   5.607
 3143POPC   GL243238  11.587  10.157   5.830
 3143POPC   C1A43239  11.356   9.746   6.061
 3143POPC   D2A43240  11.010   9.844   6.435
 3143POPC   C3A43241  10.957   9.745   6.909
 3143POPC   C4A43242  11.196   9.499   7.245
 3143POPC   C1B43243  11.283  10.213   6.188
 3143POPC   C2B43244  11.467  10.063   6.535
 3143POPC   C3B43245  11.446   9.831   6.891
 3143POPC   C4B43246  11.441   9.980   7.326
 3144POPC   NC343247  30.166  12.377   5.324
 3144POPC   PO443248  29.756  11.920   5.538
 3144POPC   GL143249  30.072  11.987   5.878
 3144POPC   GL243250  30.204  12.355   5.851
 3144POPC   C1A43251  29.951  11.809   6.301
 3144POPC   D2A43252  30.095  11.843   6.728
 3144POPC   C3A43253  29.839  11.985   7.105
 3144POPC   C4A43254  29.665  12.307   7.414
 3144POPC   C1B43255  30.139  12.286   6.322
 3144POPC   C2B43256  30.028  12.357   6.787
 3144POPC   C3B43257  30.128  12.411   7.244
 3144POPC   C4B43258  30.390  12.444   7.651
 3145POPC   NC343259  23.472  31.157   5.223
 3145POPC   PO443260  24.033  31.483   5.340
 3145POPC   GL143261  23.741  31.283   5.657
 3145POPC   GL243262  23.807  31.545   5.883
 3145POPC   C1A43263  23.548  31.176   6.084
 3145POPC   D2A43264  23.592  31.490   6.443
 3145POPC   C3A43265  23.690  31.318   6.855
 3145POPC   C4A43266  23.771  31.337   7.288
 3145POPC   C1B43267  23.999  31.803   6.235
 3145POPC   C2B43268  23.914  31.913   6.686
 3145POPC   C3B43269  24.020  31.744   7.105
 3145POPC   C4B43270  24.008  31.670   7.600
 3146POPC   NC343271   0.354  21.551   5.507
 3146POPC   PO443272   0.775  21.034   5.538
 3146POPC   GL143273   0.667  21.367   5.847
 3146POPC   GL243274   0.832  21.700   5.765
 3146POPC   C1A43275   0.315  21.422   6.181
 3146POPC   D2A43276   0.099  21.311   6.568
 3146POPC   C3A43277   0.334  21.393   6.917
 3146POPC   C4A43278   0.279  21.647   7.276
 3146POPC   C1B43279   0.686  21.786   6.166
 3146POPC   C2B43280   0.693  21.599   6.564
 3146POPC   C3B43281   0.675  21.772   6.974
 3146POPC   C4B43282   0.522  22.092   7.247
 3147POPC   NC343283  35.735  34.269   5.425
 3147POPC   PO443284  35.322  34.773   5.641
 3147POPC   GL143285  35.151  34.472   5.940
 3147POPC   GL243286  35.200  34.097   5.845
 3147POPC   C1A43287  35.290  34.623   6.355
 3147POPC   D2A43288  35.364  34.935   6.692
 3147POPC   C3A43289  35.321  34.725   7.081
 3147POPC   C4A43290  35.561  34.415   7.218
 3147POPC   C1B43291  35.314  34.089   6.282
 3147POPC   C2B43292  35.408  34.244   6.700
 3147POPC   C3B43293  35.163  34.150   7.035
 3147POPC   C4B43294  34.907  34.301   7.329
 3148POPC   NC343295  16.287  15.892   5.179
 3148POPC   PO443296  16.894  16.051   5.337
 3148POPC   GL143297  16.615  15.873   5.686
 3148POPC   GL243298  16.638  16.181   5.872
 3148POPC   C1A43299  16.631  15.770   6.175
 3148POPC   D2A43300  16.894  15.751   6.586
 3148POPC   C3A43301  16.734  15.861   7.002
 3148POPC   C4A43302  16.647  15.696   7.435
 3148POPC   C1B43303  16.996  16.120   6.199
 3148POPC   C2B43304  17.148  16.196   6.643
 3148POPC   C3B43305  17.223  16.085   7.086
 3148POPC   C4B43306  16.898  16.138   7.397
 3149POPC   NC343307   5.794  19.001   5.426
 3149POPC   PO443308   6.374  18.832   5.729
 3149POPC   GL143309   6.004  18.949   5.937
 3149POPC   GL243310   5.875  19.288   5.857
 3149POPC   C1A43311   6.050  18.959   6.371
 3149POPC   D2A43312   5.978  18.822   6.784
 3149POPC   C3A43313   6.121  19.105   7.102
 3149POPC   C4A43314   6.316  18.798   7.314
 3149POPC   C1B43315   5.596  19.183   6.211
 3149POPC   C2B43316   5.679  19.201   6.641
 3149POPC   C3B43317   5.608  19.072   7.044
 3149POPC   C4B43318   5.343  19.209   7.323
 3150POPC   NC343319  35.793  26.315   5.271
 3150POPC   PO443320  36.198  25.741   5.324
 3150POPC   GL143321  36.212  25.936   5.722
 3150POPC   GL243322  36.059  26.234   5.716
 3150POPC   C1A43323  36.067  25.960   6.161
 3150POPC   D2A43324  36.145  25.935   6.584
 3150POPC   C3A43325  35.861  25.702   6.801
 3150POPC   C4A43326  35.947  25.825   7.196
 3150POPC   C1B43327  35.893  26.434   6.085
 3150POPC   C2B43328  36.022  26.468   6.539
 3150POPC   C3B43329  35.958  26.292   6.988
 3150POPC   C4B43330  35.942  26.439   7.463
 3151POPC   NC343331  11.033  28.464   5.322
 3151POPC   PO443332  11.674  28.674   5.484
 3151POPC   GL143333  11.469  28.434   5.841
 3151POPC   GL243334  11.146  28.216   5.769
 3151POPC   C1A43335  11.618  28.374   6.276
 3151POPC   D2A43336  11.484  28.394   6.731
 3151POPC   C3A43337  11.551  28.476   7.170
 3151POPC   C4A43338  11.587  28.676   7.589
 3151POPC   C1B43339  11.122  28.400   6.218
 3151POPC   C2B43340  10.982  28.464   6.659
 3151POPC   C3B43341  11.036  28.292   7.100
 3151POPC   C4B43342  11.225  28.280   7.554
 3152POPC   NC343343  30.413  17.627   5.219
 3152POPC   PO443344  30.828  17.015   5.337
 3152POPC   GL143345  30.560  17.263   5.623
 3152POPC   GL243346  30.862  17.417   5.756
 3152POPC   C1A43347  30.448  17.427   6.055
 3152POPC   D2A43348  30.460  17.676   6.432
 3152POPC   C3A43349  30.377  17.558   6.826
 3152POPC   C4A43350  30.463  17.649   7.242
 3152POPC   C1B43351  30.904  17.630   6.167
 3152POPC   C2B43352  30.898  17.462   6.581
 3152POPC   C3B43353  30.922  17.630   6.982
 3152POPC   C4B43354  31.146  17.987   7.120
 3153POPC   NC343355   9.338  31.236   5.435
 3153POPC   PO443356   8.859  31.745   5.375
 3153POPC   GL143357   8.889  31.473   5.724
 3153POPC   GL243358   8.884  31.121   5.636
 3153POPC   C1A43359   8.749  31.611   6.133
 3153POPC   D2A43360   8.890  31.720   6.519
 3153POPC   C3A43361   9.082  31.390   6.762
 3153POPC   C4A43362   8.925  31.482   7.153
 3153POPC   C1B43363   8.797  31.101   6.066
 3153POPC   C2B43364   8.642  31.205   6.478
 3153POPC   C3B43365   8.675  31.102   6.906
 3153POPC   C4B43366   8.708  31.019   7.337
 3154POPC   NC343367  31.395   8.238   5.382
 3154POPC   PO443368  32.055   8.176   5.580
 3154POPC   GL143369  31.659   8.140   5.823
 3154POPC   GL243370  31.385   8.388   5.862
 3154POPC   C1A43371  31.636   8.230   6.278
 3154POPC   D2A43372  31.886   8.082   6.595
 3154POPC   C3A43373  31.662   8.003   6.966
 3154POPC   C4A43374  31.666   8.282   7.311
 3154POPC   C1B43375  31.159   8.101   6.133
 3154POPC   C2B43376  31.104   8.226   6.562
 3154POPC   C3B43377  31.225   8.289   6.980
 3154POPC   C4B43378  31.159   8.468   7.378
 3155POPC   NC343379  33.679  19.739   5.395
 3155POPC   PO443380  34.239  20.085   5.527
 3155POPC   GL143381  33.985  19.776   5.822
 3155POPC   GL243382  33.762  20.017   5.844
 3155POPC   C1A43383  33.826  19.692   6.281
 3155POPC   D2A43384  33.681  19.479   6.674
 3155POPC   C3A43385  33.764  19.718   7.083
 3155POPC   C4A43386  33.580  19.853   7.521
 3155POPC   C1B43387  34.082  20.125   6.205
 3155POPC   C2B43388  34.162  20.028   6.663
 3155POPC   C3B43389  33.985  20.188   7.070
 3155POPC   C4B43390  33.949  20.186   7.541
 3156POPC   NC343391  21.519  36.443   5.360
 3156POPC   PO443392  21.134  35.914   5.402
 3156POPC   GL143393  21.398  35.945   5.754
 3156POPC   GL243394  21.328  36.260   5.812
 3156POPC   C1A43395  21.608  36.077   6.169
 3156POPC   D2A43396  21.697  35.894   6.543
 3156POPC   C3A43397  21.600  36.059   6.919
 3156POPC   C4A43398  21.565  36.091   7.331
 3156POPC   C1B43399  21.107  36.073   6.170
 3156POPC   C2B43400  21.285  36.235   6.568
 3156POPC   C3B43401  21.137  36.280   6.969
 3156POPC   C4B43402  21.156  35.864   7.114
 3157POPC   NC343403  27.434   7.335   5.435
 3157POPC   PO443404  27.864   7.710   5.750
 3157POPC   GL143405  27.658   7.330   5.917
 3157POPC   GL243406  27.308   7.161   5.898
 3157POPC   C1A43407  27.630   7.370   6.360
 3157POPC   D2A43408  28.008   7.422   6.624
 3157POPC   C3A43409  28.042   7.465   7.070
 3157POPC   C4A43410  27.726   7.638   7.336
 3157POPC   C1B43411  27.222   7.570   6.103
 3157POPC   C2B43412  27.275   7.712   6.559
 3157POPC   C3B43413  27.499   7.499   6.864
 3157POPC   C4B43414  27.272   7.385   7.211
 3158POPC   NC343415  13.670  43.770   5.479
 3158POPC   PO443416  14.389  43.821   5.516
 3158POPC   GL143417  14.007  43.852   5.847
 3158POPC   GL243418  13.793  44.182   5.859
 3158POPC   C1A43419  13.658  43.801   6.174
 3158POPC   D2A43420  13.355  43.865   6.508
 3158POPC   C3A43421  13.512  43.872   6.918
 3158POPC   C4A43422  13.512  43.827   7.325
 3158POPC   C1B43423  13.581  44.313   6.281
 3158POPC   C2B43424  13.624  44.352   6.764
 3158POPC   C3B43425  13.736  44.274   7.215
 3158POPC   C4B43426  13.796  44.354   7.679
 3159POPC   NC343427  20.031  30.227   5.393
 3159POPC   PO443428  19.516  29.794   5.349
 3159POPC   GL143429  19.716  29.952   5.763
 3159POPC   GL243430  20.048  29.951   5.814
 3159POPC   C1A43431  19.729  29.930   6.252
 3159POPC   D2A43432  19.882  30.074   6.721
 3159POPC   C3A43433  19.612  29.944   7.137
 3159POPC   C4A43434  19.505  29.861   7.620
 3159POPC   C1B43435  20.222  29.976   6.213
 3159POPC   C2B43436  20.112  29.655   6.519
 3159POPC   C3B43437  19.959  29.628   6.950
 3159POPC   C4B43438  20.124  29.973   7.196
 3160POPC   NC343439  42.378   8.672   5.358
 3160POPC   PO443440  42.704   8.099   5.387
 3160POPC   GL143441  42.445   8.227   5.750
 3160POPC   GL243442  42.588   8.529   5.832
 3160POPC   C1A43443  42.201   8.459   6.118
 3160POPC   D2A43444  42.324   8.537   6.566
 3160POPC   C3A43445  42.039   8.448   6.916
 3160POPC   C4A43446  42.021   8.085   7.179
 3160POPC   C1B43447  42.678   8.302   6.241
 3160POPC   C2B43448  42.711   8.176   6.663
 3160POPC   C3B43449  42.529   8.353   7.036
 3160POPC   C4B43450  42.687   8.414   7.435
 3161POPC   NC343451  38.736  12.497   5.518
 3161POPC   PO443452  38.283  13.025   5.502
 3161POPC   GL143453  38.398  12.739   5.837
 3161POPC   GL243454  38.669  12.655   6.002
 3161POPC   C1A43455  38.223  12.743   6.234
 3161POPC   D2A43456  38.312  13.034   6.561
 3161POPC   C3A43457  38.475  12.792   6.898
 3161POPC   C4A43458  38.453  12.859   7.325
 3161POPC   C1B43459  38.668  13.100   6.151
 3161POPC   C2B43460  38.802  13.234   6.570
 3161POPC   C3B43461  38.877  13.106   6.975
 3161POPC   C4B43462  38.817  13.218   7.375
 3162POPC   NC343463   2.560  34.213   5.513
 3162POPC   PO443464   3.140  34.533   5.273
 3162POPC   GL143465   3.001  34.345   5.731
 3162POPC   GL243466   2.701  34.304   5.972
 3162POPC   C1A43467   3.106  34.324   6.247
 3162POPC   D2A43468   2.871  34.328   6.665
 3162POPC   C3A43469   2.882  34.475   7.125
 3162POPC   C4A43470   3.057  34.490   7.578
 3162POPC   C1B43471   2.612  34.594   6.309
 3162POPC   C2B43472   2.612  34.861   6.677
 3162POPC   C3B43473   2.524  34.857   7.117
 3162POPC   C4B43474   2.764  34.926   7.503
 3163POPC   NC343475  10.460  24.634   5.432
 3163POPC   PO443476  10.594  23.976   5.404
 3163POPC   GL143477  10.498  24.242   5.780
 3163POPC   GL243478  10.249  24.483   5.866
 3163POPC   C1A43479  10.432  24.126   6.204
 3163POPC   D2A43480  10.655  24.237   6.574
 3163POPC   C3A43481  10.356  24.262   6.930
 3163POPC   C4A43482  10.197  24.630   7.155
 3163POPC   C1B43483  10.512  24.634   6.177
 3163POPC   C2B43484  10.453  24.695   6.603
 3163POPC   C3B43485  10.716  24.622   6.948
 3163POPC   C4B43486  10.816  24.514   7.351
 3164POPC   NC343487  23.285  16.893   5.191
 3164POPC   PO443488  22.683  16.715   5.168
 3164POPC   GL143489  22.968  16.870   5.639
 3164POPC   GL243490  23.035  16.556   5.921
 3164POPC   C1A43491  23.137  16.994   6.119
 3164POPC   D2A43492  23.171  16.853   6.618
 3164POPC   C3A43493  22.959  17.015   7.051
 3164POPC   C4A43494  23.055  17.037   7.530
 3164POPC   C1B43495  23.060  16.353   6.375
 3164POPC   C2B43496  23.143  16.126   6.784
 3164POPC   C3B43497  23.124  16.076   7.246
 3164POPC   C4B43498  22.804  16.175   7.544
 3165POPC   NC343499  33.510   8.218   5.501
 3165POPC   PO443500  34.074   8.650   5.379
 3165POPC   GL143501  34.040   8.299   5.708
 3165POPC   GL243502  33.865   7.946   5.751
 3165POPC   C1A43503  34.063   8.184   6.154
 3165POPC   D2A43504  33.841   8.341   6.487
 3165POPC   C3A43505  33.909   8.163   6.857
 3165POPC   C4A43506  33.676   8.142   7.228
 3165POPC   C1B43507  33.630   7.893   6.165
 3165POPC   C2B43508  33.715   7.749   6.583
 3165POPC   C3B43509  33.726   7.680   7.032
 3165POPC   C4B43510  33.657   7.738   7.516
 3166POPC   NC343511  38.410  38.579   5.345
 3166POPC   PO443512  37.994  38.126   5.495
 3166POPC   GL143513  38.313  38.340   5.819
 3166POPC   GL243514  38.490  38.667   5.822
 3166POPC   C1A43515  38.348  38.470   6.296
 3166POPC   D2A43516  38.501  38.298   6.740
 3166POPC   C3A43517  38.447  38.182   7.215
 3166POPC   C4A43518  38.101  38.167   7.544
 3166POPC   C1B43519  38.150  38.882   6.027
 3166POPC   C2B43520  37.919  38.810   6.432
 3166POPC   C3B43521  38.069  38.894   6.879
 3166POPC   C4B43522  38.351  38.709   7.209
 3167POPC   NC343523  44.668  20.836   5.373
 3167POPC   PO443524  44.629  20.224   5.764
 3167POPC   GL143525  44.675  20.592   5.984
 3167POPC   GL243526  44.658  20.920   5.870
 3167POPC   C1A43527  44.544  20.619   6.413
 3167POPC   D2A43528  44.403  20.268   6.703
 3167POPC   C3A43529  44.532  20.379   7.122
 3167POPC   C4A43530  44.985  20.443   7.133
 3167POPC   C1B43531  44.934  20.953   6.243
 3167POPC   C2B43532  44.890  20.852   6.721
 3167POPC   C3B43533  44.695  20.865   7.128
 3167POPC   C4B43534  44.321  20.889   7.335
 3168POPC   NC343535  22.062  35.026   5.579
 3168POPC   PO443536  22.082  34.460   5.299
 3168POPC   GL143537  22.146  34.530   5.726
 3168POPC   GL243538  22.302  34.227   5.794
 3168POPC   C1A43539  21.933  34.683   6.132
 3168POPC   D2A43540  22.042  34.588   6.539
 3168POPC   C3A43541  21.889  34.645   6.943
 3168POPC   C4A43542  22.165  34.343   7.091
 3168POPC   C1B43543  22.377  34.414   6.178
 3168POPC   C2B43544  22.574  34.705   6.458
 3168POPC   C3B43545  22.528  34.678   6.899
 3168POPC   C4B43546  22.286  34.836   7.239
 3169POPC   NC343547  35.757  43.400   5.446
 3169POPC   PO443548  35.774  42.744   5.428
 3169POPC   GL143549  35.576  43.037   5.783
 3169POPC   GL243550  35.296  43.307   5.800
 3169POPC   C1A43551  35.584  43.193   6.238
 3169POPC   D2A43552  35.416  43.163   6.689
 3169POPC   C3A43553  35.574  43.079   7.119
 3169POPC   C4A43554  35.485  43.142   7.590
 3169POPC   C1B43555  35.087  43.141   6.221
 3169POPC   C2B43556  34.910  43.092   6.690
 3169POPC   C3B43557  35.065  42.986   7.134
 3169POPC   C4B43558  35.018  42.952   7.617
 3170POPC   NC343559  29.117   0.945   5.313
 3170POPC   PO443560  28.893   0.368   5.374
 3170POPC   GL143561  29.201   0.519   5.741
 3170POPC   GL243562  29.293   0.871   5.789
 3170POPC   C1A43563  29.314   0.391   6.177
 3170POPC   D2A43564  29.172   0.238   6.604
 3170POPC   C3A43565  29.240   0.463   6.993
 3170POPC   C4A43566  29.108   0.350   7.406
 3170POPC   C1B43567  29.274   0.903   6.230
 3170POPC   C2B43568  29.122   0.763   6.589
 3170POPC   C3B43569  28.987   0.929   6.959
 3170POPC   C4B43570  29.121   0.865   7.350
 3171POPC   NC343571   7.772   0.526   5.238
 3171POPC   PO443572   7.118   0.494   5.517
 3171POPC   GL143573   7.333   0.536   5.855
 3171POPC   GL243574   7.615   0.658   5.707
 3171POPC   C1A43575   7.416   0.319   6.257
 3171POPC   D2A43576   7.592   0.129   6.624
 3171POPC   C3A43577   7.334   0.335   6.886
 3171POPC   C4A43578   7.201   0.327   7.268
 3171POPC   C1B43579   7.726   0.707   6.135
 3171POPC   C2B43580   7.665   0.672   6.567
 3171POPC   C3B43581   7.702   0.638   7.033
 3171POPC   C4B43582   7.698   0.346   7.395
 3172POPC   NC343583  19.434  36.836   5.510
 3172POPC   PO443584  18.809  36.653   5.363
 3172POPC   GL143585  18.869  36.831   5.716
 3172POPC   GL243586  19.062  36.575   5.838
 3172POPC   C1A43587  18.737  36.943   6.090
 3172POPC   D2A43588  18.904  37.089   6.442
 3172POPC   C3A43589  18.980  36.918   6.842
 3172POPC   C4A43590  18.987  37.200   7.122
 3172POPC   C1B43591  19.245  36.843   6.125
 3172POPC   C2B43592  19.392  36.865   6.510
 3172POPC   C3B43593  19.489  36.971   6.900
 3172POPC   C4B43594  19.294  36.802   7.256
 3173POPC   NC343595  26.450  17.811   4.986
 3173POPC   PO443596  25.904  17.703   5.315
 3173POPC   GL143597  26.051  17.647   5.735
 3173POPC   GL243598  26.290  17.414   5.840
 3173POPC   C1A43599  25.927  17.714   6.159
 3173POPC   D2A43600  25.727  17.520   6.553
 3173POPC   C3A43601  25.871  17.725   6.950
 3173POPC   C4A43602  26.121  17.507   7.279
 3173POPC   C1B43603  26.346  17.279   6.233
 3173POPC   C2B43604  26.301  17.156   6.641
 3173POPC   C3B43605  26.396  17.153   7.049
 3173POPC   C4B43606  26.448  17.145   7.494
 3174POPC   NC343607   4.370  29.528   5.715
 3174POPC   PO443608   4.635  30.043   5.362
 3174POPC   GL143609   4.485  30.089   5.817
 3174POPC   GL243610   4.179  29.935   5.933
 3174POPC   C1A43611   4.512  30.028   6.295
 3174POPC   D2A43612   4.234  29.975   6.664
 3174POPC   C3A43613   4.381  29.781   7.051
 3174POPC   C4A43614   4.285  29.796   7.467
 3174POPC   C1B43615   4.217  29.602   6.321
 3174POPC   C2B43616   4.203  29.424   6.747
 3174POPC   C3B43617   3.987  29.452   7.186
 3174POPC   C4B43618   3.695  29.291   7.499
 3175POPC   NC343619  36.782  44.483   5.299
 3175POPC   PO443620  37.386  44.448   5.617
 3175POPC   GL143621  37.047  44.719   5.803
 3175POPC   GL243622  36.708  44.559   5.815
 3175POPC   C1A43623  37.059   0.028   6.162
 3175POPC   D2A43624  36.851   0.118   6.562
 3175POPC   C3A43625  37.000  44.858   6.918
 3175POPC   C4A43626  37.035  44.475   7.173
 3175POPC   C1B43627  36.761  44.622   6.275
 3175POPC   C2B43628  36.758  44.443   6.692
 3175POPC   C3B43629  36.548  44.414   7.078
 3175POPC   C4B43630  36.673  44.378   7.546
 3176POPC   NC343631  18.033  34.838   5.516
 3176POPC   PO443632  18.412  34.414   5.172
 3176POPC   GL143633  18.249  34.400   5.692
 3176POPC   GL243634  18.285  34.722   5.935
 3176POPC   C1A43635  18.094  34.336   6.179
 3176POPC   D2A43636  18.156  34.589   6.606
 3176POPC   C3A43637  18.209  34.365   7.016
 3176POPC   C4A43638  18.299  34.416   7.455
 3176POPC   C1B43639  18.547  34.810   6.302
 3176POPC   C2B43640  18.640  34.812   6.770
 3176POPC   C3B43641  18.521  34.801   7.221
 3176POPC   C4B43642  18.631  34.754   7.668
 3177POPC   NC343643  11.122   2.858   5.405
 3177POPC   PO443644  11.765   2.881   5.189
 3177POPC   GL143645  11.575   2.866   5.678
 3177POPC   GL243646  11.356   3.113   5.824
 3177POPC   C1A43647  11.287   2.661   6.070
 3177POPC   D2A43648  11.378   2.416   6.452
 3177POPC   C3A43649  11.581   2.559   6.824
 3177POPC   C4A43650  11.256   2.659   7.125
 3177POPC   C1B43651  11.255   3.114   6.276
 3177POPC   C2B43652  11.308   3.041   6.715
 3177POPC   C3B43653  11.186   3.175   7.117
 3177POPC   C4B43654  11.505   3.016   7.393
 3178POPC   NC343655  41.138  30.127   5.372
 3178POPC   PO443656  40.665  29.787   5.313
 3178POPC   GL143657  40.659  29.972   5.718
 3178POPC   GL243658  40.964  29.937   5.832
 3178POPC   C1A43659  40.601  29.923   6.192
 3178POPC   D2A43660  40.642  30.136   6.583
 3178POPC   C3A43661  40.494  29.952   6.942
 3178POPC   C4A43662  40.520  29.793   7.339
 3178POPC   C1B43663  41.062  30.212   6.190
 3178POPC   C2B43664  41.169  30.198   6.638
 3178POPC   C3B43665  40.973  30.131   7.041
 3178POPC   C4B43666  41.023  30.360   7.451
 3179POPC   NC343667  13.239   0.536   5.192
 3179POPC   PO443668  13.683   0.079   5.333
 3179POPC   GL143669  13.651   0.269   5.744
 3179POPC   GL243670  13.357   0.506   5.735
 3179POPC   C1A43671  13.801   0.229   6.159
 3179POPC   D2A43672  13.969   0.418   6.523
 3179POPC   C3A43673  13.768   0.263   6.882
 3179POPC   C4A43674  13.631   0.433   7.226
 3179POPC   C1B43675  13.253   0.328   6.125
 3179POPC   C2B43676  13.423   0.269   6.511
 3179POPC   C3B43677  13.232   0.425   6.870
 3179POPC   C4B43678  13.162   0.227   7.224
 3180POPC   NC343679  24.014  17.685   5.445
 3180POPC   PO443680  23.416  17.373   5.338
 3180POPC   GL143681  23.560  17.357   5.780
 3180POPC   GL243682  23.748  17.620   5.886
 3180POPC   C1A43683  23.630  17.173   6.198
 3180POPC   D2A43684  23.613  17.353   6.593
 3180POPC   C3A43685  23.715  17.328   7.022
 3180POPC   C4A43686  23.368  17.350   7.296
 3180POPC   C1B43687  23.943  17.782   6.276
 3180POPC   C2B43688  24.050  17.627   6.696
 3180POPC   C3B43689  23.919  17.831   7.089
 3180POPC   C4B43690  23.820  17.951   7.511
 3181POPC   NC343691  21.716   3.286   5.388
 3181POPC   PO443692  21.209   3.694   5.378
 3181POPC   GL143693  21.414   3.536   5.752
 3181POPC   GL243694  21.484   3.188   5.838
 3181POPC   C1A43695  21.392   3.573   6.203
 3181POPC   D2A43696  21.691   3.709   6.518
 3181POPC   C3A43697  21.462   3.846   6.896
 3181POPC   C4A43698  21.213   3.550   7.169
 3181POPC   C1B43699  21.808   3.276   6.142
 3181POPC   C2B43700  21.890   3.230   6.568
 3181POPC   C3B43701  21.629   3.362   6.910
 3181POPC   C4B43702  21.679   3.622   7.325
 3182POPC   NC343703   6.013  12.307   5.400
 3182POPC   PO443704   5.562  12.832   5.405
 3182POPC   GL143705   5.660  12.902   5.851
 3182POPC   GL243706   5.948  12.711   5.871
 3182POPC   C1A43707   5.636  12.766   6.307
 3182POPC   D2A43708   5.504  12.601   6.701
 3182POPC   C3A43709   5.751  12.740   7.026
 3182POPC   C4A43710   5.522  12.829   7.326
 3182POPC   C1B43711   6.138  12.797   6.273
 3182POPC   C2B43712   6.080  13.106   6.570
 3182POPC   C3B43713   6.133  13.182   6.987
 3182POPC   C4B43714   6.251  12.853   7.257
 3183POPC   NC343715  33.475   3.331   5.514
 3183POPC   PO443716  34.207   3.383   5.444
 3183POPC   GL143717  33.916   3.454   5.804
 3183POPC   GL243718  33.727   3.146   5.939
 3183POPC   C1A43719  33.779   3.683   6.191
 3183POPC   D2A43720  33.613   3.580   6.600
 3183POPC   C3A43721  33.692   3.746   6.977
 3183POPC   C4A43722  33.854   3.462   7.273
 3183POPC   C1B43723  33.667   3.100   6.397
 3183POPC   C2B43724  33.629   3.135   6.860
 3183POPC   C3B43725  33.499   3.100   7.296
 3183POPC   C4B43726  33.637   3.317   7.724
 3184POPC   NC343727   1.009   2.640   5.511
 3184POPC   PO443728   1.751   2.992   5.442
 3184POPC   GL143729   1.415   2.970   5.772
 3184POPC   GL243730   1.469   2.633   5.887
 3184POPC   C1A43731   1.107   2.976   6.145
 3184POPC   D2A43732   0.979   3.044   6.594
 3184POPC   C3A43733   0.963   2.740   6.979
 3184POPC   C4A43734   1.100   2.742   7.426
 3184POPC   C1B43735   1.589   2.874   6.285
 3184POPC   C2B43736   1.393   2.758   6.671
 3184POPC   C3B43737   1.421   2.939   7.069
 3184POPC   C4B43738   1.693   2.842   7.395
 3185POPC   NC343739  38.879  27.739   5.435
 3185POPC   PO443740  39.231  27.234   5.212
 3185POPC   GL143741  39.307  27.366   5.671
 3185POPC   GL243742  39.186  27.715   5.822
 3185POPC   C1A43743  39.383  27.382   6.137
 3185POPC   D2A43744  39.053  27.361   6.446
 3185POPC   C3A43745  39.114  27.623   6.814
 3185POPC   C4A43746  38.862  27.470   7.125
 3185POPC   C1B43747  39.103  27.879   6.248
 3185POPC   C2B43748  39.434  27.952   6.551
 3185POPC   C3B43749  39.594  27.900   6.992
 3185POPC   C4B43750  39.325  27.715   7.328
 3186POPC   NC343751  41.899  16.057   5.362
 3186POPC   PO443752  41.250  15.876   5.351
 3186POPC   GL143753  41.525  15.879   5.724
 3186POPC   GL243754  41.693  16.199   5.827
 3186POPC   C1A43755  41.336  15.925   6.121
 3186POPC   D2A43756  41.312  16.173   6.490
 3186POPC   C3A43757  41.319  16.093   6.925
 3186POPC   C4A43758  41.183  16.065   7.347
 3186POPC   C1B43759  41.819  16.010   6.220
 3186POPC   C2B43760  41.633  15.753   6.526
 3186POPC   C3B43761  41.782  15.818   6.920
 3186POPC   C4B43762  41.685  16.006   7.273
 3187POPC   NC343763  33.668  27.773   5.485
 3187POPC   PO443764  34.167  27.372   5.230
 3187POPC   GL143765  34.055  27.423   5.720
 3187POPC   GL243766  33.946  27.748   5.922
 3187POPC   C1A43767  33.928  27.328   6.193
 3187POPC   D2A43768  34.210  27.372   6.562
 3187POPC   C3A43769  34.006  27.560   6.901
 3187POPC   C4A43770  33.684  27.357   7.133
 3187POPC   C1B43771  33.638  27.721   6.334
 3187POPC   C2B43772  33.487  27.695   6.805
 3187POPC   C3B43773  33.435  27.773   7.301
 3187POPC   C4B43774  33.453  27.911   7.768
 3188POPC   NC343775  29.290  14.770   5.465
 3188POPC   PO443776  29.502  14.172   5.591
 3188POPC   GL143777  29.250  14.420   5.869
 3188POPC   GL243778  29.462  14.686   5.941
 3188POPC   C1A43779  29.116  14.558   6.306
 3188POPC   D2A43780  29.379  14.583   6.679
 3188POPC   C3A43781  29.196  14.414   7.027
 3188POPC   C4A43782  29.125  14.350   7.448
 3188POPC   C1B43783  29.551  14.309   6.271
 3188POPC   C2B43784  29.555  14.081   6.672
 3188POPC   C3B43785  29.496  14.009   7.148
 3188POPC   C4B43786  29.548  14.137   7.627
 3189POPC   NC343787  43.996  31.078   5.302
 3189POPC   PO443788  43.657  31.631   5.488
 3189POPC   GL143789  43.780  31.494   5.909
 3189POPC   GL243790  43.946  31.216   5.813
 3189POPC   C1A43791  44.092  31.431   6.293
 3189POPC   D2A43792  44.250  31.433   6.760
 3189POPC   C3A43793  43.957  31.588   7.053
 3189POPC   C4A43794  43.515  31.687   6.976
 3189POPC   C1B43795  43.756  31.056   6.203
 3189POPC   C2B43796  43.876  31.071   6.665
 3189POPC   C3B43797  43.678  31.161   7.081
 3189POPC   C4B43798  43.599  31.064   7.518
 3190POPC   NC343799  34.370   3.812   5.517
 3190POPC   PO443800  34.996   3.477   5.441
 3190POPC   GL143801  34.810   3.605   5.851
 3190POPC   GL243802  34.491   3.435   5.871
 3190POPC   C1A43803  34.676   3.632   6.319
 3190POPC   D2A43804  34.714   3.764   6.769
 3190POPC   C3A43805  34.721   3.553   7.208
 3190POPC   C4A43806  34.834   3.607   7.674
 3190POPC   C1B43807  34.211   3.421   6.242
 3190POPC   C2B43808  34.143   3.731   6.591
 3190POPC   C3B43809  34.255   3.656   7.021
 3190POPC   C4B43810  34.318   3.249   7.277
 3191POPC   NC343811  11.284  18.694   5.206
 3191POPC   PO443812  11.486  18.068   5.429
 3191POPC   GL143813  11.314  18.068   5.842
 3191POPC   GL243814  11.572  17.906   5.949
 3191POPC   C1A43815  11.077  18.277   6.189
 3191POPC   D2A43816  11.161  18.509   6.582
 3191POPC   C3A43817  11.092  18.281   6.957
 3191POPC   C4A43818  11.183  18.211   7.396
 3191POPC   C1B43819  11.507  18.053   6.357
 3191POPC   C2B43820  11.288  17.894   6.686
 3191POPC   C3B43821  11.421  17.879   7.110
 3191POPC   C4B43822  11.702  18.009   7.432
 3192POPC   NC343823  11.506  40.752   5.009
 3192POPC   PO443824  11.172  41.105   5.383
 3192POPC   GL143825  11.185  40.946   5.848
 3192POPC   GL243826  11.114  40.631   5.869
 3192POPC   C1A43827  11.091  40.982   6.267
 3192POPC   D2A43828  11.309  40.820   6.634
 3192POPC   C3A43829  11.532  41.040   6.938
 3192POPC   C4A43830  11.307  40.824   7.264
 3192POPC   C1B43831  11.387  40.564   6.183
 3192POPC   C2B43832  11.394  40.329   6.542
 3192POPC   C3B43833  11.221  40.328   6.938
 3192POPC   C4B43834  11.463  40.356   7.305
 3193POPC   NC343835  35.096  19.291   5.482
 3193POPC   PO443836  35.749  19.063   5.284
 3193POPC   GL143837  35.492  19.013   5.740
 3193POPC   GL243838  35.151  18.838   5.757
 3193POPC   C1A43839  35.309  19.164   6.182
 3193POPC   D2A43840  35.113  19.245   6.625
 3193POPC   C3A43841  35.241  18.980   6.990
 3193POPC   C4A43842  35.247  19.088   7.450
 3193POPC   C1B43843  35.388  18.650   6.133
 3193POPC   C2B43844  35.576  18.530   6.558
 3193POPC   C3B43845  35.626  18.549   7.004
 3193POPC   C4B43846  35.555  18.707   7.424
 3194POPC   NC343847   1.635   0.665   5.324
 3194POPC   PO443848   0.913   0.557   5.277
 3194POPC   GL143849   1.184   0.462   5.648
 3194POPC   GL243850   0.875   0.456   5.805
 3194POPC   C1A43851   1.230   0.212   6.066
 3194POPC   D2A43852   1.430   0.384   6.454
 3194POPC   C3A43853   1.361   0.212   6.858
 3194POPC   C4A43854   1.286   0.390   7.235
 3194POPC   C1B43855   0.981   0.637   6.204
 3194POPC   C2B43856   0.865   0.793   6.585
 3194POPC   C3B43857   1.189   0.713   6.855
 3194POPC   C4B43858   1.206   0.891   7.255
 3195POPC   NC343859   9.215  36.385   5.377
 3195POPC   PO443860   9.471  35.754   5.442
 3195POPC   GL143861   9.662  36.165   5.584
 3195POPC   GL243862   9.969  36.067   5.747
 3195POPC   C1A43863   9.606  36.360   6.014
 3195POPC   D2A43864   9.723  36.166   6.449
 3195POPC   C3A43865   9.600  36.359   6.852
 3195POPC   C4A43866   9.653  36.206   7.264
 3195POPC   C1B43867  10.147  35.954   6.163
 3195POPC   C2B43868  10.371  35.925   6.557
 3195POPC   C3B43869  10.190  35.973   6.948
 3195POPC   C4B43870  10.140  36.132   7.324
 3196POPC   NC343871  44.248  13.667   5.393
 3196POPC   PO443872  43.745  13.910   5.094
 3196POPC   GL143873  43.690  13.828   5.583
 3196POPC   GL243874  43.989  13.849   5.799
 3196POPC   C1A43875  43.545  13.724   6.040
 3196POPC   D2A43876  43.793  13.609   6.442
 3196POPC   C3A43877  43.705  13.670   6.908
 3196POPC   C4A43878  43.855  13.911   7.279
 3196POPC   C1B43879  44.185  13.537   6.084
 3196POPC   C2B43880  44.283  13.445   6.528
 3196POPC   C3B43881  44.217  13.609   6.939
 3196POPC   C4B43882  44.129  13.463   7.352
 3197POPC   NC343883  35.178  12.148   5.538
 3197POPC   PO443884  35.854  12.051   5.337
 3197POPC   GL143885  35.676  12.100   5.780
 3197POPC   GL243886  35.440  12.394   5.874
 3197POPC   C1A43887  35.466  11.998   6.201
 3197POPC   D2A43888  35.430  12.199   6.633
 3197POPC   C3A43889  35.484  11.965   7.042
 3197POPC   C4A43890  35.467  11.830   7.525
 3197POPC   C1B43891  35.082  12.370   6.168
 3197POPC   C2B43892  34.956  12.388   6.596
 3197POPC   C3B43893  34.940  12.074   6.935
 3197POPC   C4B43894  35.054  12.076   7.365
 3198POPC   NC343895  42.676  13.770   5.244
 3198POPC   PO443896  42.076  13.304   5.424
 3198POPC   GL143897  42.143  13.574   5.787
 3198POPC   GL243898  42.487  13.621   5.869
 3198POPC   C1A43899  42.085  13.646   6.231
 3198POPC   D2A43900  42.237  13.594   6.642
 3198POPC   C3A43901  42.153  13.750   7.074
 3198POPC   C4A43902  42.210  13.577   7.479
 3198POPC   C1B43903  42.471  13.312   6.195
 3198POPC   C2B43904  42.483  13.148   6.624
 3198POPC   C3B43905  42.499  13.333   7.021
 3198POPC   C4B43906  42.508  13.170   7.434
 3199POPC   NC343907   3.437  24.076   5.636
 3199POPC   PO443908   3.775  23.593   5.486
 3199POPC   GL143909   3.603  23.362   5.864
 3199POPC   GL243910   3.317  23.574   5.903
 3199POPC   C1A43911   3.571  23.252   6.328
 3199POPC   D2A43912   3.502  23.441   6.739
 3199POPC   C3A43913   3.158  23.518   7.035
 3199POPC   C4A43914   3.187  23.635   7.491
 3199POPC   C1B43915   3.345  23.720   6.332
 3199POPC   C2B43916   3.210  23.916   6.718
 3199POPC   C3B43917   3.129  24.039   7.160
 3199POPC   C4B43918   2.940  24.101   7.574
 3200POPC   NC343919   7.764   1.766   5.416
 3200POPC   PO443920   7.100   2.090   5.495
 3200POPC   GL143921   7.414   1.982   5.840
 3200POPC   GL243922   7.800   2.034   5.898
 3200POPC   C1A43923   7.514   1.752   6.239
 3200POPC   D2A43924   7.629   1.633   6.659
 3200POPC   C3A43925   7.569   1.877   7.036
 3200POPC   C4A43926   7.310   1.827   7.374
 3200POPC   C1B43927   7.553   2.269   6.246
 3200POPC   C2B43928   7.393   2.261   6.654
 3200POPC   C3B43929   7.191   2.236   7.044
 3200POPC   C4B43930   7.478   2.324   7.342
 3201POPC   NC343931   9.445   5.623   5.601
 3201POPC   PO443932   8.832   5.812   5.377
 3201POPC   GL143933   8.873   5.832   5.787
 3201POPC   GL243934   9.173   6.035   5.842
 3201POPC   C1A43935   8.677   5.880   6.176
 3201POPC   D2A43936   8.696   6.095   6.537
 3201POPC   C3A43937   8.609   5.863   6.882
 3201POPC   C4A43938   8.714   5.956   7.246
 3201POPC   C1B43939   9.168   5.702   6.181
 3201POPC   C2B43940   8.946   5.616   6.546
 3201POPC   C3B43941   9.112   5.815   6.882
 3201POPC   C4B43942   9.174   5.724   7.258
 3202POPC   NC343943   3.501   7.889   5.440
 3202POPC   PO443944   3.553   8.505   5.386
 3202POPC   GL143945   3.458   8.293   5.778
 3202POPC   GL243946   3.710   8.102   5.890
 3202POPC   C1A43947   3.335   8.358   6.214
 3202POPC   D2A43948   3.300   8.130   6.621
 3202POPC   C3A43949   3.187   8.315   6.994
 3202POPC   C4A43950   3.376   8.671   7.262
 3202POPC   C1B43951   3.612   7.931   6.269
 3202POPC   C2B43952   3.779   7.937   6.652
 3202POPC   C3B43953   3.949   8.259   6.847
 3202POPC   C4B43954   3.680   8.288   7.137
 3203POPC   NC343955  42.244  44.621   5.058
 3203POPC   PO443956  42.516  44.409   5.643
 3203POPC   GL143957  42.279  44.598   5.903
 3203POPC   GL243958  42.086  44.813   5.691
 3203POPC   C1A43959  42.426  44.524   6.311
 3203POPC   D2A43960  42.651  44.710   6.641
 3203POPC   C3A43961  42.447  44.594   6.992
 3203POPC   C4A43962  42.272  44.629   7.384
 3203POPC   C1B43963  41.970  44.932   6.136
 3203POPC   C2B43964  42.086  44.789   6.575
 3203POPC   C3B43965  42.033  44.911   7.014
 3203POPC   C4B43966  42.120   0.324   7.176
 3204POPC   NC343967  32.345   9.467   5.372
 3204POPC   PO443968  31.820   9.949   5.125
 3204POPC   GL143969  32.087   9.939   5.623
 3204POPC   GL243970  31.856  10.021   5.934
 3204POPC   C1A43971  32.349   9.857   6.025
 3204POPC   D2A43972  32.323   9.641   6.464
 3204POPC   C3A43973  32.455   9.781   6.850
 3204POPC   C4A43974  32.409   9.714   7.257
 3204POPC   C1B43975  31.905   9.653   6.192
 3204POPC   C2B43976  31.811   9.605   6.624
 3204POPC   C3B43977  31.975   9.599   7.017
 3204POPC   C4B43978  31.923   9.591   7.469
 3205POPC   NC343979  31.380  20.145   5.450
 3205POPC   PO443980  31.416  19.474   5.353
 3205POPC   GL143981  31.686  19.452   5.723
 3205POPC   GL243982  31.574  19.780   5.801
 3205POPC   C1A43983  31.794  19.482   6.180
 3205POPC   D2A43984  31.730  19.777   6.547
 3205POPC   C3A43985  31.616  19.694   6.968
 3205POPC   C4A43986  31.849  19.788   7.350
 3205POPC   C1B43987  31.356  19.850   6.209
 3205POPC   C2B43988  31.275  19.960   6.671
 3205POPC   C3B43989  31.295  20.081   7.118
 3205POPC   C4B43990  31.008  20.163   7.470
 3206POPC   NC343991  11.173  36.597   5.328
 3206POPC   PO443992  11.138  37.236   5.486
 3206POPC   GL143993  11.296  36.882   5.738
 3206POPC   GL243994  11.005  36.667   5.793
 3206POPC   C1A43995  11.400  36.812   6.169
 3206POPC   D2A43996  11.375  37.070   6.540
 3206POPC   C3A43997  11.447  36.947   6.943
 3206POPC   C4A43998  11.620  37.256   7.188
 3206POPC   C1B43999  11.023  36.450   6.147
 3206POPC   C2B44000  11.232  36.518   6.568
 3206POPC   C3B44001  11.078  36.520   6.974
 3206POPC   C4B44002  11.224  36.672   7.321
 3207POPC   NC344003  38.942  26.198   5.503
 3207POPC   PO444004  39.597  25.848   5.482
 3207POPC   GL144005  39.407  26.088   5.791
 3207POPC   GL244006  39.136  25.893   5.877
 3207POPC   C1A44007  39.342  26.200   6.229
 3207POPC   D2A44008  39.124  26.181   6.617
 3207POPC   C3A44009  39.419  26.152   6.932
 3207POPC   C4A44010  39.347  25.981   7.313
 3207POPC   C1B44011  38.999  25.806   6.268
 3207POPC   C2B44012  38.950  25.628   6.657
 3207POPC   C3B44013  38.950  25.839   7.022
 3207POPC   C4B44014  38.854  25.852   7.448
 3208POPC   NC344015  20.269  28.552   5.497
 3208POPC   PO444016  20.816  28.110   5.408
 3208POPC   GL144017  20.620  28.280   5.760
 3208POPC   GL244018  20.750  28.605   5.629
 3208POPC   C1A44019  20.757  28.233   6.193
 3208POPC   D2A44020  20.561  28.160   6.576
 3208POPC   C3A44021  20.772  28.246   6.933
 3208POPC   C4A44022  20.700  28.052   7.301
 3208POPC   C1B44023  20.786  28.716   6.050
 3208POPC   C2B44024  20.516  28.673   6.433
 3208POPC   C3B44025  20.562  28.713   6.880
 3208POPC   C4B44026  20.542  28.515   7.309
 3209POPC   NC344027  16.184  30.056   5.354
 3209POPC   PO444028  15.763  29.556   5.362
 3209POPC   GL144029  15.745  29.850   5.751
 3209POPC   GL244030  16.101  29.860   5.816
 3209POPC   C1A44031  15.831  29.892   6.227
 3209POPC   D2A44032  16.044  29.641   6.494
 3209POPC   C3A44033  15.858  29.738   6.883
 3209POPC   C4A44034  15.818  30.051   7.160
 3209POPC   C1B44035  16.319  30.054   6.184
 3209POPC   C2B44036  16.155  30.102   6.630
 3209POPC   C3B44037  16.316  30.028   7.017
 3209POPC   C4B44038  16.461  30.271   7.319
 3210POPC   NC344039  35.792  31.689   5.354
 3210POPC   PO444040  35.585  32.299   5.366
 3210POPC   GL144041  35.299  32.351   5.714
 3210POPC   GL244042  35.590  32.310   5.899
 3210POPC   C1A44043  35.216  32.585   6.114
 3210POPC   D2A44044  35.214  32.423   6.551
 3210POPC   C3A44045  35.248  32.673   6.899
 3210POPC   C4A44046  35.269  32.403   7.223
 3210POPC   C1B44047  35.271  32.060   6.126
 3210POPC   C2B44048  35.180  31.896   6.510
 3210POPC   C3B44049  35.385  31.995   6.872
 3210POPC   C4B44050  35.339  31.887   7.293
 3211POPC   NC344051   5.906  33.905   5.137
 3211POPC   PO444052   5.572  34.203   5.588
 3211POPC   GL144053   5.759  33.874   5.818
 3211POPC   GL244054   6.076  33.767   5.785
 3211POPC   C1A44055   5.628  33.787   6.202
 3211POPC   D2A44056   5.532  33.664   6.602
 3211POPC   C3A44057   5.809  33.836   6.895
 3211POPC   C4A44058   5.771  33.721   7.297
 3211POPC   C1B44059   6.112  33.639   6.232
 3211POPC   C2B44060   6.241  33.637   6.680
 3211POPC   C3B44061   6.239  33.603   7.165
 3211POPC   C4B44062   6.110  33.542   7.619
 3212POPC   NC344063  38.683  22.448   4.972
 3212POPC   PO444064  38.517  22.256   5.570
 3212POPC   GL144065  38.592  22.060   5.911
 3212POPC   GL244066  38.281  22.021   5.970
 3212POPC   C1A44067  38.628  22.057   6.351
 3212POPC   D2A44068  38.571  21.794   6.675
 3212POPC   C3A44069  38.669  22.011   7.008
 3212POPC   C4A44070  38.634  22.363   7.220
 3212POPC   C1B44071  38.134  21.872   6.337
 3212POPC   C2B44072  38.113  22.043   6.723
 3212POPC   C3B44073  38.157  22.207   7.093
 3212POPC   C4B44074  38.107  22.095   7.518
 3213POPC   NC344075   9.177  44.980   5.558
 3213POPC   PO444076   9.047   0.662   5.394
 3213POPC   GL144077   8.933   0.682   5.790
 3213POPC   GL244078   9.046   0.343   5.895
 3213POPC   C1A44079   9.110   0.750   6.185
 3213POPC   D2A44080   9.068   0.436   6.508
 3213POPC   C3A44081   9.027   0.562   6.928
 3213POPC   C4A44082   9.118   0.354   7.305
 3213POPC   C1B44083   8.908   0.022   6.213
 3213POPC   C2B44084   8.721  44.979   6.596
 3213POPC   C3B44085   8.860   0.065   6.959
 3213POPC   C4B44086   8.675   0.071   7.325
 3214POPC   NC344087  12.901  10.993   5.517
 3214POPC   PO444088  13.226  11.653   5.424
 3214POPC   GL144089  12.905  11.502   5.716
 3214POPC   GL244090  13.191  11.340   5.842
 3214POPC   C1A44091  12.761  11.273   6.106
 3214POPC   D2A44092  12.853  11.301   6.566
 3214POPC   C3A44093  12.567  11.127   6.887
 3214POPC   C4A44094  12.528  11.309   7.286
 3214POPC   C1B44095  13.112  11.670   6.152
 3214POPC   C2B44096  13.360  11.608   6.493
 3214POPC   C3B44097  13.190  11.587   6.883
 3214POPC   C4B44098  13.021  11.237   7.132
 3215POPC   NC344099  23.511  15.186   5.361
 3215POPC   PO444100  22.904  15.033   5.383
 3215POPC   GL144101  23.204  15.111   5.763
 3215POPC   GL244102  23.396  15.445   5.800
 3215POPC   C1A44103  23.201  15.192   6.218
 3215POPC   D2A44104  23.090  15.374   6.640
 3215POPC   C3A44105  23.068  15.119   7.042
 3215POPC   C4A44106  22.859  15.124   7.470
 3215POPC   C1B44107  23.560  15.575   6.219
 3215POPC   C2B44108  23.481  15.719   6.643
 3215POPC   C3B44109  23.279  15.603   7.060
 3215POPC   C4B44110  23.315  15.344   7.448
 3216POPC   NC344111   8.299  34.196   5.387
 3216POPC   PO444112   8.134  33.543   5.334
 3216POPC   GL144113   8.064  33.796   5.689
 3216POPC   GL244114   7.812  34.025   5.576
 3216POPC   C1A44115   8.062  33.791   6.148
 3216POPC   D2A44116   8.276  33.997   6.490
 3216POPC   C3A44117   8.375  33.797   6.860
 3216POPC   C4A44118   8.122  33.844   7.181
 3216POPC   C1B44119   7.676  34.087   6.003
 3216POPC   C2B44120   7.837  34.234   6.398
 3216POPC   C3B44121   7.931  34.183   6.829
 3216POPC   C4B44122   7.745  34.173   7.221
 3217POPC   NC344123  13.248  25.600   4.987
 3217POPC   PO444124  13.654  25.145   5.171
 3217POPC   GL144125  13.680  25.191   5.662
 3217POPC   GL244126  13.889  25.473   5.791
 3217POPC   C1A44127  13.651  24.957   6.094
 3217POPC   D2A44128  13.607  24.795   6.536
 3217POPC   C3A44129  13.710  25.113   6.838
 3217POPC   C4A44130  14.028  25.173   7.132
 3217POPC   C1B44131  13.621  25.483   6.174
 3217POPC   C2B44132  13.478  25.542   6.616
 3217POPC   C3B44133  13.604  25.583   7.054
 3217POPC   C4B44134  13.734  25.686   7.492
 3218POPC   NC344135  11.433   3.987   5.482
 3218POPC   PO444136  11.126   3.345   5.416
 3218POPC   GL144137  11.188   3.605   5.753
 3218POPC   GL244138  11.549   3.602   5.803
 3218POPC   C1A44139  11.169   3.628   6.197
 3218POPC   D2A44140  10.975   3.448   6.542
 3218POPC   C3A44141  11.075   3.638   6.897
 3218POPC   C4A44142  11.283   3.716   7.251
 3218POPC   C1B44143  11.648   3.425   6.231
 3218POPC   C2B44144  11.533   3.520   6.677
 3218POPC   C3B44145  11.672   3.421   7.137
 3218POPC   C4B44146  11.678   3.399   7.655
 3219POPC   NC344147  13.975  15.208   5.182
 3219POPC   PO444148  14.548  14.765   5.276
 3219POPC   GL144149  14.460  14.928   5.737
 3219POPC   GL244150  14.633  15.221   5.873
 3219POPC   C1A44151  14.308  14.973   6.187
 3219POPC   D2A44152  14.122  15.270   6.503
 3219POPC   C3A44153  14.289  15.242   6.933
 3219POPC   C4A44154  14.333  15.259   7.369
 3219POPC   C1B44155  14.545  15.444   6.244
 3219POPC   C2B44156  14.471  15.614   6.627
 3219POPC   C3B44157  14.744  15.528   6.936
 3219POPC   C4B44158  14.825  15.430   7.342
 3220POPC   NC344159  11.092  41.533   5.551
 3220POPC   PO444160  11.753  41.218   5.389
 3220POPC   GL144161  11.643  41.200   5.863
 3220POPC   GL244162  11.339  41.411   5.974
 3220POPC   C1A44163  11.554  41.161   6.338
 3220POPC   D2A44164  11.250  41.344   6.619
 3220POPC   C3A44165  11.304  41.503   6.998
 3220POPC   C4A44166  11.430  41.291   7.383
 3220POPC   C1B44167  10.964  41.515   6.255
 3220POPC   C2B44168  10.791  41.664   6.652
 3220POPC   C3B44169  10.779  41.462   7.036
 3220POPC   C4B44170  10.958  41.479   7.436
 3221POPC   NC344171  12.058  41.653   5.321
 3221POPC   PO444172  12.607  41.276   5.523
 3221POPC   GL144173  12.274  41.507   5.793
 3221POPC   GL244174  12.168  41.865   5.761
 3221POPC   C1A44175  12.233  41.696   6.233
 3221POPC   D2A44176  12.399  41.805   6.625
 3221POPC   C3A44177  12.363  41.549   6.968
 3221POPC   C4A44178  12.146  41.600   7.336
 3221POPC   C1B44179  11.793  41.681   5.970
 3221POPC   C2B44180  11.683  41.657   6.408
 3221POPC   C3B44181  11.812  41.744   6.850
 3221POPC   C4B44182  11.673  41.742   7.264
 3222POPC   NC344183  40.373  27.368   5.449
 3222POPC   PO444184  40.244  27.977   5.516
 3222POPC   GL144185  40.018  27.729   5.806
 3222POPC   GL244186  40.117  27.401   5.875
 3222POPC   C1A44187  39.865  27.747   6.235
 3222POPC   D2A44188  39.961  27.990   6.615
 3222POPC   C3A44189  40.074  27.703   6.974
 3222POPC   C4A44190  40.354  27.653   7.333
 3222POPC   C1B44191  40.315  27.253   6.241
 3222POPC   C2B44192  40.161  27.160   6.619
 3222POPC   C3B44193  40.340  27.253   6.984
 3222POPC   C4B44194  40.079  27.208   7.295
 3223POPC   NC344195  24.563  19.240   5.435
 3223POPC   PO444196  24.378  18.647   5.596
 3223POPC   GL144197  24.668  18.801   5.894
 3223POPC   GL244198  24.802  19.127   5.896
 3223POPC   C1A44199  24.666  18.900   6.327
 3223POPC   D2A44200  24.749  19.098   6.718
 3223POPC   C3A44201  24.557  18.896   7.056
 3223POPC   C4A44202  24.148  19.067   7.235
 3223POPC   C1B44203  24.452  19.345   6.194
 3223POPC   C2B44204  24.298  19.421   6.659
 3223POPC   C3B44205  24.512  19.407   7.086
 3223POPC   C4B44206  24.954  19.237   7.190
 3224POPC   NC344207  29.016  18.174   5.495
 3224POPC   PO444208  29.083  18.819   5.653
 3224POPC   GL144209  29.329  18.456   5.806
 3224POPC   GL244210  29.290  18.051   5.892
 3224POPC   C1A44211  29.246  18.390   6.248
 3224POPC   D2A44212  29.442  18.170   6.556
 3224POPC   C3A44213  29.221  18.287   6.936
 3224POPC   C4A44214  29.158  18.393   7.368
 3224POPC   C1B44215  28.841  18.087   6.125
 3224POPC   C2B44216  28.677  18.194   6.540
 3224POPC   C3B44217  28.714  18.125   6.987
 3224POPC   C4B44218  28.627  18.371   7.369
 3225POPC   NC344219  39.345  18.575   5.439
 3225POPC   PO444220  38.800  18.326   5.488
 3225POPC   GL144221  39.066  18.360   5.798
 3225POPC   GL244222  39.014  18.099   5.992
 3225POPC   C1A44223  39.243  18.558   6.147
 3225POPC   D2A44224  39.301  18.359   6.545
 3225POPC   C3A44225  39.293  18.597   6.925
 3225POPC   C4A44226  39.622  18.475   7.185
 3225POPC   C1B44227  38.803  18.333   6.363
 3225POPC   C2B44228  38.874  18.284   6.839
 3225POPC   C3B44229  39.166  18.154   7.188
 3225POPC   C4B44230  39.023  18.040   7.621
 3226POPC   NC344231   2.813   9.579   5.411
 3226POPC   PO444232   2.230   9.425   5.713
 3226POPC   GL144233   2.649   9.542   5.880
 3226POPC   GL244234   2.699   9.879   5.979
 3226POPC   C1A44235   2.967   9.494   6.230
 3226POPC   D2A44236   3.020   9.359   6.678
 3226POPC   C3A44237   2.917   9.653   7.059
 3226POPC   C4A44238   2.879   9.655   7.526
 3226POPC   C1B44239   2.476   9.630   6.336
 3226POPC   C2B44240   2.452   9.554   6.766
 3226POPC   C3B44241   2.393   9.649   7.209
 3226POPC   C4B44242   2.174  10.021   7.398
 3227POPC   NC344243  41.266  13.102   5.684
 3227POPC   PO444244  40.708  12.883   5.455
 3227POPC   GL144245  40.832  12.805   5.858
 3227POPC   GL244246  40.498  12.738   6.008
 3227POPC   C1A44247  40.855  12.965   6.292
 3227POPC   D2A44248  40.649  12.990   6.706
 3227POPC   C3A44249  40.976  12.977   7.037
 3227POPC   C4A44250  41.270  12.655   7.118
 3227POPC   C1B44251  40.559  12.442   6.343
 3227POPC   C2B44252  40.474  12.391   6.742
 3227POPC   C3B44253  40.657  12.581   7.077
 3227POPC   C4B44254  40.796  12.377   7.409
 3228POPC   NC344255   2.794  23.004   5.169
 3228POPC   PO444256   2.423  22.565   5.509
 3228POPC   GL144257   2.799  22.610   5.772
 3228POPC   GL244258   2.932  22.940   5.756
 3228POPC   C1A44259   2.785  22.744   6.212
 3228POPC   D2A44260   2.495  22.865   6.567
 3228POPC   C3A44261   2.600  22.760   7.000
 3228POPC   C4A44262   2.522  22.968   7.387
 3228POPC   C1B44263   3.136  23.124   6.120
 3228POPC   C2B44264   3.022  23.343   6.528
 3228POPC   C3B44265   2.728  23.269   6.907
 3228POPC   C4B44266   2.782  23.391   7.355
 3229POPC   NC344267  16.012  19.537   5.512
 3229POPC   PO444268  15.942  18.890   5.308
 3229POPC   GL144269  15.870  18.883   5.747
 3229POPC   GL244270  15.819  19.209   5.867
 3229POPC   C1A44271  16.076  18.866   6.172
 3229POPC   D2A44272  16.021  19.101   6.541
 3229POPC   C3A44273  15.976  18.904   6.923
 3229POPC   C4A44274  15.945  18.917   7.358
 3229POPC   C1B44275  15.691  19.482   6.202
 3229POPC   C2B44276  15.787  19.575   6.613
 3229POPC   C3B44277  15.761  19.375   7.020
 3229POPC   C4B44278  15.940  19.536   7.379
 3230POPC   NC344279   4.045   1.972   5.390
 3230POPC   PO444280   4.636   1.718   5.249
 3230POPC   GL144281   4.473   1.829   5.694
 3230POPC   GL244282   4.296   2.138   5.794
 3230POPC   C1A44283   4.555   1.816   6.149
 3230POPC   D2A44284   4.627   2.013   6.558
 3230POPC   C3A44285   4.527   1.745   6.881
 3230POPC   C4A44286   4.553   1.617   7.282
 3230POPC   C1B44287   4.033   2.134   6.163
 3230POPC   C2B44288   4.170   2.248   6.577
 3230POPC   C3B44289   4.182   2.119   6.977
 3230POPC   C4B44290   4.145   2.312   7.333
 3231POPC   NC344291  33.942  43.591   5.515
 3231POPC   PO444292  33.445  43.957   5.336
 3231POPC   GL144293  33.654  44.053   5.730
 3231POPC   GL244294  34.010  44.116   5.776
 3231POPC   C1A44295  33.570  44.109   6.167
 3231POPC   D2A44296  33.813  44.184   6.561
 3231POPC   C3A44297  33.541  44.136   6.919
 3231POPC   C4A44298  33.352  43.847   7.182
 3231POPC   C1B44299  34.037  43.872   6.146
 3231POPC   C2B44300  34.105  43.758   6.589
 3231POPC   C3B44301  34.048  43.932   7.005
 3231POPC   C4B44302  34.076  44.334   7.184
 3232POPC   NC344303  29.168   4.967   5.343
 3232POPC   PO444304  28.953   5.476   5.748
 3232POPC   GL144305  29.098   5.031   5.840
 3232POPC   GL244306  28.869   4.723   5.736
 3232POPC   C1A44307  29.320   4.876   6.204
 3232POPC   D2A44308  29.228   4.733   6.656
 3232POPC   C3A44309  29.284   5.074   6.928
 3232POPC   C4A44310  29.322   5.112   7.346
 3232POPC   C1B44311  28.823   4.790   6.199
 3232POPC   C2B44312  28.898   5.111   6.537
 3232POPC   C3B44313  28.784   5.092   6.989
 3232POPC   C4B44314  28.656   4.938   7.426
 3233POPC   NC344315  15.322  27.971   5.467
 3233POPC   PO444316  15.278  27.265   5.356
 3233POPC   GL144317  15.433  27.537   5.708
 3233POPC   GL244318  15.085  27.645   5.788
 3233POPC   C1A44319  15.447  27.676   6.141
 3233POPC   D2A44320  15.091  27.821   6.349
 3233POPC   C3A44321  15.201  27.922   6.772
 3233POPC   C4A44322  15.513  27.824   7.112
 3233POPC   C1B44323  15.129  27.286   6.069
 3233POPC   C2B44324  14.997  27.158   6.458
 3233POPC   C3B44325  15.168  27.397   6.821
 3233POPC   C4B44326  15.292  27.405   7.240
 3234POPC   NC344327  26.495  27.881   5.347
 3234POPC   PO444328  25.864  27.715   5.524
 3234POPC   GL144329  25.966  27.546   5.940
 3234POPC   GL244330  26.329  27.566   5.850
 3234POPC   C1A44331  26.029  27.751   6.363
 3234POPC   D2A44332  25.787  27.668   6.751
 3234POPC   C3A44333  26.018  27.867   7.106
 3234POPC   C4A44334  26.217  27.983   7.506
 3234POPC   C1B44335  26.272  27.303   6.238
 3234POPC   C2B44336  26.214  27.408   6.683
 3234POPC   C3B44337  26.044  27.364   7.080
 3234POPC   C4B44338  26.269  27.186   7.394
 3235POPC   NC344339   8.941  22.456   5.499
 3235POPC   PO444340   9.488  22.049   5.570
 3235POPC   GL144341   9.170  22.144   5.855
 3235POPC   GL244342   9.250  22.487   5.899
 3235POPC   C1A44343   8.864  22.228   6.187
 3235POPC   D2A44344   8.796  22.479   6.553
 3235POPC   C3A44345   8.716  22.292   6.971
 3235POPC   C4A44346   8.852  22.000   7.259
 3235POPC   C1B44347   9.375  22.344   6.303
 3235POPC   C2B44348   9.255  22.231   6.723
 3235POPC   C3B44349   9.184  22.408   7.112
 3235POPC   C4B44350   9.196  22.833   7.238
 3236POPC   NC344351  26.823  30.571   5.427
 3236POPC   PO444352  26.602  31.201   5.468
 3236POPC   GL144353  26.806  30.920   5.786
 3236POPC   GL244354  27.092  30.999   5.980
 3236POPC   C1A44355  26.990  30.489   6.054
 3236POPC   D2A44356  27.053  30.233   6.467
 3236POPC   C3A44357  26.883  30.412   6.883
 3236POPC   C4A44358  26.908  30.506   7.335
 3236POPC   C1B44359  26.673  30.823   6.241
 3236POPC   C2B44360  26.615  30.777   6.638
 3236POPC   C3B44361  26.845  30.993   6.942
 3236POPC   C4B44362  26.584  30.871   7.227
 3237POPC   NC344363  40.184  22.933   5.215
 3237POPC   PO444364  40.860  23.010   5.311
 3237POPC   GL144365  40.936  23.030   5.777
 3237POPC   GL244366  40.859  22.658   5.769
 3237POPC   C1A44367  40.978  23.191   6.250
 3237POPC   D2A44368  40.747  23.304   6.668
 3237POPC   C3A44369  40.776  23.041   7.057
 3237POPC   C4A44370  41.018  22.950   7.424
 3237POPC   C1B44371  40.675  22.783   6.170
 3237POPC   C2B44372  40.482  22.789   6.589
 3237POPC   C3B44373  40.233  22.582   6.897
 3237POPC   C4B44374  40.148  22.722   7.298
 3238POPC   NC344375  12.779   3.903   5.312
 3238POPC   PO444376  13.270   4.412   5.255
 3238POPC   GL144377  13.134   4.167   5.641
 3238POPC   GL244378  12.965   4.429   5.819
 3238POPC   C1A44379  13.096   4.047   6.130
 3238POPC   D2A44380  12.965   3.910   6.563
 3238POPC   C3A44381  13.008   4.198   6.937
 3238POPC   C4A44382  12.880   4.189   7.362
 3238POPC   C1B44383  12.657   4.366   6.146
 3238POPC   C2B44384  12.581   4.264   6.576
 3238POPC   C3B44385  12.512   4.442   6.985
 3238POPC   C4B44386  12.829   4.651   7.180
 3239POPC   NC344387  20.307   2.765   5.421
 3239POPC   PO444388  20.785   2.319   5.385
 3239POPC   GL144389  20.690   2.515   5.783
 3239POPC   GL244390  20.330   2.521   5.879
 3239POPC   C1A44391  20.885   2.575   6.197
 3239POPC   D2A44392  21.013   2.770   6.591
 3239POPC   C3A44393  21.011   2.549   6.994
 3239POPC   C4A44394  20.796   2.731   7.329
 3239POPC   C1B44395  20.461   2.865   6.176
 3239POPC   C2B44396  20.373   2.848   6.623
 3239POPC   C3B44397  20.466   2.985   7.035
 3239POPC   C4B44398  20.360   3.052   7.463
 3240POPC   NC344399  38.692  40.262   5.325
 3240POPC   PO444400  38.163  39.874   5.308
 3240POPC   GL144401  38.465  39.949   5.695
 3240POPC   GL244402  38.490  40.325   5.795
 3240POPC   C1A44403  38.532  39.896   6.166
 3240POPC   D2A44404  38.241  39.769   6.506
 3240POPC   C3A44405  38.197  39.912   6.935
 3240POPC   C4A44406  38.533  39.976   7.219
 3240POPC   C1B44407  38.468  40.395   6.238
 3240POPC   C2B44408  38.563  40.181   6.658
 3240POPC   C3B44409  38.403  40.423   7.015
 3240POPC   C4B44410  38.436  40.564   7.449
 3241POPC   NC344411   2.068  17.499   5.197
 3241POPC   PO444412   2.652  17.395   5.423
 3241POPC   GL144413   2.232  17.593   5.694
 3241POPC   GL244414   1.989  17.370   5.831
 3241POPC   C1A44415   1.987  17.845   6.042
 3241POPC   D2A44416   1.838  17.802   6.508
 3241POPC   C3A44417   1.905  17.797   6.988
 3241POPC   C4A44418   1.891  17.971   7.439
 3241POPC   C1B44419   2.202  17.444   6.258
 3241POPC   C2B44420   2.316  17.655   6.667
 3241POPC   C3B44421   2.377  17.647   7.134
 3241POPC   C4B44422   2.158  17.464   7.498
 3242POPC   NC344423  14.331  28.105   5.462
 3242POPC   PO444424  14.718  28.474   5.057
 3242POPC   GL144425  14.681  28.478   5.677
 3242POPC   GL244426  14.461  28.309   5.886
 3242POPC   C1A44427  14.662  28.585   6.219
 3242POPC   D2A44428  14.464  28.443   6.648
 3242POPC   C3A44429  14.384  28.634   7.094
 3242POPC   C4A44430  14.262  28.607   7.589
 3242POPC   C1B44431  14.615  28.059   6.245
 3242POPC   C2B44432  14.433  27.935   6.636
 3242POPC   C3B44433  14.461  28.032   7.067
 3242POPC   C4B44434  14.582  28.280   7.403
 3243POPC   NC344435  29.469  30.475   5.569
 3243POPC   PO444436  29.630  31.070   5.208
 3243POPC   GL144437  29.734  30.929   5.694
 3243POPC   GL244438  30.074  30.971   5.915
 3243POPC   C1A44439  29.744  30.676   6.116
 3243POPC   D2A44440  30.002  30.715   6.474
 3243POPC   C3A44441  29.884  30.448   6.823
 3243POPC   C4A44442  29.809  30.662   7.227
 3243POPC   C1B44443  30.345  31.085   6.268
 3243POPC   C2B44444  30.421  30.930   6.687
 3243POPC   C3B44445  30.230  31.003   7.091
 3243POPC   C4B44446  30.191  30.831   7.510
 3244POPC   NC344447  23.772  16.240   5.479
 3244POPC   PO444448  23.696  15.604   5.375
 3244POPC   GL144449  23.638  15.904   5.824
 3244POPC   GL244450  23.873  16.212   5.991
 3244POPC   C1A44451  23.459  16.081   6.232
 3244POPC   D2A44452  23.616  16.266   6.622
 3244POPC   C3A44453  23.584  16.020   7.028
 3244POPC   C4A44454  23.616  15.743   7.415
 3244POPC   C1B44455  23.935  15.910   6.309
 3244POPC   C2B44456  24.013  15.968   6.726
 3244POPC   C3B44457  24.038  16.203   7.094
 3244POPC   C4B44458  24.052  16.009   7.501
 3245POPC   NC344459  15.862   8.801   5.445
 3245POPC   PO444460  15.489   9.428   5.503
 3245POPC   GL144461  15.918   9.266   5.693
 3245POPC   GL244462  16.093   8.916   5.854
 3245POPC   C1A44463  15.893   9.284   6.144
 3245POPC   D2A44464  15.564   9.336   6.470
 3245POPC   C3A44465  15.506   9.024   6.790
 3245POPC   C4A44466  15.726   9.227   7.141
 3245POPC   C1B44467  15.845   8.778   6.166
 3245POPC   C2B44468  15.949   8.924   6.554
 3245POPC   C3B44469  16.193   9.103   6.869
 3245POPC   C4B44470  16.193   8.992   7.265
 3246POPC   NC344471   8.481  36.423   5.489
 3246POPC   PO444472   7.881  36.086   5.374
 3246POPC   GL144473   8.072  36.222   5.755
 3246POPC   GL244474   8.334  35.981   5.801
 3246POPC   C1A44475   8.145  36.250   6.209
 3246POPC   D2A44476   8.028  36.028   6.583
 3246POPC   C3A44477   8.150  36.270   6.921
 3246POPC   C4A44478   8.294  36.191   7.332
 3246POPC   C1B44479   8.332  35.755   6.197
 3246POPC   C2B44480   8.287  35.542   6.593
 3246POPC   C3B44481   8.309  35.776   6.983
 3246POPC   C4B44482   8.528  35.718   7.367
 3247POPC   NC344483  26.441  31.641   5.452
 3247POPC   PO444484  27.034  31.806   5.201
 3247POPC   GL144485  27.133  31.762   5.711
 3247POPC   GL244486  26.920  31.483   5.846
 3247POPC   C1A44487  27.098  31.775   6.211
 3247POPC   D2A44488  27.053  31.455   6.548
 3247POPC   C3A44489  26.804  31.609   6.876
 3247POPC   C4A44490  26.912  31.847   7.227
 3247POPC   C1B44491  26.712  31.323   6.171
 3247POPC   C2B44492  26.549  31.270   6.564
 3247POPC   C3B44493  26.420  31.281   6.971
 3247POPC   C4B44494  26.646  31.362   7.317
 3248POPC   NC344495  38.650  43.739   5.448
 3248POPC   PO444496  38.014  43.867   5.564
 3248POPC   GL144497  38.323  43.800   5.851
 3248POPC   GL244498  38.544  44.057   5.818
 3248POPC   C1A44499  38.400  43.710   6.259
 3248POPC   D2A44500  38.296  43.653   6.691
 3248POPC   C3A44501  38.220  43.969   7.009
 3248POPC   C4A44502  38.318  43.712   7.363
 3248POPC   C1B44503  38.848  44.225   6.059
 3248POPC   C2B44504  38.652  44.119   6.426
 3248POPC   C3B44505  38.731  43.949   6.801
 3248POPC   C4B44506  38.670  44.126   7.205
 3249POPC   NC344507  19.633   2.068   5.416
 3249POPC   PO444508  20.220   1.699   5.573
 3249POPC   GL144509  19.889   1.855   5.827
 3249POPC   GL244510  19.916   2.202   5.837
 3249POPC   C1A44511  19.724   1.917   6.239
 3249POPC   D2A44512  19.543   2.054   6.614
 3249POPC   C3A44513  19.657   1.819   6.971
 3249POPC   C4A44514  19.939   1.996   7.253
 3249POPC   C1B44515  19.970   2.380   6.267
 3249POPC   C2B44516  19.964   2.356   6.725
 3249POPC   C3B44517  19.655   2.374   7.036
 3249POPC   C4B44518  19.728   2.396   7.484
 3250POPC   NC344519  21.289  35.448   5.365
 3250POPC   PO444520  21.827  35.337   5.798
 3250POPC   GL144521  21.409  35.434   5.859
 3250POPC   GL244522  21.194  35.138   5.807
 3250POPC   C1A44523  21.362  35.648   6.223
 3250POPC   D2A44524  21.193  35.728   6.609
 3250POPC   C3A44525  21.500  35.559   6.896
 3250POPC   C4A44526  21.556  35.435   7.313
 3250POPC   C1B44527  21.301  35.144   6.269
 3250POPC   C2B44528  21.093  35.054   6.652
 3250POPC   C3B44529  21.286  35.115   7.021
 3250POPC   C4B44530  21.290  34.958   7.404
 3251POPC   NC344531  13.091  25.653   5.593
 3251POPC   PO444532  12.823  25.060   5.393
 3251POPC   GL144533  12.882  24.967   5.801
 3251POPC   GL244534  13.221  24.978   5.796
 3251POPC   C1A44535  12.742  24.876   6.224
 3251POPC   D2A44536  12.677  25.194   6.549
 3251POPC   C3A44537  12.604  25.164   6.992
 3251POPC   C4A44538  12.696  25.490   7.284
 3251POPC   C1B44539  13.182  25.176   6.233
 3251POPC   C2B44540  13.186  25.092   6.686
 3251POPC   C3B44541  13.121  25.236   7.102
 3251POPC   C4B44542  13.201  25.568   7.393
 3252POPC   NC344543   4.370  34.835   5.554
 3252POPC   PO444544   4.024  34.262   5.487
 3252POPC   GL144545   4.230  34.462   5.863
 3252POPC   GL244546   4.040  34.626   6.137
 3252POPC   C1A44547   4.522  34.573   6.209
 3252POPC   D2A44548   4.473  34.389   6.616
 3252POPC   C3A44549   4.396  34.595   6.982
 3252POPC   C4A44550   4.604  34.862   7.245
 3252POPC   C1B44551   4.093  34.193   6.325
 3252POPC   C2B44552   4.024  34.115   6.773
 3252POPC   C3B44553   3.910  34.448   7.094
 3252POPC   C4B44554   4.066  34.802   7.341
 3253POPC   NC344555  21.239  42.640   5.371
 3253POPC   PO444556  21.464  41.991   5.395
 3253POPC   GL144557  21.444  42.303   5.768
 3253POPC   GL244558  21.184  42.581   5.868
 3253POPC   C1A44559  21.552  42.398   6.216
 3253POPC   D2A44560  21.659  42.150   6.598
 3253POPC   C3A44561  21.809  42.380   6.921
 3253POPC   C4A44562  21.533  42.547   7.186
 3253POPC   C1B44563  21.184  42.762   6.300
 3253POPC   C2B44564  21.305  42.562   6.719
 3253POPC   C3B44565  21.033  42.518   7.117
 3253POPC   C4B44566  20.882  42.693   7.522
 3254POPC   NC344567  25.629   0.598   5.048
 3254POPC   PO444568  25.148   0.457   5.536
 3254POPC   GL144569  25.111   0.336   5.918
 3254POPC   GL244570  25.443   0.205   5.978
 3254POPC   C1A44571  25.141   0.491   6.317
 3254POPC   D2A44572  25.109   0.320   6.704
 3254POPC   C3A44573  25.114   0.606   7.009
 3254POPC   C4A44574  25.140   0.481   7.413
 3254POPC   C1B44575  25.321   0.015   6.335
 3254POPC   C2B44576  25.456  44.950   6.757
 3254POPC   C3B44577  25.492   0.248   7.082
 3254POPC   C4B44578  25.625   0.230   7.504
 3255POPC   NC344579  15.162  36.585   5.649
 3255POPC   PO444580  15.045  37.273   5.450
 3255POPC   GL144581  15.020  37.053   5.833
 3255POPC   GL244582  14.747  36.794   5.883
 3255POPC   C1A44583  14.943  37.189   6.239
 3255POPC   D2A44584  15.123  37.093   6.640
 3255POPC   C3A44585  14.903  37.007   6.995
 3255POPC   C4A44586  15.216  37.169   7.271
 3255POPC   C1B44587  14.987  36.640   6.267
 3255POPC   C2B44588  15.130  36.569   6.676
 3255POPC   C3B44589  15.223  36.642   7.124
 3255POPC   C4B44590  14.960  36.781   7.492
 3256POPC   NC344591  15.967  27.384   5.430
 3256POPC   PO444592  15.744  28.003   5.637
 3256POPC   GL144593  15.935  27.669   5.867
 3256POPC   GL244594  16.170  27.361   5.883
 3256POPC   C1A44595  15.957  27.676   6.287
 3256POPC   D2A44596  15.694  27.719   6.626
 3256POPC   C3A44597  16.000  27.836   6.901
 3256POPC   C4A44598  16.086  27.596   7.253
 3256POPC   C1B44599  16.275  27.276   6.301
 3256POPC   C2B44600  16.224  27.414   6.727
 3256POPC   C3B44601  16.181  27.142   7.047
 3256POPC   C4B44602  16.265  27.146   7.457
 3257POPC   NC344603  27.172  19.528   5.367
 3257POPC   PO444604  27.579  20.085   5.318
 3257POPC   GL144605  27.602  20.009   5.793
 3257POPC   GL244606  27.541  19.660   5.748
 3257POPC   C1A44607  27.774  20.019   6.245
 3257POPC   D2A44608  27.812  20.186   6.667
 3257POPC   C3A44609  27.611  20.015   7.001
 3257POPC   C4A44610  27.601  20.008   7.402
 3257POPC   C1B44611  27.416  19.626   6.190
 3257POPC   C2B44612  27.343  19.451   6.634
 3257POPC   C3B44613  27.595  19.314   7.002
 3257POPC   C4B44614  27.519  19.523   7.344
 3258POPC   NC344615  39.590  20.452   5.363
 3258POPC   PO444616  40.248  20.528   5.494
 3258POPC   GL144617  39.995  20.779   5.778
 3258POPC   GL244618  40.266  21.042   5.790
 3258POPC   C1A44619  39.738  20.741   6.203
 3258POPC   D2A44620  39.693  20.928   6.643
 3258POPC   C3A44621  39.600  20.660   7.014
 3258POPC   C4A44622  39.847  20.257   7.130
 3258POPC   C1B44623  40.314  20.797   6.167
 3258POPC   C2B44624  40.090  20.569   6.521
 3258POPC   C3B44625  40.089  20.683   6.948
 3258POPC   C4B44626  40.188  20.559   7.384
 3259POPC   NC344627   1.459  28.956   5.247
 3259POPC   PO444628   0.835  29.314   5.356
 3259POPC   GL144629   0.905  29.087   5.734
 3259POPC   GL244630   1.272  29.054   5.747
 3259POPC   C1A44631   0.952  29.205   6.168
 3259POPC   D2A44632   0.909  29.212   6.610
 3259POPC   C3A44633   1.222  29.238   6.900
 3259POPC   C4A44634   1.278  29.199   7.321
 3259POPC   C1B44635   1.450  29.105   6.179
 3259POPC   C2B44636   1.616  29.107   6.623
 3259POPC   C3B44637   1.499  28.840   7.015
 3259POPC   C4B44638   1.000  28.810   7.062
 3260POPC   NC344639  40.477  12.501   5.552
 3260POPC   PO444640  39.829  12.583   5.654
 3260POPC   GL144641  40.033  12.962   5.834
 3260POPC   GL244642  40.341  13.154   5.733
 3260POPC   C1A44643  39.899  12.998   6.227
 3260POPC   D2A44644  40.154  12.703   6.472
 3260POPC   C3A44645  40.182  12.766   6.919
 3260POPC   C4A44646  40.239  12.710   7.357
 3260POPC   C1B44647  40.391  13.198   6.197
 3260POPC   C2B44648  40.163  13.197   6.596
 3260POPC   C3B44649  40.177  13.267   6.978
 3260POPC   C4B44650  40.511  13.111   7.199
 3261POPC   NC344651  35.341  10.678   5.422
 3261POPC   PO444652  35.224   9.979   5.393
 3261POPC   GL144653  35.347  10.218   5.734
 3261POPC   GL244654  35.050  10.440   5.811
 3261POPC   C1A44655  35.465  10.380   6.159
 3261POPC   D2A44656  35.221  10.526   6.523
 3261POPC   C3A44657  35.408  10.709   6.909
 3261POPC   C4A44658  35.425  10.365   7.196
 3261POPC   C1B44659  35.175  10.813   6.082
 3261POPC   C2B44660  35.032  11.002   6.455
 3261POPC   C3B44661  34.918  10.830   6.825
 3261POPC   C4B44662  34.981  10.598   7.171
 3262POPC   NC344663  14.538  32.841   5.318
 3262POPC   PO444664  14.137  33.403   5.444
 3262POPC   GL144665  14.390  33.136   5.743
 3262POPC   GL244666  14.186  32.892   5.932
 3262POPC   C1A44667  14.702  32.984   6.058
 3262POPC   D2A44668  14.789  33.087   6.491
 3262POPC   C3A44669  14.682  32.823   6.875
 3262POPC   C4A44670  14.249  32.714   7.034
 3262POPC   C1B44671  14.287  33.183   6.281
 3262POPC   C2B44672  14.353  33.300   6.717
 3262POPC   C3B44673  14.285  33.202   7.141
 3262POPC   C4B44674  13.941  32.976   7.371
 3263POPC   NC344675  42.622   3.221   5.349
 3263POPC   PO444676  42.057   3.694   5.424
 3263POPC   GL144677  42.410   3.607   5.746
 3263POPC   GL244678  42.117   3.556   5.925
 3263POPC   C1A44679  42.519   3.540   6.224
 3263POPC   D2A44680  42.282   3.638   6.639
 3263POPC   C3A44681  42.362   3.567   7.118
 3263POPC   C4A44682  42.572   3.372   7.434
 3263POPC   C1B44683  42.188   3.977   6.142
 3263POPC   C2B44684  42.041   4.107   6.556
 3263POPC   C3B44685  42.075   3.968   7.008
 3263POPC   C4B44686  42.078   3.988   7.498
 3264POPC   NC344687  26.016   5.386   5.487
 3264POPC   PO444688  26.404   4.803   5.406
 3264POPC   GL144689  26.177   4.921   5.787
 3264POPC   GL244690  26.215   5.247   5.936
 3264POPC   C1A44691  26.075   4.823   6.225
 3264POPC   D2A44692  25.827   4.667   6.579
 3264POPC   C3A44693  25.838   4.995   6.916
 3264POPC   C4A44694  25.937   5.417   7.143
 3264POPC   C1B44695  25.858   5.318   6.201
 3264POPC   C2B44696  25.907   5.443   6.626
 3264POPC   C3B44697  26.343   5.353   6.823
 3264POPC   C4B44698  26.522   5.452   7.246
 3265POPC   NC344699   2.233  20.809   5.425
 3265POPC   PO444700   2.036  20.231   5.250
 3265POPC   GL144701   1.942  20.597   5.752
 3265POPC   GL244702   1.734  20.746   6.020
 3265POPC   C1A44703   2.205  20.806   6.146
 3265POPC   D2A44704   1.924  20.872   6.524
 3265POPC   C3A44705   1.995  20.804   6.976
 3265POPC   C4A44706   2.060  20.641   7.398
 3265POPC   C1B44707   1.925  20.404   6.298
 3265POPC   C2B44708   2.087  20.358   6.728
 3265POPC   C3B44709   1.836  20.295   7.084
 3265POPC   C4B44710   1.533  19.963   7.141
 3266POPC   NC344711  43.432  16.234   5.446
 3266POPC   PO444712  42.971  15.765   5.286
 3266POPC   GL144713  43.088  15.862   5.712
 3266POPC   GL244714  43.016  16.231   5.748
 3266POPC   C1A44715  43.203  15.767   6.164
 3266POPC   D2A44716  42.960  15.768   6.566
 3266POPC   C3A44717  43.136  15.733   7.003
 3266POPC   C4A44718  43.238  15.910   7.405
 3266POPC   C1B44719  43.146  16.306   6.198
 3266POPC   C2B44720  43.124  16.235   6.670
 3266POPC   C3B44721  42.949  16.207   7.098
 3266POPC   C4B44722  42.854  16.309   7.565
 3267POPC   NC344723  20.432   4.532   5.289
 3267POPC   PO444724  20.329   3.871   5.374
 3267POPC   GL144725  20.591   4.169   5.655
 3267POPC   GL244726  20.601   4.540   5.769
 3267POPC   C1A44727  20.515   4.160   6.119
 3267POPC   D2A44728  20.558   3.913   6.485
 3267POPC   C3A44729  20.499   4.182   6.853
 3267POPC   C4A44730  20.755   4.269   7.224
 3267POPC   C1B44731  20.547   4.725   6.209
 3267POPC   C2B44732  20.617   4.674   6.696
 3267POPC   C3B44733  20.716   4.780   7.139
 3267POPC   C4B44734  20.656   4.701   7.590
 3268POPC   NC344735  20.074   3.557   5.584
 3268POPC   PO444736  19.475   3.418   5.326
 3268POPC   GL144737  19.636   3.352   5.784
 3268POPC   GL244738  19.708   3.723   5.925
 3268POPC   C1A44739  19.795   3.346   6.247
 3268POPC   D2A44740  19.650   3.663   6.540
 3268POPC   C3A44741  19.752   3.573   6.982
 3268POPC   C4A44742  20.057   3.420   7.283
 3268POPC   C1B44743  20.089   3.779   6.235
 3268POPC   C2B44744  20.112   3.845   6.701
 3268POPC   C3B44745  19.995   4.034   7.071
 3268POPC   C4B44746  20.013   3.872   7.500
 3269POPC   NC344747  41.006  44.349   5.528
 3269POPC   PO444748  40.511  44.732   5.416
 3269POPC   GL144749  40.658  44.632   5.814
 3269POPC   GL244750  40.536  44.302   5.803
 3269POPC   C1A44751  40.980  44.737   6.151
 3269POPC   D2A44752  41.214  44.701   6.574
 3269POPC   C3A44753  40.935  44.753   6.955
 3269POPC   C4A44754  40.787   0.118   7.177
 3269POPC   C1B44755  40.620  44.386   6.272
 3269POPC   C2B44756  40.487  44.569   6.689
 3269POPC   C3B44757  40.544  44.423   7.119
 3269POPC   C4B44758  40.958  44.294   7.318
 3270POPC   NC344759   9.865  12.242   5.295
 3270POPC   PO444760  10.028  11.546   5.487
 3270POPC   GL144761   9.847  11.931   5.703
 3270POPC   GL244762   9.499  11.899   5.841
 3270POPC   C1A44763   9.925  12.220   6.063
 3270POPC   D2A44764   9.983  12.094   6.524
 3270POPC   C3A44765   9.905  12.367   6.893
 3270POPC   C4A44766   9.483  12.478   7.033
 3270POPC   C1B44767   9.551  11.945   6.260
 3270POPC   C2B44768   9.468  12.139   6.636
 3270POPC   C3B44769   9.646  11.917   6.941
 3270POPC   C4B44770   9.536  11.686   7.291
 3271POPC   NC344771   2.006  31.683   5.117
 3271POPC   PO444772   1.835  31.079   5.508
 3271POPC   GL144773   1.792  31.545   5.644
 3271POPC   GL244774   2.150  31.628   5.647
 3271POPC   C1A44775   1.761  31.802   6.056
 3271POPC   D2A44776   1.739  31.646   6.498
 3271POPC   C3A44777   1.896  31.763   6.926
 3271POPC   C4A44778   1.961  31.494   7.326
 3271POPC   C1B44779   2.181  31.484   6.083
 3271POPC   C2B44780   2.238  31.472   6.545
 3271POPC   C3B44781   2.224  31.280   6.955
 3271POPC   C4B44782   2.228  31.022   7.334
 3272POPC   NC344783  42.952  21.667   5.235
 3272POPC   PO444784  43.446  21.152   5.307
 3272POPC   GL144785  43.251  21.128   5.788
 3272POPC   GL244786  43.008  21.428   5.760
 3272POPC   C1A44787  43.085  21.136   6.273
 3272POPC   D2A44788  43.151  21.581   6.523
 3272POPC   C3A44789  43.159  21.720   6.992
 3272POPC   C4A44790  43.012  21.732   7.463
 3272POPC   C1B44791  42.778  21.521   6.155
 3272POPC   C2B44792  42.683  21.335   6.549
 3272POPC   C3B44793  42.955  21.266   6.856
 3272POPC   C4B44794  42.951  21.280   7.253
 3273POPC   NC344795   0.245   5.554   5.593
 3273POPC   PO444796   0.629   6.057   5.310
 3273POPC   GL144797   0.659   5.911   5.741
 3273POPC   GL244798   0.344   6.039   5.767
 3273POPC   C1A44799   0.530   5.839   6.200
 3273POPC   D2A44800   0.733   5.755   6.610
 3273POPC   C3A44801   0.471   5.891   6.906
 3273POPC   C4A44802   0.581   5.849   7.310
 3273POPC   C1B44803   0.126   6.216   6.085
 3273POPC   C2B44804  44.989   6.253   6.494
 3273POPC   C3B44805   0.164   6.359   6.862
 3273POPC   C4B44806   0.200   6.184   7.238
 3274POPC   NC344807  30.825  36.798   5.369
 3274POPC   PO444808  30.307  37.049   5.413
 3274POPC   GL144809  30.493  36.933   5.787
 3274POPC   GL244810  30.576  36.587   5.829
 3274POPC   C1A44811  30.655  36.942   6.204
 3274POPC   D2A44812  30.533  36.729   6.560
 3274POPC   C3A44813  30.468  36.935   6.936
 3274POPC   C4A44814  30.767  37.160   7.167
 3274POPC   C1B44815  30.850  36.457   6.185
 3274POPC   C2B44816  31.037  36.691   6.529
 3274POPC   C3B44817  30.936  36.661   6.976
 3274POPC   C4B44818  30.730  36.694   7.383
 3275POPC   NC344819  24.546  28.903   5.293
 3275POPC   PO444820  24.039  29.224   5.560
 3275POPC   GL144821  24.469  29.355   5.607
 3275POPC   GL244822  24.664  29.076   5.786
 3275POPC   C1A44823  24.492  29.494   6.029
 3275POPC   D2A44824  24.311  29.432   6.434
 3275POPC   C3A44825  24.426  29.420   6.867
 3275POPC   C4A44826  24.599  29.206   7.229
 3275POPC   C1B44827  24.769  29.124   6.252
 3275POPC   C2B44828  24.785  29.058   6.715
 3275POPC   C3B44829  24.872  28.746   7.045
 3275POPC   C4B44830  24.711  28.759   7.456
 3276POPC   NC344831   5.846   3.489   5.454
 3276POPC   PO444832   5.498   4.094   5.331
 3276POPC   GL144833   5.638   3.873   5.740
 3276POPC   GL244834   5.999   3.911   5.815
 3276POPC   C1A44835   5.686   3.651   6.159
 3276POPC   D2A44836   5.720   3.739   6.614
 3276POPC   C3A44837   5.693   3.421   6.960
 3276POPC   C4A44838   5.899   3.398   7.373
 3276POPC   C1B44839   6.196   3.713   6.199
 3276POPC   C2B44840   6.173   3.446   6.588
 3276POPC   C3B44841   6.184   3.607   7.011
 3276POPC   C4B44842   6.164   3.859   7.401
 3277POPC   NC344843  43.255  18.046   5.439
 3277POPC   PO444844  42.802  18.653   5.505
 3277POPC   GL144845  42.870  18.268   5.704
 3277POPC   GL244846  43.221  18.411   5.801
 3277POPC   C1A44847  42.978  18.068   6.102
 3277POPC   D2A44848  43.158  18.349   6.429
 3277POPC   C3A44849  42.981  18.184   6.836
 3277POPC   C4A44850  42.985  18.085   7.279
 3277POPC   C1B44851  43.484  18.113   6.038
 3277POPC   C2B44852  43.427  17.915   6.427
 3277POPC   C3B44853  43.494  18.177   6.781
 3277POPC   C4B44854  43.461  18.222   7.185
 3278POPC   NC344855  42.868   1.425   5.538
 3278POPC   PO444856  43.059   2.006   5.126
 3278POPC   GL144857  43.122   2.052   5.629
 3278POPC   GL244858  43.097   1.745   5.844
 3278POPC   C1A44859  42.916   2.186   6.052
 3278POPC   D2A44860  42.807   2.031   6.487
 3278POPC   C3A44861  43.079   2.116   6.847
 3278POPC   C4A44862  43.007   2.188   7.286
 3278POPC   C1B44863  43.171   1.519   6.240
 3278POPC   C2B44864  43.250   1.644   6.664
 3278POPC   C3B44865  43.054   1.639   7.066
 3278POPC   C4B44866  43.157   1.745   7.473
 3279POPC   NC344867   9.202  10.839   5.611
 3279POPC   PO444868   9.030  11.461   5.420
 3279POPC   GL144869   8.964  11.291   5.798
 3279POPC   GL244870   9.302  11.280   5.846
 3279POPC   C1A44871   8.938  11.110   6.225
 3279POPC   D2A44872   9.150  11.144   6.630
 3279POPC   C3A44873   8.885  11.160   6.987
 3279POPC   C4A44874   8.588  11.359   7.283
 3279POPC   C1B44875   9.258  11.533   6.193
 3279POPC   C2B44876   9.411  11.590   6.597
 3279POPC   C3B44877   9.170  11.658   6.905
 3279POPC   C4B44878   9.052  11.549   7.273
 3280POPC   NC344879  33.576  15.986   5.486
 3280POPC   PO444880  34.145  15.667   5.532
 3280POPC   GL144881  33.871  15.811   5.872
 3280POPC   GL244882  33.517  15.616   5.818
 3280POPC   C1A44883  33.900  16.144   6.210
 3280POPC   D2A44884  33.894  16.342   6.640
 3280POPC   C3A44885  33.534  16.282   6.884
 3280POPC   C4A44886  33.647  16.056   7.251
 3280POPC   C1B44887  33.585  15.583   6.248
 3280POPC   C2B44888  33.664  15.872   6.578
 3280POPC   C3B44889  33.984  15.869   6.881
 3280POPC   C4B44890  33.980  15.672   7.271
 3281POPC   NC344891  43.228  42.503   5.441
 3281POPC   PO444892  42.717  42.033   5.569
 3281POPC   GL144893  42.995  42.224   5.810
 3281POPC   GL244894  42.870  42.536   5.862
 3281POPC   C1A44895  43.159  42.243   6.219
 3281POPC   D2A44896  43.000  42.474   6.565
 3281POPC   C3A44897  43.023  42.268   6.915
 3281POPC   C4A44898  43.342  42.160   7.199
 3281POPC   C1B44899  43.131  42.735   6.157
 3281POPC   C2B44900  43.424  42.778   6.532
 3281POPC   C3B44901  43.400  42.632   6.969
 3281POPC   C4B44902  43.056  42.580   7.316
 3282POPC   NC344903  10.320  34.253   5.585
 3282POPC   PO444904  10.562  33.681   5.295
 3282POPC   GL144905  10.737  33.705   5.744
 3282POPC   GL244906  10.735  34.057   5.820
 3282POPC   C1A44907  10.698  33.700   6.210
 3282POPC   D2A44908  10.405  33.867   6.522
 3282POPC   C3A44909  10.376  33.778   6.964
 3282POPC   C4A44910  10.343  33.484   7.309
 3282POPC   C1B44911  10.650  34.238   6.231
 3282POPC   C2B44912  10.594  34.334   6.670
 3282POPC   C3B44913  10.661  34.171   7.084
 3282POPC   C4B44914  10.732  34.089   7.589
 3283POPC   NC344915  19.503   6.614   5.459
 3283POPC   PO444916  20.137   6.853   5.356
 3283POPC   GL144917  19.974   6.626   5.734
 3283POPC   GL244918  19.725   6.808   5.855
 3283POPC   C1A44919  19.865   6.472   6.178
 3283POPC   D2A44920  19.811   6.752   6.556
 3283POPC   C3A44921  19.763   6.574   6.939
 3283POPC   C4A44922  19.645   6.351   7.258
 3283POPC   C1B44923  19.461   6.909   6.212
 3283POPC   C2B44924  19.415   7.136   6.581
 3283POPC   C3B44925  19.549   7.051   6.991
 3283POPC   C4B44926  19.414   6.798   7.345
 3284POPC   NC344927   4.835  18.729   5.466
 3284POPC   PO444928   5.000  18.049   5.393
 3284POPC   GL144929   5.183  18.111   5.772
 3284POPC   GL244930   5.157  18.462   5.776
 3284POPC   C1A44931   5.215  18.208   6.205
 3284POPC   D2A44932   5.389  18.227   6.575
 3284POPC   C3A44933   5.047  18.259   6.842
 3284POPC   C4A44934   4.990  18.009   7.184
 3284POPC   C1B44935   4.811  18.482   6.085
 3284POPC   C2B44936   4.728  18.579   6.524
 3284POPC   C3B44937   4.585  18.488   6.940
 3284POPC   C4B44938   4.796  18.444   7.295
 3285POPC   NC344939  32.185  27.516   5.489
 3285POPC   PO444940  32.559  28.114   5.383
 3285POPC   GL144941  32.549  27.768   5.777
 3285POPC   GL244942  32.227  27.655   5.971
 3285POPC   C1A44943  32.630  27.670   6.260
 3285POPC   D2A44944  32.322  27.731   6.610
 3285POPC   C3A44945  32.280  27.660   7.030
 3285POPC   C4A44946  31.890  27.703   7.243
 3285POPC   C1B44947  32.250  27.317   6.306
 3285POPC   C2B44948  32.122  27.244   6.753
 3285POPC   C3B44949  32.038  27.218   7.198
 3285POPC   C4B44950  32.248  27.455   7.542
 3286POPC   NC344951  29.442  39.964   5.443
 3286POPC   PO444952  30.113  39.734   5.576
 3286POPC   GL144953  29.814  39.839   5.867
 3286POPC   GL244954  29.730  39.523   5.896
 3286POPC   C1A44955  29.692  40.017   6.290
 3286POPC   D2A44956  29.540  39.946   6.718
 3286POPC   C3A44957  29.834  40.101   6.996
 3286POPC   C4A44958  29.886  40.204   7.428
 3286POPC   C1B44959  29.830  39.536   6.335
 3286POPC   C2B44960  29.908  39.597   6.764
 3286POPC   C3B44961  29.917  39.627   7.178
 3286POPC   C4B44962  30.074  39.742   7.539
 3287POPC   NC344963   6.610  21.791   5.492
 3287POPC   PO444964   6.928  22.268   5.201
 3287POPC   GL144965   6.809  22.232   5.688
 3287POPC   GL244966   6.481  22.087   5.870
 3287POPC   C1A44967   6.847  22.352   6.143
 3287POPC   D2A44968   7.043  22.260   6.552
 3287POPC   C3A44969   6.907  22.119   6.940
 3287POPC   C4A44970   6.783  22.317   7.315
 3287POPC   C1B44971   6.624  21.872   6.270
 3287POPC   C2B44972   6.496  21.974   6.691
 3287POPC   C3B44973   6.415  22.351   6.949
 3287POPC   C4B44974   6.277  22.382   7.405
 3288POPC   NC344975  42.517  17.548   5.231
 3288POPC   PO444976  41.905  17.481   5.493
 3288POPC   GL144977  42.284  17.616   5.712
 3288POPC   GL244978  42.554  17.375   5.788
 3288POPC   C1A44979  42.448  17.745   6.139
 3288POPC   D2A44980  42.421  17.531   6.565
 3288POPC   C3A44981  42.291  17.728   6.964
 3288POPC   C4A44982  42.619  17.732   7.280
 3288POPC   C1B44983  42.203  17.285   6.126
 3288POPC   C2B44984  42.132  17.095   6.562
 3288POPC   C3B44985  42.176  17.214   7.007
 3288POPC   C4B44986  42.541  17.205   7.297
 3289POPC   NC344987  42.769   1.628   5.084
 3289POPC   PO444988  43.215   1.158   5.392
 3289POPC   GL144989  43.220   1.165   5.826
 3289POPC   GL244990  43.515   1.399   5.834
 3289POPC   C1A44991  42.988   1.037   6.216
 3289POPC   D2A44992  42.755   1.003   6.614
 3289POPC   C3A44993  43.013   1.113   6.981
 3289POPC   C4A44994  43.198   1.233   7.398
 3289POPC   C1B44995  43.573   1.105   6.188
 3289POPC   C2B44996  43.383   1.099   6.593
 3289POPC   C3B44997  43.483   1.313   6.969
 3289POPC   C4B44998  43.648   1.485   7.298
 3290POPC   NC344999  26.975  28.729   5.123
 3290POPC   PO445000  26.699  28.265   5.533
 3290POPC   GL145001  26.950  28.570   5.757
 3290POPC   GL245002  26.703  28.772   5.919
 3290POPC   C1A45003  27.059  28.474   6.202
 3290POPC   D2A45004  26.943  28.253   6.606
 3290POPC   C3A45005  27.145  28.308   7.032
 3290POPC   C4A45006  27.112  28.143   7.454
 3290POPC   C1B45007  26.604  28.662   6.362
 3290POPC   C2B45008  26.619  28.559   6.828
 3290POPC   C3B45009  26.570  28.680   7.250
 3290POPC   C4B45010  26.621  28.833   7.686
 3291POPC   NC345011  12.585  23.340   5.357
 3291POPC   PO445012  11.896  23.032   5.459
 3291POPC   GL145013  12.047  23.002   5.847
 3291POPC   GL245014  12.373  22.857   5.764
 3291POPC   C1A45015  12.011  23.083   6.272
 3291POPC   D2A45016  12.261  23.042   6.628
 3291POPC   C3A45017  12.062  22.758   6.883
 3291POPC   C4A45018  12.009  22.925   7.259
 3291POPC   C1B45019  12.522  22.919   6.173
 3291POPC   C2B45020  12.489  22.608   6.512
 3291POPC   C3B45021  12.569  22.717   6.924
 3291POPC   C4B45022  12.357  22.461   7.232
 3292POPC   NC345023  19.221   1.165   5.291
 3292POPC   PO445024  18.579   0.987   5.484
 3292POPC   GL145025  18.952   1.077   5.727
 3292POPC   GL245026  19.088   1.433   5.746
 3292POPC   C1A45027  19.220   1.092   6.094
 3292POPC   D2A45028  19.495   1.110   6.456
 3292POPC   C3A45029  19.251   1.197   6.828
 3292POPC   C4A45030  19.049   1.077   7.204
 3292POPC   C1B45031  19.279   1.586   6.199
 3292POPC   C2B45032  19.181   1.683   6.676
 3292POPC   C3B45033  19.211   1.584   7.170
 3292POPC   C4B45034  19.439   1.538   7.601
 3293POPC   NC345035  40.130  44.480   5.368
 3293POPC   PO445036  40.090   0.144   5.517
 3293POPC   GL145037  40.222  44.930   5.888
 3293POPC   GL245038  40.111  44.592   5.858
 3293POPC   C1A45039  40.034  44.819   6.306
 3293POPC   D2A45040  39.841  44.474   6.539
 3293POPC   C3A45041  40.026  44.509   6.938
 3293POPC   C4A45042  39.894  44.588   7.332
 3293POPC   C1B45043  40.138  44.265   6.168
 3293POPC   C2B45044  40.286  44.110   6.571
 3293POPC   C3B45045  40.211  44.043   6.994
 3293POPC   C4B45046  40.006  44.103   7.384
 3294POPC   NC345047  37.214  26.997   5.357
 3294POPC   PO445048  36.938  26.404   5.442
 3294POPC   GL145049  36.757  26.558   5.793
 3294POPC   GL245050  36.789  26.931   5.769
 3294POPC   C1A45051  36.886  26.655   6.218
 3294POPC   D2A45052  36.958  26.975   6.538
 3294POPC   C3A45053  37.069  26.746   6.917
 3294POPC   C4A45054  36.821  26.434   7.172
 3294POPC   C1B45055  36.543  27.081   6.143
 3294POPC   C2B45056  36.458  27.223   6.568
 3294POPC   C3B45057  36.632  27.038   6.975
 3294POPC   C4B45058  36.977  27.077   7.290
 3295POPC   NC345059  17.010  32.600   5.265
 3295POPC   PO445060  16.648  33.190   5.166
 3295POPC   GL145061  16.614  33.042   5.660
 3295POPC   GL245062  16.515  33.308   5.874
 3295POPC   C1A45063  16.764  32.895   6.080
 3295POPC   D2A45064  16.886  32.900   6.522
 3295POPC   C3A45065  16.629  32.798   6.887
 3295POPC   C4A45066  16.708  32.631   7.317
 3295POPC   C1B45067  16.620  33.478   6.279
 3295POPC   C2B45068  16.587  33.313   6.698
 3295POPC   C3B45069  16.562  33.475   7.129
 3295POPC   C4B45070  16.537  33.344   7.539
 3296POPC   NC345071  14.846  13.447   5.404
 3296POPC   PO445072  14.286  13.816   5.452
 3296POPC   GL145073  14.340  13.600   5.824
 3296POPC   GL245074  14.628  13.359   5.858
 3296POPC   C1A45075  14.147  13.772   6.191
 3296POPC   D2A45076  14.209  13.986   6.573
 3296POPC   C3A45077  14.183  13.710   6.943
 3296POPC   C4A45078  14.477  13.646   7.265
 3296POPC   C1B45079  14.634  13.540   6.287
 3296POPC   C2B45080  14.662  13.617   6.738
 3296POPC   C3B45081  14.945  13.544   7.073
 3296POPC   C4B45082  14.940  13.547   7.519
 3297POPC   NC345083  33.106  42.420   5.383
 3297POPC   PO445084  32.704  42.801   5.450
 3297POPC   GL145085  32.943  42.657   5.849
 3297POPC   GL245086  33.137  42.339   5.913
 3297POPC   C1A45087  32.990  42.625   6.328
 3297POPC   D2A45088  33.096  42.485   6.777
 3297POPC   C3A45089  32.801  42.630   7.125
 3297POPC   C4A45090  32.688  42.685   7.585
 3297POPC   C1B45091  33.373  42.268   6.329
 3297POPC   C2B45092  33.489  42.145   6.771
 3297POPC   C3B45093  33.346  42.230   7.218
 3297POPC   C4B45094  33.331  42.249   7.712
 3298POPC   NC345095   2.404  26.819   5.410
 3298POPC   PO445096   2.956  26.715   5.404
 3298POPC   GL145097   2.874  26.903   5.824
 3298POPC   GL245098   2.550  26.796   5.956
 3298POPC   C1A45099   2.891  27.054   6.290
 3298POPC   D2A45100   2.913  26.827   6.707
 3298POPC   C3A45101   2.577  26.869   7.002
 3298POPC   C4A45102   2.584  27.069   7.395
 3298POPC   C1B45103   2.856  26.553   6.245
 3298POPC   C2B45104   3.166  26.406   6.564
 3298POPC   C3B45105   3.173  26.474   7.004
 3298POPC   C4B45106   2.991  26.766   7.285
 3299POPC   NC345107  13.170  38.004   5.727
 3299POPC   PO445108  13.622  38.295   5.276
 3299POPC   GL145109  13.528  38.497   5.719
 3299POPC   GL245110  13.733  38.776   5.729
 3299POPC   C1A45111  13.361  38.417   6.168
 3299POPC   D2A45112  13.307  38.039   6.468
 3299POPC   C3A45113  13.466  38.118   6.890
 3299POPC   C4A45114  13.388  38.342   7.306
 3299POPC   C1B45115  13.879  38.509   6.097
 3299POPC   C2B45116  13.712  38.463   6.542
 3299POPC   C3B45117  13.718  38.567   6.979
 3299POPC   C4B45118  13.889  38.244   7.207
 3300POPC   NC345119  33.412  15.239   5.445
 3300POPC   PO445120  33.727  14.717   5.652
 3300POPC   GL145121  33.800  14.974   5.976
 3300POPC   GL245122  33.909  15.282   5.844
 3300POPC   C1A45123  33.734  15.108   6.394
 3300POPC   D2A45124  33.740  15.385   6.740
 3300POPC   C3A45125  33.630  15.176   7.099
 3300POPC   C4A45126  33.723  14.855   7.374
 3300POPC   C1B45127  34.174  15.300   6.220
 3300POPC   C2B45128  34.240  15.390   6.667
 3300POPC   C3B45129  34.150  15.211   7.100
 3300POPC   C4B45130  34.019  15.252   7.553
 3301POPC   NC345131   2.349  32.057   5.460
 3301POPC   PO445132   2.954  32.166   5.435
 3301POPC   GL145133   2.906  32.336   5.839
 3301POPC   GL245134   2.597  32.176   5.907
 3301POPC   C1A45135   2.979  32.191   6.286
 3301POPC   D2A45136   3.062  31.946   6.665
 3301POPC   C3A45137   3.134  32.222   7.012
 3301POPC   C4A45138   3.010  32.586   7.298
 3301POPC   C1B45139   2.588  32.508   6.219
 3301POPC   C2B45140   2.850  32.583   6.587
 3301POPC   C3B45141   2.669  32.258   6.815
 3301POPC   C4B45142   2.653  32.250   7.242
 3302POPC   NC345143  39.754  26.319   5.465
 3302POPC   PO445144  40.127  26.982   5.441
 3302POPC   GL145145  40.205  26.621   5.721
 3302POPC   GL245146  40.145  26.886   5.950
 3302POPC   C1A45147  40.144  26.453   6.176
 3302POPC   D2A45148  40.012  26.672   6.545
 3302POPC   C3A45149  39.903  26.463   6.934
 3302POPC   C4A45150  40.050  26.600   7.320
 3302POPC   C1B45151  39.815  27.092   6.156
 3302POPC   C2B45152  39.611  27.043   6.535
 3302POPC   C3B45153  39.767  26.967   6.968
 3302POPC   C4B45154  39.692  26.933   7.442
 3303POPC   NC345155  32.789  10.383   5.486
 3303POPC   PO445156  33.443  10.237   5.463
 3303POPC   GL145157  33.252  10.501   5.823
 3303POPC   GL245158  32.897  10.638   5.900
 3303POPC   C1A45159  33.176  10.431   6.260
 3303POPC   D2A45160  32.977  10.368   6.614
 3303POPC   C3A45161  33.219  10.310   6.938
 3303POPC   C4A45162  33.221  10.571   7.277
 3303POPC   C1B45163  32.709  10.695   6.289
 3303POPC   C2B45164  32.826  10.878   6.676
 3303POPC   C3B45165  32.778  10.635   7.034
 3303POPC   C4B45166  32.779  10.175   7.173
 3304POPC   NC345167  12.161  36.756   5.326
 3304POPC   PO445168  11.947  37.366   5.318
 3304POPC   GL145169  12.146  37.169   5.772
 3304POPC   GL245170  12.223  36.807   5.819
 3304POPC   C1A45171  12.171  37.000   6.278
 3304POPC   D2A45172  12.305  36.836   6.698
 3304POPC   C3A45173  12.116  36.948   7.100
 3304POPC   C4A45174  11.989  37.019   7.511
 3304POPC   C1B45175  11.903  36.608   6.075
 3304POPC   C2B45176  11.756  36.608   6.504
 3304POPC   C3B45177  11.640  36.466   6.902
 3304POPC   C4B45178  11.739  36.627   7.299
 3305POPC   NC345179   6.751  39.206   5.102
 3305POPC   PO445180   6.398  39.127   5.674
 3305POPC   GL145181   6.599  39.413   5.941
 3305POPC   GL245182   6.674  39.686   5.706
 3305POPC   C1A45183   6.554  39.469   6.402
 3305POPC   D2A45184   6.392  39.289   6.788
 3305POPC   C3A45185   6.721  39.097   7.026
 3305POPC   C4A45186   6.810  39.065   7.478
 3305POPC   C1B45187   6.825  39.839   6.125
 3305POPC   C2B45188   6.821  39.881   6.572
 3305POPC   C3B45189   6.547  39.777   6.919
 3305POPC   C4B45190   6.694  39.551   7.261
 3306POPC   NC345191  43.371  20.045   5.499
 3306POPC   PO445192  42.873  19.651   5.444
 3306POPC   GL145193  43.086  19.761   5.843
 3306POPC   GL245194  43.453  19.748   5.909
 3306POPC   C1A45195  43.077  19.915   6.289
 3306POPC   D2A45196  42.940  19.982   6.733
 3306POPC   C3A45197  42.987  19.623   7.004
 3306POPC   C4A45198  43.249  19.541   7.339
 3306POPC   C1B45199  43.596  19.970   6.254
 3306POPC   C2B45200  43.517  20.076   6.692
 3306POPC   C3B45201  43.345  19.995   7.093
 3306POPC   C4B45202  43.404  20.003   7.561
 3307POPC   NC345203   6.638   0.639   5.524
 3307POPC   PO445204   6.288   0.022   5.495
 3307POPC   GL145205   6.445   0.127   5.881
 3307POPC   GL245206   6.781   0.176   5.773
 3307POPC   C1A45207   6.476   0.367   6.266
 3307POPC   D2A45208   6.788   0.438   6.583
 3307POPC   C3A45209   6.755   0.619   6.999
 3307POPC   C4A45210   6.848   0.632   7.464
 3307POPC   C1B45211   6.948   0.111   6.176
 3307POPC   C2B45212   7.058   0.002   6.579
 3307POPC   C3B45213   6.891   0.082   6.976
 3307POPC   C4B45214   6.546   0.232   7.260
 3308POPC   NC345215   6.775   3.986   5.495
 3308POPC   PO445216   6.293   3.530   5.559
 3308POPC   GL145217   6.469   3.311   5.876
 3308POPC   GL245218   6.649   3.629   5.934
 3308POPC   C1A45219   6.447   3.041   6.243
 3308POPC   D2A45220   6.477   2.977   6.691
 3308POPC   C3A45221   6.632   3.326   6.971
 3308POPC   C4A45222   6.633   3.751   7.240
 3308POPC   C1B45223   6.634   3.498   6.365
 3308POPC   C2B45224   6.611   3.756   6.716
 3308POPC   C3B45225   7.019   3.704   6.927
 3308POPC   C4B45226   7.152   3.875   7.334
 3309POPC   NC345227  31.731  34.878   5.404
 3309POPC   PO445228  31.575  34.307   5.218
 3309POPC   GL145229  31.617  34.478   5.717
 3309POPC   GL245230  31.880  34.717   5.880
 3309POPC   C1A45231  31.532  34.460   6.174
 3309POPC   D2A45232  31.487  34.386   6.631
 3309POPC   C3A45233  31.495  34.753   6.937
 3309POPC   C4A45234  31.398  34.673   7.379
 3309POPC   C1B45235  31.955  34.688   6.327
 3309POPC   C2B45236  31.953  34.578   6.745
 3309POPC   C3B45237  31.834  34.431   7.140
 3309POPC   C4B45238  31.874  34.819   7.318
 3310POPC   NC345239  32.670  14.570   5.428
 3310POPC   PO445240  32.129  14.091   5.399
 3310POPC   GL145241  32.309  14.333   5.723
 3310POPC   GL245242  32.489  14.056   5.843
 3310POPC   C1A45243  32.257  14.679   6.052
 3310POPC   D2A45244  32.385  14.836   6.488
 3310POPC   C3A45245  32.189  14.578   6.822
 3310POPC   C4A45246  32.165  14.569   7.266
 3310POPC   C1B45247  32.325  14.207   6.241
 3310POPC   C2B45248  32.121  14.103   6.618
 3310POPC   C3B45249  32.228  14.095   7.055
 3310POPC   C4B45250  32.446  14.176   7.436
 3311POPC   NC345251  40.293  33.563   5.412
 3311POPC   PO445252  39.754  33.988   5.645
 3311POPC   GL145253  40.103  33.940   5.855
 3311POPC   GL245254  40.102  33.612   5.874
 3311POPC   C1A45255  40.098  33.912   6.305
 3311POPC   D2A45256  40.185  33.877   6.735
 3311POPC   C3A45257  39.910  33.972   7.078
 3311POPC   C4A45258  39.993  33.974   7.554
 3311POPC   C1B45259  40.279  33.427   6.239
 3311POPC   C2B45260  40.242  33.304   6.669
 3311POPC   C3B45261  40.190  33.460   7.095
 3311POPC   C4B45262  39.782  33.560   7.329
 3312POPC   NC345263  16.167  24.122   5.159
 3312POPC   PO445264  16.310  23.463   5.274
 3312POPC   GL145265  16.136  23.584   5.690
 3312POPC   GL245266  15.906  23.827   5.593
 3312POPC   C1A45267  16.075  23.463   6.154
 3312POPC   D2A45268  16.305  23.352   6.558
 3312POPC   C3A45269  16.053  23.428   6.943
 3312POPC   C4A45270  15.903  23.658   7.268
 3312POPC   C1B45271  15.918  23.961   6.071
 3312POPC   C2B45272  15.923  24.189   6.507
 3312POPC   C3B45273  15.923  24.060   6.946
 3312POPC   C4B45274  15.518  24.013   7.162
 3313POPC   NC345275  25.484   6.173   5.175
 3313POPC   PO445276  25.190   5.752   5.486
 3313POPC   GL145277  25.266   5.736   5.897
 3313POPC   GL245278  25.512   5.450   5.854
 3313POPC   C1A45279  25.165   5.920   6.336
 3313POPC   D2A45280  24.891   5.885   6.727
 3313POPC   C3A45281  25.105   5.982   7.141
 3313POPC   C4A45282  25.301   5.902   7.526
 3313POPC   C1B45283  25.346   5.428   6.287
 3313POPC   C2B45284  25.350   5.581   6.698
 3313POPC   C3B45285  25.482   5.650   7.112
 3313POPC   C4B45286  25.580   5.484   7.510
 3314POPC   NC345287  20.755  40.911   5.374
 3314POPC   PO445288  20.441  40.333   5.446
 3314POPC   GL145289  20.573  40.650   5.778
 3314POPC   GL245290  20.362  40.936   5.743
 3314POPC   C1A45291  20.810  40.743   6.168
 3314POPC   D2A45292  21.009  40.715   6.588
 3314POPC   C3A45293  20.839  40.648   7.015
 3314POPC   C4A45294  21.037  40.370   7.309
 3314POPC   C1B45295  20.347  40.930   6.211
 3314POPC   C2B45296  20.555  40.920   6.637
 3314POPC   C3B45297  20.365  40.875   7.073
 3314POPC   C4B45298  20.306  41.206   7.353
 3315POPC   NC345299   8.861  34.829   5.421
 3315POPC   PO445300   8.925  34.156   5.335
 3315POPC   GL145301   9.002  34.364   5.771
 3315POPC   GL245302   9.195  34.660   5.803
 3315POPC   C1A45303   9.105  34.288   6.205
 3315POPC   D2A45304   9.188  34.448   6.618
 3315POPC   C3A45305   8.892  34.603   6.931
 3315POPC   C4A45306   8.819  34.515   7.330
 3315POPC   C1B45307   8.971  34.795   6.170
 3315POPC   C2B45308   9.164  34.979   6.530
 3315POPC   C3B45309   9.333  34.848   6.914
 3315POPC   C4B45310   9.195  34.903   7.304
 3316POPC   NC345311  14.983  23.434   5.604
 3316POPC   PO445312  14.896  24.121   5.416
 3316POPC   GL145313  15.149  23.984   5.754
 3316POPC   GL245314  15.408  23.723   5.729
 3316POPC   C1A45315  15.079  23.789   6.158
 3316POPC   D2A45316  14.997  23.626   6.565
 3316POPC   C3A45317  15.052  23.891   6.912
 3316POPC   C4A45318  15.032  23.894   7.346
 3316POPC   C1B45319  15.560  23.597   6.153
 3316POPC   C2B45320  15.770  23.650   6.560
 3316POPC   C3B45321  15.535  23.566   6.938
 3316POPC   C4B45322  15.368  23.532   7.356
 3317POPC   NC345323  10.589  43.198   5.285
 3317POPC   PO445324  10.200  42.669   5.446
 3317POPC   GL145325  10.433  42.881   5.809
 3317POPC   GL245326  10.652  43.222   5.804
 3317POPC   C1A45327  10.522  43.000   6.243
 3317POPC   D2A45328  10.622  43.277   6.581
 3317POPC   C3A45329  10.470  43.172   6.979
 3317POPC   C4A45330  10.465  42.781   7.177
 3317POPC   C1B45331  10.962  43.297   6.156
 3317POPC   C2B45332  11.032  43.562   6.514
 3317POPC   C3B45333  11.096  43.408   6.905
 3317POPC   C4B45334  10.855  43.342   7.270
 3318POPC   NC345335   7.828  14.663   5.382
 3318POPC   PO445336   8.428  14.348   5.514
 3318POPC   GL145337   8.244  14.348   5.888
 3318POPC   GL245338   7.926  14.472   5.857
 3318POPC   C1A45339   8.118  14.327   6.321
 3318POPC   D2A45340   8.005  14.610   6.630
 3318POPC   C3A45341   8.108  14.538   6.998
 3318POPC   C4A45342   8.362  14.333   7.292
 3318POPC   C1B45343   7.694  14.609   6.231
 3318POPC   C2B45344   7.540  14.460   6.605
 3318POPC   C3B45345   7.698  14.141   6.860
 3318POPC   C4B45346   7.864  14.175   7.263
 3319POPC   NC345347  27.191  25.271   5.440
 3319POPC   PO445348  27.580  25.751   5.455
 3319POPC   GL145349  27.476  25.761   5.863
 3319POPC   GL245350  27.347  25.433   5.931
 3319POPC   C1A45351  27.737  25.584   6.219
 3319POPC   D2A45352  27.597  25.419   6.623
 3319POPC   C3A45353  27.846  25.437   6.999
 3319POPC   C4A45354  27.982  25.128   7.315
 3319POPC   C1B45355  27.241  25.684   6.311
 3319POPC   C2B45356  27.361  25.866   6.727
 3319POPC   C3B45357  27.370  25.604   7.109
 3319POPC   C4B45358  27.156  25.294   7.350
 3320POPC   NC345359  14.464  36.472   5.253
 3320POPC   PO445360  14.101  35.947   5.444
 3320POPC   GL145361  14.331  36.078   5.824
 3320POPC   GL245362  14.345  36.444   5.759
 3320POPC   C1A45363  14.450  35.903   6.260
 3320POPC   D2A45364  14.733  35.794   6.614
 3320POPC   C3A45365  14.575  35.998   6.977
 3320POPC   C4A45366  14.261  35.846   7.214
 3320POPC   C1B45367  14.535  36.411   6.165
 3320POPC   C2B45368  14.689  36.323   6.581
 3320POPC   C3B45369  14.717  36.510   6.989
 3320POPC   C4B45370  14.657  36.374   7.424
 3321POPC   NC345371   1.878  44.701   5.437
 3321POPC   PO445372   1.710   0.331   5.642
 3321POPC   GL145373   1.941  44.975   5.888
 3321POPC   GL245374   2.241  44.733   5.797
 3321POPC   C1A45375   1.987  44.786   6.307
 3321POPC   D2A45376   1.648  44.722   6.595
 3321POPC   C3A45377   1.721  44.651   7.000
 3321POPC   C4A45378   1.620  44.321   7.261
 3321POPC   C1B45379   2.354  44.443   6.131
 3321POPC   C2B45380   2.450  44.576   6.534
 3321POPC   C3B45381   2.205  44.727   6.854
 3321POPC   C4B45382   2.138  44.490   7.254
 3322POPC   NC345383  22.633  42.174   5.364
 3322POPC   PO445384  23.040  42.607   5.340
 3322POPC   GL145385  22.834  42.504   5.721
 3322POPC   GL245386  22.928  42.785   5.874
 3322POPC   C1A45387  22.923  42.310   6.149
 3322POPC   D2A45388  22.716  42.230   6.580
 3322POPC   C3A45389  22.852  42.134   7.024
 3322POPC   C4A45390  22.742  42.241   7.471
 3322POPC   C1B45391  22.714  42.757   6.251
 3322POPC   C2B45392  22.855  42.707   6.665
 3322POPC   C3B45393  22.908  42.632   7.108
 3322POPC   C4B45394  22.981  42.692   7.552
 3323POPC   NC345395  44.122  22.358   5.277
 3323POPC   PO445396  44.776  22.256   5.328
 3323POPC   GL145397  44.502  22.238   5.692
 3323POPC   GL245398  44.601  21.921   5.832
 3323POPC   C1A45399  44.620  22.339   6.139
 3323POPC   D2A45400  44.778  22.114   6.506
 3323POPC   C3A45401  44.565  22.175   6.906
 3323POPC   C4A45402  44.726  22.364   7.310
 3323POPC   C1B45403  44.362  21.894   6.223
 3323POPC   C2B45404  44.124  21.895   6.612
 3323POPC   C3B45405  44.231  21.776   7.041
 3323POPC   C4B45406  44.614  21.861   7.302
 3324POPC   NC345407  19.969  40.355   5.417
 3324POPC   PO445408  19.535  40.696   5.231
 3324POPC   GL145409  19.574  40.560   5.678
 3324POPC   GL245410  19.833  40.827   5.852
 3324POPC   C1A45411  19.451  40.650   6.132
 3324POPC   D2A45412  19.632  40.887   6.457
 3324POPC   C3A45413  19.578  40.923   6.878
 3324POPC   C4A45414  19.834  40.779   7.239
 3324POPC   C1B45415  19.905  41.203   6.182
 3324POPC   C2B45416  19.743  41.381   6.625
 3324POPC   C3B45417  19.858  41.285   7.097
 3324POPC   C4B45418  19.825  41.178   7.569
 3325POPC   NC345419  25.090  30.490   5.481
 3325POPC   PO445420  25.667  30.846   5.501
 3325POPC   GL145421  25.432  30.611   5.854
 3325POPC   GL245422  25.071  30.778   5.912
 3325POPC   C1A45423  25.291  30.520   6.311
 3325POPC   D2A45424  25.058  30.699   6.694
 3325POPC   C3A45425  25.137  30.518   7.129
 3325POPC   C4A45426  25.489  30.682   7.405
 3325POPC   C1B45427  25.369  31.012   6.168
 3325POPC   C2B45428  25.645  30.881   6.500
 3325POPC   C3B45429  25.563  30.897   6.936
 3325POPC   C4B45430  25.183  31.017   7.152
 3326POPC   NC345431  33.265  34.270   5.526
 3326POPC   PO445432  33.091  33.618   5.535
 3326POPC   GL145433  32.993  33.923   5.891
 3326POPC   GL245434  32.831  34.218   5.807
 3326POPC   C1A45435  33.056  33.900   6.353
 3326POPC   D2A45436  32.837  33.623   6.675
 3326POPC   C3A45437  33.021  33.715   7.042
 3326POPC   C4A45438  33.382  33.918   7.033
 3326POPC   C1B45439  32.774  34.347   6.208
 3326POPC   C2B45440  33.009  34.376   6.576
 3326POPC   C3B45441  32.961  34.224   7.006
 3326POPC   C4B45442  33.088  34.046   7.436
 3327POPC   NC345443  28.903  25.398   5.606
 3327POPC   PO445444  29.367  25.091   5.568
 3327POPC   GL145445  29.234  25.236   5.971
 3327POPC   GL245446  28.907  25.104   6.028
 3327POPC   C1A45447  29.238  25.378   6.406
 3327POPC   D2A45448  29.558  25.364   6.737
 3327POPC   C3A45449  29.382  25.331   7.177
 3327POPC   C4A45450  29.288  25.575   7.579
 3327POPC   C1B45451  29.134  24.878   6.349
 3327POPC   C2B45452  29.288  24.928   6.755
 3327POPC   C3B45453  29.121  24.873   7.154
 3327POPC   C4B45454  28.784  24.787   7.448
 3328POPC   NC345455  17.629   6.216   5.505
 3328POPC   PO445456  17.206   5.692   5.415
 3328POPC   GL145457  17.438   5.639   5.773
 3328POPC   GL245458  17.656   5.347   5.750
 3328POPC   C1A45459  17.416   5.846   6.169
 3328POPC   D2A45460  17.168   5.757   6.532
 3328POPC   C3A45461  17.365   5.838   6.918
 3328POPC   C4A45462  17.598   5.953   7.284
 3328POPC   C1B45463  17.764   5.441   6.151
 3328POPC   C2B45464  17.664   5.597   6.548
 3328POPC   C3B45465  17.665   5.430   6.940
 3328POPC   C4B45466  17.829   5.498   7.313
 3329POPC   NC345467  40.571  10.704   5.569
 3329POPC   PO445468  41.017  10.313   5.420
 3329POPC   GL145469  40.958  10.406   5.826
 3329POPC   GL245470  40.634  10.288   5.868
 3329POPC   C1A45471  41.157  10.597   6.172
 3329POPC   D2A45472  41.271  10.474   6.562
 3329POPC   C3A45473  41.061  10.425   6.926
 3329POPC   C4A45474  40.943  10.720   7.174
 3329POPC   C1B45475  40.693  10.443   6.317
 3329POPC   C2B45476  40.583  10.523   6.763
 3329POPC   C3B45477  40.449  10.703   7.153
 3329POPC   C4B45478  40.297  10.474   7.547
 3330POPC   NC345479  41.073   4.817   5.422
 3330POPC   PO445480  40.479   5.159   5.435
 3330POPC   GL145481  40.664   4.895   5.750
 3330POPC   GL245482  40.897   5.140   5.817
 3330POPC   C1A45483  40.774   4.814   6.198
 3330POPC   D2A45484  40.748   5.139   6.515
 3330POPC   C3A45485  40.466   5.094   6.849
 3330POPC   C4A45486  40.602   5.150   7.251
 3330POPC   C1B45487  40.574   5.395   6.102
 3330POPC   C2B45488  40.456   5.567   6.542
 3330POPC   C3B45489  40.684   5.550   6.955
 3330POPC   C4B45490  40.986   5.482   7.297
 3331POPC   NC345491   8.140   3.680   5.198
 3331POPC   PO445492   8.008   4.334   5.389
 3331POPC   GL145493   8.192   4.251   5.779
 3331POPC   GL245494   8.441   4.477   5.817
 3331POPC   C1A45495   8.342   4.233   6.220
 3331POPC   D2A45496   8.243   4.480   6.578
 3331POPC   C3A45497   8.242   4.225   6.939
 3331POPC   C4A45498   8.474   4.175   7.278
 3331POPC   C1B45499   8.595   4.695   6.187
 3331POPC   C2B45500   8.664   4.823   6.608
 3331POPC   C3B45501   8.579   4.623   6.973
 3331POPC   C4B45502   8.704   4.593   7.401
 3332POPC   NC345503  42.873  40.780   5.344
 3332POPC   PO445504  43.295  41.218   5.612
 3332POPC   GL145505  42.928  41.071   5.780
 3332POPC   GL245506  43.064  40.726   5.801
 3332POPC   C1A45507  42.874  41.057   6.222
 3332POPC   D2A45508  43.144  41.033   6.581
 3332POPC   C3A45509  42.947  41.105   6.973
 3332POPC   C4A45510  43.146  40.919   7.354
 3332POPC   C1B45511  42.930  40.539   6.166
 3332POPC   C2B45512  42.821  40.629   6.575
 3332POPC   C3B45513  42.965  40.583   6.994
 3332POPC   C4B45514  42.910  40.426   7.416
 3333POPC   NC345515  19.454  33.916   5.431
 3333POPC   PO445516  18.785  33.583   5.387
 3333POPC   GL145517  19.033  33.735   5.713
 3333POPC   GL245518  19.283  33.489   5.671
 3333POPC   C1A45519  18.978  33.960   6.128
 3333POPC   D2A45520  18.794  33.882   6.551
 3333POPC   C3A45521  18.995  33.885   6.963
 3333POPC   C4A45522  18.840  33.580   7.225
 3333POPC   C1B45523  19.511  33.583   6.061
 3333POPC   C2B45524  19.526  33.561   6.523
 3333POPC   C3B45525  19.600  33.685   6.940
 3333POPC   C4B45526  19.369  33.658   7.280
 3334POPC   NC345527   8.400   8.616   5.470
 3334POPC   PO445528   8.291   7.986   5.485
 3334POPC   GL145529   8.016   8.147   5.758
 3334POPC   GL245530   8.267   8.348   5.906
 3334POPC   C1A45531   7.907   8.044   6.168
 3334POPC   D2A45532   7.801   8.204   6.584
 3334POPC   C3A45533   8.102   8.164   6.867
 3334POPC   C4A45534   7.978   8.204   7.266
 3334POPC   C1B45535   8.373   8.234   6.334
 3334POPC   C2B45536   8.540   8.416   6.708
 3334POPC   C3B45537   8.555   8.268   7.102
 3334POPC   C4B45538   8.398   7.907   7.252
 3335POPC   NC345539  27.089  44.610   5.207
 3335POPC   PO445540  27.642  44.320   5.212
 3335POPC   GL145541  27.577  44.532   5.657
 3335POPC   GL245542  27.432  44.858   5.775
 3335POPC   C1A45543  27.733  44.573   6.107
 3335POPC   D2A45544  27.884  44.535   6.542
 3335POPC   C3A45545  27.708  44.673   6.897
 3335POPC   C4A45546  27.555  44.547   7.275
 3335POPC   C1B45547  27.255  44.737   6.199
 3335POPC   C2B45548  27.176  44.657   6.641
 3335POPC   C3B45549  27.276  44.945   6.946
 3335POPC   C4B45550  27.240   0.031   7.345
 3336POPC   NC345551   2.069   2.973   5.063
 3336POPC   PO445552   2.264   2.515   5.608
 3336POPC   GL145553   2.235   2.697   5.970
 3336POPC   GL245554   1.936   2.881   5.919
 3336POPC   C1A45555   2.245   2.718   6.416
 3336POPC   D2A45556   1.898   2.655   6.688
 3336POPC   C3A45557   2.058   2.520   7.080
 3336POPC   C4A45558   2.485   2.537   7.251
 3336POPC   C1B45559   2.186   3.164   6.181
 3336POPC   C2B45560   1.972   3.204   6.563
 3336POPC   C3B45561   1.912   3.076   6.973
 3336POPC   C4B45562   2.187   2.965   7.309
 3337POPC   NC345563  33.751  32.537   5.163
 3337POPC   PO445564  34.021  32.147   5.660
 3337POPC   GL145565  33.732  32.039   5.959
 3337POPC   GL245566  33.401  31.993   5.832
 3337POPC   C1A45567  33.815  32.078   6.402
 3337POPC   D2A45568  34.065  31.858   6.743
 3337POPC   C3A45569  33.926  31.976   7.145
 3337POPC   C4A45570  33.655  32.360   7.203
 3337POPC   C1B45571  33.316  32.210   6.210
 3337POPC   C2B45572  33.292  32.378   6.612
 3337POPC   C3B45573  33.519  32.053   6.823
 3337POPC   C4B45574  33.487  31.724   7.127
 3338POPC   NC345575  17.879   8.616   5.489
 3338POPC   PO445576  17.948   9.297   5.468
 3338POPC   GL145577  18.213   9.024   5.764
 3338POPC   GL245578  18.333   8.687   5.700
 3338POPC   C1A45579  18.170   8.857   6.182
 3338POPC   D2A45580  18.337   9.056   6.559
 3338POPC   C3A45581  18.160   8.972   6.966
 3338POPC   C4A45582  18.218   9.193   7.362
 3338POPC   C1B45583  18.631   8.695   6.049
 3338POPC   C2B45584  18.676   8.640   6.494
 3338POPC   C3B45585  18.518   8.607   6.909
 3338POPC   C4B45586  18.600   8.872   7.253
 3339POPC   NC345587  37.838  44.309   5.575
 3339POPC   PO445588  37.563  43.588   5.615
 3339POPC   GL145589  37.696  43.826   5.963
 3339POPC   GL245590  37.599  44.191   6.023
 3339POPC   C1A45591  37.722  43.827   6.386
 3339POPC   D2A45592  37.686  44.157   6.636
 3339POPC   C3A45593  37.687  44.005   7.037
 3339POPC   C4A45594  37.375  43.912   7.338
 3339POPC   C1B45595  38.040  44.172   6.186
 3339POPC   C2B45596  38.195  44.345   6.551
 3339POPC   C3B45597  38.004  44.449   6.921
 3339POPC   C4B45598  37.879  44.381   7.352
 3340POPC   NC345599   3.693  44.445   5.442
 3340POPC   PO445600   3.205  44.853   5.312
 3340POPC   GL145601   3.387  44.769   5.761
 3340POPC   GL245602   3.269  44.424   5.814
 3340POPC   C1A45603   3.559  44.857   6.224
 3340POPC   D2A45604   3.457  44.748   6.651
 3340POPC   C3A45605   3.654  44.971   6.988
 3340POPC   C4A45606   3.739  44.823   7.402
 3340POPC   C1B45607   3.385  44.391   6.264
 3340POPC   C2B45608   3.421  44.223   6.691
 3340POPC   C3B45609   3.543  44.339   7.116
 3340POPC   C4B45610   3.303  44.548   7.394
 3341POPC   NC345611  28.072  43.205   5.480
 3341POPC   PO445612  28.723  43.278   5.487
 3341POPC   GL145613  28.444  43.252   5.830
 3341POPC   GL245614  28.301  42.920   5.843
 3341POPC   C1A45615  28.322  43.286   6.246
 3341POPC   D2A45616  28.416  43.124   6.621
 3341POPC   C3A45617  28.244  43.350   6.992
 3341POPC   C4A45618  28.101  43.302   7.413
 3341POPC   C1B45619  28.486  42.780   6.228
 3341POPC   C2B45620  28.702  42.691   6.618
 3341POPC   C3B45621  28.578  42.860   7.011
 3341POPC   C4B45622  28.239  42.858   7.261
 3342POPC   NC345623  40.469   5.613   5.476
 3342POPC   PO445624  40.908   6.083   5.379
 3342POPC   GL145625  40.694   5.977   5.742
 3342POPC   GL245626  40.890   5.658   5.780
 3342POPC   C1A45627  40.481   5.913   6.136
 3342POPC   D2A45628  40.677   6.033   6.526
 3342POPC   C3A45629  40.498   6.007   6.922
 3342POPC   C4A45630  40.716   5.997   7.301
 3342POPC   C1B45631  41.090   5.466   6.164
 3342POPC   C2B45632  41.059   5.573   6.600
 3342POPC   C3B45633  41.057   5.919   6.909
 3342POPC   C4B45634  41.226   5.927   7.332
 3343POPC   NC345635  24.258  32.168   5.305
 3343POPC   PO445636  24.793  32.598   5.470
 3343POPC   GL145637  24.655  32.328   5.844
 3343POPC   GL245638  24.313  32.239   5.801
 3343POPC   C1A45639  24.530  32.081   6.233
 3343POPC   D2A45640  24.423  31.871   6.607
 3343POPC   C3A45641  24.628  32.069   6.936
 3343POPC   C4A45642  24.683  32.272   7.319
 3343POPC   C1B45643  24.085  32.332   6.186
 3343POPC   C2B45644  24.216  32.359   6.625
 3343POPC   C3B45645  24.165  32.289   7.061
 3343POPC   C4B45646  24.253  32.071   7.427
 3344POPC   NC345647   0.762  25.358   5.565
 3344POPC   PO445648   1.364  25.289   5.319
 3344POPC   GL145649   1.238  25.214   5.747
 3344POPC   GL245650   1.356  24.904   5.848
 3344POPC   C1A45651   1.131  25.350   6.172
 3344POPC   D2A45652   1.047  25.217   6.591
 3344POPC   C3A45653   1.232  25.323   6.993
 3344POPC   C4A45654   1.350  25.137   7.430
 3344POPC   C1B45655   1.495  24.896   6.255
 3344POPC   C2B45656   1.507  25.007   6.668
 3344POPC   C3B45657   1.435  24.862   7.026
 3344POPC   C4B45658   1.660  24.707   7.339
 3345POPC   NC345659  31.907  19.688   5.309
 3345POPC   PO445660  32.607  19.860   5.154
 3345POPC   GL145661  32.417  19.755   5.601
 3345POPC   GL245662  32.080  19.826   5.745
 3345POPC   C1A45663  32.393  19.604   6.055
 3345POPC   D2A45664  32.213  19.626   6.459
 3345POPC   C3A45665  32.454  19.789   6.783
 3345POPC   C4A45666  32.355  19.690   7.201
 3345POPC   C1B45667  31.940  19.971   6.125
 3345POPC   C2B45668  32.074  20.140   6.510
 3345POPC   C3B45669  32.022  20.007   6.915
 3345POPC   C4B45670  32.222  20.180   7.236
 3346POPC   NC345671  11.453  24.588   5.322
 3346POPC   PO445672  10.859  24.884   5.447
 3346POPC   GL145673  11.166  24.768   5.748
 3346POPC   GL245674  11.158  24.395   5.741
 3346POPC   C1A45675  11.249  24.705   6.206
 3346POPC   D2A45676  11.378  24.748   6.643
 3346POPC   C3A45677  11.225  24.605   7.039
 3346POPC   C4A45678  11.297  24.637   7.479
 3346POPC   C1B45679  10.969  24.240   6.153
 3346POPC   C2B45680  11.171  24.248   6.594
 3346POPC   C3B45681  11.566  24.269   6.854
 3346POPC   C4B45682  11.538  24.232   7.298
 3347POPC   NC345683  14.812  19.469   5.442
 3347POPC   PO445684  14.253  18.982   5.366
 3347POPC   GL145685  14.430  19.049   5.759
 3347POPC   GL245686  14.665  19.291   5.896
 3347POPC   C1A45687  14.488  18.892   6.168
 3347POPC   D2A45688  14.461  19.107   6.564
 3347POPC   C3A45689  14.170  18.969   6.861
 3347POPC   C4A45690  14.111  19.133   7.243
 3347POPC   C1B45691  14.730  19.475   6.317
 3347POPC   C2B45692  14.718  19.547   6.766
 3347POPC   C3B45693  14.615  19.204   7.073
 3347POPC   C4B45694  14.530  19.176   7.527
 3348POPC   NC345695   9.262   4.640   5.566
 3348POPC   PO445696   9.758   4.336   5.233
 3348POPC   GL145697   9.876   4.440   5.719
 3348POPC   GL245698   9.573   4.393   5.932
 3348POPC   C1A45699  10.018   4.384   6.183
 3348POPC   D2A45700   9.709   4.415   6.541
 3348POPC   C3A45701   9.901   4.509   6.947
 3348POPC   C4A45702  10.022   4.288   7.304
 3348POPC   C1B45703   9.334   4.153   6.241
 3348POPC   C2B45704   9.289   4.120   6.671
 3348POPC   C3B45705   9.421   4.360   7.021
 3348POPC   C4B45706   9.524   4.142   7.353
 3349POPC   NC345707  32.847  18.440   5.472
 3349POPC   PO445708  33.286  17.936   5.424
 3349POPC   GL145709  33.080  18.102   5.820
 3349POPC   GL245710  32.708  18.098   5.845
 3349POPC   C1A45711  33.090  18.394   6.209
 3349POPC   D2A45712  33.411  18.509   6.555
 3349POPC   C3A45713  33.274  18.574   7.015
 3349POPC   C4A45714  32.989  18.325   7.299
 3349POPC   C1B45715  32.744  18.002   6.296
 3349POPC   C2B45716  32.710  17.973   6.770
 3349POPC   C3B45717  32.520  18.006   7.197
 3349POPC   C4B45718  32.549  18.289   7.588
 3350POPC   NC345719   3.364   6.206   5.488
 3350POPC   PO445720   3.926   6.579   5.307
 3350POPC   GL145721   3.741   6.768   5.713
 3350POPC   GL245722   3.436   6.625   5.782
 3350POPC   C1A45723   3.737   6.652   6.205
 3350POPC   D2A45724   3.627   6.437   6.631
 3350POPC   C3A45725   3.619   6.670   7.041
 3350POPC   C4A45726   3.423   6.908   7.386
 3350POPC   C1B45727   3.265   6.473   6.166
 3350POPC   C2B45728   3.096   6.485   6.579
 3350POPC   C3B45729   3.226   6.343   6.961
 3350POPC   C4B45730   3.336   6.380   7.397
 3351POPC   NC345731  20.350  34.262   5.455
 3351POPC   PO445732  20.659  33.620   5.262
 3351POPC   GL145733  20.598  33.834   5.665
 3351POPC   GL245734  20.576  34.125   5.887
 3351POPC   C1A45735  20.484  33.671   6.092
 3351POPC   D2A45736  20.531  33.493   6.498
 3351POPC   C3A45737  20.498  33.822   6.814
 3351POPC   C4A45738  20.345  33.974   7.245
 3351POPC   C1B45739  20.938  34.172   6.183
 3351POPC   C2B45740  20.972  34.108   6.659
 3351POPC   C3B45741  20.848  34.095   7.096
 3351POPC   C4B45742  20.746  34.135   7.536
 3352POPC   NC345743  38.925   6.741   5.260
 3352POPC   PO445744  39.574   6.405   5.220
 3352POPC   GL145745  39.378   6.555   5.616
 3352POPC   GL245746  39.028   6.420   5.676
 3352POPC   C1A45747  39.464   6.486   6.086
 3352POPC   D2A45748  39.381   6.710   6.488
 3352POPC   C3A45749  39.434   6.536   6.900
 3352POPC   C4A45750  39.287   6.249   7.197
 3352POPC   C1B45751  39.026   6.753   6.024
 3352POPC   C2B45752  38.888   6.893   6.457
 3352POPC   C3B45753  39.048   6.872   6.886
 3352POPC   C4B45754  38.877   6.794   7.291
 3353POPC   NC345755  32.523   6.010   5.215
 3353POPC   PO445756  32.023   5.598   5.178
 3353POPC   GL145757  32.097   5.603   5.639
 3353POPC   GL245758  32.288   5.926   5.686
 3353POPC   C1A45759  32.058   5.453   6.101
 3353POPC   D2A45760  32.142   5.625   6.536
 3353POPC   C3A45761  32.054   5.568   6.991
 3353POPC   C4A45762  32.209   5.960   7.211
 3353POPC   C1B45763  32.549   6.165   5.986
 3353POPC   C2B45764  32.682   6.128   6.428
 3353POPC   C3B45765  32.544   6.133   6.858
 3353POPC   C4B45766  32.628   6.284   7.261
 3354POPC   NC345767  38.280  31.840   5.150
 3354POPC   PO445768  38.778  31.408   5.383
 3354POPC   GL145769  38.449  31.383   5.751
 3354POPC   GL245770  38.121  31.199   5.673
 3354POPC   C1A45771  38.423  31.562   6.189
 3354POPC   D2A45772  38.723  31.514   6.553
 3354POPC   C3A45773  38.749  31.736   6.972
 3354POPC   C4A45774  38.494  31.634   7.364
 3354POPC   C1B45775  38.104  31.137   6.141
 3354POPC   C2B45776  38.287  31.226   6.552
 3354POPC   C3B45777  38.094  31.292   6.947
 3354POPC   C4B45778  38.180  31.176   7.366
 3355POPC   NC345779  44.210  18.460   5.430
 3355POPC   PO445780  43.689  18.059   5.257
 3355POPC   GL145781  43.870  18.145   5.665
 3355POPC   GL245782  43.743  18.498   5.715
 3355POPC   C1A45783  43.983  18.268   6.102
 3355POPC   D2A45784  43.926  18.085   6.515
 3355POPC   C3A45785  44.004  18.330   6.887
 3355POPC   C4A45786  43.930  18.347   7.307
 3355POPC   C1B45787  43.590  18.609   6.155
 3355POPC   C2B45788  43.672  18.619   6.606
 3355POPC   C3B45789  43.655  18.698   7.071
 3355POPC   C4B45790  43.652  18.748   7.564
 3356POPC   NC345791   5.494   2.777   5.575
 3356POPC   PO445792   5.956   3.128   5.180
 3356POPC   GL145793   5.974   3.062   5.697
 3356POPC   GL245794   5.864   2.784   5.915
 3356POPC   C1A45795   5.992   3.234   6.122
 3356POPC   D2A45796   5.714   3.196   6.485
 3356POPC   C3A45797   5.836   2.918   6.834
 3356POPC   C4A45798   5.786   2.914   7.285
 3356POPC   C1B45799   5.728   2.520   6.255
 3356POPC   C2B45800   5.563   2.504   6.651
 3356POPC   C3B45801   5.794   2.408   7.001
 3356POPC   C4B45802   5.630   2.434   7.365
 3357POPC   NC345803  42.753  19.279   5.679
 3357POPC   PO445804  43.264  19.258   5.210
 3357POPC   GL145805  43.188  19.006   5.580
 3357POPC   GL245806  43.302  19.277   5.767
 3357POPC   C1A45807  43.158  18.877   6.055
 3357POPC   D2A45808  43.325  18.976   6.486
 3357POPC   C3A45809  43.196  18.685   6.833
 3357POPC   C4A45810  42.875  18.584   7.130
 3357POPC   C1B45811  43.214  19.412   6.205
 3357POPC   C2B45812  43.342  19.570   6.620
 3357POPC   C3B45813  43.343  19.232   6.944
 3357POPC   C4B45814  43.243  18.951   7.283
 3358POPC   NC345815  14.678  28.833   5.344
 3358POPC   PO445816  15.287  29.065   5.630
 3358POPC   GL145817  15.026  28.959   5.924
 3358POPC   GL245818  14.893  29.286   5.897
 3358POPC   C1A45819  15.110  28.849   6.322
 3358POPC   D2A45820  15.390  28.962   6.625
 3358POPC   C3A45821  15.344  28.835   7.034
 3358POPC   C4A45822  15.134  29.052   7.367
 3358POPC   C1B45823  15.048  29.379   6.332
 3358POPC   C2B45824  15.044  29.313   6.787
 3358POPC   C3B45825  14.915  29.488   7.187
 3358POPC   C4B45826  14.809  29.380   7.634
 3359POPC   NC345827  42.254  10.256   5.483
 3359POPC   PO445828  42.837   9.877   5.463
 3359POPC   GL145829  42.403   9.787   5.650
 3359POPC   GL245830  42.249   9.446   5.662
 3359POPC   C1A45831  42.200   9.740   6.086
 3359POPC   D2A45832  41.989   9.832   6.503
 3359POPC   C3A45833  42.240   9.920   6.894
 3359POPC   C4A45834  42.434   9.995   7.335
 3359POPC   C1B45835  41.928   9.306   6.002
 3359POPC   C2B45836  41.902   9.316   6.491
 3359POPC   C3B45837  42.114   9.372   6.919
 3359POPC   C4B45838  42.074   9.648   7.293
 3360POPC   NC345839  37.353  26.194   5.417
 3360POPC   PO445840  37.814  25.780   5.642
 3360POPC   GL145841  37.716  26.184   5.815
 3360POPC   GL245842  37.917  26.488   5.721
 3360POPC   C1A45843  37.575  26.167   6.243
 3360POPC   D2A45844  37.371  26.214   6.627
 3360POPC   C3A45845  37.600  26.040   6.972
 3360POPC   C4A45846  37.517  25.808   7.341
 3360POPC   C1B45847  37.745  26.633   6.124
 3360POPC   C2B45848  37.808  26.536   6.557
 3360POPC   C3B45849  37.565  26.567   6.938
 3360POPC   C4B45850  37.670  26.417   7.327
 3361POPC   NC345851  35.395  42.499   5.331
 3361POPC   PO445852  35.080  42.025   5.419
 3361POPC   GL145853  35.241  42.281   5.774
 3361POPC   GL245854  35.425  42.115   6.016
 3361POPC   C1A45855  35.319  42.635   6.073
 3361POPC   D2A45856  35.192  42.717   6.500
 3361POPC   C3A45857  35.416  42.628   6.870
 3361POPC   C4A45858  35.602  42.251   7.085
 3361POPC   C1B45859  35.122  42.200   6.329
 3361POPC   C2B45860  35.176  42.173   6.767
 3361POPC   C3B45861  35.100  42.273   7.203
 3361POPC   C4B45862  34.999  42.419   7.628
 3362POPC   NC345863  33.515  26.348   5.412
 3362POPC   PO445864  33.837  25.712   5.376
 3362POPC   GL145865  33.858  25.887   5.797
 3362POPC   GL245866  33.907  26.221   5.810
 3362POPC   C1A45867  33.925  25.921   6.257
 3362POPC   D2A45868  33.770  25.975   6.677
 3362POPC   C3A45869  33.912  25.827   7.090
 3362POPC   C4A45870  33.782  25.842   7.545
 3362POPC   C1B45871  33.975  26.470   6.195
 3362POPC   C2B45872  33.799  26.499   6.629
 3362POPC   C3B45873  33.754  26.321   7.057
 3362POPC   C4B45874  33.572  26.382   7.445
 3363POPC   NC345875   9.073  13.403   5.431
 3363POPC   PO445876   8.713  13.910   5.250
 3363POPC   GL145877   8.901  13.864   5.662
 3363POPC   GL245878   8.590  13.958   5.792
 3363POPC   C1A45879   9.035  13.865   6.134
 3363POPC   D2A45880   9.111  13.629   6.533
 3363POPC   C3A45881   9.182  13.714   6.969
 3363POPC   C4A45882   9.411  13.388   7.194
 3363POPC   C1B45883   8.586  14.102   6.217
 3363POPC   C2B45884   8.757  14.006   6.621
 3363POPC   C3B45885   8.694  13.948   7.052
 3363POPC   C4B45886   8.733  14.016   7.476
 3364POPC   NC345887   6.476   6.154   5.386
 3364POPC   PO445888   6.880   5.591   5.450
 3364POPC   GL145889   6.669   5.875   5.780
 3364POPC   GL245890   6.321   5.744   5.702
 3364POPC   C1A45891   6.492   5.920   6.247
 3364POPC   D2A45892   6.325   6.095   6.680
 3364POPC   C3A45893   6.599   6.000   7.066
 3364POPC   C4A45894   7.038   5.738   7.117
 3364POPC   C1B45895   6.514   5.440   5.996
 3364POPC   C2B45896   6.518   5.373   6.441
 3364POPC   C3B45897   6.636   5.527   6.861
 3364POPC   C4B45898   6.615   5.575   7.332
 3365POPC   NC345899  44.162   4.380   5.218
 3365POPC   PO445900  43.652   3.997   5.403
 3365POPC   GL145901  43.823   4.331   5.697
 3365POPC   GL245902  44.165   4.380   5.839
 3365POPC   C1A45903  43.760   4.148   6.113
 3365POPC   D2A45904  43.638   4.069   6.528
 3365POPC   C3A45905  43.859   4.320   6.802
 3365POPC   C4A45906  43.928   4.419   7.208
 3365POPC   C1B45907  44.245   4.031   6.195
 3365POPC   C2B45908  44.129   3.850   6.617
 3365POPC   C3B45909  44.117   3.949   7.073
 3365POPC   C4B45910  44.213   4.091   7.508
 3366POPC   NC345911  18.257  10.363   5.182
 3366POPC   PO445912  18.828  10.520   5.253
 3366POPC   GL145913  18.536  10.491   5.663
 3366POPC   GL245914  18.257  10.258   5.738
 3366POPC   C1A45915  18.445  10.488   6.162
 3366POPC   D2A45916  18.431  10.308   6.630
 3366POPC   C3A45917  18.369  10.547   7.056
 3366POPC   C4A45918  18.339  10.383   7.522
 3366POPC   C1B45919  17.984  10.253   6.148
 3366POPC   C2B45920  17.952  10.454   6.578
 3366POPC   C3B45921  17.930  10.308   7.003
 3366POPC   C4B45922  17.903  10.569   7.347
 3367POPC   NC345923  42.633  27.343   5.565
 3367POPC   PO445924  42.000  27.544   5.575
 3367POPC   GL145925  42.335  27.577   5.914
 3367POPC   GL245926  42.710  27.617   6.006
 3367POPC   C1A45927  42.321  27.752   6.320
 3367POPC   D2A45928  42.244  27.962   6.710
 3367POPC   C3A45929  42.030  27.671   6.992
 3367POPC   C4A45930  42.161  27.512   7.387
 3367POPC   C1B45931  42.597  27.293   6.294
 3367POPC   C2B45932  42.715  27.211   6.721
 3367POPC   C3B45933  42.491  27.165   7.097
 3367POPC   C4B45934  42.595  27.289   7.514
 3368POPC   NC345935  15.475  20.158   5.551
 3368POPC   PO445936  15.547  19.454   5.527
 3368POPC   GL145937  15.328  19.675   5.901
 3368POPC   GL245938  14.987  19.704   5.903
 3368POPC   C1A45939  15.155  19.763   6.377
 3368POPC   D2A45940  15.142  20.084   6.716
 3368POPC   C3A45941  15.206  19.890   7.119
 3368POPC   C4A45942  15.378  19.688   7.477
 3368POPC   C1B45943  14.702  19.973   6.204
 3368POPC   C2B45944  14.631  20.121   6.646
 3368POPC   C3B45945  14.672  19.955   7.071
 3368POPC   C4B45946  14.825  19.591   7.321
 3369POPC   NC345947  37.893  36.334   5.385
 3369POPC   PO445948  37.485  35.867   5.417
 3369POPC   GL145949  37.602  35.811   5.809
 3369POPC   GL245950  37.744  36.124   5.843
 3369POPC   C1A45951  37.433  35.839   6.208
 3369POPC   D2A45952  37.767  35.794   6.483
 3369POPC   C3A45953  37.577  35.735   6.837
 3369POPC   C4A45954  37.471  35.955   7.166
 3369POPC   C1B45955  37.699  36.274   6.267
 3369POPC   C2B45956  37.841  36.250   6.707
 3369POPC   C3B45957  37.816  36.350   7.139
 3369POPC   C4B45958  38.065  36.439   7.526
 3370POPC   NC345959  14.250   1.851   5.463
 3370POPC   PO445960  14.609   2.344   5.452
 3370POPC   GL145961  14.483   2.179   5.815
 3370POPC   GL245962  14.659   2.360   6.085
 3370POPC   C1A45963  14.554   1.816   6.074
 3370POPC   D2A45964  14.648   1.857   6.492
 3370POPC   C3A45965  14.349   1.867   6.815
 3370POPC   C4A45966  14.469   1.703   7.212
 3370POPC   C1B45967  14.276   2.199   6.284
 3370POPC   C2B45968  14.150   2.355   6.656
 3370POPC   C3B45969  14.422   2.349   6.993
 3370POPC   C4B45970  14.179   2.125   7.252
 3371POPC   NC345971  37.469  28.321   5.264
 3371POPC   PO445972  38.102  28.181   5.448
 3371POPC   GL145973  37.796  28.316   5.795
 3371POPC   GL245974  37.417  28.313   5.786
 3371POPC   C1A45975  37.656  28.135   6.203
 3371POPC   D2A45976  37.670  28.387   6.584
 3371POPC   C3A45977  37.574  28.207   6.983
 3371POPC   C4A45978  37.452  28.308   7.411
 3371POPC   C1B45979  37.283  28.483   6.218
 3371POPC   C2B45980  37.383  28.819   6.555
 3371POPC   C3B45981  37.450  28.730   7.014
 3371POPC   C4B45982  37.133  28.715   7.386
 3372POPC   NC345983   1.770  18.446   5.079
 3372POPC   PO445984   2.080  17.943   5.325
 3372POPC   GL145985   2.236  18.182   5.694
 3372POPC   GL245986   2.147  18.571   5.683
 3372POPC   C1A45987   2.220  18.289   6.115
 3372POPC   D2A45988   1.817  18.285   6.338
 3372POPC   C3A45989   1.864  18.275   6.810
 3372POPC   C4A45990   2.249  18.165   7.102
 3372POPC   C1B45991   1.987  18.738   6.111
 3372POPC   C2B45992   2.175  18.589   6.524
 3372POPC   C3B45993   2.198  18.664   6.938
 3372POPC   C4B45994   1.937  18.588   7.240
 3373POPC   NC345995  37.056  35.814   5.213
 3373POPC   PO445996  36.783  35.199   5.315
 3373POPC   GL145997  36.819  35.504   5.649
 3373POPC   GL245998  37.117  35.669   5.724
 3373POPC   C1A45999  36.757  35.545   6.080
 3373POPC   D2A46000  37.032  35.590   6.440
 3373POPC   C3A46001  36.782  35.439   6.755
 3373POPC   C4A46002  36.833  35.396   7.178
 3373POPC   C1B46003  37.228  35.326   6.006
 3373POPC   C2B46004  37.369  35.181   6.429
 3373POPC   C3B46005  37.263  35.313   6.849
 3373POPC   C4B46006  37.212  35.072   7.212
 3374POPC   NC346007  19.815  39.190   5.220
 3374POPC   PO446008  19.870  39.886   5.456
 3374POPC   GL146009  20.050  39.559   5.846
 3374POPC   GL246010  19.943  39.201   5.936
 3374POPC   C1A46011  20.079  39.428   6.358
 3374POPC   D2A46012  19.908  39.593   6.789
 3374POPC   C3A46013  19.845  39.365   7.211
 3374POPC   C4A46014  19.544  39.355   7.583
 3374POPC   C1B46015  19.933  38.916   6.323
 3374POPC   C2B46016  20.062  38.724   6.708
 3374POPC   C3B46017  19.981  38.838   7.141
 3374POPC   C4B46018  19.874  38.974   7.555
 3375POPC   NC346019   3.222  42.077   5.721
 3375POPC   PO446020   2.841  41.604   5.395
 3375POPC   GL146021   2.830  41.713   5.834
 3375POPC   GL246022   2.746  41.386   5.879
 3375POPC   C1A46023   2.955  41.719   6.299
 3375POPC   D2A46024   2.839  41.500   6.702
 3375POPC   C3A46025   2.843  41.745   7.060
 3375POPC   C4A46026   2.564  41.794   7.385
 3375POPC   C1B46027   2.805  41.232   6.260
 3375POPC   C2B46028   2.881  40.939   6.571
 3375POPC   C3B46029   2.967  41.072   6.994
 3375POPC   C4B46030   2.706  41.297   7.268
 3376POPC   NC346031  22.674  30.342   5.184
 3376POPC   PO446032  21.990  29.996   5.352
 3376POPC   GL146033  22.030  30.067   5.831
 3376POPC   GL246034  22.374  30.027   5.952
 3376POPC   C1A46035  22.039  29.792   6.250
 3376POPC   D2A46036  22.108  29.524   6.644
 3376POPC   C3A46037  22.075  29.793   7.032
 3376POPC   C4A46038  21.938  30.281   7.096
 3376POPC   C1B46039  22.331  30.238   6.307
 3376POPC   C2B46040  22.238  30.140   6.707
 3376POPC   C3B46041  22.442  30.141   7.133
 3376POPC   C4B46042  22.566  30.081   7.592
 3377POPC   NC346043  27.502  29.769   5.429
 3377POPC   PO446044  27.906  30.290   5.543
 3377POPC   GL146045  27.737  30.005   5.840
 3377POPC   GL246046  27.916  29.677   5.775
 3377POPC   C1A46047  27.525  30.048   6.268
 3377POPC   D2A46048  27.513  30.141   6.722
 3377POPC   C3A46049  27.398  29.822   7.047
 3377POPC   C4A46050  27.048  29.919   7.325
 3377POPC   C1B46051  27.853  29.669   6.215
 3377POPC   C2B46052  27.732  29.672   6.647
 3377POPC   C3B46053  27.920  29.840   7.009
 3377POPC   C4B46054  27.870  29.842   7.463
 3378POPC   NC346055  44.408   2.185   5.385
 3378POPC   PO446056  44.907   1.761   5.402
 3378POPC   GL146057  44.714   1.985   5.790
 3378POPC   GL246058  44.933   2.284   5.862
 3378POPC   C1A46059  44.505   1.947   6.238
 3378POPC   D2A46060  44.561   1.980   6.717
 3378POPC   C3A46061  44.455   1.751   7.082
 3378POPC   C4A46062  44.440   1.742   7.534
 3378POPC   C1B46063   0.021   2.015   6.224
 3378POPC   C2B46064   0.078   2.012   6.673
 3378POPC   C3B46065  44.935   2.033   7.107
 3378POPC   C4B46066   0.272   1.990   7.443
 3379POPC   NC346067  10.260  12.631   5.612
 3379POPC   PO446068  10.561  13.218   5.449
 3379POPC   GL146069  10.670  12.909   5.819
 3379POPC   GL246070  10.823  12.574   5.722
 3379POPC   C1A46071  10.553  12.818   6.288
 3379POPC   D2A46072  10.298  12.770   6.707
 3379POPC   C3A46073  10.496  12.978   7.033
 3379POPC   C4A46074  10.468  13.401   7.197
 3379POPC   C1B46075  10.822  12.389   6.144
 3379POPC   C2B46076  10.914  12.482   6.610
 3379POPC   C3B46077  10.721  12.473   7.066
 3379POPC   C4B46078  10.641  12.439   7.569
 3380POPC   NC346079   0.674   7.453   5.096
 3380POPC   PO446080   0.129   7.769   5.436
 3380POPC   GL146081   0.509   7.560   5.713
 3380POPC   GL246082   0.512   7.220   5.829
 3380POPC   C1A46083   0.402   7.561   6.194
 3380POPC   D2A46084   0.585   7.676   6.570
 3380POPC   C3A46085   0.406   7.619   6.916
 3380POPC   C4A46086   0.611   7.644   7.295
 3380POPC   C1B46087   0.195   7.096   6.172
 3380POPC   C2B46088   0.293   7.174   6.599
 3380POPC   C3B46089   0.056   7.120   6.970
 3380POPC   C4B46090   0.071   7.430   7.241
 3381POPC   NC346091  26.018  10.014   4.930
 3381POPC   PO446092  25.991   9.807   5.351
 3381POPC   GL146093  26.038   9.664   5.769
 3381POPC   GL246094  25.733   9.543   5.892
 3381POPC   C1A46095  26.229   9.681   6.205
 3381POPC   D2A46096  26.221   9.879   6.631
 3381POPC   C3A46097  26.435   9.758   7.041
 3381POPC   C4A46098  26.427   9.799   7.517
 3381POPC   C1B46099  25.735   9.657   6.345
 3381POPC   C2B46100  25.740   9.816   6.763
 3381POPC   C3B46101  25.929   9.683   7.132
 3381POPC   C4B46102  25.824   9.539   7.556
 3382POPC   NC346103  10.980  31.289   5.474
 3382POPC   PO446104  11.435  31.767   5.445
 3382POPC   GL146105  11.301  31.606   5.834
 3382POPC   GL246106  11.437  31.275   5.827
 3382POPC   C1A46107  11.336  31.490   6.283
 3382POPC   D2A46108  11.194  31.330   6.651
 3382POPC   C3A46109  11.361  31.565   6.947
 3382POPC   C4A46110  11.265  31.328   7.268
 3382POPC   C1B46111  11.663  31.108   6.186
 3382POPC   C2B46112  11.715  31.256   6.582
 3382POPC   C3B46113  11.704  31.176   6.999
 3382POPC   C4B46114  11.777  31.527   7.263
 3383POPC   NC346115  22.657  26.506   5.563
 3383POPC   PO446116  22.988  26.998   5.258
 3383POPC   GL146117  22.858  26.988   5.675
 3383POPC   GL246118  22.522  27.063   5.676
 3383POPC   C1A46119  22.853  26.916   6.139
 3383POPC   D2A46120  22.958  26.751   6.567
 3383POPC   C3A46121  23.010  26.990   6.968
 3383POPC   C4A46122  23.267  26.733   7.207
 3383POPC   C1B46123  22.404  27.169   6.130
 3383POPC   C2B46124  22.507  26.959   6.559
 3383POPC   C3B46125  22.585  26.733   6.973
 3383POPC   C4B46126  22.654  26.833   7.417
 3384POPC   NC346127  25.919  19.722   5.409
 3384POPC   PO446128  26.614  19.825   5.333
 3384POPC   GL146129  26.329  19.789   5.714
 3384POPC   GL246130  26.232  19.490   5.798
 3384POPC   C1A46131  26.011  19.815   6.108
 3384POPC   D2A46132  25.797  19.572   6.475
 3384POPC   C3A46133  25.748  19.802   6.889
 3384POPC   C4A46134  25.870  20.101   7.262
 3384POPC   C1B46135  26.429  19.560   6.224
 3384POPC   C2B46136  26.254  19.713   6.611
 3384POPC   C3B46137  26.218  19.791   7.051
 3384POPC   C4B46138  26.399  19.534   7.291
 3385POPC   NC346139   9.054  42.394   5.307
 3385POPC   PO446140   8.856  41.743   5.223
 3385POPC   GL146141   8.843  42.095   5.672
 3385POPC   GL246142   9.111  42.399   5.793
 3385POPC   C1A46143   8.715  42.356   6.088
 3385POPC   D2A46144   8.920  42.433   6.491
 3385POPC   C3A46145   8.812  42.284   6.914
 3385POPC   C4A46146   9.187  42.233   7.153
 3385POPC   C1B46147   9.113  42.746   6.103
 3385POPC   C2B46148   8.789  42.908   6.359
 3385POPC   C3B46149   8.800  42.855   6.803
 3385POPC   C4B46150   8.662  42.900   7.212
 3386POPC   NC346151   4.658  10.905   5.133
 3386POPC   PO446152   5.066  11.238   5.539
 3386POPC   GL146153   5.178  11.137   5.951
 3386POPC   GL246154   5.317  10.820   5.866
 3386POPC   C1A46155   4.954  11.193   6.353
 3386POPC   D2A46156   4.881  11.256   6.814
 3386POPC   C3A46157   5.126  11.453   7.136
 3386POPC   C4A46158   5.128  11.694   7.516
 3386POPC   C1B46159   5.310  10.825   6.345
 3386POPC   C2B46160   5.358  10.780   6.811
 3386POPC   C3B46161   5.256  10.934   7.229
 3386POPC   C4B46162   5.217  11.166   7.630
 3387POPC   NC346163  21.007  28.872   5.252
 3387POPC   PO446164  21.078  29.589   5.415
 3387POPC   GL146165  21.295  29.511   5.804
 3387POPC   GL246166  21.421  29.153   5.809
 3387POPC   C1A46167  21.499  29.480   6.222
 3387POPC   D2A46168  21.393  29.255   6.594
 3387POPC   C3A46169  21.393  29.402   7.008
 3387POPC   C4A46170  21.097  29.235   7.260
 3387POPC   C1B46171  21.605  28.971   6.215
 3387POPC   C2B46172  21.501  28.763   6.635
 3387POPC   C3B46173  21.514  28.820   7.095
 3387POPC   C4B46174  21.635  29.137   7.378
 3388POPC   NC346175   7.817  12.095   5.215
 3388POPC   PO446176   8.333  11.662   5.386
 3388POPC   GL146177   8.411  11.775   5.808
 3388POPC   GL246178   8.532  12.112   5.733
 3388POPC   C1A46179   8.143  11.919   6.186
 3388POPC   D2A46180   7.982  12.129   6.586
 3388POPC   C3A46181   8.044  11.964   7.010
 3388POPC   C4A46182   8.260  11.756   7.323
 3388POPC   C1B46183   8.639  12.108   6.152
 3388POPC   C2B46184   8.522  12.059   6.559
 3388POPC   C3B46185   8.487  12.238   6.941
 3388POPC   C4B46186   8.374  12.292   7.335
 3389POPC   NC346187  39.010  17.911   5.480
 3389POPC   PO446188  39.358  17.351   5.200
 3389POPC   GL146189  39.296  17.338   5.651
 3389POPC   GL246190  39.381  17.663   5.758
 3389POPC   C1A46191  39.456  17.245   6.071
 3389POPC   D2A46192  39.380  17.491   6.471
 3389POPC   C3A46193  39.307  17.295   6.878
 3389POPC   C4A46194  39.478  17.255   7.289
 3389POPC   C1B46195  39.043  17.592   6.074
 3389POPC   C2B46196  38.915  17.836   6.443
 3389POPC   C3B46197  39.058  17.776   6.851
 3389POPC   C4B46198  39.132  17.637   7.272
 3390POPC   NC346199  20.267   6.361   5.418
 3390POPC   PO446200  20.988   6.328   5.366
 3390POPC   GL146201  20.842   6.528   5.749
 3390POPC   GL246202  20.516   6.718   5.715
 3390POPC   C1A46203  20.770   6.652   6.172
 3390POPC   D2A46204  20.814   6.904   6.527
 3390POPC   C3A46205  20.772   6.657   6.906
 3390POPC   C4A46206  20.655   6.733   7.315
 3390POPC   C1B46207  20.283   6.759   6.116
 3390POPC   C2B46208  20.333   6.695   6.560
 3390POPC   C3B46209  20.248   6.724   7.001
 3390POPC   C4B46210  20.149   6.408   7.331
 3391POPC   NC346211  18.471   9.273   5.410
 3391POPC   PO446212  18.330   9.933   5.355
 3391POPC   GL146213  18.254   9.633   5.708
 3391POPC   GL246214  18.068   9.819   5.894
 3391POPC   C1A46215  18.290   9.404   6.124
 3391POPC   D2A46216  18.345   9.597   6.541
 3391POPC   C3A46217  18.255   9.561   6.994
 3391POPC   C4A46218  18.290   9.937   7.281
 3391POPC   C1B46219  17.890   9.739   6.278
 3391POPC   C2B46220  17.910   9.906   6.681
 3391POPC   C3B46221  17.816   9.799   7.103
 3391POPC   C4B46222  17.935   9.624   7.491
 3392POPC   NC346223   3.181  18.543   5.522
 3392POPC   PO446224   3.063  17.936   5.491
 3392POPC   GL146225   2.783  18.161   5.788
 3392POPC   GL246226   2.699  18.506   5.755
 3392POPC   C1A46227   2.699  18.163   6.234
 3392POPC   D2A46228   2.438  18.159   6.593
 3392POPC   C3A46229   2.697  17.946   6.869
 3392POPC   C4A46230   2.776  17.976   7.288
 3392POPC   C1B46231   2.952  18.594   6.152
 3392POPC   C2B46232   2.788  18.586   6.575
 3392POPC   C3B46233   2.671  18.437   6.975
 3392POPC   C4B46234   2.732  18.533   7.382
 3393POPC   NC346235   4.192   6.201   5.446
 3393POPC   PO446236   4.653   5.718   5.450
 3393POPC   GL146237   4.428   5.950   5.845
 3393POPC   GL246238   4.050   6.093   5.904
 3393POPC   C1A46239   4.365   6.117   6.285
 3393POPC   D2A46240   4.207   6.406   6.597
 3393POPC   C3A46241   4.259   6.176   6.993
 3393POPC   C4A46242   4.293   5.822   7.282
 3393POPC   C1B46243   3.831   6.127   6.283
 3393POPC   C2B46244   3.995   5.906   6.625
 3393POPC   C3B46245   3.897   5.719   6.999
 3393POPC   C4B46246   3.818   6.100   7.253
 3394POPC   NC346247  19.904  12.425   5.491
 3394POPC   PO446248  20.040  11.687   5.443
 3394POPC   GL146249  20.031  11.945   5.796
 3394POPC   GL246250  19.686  11.997   5.743
 3394POPC   C1A46251  19.852  11.819   6.220
 3394POPC   D2A46252  19.835  11.658   6.636
 3394POPC   C3A46253  19.785  11.897   7.019
 3394POPC   C4A46254  19.828  12.029   7.449
 3394POPC   C1B46255  19.663  12.270   6.133
 3394POPC   C2B46256  19.570  12.228   6.613
 3394POPC   C3B46257  19.651  12.379   7.068
 3394POPC   C4B46258  19.509  12.566   7.455
 3395POPC   NC346259   3.863  37.340   5.054
 3395POPC   PO446260   3.535  37.852   5.449
 3395POPC   GL146261   3.644  37.731   5.853
 3395POPC   GL246262   3.446  37.429   5.856
 3395POPC   C1A46263   3.757  37.944   6.256
 3395POPC   D2A46264   3.923  37.756   6.642
 3395POPC   C3A46265   3.778  37.803   7.079
 3395POPC   C4A46266   3.625  37.643   7.494
 3395POPC   C1B46267   3.668  37.448   6.280
 3395POPC   C2B46268   3.631  37.334   6.725
 3395POPC   C3B46269   3.338  37.483   7.067
 3395POPC   C4B46270   2.928  37.436   7.286
 3396POPC   NC346271  24.453  31.245   5.326
 3396POPC   PO446272  24.591  31.863   5.380
 3396POPC   GL146273  24.322  31.694   5.762
 3396POPC   GL246274  24.259  31.311   5.794
 3396POPC   C1A46275  24.476  31.555   6.199
 3396POPC   D2A46276  24.800  31.509   6.544
 3396POPC   C3A46277  24.630  31.530   6.950
 3396POPC   C4A46278  24.811  31.326   7.290
 3396POPC   C1B46279  24.062  31.254   6.201
 3396POPC   C2B46280  24.106  31.444   6.593
 3396POPC   C3B46281  24.194  31.247   6.964
 3396POPC   C4B46282  24.300  31.355   7.341
 3397POPC   NC346283  36.796  11.144   5.097
 3397POPC   PO446284  36.662  11.529   5.608
 3397POPC   GL146285  37.017  11.383   5.863
 3397POPC   GL246286  37.173  11.009   5.796
 3397POPC   C1A46287  37.022  11.495   6.273
 3397POPC   D2A46288  36.691  11.363   6.516
 3397POPC   C3A46289  36.810  11.387   6.938
 3397POPC   C4A46290  36.603  11.181   7.272
 3397POPC   C1B46291  36.964  10.973   6.224
 3397POPC   C2B46292  37.096  11.061   6.634
 3397POPC   C3B46293  36.985  10.929   7.045
 3397POPC   C4B46294  37.188  11.013   7.432
 3398POPC   NC346295  34.219  18.695   5.428
 3398POPC   PO446296  33.920  19.338   5.467
 3398POPC   GL146297  33.901  19.009   5.755
 3398POPC   GL246298  33.793  19.287   5.963
 3398POPC   C1A46299  33.730  18.800   6.125
 3398POPC   D2A46300  33.627  18.977   6.534
 3398POPC   C3A46301  33.731  18.777   6.899
 3398POPC   C4A46302  33.629  18.860   7.304
 3398POPC   C1B46303  34.028  19.219   6.325
 3398POPC   C2B46304  34.133  19.016   6.706
 3398POPC   C3B46305  33.945  19.227   7.061
 3398POPC   C4B46306  33.948  19.191   7.500
 3399POPC   NC346307  10.324   1.722   5.041
 3399POPC   PO446308  10.804   1.956   5.451
 3399POPC   GL146309  10.657   2.066   5.889
 3399POPC   GL246310  10.372   2.223   5.908
 3399POPC   C1A46311  10.414   1.986   6.338
 3399POPC   D2A46312  10.300   1.912   6.766
 3399POPC   C3A46313  10.649   2.043   6.991
 3399POPC   C4A46314  10.917   1.947   7.288
 3399POPC   C1B46315  10.507   2.479   6.284
 3399POPC   C2B46316  10.426   2.445   6.763
 3399POPC   C3B46317  10.250   2.323   7.157
 3399POPC   C4B46318  10.085   2.433   7.573
 3400POPC   NC346319  21.147  10.014   5.432
 3400POPC   PO446320  21.241   9.357   5.573
 3400POPC   GL146321  21.209   9.634   5.916
 3400POPC   GL246322  21.376   9.939   5.885
 3400POPC   C1A46323  21.329   9.648   6.334
 3400POPC   D2A46324  21.617   9.453   6.532
 3400POPC   C3A46325  21.700   9.636   6.889
 3400POPC   C4A46326  21.721   9.656   7.347
 3400POPC   C1B46327  21.133  10.095   6.253
 3400POPC   C2B46328  21.382  10.076   6.636
 3400POPC   C3B46329  21.446  10.028   7.072
 3400POPC   C4B46330  21.291  10.125   7.489
 3401POPC   NC346331   2.849   5.349   5.498
 3401POPC   PO446332   2.979   4.742   5.212
 3401POPC   GL146333   2.844   4.809   5.740
 3401POPC   GL246334   2.844   5.163   5.964
 3401POPC   C1A46335   2.887   4.739   6.220
 3401POPC   D2A46336   2.841   5.141   6.490
 3401POPC   C3A46337   2.905   5.124   6.928
 3401POPC   C4A46338   2.712   4.816   7.227
 3401POPC   C1B46339   2.513   5.446   6.223
 3401POPC   C2B46340   2.259   5.675   6.545
 3401POPC   C3B46341   2.389   5.553   6.961
 3401POPC   C4B46342   2.613   5.349   7.295
 3402POPC   NC346343  32.168  43.565   4.928
 3402POPC   PO446344  31.899  44.095   5.348
 3402POPC   GL146345  32.027  44.174   5.789
 3402POPC   GL246346  32.254  43.909   5.722
 3402POPC   C1A46347  32.323  44.145   6.153
 3402POPC   D2A46348  32.338  43.810   6.468
 3402POPC   C3A46349  32.475  43.945   6.881
 3402POPC   C4A46350  32.475  43.659   7.232
 3402POPC   C1B46351  31.952  43.791   6.098
 3402POPC   C2B46352  31.833  43.766   6.506
 3402POPC   C3B46353  32.040  43.679   6.890
 3402POPC   C4B46354  31.921  43.585   7.290
 3403POPC   NC346355  39.160  11.522   5.406
 3403POPC   PO446356  39.063  12.160   5.448
 3403POPC   GL146357  39.216  12.129   5.837
 3403POPC   GL246358  39.205  11.788   5.869
 3403POPC   C1A46359  39.068  12.286   6.211
 3403POPC   D2A46360  39.245  12.405   6.607
 3403POPC   C3A46361  39.420  12.117   6.887
 3403POPC   C4A46362  39.455  12.333   7.264
 3403POPC   C1B46363  39.298  11.748   6.313
 3403POPC   C2B46364  39.131  11.503   6.665
 3403POPC   C3B46365  38.985  11.632   7.065
 3403POPC   C4B46366  39.296  11.827   7.333
 3404POPC   NC346367  33.509  30.049   5.432
 3404POPC   PO446368  34.027  29.662   5.337
 3404POPC   GL146369  33.824  29.745   5.720
 3404POPC   GL246370  33.638  29.508   5.845
 3404POPC   C1A46371  33.829  29.899   6.144
 3404POPC   D2A46372  33.997  30.061   6.534
 3404POPC   C3A46373  33.813  29.860   6.873
 3404POPC   C4A46374  33.598  29.923   7.262
 3404POPC   C1B46375  33.457  29.540   6.246
 3404POPC   C2B46376  33.405  29.560   6.688
 3404POPC   C3B46377  33.558  29.455   7.068
 3404POPC   C4B46378  33.515  29.474   7.508
 3405POPC   NC346379  22.283  37.081   5.263
 3405POPC   PO446380  21.587  36.895   5.266
 3405POPC   GL146381  21.837  36.866   5.649
 3405POPC   GL246382  21.582  36.702   5.819
 3405POPC   C1A46383  21.897  37.034   6.100
 3405POPC   D2A46384  21.784  37.029   6.559
 3405POPC   C3A46385  22.021  36.893   6.935
 3405POPC   C4A46386  22.325  36.997   7.307
 3405POPC   C1B46387  21.676  36.578   6.248
 3405POPC   C2B46388  21.750  36.471   6.675
 3405POPC   C3B46389  21.603  36.561   7.105
 3405POPC   C4B46390  21.930  36.681   7.404
 3406POPC   NC346391  38.888  22.551   5.496
 3406POPC   PO446392  39.389  23.093   5.594
 3406POPC   GL146393  39.030  22.924   5.859
 3406POPC   GL246394  39.130  22.581   5.940
 3406POPC   C1A46395  38.849  22.821   6.292
 3406POPC   D2A46396  38.837  22.858   6.741
 3406POPC   C3A46397  38.962  23.259   6.917
 3406POPC   C4A46398  38.957  23.202   7.342
 3406POPC   C1B46399  39.396  22.786   6.266
 3406POPC   C2B46400  39.391  22.707   6.717
 3406POPC   C3B46401  39.310  22.900   7.099
 3406POPC   C4B46402  39.311  22.759   7.497
 3407POPC   NC346403  36.390  31.392   5.393
 3407POPC   PO446404  35.788  31.372   5.682
 3407POPC   GL146405  36.196  31.313   5.840
 3407POPC   GL246406  36.292  31.654   5.827
 3407POPC   C1A46407  36.380  31.322   6.215
 3407POPC   D2A46408  36.035  31.431   6.447
 3407POPC   C3A46409  36.130  31.346   6.837
 3407POPC   C4A46410  36.530  31.223   7.007
 3407POPC   C1B46411  36.260  31.862   6.208
 3407POPC   C2B46412  36.388  31.791   6.621
 3407POPC   C3B46413  36.250  31.795   7.051
 3407POPC   C4B46414  36.173  31.448   7.337
 3408POPC   NC346415  34.640  17.063   5.186
 3408POPC   PO446416  34.714  16.488   5.487
 3408POPC   GL146417  34.480  16.614   5.855
 3408POPC   GL246418  34.137  16.731   5.791
 3408POPC   C1A46419  34.600  16.660   6.285
 3408POPC   D2A46420  34.728  16.495   6.699
 3408POPC   C3A46421  35.047  16.700   6.885
 3408POPC   C4A46422  35.168  17.004   7.203
 3408POPC   C1B46423  34.072  16.665   6.248
 3408POPC   C2B46424  34.257  16.724   6.674
 3408POPC   C3B46425  34.310  16.755   7.134
 3408POPC   C4B46426  34.054  16.743   7.551
 3409POPC   NC346427  10.331  33.411   5.605
 3409POPC   PO446428  10.755  32.933   5.622
 3409POPC   GL146429  10.577  33.000   5.968
 3409POPC   GL246430  10.504  32.634   6.015
 3409POPC   C1A46431  10.757  33.210   6.333
 3409POPC   D2A46432  10.701  33.446   6.737
 3409POPC   C3A46433  10.737  33.201   7.148
 3409POPC   C4A46434  10.520  33.066   7.560
 3409POPC   C1B46435  10.851  32.698   6.310
 3409POPC   C2B46436  10.744  32.867   6.731
 3409POPC   C3B46437  10.510  32.742   7.118
 3409POPC   C4B46438  10.851  32.698   7.414
 3410POPC   NC346439  10.060  21.343   5.559
 3410POPC   PO446440   9.417  21.057   5.466
 3410POPC   GL146441   9.697  20.996   5.865
 3410POPC   GL246442   9.880  21.277   6.015
 3410POPC   C1A46443   9.649  20.971   6.334
 3410POPC   D2A46444   9.861  21.144   6.701
 3410POPC   C3A46445   9.521  21.249   6.976
 3410POPC   C4A46446   9.547  21.312   7.397
 3410POPC   C1B46447  10.055  21.620   6.256
 3410POPC   C2B46448  10.127  21.583   6.709
 3410POPC   C3B46449   9.839  21.638   7.063
 3410POPC   C4B46450   9.918  21.784   7.488
 3411POPC   NC346451   8.913  14.320   5.392
 3411POPC   PO446452   9.116  14.965   5.510
 3411POPC   GL146453   9.104  14.615   5.826
 3411POPC   GL246454   8.787  14.440   5.868
 3411POPC   C1A46455   9.087  14.428   6.279
 3411POPC   D2A46456   9.275  14.128   6.605
 3411POPC   C3A46457   9.117  14.247   7.012
 3411POPC   C4A46458   9.133  14.665   7.167
 3411POPC   C1B46459   8.546  14.626   6.197
 3411POPC   C2B46460   8.518  14.474   6.618
 3411POPC   C3B46461   8.631  14.663   6.989
 3411POPC   C4B46462   8.374  14.858   7.305
 3412POPC   NC346463  15.357  29.534   5.564
 3412POPC   PO446464  14.885  30.035   5.361
 3412POPC   GL146465  15.188  29.993   5.739
 3412POPC   GL246466  14.936  29.782   5.837
 3412POPC   C1A46467  15.336  29.768   6.144
 3412POPC   D2A46468  15.231  29.934   6.498
 3412POPC   C3A46469  15.331  29.752   6.859
 3412POPC   C4A46470  15.351  29.840   7.312
 3412POPC   C1B46471  14.778  29.824   6.253
 3412POPC   C2B46472  14.814  29.778   6.709
 3412POPC   C3B46473  14.917  30.003   7.098
 3412POPC   C4B46474  14.879  29.869   7.553
 3413POPC   NC346475  33.207   2.470   5.450
 3413POPC   PO446476  33.004   3.141   5.364
 3413POPC   GL146477  32.994   2.916   5.764
 3413POPC   GL246478  32.833   2.576   5.791
 3413POPC   C1A46479  33.225   2.936   6.167
 3413POPC   D2A46480  33.299   2.763   6.584
 3413POPC   C3A46481  33.135   2.907   6.966
 3413POPC   C4A46482  33.016   2.760   7.352
 3413POPC   C1B46483  32.746   2.773   6.212
 3413POPC   C2B46484  32.770   2.647   6.670
 3413POPC   C3B46485  32.690   2.445   7.100
 3413POPC   C4B46486  32.706   2.433   7.607
 3414POPC   NC346487  12.337  44.890   5.458
 3414POPC   PO446488  12.024  44.306   5.316
 3414POPC   GL146489  12.025  44.469   5.757
 3414POPC   GL246490  12.034  44.807   5.852
 3414POPC   C1A46491  11.905  44.491   6.203
 3414POPC   D2A46492  12.019  44.702   6.595
 3414POPC   C3A46493  11.993  44.504   7.012
 3414POPC   C4A46494  12.136  44.374   7.456
 3414POPC   C1B46495  11.985   0.053   6.220
 3414POPC   C2B46496  11.708   0.136   6.561
 3414POPC   C3B46497  11.717  44.964   6.964
 3414POPC   C4B46498  11.911  44.977   7.378
 3415POPC   NC346499  43.693  24.177   5.343
 3415POPC   PO446500  43.865  24.811   5.581
 3415POPC   GL146501  43.875  24.568   5.924
 3415POPC   GL246502  43.892  24.246   5.829
 3415POPC   C1A46503  43.856  24.574   6.370
 3415POPC   D2A46504  43.619  24.602   6.768
 3415POPC   C3A46505  43.897  24.669   7.139
 3415POPC   C4A46506  44.094  24.415   7.457
 3415POPC   C1B46507  43.693  24.113   6.190
 3415POPC   C2B46508  43.858  24.095   6.600
 3415POPC   C3B46509  43.799  24.185   7.034
 3415POPC   C4B46510  43.622  24.256   7.428
 3416POPC   NC346511  30.118  43.461   5.296
 3416POPC   PO446512  30.146  44.118   5.229
 3416POPC   GL146513  30.103  43.940   5.680
 3416POPC   GL246514  29.902  43.648   5.723
 3416POPC   C1A46515  29.807  43.999   6.079
 3416POPC   D2A46516  29.628  44.063   6.507
 3416POPC   C3A46517  29.893  43.849   6.813
 3416POPC   C4A46518  29.862  43.803   7.240
 3416POPC   C1B46519  30.169  43.622   6.134
 3416POPC   C2B46520  30.308  43.684   6.577
 3416POPC   C3B46521  30.224  43.462   7.003
 3416POPC   C4B46522  30.143  43.394   7.475
 3417POPC   NC346523   6.985  36.797   5.404
 3417POPC   PO446524   6.491  36.478   5.358
 3417POPC   GL146525   6.533  36.559   5.810
 3417POPC   GL246526   6.801  36.805   5.895
 3417POPC   C1A46527   6.362  36.601   6.246
 3417POPC   D2A46528   6.441  36.918   6.591
 3417POPC   C3A46529   6.373  36.835   7.027
 3417POPC   C4A46530   6.582  37.020   7.368
 3417POPC   C1B46531   7.150  36.864   6.211
 3417POPC   C2B46532   7.222  36.699   6.619
 3417POPC   C3B46533   6.931  36.897   6.915
 3417POPC   C4B46534   7.065  37.133   7.279
 3418POPC   NC346535  19.119  10.862   5.267
 3418POPC   PO446536  19.270  10.236   5.517
 3418POPC   GL146537  19.065  10.585   5.748
 3418POPC   GL246538  18.859  10.887   5.727
 3418POPC   C1A46539  19.152  10.621   6.189
 3418POPC   D2A46540  19.124  10.284   6.509
 3418POPC   C3A46541  19.106  10.417   6.955
 3418POPC   C4A46542  18.818  10.378   7.306
 3418POPC   C1B46543  18.729  10.908   6.184
 3418POPC   C2B46544  18.788  10.679   6.614
 3418POPC   C3B46545  18.783  10.838   7.082
 3418POPC   C4B46546  18.591  10.807   7.490
 3419POPC   NC346547  25.319  16.822   5.378
 3419POPC   PO446548  24.815  16.486   5.505
 3419POPC   GL146549  25.010  16.722   5.863
 3419POPC   GL246550  25.385  16.624   5.868
 3419POPC   C1A46551  24.969  16.890   6.323
 3419POPC   D2A46552  25.289  17.055   6.642
 3419POPC   C3A46553  25.441  16.886   7.029
 3419POPC   C4A46554  25.246  16.727   7.369
 3419POPC   C1B46555  25.222  16.451   6.292
 3419POPC   C2B46556  25.095  16.538   6.744
 3419POPC   C3B46557  25.191  16.286   7.149
 3419POPC   C4B46558  25.331  16.301   7.622
 3420POPC   NC346559  14.912  21.628   5.249
 3420POPC   PO446560  15.345  21.281   5.435
 3420POPC   GL146561  15.083  21.465   5.767
 3420POPC   GL246562  14.791  21.701   5.730
 3420POPC   C1A46563  15.033  21.382   6.204
 3420POPC   D2A46564  15.297  21.292   6.534
 3420POPC   C3A46565  15.159  21.155   6.923
 3420POPC   C4A46566  15.246  21.430   7.259
 3420POPC   C1B46567  14.824  21.846   6.134
 3420POPC   C2B46568  14.695  21.664   6.526
 3420POPC   C3B46569  14.910  21.605   6.906
 3420POPC   C4B46570  14.962  21.858   7.261
 3421POPC   NC346571  44.642  11.326   5.488
 3421POPC   PO446572  44.136  10.981   5.545
 3421POPC   GL146573  44.377  11.161   5.906
 3421POPC   GL246574  44.428  11.518   6.012
 3421POPC   C1A46575  44.709  11.139   6.234
 3421POPC   D2A46576  44.919  11.128   6.659
 3421POPC   C3A46577  44.662  11.137   7.051
 3421POPC   C4A46578  44.563  10.906   7.454
 3421POPC   C1B46579  44.743  11.642   6.363
 3421POPC   C2B46580  44.833  11.610   6.829
 3421POPC   C3B46581  44.514  11.621   7.186
 3421POPC   C4B46582  44.552  11.818   7.606
 3422POPC   NC346583   6.243  43.879   5.677
 3422POPC   PO446584   6.835  43.573   5.395
 3422POPC   GL146585   6.752  43.764   5.801
 3422POPC   GL246586   6.833  44.129   5.867
 3422POPC   C1A46587   6.700  43.637   6.233
 3422POPC   D2A46588   6.855  43.750   6.632
 3422POPC   C3A46589   6.774  43.570   7.004
 3422POPC   C4A46590   6.512  43.723   7.303
 3422POPC   C1B46591   6.658  44.139   6.309
 3422POPC   C2B46592   6.449  44.127   6.689
 3422POPC   C3B46593   6.653  44.158   7.077
 3422POPC   C4B46594   6.653  44.406   7.455
 3423POPC   NC346595  10.680   3.402   5.491
 3423POPC   PO446596  10.158   3.793   5.419
 3423POPC   GL146597  10.451   3.849   5.754
 3423POPC   GL246598  10.171   4.008   5.890
 3423POPC   C1A46599  10.648   3.632   6.141
 3423POPC   D2A46600  10.468   3.342   6.464
 3423POPC   C3A46601  10.614   3.339   6.895
 3423POPC   C4A46602  10.661   3.667   7.176
 3423POPC   C1B46603  10.132   3.591   6.110
 3423POPC   C2B46604   9.974   3.500   6.527
 3423POPC   C3B46605  10.162   3.598   6.919
 3423POPC   C4B46606  10.262   3.414   7.315
 3424POPC   NC346607  38.982   2.635   5.315
 3424POPC   PO446608  39.114   3.198   5.268
 3424POPC   GL146609  39.076   2.921   5.729
 3424POPC   GL246610  38.827   3.028   5.987
 3424POPC   C1A46611  39.263   2.824   6.168
 3424POPC   D2A46612  39.259   2.636   6.577
 3424POPC   C3A46613  39.526   2.859   6.868
 3424POPC   C4A46614  39.702   2.735   7.247
 3424POPC   C1B46615  38.885   2.530   5.985
 3424POPC   C2B46616  38.861   2.296   6.361
 3424POPC   C3B46617  38.843   2.351   6.814
 3424POPC   C4B46618  39.051   2.723   7.051
 3425POPC   NC346619  22.368   9.473   5.026
 3425POPC   PO446620  21.881   9.705   5.482
 3425POPC   GL146621  22.062   9.535   5.849
 3425POPC   GL246622  21.735   9.574   6.003
 3425POPC   C1A46623  22.114   9.455   6.309
 3425POPC   D2A46624  22.176   9.665   6.685
 3425POPC   C3A46625  22.154   9.467   7.070
 3425POPC   C4A46626  22.119   9.364   7.491
 3425POPC   C1B46627  21.777   9.904   6.330
 3425POPC   C2B46628  21.894  10.092   6.712
 3425POPC   C3B46629  22.000   9.991   7.098
 3425POPC   C4B46630  21.785  10.145   7.430
 3426POPC   NC346631   7.064  40.255   5.401
 3426POPC   PO446632   6.332  40.273   5.477
 3426POPC   GL146633   6.671  40.210   5.775
 3426POPC   GL246634   6.404  40.049   5.932
 3426POPC   C1A46635   6.749  40.340   6.234
 3426POPC   D2A46636   6.538  40.287   6.656
 3426POPC   C3A46637   6.840  40.187   7.030
 3426POPC   C4A46638   7.103  39.910   7.317
 3426POPC   C1B46639   6.303  39.902   6.320
 3426POPC   C2B46640   6.099  39.917   6.704
 3426POPC   C3B46641   6.224  40.194   7.059
 3426POPC   C4B46642   6.497  40.260   7.405
 3427POPC   NC346643  37.264  34.850   5.376
 3427POPC   PO446644  36.786  34.382   5.282
 3427POPC   GL146645  36.925  34.574   5.664
 3427POPC   GL246646  37.138  34.364   5.828
 3427POPC   C1A46647  37.039  34.833   6.043
 3427POPC   D2A46648  36.856  35.091   6.382
 3427POPC   C3A46649  36.886  34.934   6.826
 3427POPC   C4A46650  36.831  34.694   7.213
 3427POPC   C1B46651  37.000  34.371   6.273
 3427POPC   C2B46652  37.017  34.409   6.734
 3427POPC   C3B46653  36.959  34.184   7.132
 3427POPC   C4B46654  37.035  33.887   7.479
 3428POPC   NC346655  33.034  11.462   5.387
 3428POPC   PO446656  32.969  10.830   5.432
 3428POPC   GL146657  33.010  11.108   5.761
 3428POPC   GL246658  33.332  11.061   5.876
 3428POPC   C1A46659  32.842  11.180   6.194
 3428POPC   D2A46660  33.035  11.347   6.606
 3428POPC   C3A46661  32.874  11.423   7.037
 3428POPC   C4A46662  33.033  11.513   7.471
 3428POPC   C1B46663  33.273  10.940   6.302
 3428POPC   C2B46664  33.323  10.782   6.705
 3428POPC   C3B46665  33.173  11.019   7.057
 3428POPC   C4B46666  32.847  11.026   7.405
 3429POPC   NC346667  16.469   1.461   5.445
 3429POPC   PO446668  17.040   1.381   5.204
 3429POPC   GL146669  16.838   1.185   5.699
 3429POPC   GL246670  16.503   1.117   5.801
 3429POPC   C1A46671  16.741   1.361   6.175
 3429POPC   D2A46672  16.601   1.214   6.576
 3429POPC   C3A46673  16.691   1.430   6.956
 3429POPC   C4A46674  16.873   1.387   7.390
 3429POPC   C1B46675  16.312   0.989   6.203
 3429POPC   C2B46676  16.095   0.933   6.604
 3429POPC   C3B46677  16.291   1.097   6.970
 3429POPC   C4B46678  16.431   1.150   7.390
 3430POPC   NC346679  39.215  25.585   5.489
 3430POPC   PO446680  39.171  24.948   5.339
 3430POPC   GL146681  39.367  25.126   5.720
 3430POPC   GL246682  39.122  25.335   5.916
 3430POPC   C1A46683  39.468  25.056   6.156
 3430POPC   D2A46684  39.223  25.215   6.499
 3430POPC   C3A46685  39.352  25.167   6.947
 3430POPC   C4A46686  39.178  25.434   7.323
 3430POPC   C1B46687  39.450  25.574   6.139
 3430POPC   C2B46688  39.471  25.768   6.526
 3430POPC   C3B46689  39.455  25.650   6.934
 3430POPC   C4B46690  39.700  25.633   7.319
 3431POPC   NC346691  15.166  20.847   5.433
 3431POPC   PO446692  15.031  20.211   5.667
 3431POPC   GL146693  15.252  20.534   5.857
 3431POPC   GL246694  15.084  20.854   5.951
 3431POPC   C1A46695  15.374  20.503   6.256
 3431POPC   D2A46696  15.330  20.776   6.581
 3431POPC   C3A46697  15.259  20.572   6.929
 3431POPC   C4A46698  15.008  20.363   7.178
 3431POPC   C1B46699  15.490  21.013   6.138
 3431POPC   C2B46700  15.759  21.048   6.523
 3431POPC   C3B46701  15.678  20.910   6.953
 3431POPC   C4B46702  15.368  20.900   7.302
 3432POPC   NC346703  24.212  42.798   5.411
 3432POPC   PO446704  24.514  42.296   5.016
 3432POPC   GL146705  24.493  42.339   5.575
 3432POPC   GL246706  24.300  42.553   5.841
 3432POPC   C1A46707  24.290  42.089   5.998
 3432POPC   D2A46708  24.148  42.260   6.440
 3432POPC   C3A46709  24.266  42.184   6.888
 3432POPC   C4A46710  24.199  42.355   7.284
 3432POPC   C1B46711  24.573  42.458   6.212
 3432POPC   C2B46712  24.618  42.479   6.670
 3432POPC   C3B46713  24.491  42.683   7.035
 3432POPC   C4B46714  24.550  42.691   7.492
 3433POPC   NC346715  44.369  26.705   5.401
 3433POPC   PO446716   0.025  26.615   5.193
 3433POPC   GL146717  44.884  26.665   5.686
 3433POPC   GL246718  44.720  26.967   5.795
 3433POPC   C1A46719  44.913  26.657   6.166
 3433POPC   D2A46720  44.769  26.524   6.608
 3433POPC   C3A46721  44.930  26.703   7.003
 3433POPC   C4A46722  44.826  26.724   7.463
 3433POPC   C1B46723  44.517  27.078   6.221
 3433POPC   C2B46724  44.559  27.024   6.694
 3433POPC   C3B46725  44.528  27.031   7.162
 3433POPC   C4B46726  44.482  27.190   7.626
 3434POPC   NC346727  25.425   1.391   5.478
 3434POPC   PO446728  25.229   0.816   5.163
 3434POPC   GL146729  25.163   0.973   5.661
 3434POPC   GL246730  25.057   1.344   5.801
 3434POPC   C1A46731  25.086   0.950   6.123
 3434POPC   D2A46732  25.371   0.956   6.486
 3434POPC   C3A46733  25.304   1.083   6.922
 3434POPC   C4A46734  25.081   1.007   7.342
 3434POPC   C1B46735  25.396   1.372   6.125
 3434POPC   C2B46736  25.468   1.540   6.507
 3434POPC   C3B46737  25.206   1.611   6.822
 3434POPC   C4B46738  25.312   1.481   7.235
 3435POPC   NC346739  16.364  26.566   5.397
 3435POPC   PO446740  16.853  27.034   5.269
 3435POPC   GL146741  16.679  27.046   5.686
 3435POPC   GL246742  16.997  26.900   5.836
 3435POPC   C1A46743  16.445  26.857   6.058
 3435POPC   D2A46744  16.597  26.848   6.511
 3435POPC   C3A46745  16.404  26.697   6.908
 3435POPC   C4A46746  16.560  26.747   7.337
 3435POPC   C1B46747  17.139  26.673   6.216
 3435POPC   C2B46748  17.028  26.551   6.638
 3435POPC   C3B46749  16.927  26.531   7.065
 3435POPC   C4B46750  16.925  26.141   7.268
 3436POPC   NC346751  41.463  10.255   5.511
 3436POPC   PO446752  41.945  10.678   5.350
 3436POPC   GL146753  41.762  10.603   5.745
 3436POPC   GL246754  41.427  10.742   5.727
 3436POPC   C1A46755  41.662  10.434   6.157
 3436POPC   D2A46756  41.747  10.636   6.557
 3436POPC   C3A46757  41.679  10.366   6.864
 3436POPC   C4A46758  41.498  10.394   7.235
 3436POPC   C1B46759  41.554  10.927   6.125
 3436POPC   C2B46760  41.408  11.011   6.540
 3436POPC   C3B46761  41.414  10.810   6.950
 3436POPC   C4B46762  41.356  10.839   7.412
 3437POPC   NC346763  20.262   7.661   5.714
 3437POPC   PO446764  20.728   7.291   5.442
 3437POPC   GL146765  20.690   7.382   5.860
 3437POPC   GL246766  20.382   7.205   5.908
 3437POPC   C1A46767  20.828   7.383   6.288
 3437POPC   D2A46768  20.658   7.665   6.641
 3437POPC   C3A46769  20.798   7.532   7.020
 3437POPC   C4A46770  20.679   7.640   7.454
 3437POPC   C1B46771  20.327   7.383   6.340
 3437POPC   C2B46772  20.436   7.205   6.745
 3437POPC   C3B46773  20.480   7.176   7.187
 3437POPC   C4B46774  20.223   6.914   7.513
 3438POPC   NC346775   8.616  32.148   5.436
 3438POPC   PO446776   9.202  32.471   5.424
 3438POPC   GL146777   8.992  32.313   5.792
 3438POPC   GL246778   8.965  31.971   5.812
 3438POPC   C1A46779   8.952  32.186   6.256
 3438POPC   D2A46780   9.167  32.140   6.650
 3438POPC   C3A46781   8.986  32.264   7.051
 3438POPC   C4A46782   8.708  32.193   7.422
 3438POPC   C1B46783   9.265  31.784   6.129
 3438POPC   C2B46784   9.418  31.716   6.556
 3438POPC   C3B46785   9.341  31.842   7.020
 3438POPC   C4B46786   9.156  31.821   7.459
 3439POPC   NC346787   9.333  32.911   5.509
 3439POPC   PO446788  10.002  33.071   5.511
 3439POPC   GL146789   9.791  32.793   5.804
 3439POPC   GL246790   9.982  32.546   6.020
 3439POPC   C1A46791   9.627  32.882   6.219
 3439POPC   D2A46792   9.810  32.905   6.649
 3439POPC   C3A46793   9.549  32.995   7.011
 3439POPC   C4A46794   9.617  33.003   7.424
 3439POPC   C1B46795  10.131  32.941   6.192
 3439POPC   C2B46796  10.296  33.147   6.539
 3439POPC   C3B46797  10.119  33.350   6.859
 3439POPC   C4B46798  10.056  33.083   7.180
 3440POPC   NC346799   7.328  34.433   5.220
 3440POPC   PO446800   8.000  34.533   5.287
 3440POPC   GL146801   7.650  34.511   5.701
 3440POPC   GL246802   7.245  34.495   5.754
 3440POPC   C1A46803   7.482  34.530   6.178
 3440POPC   D2A46804   7.623  34.682   6.574
 3440POPC   C3A46805   7.474  34.491   6.940
 3440POPC   C4A46806   7.639  34.621   7.382
 3440POPC   C1B46807   7.060  34.789   6.104
 3440POPC   C2B46808   7.105  34.644   6.541
 3440POPC   C3B46809   7.117  34.854   6.915
 3440POPC   C4B46810   6.864  34.801   7.219
 3441POPC   NC346811   8.147  35.706   5.405
 3441POPC   PO446812   8.585  35.292   5.393
 3441POPC   GL146813   8.341  35.170   5.799
 3441POPC   GL246814   8.128  35.440   5.835
 3441POPC   C1A46815   8.204  35.093   6.221
 3441POPC   D2A46816   7.927  35.101   6.551
 3441POPC   C3A46817   8.212  35.075   6.844
 3441POPC   C4A46818   8.422  35.301   7.100
 3441POPC   C1B46819   7.896  35.498   6.199
 3441POPC   C2B46820   7.766  35.591   6.614
 3441POPC   C3B46821   7.911  35.454   7.007
 3441POPC   C4B46822   7.828  35.470   7.435
 3442POPC   NC346823   1.889  21.564   5.324
 3442POPC   PO446824   1.745  20.866   5.365
 3442POPC   GL146825   1.916  21.153   5.735
 3442POPC   GL246826   1.732  21.493   5.804
 3442POPC   C1A46827   2.053  21.314   6.191
 3442POPC   D2A46828   2.256  21.259   6.610
 3442POPC   C3A46829   2.000  21.315   6.984
 3442POPC   C4A46830   1.835  21.099   7.388
 3442POPC   C1B46831   1.678  21.703   6.223
 3442POPC   C2B46832   1.916  21.738   6.614
 3442POPC   C3B46833   1.957  21.870   7.034
 3442POPC   C4B46834   2.032  21.622   7.376
 3443POPC   NC346835  15.737   3.032   5.306
 3443POPC   PO446836  16.206   2.592   5.414
 3443POPC   GL146837  16.049   2.592   5.837
 3443POPC   GL246838  15.835   2.860   5.803
 3443POPC   C1A46839  16.067   2.450   6.261
 3443POPC   D2A46840  16.111   2.738   6.623
 3443POPC   C3A46841  16.043   2.510   6.990
 3443POPC   C4A46842  15.865   2.426   7.408
 3443POPC   C1B46843  15.689   2.839   6.241
 3443POPC   C2B46844  15.594   3.003   6.662
 3443POPC   C3B46845  15.644   2.799   7.089
 3443POPC   C4B46846  15.479   2.787   7.533
 3444POPC   NC346847  24.979  32.069   5.537
 3444POPC   PO446848  25.531  32.389   5.455
 3444POPC   GL146849  25.362  32.270   5.832
 3444POPC   GL246850  25.629  32.347   5.977
 3444POPC   C1A46851  25.429  31.999   6.267
 3444POPC   D2A46852  25.522  31.967   6.715
 3444POPC   C3A46853  25.309  32.292   6.902
 3444POPC   C4A46854  25.168  32.332   7.301
 3444POPC   C1B46855  25.242  32.500   6.249
 3444POPC   C2B46856  25.207  32.736   6.606
 3444POPC   C3B46857  25.378  32.818   6.967
 3444POPC   C4B46858  25.509  32.714   7.359
 3445POPC   NC346859  29.755   4.645   5.575
 3445POPC   PO446860  29.762   3.994   5.375
 3445POPC   GL146861  29.870   4.155   5.756
 3445POPC   GL246862  30.193   4.349   5.699
 3445POPC   C1A46863  29.646   4.185   6.147
 3445POPC   D2A46864  29.656   4.545   6.397
 3445POPC   C3A46865  29.675   4.540   6.829
 3445POPC   C4A46866  29.555   4.665   7.222
 3445POPC   C1B46867  30.093   4.426   6.143
 3445POPC   C2B46868  30.059   4.243   6.575
 3445POPC   C3B46869  30.124   4.386   7.020
 3445POPC   C4B46870  30.147   4.655   7.364
 3446POPC   NC346871  15.372  24.264   5.318
 3446POPC   PO446872  15.175  24.853   5.379
 3446POPC   GL146873  15.146  24.510   5.699
 3446POPC   GL246874  15.348  24.634   5.835
 3446POPC   C1A46875  15.157  24.311   6.160
 3446POPC   D2A46876  14.987  24.380   6.593
 3446POPC   C3A46877  15.247  24.404   6.971
 3446POPC   C4A46878  15.182  24.356   7.430
 3446POPC   C1B46879  15.056  24.824   6.152
 3446POPC   C2B46880  15.083  24.906   6.608
 3446POPC   C3B46881  14.937  24.792   7.049
 3446POPC   C4B46882  14.795  24.688   7.465
 3447POPC   NC346883  18.333  35.476   5.214
 3447POPC   PO446884  18.492  34.983   5.553
 3447POPC   GL146885  18.278  35.280   5.789
 3447POPC   GL246886  18.013  35.526   5.798
 3447POPC   C1A46887  18.258  35.307   6.227
 3447POPC   D2A46888  18.029  35.110   6.542
 3447POPC   C3A46889  18.189  35.066   6.948
 3447POPC   C4A46890  18.005  34.771   7.226
 3447POPC   C1B46891  18.014  35.770   6.170
 3447POPC   C2B46892  18.155  35.836   6.594
 3447POPC   C3B46893  18.154  35.882   7.045
 3447POPC   C4B46894  18.389  35.583   7.266
 3448POPC   NC346895  20.222  23.080   5.269
 3448POPC   PO446896  20.244  22.662   5.666
 3448POPC   GL146897  20.489  22.859   6.008
 3448POPC   GL246898  20.798  23.040   5.889
 3448POPC   C1A46899  20.438  22.830   6.471
 3448POPC   D2A46900  20.380  22.677   6.894
 3448POPC   C3A46901  20.200  23.013   7.067
 3448POPC   C4A46902  20.342  23.409   7.259
 3448POPC   C1B46903  20.901  23.017   6.357
 3448POPC   C2B46904  20.883  22.754   6.750
 3448POPC   C3B46905  20.989  22.808   7.184
 3448POPC   C4B46906  21.225  22.835   7.570
 3449POPC   NC346907  25.142  26.684   5.376
 3449POPC   PO446908  25.788  26.818   5.569
 3449POPC   GL146909  25.471  26.668   5.767
 3449POPC   GL246910  25.323  27.010   5.758
 3449POPC   C1A46911  25.290  26.646   6.153
 3449POPC   D2A46912  25.425  26.735   6.543
 3449POPC   C3A46913  25.114  26.813   6.811
 3449POPC   C4A46914  25.194  26.690   7.206
 3449POPC   C1B46915  25.541  27.098   6.170
 3449POPC   C2B46916  25.465  27.246   6.630
 3449POPC   C3B46917  25.407  27.149   7.082
 3449POPC   C4B46918  25.741  27.102   7.403
 3450POPC   NC346919  16.476  34.875   5.465
 3450POPC   PO446920  16.806  35.537   5.424
 3450POPC   GL146921  16.675  35.341   5.765
 3450POPC   GL246922  16.336  35.270   5.761
 3450POPC   C1A46923  16.609  35.520   6.147
 3450POPC   D2A46924  16.805  35.693   6.486
 3450POPC   C3A46925  16.651  35.519   6.866
 3450POPC   C4A46926  16.544  35.498   7.282
 3450POPC   C1B46927  16.458  35.024   6.128
 3450POPC   C2B46928  16.527  35.140   6.544
 3450POPC   C3B46929  16.431  35.069   6.994
 3450POPC   C4B46930  16.688  35.001   7.402
 3451POPC   NC346931   9.361  26.878   5.508
 3451POPC   PO446932   9.998  26.654   5.597
 3451POPC   GL146933   9.787  26.872   5.910
 3451POPC   GL246934   9.469  27.030   5.977
 3451POPC   C1A46935   9.876  27.155   6.251
 3451POPC   D2A46936   9.657  27.210   6.615
 3451POPC   C3A46937   9.723  26.827   6.823
 3451POPC   C4A46938   9.901  26.692   7.184
 3451POPC   C1B46939   9.474  26.745   6.355
 3451POPC   C2B46940   9.250  26.648   6.759
 3451POPC   C3B46941   9.354  26.758   7.223
 3451POPC   C4B46942   9.229  26.656   7.682
 3452POPC   NC346943  29.390   7.276   5.418
 3452POPC   PO446944  28.770   7.520   5.371
 3452POPC   GL146945  28.848   7.185   5.717
 3452POPC   GL246946  29.213   7.202   5.901
 3452POPC   C1A46947  28.774   7.257   6.171
 3452POPC   D2A46948  28.910   7.613   6.446
 3452POPC   C3A46949  29.041   7.403   6.819
 3452POPC   C4A46950  29.012   7.226   7.217
 3452POPC   C1B46951  29.544   7.025   6.228
 3452POPC   C2B46952  29.675   6.990   6.690
 3452POPC   C3B46953  29.517   7.239   7.027
 3452POPC   C4B46954  29.362   7.651   7.125
 3453POPC   NC346955  38.641   6.070   5.429
 3453POPC   PO446956  38.341   5.500   5.412
 3453POPC   GL146957  38.266   5.570   5.831
 3453POPC   GL246958  38.195   5.915   5.858
 3453POPC   C1A46959  38.432   5.594   6.252
 3453POPC   D2A46960  38.672   5.456   6.584
 3453POPC   C3A46961  38.496   5.542   6.937
 3453POPC   C4A46962  38.344   5.815   7.228
 3453POPC   C1B46963  38.310   6.098   6.277
 3453POPC   C2B46964  38.511   6.050   6.707
 3453POPC   C3B46965  38.360   6.298   7.079
 3453POPC   C4B46966  38.333   6.231   7.559
 3454POPC   NC346967  11.534  35.430   5.457
 3454POPC   PO446968  10.870  35.646   5.497
 3454POPC   GL146969  10.897  35.498   5.915
 3454POPC   GL246970  11.234  35.436   5.883
 3454POPC   C1A46971  11.031  35.170   6.258
 3454POPC   D2A46972  11.333  35.213   6.615
 3454POPC   C3A46973  11.212  35.222   7.034
 3454POPC   C4A46974  10.796  35.213   7.170
 3454POPC   C1B46975  11.486  35.566   6.248
 3454POPC   C2B46976  11.652  35.587   6.681
 3454POPC   C3B46977  11.555  35.625   7.100
 3454POPC   C4B46978  11.556  35.711   7.514
 3455POPC   NC346979   4.950   7.655   5.405
 3455POPC   PO446980   5.354   7.138   5.599
 3455POPC   GL146981   5.137   7.452   5.828
 3455POPC   GL246982   4.864   7.298   5.883
 3455POPC   C1A46983   5.103   7.706   6.194
 3455POPC   D2A46984   5.235   7.547   6.608
 3455POPC   C3A46985   5.016   7.507   6.993
 3455POPC   C4A46986   5.045   7.263   7.365
 3455POPC   C1B46987   4.671   7.109   6.213
 3455POPC   C2B46988   4.709   7.281   6.613
 3455POPC   C3B46989   4.671   7.118   7.023
 3455POPC   C4B46990   4.426   6.953   7.391
 3456POPC   NC346991  31.911   3.034   5.158
 3456POPC   PO446992  31.522   3.639   5.273
 3456POPC   GL146993  31.547   3.741   5.770
 3456POPC   GL246994  31.724   3.452   5.910
 3456POPC   C1A46995  31.600   3.813   6.274
 3456POPC   D2A46996  31.441   4.036   6.696
 3456POPC   C3A46997  31.408   3.720   7.070
 3456POPC   C4A46998  31.189   3.324   7.230
 3456POPC   C1B46999  31.927   3.325   6.291
 3456POPC   C2B47000  31.758   3.343   6.697
 3456POPC   C3B47001  31.726   3.263   7.130
 3456POPC   C4B47002  31.830   3.029   7.541
 3457POPC   NC347003  31.660  11.403   5.547
 3457POPC   PO447004  31.108  11.749   5.390
 3457POPC   GL147005  31.192  11.536   5.776
 3457POPC   GL247006  31.152  11.165   5.689
 3457POPC   C1A47007  31.444  11.643   6.201
 3457POPC   D2A47008  31.707  11.330   6.413
 3457POPC   C3A47009  31.678  11.348   6.870
 3457POPC   C4A47010  31.606  11.300   7.298
 3457POPC   C1B47011  31.223  11.190   6.150
 3457POPC   C2B47012  31.221  11.361   6.572
 3457POPC   C3B47013  31.194  11.204   6.971
 3457POPC   C4B47014  31.118  11.304   7.379
 3458POPC   NC347015   1.746  24.061   5.131
 3458POPC   PO447016   1.599  24.641   5.473
 3458POPC   GL147017   1.746  24.553   5.910
 3458POPC   GL247018   2.108  24.518   5.909
 3458POPC   C1A47019   1.770  24.470   6.366
 3458POPC   D2A47020   1.753  24.533   6.806
 3458POPC   C3A47021   1.671  24.239   7.159
 3458POPC   C4A47022   1.926  24.305   7.571
 3458POPC   C1B47023   2.252  24.618   6.328
 3458POPC   C2B47024   2.268  24.327   6.693
 3458POPC   C3B47025   2.158  24.351   7.116
 3458POPC   C4B47026   2.159  24.735   7.403
 3459POPC   NC347027  11.410  16.423   5.513
 3459POPC   PO447028  11.102  15.839   5.615
 3459POPC   GL147029  11.273  16.163   5.962
 3459POPC   GL247030  11.565  16.436   5.986
 3459POPC   C1A47031  11.135  16.112   6.421
 3459POPC   D2A47032  11.145  15.791   6.781
 3459POPC   C3A47033  11.092  16.011   7.168
 3459POPC   C4A47034  10.967  16.113   7.586
 3459POPC   C1B47035  11.652  16.244   6.349
 3459POPC   C2B47036  11.543  16.139   6.758
 3459POPC   C3B47037  11.611  15.909   7.092
 3459POPC   C4B47038  11.758  15.545   7.270
 3460POPC   NC347039  12.108  21.742   5.297
 3460POPC   PO447040  12.312  21.138   5.390
 3460POPC   GL147041  12.149  21.337   5.791
 3460POPC   GL247042  11.984  21.666   5.790
 3460POPC   C1A47043  12.265  21.539   6.212
 3460POPC   D2A47044  12.350  21.581   6.675
 3460POPC   C3A47045  12.238  21.233   6.978
 3460POPC   C4A47046  12.210  21.277   7.428
 3460POPC   C1B47047  11.737  21.464   6.118
 3460POPC   C2B47048  11.608  21.225   6.474
 3460POPC   C3B47049  11.699  21.247   6.914
 3460POPC   C4B47050  11.745  21.436   7.293
 3461POPC   NC347051  35.877  29.744   5.520
 3461POPC   PO447052  36.363  30.037   5.188
 3461POPC   GL147053  36.091  30.154   5.702
 3461POPC   GL247054  36.028  29.831   5.981
 3461POPC   C1A47055  36.139  30.265   6.205
 3461POPC   D2A47056  36.036  29.994   6.612
 3461POPC   C3A47057  36.296  29.961   7.012
 3461POPC   C4A47058  36.206  30.076   7.453
 3461POPC   C1B47059  35.857  29.588   6.351
 3461POPC   C2B47060  35.892  29.470   6.784
 3461POPC   C3B47061  35.885  29.675   7.171
 3461POPC   C4B47062  35.910  29.631   7.643
 3462POPC   NC347063   3.846  10.738   5.528
 3462POPC   PO447064   3.273  10.784   5.566
 3462POPC   GL147065   3.450  11.099   5.846
 3462POPC   GL247066   3.794  11.173   5.843
 3462POPC   C1A47067   3.395  11.260   6.271
 3462POPC   D2A47068   3.297  11.017   6.660
 3462POPC   C3A47069   3.428  11.179   7.088
 3462POPC   C4A47070   3.574  11.345   7.509
 3462POPC   C1B47071   3.903  11.173   6.301
 3462POPC   C2B47072   3.832  11.122   6.750
 3462POPC   C3B47073   3.945  11.190   7.183
 3462POPC   C4B47074   3.988  10.988   7.604
 3463POPC   NC347075  29.328  28.970   5.381
 3463POPC   PO447076  28.721  29.159   5.183
 3463POPC   GL147077  28.892  29.249   5.617
 3463POPC   GL247078  29.241  29.222   5.800
 3463POPC   C1A47079  28.786  29.148   6.055
 3463POPC   D2A47080  29.076  29.207   6.408
 3463POPC   C3A47081  28.922  29.094   6.805
 3463POPC   C4A47082  28.957  29.166   7.224
 3463POPC   C1B47083  29.411  29.491   6.124
 3463POPC   C2B47084  29.293  29.680   6.535
 3463POPC   C3B47085  29.237  29.504   6.951
 3463POPC   C4B47086  29.476  29.181   7.173
 3464POPC   NC347087   9.763  41.006   5.156
 3464POPC   PO447088   9.417  40.548   5.492
 3464POPC   GL147089   9.778  40.794   5.687
 3464POPC   GL247090   9.766  41.119   5.697
 3464POPC   C1A47091   9.903  40.769   6.113
 3464POPC   D2A47092   9.973  41.104   6.426
 3464POPC   C3A47093   9.792  41.062   6.824
 3464POPC   C4A47094   9.964  40.857   7.176
 3464POPC   C1B47095   9.572  41.167   6.100
 3464POPC   C2B47096   9.405  40.909   6.448
 3464POPC   C3B47097   9.198  41.032   6.839
 3464POPC   C4B47098   9.426  40.980   7.224
 3465POPC   NC347099   5.972  15.654   5.229
 3465POPC   PO447100   6.276  16.165   5.397
 3465POPC   GL147101   6.024  15.958   5.674
 3465POPC   GL247102   5.739  16.188   5.769
 3465POPC   C1A47103   6.116  15.858   6.081
 3465POPC   D2A47104   6.063  15.831   6.514
 3465POPC   C3A47105   6.180  16.005   6.871
 3465POPC   C4A47106   5.948  16.258   7.104
 3465POPC   C1B47107   5.863  16.277   6.203
 3465POPC   C2B47108   5.719  16.249   6.616
 3465POPC   C3B47109   5.620  16.578   6.920
 3465POPC   C4B47110   5.476  16.363   7.285
 3466POPC   NC347111  43.253  25.845   5.609
 3466POPC   PO447112  43.241  25.256   5.328
 3466POPC   GL147113  43.083  25.259   5.770
 3466POPC   GL247114  42.933  25.565   5.925
 3466POPC   C1A47115  43.002  25.011   6.151
 3466POPC   D2A47116  42.798  25.123   6.545
 3466POPC   C3A47117  42.839  25.317   6.965
 3466POPC   C4A47118  43.111  25.230   7.309
 3466POPC   C1B47119  43.197  25.441   6.297
 3466POPC   C2B47120  43.287  25.416   6.744
 3466POPC   C3B47121  43.517  25.554   7.087
 3466POPC   C4B47122  43.488  25.631   7.494
 3467POPC   NC347123   8.257  13.973   5.342
 3467POPC   PO447124   7.928  13.336   5.395
 3467POPC   GL147125   8.180  13.580   5.674
 3467POPC   GL247126   8.523  13.509   5.527
 3467POPC   C1A47127   8.134  13.878   6.027
 3467POPC   D2A47128   8.218  13.849   6.485
 3467POPC   C3A47129   8.200  14.020   6.903
 3467POPC   C4A47130   8.236  13.844   7.354
 3467POPC   C1B47131   8.634  13.496   5.984
 3467POPC   C2B47132   8.612  13.531   6.443
 3467POPC   C3B47133   8.412  13.543   6.864
 3467POPC   C4B47134   8.575  13.497   7.272
 3468POPC   NC347135   0.476  29.027   5.416
 3468POPC   PO447136  44.842  29.280   5.472
 3468POPC   GL147137   0.210  29.268   5.785
 3468POPC   GL247138   0.470  29.479   5.683
 3468POPC   C1A47139   0.476  28.963   6.073
 3468POPC   D2A47140   0.380  28.796   6.483
 3468POPC   C3A47141   0.531  28.969   6.875
 3468POPC   C4A47142   0.464  28.963   7.317
 3468POPC   C1B47143   0.522  29.466   6.129
 3468POPC   C2B47144   0.432  29.353   6.519
 3468POPC   C3B47145   0.578  29.502   6.900
 3468POPC   C4B47146   0.809  29.327   7.198
 3469POPC   NC347147  30.293  29.423   5.639
 3469POPC   PO447148  29.704  29.217   5.358
 3469POPC   GL147149  29.786  29.349   5.763
 3469POPC   GL247150  29.980  29.058   5.841
 3469POPC   C1A47151  29.929  29.406   6.199
 3469POPC   D2A47152  29.737  29.429   6.583
 3469POPC   C3A47153  29.980  29.273   6.949
 3469POPC   C4A47154  29.893  29.396   7.368
 3469POPC   C1B47155  30.197  28.977   6.236
 3469POPC   C2B47156  30.148  28.797   6.640
 3469POPC   C3B47157  30.323  28.754   7.028
 3469POPC   C4B47158  30.215  29.006   7.362
 3470POPC   NC347159   7.235  18.208   5.019
 3470POPC   PO447160   7.779  18.074   5.466
 3470POPC   GL147161   7.456  18.194   5.758
 3470POPC   GL247162   7.682  18.386   5.916
 3470POPC   C1A47163   7.313  18.207   6.207
 3470POPC   D2A47164   7.278  18.007   6.595
 3470POPC   C3A47165   7.214  18.276   6.940
 3470POPC   C4A47166   7.475  18.113   7.281
 3470POPC   C1B47167   7.679  18.570   6.293
 3470POPC   C2B47168   7.639  18.372   6.670
 3470POPC   C3B47169   7.644  18.550   7.090
 3470POPC   C4B47170   7.662  18.511   7.565
 3471POPC   NC347171  42.602  44.875   5.565
 3471POPC   PO447172  42.706   0.556   5.497
 3471POPC   GL147173  42.430   0.581   5.859
 3471POPC   GL247174  42.287   0.251   5.863
 3471POPC   C1A47175  42.357   0.536   6.298
 3471POPC   D2A47176  42.287   0.770   6.641
 3471POPC   C3A47177  42.517   0.654   6.974
 3471POPC   C4A47178  42.223   0.829   7.207
 3471POPC   C1B47179  42.463   0.045   6.268
 3471POPC   C2B47180  42.391   0.185   6.732
 3471POPC   C3B47181  42.555   0.074   7.163
 3471POPC   C4B47182  42.795  44.739   7.353
 3472POPC   NC347183  34.773   7.685   5.240
 3472POPC   PO447184  34.333   7.167   5.482
 3472POPC   GL147185  34.566   7.415   5.776
 3472POPC   GL247186  34.659   7.742   5.764
 3472POPC   C1A47187  34.531   7.390   6.235
 3472POPC   D2A47188  34.503   7.213   6.655
 3472POPC   C3A47189  34.633   7.446   7.020
 3472POPC   C4A47190  34.570   7.645   7.425
 3472POPC   C1B47191  34.917   7.705   6.144
 3472POPC   C2B47192  34.763   7.710   6.589
 3472POPC   C3B47193  34.500   7.965   6.842
 3472POPC   C4B47194  34.224   7.947   7.197
 3473POPC   NC347195  25.344  28.697   5.487
 3473POPC   PO447196  24.944  29.201   5.372
 3473POPC   GL147197  25.147  29.326   5.756
 3473POPC   GL247198  25.335  29.645   5.746
 3473POPC   C1A47199  25.280  29.194   6.179
 3473POPC   D2A47200  25.187  28.830   6.466
 3473POPC   C3A47201  25.320  28.941   6.880
 3473POPC   C4A47202  25.139  29.130   7.259
 3473POPC   C1B47203  25.458  29.727   6.182
 3473POPC   C2B47204  25.313  29.632   6.582
 3473POPC   C3B47205  25.462  29.446   6.962
 3473POPC   C4B47206  25.628  29.650   7.303
 3474POPC   NC347207  26.634  26.784   5.524
 3474POPC   PO447208  26.883  26.091   5.510
 3474POPC   GL147209  26.944  26.202   5.873
 3474POPC   GL247210  26.597  26.311   5.876
 3474POPC   C1A47211  26.877  26.040   6.253
 3474POPC   D2A47212  26.871  25.790   6.633
 3474POPC   C3A47213  26.974  25.940   7.036
 3474POPC   C4A47214  26.958  25.771   7.431
 3474POPC   C1B47215  26.671  26.569   6.236
 3474POPC   C2B47216  26.526  26.645   6.659
 3474POPC   C3B47217  26.666  26.408   7.038
 3474POPC   C4B47218  26.887  26.267   7.415
 3475POPC   NC347219  34.573  35.575   5.342
 3475POPC   PO447220  34.390  34.903   5.523
 3475POPC   GL147221  34.503  35.088   5.884
 3475POPC   GL247222  34.800  35.293   5.803
 3475POPC   C1A47223  34.681  35.102   6.282
 3475POPC   D2A47224  34.619  34.963   6.683
 3475POPC   C3A47225  34.567  35.301   6.994
 3475POPC   C4A47226  34.795  35.363   7.411
 3475POPC   C1B47227  34.886  35.574   6.184
 3475POPC   C2B47228  34.658  35.655   6.600
 3475POPC   C3B47229  34.834  35.741   7.033
 3475POPC   C4B47230  34.676  35.850   7.461
 3476POPC   NC347231  43.501  26.057   5.217
 3476POPC   PO447232  42.822  25.806   5.471
 3476POPC   GL147233  42.923  26.110   5.869
 3476POPC   GL247234  43.301  26.254   5.887
 3476POPC   C1A47235  42.993  26.404   6.224
 3476POPC   D2A47236  43.179  26.336   6.596
 3476POPC   C3A47237  42.969  26.108   6.876
 3476POPC   C4A47238  43.029  26.343   7.232
 3476POPC   C1B47239  43.213  25.943   6.260
 3476POPC   C2B47240  43.441  25.896   6.670
 3476POPC   C3B47241  43.428  26.052   7.112
 3476POPC   C4B47242  43.572  26.135   7.528
 3477POPC   NC347243  17.470  28.298   5.356
 3477POPC   PO447244  17.849  28.821   5.510
 3477POPC   GL147245  17.595  28.566   5.768
 3477POPC   GL247246  17.224  28.542   5.880
 3477POPC   C1A47247  17.641  28.335   6.110
 3477POPC   D2A47248  17.482  28.392   6.502
 3477POPC   C3A47249  17.637  28.254   6.885
 3477POPC   C4A47250  17.716  28.181   7.322
 3477POPC   C1B47251  17.128  28.180   6.159
 3477POPC   C2B47252  17.107  28.057   6.599
 3477POPC   C3B47253  17.143  28.388   6.901
 3477POPC   C4B47254  17.429  28.604   7.225
 3478POPC   NC347255  36.546  18.830   5.512
 3478POPC   PO447256  36.241  18.196   5.362
 3478POPC   GL147257  36.196  18.393   5.775
 3478POPC   GL247258  36.550  18.417   5.834
 3478POPC   C1A47259  35.945  18.385   6.192
 3478POPC   D2A47260  35.939  18.041   6.513
 3478POPC   C3A47261  35.918  18.107   6.969
 3478POPC   C4A47262  35.914  18.364   7.383
 3478POPC   C1B47263  36.445  18.345   6.272
 3478POPC   C2B47264  36.248  18.458   6.670
 3478POPC   C3B47265  36.354  18.326   7.076
 3478POPC   C4B47266  36.631  18.212   7.361
 3479POPC   NC347267  22.545  44.199   5.541
 3479POPC   PO447268  22.010  43.842   5.223
 3479POPC   GL147269  22.105  43.721   5.662
 3479POPC   GL247270  22.468  43.722   5.748
 3479POPC   C1A47271  21.939  43.850   6.084
 3479POPC   D2A47272  22.178  44.105   6.409
 3479POPC   C3A47273  22.153  44.014   6.833
 3479POPC   C4A47274  22.024  44.049   7.274
 3479POPC   C1B47275  22.417  43.709   6.173
 3479POPC   C2B47276  22.618  43.752   6.583
 3479POPC   C3B47277  22.672  43.470   6.918
 3479POPC   C4B47278  22.402  43.707   7.142
 3480POPC   NC347279   0.129   0.257   5.400
 3480POPC   PO447280   0.294   0.963   5.312
 3480POPC   GL147281   0.409   0.706   5.758
 3480POPC   GL247282   0.398   0.307   5.871
 3480POPC   C1A47283   0.459   0.634   6.247
 3480POPC   D2A47284   0.337   0.288   6.575
 3480POPC   C3A47285   0.440   0.373   7.016
 3480POPC   C4A47286   0.797   0.597   7.164
 3480POPC   C1B47287   0.726   0.186   6.229
 3480POPC   C2B47288   0.873   0.285   6.688
 3480POPC   C3B47289   0.883   0.081   7.119
 3480POPC   C4B47290   0.529  44.995   7.422
 3481POPC   NC347291   9.052   8.953   5.424
 3481POPC   PO447292   9.002   9.609   5.492
 3481POPC   GL147293   8.810   9.725   5.856
 3481POPC   GL247294   8.720  10.031   5.981
 3481POPC   C1A47295   8.643   9.526   6.199
 3481POPC   D2A47296   8.759   9.333   6.549
 3481POPC   C3A47297   8.667   9.535   6.930
 3481POPC   C4A47298   8.849   9.561   7.313
 3481POPC   C1B47299   9.039   9.890   6.265
 3481POPC   C2B47300   9.066   9.731   6.675
 3481POPC   C3B47301   8.908   9.995   6.986
 3481POPC   C4B47302   8.901  10.085   7.404
 3482POPC   NC347303   9.715  16.417   5.388
 3482POPC   PO447304  10.039  17.054   5.407
 3482POPC   GL147305  10.060  16.880   5.819
 3482POPC   GL247306   9.900  16.514   5.872
 3482POPC   C1A47307   9.870  16.913   6.229
 3482POPC   D2A47308   9.736  16.712   6.602
 3482POPC   C3A47309   9.909  16.901   6.974
 3482POPC   C4A47310  10.056  16.978   7.396
 3482POPC   C1B47311   9.507  16.506   6.154
 3482POPC   C2B47312   9.287  16.440   6.578
 3482POPC   C3B47313   9.441  16.573   6.997
 3482POPC   C4B47314   9.775  16.553   7.316
 3483POPC   NC347315   6.699  12.543   5.556
 3483POPC   PO447316   6.554  11.886   5.436
 3483POPC   GL147317   6.558  12.097   5.809
 3483POPC   GL247318   6.312  12.352   5.828
 3483POPC   C1A47319   6.716  11.999   6.195
 3483POPC   D2A47320   6.853  12.125   6.575
 3483POPC   C3A47321   6.605  12.118   6.943
 3483POPC   C4A47322   6.856  11.975   7.293
 3483POPC   C1B47323   6.526  12.472   6.180
 3483POPC   C2B47324   6.487  12.483   6.575
 3483POPC   C3B47325   6.184  12.537   6.852
 3483POPC   C4B47326   6.031  12.387   7.246
 3484POPC   NC347327  28.569   1.516   5.530
 3484POPC   PO447328  28.297   0.872   5.439
 3484POPC   GL147329  28.406   1.112   5.820
 3484POPC   GL247330  28.761   1.056   5.692
 3484POPC   C1A47331  28.280   1.235   6.288
 3484POPC   D2A47332  28.138   1.517   6.662
 3484POPC   C3A47333  28.368   1.504   7.048
 3484POPC   C4A47334  28.252   1.294   7.407
 3484POPC   C1B47335  28.786   0.923   6.109
 3484POPC   C2B47336  28.729   1.078   6.524
 3484POPC   C3B47337  28.470   1.029   6.881
 3484POPC   C4B47338  28.534   0.791   7.246
 3485POPC   NC347339   8.634   4.154   5.489
 3485POPC   PO447340   9.324   4.156   5.564
 3485POPC   GL147341   9.009   4.098   5.847
 3485POPC   GL247342   8.935   4.415   5.882
 3485POPC   C1A47343   8.831   4.106   6.276
 3485POPC   D2A47344   8.677   4.205   6.672
 3485POPC   C3A47345   8.926   4.238   7.042
 3485POPC   C4A47346   8.982   4.088   7.449
 3485POPC   C1B47347   9.112   4.620   6.230
 3485POPC   C2B47348   9.118   4.597   6.668
 3485POPC   C3B47349   9.065   4.739   7.077
 3485POPC   C4B47350   9.180   4.544   7.524
 3486POPC   NC347351  14.212   9.973   5.279
 3486POPC   PO447352  14.623   9.496   5.396
 3486POPC   GL147353  14.342   9.625   5.740
 3486POPC   GL247354  14.232   9.980   5.786
 3486POPC   C1A47355  14.361   9.664   6.191
 3486POPC   D2A47356  14.173   9.508   6.550
 3486POPC   C3A47357  14.346   9.554   6.962
 3486POPC   C4A47358  14.500   9.424   7.367
 3486POPC   C1B47359  14.122  10.140   6.194
 3486POPC   C2B47360  14.329  10.028   6.557
 3486POPC   C3B47361  14.416  10.057   6.964
 3486POPC   C4B47362  14.065  10.275   7.157
 3487POPC   NC347363  43.669   5.341   5.373
 3487POPC   PO447364  44.052   4.755   5.445
 3487POPC   GL147365  43.768   4.973   5.729
 3487POPC   GL247366  43.568   4.738   5.857
 3487POPC   C1A47367  43.844   5.211   6.107
 3487POPC   D2A47368  44.017   5.064   6.510
 3487POPC   C3A47369  43.985   5.261   6.925
 3487POPC   C4A47370  43.981   5.110   7.360
 3487POPC   C1B47371  43.879   4.652   6.181
 3487POPC   C2B47372  44.206   4.573   6.509
 3487POPC   C3B47373  44.177   4.774   6.908
 3487POPC   C4B47374  43.728   4.823   6.963
 3488POPC   NC347375   7.652  28.940   5.424
 3488POPC   PO447376   7.452  29.447   5.492
 3488POPC   GL147377   7.381  29.142   5.842
 3488POPC   GL247378   7.498  29.375   6.068
 3488POPC   C1A47379   7.308  28.996   6.312
 3488POPC   D2A47380   7.486  29.190   6.706
 3488POPC   C3A47381   7.360  28.998   7.131
 3488POPC   C4A47382   7.107  29.039   7.511
 3488POPC   C1B47383   7.739  29.604   6.398
 3488POPC   C2B47384   7.784  29.713   6.848
 3488POPC   C3B47385   7.526  29.479   7.148
 3488POPC   C4B47386   7.226  29.573   7.507
 3489POPC   NC347387   5.700   5.010   5.399
 3489POPC   PO447388   6.010   5.587   5.267
 3489POPC   GL147389   6.036   5.304   5.671
 3489POPC   GL247390   5.700   5.217   5.861
 3489POPC   C1A47391   6.145   5.083   6.083
 3489POPC   D2A47392   6.259   4.914   6.487
 3489POPC   C3A47393   6.152   5.180   6.828
 3489POPC   C4A47394   6.326   5.194   7.222
 3489POPC   C1B47395   5.669   4.846   6.165
 3489POPC   C2B47396   5.475   4.703   6.557
 3489POPC   C3B47397   5.561   4.834   6.989
 3489POPC   C4B47398   5.932   4.857   7.209
 3490POPC   NC347399  38.305  21.793   5.455
 3490POPC   PO447400  38.824  21.315   5.432
 3490POPC   GL147401  38.622  21.549   5.786
 3490POPC   GL247402  38.243  21.516   5.864
 3490POPC   C1A47403  38.569  21.564   6.225
 3490POPC   D2A47404  38.536  21.254   6.574
 3490POPC   C3A47405  38.580  21.419   7.007
 3490POPC   C4A47406  38.297  21.729   7.185
 3490POPC   C1B47407  38.091  21.372   6.273
 3490POPC   C2B47408  37.927  21.095   6.612
 3490POPC   C3B47409  37.969  21.207   7.047
 3490POPC   C4B47410  38.250  21.268   7.383
 3491POPC   NC347411   6.199  42.582   5.078
 3491POPC   PO447412   6.766  42.396   5.373
 3491POPC   GL147413   6.807  42.275   5.764
 3491POPC   GL247414   7.035  42.514   5.833
 3491POPC   C1A47415   6.620  42.445   6.134
 3491POPC   D2A47416   6.600  42.279   6.516
 3491POPC   C3A47417   6.597  42.509   6.889
 3491POPC   C4A47418   6.523  42.304   7.270
 3491POPC   C1B47419   7.055  42.184   6.207
 3491POPC   C2B47420   7.091  42.060   6.644
 3491POPC   C3B47421   7.008  42.187   7.069
 3491POPC   C4B47422   7.004  42.482   7.368
 3492POPC   NC347423  26.983  34.789   5.371
 3492POPC   PO447424  26.640  34.276   5.326
 3492POPC   GL147425  26.688  34.526   5.704
 3492POPC   GL247426  27.007  34.475   5.851
 3492POPC   C1A47427  26.614  34.665   6.143
 3492POPC   D2A47428  26.917  34.564   6.469
 3492POPC   C3A47429  26.824  34.502   6.914
 3492POPC   C4A47430  26.564  34.735   7.214
 3492POPC   C1B47431  27.222  34.242   6.218
 3492POPC   C2B47432  27.372  34.407   6.661
 3492POPC   C3B47433  27.245  34.253   7.109
 3492POPC   C4B47434  27.255  34.141   7.588
 3493POPC   NC347435  15.573   5.434   5.485
 3493POPC   PO447436  15.462   4.740   5.613
 3493POPC   GL147437  15.067   4.883   5.735
 3493POPC   GL247438  15.180   5.195   5.834
 3493POPC   C1A47439  14.801   4.844   6.102
 3493POPC   D2A47440  14.841   4.681   6.547
 3493POPC   C3A47441  14.872   5.009   6.870
 3493POPC   C4A47442  15.189   5.256   7.092
 3493POPC   C1B47443  15.344   5.152   6.236
 3493POPC   C2B47444  15.484   5.267   6.614
 3493POPC   C3B47445  15.433   5.629   6.814
 3493POPC   C4B47446  15.425   5.673   7.240
 3494POPC   NC347447   8.726  39.509   5.403
 3494POPC   PO447448   8.897  38.943   5.508
 3494POPC   GL147449   9.046  39.250   5.819
 3494POPC   GL247450   9.371  39.480   5.803
 3494POPC   C1A47451   8.797  39.198   6.202
 3494POPC   D2A47452   8.746  38.870   6.500
 3494POPC   C3A47453   8.720  39.075   6.856
 3494POPC   C4A47454   8.744  38.992   7.262
 3494POPC   C1B47455   9.211  39.509   6.241
 3494POPC   C2B47456   9.156  39.210   6.597
 3494POPC   C3B47457   9.175  39.217   7.048
 3494POPC   C4B47458   9.251  39.556   7.325
 3495POPC   NC347459   2.680   3.854   5.362
 3495POPC   PO447460   3.084   3.348   5.412
 3495POPC   GL147461   2.945   3.222   5.801
 3495POPC   GL247462   2.589   3.355   5.864
 3495POPC   C1A47463   3.056   3.250   6.241
 3495POPC   D2A47464   2.916   3.443   6.645
 3495POPC   C3A47465   3.092   3.256   7.000
 3495POPC   C4A47466   3.094   3.393   7.417
 3495POPC   C1B47467   2.771   3.664   6.188
 3495POPC   C2B47468   2.688   3.910   6.564
 3495POPC   C3B47469   2.614   3.780   6.992
 3495POPC   C4B47470   2.773   3.797   7.442
 3496POPC   NC347471  43.262  24.833   5.511
 3496POPC   PO447472  43.214  24.180   5.244
 3496POPC   GL147473  43.066  24.363   5.650
 3496POPC   GL247474  43.395  24.403   5.802
 3496POPC   C1A47475  42.950  24.494   6.096
 3496POPC   D2A47476  43.138  24.581   6.518
 3496POPC   C3A47477  42.982  24.440   6.954
 3496POPC   C4A47478  43.110  24.171   7.293
 3496POPC   C1B47479  43.445  24.753   6.122
 3496POPC   C2B47480  43.427  25.005   6.490
 3496POPC   C3B47481  43.181  24.924   6.891
 3496POPC   C4B47482  43.376  24.692   7.233
 3497POPC   NC347483  10.189  41.331   5.518
 3497POPC   PO447484  10.790  41.209   5.734
 3497POPC   GL147485  10.649  41.612   5.830
 3497POPC   GL247486  10.326  41.556   5.960
 3497POPC   C1A47487  10.629  41.888   6.197
 3497POPC   D2A47488  10.301  41.986   6.513
 3497POPC   C3A47489  10.374  41.793   6.903
 3497POPC   C4A47490  10.727  41.956   7.107
 3497POPC   C1B47491  10.374  41.484   6.416
 3497POPC   C2B47492  10.316  41.254   6.803
 3497POPC   C3B47493  10.447  41.103   7.206
 3497POPC   C4B47494  10.277  40.930   7.578
 3498POPC   NC347495  39.189  31.139   5.273
 3498POPC   PO447496  39.480  31.731   5.343
 3498POPC   GL147497  39.244  31.481   5.688
 3498POPC   GL247498  39.173  31.091   5.784
 3498POPC   C1A47499  39.110  31.500   6.139
 3498POPC   D2A47500  39.138  31.206   6.476
 3498POPC   C3A47501  39.033  31.316   6.921
 3498POPC   C4A47502  39.050  31.498   7.347
 3498POPC   C1B47503  39.513  31.166   6.104
 3498POPC   C2B47504  39.635  31.404   6.496
 3498POPC   C3B47505  39.609  31.513   6.960
 3498POPC   C4B47506  39.536  31.369   7.402
 3499POPC   NC347507   8.766   7.860   5.439
 3499POPC   PO447508   9.043   8.500   5.526
 3499POPC   GL147509   9.064   8.132   5.786
 3499POPC   GL247510   8.711   8.097   5.903
 3499POPC   C1A47511   9.091   7.940   6.209
 3499POPC   D2A47512   8.947   8.116   6.620
 3499POPC   C3A47513   9.079   7.966   7.008
 3499POPC   C4A47514   8.905   7.914   7.408
 3499POPC   C1B47515   8.897   8.408   6.212
 3499POPC   C2B47516   8.974   8.682   6.552
 3499POPC   C3B47517   9.139   8.532   6.912
 3499POPC   C4B47518   9.001   8.399   7.281
 3500POPC   NC347519  26.370   6.319   5.322
 3500POPC   PO447520  25.739   6.554   5.249
 3500POPC   GL147521  25.727   6.824   5.708
 3500POPC   GL247522  26.100   6.787   5.874
 3500POPC   C1A47523  25.772   6.791   6.231
 3500POPC   D2A47524  26.140   6.722   6.554
 3500POPC   C3A47525  26.023   6.528   6.966
 3500POPC   C4A47526  26.145   6.388   7.373
 3500POPC   C1B47527  26.387   7.006   6.167
 3500POPC   C2B47528  26.501   7.143   6.608
 3500POPC   C3B47529  26.396   6.900   6.988
 3500POPC   C4B47530  26.108   6.908   7.349
 3501POPC   NC347531  20.213  41.738   5.230
 3501POPC   PO447532  20.706  41.359   5.298
 3501POPC   GL147533  20.803  41.226   5.788
 3501POPC   GL247534  20.508  41.376   5.970
 3501POPC   C1A47535  20.873  41.239   6.285
 3501POPC   D2A47536  20.822  41.625   6.553
 3501POPC   C3A47537  20.843  41.594   6.998
 3501POPC   C4A47538  20.800  41.158   7.043
 3501POPC   C1B47539  20.364  41.390   6.423
 3501POPC   C2B47540  20.355  41.416   6.879
 3501POPC   C3B47541  20.172  41.671   7.225
 3501POPC   C4B47542  20.147  41.561   7.697
 3502POPC   NC347543  31.221   6.300   5.524
 3502POPC   PO447544  31.494   6.795   5.204
 3502POPC   GL147545  31.437   6.828   5.674
 3502POPC   GL247546  31.111   6.969   5.781
 3502POPC   C1A47547  31.396   6.679   6.140
 3502POPC   D2A47548  31.510   6.505   6.576
 3502POPC   C3A47549  31.632   6.756   6.944
 3502POPC   C4A47550  31.790   6.686   7.351
 3502POPC   C1B47551  31.025   7.020   6.243
 3502POPC   C2B47552  31.160   6.872   6.677
 3502POPC   C3B47553  31.162   6.786   7.178
 3502POPC   C4B47554  30.968   6.820   7.642
 3503POPC   NC347555  38.987  15.246   5.202
 3503POPC   PO447556  39.242  14.689   5.573
 3503POPC   GL147557  39.220  15.135   5.699
 3503POPC   GL247558  39.536  15.333   5.730
 3503POPC   C1A47559  39.117  15.243   6.123
 3503POPC   D2A47560  39.065  15.390   6.542
 3503POPC   C3A47561  39.208  15.160   6.908
 3503POPC   C4A47562  38.874  15.184   7.200
 3503POPC   C1B47563  39.589  15.016   6.095
 3503POPC   C2B47564  39.416  14.801   6.475
 3503POPC   C3B47565  39.568  14.804   6.892
 3503POPC   C4B47566  39.644  15.043   7.221
 3504POPC   NC347567  41.437   0.646   5.536
 3504POPC   PO447568  41.971   0.228   5.412
 3504POPC   GL147569  41.759   0.308   5.811
 3504POPC   GL247570  41.893   0.624   5.783
 3504POPC   C1A47571  41.468   0.484   6.156
 3504POPC   D2A47572  41.186   0.342   6.486
 3504POPC   C3A47573  41.335   0.502   6.868
 3504POPC   C4A47574  41.213   0.386   7.297
 3504POPC   C1B47575  41.920   0.766   6.162
 3504POPC   C2B47576  41.856   0.519   6.494
 3504POPC   C3B47577  41.851   0.606   6.882
 3504POPC   C4B47578  41.671   0.571   7.255
 3505POPC   NC347579  27.336  43.117   5.340
 3505POPC   PO447580  27.936  42.758   5.465
 3505POPC   GL147581  27.798  42.957   5.846
 3505POPC   GL247582  27.468  43.016   5.848
 3505POPC   C1A47583  27.980  42.933   6.265
 3505POPC   D2A47584  27.917  43.227   6.607
 3505POPC   C3A47585  27.802  43.092   7.027
 3505POPC   C4A47586  27.593  43.370   7.271
 3505POPC   C1B47587  27.551  43.213   6.243
 3505POPC   C2B47588  27.349  43.120   6.629
 3505POPC   C3B47589  27.197  42.877   6.956
 3505POPC   C4B47590  27.308  42.966   7.355
 3506POPC   NC347591  14.583  37.368   5.424
 3506POPC   PO447592  14.182  36.842   5.189
 3506POPC   GL147593  14.316  36.952   5.599
 3506POPC   GL247594  14.086  37.234   5.671
 3506POPC   C1A47595  14.196  36.850   6.052
 3506POPC   D2A47596  14.243  36.689   6.488
 3506POPC   C3A47597  14.384  36.922   6.856
 3506POPC   C4A47598  14.512  36.854   7.299
 3506POPC   C1B47599  14.031  37.346   6.113
 3506POPC   C2B47600  13.965  37.136   6.503
 3506POPC   C3B47601  13.935  37.207   6.917
 3506POPC   C4B47602  14.027  36.990   7.252
 3507POPC   NC347603  19.149  37.777   5.328
 3507POPC   PO447604  19.574  37.282   5.499
 3507POPC   GL147605  19.341  37.412   5.827
 3507POPC   GL247606  19.206  37.746   5.931
 3507POPC   C1A47607  19.307  37.334   6.258
 3507POPC   D2A47608  19.236  37.375   6.710
 3507POPC   C3A47609  19.249  37.747   6.987
 3507POPC   C4A47610  19.232  37.860   7.435
 3507POPC   C1B47611  18.905  37.639   6.323
 3507POPC   C2B47612  18.709  37.493   6.718
 3507POPC   C3B47613  18.743  37.669   7.129
 3507POPC   C4B47614  18.477  37.672   7.501
 3508POPC   NC347615  11.528  12.210   5.420
 3508POPC   PO447616  12.175  12.042   5.093
 3508POPC   GL147617  12.079  12.105   5.574
 3508POPC   GL247618  12.231  12.377   5.780
 3508POPC   C1A47619  11.892  12.032   6.008
 3508POPC   D2A47620  11.749  12.003   6.464
 3508POPC   C3A47621  11.910  12.151   6.870
 3508POPC   C4A47622  11.810  12.163   7.295
 3508POPC   C1B47623  12.346  12.215   6.170
 3508POPC   C2B47624  12.270  11.990   6.527
 3508POPC   C3B47625  12.435  12.085   6.908
 3508POPC   C4B47626  12.301  12.209   7.275
 3509POPC   NC347627  18.824  10.089   5.414
 3509POPC   PO447628  19.216   9.495   5.363
 3509POPC   GL147629  19.115   9.762   5.707
 3509POPC   GL247630  18.767   9.653   5.690
 3509POPC   C1A47631  19.278   9.886   6.117
 3509POPC   D2A47632  19.119   9.749   6.522
 3509POPC   C3A47633  19.299   9.722   6.906
 3509POPC   C4A47634  19.171   9.969   7.222
 3509POPC   C1B47635  18.806   9.546   6.135
 3509POPC   C2B47636  18.807   9.345   6.548
 3509POPC   C3B47637  18.804   9.536   6.961
 3509POPC   C4B47638  18.934   9.546   7.389
 3510POPC   NC347639  29.837  44.454   5.196
 3510POPC   PO447640  30.069   0.109   5.343
 3510POPC   GL147641  29.883  44.813   5.681
 3510POPC   GL247642  29.986  44.456   5.676
 3510POPC   C1A47643  29.770  44.609   6.109
 3510POPC   D2A47644  29.942  44.711   6.508
 3510POPC   C3A47645  29.856  44.820   6.929
 3510POPC   C4A47646  30.192  44.736   7.174
 3510POPC   C1B47647  30.207  44.314   6.039
 3510POPC   C2B47648  30.111  44.213   6.477
 3510POPC   C3B47649  29.933  44.332   6.910
 3510POPC   C4B47650  30.067  44.274   7.344
 3511POPC   NC347651  34.521  27.793   5.499
 3511POPC   PO447652  34.811  27.095   5.441
 3511POPC   GL147653  34.615  27.365   5.743
 3511POPC   GL247654  34.832  27.671   5.881
 3511POPC   C1A47655  34.406  27.498   6.109
 3511POPC   D2A47656  34.625  27.683   6.433
 3511POPC   C3A47657  34.518  27.656   6.858
 3511POPC   C4A47658  34.435  27.487   7.265
 3511POPC   C1B47659  34.849  28.050   6.152
 3511POPC   C2B47660  34.617  28.186   6.549
 3511POPC   C3B47661  34.762  28.119   6.954
 3511POPC   C4B47662  34.871  27.776   7.200
 3512POPC   NC347663  31.964   0.292   5.647
 3512POPC   PO447664  31.954  44.697   5.393
 3512POPC   GL147665  32.134  44.683   5.820
 3512POPC   GL247666  32.511  44.616   5.864
 3512POPC   C1A47667  32.113  44.590   6.268
 3512POPC   D2A47668  32.133  44.293   6.619
 3512POPC   C3A47669  32.123  44.587   6.949
 3512POPC   C4A47670  32.387  44.867   7.137
 3512POPC   C1B47671  32.638  44.612   6.328
 3512POPC   C2B47672  32.594  44.478   6.782
 3512POPC   C3B47673  32.697  44.486   7.244
 3512POPC   C4B47674  32.620  44.862   7.590
 3513POPC   NC347675   6.474  28.293   5.032
 3513POPC   PO447676   6.331  28.440   5.469
 3513POPC   GL147677   6.469  28.451   5.893
 3513POPC   GL247678   6.648  28.161   5.907
 3513POPC   C1A47679   6.623  28.487   6.327
 3513POPC   D2A47680   6.553  28.251   6.715
 3513POPC   C3A47681   6.748  28.248   7.126
 3513POPC   C4A47682   6.795  27.974   7.491
 3513POPC   C1B47683   6.369  28.029   6.280
 3513POPC   C2B47684   6.228  27.859   6.713
 3513POPC   C3B47685   6.371  27.854   7.174
 3513POPC   C4B47686   6.306  27.766   7.643
 3514POPC   NC347687   0.248   6.420   5.420
 3514POPC   PO447688   0.550   7.053   5.305
 3514POPC   GL147689   0.553   6.731   5.704
 3514POPC   GL247690   0.766   6.423   5.659
 3514POPC   C1A47691   0.647   6.832   6.158
 3514POPC   D2A47692   0.394   6.656   6.491
 3514POPC   C3A47693   0.444   6.797   6.919
 3514POPC   C4A47694   0.566   7.172   7.111
 3514POPC   C1B47695   0.637   6.330   6.093
 3514POPC   C2B47696   0.679   6.248   6.566
 3514POPC   C3B47697   0.660   6.356   7.026
 3514POPC   C4B47698   0.515   6.584   7.387
 3515POPC   NC347699  34.602  32.266   5.375
 3515POPC   PO447700  34.695  31.688   5.673
 3515POPC   GL147701  34.821  32.118   5.829
 3515POPC   GL247702  34.514  32.349   5.867
 3515POPC   C1A47703  34.827  32.263   6.263
 3515POPC   D2A47704  34.668  32.216   6.665
 3515POPC   C3A47705  34.891  32.119   7.024
 3515POPC   C4A47706  34.610  32.230   7.349
 3515POPC   C1B47707  34.302  32.426   6.283
 3515POPC   C2B47708  34.297  32.575   6.725
 3515POPC   C3B47709  34.196  32.405   7.140
 3515POPC   C4B47710  34.272  32.582   7.570
 3516POPC   NC347711  36.554   7.278   5.340
 3516POPC   PO447712  35.903   7.386   5.194
 3516POPC   GL147713  36.103   7.424   5.711
 3516POPC   GL247714  36.399   7.609   5.780
 3516POPC   C1A47715  35.920   7.297   6.169
 3516POPC   D2A47716  35.977   7.036   6.554
 3516POPC   C3A47717  35.867   7.218   6.941
 3516POPC   C4A47718  35.814   7.542   7.231
 3516POPC   C1B47719  36.399   7.471   6.210
 3516POPC   C2B47720  36.135   7.519   6.601
 3516POPC   C3B47721  36.306   7.465   7.009
 3516POPC   C4B47722  36.547   7.241   7.326
 3517POPC   NC347723  18.922  22.224   5.321
 3517POPC   PO447724  19.260  22.668   5.487
 3517POPC   GL147725  18.984  22.456   5.789
 3517POPC   GL247726  19.137  22.117   5.798
 3517POPC   C1A47727  18.833  22.431   6.248
 3517POPC   D2A47728  18.951  22.493   6.711
 3517POPC   C3A47729  18.900  22.283   7.114
 3517POPC   C4A47730  18.966  22.420   7.525
 3517POPC   C1B47731  19.358  22.379   6.146
 3517POPC   C2B47732  19.438  22.612   6.564
 3517POPC   C3B47733  19.405  22.460   7.037
 3517POPC   C4B47734  19.493  22.458   7.500
 3518POPC   NC347735  29.843   9.148   5.391
 3518POPC   PO447736  30.309   8.660   5.402
 3518POPC   GL147737  30.011   8.803   5.714
 3518POPC   GL247738  30.094   9.158   5.829
 3518POPC   C1A47739  29.927   8.823   6.150
 3518POPC   D2A47740  30.027   9.164   6.411
 3518POPC   C3A47741  30.043   9.145   6.843
 3518POPC   C4A47742  30.161   9.011   7.246
 3518POPC   C1B47743  29.768   9.426   6.038
 3518POPC   C2B47744  29.603   9.464   6.474
 3518POPC   C3B47745  29.517   9.219   6.840
 3518POPC   C4B47746  29.699   9.216   7.228
 3519POPC   NC347747  30.553  31.949   5.435
 3519POPC   PO447748  30.681  32.656   5.358
 3519POPC   GL147749  30.738  32.375   5.722
 3519POPC   GL247750  30.383  32.347   5.731
 3519POPC   C1A47751  30.908  32.237   6.157
 3519POPC   D2A47752  31.056  32.380   6.590
 3519POPC   C3A47753  30.948  32.274   7.033
 3519POPC   C4A47754  31.061  32.446   7.450
 3519POPC   C1B47755  30.415  32.079   6.089
 3519POPC   C2B47756  30.572  32.113   6.529
 3519POPC   C3B47757  30.447  32.089   6.948
 3519POPC   C4B47758  30.518  32.331   7.314
 3520POPC   NC347759  11.104  34.570   5.184
 3520POPC   PO447760  11.311  35.040   5.533
 3520POPC   GL147761  11.417  34.563   5.661
 3520POPC   GL247762  11.114  34.366   5.670
 3520POPC   C1A47763  11.532  34.418   6.102
 3520POPC   D2A47764  11.450  34.763   6.416
 3520POPC   C3A47765  11.389  34.746   6.883
 3520POPC   C4A47766  11.299  34.818   7.323
 3520POPC   C1B47767  11.057  34.576   6.074
 3520POPC   C2B47768  11.071  34.446   6.506
 3520POPC   C3B47769  11.276  34.249   6.854
 3520POPC   C4B47770  11.116  34.185   7.256
 3521POPC   NC347771  40.188  30.438   5.332
 3521POPC   PO447772  39.629  30.950   5.390
 3521POPC   GL147773  40.048  30.859   5.619
 3521POPC   GL247774  40.054  30.516   5.861
 3521POPC   C1A47775  40.263  30.938   6.010
 3521POPC   D2A47776  40.067  30.721   6.369
 3521POPC   C3A47777  40.331  30.818   6.690
 3521POPC   C4A47778  40.278  30.794   7.121
 3521POPC   C1B47779  39.751  30.309   6.187
 3521POPC   C2B47780  39.685  30.330   6.636
 3521POPC   C3B47781  39.831  30.690   6.854
 3521POPC   C4B47782  39.783  30.948   7.221
 3522POPC   NC347783  30.157  34.716   5.265
 3522POPC   PO447784  29.544  34.385   5.449
 3522POPC   GL147785  29.820  34.680   5.685
 3522POPC   GL247786  29.606  34.787   5.944
 3522POPC   C1A47787  30.060  34.710   6.098
 3522POPC   D2A47788  30.070  34.492   6.501
 3522POPC   C3A47789  29.961  34.624   6.926
 3522POPC   C4A47790  29.928  34.312   7.268
 3522POPC   C1B47791  29.607  34.531   6.281
 3522POPC   C2B47792  29.432  34.565   6.670
 3522POPC   C3B47793  29.476  34.409   7.042
 3522POPC   C4B47794  29.610  34.708   7.319
 3523POPC   NC347795  34.906  11.336   5.518
 3523POPC   PO447796  35.565  11.093   5.331
 3523POPC   GL147797  35.383  11.270   5.687
 3523POPC   GL247798  35.560  11.583   5.758
 3523POPC   C1A47799  35.245  11.341   6.114
 3523POPC   D2A47800  35.482  11.296   6.478
 3523POPC   C3A47801  35.288  11.245   6.879
 3523POPC   C4A47802  35.136  11.601   7.151
 3523POPC   C1B47803  35.786  11.237   6.012
 3523POPC   C2B47804  35.972  11.118   6.421
 3523POPC   C3B47805  35.851  11.272   6.828
 3523POPC   C4B47806  35.642  11.492   7.165
 3524POPC   NC347807  30.813  29.166   5.357
 3524POPC   PO447808  30.469  29.690   5.297
 3524POPC   GL147809  30.749  29.531   5.761
 3524POPC   GL247810  30.709  29.149   5.858
 3524POPC   C1A47811  30.530  29.426   6.232
 3524POPC   D2A47812  30.572  29.107   6.582
 3524POPC   C3A47813  30.647  29.180   7.024
 3524POPC   C4A47814  30.394  29.484   7.185
 3524POPC   C1B47815  30.971  29.138   6.246
 3524POPC   C2B47816  31.055  28.888   6.629
 3524POPC   C3B47817  30.890  28.718   7.054
 3524POPC   C4B47818  31.028  28.888   7.468
 3525POPC   NC347819   0.776  18.097   5.208
 3525POPC   PO447820   0.459  18.509   5.619
 3525POPC   GL147821   0.407  18.612   6.002
 3525POPC   GL247822   0.103  18.436   6.059
 3525POPC   C1A47823   0.522  18.426   6.347
 3525POPC   D2A47824   0.381  18.352   6.690
 3525POPC   C3A47825   0.327  18.645   6.941
 3525POPC   C4A47826   0.446  18.564   7.318
 3525POPC   C1B47827   0.097  18.102   6.347
 3525POPC   C2B47828   0.116  17.930   6.764
 3525POPC   C3B47829   0.117  18.218   7.115
 3525POPC   C4B47830  44.914  18.582   7.249
 3526POPC   NC347831  21.564  37.273   5.012
 3526POPC   PO447832  21.343  37.749   5.464
 3526POPC   GL147833  21.211  37.584   5.802
 3526POPC   GL247834  20.892  37.445   5.725
 3526POPC   C1A47835  21.334  37.693   6.228
 3526POPC   D2A47836  21.375  37.842   6.667
 3526POPC   C3A47837  21.378  37.741   7.111
 3526POPC   C4A47838  21.490  38.057   7.445
 3526POPC   C1B47839  21.002  37.323   6.160
 3526POPC   C2B47840  21.301  37.316   6.572
 3526POPC   C3B47841  21.096  37.336   6.965
 3526POPC   C4B47842  21.164  37.280   7.376
 3527POPC   NC347843  30.359  27.709   5.423
 3527POPC   PO447844  30.078  27.187   5.512
 3527POPC   GL147845  30.288  27.513   5.901
 3527POPC   GL247846  30.543  27.841   5.904
 3527POPC   C1A47847  30.440  27.664   6.367
 3527POPC   D2A47848  30.628  27.859   6.779
 3527POPC   C3A47849  30.401  27.794   7.196
 3527POPC   C4A47850  30.319  27.712   7.667
 3527POPC   C1B47851  30.882  27.949   6.291
 3527POPC   C2B47852  31.150  27.883   6.706
 3527POPC   C3B47853  31.027  27.647   7.115
 3527POPC   C4B47854  31.132  27.435   7.545
 3528POPC   NC347855  38.499  44.862   5.274
 3528POPC   PO447856  38.900  44.274   5.344
 3528POPC   GL147857  38.620  44.531   5.662
 3528POPC   GL247858  38.751  44.805   5.875
 3528POPC   C1A47859  38.432  44.502   6.104
 3528POPC   D2A47860  38.741  44.614   6.460
 3528POPC   C3A47861  38.614  44.449   6.831
 3528POPC   C4A47862  38.392  44.548   7.207
 3528POPC   C1B47863  38.483  44.975   6.276
 3528POPC   C2B47864  38.282  44.862   6.662
 3528POPC   C3B47865  38.614  44.935   6.927
 3528POPC   C4B47866  38.890  44.702   7.237
 3529POPC   NC347867   5.820   0.225   5.402
 3529POPC   PO447868   6.037   0.861   5.463
 3529POPC   GL147869   5.737   0.616   5.777
 3529POPC   GL247870   5.490   0.295   5.796
 3529POPC   C1A47871   5.922   0.307   6.095
 3529POPC   D2A47872   6.072   0.164   6.500
 3529POPC   C3A47873   6.261   0.405   6.835
 3529POPC   C4A47874   6.100   0.509   7.229
 3529POPC   C1B47875   5.439   0.455   6.211
 3529POPC   C2B47876   5.576   0.239   6.606
 3529POPC   C3B47877   5.638   0.250   7.059
 3529POPC   C4B47878   5.468   0.062   7.419
 3530POPC   NC347879  30.988  10.669   5.449
 3530POPC   PO447880  30.487  10.994   5.181
 3530POPC   GL147881  30.549  10.488   5.604
 3530POPC   GL247882  30.888  10.485   5.885
 3530POPC   C1A47883  30.487  10.422   6.134
 3530POPC   D2A47884  30.750  10.356   6.535
 3530POPC   C3A47885  30.576  10.442   6.954
 3530POPC   C4A47886  30.509  10.813   7.151
 3530POPC   C1B47887  30.897  10.761   6.252
 3530POPC   C2B47888  31.110  10.857   6.583
 3530POPC   C3B47889  31.006  10.734   6.988
 3530POPC   C4B47890  31.059  10.452   7.294
 3531POPC   NC347891  41.173  16.740   5.448
 3531POPC   PO447892  41.731  16.499   5.415
 3531POPC   GL147893  41.583  16.728   5.818
 3531POPC   GL247894  41.272  16.918   5.916
 3531POPC   C1A47895  41.746  17.008   6.150
 3531POPC   D2A47896  41.633  17.113   6.580
 3531POPC   C3A47897  41.781  16.820   6.892
 3531POPC   C4A47898  41.625  16.562   7.256
 3531POPC   C1B47899  41.275  17.248   6.218
 3531POPC   C2B47900  41.203  17.377   6.617
 3531POPC   C3B47901  41.286  17.120   6.965
 3531POPC   C4B47902  41.208  16.880   7.295
 3532POPC   NC347903  29.255  31.424   5.357
 3532POPC   PO447904  29.368  32.018   5.320
 3532POPC   GL147905  29.101  31.765   5.722
 3532POPC   GL247906  29.025  31.368   5.802
 3532POPC   C1A47907  28.968  31.679   6.181
 3532POPC   D2A47908  29.157  31.679   6.594
 3532POPC   C3A47909  28.958  31.623   6.986
 3532POPC   C4A47910  29.212  31.566   7.331
 3532POPC   C1B47911  29.382  31.202   6.055
 3532POPC   C2B47912  29.424  31.207   6.501
 3532POPC   C3B47913  29.254  31.185   6.921
 3532POPC   C4B47914  28.924  31.155   7.221
 3533POPC   NC347915  24.550   2.803   5.237
 3533POPC   PO447916  23.996   2.683   5.539
 3533POPC   GL147917  24.381   2.869   5.718
 3533POPC   GL247918  24.700   2.643   5.705
 3533POPC   C1A47919  24.537   2.850   6.153
 3533POPC   D2A47920  24.413   3.053   6.528
 3533POPC   C3A47921  24.308   2.836   6.885
 3533POPC   C4A47922  24.451   2.881   7.289
 3533POPC   C1B47923  24.849   2.393   6.063
 3533POPC   C2B47924  24.918   2.394   6.522
 3533POPC   C3B47925  24.752   2.558   6.938
 3533POPC   C4B47926  24.519   2.380   7.298
 3534POPC   NC347927  41.953  43.977   5.619
 3534POPC   PO447928  41.446  44.377   5.402
 3534POPC   GL147929  41.418  44.079   5.734
 3534POPC   GL247930  41.458  43.748   5.780
 3534POPC   C1A47931  41.549  44.080   6.166
 3534POPC   D2A47932  41.381  44.191   6.561
 3534POPC   C3A47933  41.604  44.032   6.907
 3534POPC   C4A47934  41.431  44.006   7.295
 3534POPC   C1B47935  41.633  43.567   6.182
 3534POPC   C2B47936  41.847  43.719   6.554
 3534POPC   C3B47937  42.032  43.725   6.975
 3534POPC   C4B47938  41.907  43.855   7.379
 3535POPC   NC347939  21.234   2.360   5.467
 3535POPC   PO447940  21.682   2.813   5.360
 3535POPC   GL147941  21.496   2.670   5.773
 3535POPC   GL247942  21.139   2.797   5.786
 3535POPC   C1A47943  21.390   2.703   6.220
 3535POPC   D2A47944  21.510   2.901   6.622
 3535POPC   C3A47945  21.537   2.673   7.016
 3535POPC   C4A47946  21.476   2.619   7.462
 3535POPC   C1B47947  21.071   3.113   6.159
 3535POPC   C2B47948  21.141   3.272   6.609
 3535POPC   C3B47949  21.196   3.060   7.034
 3535POPC   C4B47950  21.559   3.109   7.335
 3536POPC   NC347951  17.923  14.534   5.512
 3536POPC   PO447952  17.559  14.119   5.431
 3536POPC   GL147953  17.560  14.305   5.852
 3536POPC   GL247954  17.281  14.514   5.950
 3536POPC   C1A47955  17.537  14.186   6.308
 3536POPC   D2A47956  17.385  14.439   6.664
 3536POPC   C3A47957  17.596  14.521   7.056
 3536POPC   C4A47958  17.632  14.242   7.398
 3536POPC   C1B47959  17.040  14.336   6.281
 3536POPC   C2B47960  16.876  14.448   6.685
 3536POPC   C3B47961  17.077  14.524   7.097
 3536POPC   C4B47962  17.116  14.291   7.487
 3537POPC   NC347963  14.835  27.242   5.500
 3537POPC   PO447964  14.191  27.382   5.419
 3537POPC   GL147965  14.222  27.688   5.734
 3537POPC   GL247966  14.582  27.807   5.788
 3537POPC   C1A47967  14.201  27.716   6.159
 3537POPC   D2A47968  14.264  27.427   6.455
 3537POPC   C3A47969  14.171  27.543   6.851
 3537POPC   C4A47970  14.248  27.578   7.265
 3537POPC   C1B47971  14.692  27.550   6.146
 3537POPC   C2B47972  14.729  27.544   6.589
 3537POPC   C3B47973  14.692  27.583   7.000
 3537POPC   C4B47974  14.963  27.835   7.218
 3538POPC   NC347975  19.552   0.459   5.337
 3538POPC   PO447976  20.117   0.073   5.507
 3538POPC   GL147977  19.802   0.248   5.802
 3538POPC   GL247978  19.761   0.573   5.799
 3538POPC   C1A47979  19.832   0.303   6.273
 3538POPC   D2A47980  20.083   0.278   6.638
 3538POPC   C3A47981  19.816   0.361   7.007
 3538POPC   C4A47982  19.768   0.636   7.373
 3538POPC   C1B47983  19.525   0.686   6.136
 3538POPC   C2B47984  19.486   0.590   6.561
 3538POPC   C3B47985  19.456   0.752   6.968
 3538POPC   C4B47986  19.241   0.618   7.320
 3539POPC   NC347987  19.984   8.997   5.127
 3539POPC   PO447988  19.538   8.622   5.371
 3539POPC   GL147989  19.797   8.888   5.726
 3539POPC   GL247990  19.650   9.221   5.895
 3539POPC   C1A47991  20.083   9.047   6.078
 3539POPC   D2A47992  19.984   9.314   6.462
 3539POPC   C3A47993  19.932   9.117   6.898
 3539POPC   C4A47994  20.048   8.876   7.313
 3539POPC   C1B47995  19.625   8.927   6.261
 3539POPC   C2B47996  19.561   8.754   6.678
 3539POPC   C3B47997  19.559   8.835   7.120
 3539POPC   C4B47998  19.570   8.947   7.556
 3540POPC   NC347999   7.650  12.988   5.262
 3540POPC   PO448000   7.142  12.688   5.545
 3540POPC   GL148001   7.320  12.799   5.918
 3540POPC   GL248002   7.421  13.093   5.768
 3540POPC   C1A48003   7.508  12.619   6.290
 3540POPC   D2A48004   7.769  12.593   6.654
 3540POPC   C3A48005   7.519  12.680   6.964
 3540POPC   C4A48006   7.122  12.860   7.045
 3540POPC   C1B48007   7.575  13.118   6.206
 3540POPC   C2B48008   7.377  13.019   6.613
 3540POPC   C3B48009   7.509  13.210   7.019
 3540POPC   C4B48010   7.953  13.153   7.119
 3541POPC   NC348011  14.165  19.463   5.246
 3541POPC   PO448012  14.708  19.859   5.218
 3541POPC   GL148013  14.536  19.801   5.715
 3541POPC   GL248014  14.312  20.073   5.885
 3541POPC   C1A48015  14.299  19.601   6.085
 3541POPC   D2A48016  14.255  19.774   6.514
 3541POPC   C3A48017  14.221  19.502   6.879
 3541POPC   C4A48018  14.320  19.600   7.285
 3541POPC   C1B48019  14.274  20.290   6.301
 3541POPC   C2B48020  14.153  20.322   6.747
 3541POPC   C3B48021  14.155  20.084   7.146
 3541POPC   C4B48022  13.979  19.882   7.531
 3542POPC   NC348023  33.781  18.103   5.401
 3542POPC   PO448024  33.762  18.692   5.350
 3542POPC   GL148025  33.884  18.471   5.732
 3542POPC   GL248026  33.558  18.355   5.793
 3542POPC   C1A48027  34.039  18.350   6.119
 3542POPC   D2A48028  33.952  18.531   6.503
 3542POPC   C3A48029  33.804  18.265   6.812
 3542POPC   C4A48030  33.789  18.396   7.232
 3542POPC   C1B48031  33.556  18.143   6.175
 3542POPC   C2B48032  33.258  17.965   6.446
 3542POPC   C3B48033  33.216  18.105   6.833
 3542POPC   C4B48034  33.511  17.999   7.127
 3543POPC   NC348035   8.162  16.900   5.334
 3543POPC   PO448036   8.610  16.411   5.419
 3543POPC   GL148037   8.301  16.606   5.741
 3543POPC   GL248038   8.078  16.346   5.918
 3543POPC   C1A48039   8.201  16.759   6.183
 3543POPC   D2A48040   8.365  16.947   6.563
 3543POPC   C3A48041   8.266  16.917   7.004
 3543POPC   C4A48042   8.567  16.849   7.336
 3543POPC   C1B48043   8.478  16.308   6.110
 3543POPC   C2B48044   8.519  16.289   6.522
 3543POPC   C3B48045   8.265  16.461   6.786
 3543POPC   C4B48046   8.158  16.449   7.183
 3544POPC   NC348047  42.489  42.470   5.499
 3544POPC   PO448048  42.241  41.814   5.482
 3544POPC   GL148049  42.294  42.080   5.839
 3544POPC   GL248050  42.069  42.339   5.820
 3544POPC   C1A48051  42.617  42.196   6.169
 3544POPC   D2A48052  42.664  42.079   6.577
 3544POPC   C3A48053  42.524  42.430   6.796
 3544POPC   C4A48054  42.583  42.315   7.192
 3544POPC   C1B48055  42.155  42.331   6.282
 3544POPC   C2B48056  42.150  42.095   6.650
 3544POPC   C3B48057  42.185  42.023   7.048
 3544POPC   C4B48058  42.046  42.370   7.297
 3545POPC   NC348059  13.751   5.541   5.380
 3545POPC   PO448060  13.930   4.965   5.194
 3545POPC   GL148061  13.658   5.053   5.593
 3545POPC   GL248062  13.385   5.343   5.689
 3545POPC   C1A48063  13.740   5.172   6.048
 3545POPC   D2A48064  13.884   5.394   6.429
 3545POPC   C3A48065  13.872   5.184   6.850
 3545POPC   C4A48066  13.682   4.953   7.226
 3545POPC   C1B48067  13.228   5.331   6.160
 3545POPC   C2B48068  13.401   5.291   6.607
 3545POPC   C3B48069  13.412   5.365   7.072
 3545POPC   C4B48070  13.378   5.394   7.521
 3546POPC   NC348071  25.063  27.739   5.557
 3546POPC   PO448072  24.387  27.668   5.396
 3546POPC   GL148073  24.269  27.636   5.809
 3546POPC   GL248074  24.602  27.597   5.913
 3546POPC   C1A48075  24.208  27.660   6.237
 3546POPC   D2A48076  24.550  27.604   6.466
 3546POPC   C3A48077  24.419  27.449   6.824
 3546POPC   C4A48078  24.492  27.472   7.275
 3546POPC   C1B48079  24.735  27.974   6.137
 3546POPC   C2B48080  24.882  27.976   6.560
 3546POPC   C3B48081  24.784  27.770   6.923
 3546POPC   C4B48082  24.701  27.941   7.284
 3547POPC   NC348083  31.857   2.651   5.611
 3547POPC   PO448084  31.396   2.945   5.198
 3547POPC   GL148085  31.444   2.987   5.650
 3547POPC   GL248086  31.254   2.715   5.834
 3547POPC   C1A48087  31.534   3.023   6.115
 3547POPC   D2A48088  31.778   2.823   6.431
 3547POPC   C3A48089  31.669   2.811   6.885
 3547POPC   C4A48090  31.414   2.859   7.261
 3547POPC   C1B48091  31.426   2.487   6.211
 3547POPC   C2B48092  31.646   2.368   6.609
 3547POPC   C3B48093  31.558   2.323   7.050
 3547POPC   C4B48094  31.756   2.512   7.413
 3548POPC   NC348095  12.267  37.620   5.537
 3548POPC   PO448096  12.925  37.718   5.455
 3548POPC   GL148097  13.117  37.498   5.793
 3548POPC   GL248098  12.867  37.706   6.016
 3548POPC   C1A48099  13.041  37.267   6.168
 3548POPC   D2A48100  13.061  37.537   6.535
 3548POPC   C3A48101  12.988  37.369   6.949
 3548POPC   C4A48102  13.131  37.494   7.355
 3548POPC   C1B48103  12.608  37.759   6.400
 3548POPC   C2B48104  12.666  37.743   6.825
 3548POPC   C3B48105  12.642  37.662   7.274
 3548POPC   C4B48106  12.656  37.747   7.722
 3549POPC   NC348107  31.116  12.132   5.131
 3549POPC   PO448108  31.562  11.855   5.620
 3549POPC   GL148109  31.646  12.111   5.964
 3549POPC   GL248110  31.593  12.451   5.861
 3549POPC   C1A48111  31.700  12.098   6.428
 3549POPC   D2A48112  31.491  11.800   6.708
 3549POPC   C3A48113  31.404  11.914   7.133
 3549POPC   C4A48114  31.330  11.759   7.564
 3549POPC   C1B48115  31.315  12.410   6.241
 3549POPC   C2B48116  31.290  12.293   6.691
 3549POPC   C3B48117  31.252  12.472   7.076
 3549POPC   C4B48118  31.388  12.306   7.455
 3550POPC   NC348119   5.586  31.977   5.381
 3550POPC   PO448120   5.062  32.322   5.478
 3550POPC   GL148121   5.032  32.293   5.862
 3550POPC   GL248122   4.750  32.465   5.872
 3550POPC   C1A48123   5.106  32.222   6.283
 3550POPC   D2A48124   5.176  31.974   6.618
 3550POPC   C3A48125   5.142  32.280   6.894
 3550POPC   C4A48126   5.125  32.174   7.288
 3550POPC   C1B48127   4.885  32.674   6.197
 3550POPC   C2B48128   4.831  32.596   6.612
 3550POPC   C3B48129   4.937  32.764   7.000
 3550POPC   C4B48130   4.771  32.541   7.328
 3551POPC   NC348131  23.154  13.762   5.361
 3551POPC   PO448132  22.532  13.479   5.321
 3551POPC   GL148133  22.577  13.684   5.761
 3551POPC   GL248134  22.939  13.773   5.851
 3551POPC   C1A48135  22.636  13.658   6.244
 3551POPC   D2A48136  22.722  13.834   6.656
 3551POPC   C3A48137  22.752  13.595   7.037
 3551POPC   C4A48138  22.798  13.427   7.449
 3551POPC   C1B48139  23.187  13.706   6.290
 3551POPC   C2B48140  23.213  13.646   6.770
 3551POPC   C3B48141  23.169  13.271   7.077
 3551POPC   C4B48142  22.930  12.947   7.334
 3552POPC   NC348143  42.413  34.165   5.105
 3552POPC   PO448144  42.092  33.631   5.337
 3552POPC   GL148145  42.154  33.512   5.794
 3552POPC   GL248146  42.155  33.838   5.947
 3552POPC   C1A48147  42.311  33.486   6.278
 3552POPC   D2A48148  42.229  33.715   6.712
 3552POPC   C3A48149  42.375  33.712   7.177
 3552POPC   C4A48150  42.564  33.561   7.584
 3552POPC   C1B48151  41.884  33.787   6.324
 3552POPC   C2B48152  41.702  33.701   6.716
 3552POPC   C3B48153  41.895  33.953   7.029
 3552POPC   C4B48154  41.984  33.899   7.459
 3553POPC   NC348155   6.705   2.361   5.576
 3553POPC   PO448156   6.317   1.780   5.498
 3553POPC   GL148157   6.470   1.998   5.869
 3553POPC   GL248158   6.839   1.986   5.935
 3553POPC   C1A48159   6.525   2.153   6.294
 3553POPC   D2A48160   6.351   2.019   6.662
 3553POPC   C3A48161   6.680   2.013   6.934
 3553POPC   C4A48162   6.703   2.397   7.103
 3553POPC   C1B48163   7.058   2.040   6.331
 3553POPC   C2B48164   7.136   1.815   6.738
 3553POPC   C3B48165   6.938   1.604   7.092
 3553POPC   C4B48166   6.819   1.537   7.517
 3554POPC   NC348167   4.546  17.911   5.455
 3554POPC   PO448168   4.395  18.582   5.529
 3554POPC   GL148169   4.425  18.263   5.826
 3554POPC   GL248170   4.078  18.230   5.881
 3554POPC   C1A48171   4.397  18.228   6.271
 3554POPC   D2A48172   4.217  18.432   6.608
 3554POPC   C3A48173   4.156  18.187   6.961
 3554POPC   C4A48174   4.463  18.052   7.282
 3554POPC   C1B48175   4.069  18.625   6.162
 3554POPC   C2B48176   3.852  18.789   6.592
 3554POPC   C3B48177   4.039  18.693   7.029
 3554POPC   C4B48178   4.076  18.404   7.415
 3555POPC   NC348179  10.339  18.062   5.282
 3555POPC   PO448180  10.808  18.566   5.371
 3555POPC   GL148181  10.501  18.360   5.710
 3555POPC   GL248182  10.237  18.065   5.762
 3555POPC   C1A48183  10.566  18.138   6.137
 3555POPC   D2A48184  10.723  18.162   6.577
 3555POPC   C3A48185  10.518  18.471   6.846
 3555POPC   C4A48186  10.385  18.365   7.273
 3555POPC   C1B48187  10.012  18.020   6.119
 3555POPC   C2B48188  10.182  18.086   6.512
 3555POPC   C3B48189  10.250  18.027   6.918
 3555POPC   C4B48190  10.056  17.991   7.304
 3556POPC   NC348191  11.882  29.792   5.646
 3556POPC   PO448192  11.267  29.817   5.310
 3556POPC   GL148193  11.142  29.997   5.729
 3556POPC   GL248194  11.416  30.217   5.794
 3556POPC   C1A48195  11.004  30.149   6.165
 3556POPC   D2A48196  11.002  30.387   6.577
 3556POPC   C3A48197  11.098  30.226   7.012
 3556POPC   C4A48198  11.275  30.090   7.407
 3556POPC   C1B48199  11.477  29.926   6.157
 3556POPC   C2B48200  11.303  29.927   6.581
 3556POPC   C3B48201  11.462  29.851   6.997
 3556POPC   C4B48202  11.775  29.634   7.219
 3557POPC   NC348203  31.604  43.664   5.307
 3557POPC   PO448204  31.238  44.214   5.399
 3557POPC   GL148205  31.244  43.918   5.700
 3557POPC   GL248206  31.585  43.909   5.744
 3557POPC   C1A48207  31.107  43.884   6.138
 3557POPC   D2A48208  31.326  43.831   6.507
 3557POPC   C3A48209  31.198  43.833   6.892
 3557POPC   C4A48210  31.400  43.683   7.266
 3557POPC   C1B48211  31.563  44.105   6.138
 3557POPC   C2B48212  31.633  44.237   6.556
 3557POPC   C3B48213  31.655  44.032   6.943
 3557POPC   C4B48214  31.357  44.183   7.263
 3558POPC   NC348215  37.537  25.412   5.499
 3558POPC   PO448216  38.185  25.088   5.426
 3558POPC   GL148217  37.916  25.291   5.826
 3558POPC   GL248218  37.542  25.164   5.938
 3558POPC   C1A48219  37.776  25.363   6.316
 3558POPC   D2A48220  37.556  25.721   6.528
 3558POPC   C3A48221  37.347  25.588   6.895
 3558POPC   C4A48222  37.508  25.336   7.184
 3558POPC   C1B48223  37.515  24.893   6.288
 3558POPC   C2B48224  37.552  24.984   6.757
 3558POPC   C3B48225  37.510  24.842   7.191
 3558POPC   C4B48226  37.602  25.063   7.611
 3559POPC   NC348227  21.130  30.934   5.529
 3559POPC   PO448228  21.800  30.855   5.503
 3559POPC   GL148229  21.521  30.705   5.850
 3559POPC   GL248230  21.438  31.057   5.918
 3559POPC   C1A48231  21.418  30.483   6.276
 3559POPC   D2A48232  21.400  30.292   6.719
 3559POPC   C3A48233  21.288  30.493   7.085
 3559POPC   C4A48234  21.612  30.681   7.255
 3559POPC   C1B48235  21.490  30.973   6.347
 3559POPC   C2B48236  21.467  30.845   6.772
 3559POPC   C3B48237  21.249  31.023   7.163
 3559POPC   C4B48238  20.983  31.077   7.507
 3560POPC   NC348239  14.062  12.648   5.394
 3560POPC   PO448240  14.771  12.934   5.399
 3560POPC   GL148241  14.512  12.846   5.803
 3560POPC   GL248242  14.206  13.031   5.797
 3560POPC   C1A48243  14.321  12.745   6.253
 3560POPC   D2A48244  14.219  12.760   6.738
 3560POPC   C3A48245  14.541  12.727   7.107
 3560POPC   C4A48246  14.979  12.545   7.231
 3560POPC   C1B48247  14.222  13.254   6.182
 3560POPC   C2B48248  14.299  13.265   6.619
 3560POPC   C3B48249  14.295  13.191   7.065
 3560POPC   C4B48250  14.609  13.173   7.411
 3561POPC   NC348251  14.732  12.479   5.509
 3561POPC   PO448252  14.127  12.163   5.465
 3561POPC   GL148253  14.378  12.019   5.798
 3561POPC   GL248254  14.528  12.315   5.950
 3561POPC   C1A48255  14.544  11.834   6.174
 3561POPC   D2A48256  14.322  11.753   6.570
 3561POPC   C3A48257  14.630  11.794   6.932
 3561POPC   C4A48258  14.756  12.089   7.310
 3561POPC   C1B48259  14.176  12.205   6.239
 3561POPC   C2B48260  14.137  12.236   6.678
 3561POPC   C3B48261  14.356  12.252   7.046
 3561POPC   C4B48262  14.304  12.276   7.502
 3562POPC   NC348263  28.894  32.099   5.316
 3562POPC   PO448264  28.222  32.247   5.506
 3562POPC   GL148265  28.305  32.281   5.883
 3562POPC   GL248266  28.668  32.386   5.793
 3562POPC   C1A48267  28.092  32.150   6.248
 3562POPC   D2A48268  28.148  31.939   6.622
 3562POPC   C3A48269  28.160  32.268   6.932
 3562POPC   C4A48270  28.187  32.389   7.353
 3562POPC   C1B48271  28.627  32.506   6.225
 3562POPC   C2B48272  28.564  32.328   6.630
 3562POPC   C3B48273  28.655  32.428   7.066
 3562POPC   C4B48274  28.598  32.666   7.461
 3563POPC   NC348275  11.272  32.824   5.595
 3563POPC   PO448276  11.483  33.460   5.461
 3563POPC   GL148277  11.372  33.303   5.834
 3563POPC   GL248278  11.026  33.310   5.867
 3563POPC   C1A48279  11.545  33.164   6.228
 3563POPC   D2A48280  11.830  33.236   6.569
 3563POPC   C3A48281  11.587  33.105   6.926
 3563POPC   C4A48282  11.167  32.893   7.061
 3563POPC   C1B48283  11.172  33.525   6.259
 3563POPC   C2B48284  11.216  33.377   6.699
 3563POPC   C3B48285  11.223  33.391   7.186
 3563POPC   C4B48286  11.059  33.143   7.572
 3564POPC   NC348287  33.057  19.947   5.169
 3564POPC   PO448288  33.545  20.185   5.322
 3564POPC   GL148289  33.287  19.922   5.657
 3564POPC   GL248290  32.947  19.754   5.660
 3564POPC   C1A48291  33.358  19.801   6.099
 3564POPC   D2A48292  33.164  19.697   6.514
 3564POPC   C3A48293  33.276  19.670   6.958
 3564POPC   C4A48294  33.110  19.843   7.356
 3564POPC   C1B48295  32.903  19.538   6.078
 3564POPC   C2B48296  32.704  19.423   6.485
 3564POPC   C3B48297  32.811  19.449   6.928
 3564POPC   C4B48298  33.007  19.355   7.296
 3565POPC   NC348299  21.890   7.348   5.355
 3565POPC   PO448300  22.493   7.799   5.470
 3565POPC   GL148301  22.462   7.404   5.755
 3565POPC   GL248302  22.078   7.254   5.842
 3565POPC   C1A48303  22.424   7.355   6.212
 3565POPC   D2A48304  22.157   7.242   6.580
 3565POPC   C3A48305  22.357   7.301   6.969
 3565POPC   C4A48306  22.231   7.398   7.375
 3565POPC   C1B48307  21.867   7.463   6.190
 3565POPC   C2B48308  21.683   7.461   6.584
 3565POPC   C3B48309  21.835   7.470   7.018
 3565POPC   C4B48310  21.767   7.838   7.297
 3566POPC   NC348311  11.665  39.244   5.487
 3566POPC   PO448312  12.216  38.818   5.407
 3566POPC   GL148313  12.078  39.031   5.741
 3566POPC   GL248314  11.865  38.790   5.848
 3566POPC   C1A48315  11.987  39.324   6.073
 3566POPC   D2A48316  12.071  39.300   6.517
 3566POPC   C3A48317  11.922  39.434   6.926
 3566POPC   C4A48318  12.187  39.610   7.268
 3566POPC   C1B48319  11.865  38.887   6.315
 3566POPC   C2B48320  11.980  38.875   6.791
 3566POPC   C3B48321  11.838  38.763   7.217
 3566POPC   C4B48322  11.984  38.826   7.651
 3567POPC   NC348323  10.502   8.298   5.271
 3567POPC   PO448324  10.001   7.850   5.469
 3567POPC   GL148325  10.299   8.098   5.709
 3567POPC   GL248326  10.628   8.054   5.726
 3567POPC   C1A48327  10.376   8.388   6.069
 3567POPC   D2A48328  10.522   8.402   6.529
 3567POPC   C3A48329  10.173   8.433   6.835
 3567POPC   C4A48330   9.984   8.505   7.251
 3567POPC   C1B48331  10.838   8.184   6.149
 3567POPC   C2B48332  10.912   7.971   6.560
 3567POPC   C3B48333  10.817   8.128   6.984
 3567POPC   C4B48334  10.965   8.393   7.316
 3568POPC   NC348335  14.786   5.876   5.562
 3568POPC   PO448336  14.570   6.333   5.154
 3568POPC   GL148337  14.380   6.235   5.695
 3568POPC   GL248338  14.363   5.883   5.854
 3568POPC   C1A48339  14.139   6.262   6.110
 3568POPC   D2A48340  13.943   5.983   6.458
 3568POPC   C3A48341  14.108   5.985   6.904
 3568POPC   C4A48342  14.381   5.788   7.238
 3568POPC   C1B48343  14.616   6.099   6.191
 3568POPC   C2B48344  14.499   6.366   6.531
 3568POPC   C3B48345  14.619   6.121   6.884
 3568POPC   C4B48346  14.743   6.168   7.281
 3569POPC   NC348347  10.661  13.591   5.187
 3569POPC   PO448348   9.984  13.716   5.315
 3569POPC   GL148349  10.342  13.682   5.636
 3569POPC   GL248350  10.662  13.890   5.595
 3569POPC   C1A48351  10.444  13.440   6.057
 3569POPC   D2A48352  10.440  13.296   6.515
 3569POPC   C3A48353  10.229  13.626   6.766
 3569POPC   C4A48354  10.252  13.856   7.131
 3569POPC   C1B48355  10.713  13.891   6.048
 3569POPC   C2B48356  10.551  13.907   6.488
 3569POPC   C3B48357  10.685  14.048   6.919
 3569POPC   C4B48358  10.763  13.829   7.310
 3570POPC   NC348359   9.313  21.624   5.445
 3570POPC   PO448360   8.646  21.196   5.476
 3570POPC   GL148361   8.968  21.295   5.757
 3570POPC   GL248362   9.159  21.003   5.919
 3570POPC   C1A48363   8.902  21.495   6.160
 3570POPC   D2A48364   9.032  21.373   6.584
 3570POPC   C3A48365   8.796  21.589   6.887
 3570POPC   C4A48366   8.720  21.512   7.302
 3570POPC   C1B48367   9.387  21.355   6.087
 3570POPC   C2B48368   9.535  21.463   6.491
 3570POPC   C3B48369   9.367  21.725   6.822
 3570POPC   C4B48370   9.202  21.633   7.208
 3571POPC   NC348371  40.634  10.037   5.396
 3571POPC   PO448372  40.593   9.433   5.203
 3571POPC   GL148373  40.791   9.541   5.629
 3571POPC   GL248374  40.593   9.753   5.842
 3571POPC   C1A48375  41.019   9.503   6.070
 3571POPC   D2A48376  41.043   9.288   6.496
 3571POPC   C3A48377  41.007   9.547   6.875
 3571POPC   C4A48378  40.615   9.499   7.105
 3571POPC   C1B48379  40.792   9.947   6.190
 3571POPC   C2B48380  40.945  10.048   6.579
 3571POPC   C3B48381  40.759  10.004   6.983
 3571POPC   C4B48382  40.704  10.282   7.335
 3572POPC   NC348383  15.860   4.540   5.577
 3572POPC   PO448384  16.031   5.180   5.420
 3572POPC   GL148385  16.024   4.987   5.803
 3572POPC   GL248386  15.701   5.099   5.880
 3572POPC   C1A48387  16.266   5.014   6.186
 3572POPC   D2A48388  16.329   5.237   6.566
 3572POPC   C3A48389  16.351   4.985   6.955
 3572POPC   C4A48390  16.120   4.820   7.327
 3572POPC   C1B48391  15.779   4.858   6.264
 3572POPC   C2B48392  15.904   4.974   6.684
 3572POPC   C3B48393  15.708   5.092   7.088
 3572POPC   C4B48394  15.602   4.787   7.430
 3573POPC   NC348395   8.221   3.246   5.565
 3573POPC   PO448396   7.749   3.619   5.425
 3573POPC   GL148397   8.114   3.742   5.719
 3573POPC   GL248398   8.495   3.826   5.862
 3573POPC   C1A48399   8.111   3.685   6.164
 3573POPC   D2A48400   8.164   3.898   6.534
 3573POPC   C3A48401   7.978   3.752   6.898
 3573POPC   C4A48402   8.152   3.423   7.130
 3573POPC   C1B48403   8.582   3.426   6.116
 3573POPC   C2B48404   8.403   3.398   6.543
 3573POPC   C3B48405   8.493   3.731   6.874
 3573POPC   C4B48406   8.654   3.699   7.270
 3574POPC   NC348407  30.211   7.329   5.532
 3574POPC   PO448408  29.710   7.859   5.417
 3574POPC   GL148409  29.854   7.623   5.795
 3574POPC   GL248410  29.767   7.269   5.817
 3574POPC   C1A48411  29.817   7.713   6.249
 3574POPC   D2A48412  29.567   7.734   6.641
 3574POPC   C3A48413  29.856   7.727   6.987
 3574POPC   C4A48414  30.273   7.813   7.169
 3574POPC   C1B48415  30.076   7.274   6.190
 3574POPC   C2B48416  30.133   7.211   6.645
 3574POPC   C3B48417  30.080   7.276   7.100
 3574POPC   C4B48418  29.823   7.090   7.405
 3575POPC   NC348419  39.673  19.361   5.458
 3575POPC   PO448420  40.114  18.885   5.401
 3575POPC   GL148421  39.947  19.031   5.765
 3575POPC   GL248422  40.248  19.050   5.923
 3575POPC   C1A48423  39.830  19.245   6.150
 3575POPC   D2A48424  39.748  19.079   6.567
 3575POPC   C3A48425  39.768  19.291   6.958
 3575POPC   C4A48426  39.947  18.958   7.166
 3575POPC   C1B48427  40.183  18.911   6.332
 3575POPC   C2B48428  40.310  18.936   6.749
 3575POPC   C3B48429  40.448  18.915   7.166
 3575POPC   C4B48430  40.289  18.947   7.601
 3576POPC   NC348431  30.732  34.973   5.338
 3576POPC   PO448432  30.857  35.645   5.385
 3576POPC   GL148433  30.760  35.465   5.798
 3576POPC   GL248434  30.593  35.134   5.817
 3576POPC   C1A48435  30.657  35.510   6.254
 3576POPC   D2A48436  30.535  35.524   6.690
 3576POPC   C3A48437  30.805  35.503   7.066
 3576POPC   C4A48438  30.744  35.453   7.519
 3576POPC   C1B48439  30.948  35.111   6.129
 3576POPC   C2B48440  30.943  35.215   6.593
 3576POPC   C3B48441  30.658  35.049   6.934
 3576POPC   C4B48442  30.455  35.076   7.346
 3577POPC   NC348443  14.101  34.446   5.287
 3577POPC   PO448444  13.544  34.882   5.305
 3577POPC   GL148445  13.759  34.770   5.673
 3577POPC   GL248446  14.092  34.779   5.685
 3577POPC   C1A48447  13.700  34.769   6.122
 3577POPC   D2A48448  13.451  34.653   6.494
 3577POPC   C3A48449  13.502  34.758   6.937
 3577POPC   C4A48450  13.325  34.443   7.196
 3577POPC   C1B48451  14.042  34.408   5.951
 3577POPC   C2B48452  13.969  34.395   6.376
 3577POPC   C3B48453  13.833  34.397   6.787
 3577POPC   C4B48454  13.819  34.444   7.211
 3578POPC   NC348455   6.137  43.487   5.098
 3578POPC   PO448456   5.852  43.957   5.426
 3578POPC   GL148457   5.680  43.794   5.797
 3578POPC   GL248458   5.855  43.511   5.935
 3578POPC   C1A48459   5.741  43.868   6.251
 3578POPC   D2A48460   5.816  43.626   6.624
 3578POPC   C3A48461   5.617  43.753   7.022
 3578POPC   C4A48462   5.778  44.088   7.306
 3578POPC   C1B48463   6.183  43.569   6.249
 3578POPC   C2B48464   6.355  43.576   6.655
 3578POPC   C3B48465   6.147  43.799   6.980
 3578POPC   C4B48466   6.003  43.612   7.351
 3579POPC   NC348467   2.745  36.385   5.183
 3579POPC   PO448468   2.809  35.767   5.453
 3579POPC   GL148469   2.861  35.967   5.874
 3579POPC   GL248470   2.840  36.293   5.747
 3579POPC   C1A48471   2.809  35.912   6.360
 3579POPC   D2A48472   2.562  35.995   6.750
 3579POPC   C3A48473   2.660  35.967   7.197
 3579POPC   C4A48474   2.805  35.937   7.624
 3579POPC   C1B48475   2.642  36.378   6.162
 3579POPC   C2B48476   2.750  36.468   6.613
 3579POPC   C3B48477   2.552  36.449   7.016
 3579POPC   C4B48478   2.714  36.442   7.412
 3580POPC   NC348479   7.900  32.225   5.269
 3580POPC   PO448480   8.458  32.581   5.526
 3580POPC   GL148481   8.247  32.287   5.775
 3580POPC   GL248482   8.520  32.227   5.963
 3580POPC   C1A48483   8.058  32.324   6.189
 3580POPC   D2A48484   7.857  32.571   6.486
 3580POPC   C3A48485   8.006  32.421   6.872
 3580POPC   C4A48486   8.180  32.227   7.233
 3580POPC   C1B48487   8.465  32.019   6.348
 3580POPC   C2B48488   8.481  32.186   6.766
 3580POPC   C3B48489   8.539  32.530   7.053
 3580POPC   C4B48490   8.413  32.615   7.502
 3581POPC   NC348491  19.474  13.767   5.217
 3581POPC   PO448492  19.652  13.169   5.440
 3581POPC   GL148493  19.824  13.358   5.892
 3581POPC   GL248494  19.856  13.701   5.842
 3581POPC   C1A48495  19.858  13.622   6.332
 3581POPC   D2A48496  19.736  13.802   6.728
 3581POPC   C3A48497  19.752  13.448   7.011
 3581POPC   C4A48498  20.157  13.235   7.039
 3581POPC   C1B48499  20.217  13.893   6.069
 3581POPC   C2B48500  20.279  13.885   6.537
 3581POPC   C3B48501  20.191  13.780   6.975
 3581POPC   C4B48502  19.957  13.771   7.338
 3582POPC   NC348503  37.221   1.902   5.526
 3582POPC   PO448504  36.917   2.443   5.370
 3582POPC   GL148505  36.796   2.270   5.734
 3582POPC   GL248506  37.145   2.326   5.829
 3582POPC   C1A48507  36.824   2.128   6.179
 3582POPC   D2A48508  36.931   2.307   6.582
 3582POPC   C3A48509  36.904   1.997   6.916
 3582POPC   C4A48510  36.647   1.917   7.255
 3582POPC   C1B48511  37.258   2.525   6.209
 3582POPC   C2B48512  37.277   2.684   6.632
 3582POPC   C3B48513  37.260   2.370   6.996
 3582POPC   C4B48514  37.160   2.244   7.459
 3583POPC   NC348515  28.710   6.489   5.150
 3583POPC   PO448516  29.196   6.849   5.498
 3583POPC   GL148517  29.301   6.707   5.847
 3583POPC   GL248518  29.633   6.772   5.791
 3583POPC   C1A48519  29.082   6.797   6.216
 3583POPC   D2A48520  28.906   6.666   6.581
 3583POPC   C3A48521  29.130   6.824   6.915
 3583POPC   C4A48522  29.053   6.518   7.192
 3583POPC   C1B48523  29.628   6.472   6.122
 3583POPC   C2B48524  29.442   6.579   6.529
 3583POPC   C3B48525  29.537   6.487   6.962
 3583POPC   C4B48526  29.497   6.354   7.399
 3584POPC   NC348527  14.631  22.185   5.337
 3584POPC   PO448528  14.038  22.237   5.523
 3584POPC   GL148529  14.396  22.049   5.795
 3584POPC   GL248530  14.746  22.247   5.815
 3584POPC   C1A48531  14.364  22.039   6.266
 3584POPC   D2A48532  14.306  22.365   6.642
 3584POPC   C3A48533  14.173  22.156   7.038
 3584POPC   C4A48534  14.396  21.759   7.248
 3584POPC   C1B48535  14.691  22.445   6.201
 3584POPC   C2B48536  14.775  22.184   6.544
 3584POPC   C3B48537  14.643  22.039   6.901
 3584POPC   C4B48538  14.602  22.215   7.319
 3585POPC   NC348539  16.708  19.893   5.464
 3585POPC   PO448540  15.990  20.018   5.458
 3585POPC   GL148541  15.802  19.876   5.840
 3585POPC   GL248542  15.904  20.195   5.944
 3585POPC   C1A48543  15.566  19.993   6.232
 3585POPC   D2A48544  15.651  20.123   6.642
 3585POPC   C3A48545  15.724  19.888   7.033
 3585POPC   C4A48546  15.807  20.002   7.466
 3585POPC   C1B48547  16.065  19.921   6.293
 3585POPC   C2B48548  16.151  19.988   6.726
 3585POPC   C3B48549  16.167  20.179   7.132
 3585POPC   C4B48550  16.325  19.923   7.438
 3586POPC   NC348551  43.225   4.588   5.499
 3586POPC   PO448552  43.211   5.215   5.452
 3586POPC   GL148553  43.221   5.149   5.890
 3586POPC   GL248554  43.095   4.824   6.000
 3586POPC   C1A48555  43.002   5.226   6.298
 3586POPC   D2A48556  43.043   4.969   6.647
 3586POPC   C3A48557  42.815   5.200   6.929
 3586POPC   C4A48558  42.904   5.522   7.208
 3586POPC   C1B48559  43.449   4.955   6.310
 3586POPC   C2B48560  43.521   5.215   6.676
 3586POPC   C3B48561  43.322   5.108   7.079
 3586POPC   C4B48562  43.085   4.783   7.129
 3587POPC   NC348563  34.248  31.739   5.506
 3587POPC   PO448564  33.630  31.266   5.394
 3587POPC   GL148565  33.884  31.317   5.780
 3587POPC   GL248566  33.622  31.543   5.835
 3587POPC   C1A48567  33.848  31.436   6.259
 3587POPC   D2A48568  33.625  31.612   6.580
 3587POPC   C3A48569  33.828  31.418   6.900
 3587POPC   C4A48570  34.057  31.476   7.238
 3587POPC   C1B48571  33.446  31.187   6.051
 3587POPC   C2B48572  33.470  31.123   6.512
 3587POPC   C3B48573  33.372  31.215   6.990
 3587POPC   C4B48574  33.484  31.325   7.459
 3588POPC   NC348575  20.163   1.239   5.595
 3588POPC   PO448576  19.577   0.919   5.480
 3588POPC   GL148577  19.708   1.089   5.861
 3588POPC   GL248578  19.603   1.430   5.817
 3588POPC   C1A48579  19.979   0.921   6.210
 3588POPC   D2A48580  19.964   0.766   6.643
 3588POPC   C3A48581  19.950   1.009   7.028
 3588POPC   C4A48582  19.643   1.311   7.166
 3588POPC   C1B48583  19.866   1.429   6.219
 3588POPC   C2B48584  19.870   1.399   6.683
 3588POPC   C3B48585  20.101   1.529   7.067
 3588POPC   C4B48586  19.968   1.565   7.504
 3589POPC   NC348587  35.884  11.463   5.355
 3589POPC   PO448588  36.404  10.985   5.289
 3589POPC   GL148589  36.216  11.223   5.662
 3589POPC   GL248590  36.212  10.943   5.874
 3589POPC   C1A48591  36.282  11.393   6.110
 3589POPC   D2A48592  36.218  11.573   6.518
 3589POPC   C3A48593  36.321  11.444   6.904
 3589POPC   C4A48594  36.108  11.337   7.272
 3589POPC   C1B48595  36.460  10.955   6.278
 3589POPC   C2B48596  36.406  10.975   6.712
 3589POPC   C3B48597  36.128  10.887   7.042
 3589POPC   C4B48598  36.275  10.856   7.467
 3590POPC   NC348599  12.391  42.413   5.379
 3590POPC   PO448600  11.802  42.043   5.333
 3590POPC   GL148601  11.972  42.331   5.713
 3590POPC   GL248602  11.747  42.534   5.869
 3590POPC   C1A48603  12.111  42.484   6.195
 3590POPC   D2A48604  11.858  42.627   6.615
 3590POPC   C3A48605  12.101  42.549   7.027
 3590POPC   C4A48606  12.454  42.434   7.333
 3590POPC   C1B48607  11.730  42.168   6.163
 3590POPC   C2B48608  11.627  42.162   6.580
 3590POPC   C3B48609  11.693  42.231   7.003
 3590POPC   C4B48610  12.050  42.088   7.242
 3591POPC   NC348611  11.853  38.435   5.434
 3591POPC   PO448612  12.374  38.002   5.270
 3591POPC   GL148613  12.188  38.193   5.710
 3591POPC   GL248614  12.283  38.479   5.785
 3591POPC   C1A48615  11.894  38.326   6.080
 3591POPC   D2A48616  12.032  38.447   6.497
 3591POPC   C3A48617  11.916  38.218   6.835
 3591POPC   C4A48618  11.819  38.158   7.257
 3591POPC   C1B48619  12.296  38.680   6.127
 3591POPC   C2B48620  12.450  38.768   6.515
 3591POPC   C3B48621  12.544  38.669   6.924
 3591POPC   C4B48622  12.246  38.455   7.180
 3592POPC   NC348623  30.390  35.668   5.462
 3592POPC   PO448624  30.596  36.389   5.361
 3592POPC   GL148625  30.606  36.091   5.658
 3592POPC   GL248626  30.247  36.132   5.713
 3592POPC   C1A48627  30.832  35.938   6.009
 3592POPC   D2A48628  30.724  35.984   6.436
 3592POPC   C3A48629  30.704  35.970   6.884
 3592POPC   C4A48630  30.882  36.203   7.216
 3592POPC   C1B48631  30.392  36.220   6.132
 3592POPC   C2B48632  30.354  36.276   6.594
 3592POPC   C3B48633  30.467  36.425   7.004
 3592POPC   C4B48634  30.272  36.467   7.412
 3593POPC   NC348635  16.692   3.991   5.664
 3593POPC   PO448636  16.770   3.390   5.418
 3593POPC   GL148637  16.692   3.500   5.831
 3593POPC   GL248638  16.651   3.153   5.896
 3593POPC   C1A48639  16.757   3.693   6.256
 3593POPC   D2A48640  16.956   3.558   6.638
 3593POPC   C3A48641  16.779   3.672   7.020
 3593POPC   C4A48642  16.852   3.477   7.375
 3593POPC   C1B48643  16.351   3.347   6.201
 3593POPC   C2B48644  16.416   3.485   6.630
 3593POPC   C3B48645  16.514   3.241   6.980
 3593POPC   C4B48646  16.341   3.304   7.359
 3594POPC   NC348647  34.410   8.388   5.173
 3594POPC   PO448648  34.901   8.096   5.478
 3594POPC   GL148649  34.578   8.269   5.749
 3594POPC   GL248650  34.839   8.187   5.979
 3594POPC   C1A48651  34.477   8.509   6.156
 3594POPC   D2A48652  34.347   8.384   6.575
 3594POPC   C3A48653  34.605   8.468   6.961
 3594POPC   C4A48654  34.406   8.437   7.362
 3594POPC   C1B48655  34.536   8.015   6.252
 3594POPC   C2B48656  34.831   8.231   6.522
 3594POPC   C3B48657  35.012   8.133   6.890
 3594POPC   C4B48658  34.785   8.059   7.243
 3595POPC   NC348659  39.473  37.225   5.529
 3595POPC   PO448660  38.953  36.651   5.369
 3595POPC   GL148661  39.061  36.666   5.781
 3595POPC   GL248662  39.351  36.774   5.821
 3595POPC   C1A48663  38.917  36.794   6.200
 3595POPC   D2A48664  38.951  36.841   6.653
 3595POPC   C3A48665  39.274  37.114   6.829
 3595POPC   C4A48666  39.606  37.165   7.127
 3595POPC   C1B48667  39.369  36.546   6.192
 3595POPC   C2B48668  39.425  36.658   6.605
 3595POPC   C3B48669  39.265  36.614   7.014
 3595POPC   C4B48670  38.975  36.898   7.209
 3596POPC   NC348671   9.323  34.397   5.375
 3596POPC   PO448672   9.984  34.518   5.398
 3596POPC   GL148673   9.850  34.435   5.821
 3596POPC   GL248674   9.542  34.227   5.883
 3596POPC   C1A48675   9.698  34.624   6.214
 3596POPC   D2A48676   9.694  34.569   6.661
 3596POPC   C3A48677   9.819  34.844   7.029
 3596POPC   C4A48678   9.657  34.815   7.504
 3596POPC   C1B48679   9.877  34.145   6.253
 3596POPC   C2B48680  10.070  34.217   6.703
 3596POPC   C3B48681   9.833  34.340   7.097
 3596POPC   C4B48682   9.802  34.309   7.545
 3597POPC   NC348683  21.121   5.876   5.609
 3597POPC   PO448684  21.578   5.312   5.597
 3597POPC   GL148685  21.482   5.623   5.900
 3597POPC   GL248686  21.150   5.653   6.045
 3597POPC   C1A48687  21.549   5.650   6.352
 3597POPC   D2A48688  21.338   5.501   6.729
 3597POPC   C3A48689  21.493   5.828   7.001
 3597POPC   C4A48690  21.783   6.197   7.123
 3597POPC   C1B48691  20.968   5.773   6.403
 3597POPC   C2B48692  20.828   5.662   6.778
 3597POPC   C3B48693  20.934   5.827   7.142
 3597POPC   C4B48694  21.189   6.191   7.182
 3598POPC   NC348695  13.001  41.515   5.446
 3598POPC   PO448696  12.440  41.941   5.320
 3598POPC   GL148697  12.697  41.791   5.752
 3598POPC   GL248698  13.081  41.787   5.859
 3598POPC   C1A48699  12.758  41.711   6.248
 3598POPC   D2A48700  12.796  41.454   6.653
 3598POPC   C3A48701  12.866  41.603   7.092
 3598POPC   C4A48702  12.622  41.535   7.461
 3598POPC   C1B48703  13.293  41.688   6.276
 3598POPC   C2B48704  13.277  41.562   6.753
 3598POPC   C3B48705  13.189  41.213   7.054
 3598POPC   C4B48706  13.045  41.260   7.503
 3599POPC   NC348707  32.972   7.873   5.450
 3599POPC   PO448708  33.190   8.561   5.441
 3599POPC   GL148709  33.177   8.498   5.838
 3599POPC   GL248710  32.879   8.390   5.894
 3599POPC   C1A48711  33.433   8.382   6.164
 3599POPC   D2A48712  33.362   8.159   6.553
 3599POPC   C3A48713  33.388   8.429   6.919
 3599POPC   C4A48714  33.182   8.256   7.286
 3599POPC   C1B48715  32.938   8.410   6.346
 3599POPC   C2B48716  32.882   8.404   6.801
 3599POPC   C3B48717  32.696   8.141   7.131
 3599POPC   C4B48718  32.768   8.115   7.585
 3600POPC   NC348719   8.989  20.867   5.454
 3600POPC   PO448720   9.169  20.293   5.566
 3600POPC   GL148721   8.916  20.523   5.860
 3600POPC   GL248722   8.667  20.817   5.865
 3600POPC   C1A48723   8.972  20.546   6.287
 3600POPC   D2A48724   8.933  20.318   6.700
 3600POPC   C3A48725   9.073  20.499   7.091
 3600POPC   C4A48726   9.185  20.547   7.526
 3600POPC   C1B48727   8.799  21.008   6.286
 3600POPC   C2B48728   8.934  20.868   6.735
 3600POPC   C3B48729   9.014  21.012   7.198
 3600POPC   C4B48730   8.809  20.904   7.646
 3601POPC   NC348731   0.224   5.602   5.076
 3601POPC   PO448732   0.591   5.082   5.356
 3601POPC   GL148733   0.443   5.109   5.760
 3601POPC   GL248734   0.694   5.354   5.853
 3601POPC   C1A48735   0.242   5.159   6.154
 3601POPC   D2A48736   0.419   4.949   6.491
 3601POPC   C3A48737   0.508   5.083   6.926
 3601POPC   C4A48738   0.215   4.950   7.246
 3601POPC   C1B48739   0.676   5.366   6.307
 3601POPC   C2B48740   0.317   5.452   6.628
 3601POPC   C3B48741   0.247   5.476   7.108
 3601POPC   C4B48742   0.500   5.365   7.502
 3602POPC   NC348743   3.852  38.841   5.649
 3602POPC   PO448744   4.296  39.178   5.259
 3602POPC   GL148745   4.274  39.163   5.691
 3602POPC   GL248746   4.511  38.924   5.757
 3602POPC   C1A48747   4.293  39.310   6.113
 3602POPC   D2A48748   4.435  39.229   6.524
 3602POPC   C3A48749   4.287  39.513   6.863
 3602POPC   C4A48750   4.237  39.460   7.283
 3602POPC   C1B48751   4.330  38.795   6.173
 3602POPC   C2B48752   4.181  38.756   6.604
 3602POPC   C3B48753   4.305  38.961   6.978
 3602POPC   C4B48754   4.116  38.949   7.363
 3603POPC   NC348755  41.914  19.451   5.415
 3603POPC   PO448756  42.305  18.956   5.003
 3603POPC   GL148757  42.349  18.975   5.506
 3603POPC   GL248758  42.026  19.036   5.684
 3603POPC   C1A48759  42.372  18.877   6.005
 3603POPC   D2A48760  42.378  19.037   6.422
 3603POPC   C3A48761  42.691  18.921   6.749
 3603POPC   C4A48762  42.767  19.120   7.138
 3603POPC   C1B48763  41.915  19.098   6.140
 3603POPC   C2B48764  41.908  19.078   6.607
 3603POPC   C3B48765  42.228  19.170   6.907
 3603POPC   C4B48766  42.136  19.450   7.195
 3604POPC   NC348767  36.269  27.053   5.272
 3604POPC   PO448768  36.239  26.447   5.283
 3604POPC   GL148769  36.266  26.710   5.701
 3604POPC   GL248770  36.186  27.088   5.776
 3604POPC   C1A48771  36.374  26.574   6.136
 3604POPC   D2A48772  36.486  26.725   6.539
 3604POPC   C3A48773  36.396  26.554   6.918
 3604POPC   C4A48774  36.320  26.749   7.316
 3604POPC   C1B48775  36.002  26.950   6.158
 3604POPC   C2B48776  35.939  27.051   6.580
 3604POPC   C3B48777  35.938  26.799   6.950
 3604POPC   C4B48778  35.832  26.913   7.370
 3605POPC   NC348779  11.589  44.643   4.968
 3605POPC   PO448780  11.066  44.845   5.361
 3605POPC   GL148781  11.172  44.623   5.766
 3605POPC   GL248782  11.535  44.640   5.727
 3605POPC   C1A48783  11.317  44.423   6.169
 3605POPC   D2A48784  11.523  44.587   6.547
 3605POPC   C3A48785  11.428  44.384   6.904
 3605POPC   C4A48786  11.134  44.422   7.233
 3605POPC   C1B48787  11.516  44.887   6.115
 3605POPC   C2B48788  11.228  44.981   6.457
 3605POPC   C3B48789  11.222  44.841   6.916
 3605POPC   C4B48790  11.413  44.854   7.360
 3606POPC   NC348791  42.216   7.891   5.400
 3606POPC   PO448792  42.600   7.395   5.422
 3606POPC   GL148793  42.563   7.684   5.759
 3606POPC   GL248794  42.192   7.651   5.852
 3606POPC   C1A48795  42.554   7.476   6.166
 3606POPC   D2A48796  42.487   7.605   6.582
 3606POPC   C3A48797  42.419   7.340   6.939
 3606POPC   C4A48798  42.636   7.356   7.323
 3606POPC   C1B48799  42.303   7.943   6.199
 3606POPC   C2B48800  42.237   8.035   6.670
 3606POPC   C3B48801  42.454   7.844   7.057
 3606POPC   C4B48802  42.199   7.613   7.364
 3607POPC   NC348803  34.192  33.896   5.537
 3607POPC   PO448804  34.574  33.481   5.221
 3607POPC   GL148805  34.596  33.570   5.676
 3607POPC   GL248806  34.743  33.880   5.767
 3607POPC   C1A48807  34.472  33.679   6.136
 3607POPC   D2A48808  34.610  33.650   6.573
 3607POPC   C3A48809  34.262  33.658   6.897
 3607POPC   C4A48810  34.203  33.752   7.343
 3607POPC   C1B48811  34.797  34.083   6.175
 3607POPC   C2B48812  34.889  34.101   6.605
 3607POPC   C3B48813  34.612  34.054   6.954
 3607POPC   C4B48814  34.413  34.244   7.290
 3608POPC   NC348815  41.333   1.474   5.575
 3608POPC   PO448816  41.830   1.003   5.435
 3608POPC   GL148817  41.662   1.100   5.834
 3608POPC   GL248818  41.773   1.454   5.869
 3608POPC   C1A48819  41.472   1.009   6.261
 3608POPC   D2A48820  41.421   1.370   6.588
 3608POPC   C3A48821  41.259   1.318   7.011
 3608POPC   C4A48822  41.204   0.904   7.195
 3608POPC   C1B48823  41.901   1.276   6.254
 3608POPC   C2B48824  41.835   1.053   6.630
 3608POPC   C3B48825  41.673   1.048   7.050
 3608POPC   C4B48826  41.834   1.003   7.455
 3609POPC   NC348827  27.567   4.629   5.472
 3609POPC   PO448828  27.779   3.961   5.394
 3609POPC   GL148829  27.821   4.250   5.747
 3609POPC   GL248830  27.942   4.599   5.829
 3609POPC   C1A48831  27.605   4.350   6.137
 3609POPC   D2A48832  27.800   4.343   6.521
 3609POPC   C3A48833  27.641   4.166   6.870
 3609POPC   C4A48834  27.500   4.327   7.243
 3609POPC   C1B48835  27.832   4.826   6.223
 3609POPC   C2B48836  27.935   4.810   6.657
 3609POPC   C3B48837  27.878   4.616   7.056
 3609POPC   C4B48838  27.828   4.625   7.533
 3610POPC   NC348839   1.533  28.209   5.287
 3610POPC   PO448840   2.139  28.075   5.493
 3610POPC   GL148841   1.836  28.260   5.794
 3610POPC   GL248842   1.494  28.094   5.774
 3610POPC   C1A48843   1.899  28.293   6.267
 3610POPC   D2A48844   2.227  28.311   6.621
 3610POPC   C3A48845   2.122  28.435   7.071
 3610POPC   C4A48846   1.914  28.630   7.457
 3610POPC   C1B48847   1.485  27.874   6.149
 3610POPC   C2B48848   1.504  28.081   6.532
 3610POPC   C3B48849   1.592  27.937   6.944
 3610POPC   C4B48850   1.652  28.255   7.216
 3611POPC   NC348851  32.446  35.667   5.269
 3611POPC   PO448852  32.080  35.182   5.337
 3611POPC   GL148853  31.998  35.203   5.737
 3611POPC   GL248854  32.275  35.058   5.830
 3611POPC   C1A48855  31.936  35.170   6.190
 3611POPC   D2A48856  32.152  35.092   6.581
 3611POPC   C3A48857  31.871  35.148   6.918
 3611POPC   C4A48858  32.082  35.280   7.286
 3611POPC   C1B48859  32.450  35.239   6.186
 3611POPC   C2B48860  32.720  35.079   6.531
 3611POPC   C3B48861  32.645  35.199   6.949
 3611POPC   C4B48862  32.589  35.339   7.380
 3612POPC   NC348863  20.211  32.398   5.420
 3612POPC   PO448864  20.658  31.951   5.498
 3612POPC   GL148865  20.722  32.272   5.843
 3612POPC   GL248866  20.952  32.576   5.813
 3612POPC   C1A48867  20.555  32.402   6.261
 3612POPC   D2A48868  20.549  32.694   6.609
 3612POPC   C3A48869  20.524  32.489   7.010
 3612POPC   C4A48870  20.436  32.146   7.277
 3612POPC   C1B48871  21.069  32.489   6.267
 3612POPC   C2B48872  20.988  32.424   6.723
 3612POPC   C3B48873  20.945  32.183   7.119
 3612POPC   C4B48874  20.845  32.427   7.474
 3613POPC   NC348875  16.771   5.533   5.399
 3613POPC   PO448876  16.502   6.095   5.166
 3613POPC   GL148877  16.791   5.993   5.574
 3613POPC   GL248878  16.516   5.774   5.794
 3613POPC   C1A48879  16.926   5.928   6.056
 3613POPC   D2A48880  16.741   6.042   6.486
 3613POPC   C3A48881  16.844   5.909   6.942
 3613POPC   C4A48882  16.748   6.112   7.359
 3613POPC   C1B48883  16.316   5.744   6.250
 3613POPC   C2B48884  16.402   5.729   6.708
 3613POPC   C3B48885  16.321   5.919   7.103
 3613POPC   C4B48886  16.366   5.711   7.504
 3614POPC   NC348887  33.236  30.918   5.390
 3614POPC   PO448888  32.743  30.399   5.471
 3614POPC   GL148889  32.813  30.560   5.899
 3614POPC   GL248890  32.993  30.864   5.845
 3614POPC   C1A48891  32.737  30.588   6.375
 3614POPC   D2A48892  32.590  30.694   6.825
 3614POPC   C3A48893  32.625  30.450   7.207
 3614POPC   C4A48894  32.387  30.434   7.605
 3614POPC   C1B48895  33.242  30.738   6.194
 3614POPC   C2B48896  33.217  30.441   6.498
 3614POPC   C3B48897  33.034  30.465   6.883
 3614POPC   C4B48898  33.082  30.707   7.253
 3615POPC   NC348899  32.528  11.083   5.565
 3615POPC   PO448900  32.087  11.545   5.411
 3615POPC   GL148901  32.146  11.373   5.804
 3615POPC   GL248902  32.077  10.988   5.814
 3615POPC   C1A48903  32.342  11.368   6.196
 3615POPC   D2A48904  32.523  11.291   6.588
 3615POPC   C3A48905  32.420  11.582   6.899
 3615POPC   C4A48906  32.084  11.501   7.149
 3615POPC   C1B48907  32.212  10.862   6.247
 3615POPC   C2B48908  32.338  10.761   6.665
 3615POPC   C3B48909  32.409  11.029   7.016
 3615POPC   C4B48910  31.978  10.997   7.149
 3616POPC   NC348911  35.754   0.980   5.430
 3616POPC   PO448912  36.131   1.478   5.158
 3616POPC   GL148913  36.062   1.374   5.600
 3616POPC   GL248914  36.268   1.116   5.604
 3616POPC   C1A48915  35.967   1.236   6.050
 3616POPC   D2A48916  36.189   1.271   6.459
 3616POPC   C3A48917  36.062   1.271   6.879
 3616POPC   C4A48918  36.219   1.394   7.280
 3616POPC   C1B48919  36.485   1.201   6.011
 3616POPC   C2B48920  36.635   0.994   6.390
 3616POPC   C3B48921  36.439   0.900   6.782
 3616POPC   C4B48922  36.529   0.970   7.226
 3617POPC   NC348923  29.283  10.717   5.423
 3617POPC   PO448924  29.084  11.372   5.337
 3617POPC   GL148925  28.940  11.344   5.774
 3617POPC   GL248926  29.173  11.601   5.911
 3617POPC   C1A48927  29.059  11.208   6.244
 3617POPC   D2A48928  29.371  11.136   6.612
 3617POPC   C3A48929  29.234  11.154   7.029
 3617POPC   C4A48930  28.826  11.172   7.078
 3617POPC   C1B48931  29.522  11.475   6.231
 3617POPC   C2B48932  29.762  11.457   6.658
 3617POPC   C3B48933  29.510  11.575   7.050
 3617POPC   C4B48934  29.030  11.634   7.053
 3618POPC   NC348935  18.629   6.230   5.474
 3618POPC   PO448936  18.327   6.813   5.347
 3618POPC   GL148937  18.240   6.705   5.761
 3618POPC   GL248938  17.976   6.510   5.722
 3618POPC   C1A48939  18.292   6.887   6.203
 3618POPC   D2A48940  18.428   7.103   6.580
 3618POPC   C3A48941  18.276   6.864   6.920
 3618POPC   C4A48942  18.411   6.592   7.277
 3618POPC   C1B48943  18.111   6.405   6.142
 3618POPC   C2B48944  18.002   6.541   6.540
 3618POPC   C3B48945  18.155   6.358   6.901
 3618POPC   C4B48946  17.983   6.317   7.298
 3619POPC   NC348947  34.334  16.190   5.567
 3619POPC   PO448948  34.901  15.760   5.497
 3619POPC   GL148949  34.590  15.809   5.826
 3619POPC   GL248950  34.689  16.147   5.959
 3619POPC   C1A48951  34.366  15.828   6.226
 3619POPC   D2A48952  34.351  16.240   6.455
 3619POPC   C3A48953  34.324  16.257   6.926
 3619POPC   C4A48954  34.463  15.902   7.170
 3619POPC   C1B48955  35.002  15.855   6.174
 3619POPC   C2B48956  35.182  15.759   6.598
 3619POPC   C3B48957  34.923  15.716   6.978
 3619POPC   C4B48958  34.769  15.579   7.408
 3620POPC   NC348959   9.826  10.528   5.331
 3620POPC   PO448960   9.435  10.066   5.481
 3620POPC   GL148961   9.591  10.472   5.801
 3620POPC   GL248962   9.950  10.615   5.840
 3620POPC   C1A48963   9.634  10.752   6.222
 3620POPC   D2A48964   9.408  10.694   6.634
 3620POPC   C3A48965   9.638  10.701   7.006
 3620POPC   C4A48966   9.932  10.975   7.158
 3620POPC   C1B48967   9.920  10.320   6.211
 3620POPC   C2B48968   9.800  10.322   6.671
 3620POPC   C3B48969  10.085  10.415   7.044
 3620POPC   C4B48970  10.209  10.201   7.437
 3621POPC   NC348971   3.108  33.395   5.396
 3621POPC   PO448972   2.526  33.756   5.412
 3621POPC   GL148973   2.886  33.820   5.714
 3621POPC   GL248974   2.797  33.474   5.797
 3621POPC   C1A48975   2.845  33.885   6.202
 3621POPC   D2A48976   2.691  33.748   6.621
 3621POPC   C3A48977   2.599  34.007   7.005
 3621POPC   C4A48978   2.755  34.064   7.442
 3621POPC   C1B48979   3.030  33.410   6.186
 3621POPC   C2B48980   3.108  33.457   6.641
 3621POPC   C3B48981   2.912  33.550   7.044
 3621POPC   C4B48982   2.908  33.553   7.499
 3622POPC   NC348983  22.255  16.854   5.098
 3622POPC   PO448984  21.988  16.578   5.461
 3622POPC   GL148985  22.214  16.773   5.781
 3622POPC   GL248986  22.540  16.653   5.847
 3622POPC   C1A48987  22.220  16.811   6.248
 3622POPC   D2A48988  22.309  16.612   6.669
 3622POPC   C3A48989  22.402  16.843   7.063
 3622POPC   C4A48990  22.122  16.937   7.420
 3622POPC   C1B48991  22.719  16.717   6.319
 3622POPC   C2B48992  22.794  16.541   6.786
 3622POPC   C3B48993  22.529  16.340   7.124
 3622POPC   C4B48994  22.329  16.447   7.559
 3623POPC   NC348995  44.176  42.955   5.487
 3623POPC   PO448996  43.609  43.307   5.566
 3623POPC   GL148997  43.841  43.029   5.859
 3623POPC   GL248998  44.118  43.283   5.885
 3623POPC   C1A48999  44.039  42.867   6.268
 3623POPC   D2A49000  43.908  42.706   6.700
 3623POPC   C3A49001  43.843  42.973   7.075
 3623POPC   C4A49002  44.014  42.894   7.502
 3623POPC   C1B49003  43.857  43.365   6.226
 3623POPC   C2B49004  43.909  43.258   6.634
 3623POPC   C3B49005  43.783  43.484   6.995
 3623POPC   C4B49006  44.037  43.385   7.326
 3624POPC   NC349007  35.279  27.155   5.366
 3624POPC   PO449008  35.415  27.789   5.325
 3624POPC   GL149009  35.319  27.562   5.730
 3624POPC   GL249010  35.128  27.237   5.854
 3624POPC   C1A49011  35.483  27.632   6.129
 3624POPC   D2A49012  35.741  27.585   6.457
 3624POPC   C3A49013  35.577  27.721   6.839
 3624POPC   C4A49014  35.331  27.573   7.183
 3624POPC   C1B49015  35.050  27.426   6.281
 3624POPC   C2B49016  35.049  27.593   6.714
 3624POPC   C3B49017  34.933  27.307   7.028
 3624POPC   C4B49018  34.898  27.327   7.466
 3625POPC   NC349019  34.190  44.285   5.334
 3625POPC   PO449020  34.868  44.305   5.494
 3625POPC   GL149021  34.549  44.624   5.722
 3625POPC   GL249022  34.221  44.576   5.872
 3625POPC   C1A49023  34.611  44.735   6.179
 3625POPC   D2A49024  34.470  44.669   6.616
 3625POPC   C3A49025  34.599  44.939   6.961
 3625POPC   C4A49026  34.882  44.951   7.301
 3625POPC   C1B49027  34.272  44.311   6.286
 3625POPC   C2B49028  34.425  44.164   6.715
 3625POPC   C3B49029  34.579  44.427   7.076
 3625POPC   C4B49030  34.379  44.666   7.421
 3626POPC   NC349031  40.599  26.831   5.413
 3626POPC   PO449032  41.208  27.159   5.502
 3626POPC   GL149033  40.922  27.079   5.853
 3626POPC   GL249034  40.588  27.134   5.834
 3626POPC   C1A49035  40.836  27.159   6.320
 3626POPC   D2A49036  41.094  27.225   6.718
 3626POPC   C3A49037  41.024  26.947   7.084
 3626POPC   C4A49038  40.817  26.563   7.154
 3626POPC   C1B49039  40.598  26.746   6.096
 3626POPC   C2B49040  40.570  26.639   6.532
 3626POPC   C3B49041  40.366  26.737   6.934
 3626POPC   C4B49042  40.493  26.908   7.349
 3627POPC   NC349043  31.658  29.733   5.543
 3627POPC   PO449044  31.213  30.173   5.202
 3627POPC   GL149045  31.219  30.238   5.690
 3627POPC   GL249046  31.130  29.917   5.848
 3627POPC   C1A49047  31.358  30.314   6.137
 3627POPC   D2A49048  31.288  30.424   6.592
 3627POPC   C3A49049  31.295  30.123   6.937
 3627POPC   C4A49050  31.402  29.735   7.144
 3627POPC   C1B49051  31.474  29.830   6.181
 3627POPC   C2B49052  31.756  29.718   6.523
 3627POPC   C3B49053  31.681  29.409   6.836
 3627POPC   C4B49054  31.798  29.413   7.247
 3628POPC   NC349055  35.525  28.997   5.264
 3628POPC   PO449056  35.604  29.458   5.752
 3628POPC   GL149057  35.507  29.023   5.844
 3628POPC   GL249058  35.163  29.019   5.755
 3628POPC   C1A49059  35.439  28.843   6.275
 3628POPC   D2A49060  35.490  29.150   6.623
 3628POPC   C3A49061  35.388  29.096   7.061
 3628POPC   C4A49062  35.612  28.838   7.341
 3628POPC   C1B49063  35.086  29.208   6.178
 3628POPC   C2B49064  34.910  29.226   6.602
 3628POPC   C3B49065  34.884  29.516   6.939
 3628POPC   C4B49066  35.110  29.472   7.319
 3629POPC   NC349067  43.335  31.155   5.547
 3629POPC   PO449068  42.783  31.355   5.214
 3629POPC   GL149069  42.960  31.511   5.702
 3629POPC   GL249070  43.297  31.668   5.839
 3629POPC   C1A49071  43.128  31.302   6.156
 3629POPC   D2A49072  43.405  31.228   6.540
 3629POPC   C3A49073  43.196  31.235   6.927
 3629POPC   C4A49074  43.275  31.395   7.343
 3629POPC   C1B49075  43.436  31.681   6.294
 3629POPC   C2B49076  43.113  31.681   6.648
 3629POPC   C3B49077  42.955  31.670   7.090
 3629POPC   C4B49078  42.999  31.757   7.596
 3630POPC   NC349079  33.087   6.340   5.455
 3630POPC   PO449080  32.982   5.669   5.194
 3630POPC   GL149081  32.807   5.809   5.603
 3630POPC   GL249082  32.618   5.518   5.733
 3630POPC   C1A49083  32.992   5.933   6.007
 3630POPC   D2A49084  33.081   5.766   6.388
 3630POPC   C3A49085  32.977   5.865   6.816
 3630POPC   C4A49086  33.223   5.964   7.161
 3630POPC   C1B49087  32.574   5.653   6.175
 3630POPC   C2B49088  32.665   5.508   6.599
 3630POPC   C3B49089  32.567   5.600   7.042
 3630POPC   C4B49090  32.761   5.812   7.379
 3631POPC   NC349091  32.806  30.040   5.183
 3631POPC   PO449092  33.288  29.574   5.411
 3631POPC   GL149093  33.155  29.703   5.784
 3631POPC   GL249094  32.988  30.027   5.755
 3631POPC   C1A49095  32.971  29.673   6.193
 3631POPC   D2A49096  32.910  29.906   6.555
 3631POPC   C3A49097  32.913  29.624   6.885
 3631POPC   C4A49098  33.126  29.672   7.247
 3631POPC   C1B49099  33.306  30.064   6.100
 3631POPC   C2B49100  33.482  30.020   6.501
 3631POPC   C3B49101  33.283  30.026   6.894
 3631POPC   C4B49102  33.098  30.175   7.295
 3632POPC   NC349103  21.741  30.400   5.469
 3632POPC   PO449104  22.407  30.328   5.548
 3632POPC   GL149105  22.346  30.582   5.885
 3632POPC   GL249106  22.080  30.834   5.916
 3632POPC   C1A49107  22.478  30.730   6.260
 3632POPC   D2A49108  22.389  30.615   6.680
 3632POPC   C3A49109  22.476  30.666   7.103
 3632POPC   C4A49110  22.263  30.478   7.462
 3632POPC   C1B49111  21.909  30.488   6.139
 3632POPC   C2B49112  21.864  30.483   6.579
 3632POPC   C3B49113  21.963  30.760   6.909
 3632POPC   C4B49114  22.064  30.920   7.307
 3633POPC   NC349115  13.719  22.472   5.302
 3633POPC   PO449116  13.274  22.045   5.381
 3633POPC   GL149117  13.515  22.184   5.733
 3633POPC   GL249118  13.369  22.515   5.809
 3633POPC   C1A49119  13.754  22.035   6.113
 3633POPC   D2A49120  13.924  22.021   6.528
 3633POPC   C3A49121  13.703  22.003   6.921
 3633POPC   C4A49122  13.671  22.346   7.207
 3633POPC   C1B49123  13.655  22.528   6.197
 3633POPC   C2B49124  13.812  22.500   6.670
 3633POPC   C3B49125  14.014  22.716   7.024
 3633POPC   C4B49126  13.801  22.852   7.431
 3634POPC   NC349127  17.706  12.086   5.318
 3634POPC   PO449128  17.171  11.731   5.402
 3634POPC   GL149129  17.522  11.850   5.744
 3634POPC   GL249130  17.785  12.149   5.812
 3634POPC   C1A49131  17.737  11.764   6.154
 3634POPC   D2A49132  17.765  11.636   6.579
 3634POPC   C3A49133  17.574  11.822   6.960
 3634POPC   C4A49134  17.788  11.797   7.352
 3634POPC   C1B49135  17.463  12.186   6.151
 3634POPC   C2B49136  17.175  12.312   6.528
 3634POPC   C3B49137  17.246  12.261   6.981
 3634POPC   C4B49138  17.672  12.310   7.172
 3635POPC   NC349139   1.431  15.287   5.137
 3635POPC   PO449140   1.231  14.957   5.425
 3635POPC   GL149141   1.343  14.978   5.884
 3635POPC   GL249142   1.454  15.314   5.927
 3635POPC   C1A49143   1.327  14.836   6.335
 3635POPC   D2A49144   1.120  14.694   6.702
 3635POPC   C3A49145   1.149  14.795   7.130
 3635POPC   C4A49146   1.144  14.904   7.594
 3635POPC   C1B49147   1.451  15.330   6.394
 3635POPC   C2B49148   1.213  15.321   6.806
 3635POPC   C3B49149   1.408  15.221   7.235
 3635POPC   C4B49150   1.671  14.974   7.536
 3636POPC   NC349151  37.119  13.727   5.315
 3636POPC   PO449152  37.251  14.059   5.868
 3636POPC   GL149153  36.897  13.752   5.891
 3636POPC   GL249154  36.550  13.566   5.853
 3636POPC   C1A49155  36.721  13.799   6.295
 3636POPC   D2A49156  36.873  13.559   6.615
 3636POPC   C3A49157  36.933  13.712   7.010
 3636POPC   C4A49158  37.024  13.438   7.341
 3636POPC   C1B49159  36.356  13.450   6.287
 3636POPC   C2B49160  36.366  13.530   6.765
 3636POPC   C3B49161  36.528  13.459   7.207
 3636POPC   C4B49162  36.650  13.628   7.637
 3637POPC   NC349163   7.258  20.686   5.424
 3637POPC   PO449164   7.766  21.084   5.461
 3637POPC   GL149165   7.695  20.655   5.736
 3637POPC   GL249166   7.317  20.507   5.883
 3637POPC   C1A49167   7.672  20.614   6.189
 3637POPC   D2A49168   7.459  20.873   6.453
 3637POPC   C3A49169   7.379  20.661   6.808
 3637POPC   C4A49170   7.579  20.651   7.176
 3637POPC   C1B49171   7.130  20.429   6.308
 3637POPC   C2B49172   7.115  20.217   6.722
 3637POPC   C3B49173   7.126  20.339   7.121
 3637POPC   C4B49174   6.983  20.767   7.247
 3638POPC   NC349175  39.752   2.026   5.453
 3638POPC   PO449176  39.484   1.693   5.911
 3638POPC   GL149177  39.795   2.059   5.947
 3638POPC   GL249178  40.139   2.048   5.819
 3638POPC   C1A49179  39.940   2.177   6.314
 3638POPC   D2A49180  39.755   1.827   6.514
 3638POPC   C3A49181  39.686   1.945   6.913
 3638POPC   C4A49182  39.779   2.225   7.231
 3638POPC   C1B49183  40.318   1.873   6.173
 3638POPC   C2B49184  40.253   1.863   6.630
 3638POPC   C3B49185  40.184   1.909   7.080
 3638POPC   C4B49186  40.221   1.779   7.566
 3639POPC   NC349187  29.675  17.348   5.623
 3639POPC   PO449188  29.207  17.760   5.442
 3639POPC   GL149189  29.180  17.385   5.696
 3639POPC   GL249190  28.872  17.357   5.793
 3639POPC   C1A49191  29.228  17.171   6.108
 3639POPC   D2A49192  29.342  17.338   6.510
 3639POPC   C3A49193  29.081  17.291   6.867
 3639POPC   C4A49194  29.269  17.327   7.250
 3639POPC   C1B49195  29.082  17.645   6.139
 3639POPC   C2B49196  29.054  17.814   6.589
 3639POPC   C3B49197  29.095  17.786   7.055
 3639POPC   C4B49198  28.761  17.784   7.367
 3640POPC   NC349199  29.933  14.133   5.416
 3640POPC   PO449200  29.821  14.798   5.301
 3640POPC   GL149201  30.052  14.646   5.734
 3640POPC   GL249202  29.887  14.370   5.880
 3640POPC   C1A49203  30.344  14.627   6.150
 3640POPC   D2A49204  30.395  14.464   6.609
 3640POPC   C3A49205  30.222  14.693   7.004
 3640POPC   C4A49206  30.130  14.484   7.406
 3640POPC   C1B49207  29.860  14.687   6.224
 3640POPC   C2B49208  29.892  14.546   6.611
 3640POPC   C3B49209  29.855  14.348   6.975
 3640POPC   C4B49210  29.642  14.489   7.285
 3641POPC   NC349211  32.991  27.037   5.466
 3641POPC   PO449212  32.692  26.443   5.374
 3641POPC   GL149213  32.824  26.710   5.810
 3641POPC   GL249214  33.179  26.934   5.917
 3641POPC   C1A49215  32.941  26.670   6.255
 3641POPC   D2A49216  32.866  26.556   6.651
 3641POPC   C3A49217  33.120  26.785   6.939
 3641POPC   C4A49218  32.918  26.944   7.258
 3641POPC   C1B49219  33.344  27.239   6.254
 3641POPC   C2B49220  33.391  27.187   6.716
 3641POPC   C3B49221  33.174  27.353   7.101
 3641POPC   C4B49222  33.170  27.234   7.567
 3642POPC   NC349223  13.931  30.866   5.280
 3642POPC   PO449224  13.294  30.797   5.524
 3642POPC   GL149225  13.469  30.558   5.828
 3642POPC   GL249226  13.817  30.536   5.773
 3642POPC   C1A49227  13.548  30.664   6.258
 3642POPC   D2A49228  13.370  30.728   6.676
 3642POPC   C3A49229  13.652  30.644   7.029
 3642POPC   C4A49230  13.819  30.881   7.355
 3642POPC   C1B49231  13.861  30.266   6.144
 3642POPC   C2B49232  13.884  30.402   6.578
 3642POPC   C3B49233  13.499  30.234   6.757
 3642POPC   C4B49234  13.196  30.401   7.059
 3643POPC   NC349235  15.848   4.009   4.901
 3643POPC   PO449236  15.780   3.493   5.329
 3643POPC   GL149237  15.901   3.374   5.735
 3643POPC   GL249238  16.034   3.661   5.928
 3643POPC   C1A49239  15.726   3.342   6.167
 3643POPC   D2A49240  15.889   3.495   6.554
 3643POPC   C3A49241  16.019   3.202   6.867
 3643POPC   C4A49242  15.828   3.274   7.240
 3643POPC   C1B49243  16.239   3.843   6.287
 3643POPC   C2B49244  16.092   3.950   6.684
 3643POPC   C3B49245  16.080   3.682   7.072
 3643POPC   C4B49246  16.100   3.870   7.517
 3644POPC   NC349247  29.620  15.153   5.089
 3644POPC   PO449248  30.206  15.410   5.382
 3644POPC   GL149249  29.964  15.170   5.714
 3644POPC   GL249250  29.630  15.127   5.644
 3644POPC   C1A49251  30.119  15.106   6.150
 3644POPC   D2A49252  30.228  14.950   6.553
 3644POPC   C3A49253  30.094  15.209   6.898
 3644POPC   C4A49254  30.207  15.256   7.335
 3644POPC   C1B49255  29.606  15.159   6.111
 3644POPC   C2B49256  29.728  15.081   6.539
 3644POPC   C3B49257  29.695  14.889   6.944
 3644POPC   C4B49258  29.698  15.177   7.263
 3645POPC   NC349259  44.371   5.953   5.316
 3645POPC   PO449260   0.041   5.918   5.369
 3645POPC   GL149261  44.787   5.931   5.753
 3645POPC   GL249262  44.548   5.650   5.731
 3645POPC   C1A49263  44.736   5.825   6.213
 3645POPC   D2A49264  44.602   5.933   6.648
 3645POPC   C3A49265  44.803   5.871   7.085
 3645POPC   C4A49266  44.566   5.824   7.478
 3645POPC   C1B49267  44.286   5.544   6.110
 3645POPC   C2B49268  44.382   5.459   6.556
 3645POPC   C3B49269  44.357   5.626   6.978
 3645POPC   C4B49270  44.100   5.614   7.349
 3646POPC   NC349271  31.637  44.408   5.556
 3646POPC   PO449272  31.601   0.105   5.402
 3646POPC   GL149273  31.352  44.844   5.773
 3646POPC   GL249274  31.244  44.473   5.872
 3646POPC   C1A49275  31.255  44.961   6.260
 3646POPC   D2A49276  31.242  44.927   6.759
 3646POPC   C3A49277  31.131  44.655   7.145
 3646POPC   C4A49278  31.376  44.621   7.543
 3646POPC   C1B49279  31.605  44.609   6.172
 3646POPC   C2B49280  31.707  44.743   6.603
 3646POPC   C3B49281  31.617  44.581   7.014
 3646POPC   C4B49282  31.865  44.319   7.296
 3647POPC   NC349283   8.851  33.685   5.357
 3647POPC   PO449284   9.429  33.713   5.606
 3647POPC   GL149285   9.012  33.857   5.818
 3647POPC   GL249286   8.636  33.988   5.730
 3647POPC   C1A49287   8.934  33.702   6.227
 3647POPC   D2A49288   9.225  33.660   6.557
 3647POPC   C3A49289   9.246  33.845   6.964
 3647POPC   C4A49290   9.057  33.681   7.330
 3647POPC   C1B49291   8.635  34.108   6.161
 3647POPC   C2B49292   8.821  34.028   6.620
 3647POPC   C3B49293   8.791  34.055   7.095
 3647POPC   C4B49294   8.542  33.942   7.464
 3648POPC   NC349295  17.412  13.679   5.430
 3648POPC   PO449296  17.895  13.188   5.572
 3648POPC   GL149297  17.593  13.424   5.882
 3648POPC   GL249298  17.560  13.795   5.903
 3648POPC   C1A49299  17.571  13.525   6.346
 3648POPC   D2A49300  17.668  13.347   6.756
 3648POPC   C3A49301  17.684  13.695   7.084
 3648POPC   C4A49302  17.841  13.803   7.531
 3648POPC   C1B49303  17.173  13.828   6.171
 3648POPC   C2B49304  17.112  13.965   6.626
 3648POPC   C3B49305  17.316  14.066   7.033
 3648POPC   C4B49306  17.332  13.829   7.442
 3649POPC   NC349307  25.587  19.018   5.379
 3649POPC   PO449308  24.957  18.957   5.416
 3649POPC   GL149309  25.173  18.763   5.739
 3649POPC   GL249310  25.428  18.950   5.884
 3649POPC   C1A49311  25.105  18.670   6.158
 3649POPC   D2A49312  25.173  18.921   6.496
 3649POPC   C3A49313  25.151  18.820   6.914
 3649POPC   C4A49314  25.395  18.968   7.241
 3649POPC   C1B49315  25.565  19.161   6.274
 3649POPC   C2B49316  25.540  19.207   6.762
 3649POPC   C3B49317  25.511  19.444   7.169
 3649POPC   C4B49318  25.297  19.367   7.582
 3650POPC   NC349319   8.172   9.054   4.959
 3650POPC   PO449320   8.194   9.026   5.572
 3650POPC   GL149321   8.156   8.877   5.925
 3650POPC   GL249322   7.866   8.646   5.791
 3650POPC   C1A49323   8.261   9.169   6.281
 3650POPC   D2A49324   8.273   9.477   6.598
 3650POPC   C3A49325   8.250   9.265   7.023
 3650POPC   C4A49326   8.144   9.033   7.406
 3650POPC   C1B49327   7.931   8.546   6.224
 3650POPC   C2B49328   8.082   8.685   6.612
 3650POPC   C3B49329   8.191   8.650   7.061
 3650POPC   C4B49330   8.223   8.557   7.530
 3651POPC   NC349331  41.529  17.697   5.266
 3651POPC   PO449332  41.438  17.104   5.467
 3651POPC   GL149333  41.533  17.365   5.812
 3651POPC   GL249334  41.381  17.674   5.771
 3651POPC   C1A49335  41.723  17.519   6.224
 3651POPC   D2A49336  41.907  17.568   6.647
 3651POPC   C3A49337  41.699  17.408   7.031
 3651POPC   C4A49338  41.754  17.077   7.340
 3651POPC   C1B49339  41.301  17.812   6.193
 3651POPC   C2B49340  41.475  17.860   6.599
 3651POPC   C3B49341  41.694  17.918   6.972
 3651POPC   C4B49342  41.475  17.776   7.351
 3652POPC   NC349343  14.060   3.053   5.392
 3652POPC   PO449344  13.447   2.762   5.321
 3652POPC   GL149345  13.423   2.873   5.761
 3652POPC   GL249346  13.763   2.949   5.842
 3652POPC   C1A49347  13.444   2.687   6.208
 3652POPC   D2A49348  13.709   2.657   6.583
 3652POPC   C3A49349  13.478   2.700   6.975
 3652POPC   C4A49350  13.575   2.551   7.404
 3652POPC   C1B49351  13.697   3.154   6.252
 3652POPC   C2B49352  13.460   3.125   6.631
 3652POPC   C3B49353  13.369   3.232   7.054
 3652POPC   C4B49354  13.668   3.046   7.349
 3653POPC   NC349355  12.316  26.058   5.386
 3653POPC   PO449356  11.771  25.867   5.131
 3653POPC   GL149357  11.846  26.047   5.633
 3653POPC   GL249358  12.179  26.119   5.853
 3653POPC   C1A49359  11.774  26.047   6.126
 3653POPC   D2A49360  12.123  26.081   6.488
 3653POPC   C3A49361  12.055  26.192   6.923
 3653POPC   C4A49362  11.911  25.948   7.254
 3653POPC   C1B49363  12.379  25.833   6.135
 3653POPC   C2B49364  12.457  25.667   6.541
 3653POPC   C3B49365  12.346  25.754   6.953
 3653POPC   C4B49366  12.432  25.930   7.381
 3654POPC   NC349367  13.950  29.196   5.429
 3654POPC   PO449368  13.420  28.894   5.243
 3654POPC   GL149369  13.464  29.037   5.721
 3654POPC   GL249370  13.804  28.948   5.874
 3654POPC   C1A49371  13.492  29.193   6.192
 3654POPC   D2A49372  13.677  28.971   6.554
 3654POPC   C3A49373  13.571  29.131   6.990
 3654POPC   C4A49374  13.458  28.960   7.415
 3654POPC   C1B49375  14.025  29.211   6.223
 3654POPC   C2B49376  13.931  29.404   6.632
 3654POPC   C3B49377  13.949  29.472   7.071
 3654POPC   C4B49378  13.768  29.379   7.456
 3655POPC   NC349379  21.941   2.400   5.350
 3655POPC   PO449380  22.391   2.900   5.463
 3655POPC   GL149381  22.194   2.700   5.798
 3655POPC   GL249382  21.935   2.932   5.792
 3655POPC   C1A49383  22.256   2.429   6.179
 3655POPC   D2A49384  22.276   2.262   6.618
 3655POPC   C3A49385  22.475   2.565   6.899
 3655POPC   C4A49386  22.422   2.865   7.254
 3655POPC   C1B49387  21.884   2.771   6.220
 3655POPC   C2B49388  21.993   2.709   6.658
 3655POPC   C3B49389  21.967   2.994   7.023
 3655POPC   C4B49390  22.038   3.202   7.451
 3656POPC   NC349391  23.621  12.073   5.453
 3656POPC   PO449392  24.172  12.010   5.504
 3656POPC   GL149393  23.880  11.922   5.878
 3656POPC   GL249394  23.494  11.879   5.905
 3656POPC   C1A49395  23.824  12.008   6.326
 3656POPC   D2A49396  23.643  11.956   6.742
 3656POPC   C3A49397  23.865  12.006   7.154
 3656POPC   C4A49398  23.993  12.378   7.433
 3656POPC   C1B49399  23.299  12.015   6.302
 3656POPC   C2B49400  23.111  12.036   6.717
 3656POPC   C3B49401  23.318  11.984   7.127
 3656POPC   C4B49402  23.519  12.001   7.525
 3657POPC   NC349403  40.487  15.398   5.565
 3657POPC   PO449404  41.112  15.112   5.579
 3657POPC   GL149405  40.795  15.124   5.881
 3657POPC   GL249406  40.858  15.485   5.905
 3657POPC   C1A49407  40.643  15.213   6.304
 3657POPC   D2A49408  40.841  15.250   6.701
 3657POPC   C3A49409  40.572  15.163   7.034
 3657POPC   C4A49410  40.442  14.820   7.225
 3657POPC   C1B49411  41.023  15.576   6.300
 3657POPC   C2B49412  41.146  15.668   6.714
 3657POPC   C3B49413  40.900  15.578   7.102
 3657POPC   C4B49414  40.956  15.626   7.551
 3658POPC   NC349415  41.001  39.550   5.469
 3658POPC   PO449416  40.757  38.952   5.585
 3658POPC   GL149417  40.803  39.236   5.928
 3658POPC   GL249418  40.491  39.385   6.018
 3658POPC   C1A49419  40.772  39.137   6.366
 3658POPC   D2A49420  40.644  39.144   6.770
 3658POPC   C3A49421  40.861  39.255   7.129
 3658POPC   C4A49422  40.884  39.339   7.576
 3658POPC   C1B49423  40.533  39.579   6.447
 3658POPC   C2B49424  40.489  39.592   6.921
 3658POPC   C3B49425  40.426  39.350   7.333
 3658POPC   C4B49426  40.399  39.219   7.789
 3659POPC   NC349427  41.232  19.807   5.200
 3659POPC   PO449428  40.623  19.601   5.534
 3659POPC   GL149429  40.852  19.931   5.750
 3659POPC   GL249430  40.906  19.671   6.003
 3659POPC   C1A49431  41.004  20.143   6.154
 3659POPC   D2A49432  41.002  19.928   6.580
 3659POPC   C3A49433  40.937  20.105   7.015
 3659POPC   C4A49434  40.916  20.014   7.489
 3659POPC   C1B49435  40.580  19.872   6.269
 3659POPC   C2B49436  40.377  20.017   6.680
 3659POPC   C3B49437  40.388  20.014   7.158
 3659POPC   C4B49438  40.432  19.788   7.576
 3660POPC   NC349439  36.342  39.208   5.345
 3660POPC   PO449440  35.866  39.506   5.411
 3660POPC   GL149441  36.136  39.373   5.817
 3660POPC   GL249442  35.941  39.249   6.124
 3660POPC   C1A49443  36.438  39.272   6.214
 3660POPC   D2A49444  36.549  39.090   6.655
 3660POPC   C3A49445  36.348  39.254   7.045
 3660POPC   C4A49446  36.119  39.062   7.407
 3660POPC   C1B49447  36.047  39.266   6.603
 3660POPC   C2B49448  35.829  39.284   7.031
 3660POPC   C3B49449  35.690  39.336   7.464
 3660POPC   C4B49450  35.926  39.264   7.866
 3661POPC   NC349451  23.174   0.729   5.567
 3661POPC   PO449452  22.934   1.305   5.210
 3661POPC   GL149453  22.815   1.097   5.637
 3661POPC   GL249454  22.926   1.365   5.865
 3661POPC   C1A49455  22.770   0.942   6.108
 3661POPC   D2A49456  22.931   1.108   6.500
 3661POPC   C3A49457  22.739   1.015   6.893
 3661POPC   C4A49458  22.700   0.842   7.319
 3661POPC   C1B49459  22.974   1.589   6.263
 3661POPC   C2B49460  22.823   1.574   6.684
 3661POPC   C3B49461  22.944   1.468   7.107
 3661POPC   C4B49462  22.890   1.575   7.543
 3662POPC   NC349463  10.671  26.271   5.649
 3662POPC   PO449464  10.246  25.795   5.559
 3662POPC   GL149465  10.230  26.116   5.917
 3662POPC   GL249466  10.304  26.466   5.945
 3662POPC   C1A49467  10.292  26.184   6.371
 3662POPC   D2A49468  10.504  25.919   6.660
 3662POPC   C3A49469  10.390  25.897   7.067
 3662POPC   C4A49470  10.755  25.787   7.320
 3662POPC   C1B49471  10.669  26.544   6.247
 3662POPC   C2B49472  10.753  26.645   6.693
 3662POPC   C3B49473  10.676  26.341   7.035
 3662POPC   C4B49474  10.484  26.214   7.457
 3663POPC   NC349475  44.470  29.499   5.711
 3663POPC   PO449476  44.824  29.949   5.369
 3663POPC   GL149477  44.630  30.110   5.756
 3663POPC   GL249478  44.923  30.304   5.865
 3663POPC   C1A49479  44.398  30.021   6.182
 3663POPC   D2A49480  44.513  30.210   6.613
 3663POPC   C3A49481  44.306  30.013   6.972
 3663POPC   C4A49482  44.412  29.729   7.357
 3663POPC   C1B49483  44.898  30.095   6.279
 3663POPC   C2B49484  44.667  29.735   6.552
 3663POPC   C3B49485  44.779  29.819   6.973
 3663POPC   C4B49486  44.922  30.237   6.949
 3664POPC   NC349487  36.439  43.835   5.179
 3664POPC   PO449488  36.051  44.373   5.341
 3664POPC   GL149489  36.211  43.995   5.632
 3664POPC   GL249490  35.895  43.816   5.738
 3664POPC   C1A49491  36.414  43.840   6.047
 3664POPC   D2A49492  36.504  44.066   6.445
 3664POPC   C3A49493  36.489  43.909   6.891
 3664POPC   C4A49494  36.357  44.035   7.319
 3664POPC   C1B49495  35.925  43.927   6.185
 3664POPC   C2B49496  36.055  43.778   6.602
 3664POPC   C3B49497  35.959  43.870   7.038
 3664POPC   C4B49498  35.970  43.821   7.530
 3665POPC   NC349499  18.797   6.832   5.258
 3665POPC   PO449500  19.141   6.298   5.370
 3665POPC   GL149501  18.995   6.527   5.714
 3665POPC   GL249502  18.747   6.780   5.771
 3665POPC   C1A49503  19.128   6.552   6.124
 3665POPC   D2A49504  19.016   6.827   6.474
 3665POPC   C3A49505  19.257   6.678   6.830
 3665POPC   C4A49506  19.141   6.389   7.140
 3665POPC   C1B49507  18.623   6.488   6.118
 3665POPC   C2B49508  18.523   6.570   6.553
 3665POPC   C3B49509  18.755   6.696   6.907
 3665POPC   C4B49510  18.916   6.808   7.299
 3666POPC   NC349511  11.421   0.125   5.513
 3666POPC   PO449512  10.799   0.442   5.392
 3666POPC   GL149513  11.093   0.418   5.784
 3666POPC   GL249514  11.088   0.097   5.904
 3666POPC   C1A49515  11.382   0.398   6.206
 3666POPC   D2A49516  11.550   0.709   6.551
 3666POPC   C3A49517  11.466   0.739   7.023
 3666POPC   C4A49518  11.579   0.374   7.279
 3666POPC   C1B49519  10.832   0.261   6.213
 3666POPC   C2B49520  10.961   0.465   6.527
 3666POPC   C3B49521  11.247   0.338   6.831
 3666POPC   C4B49522  11.094   0.221   7.244
 3667POPC   NC349523   7.214   7.560   5.463
 3667POPC   PO449524   7.795   7.157   5.468
 3667POPC   GL149525   7.617   7.389   5.807
 3667POPC   GL249526   7.654   7.757   5.802
 3667POPC   C1A49527   7.245   7.275   6.060
 3667POPC   D2A49528   7.104   7.339   6.500
 3667POPC   C3A49529   7.353   7.360   6.881
 3667POPC   C4A49530   7.364   7.028   7.162
 3667POPC   C1B49531   7.421   7.732   6.181
 3667POPC   C2B49532   7.433   7.824   6.604
 3667POPC   C3B49533   7.192   7.855   6.954
 3667POPC   C4B49534   7.238   7.783   7.369
 3668POPC   NC349535   5.348  41.383   5.450
 3668POPC   PO449536   5.062  41.991   5.270
 3668POPC   GL149537   5.086  41.747   5.739
 3668POPC   GL249538   5.342  41.515   5.936
 3668POPC   C1A49539   4.864  41.558   6.156
 3668POPC   D2A49540   4.903  41.309   6.565
 3668POPC   C3A49541   5.045  41.342   7.016
 3668POPC   C4A49542   4.874  41.209   7.437
 3668POPC   C1B49543   5.274  41.815   6.276
 3668POPC   C2B49544   5.050  41.790   6.678
 3668POPC   C3B49545   5.226  41.825   7.094
 3668POPC   C4B49546   5.582  41.981   7.345
 3669POPC   NC349547  40.635  43.506   5.466
 3669POPC   PO449548  41.030  42.949   5.380
 3669POPC   GL149549  40.869  43.142   5.729
 3669POPC   GL249550  41.069  43.425   5.763
 3669POPC   C1A49551  40.696  43.327   6.115
 3669POPC   D2A49552  40.842  43.410   6.542
 3669POPC   C3A49553  40.609  43.127   6.840
 3669POPC   C4A49554  40.653  43.270   7.246
 3669POPC   C1B49555  41.194  43.260   6.173
 3669POPC   C2B49556  41.326  43.171   6.564
 3669POPC   C3B49557  41.109  43.157   6.928
 3669POPC   C4B49558  41.233  43.247   7.306
 3670POPC   NC349559  18.111   4.661   4.987
 3670POPC   PO449560  18.028   5.230   5.424
 3670POPC   GL149561  18.361   5.231   5.793
 3670POPC   GL249562  18.265   5.544   5.922
 3670POPC   C1A49563  18.515   5.228   6.242
 3670POPC   D2A49564  18.507   5.058   6.656
 3670POPC   C3A49565  18.538   5.188   7.096
 3670POPC   C4A49566  18.537   5.055   7.550
 3670POPC   C1B49567  18.213   5.619   6.378
 3670POPC   C2B49568  18.130   5.404   6.743
 3670POPC   C3B49569  18.053   5.016   6.941
 3670POPC   C4B49570  18.082   5.087   7.349
 3671POPC   NC349571  10.175  36.658   5.308
 3671POPC   PO449572  10.269  37.310   5.420
 3671POPC   GL149573  10.281  37.039   5.756
 3671POPC   GL249574  10.509  36.775   5.695
 3671POPC   C1A49575  10.245  37.028   6.206
 3671POPC   D2A49576  10.502  37.172   6.548
 3671POPC   C3A49577  10.380  36.988   6.931
 3671POPC   C4A49578  10.216  36.905   7.337
 3671POPC   C1B49579  10.726  37.008   6.041
 3671POPC   C2B49580  10.910  36.891   6.427
 3671POPC   C3B49581  10.918  37.008   6.861
 3671POPC   C4B49582  10.749  36.870   7.261
 3672POPC   NC349583  15.506  36.157   5.305
 3672POPC   PO449584  14.860  36.290   5.445
 3672POPC   GL149585  15.016  36.001   5.760
 3672POPC   GL249586  15.391  35.940   5.759
 3672POPC   C1A49587  14.941  36.076   6.197
 3672POPC   D2A49588  15.184  36.041   6.567
 3672POPC   C3A49589  15.087  36.166   6.972
 3672POPC   C4A49590  14.954  35.973   7.315
 3672POPC   C1B49591  15.454  36.215   6.143
 3672POPC   C2B49592  15.602  36.315   6.593
 3672POPC   C3B49593  15.598  36.022   6.911
 3672POPC   C4B49594  15.448  35.961   7.312
 3673POPC   NC349595  20.051  36.271   5.355
 3673POPC   PO449596  19.700  35.698   5.350
 3673POPC   GL149597  19.652  35.849   5.775
 3673POPC   GL249598  19.945  36.039   5.836
 3673POPC   C1A49599  19.627  35.973   6.225
 3673POPC   D2A49600  19.863  35.940   6.594
 3673POPC   C3A49601  19.621  36.011   6.996
 3673POPC   C4A49602  19.777  36.087   7.430
 3673POPC   C1B49603  20.174  36.189   6.187
 3673POPC   C2B49604  20.190  36.385   6.582
 3673POPC   C3B49605  20.088  36.205   6.970
 3673POPC   C4B49606  20.288  36.200   7.347
 3674POPC   NC349607  30.273  14.932   5.373
 3674POPC   PO449608  30.841  15.280   5.439
 3674POPC   GL149609  30.754  14.969   5.765
 3674POPC   GL249610  30.462  15.157   5.789
 3674POPC   C1A49611  30.655  15.025   6.228
 3674POPC   D2A49612  30.647  15.243   6.607
 3674POPC   C3A49613  30.600  15.065   7.004
 3674POPC   C4A49614  30.873  15.384   7.155
 3674POPC   C1B49615  30.444  15.510   6.093
 3674POPC   C2B49616  30.331  15.633   6.519
 3674POPC   C3B49617  30.423  15.591   6.961
 3674POPC   C4B49618  30.497  15.691   7.388
 3675POPC   NC349619  35.907  28.774   5.640
 3675POPC   PO449620  36.291  28.224   5.462
 3675POPC   GL149621  36.095  28.341   5.839
 3675POPC   GL249622  35.731  28.275   5.793
 3675POPC   C1A49623  36.240  28.639   6.191
 3675POPC   D2A49624  36.393  28.602   6.615
 3675POPC   C3A49625  36.135  28.486   6.967
 3675POPC   C4A49626  36.098  28.666   7.394
 3675POPC   C1B49627  35.768  28.441   6.214
 3675POPC   C2B49628  35.858  28.683   6.549
 3675POPC   C3B49629  35.611  28.658   6.866
 3675POPC   C4B49630  35.681  28.372   7.166
 3676POPC   NC349631  16.200  20.436   5.400
 3676POPC   PO449632  15.588  20.665   5.482
 3676POPC   GL149633  15.800  20.693   5.878
 3676POPC   GL249634  16.063  20.942   5.921
 3676POPC   C1A49635  15.875  20.571   6.315
 3676POPC   D2A49636  15.984  20.482   6.745
 3676POPC   C3A49637  15.706  20.401   7.099
 3676POPC   C4A49638  15.696  20.563   7.503
 3676POPC   C1B49639  16.296  20.877   6.323
 3676POPC   C2B49640  16.205  20.929   6.745
 3676POPC   C3B49641  16.117  20.743   7.163
 3676POPC   C4B49642  16.392  20.592   7.425
 3677POPC   NC349643  39.555  35.302   5.248
 3677POPC   PO449644  40.120  35.552   5.279
 3677POPC   GL149645  39.918  35.276   5.623
 3677POPC   GL249646  40.168  35.210   5.870
 3677POPC   C1A49647  39.721  35.382   6.042
 3677POPC   D2A49648  39.624  35.348   6.515
 3677POPC   C3A49649  39.815  35.427   6.947
 3677POPC   C4A49650  39.990  35.177   7.331
 3677POPC   C1B49651  40.106  35.248   6.357
 3677POPC   C2B49652  40.279  35.287   6.783
 3677POPC   C3B49653  40.288  35.556   7.179
 3677POPC   C4B49654  40.282  35.467   7.657
 3678POPC   NC349655  19.092  44.614   5.443
 3678POPC   PO449656  18.715   0.125   5.750
 3678POPC   GL149657  19.066  44.826   5.910
 3678POPC   GL249658  18.968  44.472   5.937
 3678POPC   C1A49659  19.394  44.708   6.227
 3678POPC   D2A49660  19.429  44.933   6.634
 3678POPC   C3A49661  19.363  44.707   7.043
 3678POPC   C4A49662  19.088  44.462   7.359
 3678POPC   C1B49663  18.962  44.506   6.424
 3678POPC   C2B49664  19.007  44.345   6.865
 3678POPC   C3B49665  18.944  44.008   7.196
 3678POPC   C4B49666  18.862  44.072   7.634
 3679POPC   NC349667  10.780  25.325   5.386
 3679POPC   PO449668  10.174  25.010   5.387
 3679POPC   GL149669  10.378  25.299   5.700
 3679POPC   GL249670  10.553  25.007   5.811
 3679POPC   C1A49671  10.696  25.567   6.016
 3679POPC   D2A49672  10.903  25.641   6.464
 3679POPC   C3A49673  10.735  25.509   6.906
 3679POPC   C4A49674  10.399  25.436   7.260
 3679POPC   C1B49675  10.470  25.154   6.181
 3679POPC   C2B49676  10.629  25.177   6.542
 3679POPC   C3B49677  10.440  25.068   6.934
 3679POPC   C4B49678  10.554  24.949   7.339
 3680POPC   NC349679  36.409  35.674   5.419
 3680POPC   PO449680  35.820  35.439   5.190
 3680POPC   GL149681  36.053  35.272   5.617
 3680POPC   GL249682  36.266  35.464   5.854
 3680POPC   C1A49683  35.949  35.104   6.070
 3680POPC   D2A49684  35.798  35.206   6.530
 3680POPC   C3A49685  36.081  35.149   6.913
 3680POPC   C4A49686  36.459  35.057   7.120
 3680POPC   C1B49687  36.041  35.579   6.227
 3680POPC   C2B49688  36.286  35.469   6.584
 3680POPC   C3B49689  36.381  35.573   7.020
 3680POPC   C4B49690  36.622  35.853   7.315
 3681POPC   NC349691  23.910   3.178   5.550
 3681POPC   PO449692  23.385   2.887   5.361
 3681POPC   GL149693  23.556   2.829   5.765
 3681POPC   GL249694  23.460   3.130   5.862
 3681POPC   C1A49695  23.687   2.690   6.186
 3681POPC   D2A49696  24.069   2.615   6.443
 3681POPC   C3A49697  23.989   2.447   6.845
 3681POPC   C4A49698  24.042   2.570   7.259
 3681POPC   C1B49699  23.787   3.187   6.207
 3681POPC   C2B49700  23.921   3.104   6.629
 3681POPC   C3B49701  23.765   2.914   6.985
 3681POPC   C4B49702  23.411   2.720   7.079
 3682POPC   NC349703   1.702  18.316   5.643
 3682POPC   PO449704   1.171  18.355   5.261
 3682POPC   GL149705   1.196  18.453   5.737
 3682POPC   GL249706   0.871  18.363   5.864
 3682POPC   C1A49707   1.293  18.281   6.178
 3682POPC   D2A49708   1.395  18.078   6.568
 3682POPC   C3A49709   1.244  18.157   6.973
 3682POPC   C4A49710   1.528  18.280   7.259
 3682POPC   C1B49711   0.941  18.647   6.190
 3682POPC   C2B49712   1.002  18.459   6.588
 3682POPC   C3B49713   0.809  18.425   6.975
 3682POPC   C4B49714   0.945  18.632   7.360
 3683POPC   NC349715  24.165   6.369   5.434
 3683POPC   PO449716  24.798   6.666   5.569
 3683POPC   GL149717  24.534   6.389   5.808
 3683POPC   GL249718  24.318   6.678   5.861
 3683POPC   C1A49719  24.251   6.269   6.179
 3683POPC   D2A49720  24.264   6.068   6.625
 3683POPC   C3A49721  24.398   6.330   6.990
 3683POPC   C4A49722  24.803   6.394   7.194
 3683POPC   C1B49723  24.587   6.662   6.257
 3683POPC   C2B49724  24.715   6.653   6.706
 3683POPC   C3B49725  24.649   6.871   7.097
 3683POPC   C4B49726  24.737   7.033   7.507
 3684POPC   NC349727  38.661   2.161   5.188
 3684POPC   PO449728  38.323   1.586   5.384
 3684POPC   GL149729  38.554   1.804   5.744
 3684POPC   GL249730  38.598   2.178   5.704
 3684POPC   C1A49731  38.491   1.798   6.204
 3684POPC   D2A49732  38.340   1.758   6.640
 3684POPC   C3A49733  38.677   1.869   6.945
 3684POPC   C4A49734  38.581   1.806   7.391
 3684POPC   C1B49735  38.334   2.273   6.055
 3684POPC   C2B49736  38.372   2.253   6.516
 3684POPC   C3B49737  38.272   2.165   6.945
 3684POPC   C4B49738  38.520   2.302   7.255
 3685POPC   NC349739  36.577  26.139   5.368
 3685POPC   PO449740  37.148  25.709   5.363
 3685POPC   GL149741  36.983  25.939   5.716
 3685POPC   GL249742  36.693  25.748   5.721
 3685POPC   C1A49743  37.065  26.053   6.175
 3685POPC   D2A49744  37.023  25.835   6.584
 3685POPC   C3A49745  37.071  26.000   7.022
 3685POPC   C4A49746  36.945  25.815   7.415
 3685POPC   C1B49747  36.573  26.090   6.045
 3685POPC   C2B49748  36.593  26.198   6.496
 3685POPC   C3B49749  36.540  26.039   6.935
 3685POPC   C4B49750  36.364  26.207   7.320
 3686POPC   NC349751  12.377  14.456   5.516
 3686POPC   PO449752  12.983  14.249   5.327
 3686POPC   GL149753  12.813  14.356   5.788
 3686POPC   GL249754  12.524  14.188   5.945
 3686POPC   C1A49755  12.744  14.534   6.251
 3686POPC   D2A49756  12.851  14.704   6.684
 3686POPC   C3A49757  12.704  14.460   7.047
 3686POPC   C4A49758  12.812  14.395   7.476
 3686POPC   C1B49759  12.806  14.012   6.260
 3686POPC   C2B49760  12.836  14.173   6.645
 3686POPC   C3B49761  13.162  14.311   6.863
 3686POPC   C4B49762  13.224  14.224   7.259
 3687POPC   NC349763  40.334  22.044   5.248
 3687POPC   PO449764  39.851  21.646   5.171
 3687POPC   GL149765  40.067  21.956   5.638
 3687POPC   GL249766  39.902  22.256   5.770
 3687POPC   C1A49767  40.125  21.924   6.110
 3687POPC   D2A49768  40.243  22.141   6.517
 3687POPC   C3A49769  40.124  22.038   6.945
 3687POPC   C4A49770  40.277  22.222   7.321
 3687POPC   C1B49771  39.890  22.399   6.231
 3687POPC   C2B49772  39.793  22.378   6.704
 3687POPC   C3B49773  39.689  22.523   7.149
 3687POPC   C4B49774  39.769  22.564   7.600
 3688POPC   NC349775  32.446   1.867   5.414
 3688POPC   PO449776  32.270   2.516   5.428
 3688POPC   GL149777  32.151   2.191   5.717
 3688POPC   GL249778  32.490   2.171   5.822
 3688POPC   C1A49779  32.151   1.939   6.124
 3688POPC   D2A49780  32.024   2.023   6.580
 3688POPC   C3A49781  32.341   2.038   6.919
 3688POPC   C4A49782  32.306   1.662   7.221
 3688POPC   C1B49783  32.585   2.289   6.247
 3688POPC   C2B49784  32.833   2.139   6.600
 3688POPC   C3B49785  32.843   1.942   6.990
 3688POPC   C4B49786  32.644   1.997   7.371
 3689POPC   NC349787  39.606  12.989   5.554
 3689POPC   PO449788  38.927  12.922   5.516
 3689POPC   GL149789  39.117  12.814   5.888
 3689POPC   GL249790  39.331  12.626   5.818
 3689POPC   C1A49791  39.032  12.791   6.333
 3689POPC   D2A49792  39.251  12.954   6.652
 3689POPC   C3A49793  39.285  12.748   7.000
 3689POPC   C4A49794  38.939  12.668   7.225
 3689POPC   C1B49795  39.511  12.633   6.228
 3689POPC   C2B49796  39.682  12.713   6.624
 3689POPC   C3B49797  39.726  13.034   6.889
 3689POPC   C4B49798  39.751  12.782   7.216
 3690POPC   NC349799  41.863  29.442   5.433
 3690POPC   PO449800  41.359  29.075   5.202
 3690POPC   GL149801  41.330  29.191   5.659
 3690POPC   GL249802  41.642  29.180   5.798
 3690POPC   C1A49803  41.249  29.139   6.132
 3690POPC   D2A49804  41.217  29.325   6.563
 3690POPC   C3A49805  41.234  29.163   7.002
 3690POPC   C4A49806  41.393  29.208   7.457
 3690POPC   C1B49807  41.754  28.947   6.138
 3690POPC   C2B49808  41.624  29.006   6.547
 3690POPC   C3B49809  41.728  29.230   6.916
 3690POPC   C4B49810  41.860  29.017   7.287
 3691POPC   NC349811  11.679  43.165   5.430
 3691POPC   PO449812  11.018  43.168   5.440
 3691POPC   GL149813  11.284  43.186   5.761
 3691POPC   GL249814  11.363  42.835   5.733
 3691POPC   C1A49815  11.456  43.102   6.163
 3691POPC   D2A49816  11.252  43.051   6.532
 3691POPC   C3A49817  11.481  42.981   6.894
 3691POPC   C4A49818  11.389  43.054   7.316
 3691POPC   C1B49819  10.997  42.791   6.052
 3691POPC   C2B49820  10.850  42.736   6.510
 3691POPC   C3B49821  10.939  42.922   6.928
 3691POPC   C4B49822  10.927  42.822   7.366
 3692POPC   NC349823  21.999  39.525   5.427
 3692POPC   PO449824  22.367  38.974   5.461
 3692POPC   GL149825  22.241  39.243   5.781
 3692POPC   GL249826  21.855  39.212   5.799
 3692POPC   C1A49827  22.214  39.459   6.174
 3692POPC   D2A49828  22.382  39.451   6.597
 3692POPC   C3A49829  22.168  39.382   7.012
 3692POPC   C4A49830  22.122  39.253   7.451
 3692POPC   C1B49831  21.960  39.013   6.200
 3692POPC   C2B49832  22.059  39.033   6.645
 3692POPC   C3B49833  22.007  38.880   7.076
 3692POPC   C4B49834  21.800  38.820   7.471
 3693POPC   NC349835   3.240  38.228   5.446
 3693POPC   PO449836   3.405  38.865   5.587
 3693POPC   GL149837   3.435  38.546   5.910
 3693POPC   GL249838   3.731  38.355   5.916
 3693POPC   C1A49839   3.451  38.336   6.337
 3693POPC   D2A49840   3.461  38.027   6.693
 3693POPC   C3A49841   3.461  38.227   7.104
 3693POPC   C4A49842   3.244  38.129   7.506
 3693POPC   C1B49843   3.768  38.723   6.261
 3693POPC   C2B49844   3.602  38.828   6.633
 3693POPC   C3B49845   3.546  38.731   7.057
 3693POPC   C4B49846   3.716  38.672   7.491
 3694POPC   NC349847   3.320   6.973   5.401
 3694POPC   PO449848   3.857   7.414   5.439
 3694POPC   GL149849   3.580   7.268   5.771
 3694POPC   GL249850   3.632   7.594   5.888
 3694POPC   C1A49851   3.353   7.011   6.102
 3694POPC   D2A49852   3.388   6.907   6.567
 3694POPC   C3A49853   3.538   7.177   6.942
 3694POPC   C4A49854   3.854   7.459   7.128
 3694POPC   C1B49855   3.500   7.442   6.308
 3694POPC   C2B49856   3.383   7.606   6.701
 3694POPC   C3B49857   3.403   7.767   7.100
 3694POPC   C4B49858   3.128   7.641   7.447
 3695POPC   NC349859  30.612   4.154   5.420
 3695POPC   PO449860  30.481   4.757   5.407
 3695POPC   GL149861  30.692   4.513   5.799
 3695POPC   GL249862  30.860   4.114   5.840
 3695POPC   C1A49863  30.937   4.450   6.189
 3695POPC   D2A49864  31.051   4.429   6.581
 3695POPC   C3A49865  30.886   4.776   6.804
 3695POPC   C4A49866  30.701   4.658   7.197
 3695POPC   C1B49867  30.517   4.149   6.118
 3695POPC   C2B49868  30.503   4.476   6.437
 3695POPC   C3B49869  30.587   4.347   6.815
 3695POPC   C4B49870  30.553   4.129   7.196
 3696POPC   NC349871   9.468   0.524   5.525
 3696POPC   PO449872  10.150   0.355   5.337
 3696POPC   GL149873   9.931   0.505   5.776
 3696POPC   GL249874  10.047   0.255   5.972
 3696POPC   C1A49875   9.631   0.644   6.177
 3696POPC   D2A49876   9.443   0.825   6.592
 3696POPC   C3A49877   9.533   0.575   6.981
 3696POPC   C4A49878   9.866   0.480   7.248
 3696POPC   C1B49879   9.901   0.239   6.374
 3696POPC   C2B49880   9.944   0.234   6.805
 3696POPC   C3B49881  10.133   0.039   7.160
 3696POPC   C4B49882   9.969   0.068   7.579
 3697POPC   NC349883  11.748  28.198   5.489
 3697POPC   PO449884  12.358  28.422   5.440
 3697POPC   GL149885  12.100  28.423   5.788
 3697POPC   GL249886  12.198  28.061   5.791
 3697POPC   C1A49887  12.135  28.524   6.227
 3697POPC   D2A49888  11.999  28.343   6.597
 3697POPC   C3A49889  12.189  28.289   6.967
 3697POPC   C4A49890  12.030  28.395   7.373
 3697POPC   C1B49891  12.300  28.026   6.216
 3697POPC   C2B49892  12.198  27.871   6.601
 3697POPC   C3B49893  12.440  27.800   6.936
 3697POPC   C4B49894  12.547  28.090   7.275
 3698POPC   NC349895  38.001  10.171   5.304
 3698POPC   PO449896  38.605  10.548   5.289
 3698POPC   GL149897  38.365  10.528   5.670
 3698POPC   GL249898  38.317  10.190   5.752
 3698POPC   C1A49899  38.306  10.597   6.125
 3698POPC   D2A49900  38.528  10.591   6.532
 3698POPC   C3A49901  38.389  10.711   6.975
 3698POPC   C4A49902  38.626  10.525   7.339
 3698POPC   C1B49903  38.549  10.128   6.149
 3698POPC   C2B49904  38.486   9.975   6.579
 3698POPC   C3B49905  38.478  10.199   6.946
 3698POPC   C4B49906  38.193  10.212   7.266
 3699POPC   NC349907  11.060  23.829   5.312
 3699POPC   PO449908  11.660  23.905   5.587
 3699POPC   GL149909  11.358  23.610   5.717
 3699POPC   GL249910  11.176  23.875   5.823
 3699POPC   C1A49911  11.353  23.407   6.119
 3699POPC   D2A49912  11.237  23.334   6.548
 3699POPC   C3A49913  11.541  23.379   6.895
 3699POPC   C4A49914  11.640  23.278   7.301
 3699POPC   C1B49915  11.405  23.935   6.213
 3699POPC   C2B49916  11.452  23.808   6.631
 3699POPC   C3B49917  11.295  23.856   7.042
 3699POPC   C4B49918  11.393  23.696   7.450
 3700POPC   NC349919  18.315   7.190   5.621
 3700POPC   PO449920  18.282   7.840   5.543
 3700POPC   GL149921  18.101   7.621   5.860
 3700POPC   GL249922  18.432   7.548   5.981
 3700POPC   C1A49923  18.030   7.438   6.276
 3700POPC   D2A49924  18.117   7.495   6.723
 3700POPC   C3A49925  17.984   7.268   7.072
 3700POPC   C4A49926  18.300   7.099   7.372
 3700POPC   C1B49927  18.493   7.719   6.392
 3700POPC   C2B49928  18.589   7.666   6.832
 3700POPC   C3B49929  18.357   7.596   7.200
 3700POPC   C4B49930  18.094   7.723   7.533
 3701POPC   NC349931  38.194  27.655   5.437
 3701POPC   PO449932  38.784  27.353   5.676
 3701POPC   GL149933  38.491  27.636   5.870
 3701POPC   GL249934  38.160  27.441   5.890
 3701POPC   C1A49935  38.558  27.878   6.279
 3701POPC   D2A49936  38.707  27.934   6.713
 3701POPC   C3A49937  38.423  27.762   7.033
 3701POPC   C4A49938  38.449  27.461   7.415
 3701POPC   C1B49939  38.363  27.310   6.232
 3701POPC   C2B49940  38.523  27.454   6.606
 3701POPC   C3B49941  38.308  27.275   6.955
 3701POPC   C4B49942  38.007  27.255   7.275
 3702POPC   NC349943  12.525   1.913   5.312
 3702POPC   PO449944  12.941   2.440   5.371
 3702POPC   GL149945  12.928   2.095   5.701
 3702POPC   GL249946  12.614   1.952   5.842
 3702POPC   C1A49947  13.018   2.083   6.179
 3702POPC   D2A49948  13.052   2.422   6.519
 3702POPC   C3A49949  13.010   2.323   6.964
 3702POPC   C4A49950  12.845   1.973   7.192
 3702POPC   C1B49951  12.620   1.760   6.271
 3702POPC   C2B49952  12.751   1.748   6.712
 3702POPC   C3B49953  12.471   1.635   7.062
 3702POPC   C4B49954  12.453   1.810   7.491
 3703POPC   NC349955  31.201  34.429   5.447
 3703POPC   PO449956  30.571  34.527   5.248
 3703POPC   GL149957  30.500  34.630   5.671
 3703POPC   GL249958  30.857  34.686   5.745
 3703POPC   C1A49959  30.540  34.579   6.119
 3703POPC   D2A49960  30.616  34.845   6.431
 3703POPC   C3A49961  30.525  34.597   6.742
 3703POPC   C4A49962  30.455  34.593   7.147
 3703POPC   C1B49963  31.057  34.616   6.134
 3703POPC   C2B49964  31.144  34.761   6.543
 3703POPC   C3B49965  30.996  34.663   6.949
 3703POPC   C4B49966  30.914  34.502   7.337
 3704POPC   NC349967  32.540  31.637   5.404
 3704POPC   PO449968  31.956  31.781   5.413
 3704POPC   GL149969  32.179  31.617   5.787
 3704POPC   GL249970  32.496  31.438   5.881
 3704POPC   C1A49971  32.309  31.807   6.179
 3704POPC   D2A49972  32.569  31.652   6.504
 3704POPC   C3A49973  32.294  31.559   6.841
 3704POPC   C4A49974  32.146  31.686   7.238
 3704POPC   C1B49975  32.128  31.322   6.203
 3704POPC   C2B49976  32.047  31.161   6.617
 3704POPC   C3B49977  31.781  31.126   6.970
 3704POPC   C4B49978  31.775  31.287   7.379
 3705POPC   NC349979  13.083  24.683   5.349
 3705POPC   PO449980  12.457  24.481   5.429
 3705POPC   GL149981  12.680  24.497   5.826
 3705POPC   GL249982  13.029  24.475   5.823
 3705POPC   C1A49983  12.800  24.361   6.251
 3705POPC   D2A49984  12.812  24.181   6.645
 3705POPC   C3A49985  12.539  24.217   7.023
 3705POPC   C4A49986  12.415  24.650   7.158
 3705POPC   C1B49987  13.218  24.659   6.195
 3705POPC   C2B49988  13.158  24.573   6.641
 3705POPC   C3B49989  12.914  24.706   7.012
 3705POPC   C4B49990  12.841  24.546   7.437
 3706POPC   NC349991  11.141  38.318   5.080
 3706POPC   PO449992  11.423  38.856   5.391
 3706POPC   GL149993  11.371  38.650   5.800
 3706POPC   GL249994  11.135  38.344   5.747
 3706POPC   C1A49995  11.384  38.751   6.268
 3706POPC   D2A49996  11.568  38.583   6.674
 3706POPC   C3A49997  11.333  38.659   7.065
 3706POPC   C4A49998  10.977  38.912   7.207
 3706POPC   C1B49999  11.357  38.252   6.154
 3706POPC   C2B50000  11.502  38.096   6.560
 3706POPC   C3B50001  11.397  38.156   6.965
 3706POPC   C4B50002  11.086  38.201   7.256
 3707POPC   NC350003  40.128  32.073   5.371
 3707POPC   PO450004  39.839  32.579   5.655
 3707POPC   GL150005  39.965  32.243   5.852
 3707POPC   GL250006  39.792  31.922   5.725
 3707POPC   C1A50007  39.898  32.322   6.285
 3707POPC   D2A50008  40.176  32.235   6.611
 3707POPC   C3A50009  40.132  32.362   7.022
 3707POPC   C4A50010  40.065  32.163   7.417
 3707POPC   C1B50011  39.598  31.744   6.085
 3707POPC   C2B50012  39.637  31.929   6.488
 3707POPC   C3B50013  39.492  32.249   6.749
 3707POPC   C4B50014  39.615  32.278   7.180
 3708POPC   NC350015  10.749   1.413   5.515
 3708POPC   PO450016  10.338   1.261   4.957
 3708POPC   GL150017  10.215   1.394   5.536
 3708POPC   GL250018  10.384   1.662   5.770
 3708POPC   C1A50019  10.291   1.315   6.103
 3708POPC   D2A50020  10.229   1.307   6.610
 3708POPC   C3A50021  10.371   1.117   7.050
 3708POPC   C4A50022  10.655   1.166   7.422
 3708POPC   C1B50023  10.707   1.633   6.138
 3708POPC   C2B50024  10.869   1.780   6.559
 3708POPC   C3B50025  10.881   1.555   6.955
 3708POPC   C4B50026  10.520   1.609   7.229
 3709POPC   NC350027   1.125  33.082   5.355
 3709POPC   PO450028   1.743  33.131   5.235
 3709POPC   GL150029   1.491  32.963   5.707
 3709POPC   GL250030   1.127  32.915   5.851
 3709POPC   C1A50031   1.520  32.870   6.183
 3709POPC   D2A50032   1.355  32.986   6.622
 3709POPC   C3A50033   1.540  32.807   7.036
 3709POPC   C4A50034   1.548  32.900   7.510
 3709POPC   C1B50035   1.082  33.220   6.212
 3709POPC   C2B50036   0.993  33.365   6.654
 3709POPC   C3B50037   1.077  33.143   7.054
 3709POPC   C4B50038   0.944  33.074   7.466
 3710POPC   NC350039  40.683  27.983   5.369
 3710POPC   PO450040  40.738  27.246   5.217
 3710POPC   GL150041  40.853  27.529   5.596
 3710POPC   GL250042  40.585  27.686   5.785
 3710POPC   C1A50043  41.019  27.575   6.049
 3710POPC   D2A50044  40.886  27.685   6.491
 3710POPC   C3A50045  41.115  27.691   6.917
 3710POPC   C4A50046  41.095  27.879   7.343
 3710POPC   C1B50047  40.393  27.757   6.155
 3710POPC   C2B50048  40.366  27.652   6.570
 3710POPC   C3B50049  40.617  27.688   6.924
 3710POPC   C4B50050  40.802  27.389   7.237
 3711POPC   NC350051  37.500  33.953   5.281
 3711POPC   PO450052  38.103  33.675   5.488
 3711POPC   GL150053  37.911  33.577   5.842
 3711POPC   GL250054  37.614  33.774   5.758
 3711POPC   C1A50055  37.809  33.712   6.246
 3711POPC   D2A50056  37.893  33.973   6.544
 3711POPC   C3A50057  37.969  33.760   6.902
 3711POPC   C4A50058  38.058  33.908   7.292
 3711POPC   C1B50059  37.382  33.998   6.095
 3711POPC   C2B50060  37.172  33.926   6.494
 3711POPC   C3B50061  37.468  33.901   6.838
 3711POPC   C4B50062  37.526  33.861   7.253
 3712POPC   NC350063   5.284  11.623   5.438
 3712POPC   PO450064   5.839  11.872   5.438
 3712POPC   GL150065   6.078  11.904   5.803
 3712POPC   GL250066   5.980  11.611   5.922
 3712POPC   C1A50067   6.191  12.057   6.231
 3712POPC   D2A50068   6.170  11.993   6.683
 3712POPC   C3A50069   5.796  12.184   6.823
 3712POPC   C4A50070   5.526  12.279   7.157
 3712POPC   C1B50071   5.691  11.863   6.170
 3712POPC   C2B50072   5.493  11.806   6.589
 3712POPC   C3B50073   5.550  11.773   7.031
 3712POPC   C4B50074   5.942  11.873   7.218
 3713POPC   NC350075   8.949  40.640   5.604
 3713POPC   PO450076   9.250  41.062   5.153
 3713POPC   GL150077   9.260  41.013   5.717
 3713POPC   GL250078   9.363  40.744   5.941
 3713POPC   C1A50079   8.989  40.968   6.162
 3713POPC   D2A50080   8.698  40.979   6.507
 3713POPC   C3A50081   8.753  40.734   6.862
 3713POPC   C4A50082   8.842  40.919   7.223
 3713POPC   C1B50083   9.248  40.451   6.187
 3713POPC   C2B50084   9.063  40.459   6.573
 3713POPC   C3B50085   9.212  40.531   7.022
 3713POPC   C4B50086   9.150  40.638   7.477
 3714POPC   NC350087  16.290  35.642   5.381
 3714POPC   PO450088  15.973  35.033   5.431
 3714POPC   GL150089  15.857  35.164   5.870
 3714POPC   GL250090  15.697  35.499   5.895
 3714POPC   C1A50091  16.073  35.316   6.222
 3714POPC   D2A50092  16.030  35.136   6.629
 3714POPC   C3A50093  15.879  35.087   7.025
 3714POPC   C4A50094  16.076  35.353   7.293
 3714POPC   C1B50095  15.596  35.334   6.338
 3714POPC   C2B50096  15.697  35.541   6.724
 3714POPC   C3B50097  15.628  35.513   7.158
 3714POPC   C4B50098  15.715  35.591   7.602
 3715POPC   NC350099  39.238  21.576   5.466
 3715POPC   PO450100  39.303  20.841   5.401
 3715POPC   GL150101  39.257  21.110   5.736
 3715POPC   GL250102  39.601  21.113   5.787
 3715POPC   C1A50103  38.974  21.259   6.090
 3715POPC   D2A50104  38.991  21.475   6.480
 3715POPC   C3A50105  39.026  21.216   6.850
 3715POPC   C4A50106  39.111  21.384   7.267
 3715POPC   C1B50107  39.467  21.367   6.149
 3715POPC   C2B50108  39.481  21.404   6.581
 3715POPC   C3B50109  39.529  21.323   6.992
 3715POPC   C4B50110  39.680  21.093   7.336
 3716POPC   NC350111  30.391   5.866   5.489
 3716POPC   PO450112  29.719   5.998   5.549
 3716POPC   GL150113  29.748   5.848   5.926
 3716POPC   GL250114  29.957   5.565   5.828
 3716POPC   C1A50115  29.760   5.809   6.353
 3716POPC   D2A50116  29.809   5.735   6.776
 3716POPC   C3A50117  29.596   5.977   7.061
 3716POPC   C4A50118  29.576   5.833   7.478
 3716POPC   C1B50119  30.237   5.752   6.131
 3716POPC   C2B50120  30.226   5.941   6.525
 3716POPC   C3B50121  30.322   5.742   6.911
 3716POPC   C4B50122  30.043   5.802   7.238
 3717POPC   NC350123   9.361   8.626   5.196
 3717POPC   PO450124   8.674   8.857   5.177
 3717POPC   GL150125   8.666   8.987   5.719
 3717POPC   GL250126   8.674   8.678   5.876
 3717POPC   C1A50127   8.924   9.031   6.152
 3717POPC   D2A50128   9.231   9.149   6.527
 3717POPC   C3A50129   9.036   9.166   6.959
 3717POPC   C4A50130   9.122   8.900   7.324
 3717POPC   C1B50131   8.501   8.730   6.290
 3717POPC   C2B50132   8.521   8.927   6.713
 3717POPC   C3B50133   8.677   8.787   7.109
 3717POPC   C4B50134   8.640   8.848   7.565
 3718POPC   NC350135   7.935  30.601   5.226
 3718POPC   PO450136   8.533  30.944   5.325
 3718POPC   GL150137   8.364  30.966   5.736
 3718POPC   GL250138   8.018  31.073   5.645
 3718POPC   C1A50139   8.409  30.822   6.199
 3718POPC   D2A50140   8.311  30.527   6.542
 3718POPC   C3A50141   8.075  30.614   6.916
 3718POPC   C4A50142   8.214  30.912   7.230
 3718POPC   C1B50143   7.951  30.906   6.062
 3718POPC   C2B50144   8.039  31.009   6.499
 3718POPC   C3B50145   7.809  31.038   6.893
 3718POPC   C4B50146   7.696  30.786   7.236
 3719POPC   NC350147  40.687  23.466   5.476
 3719POPC   PO450148  40.537  24.172   5.561
 3719POPC   GL150149  40.877  23.926   5.782
 3719POPC   GL250150  40.883  23.571   5.933
 3719POPC   C1A50151  41.113  23.972   6.152
 3719POPC   D2A50152  41.055  23.676   6.472
 3719POPC   C3A50153  40.931  23.792   6.877
 3719POPC   C4A50154  41.019  23.500   7.172
 3719POPC   C1B50155  40.590  23.748   6.229
 3719POPC   C2B50156  40.406  23.740   6.664
 3719POPC   C3B50157  40.490  23.597   7.092
 3719POPC   C4B50158  40.417  23.737   7.524
 3720POPC   NC350159  44.015   9.824   5.631
 3720POPC   PO450160  43.482   9.551   5.438
 3720POPC   GL150161  43.574   9.685   5.827
 3720POPC   GL250162  43.806   9.417   5.863
 3720POPC   C1A50163  43.702   9.778   6.275
 3720POPC   D2A50164  43.827   9.710   6.755
 3720POPC   C3A50165  43.720  10.014   7.111
 3720POPC   C4A50166  43.496  10.063   7.547
 3720POPC   C1B50167  44.104   9.484   6.200
 3720POPC   C2B50168  44.337   9.227   6.500
 3720POPC   C3B50169  44.205   9.296   6.917
 3720POPC   C4B50170  44.122   9.693   7.198
 3721POPC   NC350171  12.638  20.779   5.363
 3721POPC   PO450172  13.218  20.457   5.164
 3721POPC   GL150173  13.043  20.630   5.624
 3721POPC   GL250174  12.725  20.427   5.740
 3721POPC   C1A50175  12.910  20.778   6.053
 3721POPC   D2A50176  12.855  20.589   6.488
 3721POPC   C3A50177  12.756  20.822   6.853
 3721POPC   C4A50178  12.916  20.682   7.230
 3721POPC   C1B50179  12.692  20.231   6.168
 3721POPC   C2B50180  12.614  20.060   6.588
 3721POPC   C3B50181  12.634  20.306   6.973
 3721POPC   C4B50182  12.520  20.348   7.417
 3722POPC   NC350183  20.967   5.000   5.382
 3722POPC   PO450184  20.336   4.935   5.518
 3722POPC   GL150185  20.478   5.227   5.823
 3722POPC   GL250186  20.719   5.511   5.782
 3722POPC   C1A50187  20.303   5.232   6.218
 3722POPC   D2A50188  20.231   4.968   6.556
 3722POPC   C3A50189  20.368   5.105   6.968
 3722POPC   C4A50190  20.445   5.145   7.428
 3722POPC   C1B50191  20.811   5.310   6.231
 3722POPC   C2B50192  20.794   5.167   6.680
 3722POPC   C3B50193  20.866   5.289   7.134
 3722POPC   C4B50194  20.982   5.156   7.554
 3723POPC   NC350195  38.443  11.640   5.558
 3723POPC   PO450196  38.308  12.276   5.538
 3723POPC   GL150197  38.484  12.199   5.888
 3723POPC   GL250198  38.727  11.986   5.822
 3723POPC   C1A50199  38.518  12.272   6.306
 3723POPC   D2A50200  38.397  11.964   6.590
 3723POPC   C3A50201  38.470  12.124   6.973
 3723POPC   C4A50202  38.568  11.854   7.273
 3723POPC   C1B50203  38.796  11.843   6.256
 3723POPC   C2B50204  38.918  12.000   6.691
 3723POPC   C3B50205  38.965  12.157   7.150
 3723POPC   C4B50206  38.908  12.002   7.624
 3724POPC   NC350207   0.286  16.397   5.404
 3724POPC   PO450208   0.266  16.946   5.590
 3724POPC   GL150209   0.323  16.750   5.943
 3724POPC   GL250210   0.564  16.502   5.869
 3724POPC   C1A50211   0.225  16.882   6.356
 3724POPC   D2A50212   0.193  16.640   6.722
 3724POPC   C3A50213   0.283  16.885   7.091
 3724POPC   C4A50214   0.233  16.873   7.556
 3724POPC   C1B50215   0.561  16.487   6.346
 3724POPC   C2B50216   0.691  16.649   6.781
 3724POPC   C3B50217   0.597  16.515   7.222
 3724POPC   C4B50218   0.577  16.479   7.674
 3725POPC   NC350219  26.265  23.706   4.962
 3725POPC   PO450220  26.642  23.814   5.374
 3725POPC   GL150221  26.389  23.745   5.788
 3725POPC   GL250222  26.272  23.405   5.917
 3725POPC   C1A50223  26.214  23.798   6.244
 3725POPC   D2A50224  26.291  23.656   6.695
 3725POPC   C3A50225  26.089  23.753   7.103
 3725POPC   C4A50226  26.154  23.652   7.564
 3725POPC   C1B50227  26.113  23.293   6.366
 3725POPC   C2B50228  25.933  23.289   6.811
 3725POPC   C3B50229  25.943  23.293   7.264
 3725POPC   C4B50230  25.813  23.065   7.611
 3726POPC   NC350231   8.807  32.643   5.215
 3726POPC   PO450232   9.063  33.238   5.304
 3726POPC   GL150233   8.908  33.162   5.719
 3726POPC   GL250234   8.863  32.810   5.730
 3726POPC   C1A50235   9.099  33.079   6.147
 3726POPC   D2A50236   9.275  33.040   6.571
 3726POPC   C3A50237   9.132  33.304   6.926
 3726POPC   C4A50238   9.111  33.173   7.348
 3726POPC   C1B50239   8.765  32.655   6.153
 3726POPC   C2B50240   8.897  32.577   6.593
 3726POPC   C3B50241   8.969  32.815   6.953
 3726POPC   C4B50242   8.622  33.015   7.197
 3727POPC   NC350243   0.908  22.779   5.612
 3727POPC   PO450244   0.204  22.955   5.391
 3727POPC   GL150245   0.444  22.958   5.768
 3727POPC   GL250246   0.132  22.938   5.955
 3727POPC   C1A50247   0.574  22.847   6.204
 3727POPC   D2A50248   0.336  22.865   6.589
 3727POPC   C3A50249   0.535  22.937   6.987
 3727POPC   C4A50250   0.783  23.054   7.344
 3727POPC   C1B50251   0.115  22.537   6.206
 3727POPC   C2B50252   0.230  22.353   6.615
 3727POPC   C3B50253   0.207  22.524   7.038
 3727POPC   C4B50254   0.186  22.594   7.471
 3728POPC   NC350255  43.092  22.728   5.256
 3728POPC   PO450256  43.070  22.064   5.469
 3728POPC   GL150257  43.152  22.121   5.877
 3728POPC   GL250258  43.488  21.974   5.987
 3728POPC   C1A50259  43.033  22.014   6.269
 3728POPC   D2A50260  43.219  22.106   6.644
 3728POPC   C3A50261  42.946  22.170   6.956
 3728POPC   C4A50262  43.099  22.220   7.330
 3728POPC   C1B50263  43.426  22.370   6.245
 3728POPC   C2B50264  43.393  22.635   6.620
 3728POPC   C3B50265  43.387  22.498   7.015
 3728POPC   C4B50266  43.618  22.555   7.394
 3729POPC   NC350267  24.361   4.787   5.511
 3729POPC   PO450268  24.554   4.175   5.360
 3729POPC   GL150269  24.579   4.268   5.781
 3729POPC   GL250270  24.801   4.562   5.753
 3729POPC   C1A50271  24.248   4.215   6.135
 3729POPC   D2A50272  23.971   4.390   6.482
 3729POPC   C3A50273  24.166   4.309   6.896
 3729POPC   C4A50274  24.375   4.325   7.313
 3729POPC   C1B50275  24.557   4.634   6.135
 3729POPC   C2B50276  24.474   4.490   6.530
 3729POPC   C3B50277  24.665   4.488   6.920
 3729POPC   C4B50278  24.893   4.481   7.305
 3730POPC   NC350279  20.367   9.312   5.494
 3730POPC   PO450280  20.720   9.832   5.374
 3730POPC   GL150281  20.710   9.706   5.825
 3730POPC   GL250282  20.763   9.344   5.842
 3730POPC   C1A50283  20.797   9.691   6.303
 3730POPC   D2A50284  20.914   9.865   6.744
 3730POPC   C3A50285  20.618   9.973   7.130
 3730POPC   C4A50286  20.774  10.113   7.573
 3730POPC   C1B50287  20.537   9.240   6.239
 3730POPC   C2B50288  20.491   9.361   6.676
 3730POPC   C3B50289  20.739   9.454   7.051
 3730POPC   C4B50290  21.068   9.728   7.230
 3731POPC   NC350291  34.502  25.052   5.537
 3731POPC   PO450292  34.551  25.661   5.445
 3731POPC   GL150293  34.711  25.472   5.824
 3731POPC   GL250294  34.385  25.391   5.929
 3731POPC   C1A50295  35.026  25.370   6.193
 3731POPC   D2A50296  34.975  25.159   6.638
 3731POPC   C3A50297  34.727  25.412   6.984
 3731POPC   C4A50298  34.538  25.275   7.406
 3731POPC   C1B50299  34.557  25.212   6.307
 3731POPC   C2B50300  34.471  25.041   6.719
 3731POPC   C3B50301  34.454  24.866   7.136
 3731POPC   C4B50302  34.186  24.897   7.520
 3732POPC   NC350303  42.398  29.985   5.364
 3732POPC   PO450304  41.892  29.844   5.661
 3732POPC   GL150305  42.161  30.167   5.872
 3732POPC   GL250306  42.540  30.220   5.830
 3732POPC   C1A50307  42.161  30.171   6.321
 3732POPC   D2A50308  42.127  29.815   6.554
 3732POPC   C3A50309  42.119  29.921   6.953
 3732POPC   C4A50310  42.467  29.852   7.198
 3732POPC   C1B50311  42.672  30.179   6.295
 3732POPC   C2B50312  42.635  30.096   6.750
 3732POPC   C3B50313  42.733  30.269   7.183
 3732POPC   C4B50314  42.753  30.204   7.682
 3733POPC   NC350315   6.209  11.540   5.469
 3733POPC   PO450316   5.939  10.961   5.278
 3733POPC   GL150317   6.009  11.082   5.711
 3733POPC   GL250318   5.680  11.199   5.778
 3733POPC   C1A50319   6.078  11.186   6.153
 3733POPC   D2A50320   5.961  11.533   6.447
 3733POPC   C3A50321   5.988  11.512   6.856
 3733POPC   C4A50322   6.063  11.369   7.259
 3733POPC   C1B50323   5.562  11.336   6.199
 3733POPC   C2B50324   5.384  11.298   6.625
 3733POPC   C3B50325   5.577  11.256   7.007
 3733POPC   C4B50326   5.585  11.437   7.416
 3734POPC   NC350327  34.881  30.394   5.472
 3734POPC   PO450328  34.417  30.830   5.241
 3734POPC   GL150329  34.540  30.719   5.696
 3734POPC   GL250330  34.274  30.867   5.912
 3734POPC   C1A50331  34.712  30.603   6.158
 3734POPC   D2A50332  34.868  30.738   6.621
 3734POPC   C3A50333  34.694  30.521   7.041
 3734POPC   C4A50334  34.717  30.559   7.530
 3734POPC   C1B50335  34.387  30.936   6.351
 3734POPC   C2B50336  34.395  30.823   6.758
 3734POPC   C3B50337  34.296  31.041   7.105
 3734POPC   C4B50338  34.305  30.892   7.540
 3735POPC   NC350339  25.910  21.618   4.552
 3735POPC   PO450340  26.065  21.978   5.124
 3735POPC   GL150341  25.945  22.056   5.612
 3735POPC   GL250342  26.118  22.304   5.801
 3735POPC   C1A50343  25.964  21.911   6.095
 3735POPC   D2A50344  26.072  22.022   6.577
 3735POPC   C3A50345  26.023  21.906   7.053
 3735POPC   C4A50346  25.852  22.062   7.456
 3735POPC   C1B50347  25.950  22.411   6.244
 3735POPC   C2B50348  25.977  22.526   6.694
 3735POPC   C3B50349  25.931  22.426   7.119
 3735POPC   C4B50350  25.804  22.568   7.499
 3736POPC   NC350351  32.849  17.741   5.445
 3736POPC   PO450352  33.262  17.098   5.389
 3736POPC   GL150353  33.151  17.398   5.706
 3736POPC   GL250354  32.793  17.332   5.733
 3736POPC   C1A50355  33.044  17.641   6.086
 3736POPC   D2A50356  33.068  17.484   6.513
 3736POPC   C3A50357  33.261  17.587   6.897
 3736POPC   C4A50358  33.013  17.797   7.177
 3736POPC   C1B50359  32.588  17.389   6.120
 3736POPC   C2B50360  32.540  17.558   6.498
 3736POPC   C3B50361  32.656  17.488   6.903
 3736POPC   C4B50362  32.644  17.484   7.318
 3737POPC   NC350363  37.533  18.681   5.455
 3737POPC   PO450364  37.845  18.100   5.293
 3737POPC   GL150365  37.711  18.264   5.717
 3737POPC   GL250366  37.463  18.077   5.841
 3737POPC   C1A50367  37.722  18.417   6.181
 3737POPC   D2A50368  37.947  18.686   6.478
 3737POPC   C3A50369  37.930  18.502   6.871
 3737POPC   C4A50370  37.921  18.628   7.288
 3737POPC   C1B50371  37.423  18.012   6.287
 3737POPC   C2B50372  37.419  18.289   6.653
 3737POPC   C3B50373  37.488  18.329   7.077
 3737POPC   C4B50374  37.542  17.979   7.310
 3738POPC   NC350375  24.176   8.917   5.417
 3738POPC   PO450376  23.556   9.158   5.171
 3738POPC   GL150377  23.695   8.960   5.635
 3738POPC   GL250378  23.680   8.633   5.897
 3738POPC   C1A50379  23.734   9.108   6.100
 3738POPC   D2A50380  23.485   9.128   6.517
 3738POPC   C3A50381  23.522   9.198   6.987
 3738POPC   C4A50382  23.621   9.283   7.425
 3738POPC   C1B50383  23.996   8.679   6.217
 3738POPC   C2B50384  24.145   8.735   6.648
 3738POPC   C3B50385  23.945   8.833   7.026
 3738POPC   C4B50386  23.537   8.669   7.071
 3739POPC   NC350387   3.231   4.520   5.516
 3739POPC   PO450388   3.792   4.053   5.464
 3739POPC   GL150389   3.571   4.270   5.764
 3739POPC   GL250390   3.711   4.644   5.661
 3739POPC   C1A50391   3.501   4.183   6.201
 3739POPC   D2A50392   3.673   3.959   6.558
 3739POPC   C3A50393   3.526   4.189   6.890
 3739POPC   C4A50394   3.291   4.255   7.220
 3739POPC   C1B50395   3.635   4.667   6.098
 3739POPC   C2B50396   3.874   4.456   6.435
 3739POPC   C3B50397   3.869   4.571   6.870
 3739POPC   C4B50398   3.761   4.490   7.286
 3740POPC   NC350399  29.675  32.327   5.512
 3740POPC   PO450400  29.068  32.485   5.061
 3740POPC   GL150401  29.168  32.338   5.643
 3740POPC   GL250402  29.444  32.099   5.868
 3740POPC   C1A50403  29.044  32.247   6.105
 3740POPC   D2A50404  29.067  32.445   6.520
 3740POPC   C3A50405  29.011  32.133   6.832
 3740POPC   C4A50406  29.099  32.076   7.253
 3740POPC   C1B50407  29.536  32.322   6.264
 3740POPC   C2B50408  29.509  32.135   6.661
 3740POPC   C3B50409  29.562  32.288   7.072
 3740POPC   C4B50410  29.499  32.331   7.523
 3741POPC   NC350411  28.426   0.422   5.367
 3741POPC   PO450412  27.902  44.960   5.332
 3741POPC   GL150413  28.122   0.154   5.705
 3741POPC   GL250414  28.494   0.106   5.767
 3741POPC   C1A50415  28.190   0.370   6.122
 3741POPC   D2A50416  27.856   0.488   6.450
 3741POPC   C3A50417  28.061   0.620   6.853
 3741POPC   C4A50418  28.148   0.374   7.204
 3741POPC   C1B50419  28.747   0.398   6.042
 3741POPC   C2B50420  28.664   0.562   6.458
 3741POPC   C3B50421  28.735   0.492   6.880
 3741POPC   C4B50422  28.630   0.231   7.215
 3742POPC   NC350423  44.238  25.965   5.482
 3742POPC   PO450424  43.669  26.331   5.541
 3742POPC   GL150425  43.956  26.221   5.833
 3742POPC   GL250426  43.739  25.912   5.826
 3742POPC   C1A50427  44.059  26.433   6.253
 3742POPC   D2A50428  43.810  26.422   6.669
 3742POPC   C3A50429  44.050  26.415   7.046
 3742POPC   C4A50430  44.140  26.244   7.450
 3742POPC   C1B50431  43.670  26.125   6.233
 3742POPC   C2B50432  43.947  25.967   6.534
 3742POPC   C3B50433  43.886  25.919   6.958
 3742POPC   C4B50434  43.943  25.804   7.368
 3743POPC   NC350435  20.756  34.888   5.305
 3743POPC   PO450436  20.815  34.250   5.419
 3743POPC   GL150437  20.734  34.601   5.750
 3743POPC   GL250438  20.648  34.982   5.785
 3743POPC   C1A50439  20.518  34.567   6.141
 3743POPC   D2A50440  20.485  34.202   6.434
 3743POPC   C3A50441  20.407  34.306   6.859
 3743POPC   C4A50442  20.492  34.473   7.250
 3743POPC   C1B50443  20.857  34.945   6.164
 3743POPC   C2B50444  20.900  34.604   6.481
 3743POPC   C3B50445  20.834  34.608   6.897
 3743POPC   C4B50446  20.819  34.965   7.156
 3744POPC   NC350447  29.290  38.917   5.421
 3744POPC   PO450448  29.393  39.502   5.457
 3744POPC   GL150449  29.360  39.197   5.827
 3744POPC   GL250450  29.051  39.025   5.919
 3744POPC   C1A50451  29.350  39.316   6.245
 3744POPC   D2A50452  29.222  39.558   6.604
 3744POPC   C3A50453  29.433  39.503   6.981
 3744POPC   C4A50454  29.323  39.138   7.130
 3744POPC   C1B50455  28.928  39.057   6.405
 3744POPC   C2B50456  28.877  39.072   6.884
 3744POPC   C3B50457  28.841  39.128   7.359
 3744POPC   C4B50458  28.815  39.026   7.801
 3745POPC   NC350459  39.500  37.223   4.960
 3745POPC   PO450460  39.175  37.585   5.452
 3745POPC   GL150461  39.149  37.567   5.894
 3745POPC   GL250462  39.067  37.189   5.880
 3745POPC   C1A50463  39.144  37.953   6.201
 3745POPC   D2A50464  39.259  38.180   6.623
 3745POPC   C3A50465  39.469  37.888   6.925
 3745POPC   C4A50466  39.414  37.624   7.297
 3745POPC   C1B50467  39.180  37.234   6.317
 3745POPC   C2B50468  39.192  37.582   6.600
 3745POPC   C3B50469  39.024  37.561   6.990
 3745POPC   C4B50470  38.805  37.363   7.322
 3746POPC   NC350471   5.435  33.694   5.488
 3746POPC   PO450472   4.764  33.650   5.553
 3746POPC   GL150473   5.097  33.579   5.870
 3746POPC   GL250474   5.224  33.919   5.894
 3746POPC   C1A50475   5.090  33.581   6.335
 3746POPC   D2A50476   4.755  33.547   6.675
 3746POPC   C3A50477   4.925  33.624   7.072
 3746POPC   C4A50478   4.910  33.913   7.408
 3746POPC   C1B50479   5.255  34.106   6.284
 3746POPC   C2B50480   5.278  34.110   6.716
 3746POPC   C3B50481   5.339  33.935   7.113
 3746POPC   C4B50482   5.431  33.989   7.542
 3747POPC   NC350483  18.631  31.549   5.161
 3747POPC   PO450484  19.193  31.268   5.519
 3747POPC   GL150485  19.079  31.320   5.910
 3747POPC   GL250486  19.180  31.658   5.861
 3747POPC   C1A50487  19.072  31.479   6.325
 3747POPC   D2A50488  18.886  31.675   6.641
 3747POPC   C3A50489  19.060  31.567   7.028
 3747POPC   C4A50490  19.058  31.522   7.450
 3747POPC   C1B50491  19.472  31.735   6.160
 3747POPC   C2B50492  19.360  31.845   6.559
 3747POPC   C3B50493  19.491  31.814   6.980
 3747POPC   C4B50494  19.503  31.889   7.420
 3748POPC   NC350495  23.044  33.597   5.587
 3748POPC   PO450496  22.707  34.151   5.337
 3748POPC   GL150497  22.733  33.959   5.740
 3748POPC   GL250498  23.060  34.043   5.840
 3748POPC   C1A50499  22.774  33.756   6.149
 3748POPC   D2A50500  22.932  33.828   6.547
 3748POPC   C3A50501  22.885  33.557   6.901
 3748POPC   C4A50502  22.697  33.544   7.306
 3748POPC   C1B50503  23.311  33.924   6.193
 3748POPC   C2B50504  23.390  34.040   6.604
 3748POPC   C3B50505  23.164  33.980   6.979
 3748POPC   C4B50506  23.228  33.637   7.256
 3749POPC   NC350507  17.305  31.110   5.512
 3749POPC   PO450508  17.396  31.790   5.608
 3749POPC   GL150509  17.532  31.432   5.884
 3749POPC   GL250510  17.276  31.183   6.015
 3749POPC   C1A50511  17.659  31.439   6.327
 3749POPC   D2A50512  17.568  31.262   6.721
 3749POPC   C3A50513  17.602  31.447   7.134
 3749POPC   C4A50514  17.711  31.695   7.498
 3749POPC   C1B50515  17.186  31.556   6.246
 3749POPC   C2B50516  17.051  31.558   6.639
 3749POPC   C3B50517  17.112  31.487   7.035
 3749POPC   C4B50518  17.282  31.860   7.240
 3750POPC   NC350519  37.574  31.961   5.580
 3750POPC   PO450520  37.701  31.450   5.141
 3750POPC   GL150521  37.670  31.450   5.597
 3750POPC   GL250522  37.537  31.152   5.700
 3750POPC   C1A50523  37.869  31.582   6.022
 3750POPC   D2A50524  37.963  31.594   6.477
 3750POPC   C3A50525  37.738  31.663   6.877
 3750POPC   C4A50526  37.751  31.454   7.289
 3750POPC   C1B50527  37.408  31.310   6.103
 3750POPC   C2B50528  37.439  31.410   6.532
 3750POPC   C3B50529  37.589  31.162   6.866
 3750POPC   C4B50530  37.490  31.036   7.272
 3751POPC   NC350531  14.231  16.050   5.593
 3751POPC   PO450532  14.389  15.409   5.458
 3751POPC   GL150533  14.299  15.625   5.857
 3751POPC   GL250534  14.557  15.868   5.943
 3751POPC   C1A50535  14.106  15.823   6.234
 3751POPC   D2A50536  14.142  16.042   6.642
 3751POPC   C3A50537  14.098  15.758   6.978
 3751POPC   C4A50538  14.417  15.773   7.275
 3751POPC   C1B50539  14.591  16.046   6.383
 3751POPC   C2B50540  14.624  16.044   6.865
 3751POPC   C3B50541  14.894  15.936   7.227
 3751POPC   C4B50542  14.843  15.840   7.667
 3752POPC   NC350543  11.665  44.157   5.560
 3752POPC   PO450544  11.940  43.548   5.363
 3752POPC   GL150545  11.957  43.794   5.775
 3752POPC   GL250546  12.240  43.995   5.738
 3752POPC   C1A50547  11.776  43.980   6.198
 3752POPC   D2A50548  11.837  44.195   6.609
 3752POPC   C3A50549  11.745  43.992   6.965
 3752POPC   C4A50550  11.764  43.852   7.342
 3752POPC   C1B50551  12.302  43.871   6.183
 3752POPC   C2B50552  12.324  44.082   6.587
 3752POPC   C3B50553  12.258  44.040   7.031
 3752POPC   C4B50554  12.555  43.714   7.179
 3753POPC   NC350555  38.094  42.472   5.493
 3753POPC   PO450556  38.691  42.287   5.359
 3753POPC   GL150557  38.517  42.442   5.762
 3753POPC   GL250558  38.382  42.169   5.973
 3753POPC   C1A50559  38.375  42.653   6.142
 3753POPC   D2A50560  38.504  42.418   6.505
 3753POPC   C3A50561  38.256  42.311   6.868
 3753POPC   C4A50562  38.442  42.359   7.274
 3753POPC   C1B50563  38.763  42.060   6.218
 3753POPC   C2B50564  38.828  41.962   6.666
 3753POPC   C3B50565  38.720  41.961   7.099
 3753POPC   C4B50566  38.631  41.979   7.578
 3754POPC   NC350567  44.127  15.142   5.504
 3754POPC   PO450568  43.480  14.987   5.400
 3754POPC   GL150569  43.715  15.043   5.793
 3754POPC   GL250570  43.790  15.388   5.796
 3754POPC   C1A50571  43.872  14.968   6.214
 3754POPC   D2A50572  43.841  15.160   6.616
 3754POPC   C3A50573  43.809  14.982   7.034
 3754POPC   C4A50574  43.947  15.204   7.393
 3754POPC   C1B50575  44.075  15.459   6.137
 3754POPC   C2B50576  44.201  15.504   6.584
 3754POPC   C3B50577  44.000  15.504   6.963
 3754POPC   C4B50578  44.119  15.673   7.332
 3755POPC   NC350579   6.366  40.822   5.359
 3755POPC   PO450580   6.943  40.622   5.135
 3755POPC   GL150581   6.772  40.714   5.625
 3755POPC   GL250582   6.439  40.660   5.820
 3755POPC   C1A50583   6.853  40.852   6.085
 3755POPC   D2A50584   6.896  40.979   6.519
 3755POPC   C3A50585   6.846  40.672   6.813
 3755POPC   C4A50586   6.794  40.679   7.242
 3755POPC   C1B50587   6.361  40.969   6.126
 3755POPC   C2B50588   6.414  40.802   6.519
 3755POPC   C3B50589   6.384  40.922   6.930
 3755POPC   C4B50590   6.268  40.697   7.283
 3756POPC   NC350591  19.132  40.896   5.275
 3756POPC   PO450592  19.090  40.354   5.649
 3756POPC   GL150593  19.070  40.777   5.795
 3756POPC   GL250594  19.339  41.000   5.735
 3756POPC   C1A50595  19.007  40.883   6.239
 3756POPC   D2A50596  19.175  40.713   6.638
 3756POPC   C3A50597  19.032  40.935   7.006
 3756POPC   C4A50598  18.946  40.826   7.474
 3756POPC   C1B50599  19.383  41.207   6.133
 3756POPC   C2B50600  19.250  41.229   6.584
 3756POPC   C3B50601  19.346  41.346   7.029
 3756POPC   C4B50602  19.400  41.022   7.340
 3757POPC   NC350603  38.706   1.167   5.089
 3757POPC   PO450604  38.470   0.713   5.574
 3757POPC   GL150605  38.474   1.016   5.931
 3757POPC   GL250606  38.291   1.363   5.886
 3757POPC   C1A50607  38.575   0.958   6.377
 3757POPC   D2A50608  38.782   0.907   6.761
 3757POPC   C3A50609  38.478   0.900   7.103
 3757POPC   C4A50610  38.310   0.971   7.519
 3757POPC   C1B50611  38.241   1.355   6.323
 3757POPC   C2B50612  38.268   1.200   6.734
 3757POPC   C3B50613  38.086   1.237   7.144
 3757POPC   C4B50614  38.196   1.493   7.524
 3758POPC   NC350615   8.687  23.150   5.460
 3758POPC   PO450616   9.269  22.842   5.472
 3758POPC   GL150617   8.998  22.933   5.842
 3758POPC   GL250618   8.763  22.670   5.915
 3758POPC   C1A50619   9.108  22.802   6.280
 3758POPC   D2A50620   9.219  22.784   6.713
 3758POPC   C3A50621   9.090  23.193   6.914
 3758POPC   C4A50622   8.698  23.252   7.163
 3758POPC   C1B50623   8.597  22.885   6.232
 3758POPC   C2B50624   8.713  22.992   6.611
 3758POPC   C3B50625   8.767  22.791   6.963
 3758POPC   C4B50626   8.507  22.723   7.247
 3759POPC   NC350627  24.999   2.296   5.368
 3759POPC   PO450628  25.310   1.797   5.341
 3759POPC   GL150629  25.177   1.878   5.776
 3759POPC   GL250630  25.270   2.224   5.800
 3759POPC   C1A50631  25.083   1.816   6.234
 3759POPC   D2A50632  24.781   1.841   6.588
 3759POPC   C3A50633  24.962   2.080   6.921
 3759POPC   C4A50634  25.287   1.974   7.156
 3759POPC   C1B50635  25.336   2.308   6.226
 3759POPC   C2B50636  25.389   2.102   6.625
 3759POPC   C3B50637  25.668   2.218   6.976
 3759POPC   C4B50638  25.562   2.270   7.439
 3760POPC   NC350639  39.416   4.554   5.472
 3760POPC   PO450640  38.945   4.053   5.496
 3760POPC   GL150641  39.102   4.303   5.814
 3760POPC   GL250642  38.899   4.576   5.942
 3760POPC   C1A50643  39.371   4.244   6.165
 3760POPC   D2A50644  39.310   4.068   6.585
 3760POPC   C3A50645  39.312   4.339   6.953
 3760POPC   C4A50646  39.642   4.591   7.099
 3760POPC   C1B50647  38.856   4.266   6.298
 3760POPC   C2B50648  38.837   4.148   6.755
 3760POPC   C3B50649  38.826   4.376   7.150
 3760POPC   C4B50650  38.902   4.494   7.617
 3761POPC   NC350651   5.185  13.676   5.488
 3761POPC   PO450652   4.902  14.139   5.833
 3761POPC   GL150653   5.326  13.920   5.926
 3761POPC   GL250654   5.289  13.538   5.968
 3761POPC   C1A50655   5.534  13.785   6.323
 3761POPC   D2A50656   5.294  13.469   6.562
 3761POPC   C3A50657   5.295  13.520   6.993
 3761POPC   C4A50658   5.037  13.783   7.266
 3761POPC   C1B50659   4.906  13.411   6.235
 3761POPC   C2B50660   4.797  13.288   6.683
 3761POPC   C3B50661   4.814  13.345   7.133
 3761POPC   C4B50662   4.733  13.173   7.547
 3762POPC   NC350663  31.937   0.259   5.122
 3762POPC   PO450664  32.509   0.527   5.358
 3762POPC   GL150665  32.382   0.596   5.786
 3762POPC   GL250666  32.120   0.811   5.752
 3762POPC   C1A50667  32.302   0.378   6.211
 3762POPC   D2A50668  32.111   0.069   6.549
 3762POPC   C3A50669  32.195   0.285   6.942
 3762POPC   C4A50670  32.353   0.623   7.173
 3762POPC   C1B50671  31.925   0.766   6.154
 3762POPC   C2B50672  31.951   0.554   6.547
 3762POPC   C3B50673  31.885   0.703   6.953
 3762POPC   C4B50674  31.847   0.517   7.309
 3763POPC   NC350675  34.946  14.608   5.544
 3763POPC   PO450676  35.409  14.206   5.410
 3763POPC   GL150677  35.410  14.518   5.708
 3763POPC   GL250678  35.387  14.274   5.957
 3763POPC   C1A50679  35.485  14.744   6.103
 3763POPC   D2A50680  35.409  14.514   6.496
 3763POPC   C3A50681  35.486  14.688   6.893
 3763POPC   C4A50682  35.397  14.489   7.300
 3763POPC   C1B50683  35.124  14.041   6.239
 3763POPC   C2B50684  34.999  14.044   6.619
 3763POPC   C3B50685  35.149  14.249   6.934
 3763POPC   C4B50686  34.985  14.096   7.306
 3764POPC   NC350687  27.451  43.715   5.304
 3764POPC   PO450688  26.930  44.192   5.393
 3764POPC   GL150689  26.823  44.004   5.776
 3764POPC   GL250690  26.969  43.689   5.734
 3764POPC   C1A50691  26.831  43.865   6.212
 3764POPC   D2A50692  27.010  44.029   6.577
 3764POPC   C3A50693  26.832  43.827   6.892
 3764POPC   C4A50694  26.795  43.937   7.306
 3764POPC   C1B50695  27.163  43.508   6.090
 3764POPC   C2B50696  27.018  43.477   6.540
 3764POPC   C3B50697  27.109  43.408   7.024
 3764POPC   C4B50698  26.929  43.465   7.461
 3765POPC   NC350699   2.041   5.729   5.061
 3765POPC   PO450700   2.231   6.307   5.443
 3765POPC   GL150701   2.122   5.950   5.720
 3765POPC   GL250702   2.044   6.218   5.924
 3765POPC   C1A50703   1.927   5.767   6.131
 3765POPC   D2A50704   1.732   5.889   6.561
 3765POPC   C3A50705   1.872   5.698   6.962
 3765POPC   C4A50706   1.734   5.772   7.423
 3765POPC   C1B50707   2.335   6.062   6.198
 3765POPC   C2B50708   2.138   6.236   6.536
 3765POPC   C3B50709   2.067   6.182   6.940
 3765POPC   C4B50710   2.202   5.909   7.279
 3766POPC   NC350711  32.808  33.259   5.418
 3766POPC   PO450712  33.313  32.802   5.399
 3766POPC   GL150713  33.029  32.932   5.760
 3766POPC   GL250714  33.124  33.262   5.889
 3766POPC   C1A50715  32.800  33.017   6.199
 3766POPC   D2A50716  32.604  33.144   6.627
 3766POPC   C3A50717  32.666  32.869   7.025
 3766POPC   C4A50718  33.063  32.715   7.276
 3766POPC   C1B50719  33.151  33.376   6.336
 3766POPC   C2B50720  33.304  33.380   6.769
 3766POPC   C3B50721  33.040  33.214   7.070
 3766POPC   C4B50722  32.616  33.385   7.130
 3767POPC   NC350723  37.918  35.611   5.444
 3767POPC   PO450724  37.753  34.962   5.370
 3767POPC   GL150725  37.691  35.222   5.727
 3767POPC   GL250726  38.038  35.245   5.831
 3767POPC   C1A50727  37.712  35.422   6.140
 3767POPC   D2A50728  37.978  35.290   6.456
 3767POPC   C3A50729  37.768  35.239   6.808
 3767POPC   C4A50730  37.650  35.367   7.191
 3767POPC   C1B50731  38.201  35.600   6.080
 3767POPC   C2B50732  38.276  35.714   6.489
 3767POPC   C3B50733  38.089  35.623   6.868
 3767POPC   C4B50734  37.955  35.864   7.206
 3768POPC   NC350735  10.199  23.846   5.171
 3768POPC   PO450736   9.621  23.777   5.522
 3768POPC   GL150737   9.755  23.700   5.918
 3768POPC   GL250738   9.829  23.383   5.831
 3768POPC   C1A50739   9.971  23.805   6.307
 3768POPC   D2A50740   9.954  23.977   6.724
 3768POPC   C3A50741   9.713  23.758   7.059
 3768POPC   C4A50742   9.738  24.006   7.460
 3768POPC   C1B50743  10.035  23.300   6.179
 3768POPC   C2B50744  10.170  23.358   6.619
 3768POPC   C3B50745  10.071  23.320   7.061
 3768POPC   C4B50746   9.944  23.476   7.428
 3769POPC   NC350747  34.067  24.311   5.375
 3769POPC   PO450748  34.513  23.812   5.448
 3769POPC   GL150749  34.634  23.763   5.883
 3769POPC   GL250750  34.469  23.469   5.995
 3769POPC   C1A50751  34.570  23.873   6.346
 3769POPC   D2A50752  34.535  24.109   6.752
 3769POPC   C3A50753  34.560  23.871   7.123
 3769POPC   C4A50754  34.328  23.876   7.532
 3769POPC   C1B50755  34.843  23.445   6.281
 3769POPC   C2B50756  34.891  23.611   6.717
 3769POPC   C3B50757  34.781  23.406   7.097
 3769POPC   C4B50758  34.346  23.424   7.267
 3770POPC   NC350759  25.935   6.371   5.642
 3770POPC   PO450760  26.270   5.790   5.494
 3770POPC   GL150761  26.036   5.732   5.866
 3770POPC   GL250762  25.741   5.908   5.788
 3770POPC   C1A50763  26.204   5.710   6.277
 3770POPC   D2A50764  26.304   6.010   6.602
 3770POPC   C3A50765  26.241   5.822   6.987
 3770POPC   C4A50766  26.400   5.930   7.355
 3770POPC   C1B50767  25.677   5.817   6.241
 3770POPC   C2B50768  25.584   6.029   6.640
 3770POPC   C3B50769  25.798   6.042   7.013
 3770POPC   C4B50770  25.691   6.158   7.381
 3771POPC   NC350771  31.479  31.773   5.412
 3771POPC   PO450772  31.323  31.067   5.396
 3771POPC   GL150773  31.329  31.374   5.734
 3771POPC   GL250774  31.671  31.546   5.803
 3771POPC   C1A50775  31.474  31.262   6.151
 3771POPC   D2A50776  31.595  31.362   6.533
 3771POPC   C3A50777  31.296  31.428   6.827
 3771POPC   C4A50778  31.301  31.446   7.247
 3771POPC   C1B50779  31.748  31.753   6.181
 3771POPC   C2B50780  31.570  31.877   6.583
 3771POPC   C3B50781  31.726  31.669   6.950
 3771POPC   C4B50782  31.661  31.784   7.360
 3772POPC   NC350783  28.860  41.732   5.088
 3772POPC   PO450784  28.502  41.954   5.650
 3772POPC   GL150785  28.216  41.917   6.008
 3772POPC   GL250786  28.500  41.869   6.167
 3772POPC   C1A50787  28.076  41.926   6.448
 3772POPC   D2A50788  28.191  41.966   6.902
 3772POPC   C3A50789  28.339  41.612   7.175
 3772POPC   C4A50790  28.258  41.266   7.502
 3772POPC   C1B50791  28.779  41.489   6.154
 3772POPC   C2B50792  28.927  41.322   6.549
 3772POPC   C3B50793  28.780  41.391   6.973
 3772POPC   C4B50794  28.758  41.266   7.419
 3773POPC   NC350795   9.885   5.073   5.262
 3773POPC   PO450796   9.280   5.153   5.555
 3773POPC   GL150797   9.673   4.969   5.725
 3773POPC   GL250798   9.943   5.236   5.786
 3773POPC   C1A50799   9.801   4.829   6.125
 3773POPC   D2A50800   9.928   4.881   6.567
 3773POPC   C3A50801   9.559   4.873   6.843
 3773POPC   C4A50802   9.504   4.829   7.285
 3773POPC   C1B50803   9.809   5.332   6.256
 3773POPC   C2B50804   9.820   5.369   6.746
 3773POPC   C3B50805   9.804   5.216   7.196
 3773POPC   C4B50806   9.901   5.246   7.654
 3774POPC   NC350807  29.955  17.966   5.220
 3774POPC   PO450808  29.791  18.564   5.331
 3774POPC   GL150809  29.804  18.265   5.661
 3774POPC   GL250810  29.780  17.948   5.782
 3774POPC   C1A50811  29.734  18.368   6.097
 3774POPC   D2A50812  29.926  18.425   6.478
 3774POPC   C3A50813  29.784  18.375   6.885
 3774POPC   C4A50814  29.898  18.500   7.289
 3774POPC   C1B50815  30.051  17.969   6.201
 3774POPC   C2B50816  30.138  17.999   6.677
 3774POPC   C3B50817  30.124  18.041   7.142
 3774POPC   C4B50818  30.187  17.917   7.590
 3775POPC   NC350819  14.506  30.326   5.442
 3775POPC   PO450820  14.388  31.003   5.313
 3775POPC   GL150821  14.295  30.753   5.681
 3775POPC   GL250822  14.663  30.717   5.769
 3775POPC   C1A50823  14.207  30.658   6.136
 3775POPC   D2A50824  14.417  30.629   6.563
 3775POPC   C3A50825  14.168  30.673   6.949
 3775POPC   C4A50826  14.070  30.413   7.310
 3775POPC   C1B50827  14.661  30.928   6.184
 3775POPC   C2B50828  14.874  30.935   6.607
 3775POPC   C3B50829  14.666  30.889   7.009
 3775POPC   C4B50830  14.574  30.529   7.244
 3776POPC   NC350831  42.694  24.203   5.321
 3776POPC   PO450832  42.792  24.830   5.514
 3776POPC   GL150833  42.532  24.517   5.744
 3776POPC   GL250834  42.198  24.637   5.851
 3776POPC   C1A50835  42.453  24.304   6.158
 3776POPC   D2A50836  42.651  24.411   6.555
 3776POPC   C3A50837  42.429  24.368   6.964
 3776POPC   C4A50838  42.606  24.308   7.377
 3776POPC   C1B50839  42.013  24.909   6.207
 3776POPC   C2B50840  41.931  25.040   6.640
 3776POPC   C3B50841  42.082  24.826   7.034
 3776POPC   C4B50842  41.998  24.851   7.501
 3777POPC   NC350843  17.472  13.021   5.585
 3777POPC   PO450844  17.722  12.526   5.149
 3777POPC   GL150845  17.459  12.510   5.614
 3777POPC   GL250846  17.669  12.686   5.913
 3777POPC   C1A50847  17.212  12.604   6.068
 3777POPC   D2A50848  17.569  12.607   6.425
 3777POPC   C3A50849  17.459  12.719   6.845
 3777POPC   C4A50850  17.629  12.867   7.210
 3777POPC   C1B50851  17.443  13.043   6.223
 3777POPC   C2B50852  17.209  13.131   6.632
 3777POPC   C3B50853  17.311  13.233   7.083
 3777POPC   C4B50854  17.570  13.361   7.435
 3778POPC   NC350855   6.693  19.144   5.577
 3778POPC   PO450856   6.226  19.720   5.643
 3778POPC   GL150857   6.390  19.335   5.958
 3778POPC   GL250858   6.794  19.268   6.056
 3778POPC   C1A50859   6.448  19.289   6.422
 3778POPC   D2A50860   6.455  18.986   6.739
 3778POPC   C3A50861   6.724  19.051   7.071
 3778POPC   C4A50862   6.618  19.281   7.406
 3778POPC   C1B50863   6.697  18.862   6.297
 3778POPC   C2B50864   6.807  18.626   6.676
 3778POPC   C3B50865   6.767  18.538   7.104
 3778POPC   C4B50866   6.755  18.725   7.531
 3779POPC   NC350867  28.644  11.463   5.239
 3779POPC   PO450868  28.111  11.337   5.287
 3779POPC   GL150869  28.414  11.322   5.688
 3779POPC   GL250870  28.515  11.014   5.863
 3779POPC   C1A50871  28.584  11.440   6.150
 3779POPC   D2A50872  28.691  11.388   6.639
 3779POPC   C3A50873  28.485  11.585   7.068
 3779POPC   C4A50874  28.313  11.674   7.542
 3779POPC   C1B50875  28.600  10.958   6.341
 3779POPC   C2B50876  28.453  10.940   6.794
 3779POPC   C3B50877  28.357  11.104   7.210
 3779POPC   C4B50878  28.566  10.944   7.568
 3780POPC   NC350879  44.739  27.672   5.287
 3780POPC   PO450880  44.353  27.175   5.468
 3780POPC   GL150881  44.621  27.469   5.755
 3780POPC   GL250882  44.931  27.670   5.789
 3780POPC   C1A50883  44.583  27.644   6.164
 3780POPC   D2A50884  44.356  27.512   6.522
 3780POPC   C3A50885  44.608  27.498   6.893
 3780POPC   C4A50886  44.451  27.548   7.281
 3780POPC   C1B50887   0.132  27.690   6.200
 3780POPC   C2B50888   0.068  27.620   6.663
 3780POPC   C3B50889   0.063  27.640   7.116
 3780POPC   C4B50890   0.276  27.769   7.514
 3781POPC   NC350891  17.897  24.019   5.632
 3781POPC   PO450892  17.506  24.341   5.132
 3781POPC   GL150893  17.518  24.471   5.598
 3781POPC   GL250894  17.488  24.840   5.660
 3781POPC   C1A50895  17.547  24.445   6.079
 3781POPC   D2A50896  17.432  24.546   6.536
 3781POPC   C3A50897  17.630  24.432   6.982
 3781POPC   C4A50898  17.535  24.316   7.470
 3781POPC   C1B50899  17.457  24.954   6.116
 3781POPC   C2B50900  17.516  25.051   6.560
 3781POPC   C3B50901  17.285  24.878   6.903
 3781POPC   C4B50902  17.434  24.779   7.304
 3782POPC   NC350903  22.052  35.695   5.596
 3782POPC   PO450904  22.479  35.104   5.404
 3782POPC   GL150905  22.463  35.139   5.864
 3782POPC   GL250906  22.354  35.472   5.941
 3782POPC   C1A50907  22.265  35.100   6.291
 3782POPC   D2A50908  22.190  35.030   6.728
 3782POPC   C3A50909  22.346  35.278   7.034
 3782POPC   C4A50910  22.138  35.382   7.395
 3782POPC   C1B50911  22.105  35.651   6.313
 3782POPC   C2B50912  22.020  35.556   6.761
 3782POPC   C3B50913  21.931  35.766   7.162
 3782POPC   C4B50914  21.813  35.720   7.632
 3783POPC   NC350915  43.714  28.855   5.592
 3783POPC   PO450916  43.345  29.375   5.387
 3783POPC   GL150917  43.645  29.357   5.769
 3783POPC   GL250918  43.987  29.352   5.855
 3783POPC   C1A50919  43.586  29.270   6.221
 3783POPC   D2A50920  43.632  29.117   6.650
 3783POPC   C3A50921  43.617  29.246   7.106
 3783POPC   C4A50922  43.756  28.933   7.412
 3783POPC   C1B50923  44.027  29.016   6.177
 3783POPC   C2B50924  44.071  28.823   6.568
 3783POPC   C3B50925  44.024  28.966   6.964
 3783POPC   C4B50926  44.246  29.070   7.292
 3784POPC   NC350927  36.748  16.323   5.531
 3784POPC   PO450928  37.086  16.807   5.158
 3784POPC   GL150929  37.026  16.779   5.625
 3784POPC   GL250930  36.670  16.802   5.721
 3784POPC   C1A50931  37.052  16.647   6.089
 3784POPC   D2A50932  36.864  16.595   6.513
 3784POPC   C3A50933  37.039  16.700   6.904
 3784POPC   C4A50934  37.247  16.488   7.236
 3784POPC   C1B50935  36.571  16.886   6.165
 3784POPC   C2B50936  36.653  17.058   6.595
 3784POPC   C3B50937  36.550  16.939   7.022
 3784POPC   C4B50938  36.732  16.686   7.339
 3785POPC   NC350939   8.534  31.400   5.363
 3785POPC   PO450940   7.939  31.749   5.330
 3785POPC   GL150941   8.177  31.554   5.674
 3785POPC   GL250942   8.441  31.765   5.759
 3785POPC   C1A50943   8.306  31.345   6.068
 3785POPC   D2A50944   8.261  31.552   6.462
 3785POPC   C3A50945   8.218  31.335   6.849
 3785POPC   C4A50946   8.395  31.435   7.226
 3785POPC   C1B50947   8.061  31.835   6.069
 3785POPC   C2B50948   7.904  31.947   6.510
 3785POPC   C3B50949   8.107  31.834   6.903
 3785POPC   C4B50950   7.984  31.775   7.353
 3786POPC   NC350951   9.300   3.798   5.272
 3786POPC   PO450952   8.569   3.679   5.376
 3786POPC   GL150953   8.947   3.622   5.669
 3786POPC   GL250954   9.158   3.335   5.749
 3786POPC   C1A50955   9.055   3.669   6.136
 3786POPC   D2A50956   8.910   3.515   6.536
 3786POPC   C3A50957   9.003   3.748   6.882
 3786POPC   C4A50958   9.277   3.732   7.205
 3786POPC   C1B50959   9.113   3.167   6.179
 3786POPC   C2B50960   9.287   3.133   6.583
 3786POPC   C3B50961   9.157   3.260   6.988
 3786POPC   C4B50962   9.290   3.253   7.416
 3787POPC   NC350963  40.729   6.600   5.343
 3787POPC   PO450964  40.801   7.297   5.564
 3787POPC   GL150965  40.656   6.876   5.796
 3787POPC   GL250966  40.439   6.528   5.788
 3787POPC   C1A50967  40.824   6.619   6.152
 3787POPC   D2A50968  40.844   6.512   6.603
 3787POPC   C3A50969  40.757   6.851   6.894
 3787POPC   C4A50970  41.100   6.935   7.171
 3787POPC   C1B50971  40.369   6.406   6.266
 3787POPC   C2B50972  40.359   6.461   6.733
 3787POPC   C3B50973  40.530   6.473   7.175
 3787POPC   C4B50974  40.513   6.351   7.631
 3788POPC   NC350975  22.029  42.887   5.435
 3788POPC   PO450976  22.443  43.335   5.430
 3788POPC   GL150977  22.244  43.194   5.788
 3788POPC   GL250978  22.407  42.853   5.831
 3788POPC   C1A50979  22.037  43.341   6.181
 3788POPC   D2A50980  22.152  43.547   6.589
 3788POPC   C3A50981  21.940  43.501   6.990
 3788POPC   C4A50982  21.845  43.184   7.295
 3788POPC   C1B50983  22.143  42.823   6.176
 3788POPC   C2B50984  21.874  42.697   6.513
 3788POPC   C3B50985  22.024  42.853   6.913
 3788POPC   C4B50986  22.022  42.674   7.296
 3789POPC   NC350987  21.465   0.047   5.606
 3789POPC   PO450988  21.247  44.474   5.356
 3789POPC   GL150989  21.412  44.578   5.781
 3789POPC   GL250990  21.684  44.392   5.885
 3789POPC   C1A50991  21.456  44.784   6.211
 3789POPC   D2A50992  21.445   0.030   6.603
 3789POPC   C3A50993  21.350  44.836   7.047
 3789POPC   C4A50994  21.604  44.760   7.480
 3789POPC   C1B50995  21.855  44.486   6.303
 3789POPC   C2B50996  21.764  44.366   6.742
 3789POPC   C3B50997  21.607  44.367   7.178
 3789POPC   C4B50998  21.716  44.267   7.630
 3790POPC   NC350999  30.293   2.221   5.457
 3790POPC   PO451000  30.795   1.738   5.343
 3790POPC   GL151001  30.718   1.839   5.790
 3790POPC   GL251002  30.466   2.057   5.886
 3790POPC   C1A51003  30.682   1.806   6.256
 3790POPC   D2A51004  30.645   2.029   6.633
 3790POPC   C3A51005  30.533   1.761   6.923
 3790POPC   C4A51006  30.786   1.636   7.258
 3790POPC   C1B51007  30.244   2.190   6.239
 3790POPC   C2B51008  30.134   2.172   6.640
 3790POPC   C3B51009  30.311   2.260   7.011
 3790POPC   C4B51010  30.678   2.150   7.200
 3791POPC   NC351011  30.569   9.766   5.360
 3791POPC   PO451012  31.170  10.181   5.307
 3791POPC   GL151013  30.842  10.050   5.651
 3791POPC   GL251014  30.905   9.695   5.744
 3791POPC   C1A51015  30.538   9.932   6.017
 3791POPC   D2A51016  30.605   9.850   6.449
 3791POPC   C3A51017  30.368   9.670   6.780
 3791POPC   C4A51018  30.533   9.755   7.184
 3791POPC   C1B51019  30.971   9.547   6.177
 3791POPC   C2B51020  30.823   9.388   6.557
 3791POPC   C3B51021  30.921   9.569   6.930
 3791POPC   C4B51022  30.916   9.440   7.342
 3792POPC   NC351023  23.787  17.088   5.419
 3792POPC   PO451024  23.304  16.520   5.461
 3792POPC   GL151025  23.528  16.536   5.824
 3792POPC   GL251026  23.646  16.830   5.837
 3792POPC   C1A51027  23.473  16.626   6.276
 3792POPC   D2A51028  23.716  16.800   6.661
 3792POPC   C3A51029  23.643  16.564   7.041
 3792POPC   C4A51030  23.197  16.558   7.116
 3792POPC   C1B51031  23.951  16.696   6.203
 3792POPC   C2B51032  24.126  16.485   6.582
 3792POPC   C3B51033  24.181  16.678   7.011
 3792POPC   C4B51034  24.009  16.995   7.307
 3793POPC   NC351035   7.683  36.522   5.454
 3793POPC   PO451036   7.315  37.146   5.379
 3793POPC   GL151037   7.438  36.886   5.749
 3793POPC   GL251038   7.257  36.575   5.817
 3793POPC   C1A51039   7.670  36.880   6.151
 3793POPC   D2A51040   7.670  37.087   6.563
 3793POPC   C3A51041   7.455  37.059   6.957
 3793POPC   C4A51042   7.706  37.074   7.340
 3793POPC   C1B51043   7.434  36.416   6.191
 3793POPC   C2B51044   7.772  36.487   6.495
 3793POPC   C3B51045   7.778  36.667   6.890
 3793POPC   C4B51046   7.536  36.584   7.263
 3794POPC   NC351047  43.917   1.314   5.379
 3794POPC   PO451048  43.701   0.656   5.505
 3794POPC   GL151049  44.010   0.885   5.828
 3794POPC   GL251050  44.020   1.262   5.869
 3794POPC   C1A51051  44.068   1.011   6.301
 3794POPC   D2A51052  43.907   1.197   6.697
 3794POPC   C3A51053  43.847   0.969   7.114
 3794POPC   C4A51054  44.108   0.922   7.491
 3794POPC   C1B51055  44.300   1.457   6.175
 3794POPC   C2B51056  44.305   1.538   6.614
 3794POPC   C3B51057  43.967   1.685   6.886
 3794POPC   C4B51058  44.000   1.846   7.287
 3795POPC   NC351059  33.465  10.756   5.437
 3795POPC   PO451060  34.156  10.435   5.543
 3795POPC   GL151061  33.794  10.526   5.781
 3795POPC   GL251062  33.811  10.882   5.788
 3795POPC   C1A51063  33.641  10.606   6.195
 3795POPC   D2A51064  33.654  10.379   6.581
 3795POPC   C3A51065  33.682  10.533   6.974
 3795POPC   C4A51066  33.641  10.240   7.237
 3795POPC   C1B51067  33.790  11.087   6.199
 3795POPC   C2B51068  33.825  10.936   6.644
 3795POPC   C3B51069  33.913  10.962   7.116
 3795POPC   C4B51070  33.898  10.767   7.538
 3796POPC   NC351071   1.138   1.658   5.377
 3796POPC   PO451072   1.338   2.260   5.532
 3796POPC   GL151073   1.215   2.055   5.899
 3796POPC   GL251074   1.355   1.713   5.837
 3796POPC   C1A51075   1.100   2.145   6.361
 3796POPC   D2A51076   1.206   2.209   6.825
 3796POPC   C3A51077   1.020   1.978   7.175
 3796POPC   C4A51078   1.074   1.786   7.608
 3796POPC   C1B51079   1.419   1.754   6.269
 3796POPC   C2B51080   1.265   1.652   6.674
 3796POPC   C3B51081   1.490   1.734   7.053
 3796POPC   C4B51082   1.499   2.080   7.334
 3797POPC   NC351083  15.646  24.965   5.298
 3797POPC   PO451084  16.256  25.162   5.500
 3797POPC   GL151085  15.903  25.179   5.766
 3797POPC   GL251086  15.830  24.818   5.742
 3797POPC   C1A51087  15.790  25.403   6.172
 3797POPC   D2A51088  15.985  25.536   6.580
 3797POPC   C3A51089  15.834  25.458   7.018
 3797POPC   C4A51090  16.010  25.335   7.464
 3797POPC   C1B51091  16.058  24.873   6.130
 3797POPC   C2B51092  16.011  24.740   6.513
 3797POPC   C3B51093  15.975  24.985   6.879
 3797POPC   C4B51094  15.845  24.924   7.261
 3798POPC   NC351095   8.104   5.939   5.415
 3798POPC   PO451096   8.445   6.531   5.528
 3798POPC   GL151097   8.423   6.126   5.800
 3798POPC   GL251098   8.331   5.722   5.823
 3798POPC   C1A51099   8.184   6.064   6.172
 3798POPC   D2A51100   8.253   5.825   6.529
 3798POPC   C3A51101   8.140   6.056   6.883
 3798POPC   C4A51102   8.157   6.009   7.293
 3798POPC   C1B51103   7.972   5.619   6.158
 3798POPC   C2B51104   7.971   5.403   6.538
 3798POPC   C3B51105   8.017   5.532   6.954
 3798POPC   C4B51106   8.355   5.552   7.226
 3799POPC   NC351107  41.848   4.902   5.445
 3799POPC   PO451108  41.219   5.238   5.320
 3799POPC   GL151109  41.427   5.129   5.707
 3799POPC   GL251110  41.744   5.356   5.686
 3799POPC   C1A51111  41.272   4.978   6.129
 3799POPC   D2A51112  41.158   4.843   6.554
 3799POPC   C3A51113  41.286   5.042   6.924
 3799POPC   C4A51114  41.640   4.856   7.133
 3799POPC   C1B51115  41.727   5.255   6.113
 3799POPC   C2B51116  41.528   5.324   6.498
 3799POPC   C3B51117  41.765   5.266   6.863
 3799POPC   C4B51118  41.751   5.334   7.294
 3800POPC   NC351119  34.321  17.702   5.513
 3800POPC   PO451120  34.919  17.444   5.279
 3800POPC   GL151121  34.757  17.413   5.715
 3800POPC   GL251122  34.754  17.046   5.711
 3800POPC   C1A51123  34.595  17.578   6.155
 3800POPC   D2A51124  34.284  17.609   6.521
 3800POPC   C3A51125  34.393  17.652   6.950
 3800POPC   C4A51126  34.678  17.721   7.305
 3800POPC   C1B51127  34.423  17.104   6.024
 3800POPC   C2B51128  34.525  17.147   6.451
 3800POPC   C3B51129  34.691  17.057   6.814
 3800POPC   C4B51130  34.586  17.238   7.153
 3801POPC   NC351131  28.549   7.928   5.398
 3801POPC   PO451132  28.241   8.497   5.319
 3801POPC   GL151133  28.406   8.341   5.709
 3801POPC   GL251134  28.290   8.039   5.833
 3801POPC   C1A51135  28.394   8.432   6.168
 3801POPC   D2A51136  28.149   8.323   6.541
 3801POPC   C3A51137  28.382   8.359   6.922
 3801POPC   C4A51138  28.574   8.098   7.201
 3801POPC   C1B51139  28.704   8.048   6.095
 3801POPC   C2B51140  28.630   8.063   6.537
 3801POPC   C3B51141  28.302   7.866   6.789
 3801POPC   C4B51142  28.057   7.982   7.133
 3802POPC   NC351143  11.930   9.990   5.454
 3802POPC   PO451144  12.071   9.373   5.516
 3802POPC   GL151145  11.855   9.639   5.807
 3802POPC   GL251146  11.963   9.445   6.053
 3802POPC   C1A51147  11.880   9.927   6.176
 3802POPC   D2A51148  11.855   9.715   6.559
 3802POPC   C3A51149  11.954   9.877   6.953
 3802POPC   C4A51150  11.756   9.585   7.208
 3802POPC   C1B51151  12.307   9.563   6.325
 3802POPC   C2B51152  12.308   9.526   6.779
 3802POPC   C3B51153  12.275   9.467   7.223
 3802POPC   C4B51154  12.615   9.290   7.516
 3803POPC   NC351155   5.123   4.420   5.343
 3803POPC   PO451156   4.514   4.591   5.580
 3803POPC   GL151157   4.834   4.296   5.793
 3803POPC   GL251158   5.158   4.097   5.770
 3803POPC   C1A51159   4.778   4.061   6.192
 3803POPC   D2A51160   4.687   4.254   6.609
 3803POPC   C3A51161   4.832   4.447   7.015
 3803POPC   C4A51162   4.854   4.440   7.497
 3803POPC   C1B51163   5.208   4.354   6.172
 3803POPC   C2B51164   5.214   4.266   6.626
 3803POPC   C3B51165   5.333   4.340   7.051
 3803POPC   C4B51166   5.566   4.483   7.378
 3804POPC   NC351167  24.451  24.642   5.416
 3804POPC   PO451168  23.951  24.961   5.507
 3804POPC   GL151169  24.218  24.802   5.864
 3804POPC   GL251170  24.305  24.449   5.886
 3804POPC   C1A51171  24.311  24.761   6.317
 3804POPC   D2A51172  24.469  24.570   6.715
 3804POPC   C3A51173  24.359  24.804   7.101
 3804POPC   C4A51174  24.266  24.725   7.535
 3804POPC   C1B51175  24.110  24.292   6.294
 3804POPC   C2B51176  24.189  24.146   6.719
 3804POPC   C3B51177  24.222  24.311   7.151
 3804POPC   C4B51178  24.117  24.229   7.602
 3805POPC   NC351179  30.147   8.217   5.371
 3805POPC   PO451180  30.400   7.714   5.713
 3805POPC   GL151181  30.168   8.005   5.927
 3805POPC   GL251182  30.040   8.320   5.852
 3805POPC   C1A51183  30.120   8.122   6.326
 3805POPC   D2A51184  30.242   8.086   6.720
 3805POPC   C3A51185  29.971   8.235   7.007
 3805POPC   C4A51186  29.875   8.065   7.381
 3805POPC   C1B51187  30.341   8.540   6.132
 3805POPC   C2B51188  30.159   8.589   6.561
 3805POPC   C3B51189  30.294   8.617   6.979
 3805POPC   C4B51190  30.118   8.513   7.414
 3806POPC   NC351191  41.065  24.290   5.468
 3806POPC   PO451192  40.764  24.802   5.178
 3806POPC   GL151193  40.821  24.686   5.696
 3806POPC   GL251194  40.536  24.825   5.899
 3806POPC   C1A51195  40.786  24.397   6.114
 3806POPC   D2A51196  40.742  24.140   6.522
 3806POPC   C3A51197  40.596  24.199   6.969
 3806POPC   C4A51198  40.969  24.228   7.221
 3806POPC   C1B51199  40.623  24.802   6.369
 3806POPC   C2B51200  40.813  24.663   6.790
 3806POPC   C3B51201  40.702  24.676   7.237
 3806POPC   C4B51202  40.534  24.778   7.634
 3807POPC   NC351203   1.119  22.007   5.406
 3807POPC   PO451204   1.370  22.643   5.506
 3807POPC   GL151205   1.209  22.510   5.912
 3807POPC   GL251206   0.963  22.233   5.856
 3807POPC   C1A51207   1.224  22.434   6.346
 3807POPC   D2A51208   1.435  22.118   6.579
 3807POPC   C3A51209   1.119  22.050   6.869
 3807POPC   C4A51210   1.037  22.229   7.267
 3807POPC   C1B51211   1.187  21.920   6.132
 3807POPC   C2B51212   1.239  21.651   6.508
 3807POPC   C3B51213   1.483  21.678   6.884
 3807POPC   C4B51214   1.485  21.988   7.221
 3808POPC   NC351215  17.466   0.357   5.317
 3808POPC   PO451216  17.638   0.945   5.537
 3808POPC   GL151217  17.373   0.683   5.731
 3808POPC   GL251218  17.655   0.458   5.801
 3808POPC   C1A51219  17.308   0.676   6.179
 3808POPC   D2A51220  17.458   0.890   6.569
 3808POPC   C3A51221  17.317   0.732   6.949
 3808POPC   C4A51222  17.519   0.615   7.351
 3808POPC   C1B51223  17.882   0.673   6.142
 3808POPC   C2B51224  17.981   0.839   6.548
 3808POPC   C3B51225  17.843   0.669   6.940
 3808POPC   C4B51226  17.898   0.303   7.232
 3809POPC   NC351227   0.018  27.034   5.370
 3809POPC   PO451228   0.392  26.568   5.684
 3809POPC   GL151229   0.369  26.923   5.929
 3809POPC   GL251230   0.208  27.235   5.788
 3809POPC   C1A51231   0.503  26.851   6.349
 3809POPC   D2A51232   0.410  26.685   6.773
 3809POPC   C3A51233   0.633  26.806   7.148
 3809POPC   C4A51234   0.836  26.604   7.542
 3809POPC   C1B51235   0.009  27.196   6.170
 3809POPC   C2B51236   0.048  26.995   6.548
 3809POPC   C3B51237   0.161  27.147   6.923
 3809POPC   C4B51238  44.985  27.191   7.337
 3810POPC   NC351239   1.653  42.276   5.448
 3810POPC   PO451240   2.285  42.434   5.441
 3810POPC   GL151241   2.042  42.448   5.797
 3810POPC   GL251242   2.226  42.744   5.848
 3810POPC   C1A51243   2.053  42.167   6.183
 3810POPC   D2A51244   2.221  42.210   6.614
 3810POPC   C3A51245   1.868  42.322   6.942
 3810POPC   C4A51246   1.865  42.244   7.411
 3810POPC   C1B51247   2.311  42.611   6.259
 3810POPC   C2B51248   2.153  42.698   6.681
 3810POPC   C3B51249   2.243  42.630   7.138
 3810POPC   C4B51250   2.097  42.698   7.592
 3811POPC   NC351251  14.804  44.415   5.439
 3811POPC   PO451252  14.306  44.771   5.213
 3811POPC   GL151253  14.459  44.765   5.668
 3811POPC   GL251254  14.720  44.977   5.838
 3811POPC   C1A51255  14.416  44.589   6.129
 3811POPC   D2A51256  14.246  44.574   6.604
 3811POPC   C3A51257  14.410  44.615   7.058
 3811POPC   C4A51258  14.238  44.306   7.383
 3811POPC   C1B51259  14.806  44.870   6.254
 3811POPC   C2B51260  14.695  44.878   6.674
 3811POPC   C3B51261  14.772  44.992   7.087
 3811POPC   C4B51262  14.652  44.920   7.528
 3812POPC   NC351263  35.819  21.453   5.176
 3812POPC   PO451264  36.390  21.641   5.575
 3812POPC   GL151265  36.065  21.534   5.817
 3812POPC   GL251266  35.893  21.302   5.662
 3812POPC   C1A51267  36.175  21.614   6.247
 3812POPC   D2A51268  36.383  21.469   6.626
 3812POPC   C3A51269  36.221  21.624   7.001
 3812POPC   C4A51270  36.370  21.942   7.259
 3812POPC   C1B51271  35.761  21.261   6.113
 3812POPC   C2B51272  35.870  21.351   6.550
 3812POPC   C3B51273  35.931  21.123   6.908
 3812POPC   C4B51274  36.214  21.152   7.202
 3813POPC   NC351275  44.493   4.878   5.522
 3813POPC   PO451276  44.961   5.312   5.319
 3813POPC   GL151277  44.893   5.203   5.754
 3813POPC   GL251278  44.972   4.849   5.823
 3813POPC   C1A51279  44.674   5.168   6.155
 3813POPC   D2A51280  44.572   4.965   6.549
 3813POPC   C3A51281  44.734   5.235   6.881
 3813POPC   C4A51282  44.427   5.174   7.172
 3813POPC   C1B51283  44.977   4.737   6.283
 3813POPC   C2B51284   0.017   4.798   6.745
 3813POPC   C3B51285  44.701   4.758   7.046
 3813POPC   C4B51286  44.742   4.905   7.448
 3814POPC   NC351287  40.025   5.216   5.349
 3814POPC   PO451288  39.840   4.658   5.648
 3814POPC   GL151289  40.159   4.918   5.791
 3814POPC   GL251290  40.117   5.292   5.832
 3814POPC   C1A51291  40.295   4.990   6.206
 3814POPC   D2A51292  40.090   5.208   6.501
 3814POPC   C3A51293  39.950   5.000   6.866
 3814POPC   C4A51294  40.099   5.114   7.260
 3814POPC   C1B51295  39.700   5.261   6.067
 3814POPC   C2B51296  39.566   5.173   6.491
 3814POPC   C3B51297  39.564   5.336   6.905
 3814POPC   C4B51298  39.582   5.070   7.266
 3815POPC   NC351299  36.291  36.412   5.454
 3815POPC   PO451300  35.996  35.793   5.578
 3815POPC   GL151301  36.228  35.997   5.860
 3815POPC   GL251302  36.030  36.285   5.884
 3815POPC   C1A51303  36.278  36.019   6.315
 3815POPC   D2A51304  36.046  35.898   6.686
 3815POPC   C3A51305  36.237  36.061   7.064
 3815POPC   C4A51306  36.250  36.166   7.510
 3815POPC   C1B51307  36.029  36.466   6.299
 3815POPC   C2B51308  36.034  36.406   6.745
 3815POPC   C3B51309  36.032  36.514   7.195
 3815POPC   C4B51310  35.857  36.503   7.613
 3816POPC   NC351311  23.864  41.096   5.398
 3816POPC   PO451312  23.607  40.625   5.572
 3816POPC   GL151313  23.768  40.670   6.002
 3816POPC   GL251314  23.669  41.029   6.082
 3816POPC   C1A51315  23.885  40.773   6.456
 3816POPC   D2A51316  23.677  41.061   6.761
 3816POPC   C3A51317  23.619  40.881   7.147
 3816POPC   C4A51318  23.903  40.562   7.275
 3816POPC   C1B51319  23.954  41.277   6.398
 3816POPC   C2B51320  24.189  41.189   6.748
 3816POPC   C3B51321  24.097  41.076   7.171
 3816POPC   C4B51322  23.910  40.979   7.587
 3817POPC   NC351323  26.687  43.797   5.287
 3817POPC   PO451324  26.036  44.028   5.288
 3817POPC   GL151325  26.172  44.160   5.669
 3817POPC   GL251326  26.344  43.839   5.665
 3817POPC   C1A51327  25.982  44.216   6.100
 3817POPC   D2A51328  25.953  43.913   6.463
 3817POPC   C3A51329  25.822  43.988   6.882
 3817POPC   C4A51330  26.005  43.777   7.239
 3817POPC   C1B51331  26.339  43.829   6.102
 3817POPC   C2B51332  26.441  44.067   6.477
 3817POPC   C3B51333  26.346  43.999   6.907
 3817POPC   C4B51334  26.339  44.175   7.313
 3818POPC   NC351335   9.047  16.205   5.341
 3818POPC   PO451336   8.564  15.759   5.537
 3818POPC   GL151337   8.801  16.042   5.766
 3818POPC   GL251338   9.148  15.893   5.730
 3818POPC   C1A51339   8.850  15.973   6.196
 3818POPC   D2A51340   8.588  15.800   6.514
 3818POPC   C3A51341   8.813  15.971   6.869
 3818POPC   C4A51342   8.996  15.777   7.225
 3818POPC   C1B51343   9.352  15.804   6.121
 3818POPC   C2B51344   9.228  15.922   6.559
 3818POPC   C3B51345   9.370  16.045   6.975
 3818POPC   C4B51346   9.710  15.814   7.163
 3819POPC   NC351347   8.252  16.108   5.519
 3819POPC   PO451348   7.827  15.517   5.559
 3819POPC   GL151349   8.055  15.806   5.879
 3819POPC   GL251350   8.398  15.779   6.010
 3819POPC   C1A51351   8.089  16.018   6.316
 3819POPC   D2A51352   7.973  16.001   6.742
 3819POPC   C3A51353   8.326  15.989   7.015
 3819POPC   C4A51354   8.619  16.215   7.294
 3819POPC   C1B51355   8.154  15.508   6.298
 3819POPC   C2B51356   8.187  15.502   6.720
 3819POPC   C3B51357   8.049  15.572   7.127
 3819POPC   C4B51358   8.184  15.819   7.501
 3820POPC   NC351359  30.677  28.402   5.538
 3820POPC   PO451360  30.369  28.979   5.493
 3820POPC   GL151361  30.351  28.692   5.846
 3820POPC   GL251362  30.413  28.343   5.959
 3820POPC   C1A51363  30.637  28.722   6.208
 3820POPC   D2A51364  30.627  28.616   6.623
 3820POPC   C3A51365  30.868  28.308   6.733
 3820POPC   C4A51366  31.028  28.159   7.129
 3820POPC   C1B51367  30.446  28.202   6.357
 3820POPC   C2B51368  30.298  28.266   6.743
 3820POPC   C3B51369  30.521  28.291   7.122
 3820POPC   C4B51370  30.387  28.205   7.525
 3821POPC   NC351371   6.966  11.611   5.420
 3821POPC   PO451372   6.474  11.100   5.484
 3821POPC   GL151373   6.506  11.234   5.879
 3821POPC   GL251374   6.609  11.568   5.828
 3821POPC   C1A51375   6.693  11.174   6.320
 3821POPC   D2A51376   6.933  11.149   6.738
 3821POPC   C3A51377   6.776  11.177   7.178
 3821POPC   C4A51378   6.518  11.360   7.514
 3821POPC   C1B51379   6.401  11.599   6.205
 3821POPC   C2B51380   6.474  11.568   6.627
 3821POPC   C3B51381   6.466  11.632   7.066
 3821POPC   C4B51382   6.391  11.832   7.447
 3822POPC   NC351383  23.572  34.935   5.370
 3822POPC   PO451384  23.382  35.531   5.369
 3822POPC   GL151385  23.419  35.482   5.815
 3822POPC   GL251386  23.684  35.227   5.813
 3822POPC   C1A51387  23.337  35.186   6.178
 3822POPC   D2A51388  23.573  34.984   6.526
 3822POPC   C3A51389  23.417  35.071   6.947
 3822POPC   C4A51390  23.465  35.457   7.168
 3822POPC   C1B51391  23.841  35.324   6.255
 3822POPC   C2B51392  23.761  35.435   6.717
 3822POPC   C3B51393  23.973  35.337   7.131
 3822POPC   C4B51394  24.107  35.323   7.599
 3823POPC   NC351395  18.876  30.916   5.569
 3823POPC   PO451396  19.338  30.647   5.163
 3823POPC   GL151397  19.170  30.543   5.690
 3823POPC   GL251398  19.236  30.818   5.933
 3823POPC   C1A51399  18.979  30.471   6.178
 3823POPC   D2A51400  19.169  30.651   6.577
 3823POPC   C3A51401  18.864  30.657   6.902
 3823POPC   C4A51402  18.714  30.320   7.149
 3823POPC   C1B51403  18.939  30.990   6.274
 3823POPC   C2B51404  19.002  31.142   6.728
 3823POPC   C3B51405  19.033  31.057   7.192
 3823POPC   C4B51406  19.229  31.074   7.609
 3824POPC   NC351407  23.116   0.814   5.038
 3824POPC   PO451408  22.742   0.558   5.565
 3824POPC   GL151409  22.917   0.238   5.845
 3824POPC   GL251410  23.044   0.528   6.006
 3824POPC   C1A51411  22.877   0.182   6.312
 3824POPC   D2A51412  22.798   0.590   6.534
 3824POPC   C3A51413  22.674   0.486   6.935
 3824POPC   C4A51414  22.857   0.106   7.067
 3824POPC   C1B51415  23.249   0.754   6.325
 3824POPC   C2B51416  23.266   0.835   6.776
 3824POPC   C3B51417  23.137   0.620   7.136
 3824POPC   C4B51418  23.261   0.261   7.408
 3825POPC   NC351419   4.993  32.770   5.526
 3825POPC   PO451420   5.350  33.266   5.318
 3825POPC   GL151421   5.400  33.069   5.721
 3825POPC   GL251422   5.480  32.713   5.689
 3825POPC   C1A51423   5.218  33.071   6.142
 3825POPC   D2A51424   4.919  33.091   6.489
 3825POPC   C3A51425   5.131  33.225   6.831
 3825POPC   C4A51426   5.348  33.101   7.170
 3825POPC   C1B51427   5.401  32.581   6.105
 3825POPC   C2B51428   5.325  32.660   6.535
 3825POPC   C3B51429   5.488  32.648   6.953
 3825POPC   C4B51430   5.322  32.629   7.361
 3826POPC   NC351431  11.244  14.815   5.101
 3826POPC   PO451432  11.230  14.296   5.499
 3826POPC   GL151433  11.190  14.298   5.932
 3826POPC   GL251434  11.509  14.112   5.918
 3826POPC   C1A51435  11.233  14.595   6.333
 3826POPC   D2A51436  11.288  14.774   6.777
 3826POPC   C3A51437  11.383  14.506   7.124
 3826POPC   C4A51438  11.120  14.169   7.222
 3826POPC   C1B51439  11.371  14.089   6.339
 3826POPC   C2B51440  11.326  14.226   6.716
 3826POPC   C3B51441  11.579  14.028   6.992
 3826POPC   C4B51442  11.550  13.941   7.372
 3827POPC   NC351443  40.956  33.455   5.449
 3827POPC   PO451444  40.526  33.939   5.243
 3827POPC   GL151445  40.599  33.897   5.703
 3827POPC   GL251446  40.612  33.564   5.828
 3827POPC   C1A51447  40.614  33.930   6.174
 3827POPC   D2A51448  40.641  33.641   6.547
 3827POPC   C3A51449  40.623  33.775   6.961
 3827POPC   C4A51450  40.817  34.040   7.254
 3827POPC   C1B51451  40.949  33.531   6.154
 3827POPC   C2B51452  41.104  33.326   6.592
 3827POPC   C3B51453  41.092  33.533   6.991
 3827POPC   C4B51454  40.825  33.519   7.343
 3828POPC   NC351455  14.269  17.880   5.333
 3828POPC   PO451456  14.122  17.282   5.125
 3828POPC   GL151457  14.487  17.523   5.576
 3828POPC   GL251458  14.334  17.765   5.814
 3828POPC   C1A51459  14.589  17.382   6.028
 3828POPC   D2A51460  14.339  17.211   6.392
 3828POPC   C3A51461  14.477  17.292   6.809
 3828POPC   C4A51462  14.384  17.506   7.170
 3828POPC   C1B51463  14.074  18.016   6.077
 3828POPC   C2B51464  14.056  18.049   6.517
 3828POPC   C3B51465  14.227  17.928   6.917
 3828POPC   C4B51466  14.076  17.867   7.344
 3829POPC   NC351467  31.039  18.293   5.461
 3829POPC   PO451468  30.385  18.155   5.199
 3829POPC   GL151469  30.431  18.223   5.673
 3829POPC   GL251470  30.724  18.412   5.835
 3829POPC   C1A51471  30.572  18.044   6.120
 3829POPC   D2A51472  30.826  18.016   6.547
 3829POPC   C3A51473  30.613  18.054   6.958
 3829POPC   C4A51474  30.730  18.030   7.442
 3829POPC   C1B51475  30.896  18.448   6.259
 3829POPC   C2B51476  30.893  18.555   6.716
 3829POPC   C3B51477  30.861  18.444   7.164
 3829POPC   C4B51478  30.846  18.494   7.619
 3830POPC   NC351479  37.779   3.473   5.343
 3830POPC   PO451480  37.257   3.350   5.716
 3830POPC   GL151481  37.671   3.503   5.864
 3830POPC   GL251482  37.903   3.802   5.956
 3830POPC   C1A51483  37.785   3.407   6.289
 3830POPC   D2A51484  38.005   3.430   6.649
 3830POPC   C3A51485  37.732   3.359   6.980
 3830POPC   C4A51486  37.982   3.702   7.134
 3830POPC   C1B51487  37.560   3.860   6.265
 3830POPC   C2B51488  37.571   3.782   6.701
 3830POPC   C3B51489  37.463   3.762   7.110
 3830POPC   C4B51490  37.386   3.399   7.373
 3831POPC   NC351491  38.270  25.846   5.617
 3831POPC   PO451492  38.511  26.476   5.468
 3831POPC   GL151493  38.404  26.319   5.862
 3831POPC   GL251494  38.648  26.064   5.923
 3831POPC   C1A51495  38.082  26.236   6.172
 3831POPC   D2A51496  37.979  26.046   6.583
 3831POPC   C3A51497  38.056  26.297   6.962
 3831POPC   C4A51498  38.265  26.420   7.350
 3831POPC   C1B51499  38.469  25.923   6.298
 3831POPC   C2B51500  38.487  25.953   6.725
 3831POPC   C3B51501  38.461  25.994   7.150
 3831POPC   C4B51502  38.777  26.311   7.217
 3832POPC   NC351503   2.359  38.817   5.060
 3832POPC   PO451504   3.020  38.579   5.214
 3832POPC   GL151505   2.961  38.629   5.726
 3832POPC   GL251506   2.680  38.825   5.875
 3832POPC   C1A51507   3.002  38.570   6.242
 3832POPC   D2A51508   3.186  38.524   6.721
 3832POPC   C3A51509   2.967  38.422   7.115
 3832POPC   C4A51510   2.779  38.432   7.542
 3832POPC   C1B51511   2.727  38.994   6.334
 3832POPC   C2B51512   2.712  38.759   6.744
 3832POPC   C3B51513   2.524  38.707   7.161
 3832POPC   C4B51514   2.275  38.961   7.459
 3833POPC   NC351515  44.115   3.953   5.555
 3833POPC   PO451516  43.819   3.296   5.574
 3833POPC   GL151517  43.941   3.317   5.973
 3833POPC   GL251518  43.930   3.675   5.980
 3833POPC   C1A51519  43.990   3.354   6.413
 3833POPC   D2A51520  44.322   3.356   6.706
 3833POPC   C3A51521  44.271   3.455   7.121
 3833POPC   C4A51522  43.945   3.586   7.373
 3833POPC   C1B51523  43.570   3.604   6.290
 3833POPC   C2B51524  43.385   3.642   6.694
 3833POPC   C3B51525  43.611   3.858   7.023
 3833POPC   C4B51526  43.708   4.016   7.435
 3834POPC   NC351527   5.940  14.198   5.381
 3834POPC   PO451528   5.742  14.786   5.325
 3834POPC   GL151529   5.872  14.561   5.742
 3834POPC   GL251530   6.216  14.612   5.617
 3834POPC   C1A51531   5.911  14.223   6.141
 3834POPC   D2A51532   5.936  14.054   6.613
 3834POPC   C3A51533   5.698  14.145   6.994
 3834POPC   C4A51534   5.335  14.272   7.235
 3834POPC   C1B51535   6.290  14.582   6.063
 3834POPC   C2B51536   6.242  14.443   6.498
 3834POPC   C3B51537   6.045  14.596   6.896
 3834POPC   C4B51538   6.148  14.636   7.356
 3835POPC   NC351539  16.304  22.320   5.396
 3835POPC   PO451540  16.902  21.863   5.384
 3835POPC   GL151541  16.947  22.056   5.771
 3835POPC   GL251542  16.586  22.101   5.760
 3835POPC   C1A51543  16.835  22.357   6.113
 3835POPC   D2A51544  16.559  22.369   6.462
 3835POPC   C3A51545  16.783  22.372   6.809
 3835POPC   C4A51546  16.780  22.126   7.140
 3835POPC   C1B51547  16.407  21.990   6.147
 3835POPC   C2B51548  16.235  21.944   6.576
 3835POPC   C3B51549  16.361  21.885   6.996
 3835POPC   C4B51550  16.446  21.914   7.457
 3836POPC   NC351551   6.604   6.841   5.383
 3836POPC   PO451552   6.907   6.273   5.242
 3836POPC   GL151553   6.652   6.472   5.711
 3836POPC   GL251554   6.818   6.816   5.845
 3836POPC   C1A51555   6.597   6.498   6.172
 3836POPC   D2A51556   6.850   6.471   6.535
 3836POPC   C3A51557   6.604   6.480   6.881
 3836POPC   C4A51558   6.458   6.457   7.298
 3836POPC   C1B51559   7.032   6.864   6.267
 3836POPC   C2B51560   7.156   6.846   6.725
 3836POPC   C3B51561   6.931   6.777   7.137
 3836POPC   C4B51562   6.693   6.954   7.505
 3837POPC   NC351563  11.083   5.929   5.506
 3837POPC   PO451564  11.726   5.728   5.363
 3837POPC   GL151565  11.501   5.785   5.792
 3837POPC   GL251566  11.519   6.106   5.985
 3837POPC   C1A51567  11.633   5.644   6.227
 3837POPC   D2A51568  11.753   5.683   6.675
 3837POPC   C3A51569  11.419   5.887   6.922
 3837POPC   C4A51570  11.411   5.989   7.327
 3837POPC   C1B51571  11.168   5.966   6.255
 3837POPC   C2B51572  11.047   6.174   6.664
 3837POPC   C3B51573  11.023   6.267   7.102
 3837POPC   C4B51574  10.957   6.100   7.515
 3838POPC   NC351575  26.174  16.483   5.423
 3838POPC   PO451576  26.303  15.875   5.486
 3838POPC   GL151577  26.080  16.028   5.864
 3838POPC   GL251578  26.104  16.374   5.926
 3838POPC   C1A51579  26.063  16.084   6.343
 3838POPC   D2A51580  25.983  16.246   6.770
 3838POPC   C3A51581  26.124  16.071   7.166
 3838POPC   C4A51582  26.015  15.772   7.511
 3838POPC   C1B51583  25.767  16.515   6.241
 3838POPC   C2B51584  25.603  16.561   6.680
 3838POPC   C3B51585  25.680  16.453   7.158
 3838POPC   C4B51586  25.835  16.247   7.545
 3839POPC   NC351587  10.575   6.747   5.237
 3839POPC   PO451588  10.000   6.425   5.187
 3839POPC   GL151589  10.263   6.504   5.587
 3839POPC   GL251590  10.567   6.319   5.617
 3839POPC   C1A51591  10.352   6.615   6.074
 3839POPC   D2A51592  10.441   6.876   6.510
 3839POPC   C3A51593  10.560   6.661   6.921
 3839POPC   C4A51594  10.618   6.784   7.362
 3839POPC   C1B51595  10.759   6.275   6.051
 3839POPC   C2B51596  10.603   6.352   6.486
 3839POPC   C3B51597  10.563   6.148   6.909
 3839POPC   C4B51598  10.469   6.296   7.347
 3840POPC   NC351599  19.282  25.896   5.396
 3840POPC   PO451600  18.917  26.449   5.381
 3840POPC   GL151601  18.987  26.159   5.716
 3840POPC   GL251602  18.694  25.937   5.720
 3840POPC   C1A51603  19.058  25.895   6.094
 3840POPC   D2A51604  18.944  25.761   6.513
 3840POPC   C3A51605  19.230  25.808   6.840
 3840POPC   C4A51606  19.218  25.715   7.273
 3840POPC   C1B51607  18.631  26.297   6.031
 3840POPC   C2B51608  18.855  26.413   6.414
 3840POPC   C3B51609  18.884  26.214   6.819
 3840POPC   C4B51610  18.673  26.406   7.137
 3841POPC   NC351611  40.184  13.920   5.369
 3841POPC   PO451612  39.816  13.397   5.616
 3841POPC   GL151613  39.878  13.786   5.760
 3841POPC   GL251614  40.205  13.654   5.828
 3841POPC   C1A51615  39.727  14.014   6.086
 3841POPC   D2A51616  39.789  13.962   6.562
 3841POPC   C3A51617  39.761  13.547   6.756
 3841POPC   C4A51618  39.773  13.501   7.204
 3841POPC   C1B51619  40.018  13.563   6.233
 3841POPC   C2B51620  40.226  13.691   6.594
 3841POPC   C3B51621  40.159  13.824   6.997
 3841POPC   C4B51622  40.271  13.576   7.347
 3842POPC   NC351623  33.027   5.166   5.278
 3842POPC   PO451624  33.154   4.618   5.596
 3842POPC   GL151625  33.005   5.012   5.799
 3842POPC   GL251626  32.839   4.797   5.982
 3842POPC   C1A51627  32.994   5.284   6.211
 3842POPC   D2A51628  33.210   5.356   6.651
 3842POPC   C3A51629  32.980   5.298   7.035
 3842POPC   C4A51630  32.829   4.913   7.232
 3842POPC   C1B51631  33.106   4.799   6.338
 3842POPC   C2B51632  33.064   4.862   6.769
 3842POPC   C3B51633  33.340   4.919   7.149
 3842POPC   C4B51634  33.223   5.009   7.600
 3843POPC   NC351635  23.583  35.929   5.477
 3843POPC   PO451636  23.748  36.366   5.780
 3843POPC   GL151637  23.651  35.938   5.981
 3843POPC   GL251638  23.896  35.699   5.857
 3843POPC   C1A51639  23.511  35.701   6.352
 3843POPC   D2A51640  23.361  35.804   6.792
 3843POPC   C3A51641  23.501  36.212   6.984
 3843POPC   C4A51642  23.842  36.280   7.310
 3843POPC   C1B51643  24.030  35.800   6.296
 3843POPC   C2B51644  23.839  35.978   6.652
 3843POPC   C3B51645  23.809  35.825   7.055
 3843POPC   C4B51646  23.994  35.791   7.420
 3844POPC   NC351647   4.652   5.017   5.453
 3844POPC   PO451648   3.931   5.035   5.339
 3844POPC   GL151649   4.220   4.959   5.733
 3844POPC   GL251650   4.114   4.792   6.008
 3844POPC   C1A51651   4.583   4.886   6.130
 3844POPC   D2A51652   4.601   5.110   6.520
 3844POPC   C3A51653   4.574   4.914   6.890
 3844POPC   C4A51654   4.219   4.866   7.091
 3844POPC   C1B51655   4.269   5.269   6.122
 3844POPC   C2B51656   4.224   5.461   6.529
 3844POPC   C3B51657   4.331   5.384   6.949
 3844POPC   C4B51658   4.131   5.334   7.336
 3845POPC   NC351659  30.696  11.529   5.313
 3845POPC   PO451660  30.661  10.947   5.698
 3845POPC   GL151661  30.690  11.321   5.911
 3845POPC   GL251662  30.360  11.488   5.823
 3845POPC   C1A51663  30.774  11.285   6.344
 3845POPC   D2A51664  30.689  11.071   6.728
 3845POPC   C3A51665  30.684  11.296   7.098
 3845POPC   C4A51666  30.662  11.144   7.507
 3845POPC   C1B51667  30.435  11.674   6.235
 3845POPC   C2B51668  30.546  11.592   6.671
 3845POPC   C3B51669  30.457  11.752   7.063
 3845POPC   C4B51670  30.411  11.584   7.472
 3846POPC   NC351671  35.115  36.646   5.357
 3846POPC   PO451672  34.614  36.868   5.328
 3846POPC   GL151673  34.658  37.000   5.764
 3846POPC   GL251674  34.998  36.895   5.828
 3846POPC   C1A51675  34.643  36.854   6.222
 3846POPC   D2A51676  34.636  36.574   6.614
 3846POPC   C3A51677  34.513  36.730   7.058
 3846POPC   C4A51678  34.446  37.043   7.410
 3846POPC   C1B51679  35.011  36.505   6.101
 3846POPC   C2B51680  35.144  36.425   6.544
 3846POPC   C3B51681  35.012  36.599   6.977
 3846POPC   C4B51682  34.917  36.809   7.398
 3847POPC   NC351683   2.444  42.885   5.400
 3847POPC   PO451684   1.948  43.364   5.293
 3847POPC   GL151685   2.153  43.245   5.682
 3847POPC   GL251686   1.837  43.081   5.752
 3847POPC   C1A51687   2.152  43.132   6.148
 3847POPC   D2A51688   1.971  43.203   6.533
 3847POPC   C3A51689   2.207  43.147   6.889
 3847POPC   C4A51690   2.036  43.088   7.252
 3847POPC   C1B51691   1.689  42.862   6.111
 3847POPC   C2B51692   1.512  42.977   6.528
 3847POPC   C3B51693   1.726  42.867   6.906
 3847POPC   C4B51694   1.697  42.695   7.294
 3848POPC   NC351695  38.392  33.981   5.285
 3848POPC   PO451696  38.413  34.649   5.342
 3848POPC   GL151697  38.324  34.364   5.668
 3848POPC   GL251698  38.010  34.148   5.639
 3848POPC   C1A51699  38.480  34.382   6.100
 3848POPC   D2A51700  38.817  34.377   6.436
 3848POPC   C3A51701  38.585  34.496   6.827
 3848POPC   C4A51702  38.605  34.849   7.107
 3848POPC   C1B51703  37.929  34.223   6.058
 3848POPC   C2B51704  38.029  34.461   6.413
 3848POPC   C3B51705  38.047  34.360   6.862
 3848POPC   C4B51706  38.294  34.426   7.248
 3849POPC   NC351707  17.846  26.201   5.138
 3849POPC   PO451708  17.300  26.407   5.506
 3849POPC   GL151709  17.295  26.280   5.930
 3849POPC   GL251710  17.618  26.376   6.115
 3849POPC   C1A51711  17.325  25.962   6.228
 3849POPC   D2A51712  17.050  25.747   6.481
 3849POPC   C3A51713  17.127  25.756   6.916
 3849POPC   C4A51714  17.385  25.937   7.253
 3849POPC   C1B51715  17.733  26.151   6.449
 3849POPC   C2B51716  17.370  26.160   6.712
 3849POPC   C3B51717  17.425  26.410   7.054
 3849POPC   C4B51718  17.736  26.329   7.373
 3850POPC   NC351719  13.952  21.788   5.482
 3850POPC   PO451720  13.768  21.179   5.458
 3850POPC   GL151721  13.526  21.229   5.809
 3850POPC   GL251722  13.392  21.596   5.747
 3850POPC   C1A51723  13.696  21.110   6.233
 3850POPC   D2A51724  13.533  21.222   6.625
 3850POPC   C3A51725  13.706  21.122   6.991
 3850POPC   C4A51726  13.425  21.188   7.309
 3850POPC   C1B51727  13.517  21.594   6.185
 3850POPC   C2B51728  13.374  21.701   6.573
 3850POPC   C3B51729  13.413  21.586   6.986
 3850POPC   C4B51730  13.515  21.744   7.370
 3851POPC   NC351731   4.751  42.743   5.567
 3851POPC   PO451732   5.290  42.617   5.154
 3851POPC   GL151733   5.154  42.435   5.626
 3851POPC   GL251734   5.105  42.665   5.941
 3851POPC   C1A51735   4.973  42.181   6.022
 3851POPC   D2A51736   4.772  42.222   6.467
 3851POPC   C3A51737   5.021  42.281   6.874
 3851POPC   C4A51738   5.029  42.302   7.349
 3851POPC   C1B51739   4.776  42.766   6.285
 3851POPC   C2B51740   4.655  42.647   6.739
 3851POPC   C3B51741   4.633  42.595   7.179
 3851POPC   C4B51742   4.679  42.917   7.452
 3852POPC   NC351743   2.429  19.986   5.379
 3852POPC   PO451744   3.020  19.636   5.429
 3852POPC   GL151745   2.930  19.565   5.852
 3852POPC   GL251746   2.566  19.556   5.891
 3852POPC   C1A51747   2.985  19.761   6.261
 3852POPC   D2A51748   2.963  20.073   6.602
 3852POPC   C3A51749   2.960  19.849   7.002
 3852POPC   C4A51750   2.585  19.638   7.094
 3852POPC   C1B51751   2.522  19.938   6.112
 3852POPC   C2B51752   2.440  20.025   6.543
 3852POPC   C3B51753   2.568  20.228   6.895
 3852POPC   C4B51754   2.782  20.249   7.261
 3853POPC   NC351755  28.018  19.236   5.390
 3853POPC   PO451756  27.301  19.086   5.282
 3853POPC   GL151757  27.338  19.186   5.750
 3853POPC   GL251758  27.707  19.159   5.850
 3853POPC   C1A51759  27.345  19.133   6.214
 3853POPC   D2A51760  27.642  19.052   6.555
 3853POPC   C3A51761  27.405  18.847   6.920
 3853POPC   C4A51762  27.283  19.059   7.319
 3853POPC   C1B51763  27.643  18.736   6.110
 3853POPC   C2B51764  27.674  18.550   6.551
 3853POPC   C3B51765  27.922  18.762   6.903
 3853POPC   C4B51766  27.799  18.929   7.298
 3854POPC   NC351767  34.031  12.621   5.280
 3854POPC   PO451768  33.565  13.154   5.393
 3854POPC   GL151769  33.864  13.049   5.719
 3854POPC   GL251770  33.896  12.711   5.777
 3854POPC   C1A51771  33.774  13.007   6.181
 3854POPC   D2A51772  33.698  13.051   6.631
 3854POPC   C3A51773  33.748  12.841   7.039
 3854POPC   C4A51774  33.771  13.142   7.343
 3854POPC   C1B51775  34.137  12.629   6.166
 3854POPC   C2B51776  34.042  12.454   6.579
 3854POPC   C3B51777  34.097  12.450   7.036
 3854POPC   C4B51778  34.252  12.645   7.407
 3855POPC   NC351779  29.701  42.775   5.483
 3855POPC   PO451780  30.085  42.329   5.131
 3855POPC   GL151781  29.970  42.352   5.659
 3855POPC   GL251782  30.000  42.654   5.883
 3855POPC   C1A51783  29.973  42.219   6.135
 3855POPC   D2A51784  30.208  42.271   6.534
 3855POPC   C3A51785  29.992  42.242   6.916
 3855POPC   C4A51786  30.000  42.514   7.278
 3855POPC   C1B51787  29.672  42.714   6.163
 3855POPC   C2B51788  29.752  42.549   6.540
 3855POPC   C3B51789  29.646  42.627   6.920
 3855POPC   C4B51790  29.489  42.580   7.271
 3856POPC   NC351791  10.673   0.022   5.198
 3856POPC   PO451792  10.322  44.539   5.456
 3856POPC   GL151793  10.317  44.806   5.829
 3856POPC   GL251794  10.677  44.829   5.772
 3856POPC   C1A51795  10.321  44.904   6.298
 3856POPC   D2A51796  10.430  44.578   6.630
 3856POPC   C3A51797  10.301  44.495   7.071
 3856POPC   C4A51798  10.265  44.117   7.334
 3856POPC   C1B51799  10.825  44.756   6.217
 3856POPC   C2B51800  10.779  44.935   6.668
 3856POPC   C3B51801  10.755  44.741   7.098
 3856POPC   C4B51802  10.941  44.797   7.537
 3857POPC   NC351803   3.268  10.312   5.557
 3857POPC   PO451804   2.862   9.967   5.160
 3857POPC   GL151805   2.762  10.251   5.594
 3857POPC   GL251806   2.558  10.591   5.670
 3857POPC   C1A51807   2.858  10.374   6.079
 3857POPC   D2A51808   2.873  10.573   6.542
 3857POPC   C3A51809   2.672  10.391   6.944
 3857POPC   C4A51810   2.685  10.068   7.294
 3857POPC   C1B51811   2.558  10.777   6.143
 3857POPC   C2B51812   2.451  10.842   6.620
 3857POPC   C3B51813   2.576  10.890   7.068
 3857POPC   C4B51814   2.684  10.969   7.513
 3858POPC   NC351815  43.003  17.078   5.421
 3858POPC   PO451816  42.966  17.761   5.189
 3858POPC   GL151817  43.069  17.569   5.638
 3858POPC   GL251818  43.309  17.284   5.765
 3858POPC   C1A51819  42.958  17.483   6.104
 3858POPC   D2A51820  42.956  17.235   6.525
 3858POPC   C3A51821  42.919  17.500   6.898
 3858POPC   C4A51822  43.267  17.769   7.007
 3858POPC   C1B51823  43.468  17.404   6.171
 3858POPC   C2B51824  43.511  17.167   6.561
 3858POPC   C3B51825  43.388  17.258   6.957
 3858POPC   C4B51826  43.552  17.469   7.292
 3859POPC   NC351827  44.231  23.564   5.199
 3859POPC   PO451828  43.740  23.823   5.058
 3859POPC   GL151829  43.942  23.800   5.552
 3859POPC   GL251830  43.602  23.848   5.740
 3859POPC   C1A51831  44.006  23.712   6.029
 3859POPC   D2A51832  44.143  23.614   6.495
 3859POPC   C3A51833  43.982  23.718   6.918
 3859POPC   C4A51834  44.154  23.906   7.292
 3859POPC   C1B51835  43.507  23.630   6.140
 3859POPC   C2B51836  43.593  23.622   6.578
 3859POPC   C3B51837  43.526  23.477   6.995
 3859POPC   C4B51838  43.603  23.778   7.278
 3860POPC   NC351839   6.703  44.758   5.441
 3860POPC   PO451840   6.357  44.326   5.785
 3860POPC   GL151841   6.620  44.637   5.936
 3860POPC   GL251842   6.970  44.695   5.888
 3860POPC   C1A51843   6.545  44.815   6.305
 3860POPC   D2A51844   6.521  44.994   6.669
 3860POPC   C3A51845   6.508  44.729   7.033
 3860POPC   C4A51846   6.334  44.800   7.424
 3860POPC   C1B51847   7.010  44.502   6.271
 3860POPC   C2B51848   6.817  44.533   6.670
 3860POPC   C3B51849   6.980  44.562   7.086
 3860POPC   C4B51850   6.870  44.864   7.425
 3861POPC   NC351851  34.865  18.503   5.404
 3861POPC   PO451852  34.257  18.175   5.448
 3861POPC   GL151853  34.469  18.278   5.822
 3861POPC   GL251854  34.563  18.616   5.813
 3861POPC   C1A51855  34.480  18.099   6.253
 3861POPC   D2A51856  34.272  18.101   6.665
 3861POPC   C3A51857  34.580  18.141   7.002
 3861POPC   C4A51858  35.006  18.006   7.033
 3861POPC   C1B51859  34.795  18.838   6.118
 3861POPC   C2B51860  34.978  18.764   6.484
 3861POPC   C3B51861  34.757  18.753   6.878
 3861POPC   C4B51862  34.808  18.894   7.268
 3862POPC   NC351863  27.797  28.160   5.112
 3862POPC   PO451864  27.395  28.713   5.325
 3862POPC   GL151865  27.477  28.487   5.730
 3862POPC   GL251866  27.762  28.295   5.752
 3862POPC   C1A51867  27.566  28.459   6.191
 3862POPC   D2A51868  27.413  28.445   6.597
 3862POPC   C3A51869  27.663  28.469   6.928
 3862POPC   C4A51870  27.574  28.619   7.333
 3862POPC   C1B51871  27.770  27.986   6.110
 3862POPC   C2B51872  27.761  28.050   6.551
 3862POPC   C3B51873  27.537  27.959   6.942
 3862POPC   C4B51874  27.618  28.115   7.323
 3863POPC   NC351875  10.782  29.838   5.376
 3863POPC   PO451876  10.429  30.359   5.264
 3863POPC   GL151877  10.632  30.218   5.712
 3863POPC   GL251878  10.638  29.877   5.864
 3863POPC   C1A51879  10.480  30.245   6.183
 3863POPC   D2A51880  10.583  30.005   6.564
 3863POPC   C3A51881  10.607  30.064   7.030
 3863POPC   C4A51882  10.914  29.766   7.213
 3863POPC   C1B51883  10.287  29.769   6.140
 3863POPC   C2B51884  10.165  29.676   6.538
 3863POPC   C3B51885  10.351  29.603   6.933
 3863POPC   C4B51886  10.172  29.810   7.280
 3864POPC   NC351887  43.064  10.275   5.627
 3864POPC   PO451888  43.480  10.778   5.446
 3864POPC   GL151889  43.328  10.686   5.859
 3864POPC   GL251890  42.980  10.738   5.890
 3864POPC   C1A51891  43.385  10.372   6.199
 3864POPC   D2A51892  43.503  10.146   6.552
 3864POPC   C3A51893  43.516  10.422   6.862
 3864POPC   C4A51894  43.535  10.488   7.277
 3864POPC   C1B51895  42.897  10.422   6.253
 3864POPC   C2B51896  43.039  10.347   6.678
 3864POPC   C3B51897  43.052  10.382   7.121
 3864POPC   C4B51898  42.977  10.130   7.483
 3865POPC   NC351899  39.694  22.067   5.315
 3865POPC   PO451900  39.057  22.253   5.177
 3865POPC   GL151901  39.042  22.057   5.634
 3865POPC   GL251902  39.365  22.139   5.814
 3865POPC   C1A51903  39.027  21.829   6.075
 3865POPC   D2A51904  39.108  21.980   6.524
 3865POPC   C3A51905  39.104  21.741   6.903
 3865POPC   C4A51906  39.047  21.906   7.326
 3865POPC   C1B51907  39.551  21.994   6.239
 3865POPC   C2B51908  39.617  21.885   6.693
 3865POPC   C3B51909  39.470  22.067   7.074
 3865POPC   C4B51910  39.145  22.403   7.130
 3866POPC   NC351911  35.030  21.628   5.169
 3866POPC   PO451912  34.494  21.605   5.424
 3866POPC   GL151913  34.532  21.209   5.659
 3866POPC   GL251914  34.844  21.276   5.836
 3866POPC   C1A51915  34.471  21.010   6.065
 3866POPC   D2A51916  34.382  21.131   6.479
 3866POPC   C3A51917  34.630  21.090   6.851
 3866POPC   C4A51918  34.397  21.058   7.228
 3866POPC   C1B51919  34.593  21.500   6.167
 3866POPC   C2B51920  34.570  21.587   6.636
 3866POPC   C3B51921  34.662  21.599   7.100
 3866POPC   C4B51922  34.488  21.529   7.549
 3867POPC   NC351923  32.297  44.376   5.423
 3867POPC   PO451924  32.943  44.626   5.367
 3867POPC   GL151925  33.084  44.788   5.754
 3867POPC   GL251926  33.328   0.032   5.674
 3867POPC   C1A51927  33.292  44.586   6.107
 3867POPC   D2A51928  33.202  44.347   6.464
 3867POPC   C3A51929  33.245  44.560   6.877
 3867POPC   C4A51930  33.197  44.363   7.267
 3867POPC   C1B51931  33.272   0.094   6.131
 3867POPC   C2B51932  33.064  44.871   6.493
 3867POPC   C3B51933  32.863  44.878   6.912
 3867POPC   C4B51934  33.054  44.843   7.311
 3868POPC   NC351935   2.425  30.954   4.995
 3868POPC   PO451936   2.847  30.920   5.470
 3868POPC   GL151937   2.779  30.642   5.787
 3868POPC   GL251938   3.068  30.446   5.619
 3868POPC   C1A51939   2.828  30.777   6.233
 3868POPC   D2A51940   2.699  30.661   6.652
 3868POPC   C3A51941   2.914  30.811   7.000
 3868POPC   C4A51942   2.716  30.888   7.390
 3868POPC   C1B51943   3.137  30.384   6.056
 3868POPC   C2B51944   3.120  30.400   6.483
 3868POPC   C3B51945   3.002  30.303   6.884
 3868POPC   C4B51946   3.057  30.443   7.331
 3869POPC   NC351947   7.572  21.517   5.468
 3869POPC   PO451948   6.983  21.050   5.309
 3869POPC   GL151949   7.201  21.266   5.693
 3869POPC   GL251950   7.404  21.046   5.862
 3869POPC   C1A51951   7.464  21.505   6.104
 3869POPC   D2A51952   7.641  21.554   6.558
 3869POPC   C3A51953   7.360  21.648   6.921
 3869POPC   C4A51954   7.153  21.250   7.120
 3869POPC   C1B51955   7.791  21.101   6.111
 3869POPC   C2B51956   7.923  21.118   6.528
 3869POPC   C3B51957   7.691  21.086   6.904
 3869POPC   C4B51958   7.633  21.368   7.242
 3870POPC   NC351959  31.068  14.578   5.535
 3870POPC   PO451960  30.471  14.351   5.420
 3870POPC   GL151961  30.647  14.363   5.813
 3870POPC   GL251962  30.377  14.179   5.945
 3870POPC   C1A51963  30.863  14.567   6.162
 3870POPC   D2A51964  30.862  14.721   6.592
 3870POPC   C3A51965  30.827  14.367   6.874
 3870POPC   C4A51966  30.650  14.513   7.217
 3870POPC   C1B51967  30.653  14.110   6.313
 3870POPC   C2B51968  30.538  13.954   6.724
 3870POPC   C3B51969  30.344  14.155   7.059
 3870POPC   C4B51970  30.469  14.149   7.514
 3871POPC   NC351971   9.770  29.561   5.399
 3871POPC   PO451972   9.966  28.885   5.378
 3871POPC   GL151973   9.765  29.122   5.682
 3871POPC   GL251974   9.994  29.319   5.776
 3871POPC   C1A51975   9.645  29.093   6.090
 3871POPC   D2A51976   9.867  28.900   6.443
 3871POPC   C3A51977   9.702  28.946   6.852
 3871POPC   C4A51978   9.575  29.111   7.217
 3871POPC   C1B51979  10.117  29.284   6.193
 3871POPC   C2B51980  10.279  29.169   6.584
 3871POPC   C3B51981  10.187  28.949   6.914
 3871POPC   C4B51982  10.118  29.200   7.277
 3872POPC   NC351983  11.018  10.601   5.441
 3872POPC   PO451984  10.281  10.579   5.450
 3872POPC   GL151985  10.465  10.774   5.833
 3872POPC   GL251986  10.836  10.898   5.833
 3872POPC   C1A51987  10.308  10.662   6.244
 3872POPC   D2A51988  10.315  10.345   6.579
 3872POPC   C3A51989  10.607  10.414   6.909
 3872POPC   C4A51990  10.784  10.591   7.266
 3872POPC   C1B51991  10.834  10.591   6.223
 3872POPC   C2B51992  11.010  10.351   6.599
 3872POPC   C3B51993  11.094  10.225   7.040
 3872POPC   C4B51994  11.074  10.292   7.550
 3873POPC   NC351995  40.125  25.470   5.091
 3873POPC   PO451996  40.200  26.066   5.392
 3873POPC   GL151997  40.072  26.111   5.799
 3873POPC   GL251998  40.413  26.102   5.861
 3873POPC   C1A51999  39.802  25.982   6.122
 3873POPC   D2A52000  39.813  26.153   6.515
 3873POPC   C3A52001  39.891  25.935   6.897
 3873POPC   C4A52002  39.931  26.098   7.308
 3873POPC   C1B52003  40.296  25.990   6.274
 3873POPC   C2B52004  40.298  26.225   6.664
 3873POPC   C3B52005  40.372  26.242   7.098
 3873POPC   C4B52006  40.495  26.412   7.508
 3874POPC   NC352007  21.961  28.783   5.371
 3874POPC   PO452008  22.513  29.145   5.300
 3874POPC   GL152009  22.320  29.013   5.720
 3874POPC   GL252010  21.939  28.996   5.818
 3874POPC   C1A52011  22.278  29.218   6.141
 3874POPC   D2A52012  22.419  29.066   6.524
 3874POPC   C3A52013  22.476  29.250   6.925
 3874POPC   C4A52014  22.125  29.314   7.205
 3874POPC   C1B52015  22.057  28.720   6.151
 3874POPC   C2B52016  22.012  28.769   6.597
 3874POPC   C3B52017  22.080  28.829   7.027
 3874POPC   C4B52018  21.935  28.741   7.450
 3875POPC   NC352019  32.281  26.729   5.303
 3875POPC   PO452020  32.602  27.298   5.537
 3875POPC   GL152021  32.427  27.092   5.861
 3875POPC   GL252022  32.301  26.747   5.806
 3875POPC   C1A52023  32.486  26.871   6.247
 3875POPC   D2A52024  32.348  26.811   6.627
 3875POPC   C3A52025  32.536  26.733   7.010
 3875POPC   C4A52026  32.426  26.974   7.385
 3875POPC   C1B52027  32.049  26.604   6.192
 3875POPC   C2B52028  32.084  26.396   6.614
 3875POPC   C3B52029  32.036  26.646   7.013
 3875POPC   C4B52030  32.156  26.545   7.430
 3876POPC   NC352031  40.475  19.147   5.452
 3876POPC   PO452032  41.118  18.975   5.432
 3876POPC   GL152033  41.037  18.986   5.844
 3876POPC   GL252034  40.741  19.198   5.904
 3876POPC   C1A52035  41.040  18.963   6.261
 3876POPC   D2A52036  41.047  19.271   6.575
 3876POPC   C3A52037  40.856  19.172   6.963
 3876POPC   C4A52038  40.966  18.945   7.316
 3876POPC   C1B52039  40.594  19.227   6.353
 3876POPC   C2B52040  40.646  19.567   6.687
 3876POPC   C3B52041  40.748  19.635   7.139
 3876POPC   C4B52042  40.637  19.307   7.436
 3877POPC   NC352043  31.337  30.601   5.348
 3877POPC   PO452044  31.792  30.159   5.670
 3877POPC   GL152045  31.689  30.572   5.813
 3877POPC   GL252046  31.414  30.798   5.816
 3877POPC   C1A52047  31.827  30.834   6.151
 3877POPC   D2A52048  31.722  30.770   6.582
 3877POPC   C3A52049  31.629  30.557   6.967
 3877POPC   C4A52050  31.681  30.776   7.341
 3877POPC   C1B52051  31.307  30.798   6.235
 3877POPC   C2B52052  31.259  30.953   6.632
 3877POPC   C3B52053  31.284  30.951   7.055
 3877POPC   C4B52054  31.176  30.619   7.334
 3878POPC   NC352055  11.912  31.549   5.448
 3878POPC   PO452056  12.605  31.423   5.478
 3878POPC   GL152057  12.302  31.549   5.799
 3878POPC   GL252058  12.025  31.293   5.866
 3878POPC   C1A52059  12.297  31.758   6.199
 3878POPC   D2A52060  12.448  31.593   6.618
 3878POPC   C3A52061  12.202  31.653   6.978
 3878POPC   C4A52062  12.260  31.534   7.459
 3878POPC   C1B52063  12.159  31.291   6.290
 3878POPC   C2B52064  12.223  31.087   6.672
 3878POPC   C3B52065  12.216  31.173   7.085
 3878POPC   C4B52066  11.993  31.106   7.449
 3879POPC   NC352067  12.446   5.542   5.553
 3879POPC   PO452068  12.014   5.063   5.273
 3879POPC   GL152069  12.024   5.030   5.742
 3879POPC   GL252070  11.985   4.709   5.893
 3879POPC   C1A52071  12.106   5.204   6.184
 3879POPC   D2A52072  12.245   5.302   6.611
 3879POPC   C3A52073  12.046   5.198   7.006
 3879POPC   C4A52074  12.199   4.870   7.278
 3879POPC   C1B52075  11.709   4.916   6.154
 3879POPC   C2B52076  11.613   5.186   6.501
 3879POPC   C3B52077  11.498   4.993   6.890
 3879POPC   C4B52078  11.683   4.872   7.272
 3880POPC   NC352079  43.752  21.499   5.194
 3880POPC   PO452080  44.255  21.193   5.433
 3880POPC   GL152081  43.993  21.215   5.779
 3880POPC   GL252082  43.689  21.426   5.722
 3880POPC   C1A52083  43.856  21.187   6.186
 3880POPC   D2A52084  44.001  21.386   6.580
 3880POPC   C3A52085  43.909  21.108   6.927
 3880POPC   C4A52086  43.969  21.358   7.251
 3880POPC   C1B52087  43.442  21.460   6.122
 3880POPC   C2B52088  43.506  21.225   6.568
 3880POPC   C3B52089  43.463  21.325   7.016
 3880POPC   C4B52090  43.500  21.627   7.359
 3881POPC   NC352091  20.936   0.883   5.460
 3881POPC   PO452092  20.715   1.459   5.205
 3881POPC   GL152093  20.649   1.465   5.725
 3881POPC   GL252094  20.920   1.238   5.870
 3881POPC   C1A52095  20.422   1.441   6.176
 3881POPC   D2A52096  20.314   1.148   6.546
 3881POPC   C3A52097  20.479   1.176   6.974
 3881POPC   C4A52098  20.624   1.570   7.116
 3881POPC   C1B52099  20.819   1.158   6.315
 3881POPC   C2B52100  20.931   1.360   6.722
 3881POPC   C3B52101  21.001   1.188   7.138
 3881POPC   C4B52102  20.766   0.970   7.451
 3882POPC   NC352103  37.479   4.663   5.587
 3882POPC   PO452104  37.804   5.129   5.204
 3882POPC   GL152105  37.769   5.101   5.686
 3882POPC   GL252106  37.882   4.767   5.888
 3882POPC   C1A52107  37.581   5.267   6.079
 3882POPC   D2A52108  37.653   5.339   6.527
 3882POPC   C3A52109  37.755   5.007   6.806
 3882POPC   C4A52110  37.763   5.106   7.224
 3882POPC   C1B52111  37.637   4.805   6.310
 3882POPC   C2B52112  37.346   4.719   6.680
 3882POPC   C3B52113  37.365   4.816   7.152
 3882POPC   C4B52114  37.137   4.778   7.564
 3883POPC   NC352115  22.094  27.897   5.438
 3883POPC   PO452116  22.498  27.446   5.207
 3883POPC   GL152117  22.434  27.569   5.682
 3883POPC   GL252118  22.094  27.578   5.857
 3883POPC   C1A52119  22.496  27.694   6.150
 3883POPC   D2A52120  22.478  27.968   6.521
 3883POPC   C3A52121  22.430  27.863   6.989
 3883POPC   C4A52122  22.213  27.566   7.268
 3883POPC   C1B52123  22.024  27.730   6.324
 3883POPC   C2B52124  21.964  27.638   6.789
 3883POPC   C3B52125  21.807  27.307   7.100
 3883POPC   C4B52126  21.842  27.340   7.557
 3884POPC   NC352127  29.130  33.165   5.543
 3884POPC   PO452128  29.495  32.720   5.670
 3884POPC   GL152129  29.099  32.756   5.930
 3884POPC   GL252130  28.806  32.977   5.879
 3884POPC   C1A52131  29.203  32.909   6.321
 3884POPC   D2A52132  29.577  32.829   6.577
 3884POPC   C3A52133  29.422  32.756   6.985
 3884POPC   C4A52134  29.034  32.748   7.199
 3884POPC   C1B52135  28.701  32.989   6.320
 3884POPC   C2B52136  28.756  32.911   6.796
 3884POPC   C3B52137  28.647  33.116   7.230
 3884POPC   C4B52138  28.492  33.134   7.697
 3885POPC   NC352139  30.041  37.419   5.393
 3885POPC   PO452140  30.056  38.066   5.296
 3885POPC   GL152141  29.879  37.913   5.689
 3885POPC   GL252142  29.646  37.630   5.758
 3885POPC   C1A52143  29.972  37.775   6.128
 3885POPC   D2A52144  29.843  37.949   6.528
 3885POPC   C3A52145  29.973  37.735   6.904
 3885POPC   C4A52146  30.091  37.327   7.068
 3885POPC   C1B52147  29.473  37.729   6.232
 3885POPC   C2B52148  29.475  37.646   6.722
 3885POPC   C3B52149  29.516  37.830   7.156
 3885POPC   C4B52150  29.496  37.648   7.598
 3886POPC   NC352151   8.119   2.572   5.342
 3886POPC   PO452152   8.539   2.982   5.381
 3886POPC   GL152153   8.344   2.801   5.786
 3886POPC   GL252154   8.109   2.513   5.851
 3886POPC   C1A52155   8.229   2.965   6.200
 3886POPC   D2A52156   8.345   2.823   6.609
 3886POPC   C3A52157   8.102   2.942   6.917
 3886POPC   C4A52158   8.284   2.976   7.303
 3886POPC   C1B52159   8.334   2.450   6.252
 3886POPC   C2B52160   8.316   2.318   6.707
 3886POPC   C3B52161   8.302   2.493   7.116
 3886POPC   C4B52162   8.189   2.527   7.584
 3887POPC   NC352163  36.536  23.620   5.473
 3887POPC   PO452164  37.115  23.988   5.537
 3887POPC   GL152165  36.892  23.738   5.818
 3887POPC   GL252166  36.636  23.978   5.815
 3887POPC   C1A52167  36.660  23.514   6.144
 3887POPC   D2A52168  36.713  23.348   6.549
 3887POPC   C3A52169  36.999  23.639   6.789
 3887POPC   C4A52170  37.024  23.724   7.249
 3887POPC   C1B52171  36.767  24.036   6.224
 3887POPC   C2B52172  36.597  23.862   6.583
 3887POPC   C3B52173  36.596  23.914   6.998
 3887POPC   C4B52174  36.812  24.210   7.186
 3888POPC   NC352175   2.548  22.180   5.313
 3888POPC   PO452176   3.154  21.897   5.395
 3888POPC   GL152177   2.913  22.106   5.776
 3888POPC   GL252178   2.553  22.149   5.823
 3888POPC   C1A52179   3.031  22.262   6.223
 3888POPC   D2A52180   2.857  22.485   6.639
 3888POPC   C3A52181   3.067  22.499   7.054
 3888POPC   C4A52182   3.143  22.353   7.477
 3888POPC   C1B52183   2.547  22.225   6.275
 3888POPC   C2B52184   2.781  21.990   6.625
 3888POPC   C3B52185   2.721  22.124   7.051
 3888POPC   C4B52186   2.648  22.440   7.400
 3889POPC   NC352187   6.239   9.921   5.291
 3889POPC   PO452188   5.717   9.499   5.425
 3889POPC   GL152189   5.912   9.842   5.700
 3889POPC   GL252190   6.198  10.079   5.764
 3889POPC   C1A52191   5.904   9.765   6.143
 3889POPC   D2A52192   5.674   9.536   6.466
 3889POPC   C3A52193   5.675   9.727   6.878
 3889POPC   C4A52194   5.643   9.465   7.237
 3889POPC   C1B52195   6.392  10.190   6.154
 3889POPC   C2B52196   6.222  10.066   6.525
 3889POPC   C3B52197   6.158   9.922   6.920
 3889POPC   C4B52198   5.850  10.048   7.230
 3890POPC   NC352199  27.873   1.102   5.534
 3890POPC   PO452200  27.315   1.582   5.400
 3890POPC   GL152201  27.566   1.507   5.785
 3890POPC   GL252202  27.445   1.182   5.859
 3890POPC   C1A52203  27.718   1.404   6.231
 3890POPC   D2A52204  27.684   1.052   6.559
 3890POPC   C3A52205  27.938   1.128   6.936
 3890POPC   C4A52206  27.859   1.521   7.131
 3890POPC   C1B52207  27.337   0.879   6.181
 3890POPC   C2B52208  27.177   0.884   6.599
 3890POPC   C3B52209  27.158   0.899   7.036
 3890POPC   C4B52210  27.533   1.006   7.226
 3891POPC   NC352211  19.998  44.625   5.437
 3891POPC   PO452212  19.397  44.969   5.359
 3891POPC   GL152213  19.565  44.795   5.732
 3891POPC   GL252214  19.498  44.450   5.778
 3891POPC   C1A52215  19.875  44.836   6.075
 3891POPC   D2A52216  20.052  44.749   6.453
 3891POPC   C3A52217  19.883  44.862   6.837
 3891POPC   C4A52218  19.899  44.884   7.267
 3891POPC   C1B52219  19.818  44.342   6.127
 3891POPC   C2B52220  19.785  44.334   6.597
 3891POPC   C3B52221  19.804  44.414   7.037
 3891POPC   C4B52222  19.554  44.264   7.368
 3892POPC   NC352223  18.667  36.303   5.656
 3892POPC   PO452224  18.337  35.946   5.200
 3892POPC   GL152225  18.442  35.807   5.736
 3892POPC   GL252226  18.317  36.101   5.944
 3892POPC   C1A52227  18.524  35.747   6.217
 3892POPC   D2A52228  18.594  36.078   6.531
 3892POPC   C3A52229  18.647  35.918   6.922
 3892POPC   C4A52230  18.565  36.086   7.307
 3892POPC   C1B52231  18.159  36.292   6.321
 3892POPC   C2B52232  18.239  36.463   6.740
 3892POPC   C3B52233  18.183  36.390   7.188
 3892POPC   C4B52234  18.039  36.390   7.631
 3893POPC   NC352235   5.008  28.820   5.416
 3893POPC   PO452236   5.263  28.261   5.492
 3893POPC   GL152237   5.304  28.585   5.799
 3893POPC   GL252238   4.967  28.523   5.936
 3893POPC   C1A52239   5.318  28.680   6.270
 3893POPC   D2A52240   5.026  28.522   6.589
 3893POPC   C3A52241   5.158  28.531   7.019
 3893POPC   C4A52242   5.558  28.557   7.258
 3893POPC   C1B52243   5.187  28.189   6.212
 3893POPC   C2B52244   5.180  28.024   6.642
 3893POPC   C3B52245   5.001  27.890   7.067
 3893POPC   C4B52246   4.820  27.665   7.438
 3894POPC   NC352247  24.909   4.457   5.255
 3894POPC   PO452248  25.539   4.321   5.268
 3894POPC   GL152249  25.312   4.390   5.677
 3894POPC   GL252250  25.073   4.107   5.701
 3894POPC   C1A52251  25.495   4.401   6.104
 3894POPC   D2A52252  25.684   4.161   6.458
 3894POPC   C3A52253  25.558   4.314   6.854
 3894POPC   C4A52254  25.472   4.215   7.251
 3894POPC   C1B52255  24.993   4.219   6.150
 3894POPC   C2B52256  25.163   4.078   6.576
 3894POPC   C3B52257  25.035   4.124   6.981
 3894POPC   C4B52258  24.862   3.973   7.378
 3895POPC   NC352259  10.923  15.418   5.464
 3895POPC   PO452260  11.436  15.220   5.025
 3895POPC   GL152261  11.417  15.219   5.523
 3895POPC   GL252262  11.745  15.249   5.719
 3895POPC   C1A52263  11.314  15.281   6.008
 3895POPC   D2A52264  11.388  15.148   6.461
 3895POPC   C3A52265  11.361  15.303   6.906
 3895POPC   C4A52266  11.114  15.497   7.230
 3895POPC   C1B52267  11.745  14.977   6.123
 3895POPC   C2B52268  11.791  14.821   6.564
 3895POPC   C3B52269  11.709  14.912   7.022
 3895POPC   C4B52270  11.657  14.787   7.436
 3896POPC   NC352271  22.751   2.590   5.358
 3896POPC   PO452272  22.795   3.204   5.102
 3896POPC   GL152273  22.861   3.065   5.588
 3896POPC   GL252274  23.056   2.752   5.732
 3896POPC   C1A52275  22.739   3.018   6.024
 3896POPC   D2A52276  22.653   2.716   6.387
 3896POPC   C3A52277  22.891   2.805   6.754
 3896POPC   C4A52278  22.922   2.846   7.179
 3896POPC   C1B52279  23.174   2.774   6.199
 3896POPC   C2B52280  23.265   2.508   6.587
 3896POPC   C3B52281  23.057   2.371   6.991
 3896POPC   C4B52282  23.205   2.408   7.443
 3897POPC   NC352283  31.974  15.492   5.539
 3897POPC   PO452284  32.381  14.953   5.403
 3897POPC   GL152285  32.175  15.068   5.729
 3897POPC   GL252286  31.900  14.906   5.646
 3897POPC   C1A52287  32.229  15.211   6.139
 3897POPC   D2A52288  32.364  15.564   6.411
 3897POPC   C3A52289  32.365  15.449   6.860
 3897POPC   C4A52290  32.365  15.026   7.062
 3897POPC   C1B52291  31.752  14.871   6.032
 3897POPC   C2B52292  31.883  14.799   6.433
 3897POPC   C3B52293  31.753  14.856   6.855
 3897POPC   C4B52294  31.905  14.997   7.247
 3898POPC   NC352295  11.128  20.298   5.450
 3898POPC   PO452296  11.405  20.871   5.504
 3898POPC   GL152297  11.354  20.608   5.840
 3898POPC   GL252298  11.067  20.768   5.879
 3898POPC   C1A52299  11.425  20.705   6.289
 3898POPC   D2A52300  11.425  20.813   6.720
 3898POPC   C3A52301  11.245  20.742   7.119
 3898POPC   C4A52302  11.446  21.029   7.436
 3898POPC   C1B52303  10.983  20.468   6.192
 3898POPC   C2B52304  11.007  20.537   6.610
 3898POPC   C3B52305  10.776  20.375   6.945
 3898POPC   C4B52306  10.890  20.394   7.353
 3899POPC   NC352307   5.472  18.274   5.355
 3899POPC   PO452308   6.069  18.668   5.264
 3899POPC   GL152309   5.887  18.512   5.672
 3899POPC   GL252310   5.689  18.202   5.810
 3899POPC   C1A52311   6.031  18.438   6.120
 3899POPC   D2A52312   5.949  18.135   6.417
 3899POPC   C3A52313   5.838  18.302   6.829
 3899POPC   C4A52314   5.842  18.595   7.210
 3899POPC   C1B52315   5.559  18.566   6.070
 3899POPC   C2B52316   5.592  18.712   6.477
 3899POPC   C3B52317   5.442  18.628   6.878
 3899POPC   C4B52318   5.429  18.283   7.186
 3900POPC   NC352319  35.860  27.968   5.395
 3900POPC   PO452320  36.339  27.463   5.445
 3900POPC   GL152321  36.218  27.662   5.795
 3900POPC   GL252322  35.862  27.639   5.797
 3900POPC   C1A52323  36.160  27.461   6.183
 3900POPC   D2A52324  36.229  27.699   6.537
 3900POPC   C3A52325  36.041  27.492   6.853
 3900POPC   C4A52326  36.171  27.208   7.110
 3900POPC   C1B52327  35.935  27.949   6.149
 3900POPC   C2B52328  35.946  28.131   6.598
 3900POPC   C3B52329  35.994  27.980   7.034
 3900POPC   C4B52330  35.824  27.630   7.294
 3901POPC   NC352331  23.371  43.667   5.435
 3901POPC   PO452332  23.789  43.064   5.316
 3901POPC   GL152333  23.637  43.161   5.706
 3901POPC   GL252334  23.815  43.434   5.846
 3901POPC   C1A52335  23.713  43.020   6.135
 3901POPC   D2A52336  23.486  43.090   6.519
 3901POPC   C3A52337  23.645  43.011   6.932
 3901POPC   C4A52338  23.354  42.876   7.235
 3901POPC   C1B52339  23.650  43.519   6.285
 3901POPC   C2B52340  23.655  43.499   6.769
 3901POPC   C3B52341  23.978  43.523   7.115
 3901POPC   C4B52342  24.075  43.392   7.556
 3902POPC   NC352343  14.159  31.523   5.322
 3902POPC   PO452344  14.771  31.652   5.396
 3902POPC   GL152345  14.469  31.569   5.720
 3902POPC   GL252346  14.536  31.228   5.755
 3902POPC   C1A52347  14.214  31.517   6.113
 3902POPC   D2A52348  13.896  31.450   6.477
 3902POPC   C3A52349  14.084  31.478   6.908
 3902POPC   C4A52350  14.076  31.728   7.290
 3902POPC   C1B52351  14.750  31.440   6.108
 3902POPC   C2B52352  14.691  31.409   6.520
 3902POPC   C3B52353  14.787  31.392   6.943
 3902POPC   C4B52354  14.453  31.314   7.259
 3903POPC   NC352355  15.730  44.794   5.462
 3903POPC   PO452356  15.001  44.839   5.441
 3903POPC   GL152357  15.265  44.667   5.730
 3903POPC   GL252358  15.240  44.971   5.945
 3903POPC   C1A52359  15.358  44.523   6.162
 3903POPC   D2A52360  15.213  44.728   6.542
 3903POPC   C3A52361  14.984  44.520   6.881
 3903POPC   C4A52362  14.873  44.524   7.309
 3903POPC   C1B52363  15.472   0.163   6.301
 3903POPC   C2B52364  15.590   0.033   6.721
 3903POPC   C3B52365  15.379  44.813   7.047
 3903POPC   C4B52366  15.653  44.643   7.385
 3904POPC   NC352367  26.471  41.307   4.993
 3904POPC   PO452368  26.770  41.753   5.164
 3904POPC   GL152369  26.802  41.788   5.668
 3904POPC   GL252370  26.719  41.480   5.868
 3904POPC   C1A52371  26.892  41.892   6.141
 3904POPC   D2A52372  27.032  41.991   6.583
 3904POPC   C3A52373  26.832  41.949   7.019
 3904POPC   C4A52374  27.001  41.625   7.316
 3904POPC   C1B52375  26.750  41.432   6.337
 3904POPC   C2B52376  26.833  41.493   6.783
 3904POPC   C3B52377  26.557  41.462   7.148
 3904POPC   C4B52378  26.642  41.336   7.602
 3905POPC   NC352379  27.831  15.541   5.434
 3905POPC   PO452380  27.860  14.913   5.400
 3905POPC   GL152381  27.793  15.151   5.773
 3905POPC   GL252382  27.522  15.369   5.825
 3905POPC   C1A52383  27.909  15.158   6.190
 3905POPC   D2A52384  27.718  15.110   6.578
 3905POPC   C3A52385  27.869  15.258   6.963
 3905POPC   C4A52386  27.809  15.016   7.305
 3905POPC   C1B52387  27.355  15.178   6.231
 3905POPC   C2B52388  27.268  15.283   6.695
 3905POPC   C3B52389  27.382  15.315   7.135
 3905POPC   C4B52390  27.238  15.596   7.494
 3906POPC   NC352391  40.303  38.839   5.552
 3906POPC   PO452392  39.827  38.342   5.493
 3906POPC   GL152393  40.104  38.430   5.825
 3906POPC   GL252394  39.945  38.777   5.907
 3906POPC   C1A52395  40.121  38.468   6.274
 3906POPC   D2A52396  39.832  38.709   6.547
 3906POPC   C3A52397  39.928  38.577   6.948
 3906POPC   C4A52398  40.316  38.477   7.132
 3906POPC   C1B52399  40.180  38.984   6.244
 3906POPC   C2B52400  40.322  38.779   6.657
 3906POPC   C3B52401  40.253  38.960   7.074
 3906POPC   C4B52402  40.239  38.808   7.515
 3907POPC   NC352403   6.733  43.111   5.469
 3907POPC   PO452404   6.123  43.384   5.548
 3907POPC   GL152405   6.454  43.319   5.875
 3907POPC   GL252406   6.856  43.264   5.925
 3907POPC   C1A52407   6.528  43.157   6.296
 3907POPC   D2A52408   6.793  43.186   6.629
 3907POPC   C3A52409   6.490  43.134   6.943
 3907POPC   C4A52410   6.361  43.249   7.357
 3907POPC   C1B52411   6.940  42.856   6.189
 3907POPC   C2B52412   7.016  42.594   6.559
 3907POPC   C3B52413   7.003  42.824   6.955
 3907POPC   C4B52414   6.790  42.946   7.313
 3908POPC   NC352415  31.591  13.048   5.345
 3908POPC   PO452416  31.255  12.524   5.398
 3908POPC   GL152417  31.299  12.871   5.757
 3908POPC   GL252418  31.044  13.128   5.850
 3908POPC   C1A52419  31.518  12.882   6.183
 3908POPC   D2A52420  31.668  12.626   6.561
 3908POPC   C3A52421  31.657  12.835   6.961
 3908POPC   C4A52422  31.540  12.806   7.417
 3908POPC   C1B52423  31.082  13.127   6.295
 3908POPC   C2B52424  31.232  12.882   6.651
 3908POPC   C3B52425  31.199  12.995   7.105
 3908POPC   C4B52426  31.100  13.083   7.559
 3909POPC   NC352427  13.902  42.803   5.370
 3909POPC   PO452428  13.525  43.328   5.417
 3909POPC   GL152429  13.464  43.463   5.835
 3909POPC   GL252430  13.766  43.313   5.943
 3909POPC   C1A52431  13.380  43.389   6.279
 3909POPC   D2A52432  13.520  43.393   6.703
 3909POPC   C3A52433  13.367  43.379   7.129
 3909POPC   C4A52434  13.615  43.402   7.558
 3909POPC   C1B52435  13.732  43.047   6.347
 3909POPC   C2B52436  13.698  42.920   6.803
 3909POPC   C3B52437  13.699  43.002   7.243
 3909POPC   C4B52438  13.749  42.920   7.691
 3910POPC   NC352439  10.136  30.163   5.542
 3910POPC   PO452440   9.515  29.960   5.340
 3910POPC   GL152441   9.679  30.048   5.761
 3910POPC   GL252442   9.903  29.811   5.818
 3910POPC   C1A52443   9.848  30.106   6.215
 3910POPC   D2A52444   9.557  29.944   6.542
 3910POPC   C3A52445   9.552  29.870   6.996
 3910POPC   C4A52446   9.795  30.165   7.248
 3910POPC   C1B52447   9.709  29.607   6.149
 3910POPC   C2B52448   9.738  29.396   6.536
 3910POPC   C3B52449   9.855  29.458   6.938
 3910POPC   C4B52450   9.742  29.557   7.368
 3911POPC   NC352451  40.043  18.438   5.350
 3911POPC   PO452452  39.464  18.132   5.512
 3911POPC   GL152453  39.719  18.490   5.781
 3911POPC   GL252454  40.103  18.550   5.842
 3911POPC   C1A52455  39.747  18.679   6.214
 3911POPC   D2A52456  39.917  18.596   6.669
 3911POPC   C3A52457  39.889  18.175   6.866
 3911POPC   C4A52458  39.920  18.024   7.311
 3911POPC   C1B52459  40.219  18.382   6.243
 3911POPC   C2B52460  40.430  18.402   6.644
 3911POPC   C3B52461  40.300  18.400   7.069
 3911POPC   C4B52462  40.077  18.535   7.404
 3912POPC   NC352463  33.908  13.488   5.467
 3912POPC   PO452464  33.898  14.139   5.256
 3912POPC   GL152465  34.137  13.985   5.723
 3912POPC   GL252466  34.002  13.618   5.932
 3912POPC   C1A52467  34.174  13.978   6.211
 3912POPC   D2A52468  34.260  13.563   6.420
 3912POPC   C3A52469  34.030  13.442   6.801
 3912POPC   C4A52470  34.110  13.556   7.245
 3912POPC   C1B52471  33.756  13.527   6.326
 3912POPC   C2B52472  33.533  13.843   6.594
 3912POPC   C3B52473  33.385  13.950   7.007
 3912POPC   C4B52474  33.753  13.935   7.276
 3913POPC   NC352475  39.402  38.541   5.463
 3913POPC   PO452476  38.760  38.287   5.465
 3913POPC   GL152477  39.007  38.341   5.858
 3913POPC   GL252478  38.977  38.672   5.951
 3913POPC   C1A52479  39.356  38.468   6.197
 3913POPC   D2A52480  39.326  38.741   6.591
 3913POPC   C3A52481  39.412  38.532   7.012
 3913POPC   C4A52482  39.314  38.179   7.304
 3913POPC   C1B52483  38.873  38.481   6.385
 3913POPC   C2B52484  38.920  38.569   6.853
 3913POPC   C3B52485  38.881  38.509   7.299
 3913POPC   C4B52486  38.942  38.270   7.693
 3914POPC   NC352487   4.434  13.160   5.271
 3914POPC   PO452488   4.671  12.605   5.248
 3914POPC   GL152489   4.713  12.874   5.642
 3914POPC   GL252490   4.556  13.184   5.779
 3914POPC   C1A52491   4.797  12.886   6.129
 3914POPC   D2A52492   4.618  12.819   6.576
 3914POPC   C3A52493   4.682  12.844   7.054
 3914POPC   C4A52494   4.413  12.803   7.450
 3914POPC   C1B52495   4.428  13.216   6.255
 3914POPC   C2B52496   4.294  13.227   6.710
 3914POPC   C3B52497   4.326  13.215   7.164
 3914POPC   C4B52498   4.189  13.286   7.582
 3915POPC   NC352499  39.803  28.112   5.521
 3915POPC   PO452500  40.250  28.500   5.269
 3915POPC   GL152501  40.105  28.483   5.729
 3915POPC   GL252502  39.731  28.505   5.805
 3915POPC   C1A52503  40.154  28.222   6.142
 3915POPC   D2A52504  40.507  28.140   6.471
 3915POPC   C3A52505  40.372  28.147   6.904
 3915POPC   C4A52506  40.120  28.129   7.252
 3915POPC   C1B52507  39.675  28.354   6.252
 3915POPC   C2B52508  39.600  28.406   6.704
 3915POPC   C3B52509  39.769  28.478   7.118
 3915POPC   C4B52510  39.951  28.510   7.561
 3916POPC   NC352511   4.507  34.065   5.478
 3916POPC   PO452512   4.152  33.579   5.233
 3916POPC   GL152513   4.259  33.653   5.694
 3916POPC   GL252514   4.228  33.955   5.875
 3916POPC   C1A52515   4.391  33.545   6.144
 3916POPC   D2A52516   4.290  33.359   6.561
 3916POPC   C3A52517   4.260  33.658   6.880
 3916POPC   C4A52518   4.453  33.664   7.276
 3916POPC   C1B52519   4.571  34.059   6.151
 3916POPC   C2B52520   4.809  34.032   6.526
 3916POPC   C3B52521   4.631  34.019   6.945
 3916POPC   C4B52522   4.280  34.126   7.213
 3917POPC   NC352523  12.050   3.219   5.311
 3917POPC   PO452524  11.948   3.859   5.487
 3917POPC   GL152525  12.018   3.781   5.940
 3917POPC   GL252526  12.029   3.427   5.898
 3917POPC   C1A52527  12.019   3.737   6.378
 3917POPC   D2A52528  12.046   3.451   6.716
 3917POPC   C3A52529  12.163   3.626   7.116
 3917POPC   C4A52530  12.162   3.567   7.575
 3917POPC   C1B52531  12.340   3.375   6.222
 3917POPC   C2B52532  12.542   3.192   6.571
 3917POPC   C3B52533  12.397   3.161   6.961
 3917POPC   C4B52534  12.548   3.289   7.345
 3918POPC   NC352535   4.324  21.868   5.579
 3918POPC   PO452536   3.875  21.313   5.581
 3918POPC   GL152537   4.046  21.456   5.913
 3918POPC   GL252538   4.400  21.424   5.899
 3918POPC   C1A52539   3.902  21.257   6.297
 3918POPC   D2A52540   4.085  21.226   6.722
 3918POPC   C3A52541   4.144  21.647   6.867
 3918POPC   C4A52542   4.216  21.837   7.245
 3918POPC   C1B52543   4.412  21.191   6.324
 3918POPC   C2B52544   4.600  21.200   6.745
 3918POPC   C3B52545   4.492  21.387   7.175
 3918POPC   C4B52546   4.436  21.177   7.618
 3919POPC   NC352547  21.040  33.879   5.298
 3919POPC   PO452548  21.728  33.891   5.339
 3919POPC   GL152549  21.403  33.731   5.656
 3919POPC   GL252550  21.078  33.484   5.601
 3919POPC   C1A52551  21.497  33.739   6.107
 3919POPC   D2A52552  21.693  33.769   6.515
 3919POPC   C3A52553  21.397  33.772   6.854
 3919POPC   C4A52554  21.227  33.628   7.270
 3919POPC   C1B52555  20.992  33.686   5.987
 3919POPC   C2B52556  21.092  33.644   6.431
 3919POPC   C3B52557  20.931  33.584   6.848
 3919POPC   C4B52558  20.696  33.598   7.242
 3920POPC   NC352559  40.401  24.646   5.414
 3920POPC   PO452560  39.885  24.302   5.294
 3920POPC   GL152561  39.976  24.542   5.698
 3920POPC   GL252562  39.720  24.753   5.805
 3920POPC   C1A52563  40.182  24.521   6.135
 3920POPC   D2A52564  40.307  24.439   6.594
 3920POPC   C3A52565  39.971  24.407   6.924
 3920POPC   C4A52566  39.760  24.301   7.330
 3920POPC   C1B52567  39.654  24.578   6.223
 3920POPC   C2B52568  39.532  24.779   6.628
 3920POPC   C3B52569  39.789  24.889   7.000
 3920POPC   C4B52570  40.238  24.836   7.089
 3921POPC   NC352571  34.364  10.875   5.500
 3921POPC   PO452572  34.464  11.569   5.348
 3921POPC   GL152573  34.472  11.365   5.782
 3921POPC   GL252574  34.212  11.171   5.877
 3921POPC   C1A52575  34.694  11.317   6.191
 3921POPC   D2A52576  34.940  11.485   6.560
 3921POPC   C3A52577  34.773  11.301   6.955
 3921POPC   C4A52578  34.998  11.116   7.285
 3921POPC   C1B52579  34.286  11.015   6.284
 3921POPC   C2B52580  34.466  10.994   6.666
 3921POPC   C3B52581  34.489  10.863   7.108
 3921POPC   C4B52582  34.298  11.045   7.457
 3922POPC   NC352583   6.653  41.941   5.389
 3922POPC   PO452584   6.517  41.255   5.437
 3922POPC   GL152585   6.626  41.486   5.780
 3922POPC   GL252586   6.376  41.734   5.751
 3922POPC   C1A52587   6.753  41.361   6.191
 3922POPC   D2A52588   6.523  41.303   6.589
 3922POPC   C3A52589   6.692  41.385   6.974
 3922POPC   C4A52590   7.052  41.165   7.167
 3922POPC   C1B52591   6.594  41.910   6.094
 3922POPC   C2B52592   6.699  41.774   6.486
 3922POPC   C3B52593   6.618  41.913   6.879
 3922POPC   C4B52594   6.672  41.828   7.285
 3923POPC   NC352595   6.435  35.460   5.586
 3923POPC   PO452596   7.043  35.647   5.399
 3923POPC   GL152597   6.852  35.638   5.827
 3923POPC   GL252598   6.839  35.259   5.871
 3923POPC   C1A52599   6.897  35.534   6.287
 3923POPC   D2A52600   6.850  35.213   6.632
 3923POPC   C3A52601   6.805  35.379   7.060
 3923POPC   C4A52602   6.437  35.561   7.316
 3923POPC   C1B52603   6.518  35.209   6.187
 3923POPC   C2B52604   6.356  35.075   6.569
 3923POPC   C3B52605   6.465  35.008   7.017
 3923POPC   C4B52606   6.474  34.907   7.509
 3924POPC   NC352607   1.770  36.161   5.162
 3924POPC   PO452608   2.174  36.486   5.170
 3924POPC   GL152609   2.067  36.327   5.608
 3924POPC   GL252610   2.354  36.127   5.770
 3924POPC   C1A52611   2.119  36.446   6.097
 3924POPC   D2A52612   2.257  36.385   6.566
 3924POPC   C3A52613   2.038  36.424   6.997
 3924POPC   C4A52614   1.830  36.418   7.431
 3924POPC   C1B52615   2.305  35.981   6.240
 3924POPC   C2B52616   2.071  35.918   6.665
 3924POPC   C3B52617   2.162  35.945   7.117
 3924POPC   C4B52618   2.328  35.695   7.480
 3925POPC   NC352619  35.928   8.872   5.297
 3925POPC   PO452620  36.424   9.341   5.445
 3925POPC   GL152621  36.324   9.109   5.809
 3925POPC   GL252622  36.022   8.876   5.808
 3925POPC   C1A52623  36.300   9.065   6.246
 3925POPC   D2A52624  36.055   9.161   6.600
 3925POPC   C3A52625  36.210   8.926   6.944
 3925POPC   C4A52626  36.396   9.108   7.305
 3925POPC   C1B52627  35.832   8.834   6.224
 3925POPC   C2B52628  35.803   8.707   6.668
 3925POPC   C3B52629  35.704   8.845   7.075
 3925POPC   C4B52630  35.974   8.860   7.418
 3926POPC   NC352631   3.372  37.245   5.316
 3926POPC   PO452632   3.004  36.682   5.445
 3926POPC   GL152633   2.867  36.798   5.851
 3926POPC   GL252634   2.928  37.159   5.933
 3926POPC   C1A52635   2.966  36.759   6.266
 3926POPC   D2A52636   2.898  37.057   6.568
 3926POPC   C3A52637   2.793  36.893   6.950
 3926POPC   C4A52638   2.630  37.000   7.316
 3926POPC   C1B52639   2.542  37.033   6.181
 3926POPC   C2B52640   2.412  36.872   6.602
 3926POPC   C3B52641   2.227  36.905   7.025
 3926POPC   C4B52642   2.176  37.146   7.480
 3927POPC   NC352643  37.980  43.435   5.735
 3927POPC   PO452644  38.482  43.295   5.352
 3927POPC   GL152645  38.537  43.296   5.788
 3927POPC   GL252646  38.654  42.959   5.797
 3927POPC   C1A52647  38.345  43.172   6.225
 3927POPC   D2A52648  38.025  43.205   6.594
 3927POPC   C3A52649  38.168  43.002   6.985
 3927POPC   C4A52650  38.457  43.206   7.267
 3927POPC   C1B52651  38.861  43.066   6.149
 3927POPC   C2B52652  38.744  42.873   6.517
 3927POPC   C3B52653  38.795  42.953   6.941
 3927POPC   C4B52654  38.765  42.754   7.314
 3928POPC   NC352655  30.178  15.839   5.544
 3928POPC   PO452656  29.509  16.110   5.539
 3928POPC   GL152657  29.769  15.974   5.895
 3928POPC   GL252658  29.757  15.626   5.803
 3928POPC   C1A52659  30.108  16.072   6.248
 3928POPC   D2A52660  30.354  16.143   6.672
 3928POPC   C3A52661  30.217  16.048   7.109
 3928POPC   C4A52662  30.196  16.065   7.561
 3928POPC   C1B52663  29.920  15.574   6.204
 3928POPC   C2B52664  29.850  15.771   6.593
 3928POPC   C3B52665  29.762  15.638   6.999
 3928POPC   C4B52666  29.943  15.685   7.387
 3929POPC   NC352667  25.196   6.916   5.558
 3929POPC   PO452668  25.465   6.325   5.618
 3929POPC   GL152669  25.202   6.532   5.924
 3929POPC   GL252670  25.314   6.824   6.032
 3929POPC   C1A52671  25.050   6.436   6.343
 3929POPC   D2A52672  25.124   6.322   6.777
 3929POPC   C3A52673  25.498   6.453   6.992
 3929POPC   C4A52674  25.645   6.883   7.071
 3929POPC   C1B52675  25.068   6.946   6.349
 3929POPC   C2B52676  25.224   6.805   6.710
 3929POPC   C3B52677  25.138   6.785   7.111
 3929POPC   C4B52678  25.092   7.188   7.163
 3930POPC   NC352679   9.755   1.610   5.427
 3930POPC   PO452680   9.592   0.975   5.441
 3930POPC   GL152681   9.490   1.287   5.749
 3930POPC   GL252682   9.787   1.467   5.915
 3930POPC   C1A52683   9.430   1.166   6.165
 3930POPC   D2A52684   9.732   1.246   6.462
 3930POPC   C3A52685   9.692   1.305   6.888
 3930POPC   C4A52686  10.044   1.540   7.046
 3930POPC   C1B52687   9.903   1.029   6.007
 3930POPC   C2B52688  10.067   0.857   6.391
 3930POPC   C3B52689   9.973   0.830   6.837
 3930POPC   C4B52690   9.882   1.006   7.262
 3931POPC   NC352691  14.781  35.025   5.408
 3931POPC   PO452692  14.552  34.311   5.376
 3931POPC   GL152693  14.531  34.509   5.799
 3931POPC   GL252694  14.590  34.864   5.877
 3931POPC   C1A52695  14.476  34.414   6.252
 3931POPC   D2A52696  14.356  34.356   6.704
 3931POPC   C3A52697  14.624  34.488   7.033
 3931POPC   C4A52698  14.596  34.891   7.194
 3931POPC   C1B52699  14.211  34.865   6.172
 3931POPC   C2B52700  13.961  34.881   6.570
 3931POPC   C3B52701  14.115  34.800   6.989
 3931POPC   C4B52702  13.935  34.924   7.377
 3932POPC   NC352703  41.404  15.449   5.457
 3932POPC   PO452704  42.004  15.537   5.396
 3932POPC   GL152705  41.804  15.343   5.770
 3932POPC   GL252706  41.587  15.043   5.751
 3932POPC   C1A52707  41.502  15.435   6.116
 3932POPC   D2A52708  41.352  15.224   6.499
 3932POPC   C3A52709  41.550  15.354   6.869
 3932POPC   C4A52710  41.385  15.616   7.175
 3932POPC   C1B52711  41.684  14.960   6.203
 3932POPC   C2B52712  41.675  14.830   6.679
 3932POPC   C3B52713  41.604  14.912   7.140
 3932POPC   C4B52714  41.817  15.009   7.541
 3933POPC   NC352715  32.365  29.229   5.253
 3933POPC   PO452716  31.873  28.689   5.241
 3933POPC   GL152717  32.120  28.913   5.657
 3933POPC   GL252718  32.371  29.196   5.761
 3933POPC   C1A52719  32.228  28.944   6.160
 3933POPC   D2A52720  32.089  28.814   6.620
 3933POPC   C3A52721  32.082  29.083   6.944
 3933POPC   C4A52722  32.320  29.161   7.259
 3933POPC   C1B52723  32.055  29.404   6.088
 3933POPC   C2B52724  32.080  29.326   6.501
 3933POPC   C3B52725  32.356  29.493   6.829
 3933POPC   C4B52726  32.206  29.682   7.155
 3934POPC   NC352727  35.687  30.986   5.453
 3934POPC   PO452728  34.999  30.849   5.403
 3934POPC   GL152729  35.074  30.742   5.829
 3934POPC   GL252730  35.417  30.707   5.798
 3934POPC   C1A52731  35.220  30.535   6.242
 3934POPC   D2A52732  35.375  30.694   6.633
 3934POPC   C3A52733  35.210  30.474   6.978
 3934POPC   C4A52734  35.425  30.443   7.332
 3934POPC   C1B52735  35.438  31.004   6.161
 3934POPC   C2B52736  35.748  31.016   6.493
 3934POPC   C3B52737  35.658  31.132   6.909
 3934POPC   C4B52738  35.273  30.988   7.083
 3935POPC   NC352739  41.108   2.677   4.961
 3935POPC   PO452740  41.641   2.809   5.346
 3935POPC   GL152741  41.799   2.852   5.741
 3935POPC   GL252742  41.596   3.112   5.871
 3935POPC   C1A52743  41.951   2.683   6.116
 3935POPC   D2A52744  41.773   2.581   6.508
 3935POPC   C3A52745  41.951   2.756   6.868
 3935POPC   C4A52746  41.791   2.773   7.271
 3935POPC   C1B52747  41.434   2.758   6.092
 3935POPC   C2B52748  41.293   2.731   6.497
 3935POPC   C3B52749  41.471   2.960   6.837
 3935POPC   C4B52750  41.320   2.955   7.249
 3936POPC   NC352751  29.685  13.165   5.453
 3936POPC   PO452752  30.045  12.767   5.091
 3936POPC   GL152753  29.828  12.698   5.593
 3936POPC   GL252754  29.992  12.997   5.856
 3936POPC   C1A52755  29.808  12.605   6.098
 3936POPC   D2A52756  29.931  12.834   6.536
 3936POPC   C3A52757  29.828  12.798   7.020
 3936POPC   C4A52758  29.710  13.097   7.393
 3936POPC   C1B52759  30.300  12.761   6.171
 3936POPC   C2B52760  30.400  12.638   6.596
 3936POPC   C3B52761  30.315  12.965   6.895
 3936POPC   C4B52762  30.212  12.982   7.332
 3937POPC   NC352763  39.753  10.154   5.558
 3937POPC   PO452764  39.670   9.534   5.385
 3937POPC   GL152765  39.944   9.647   5.747
 3937POPC   GL252766  40.124   9.967   5.831
 3937POPC   C1A52767  40.076   9.615   6.189
 3937POPC   D2A52768  39.922   9.844   6.532
 3937POPC   C3A52769  39.990   9.657   6.922
 3937POPC   C4A52770  39.825   9.676   7.327
 3937POPC   C1B52771  40.291  10.115   6.201
 3937POPC   C2B52772  40.402  10.077   6.603
 3937POPC   C3B52773  40.284  10.187   7.016
 3937POPC   C4B52774  40.311   9.879   7.266
 3938POPC   NC352775   3.361  19.306   5.599
 3938POPC   PO452776   3.910  19.252   5.211
 3938POPC   GL152777   3.775  19.005   5.667
 3938POPC   GL252778   3.485  18.861   5.813
 3938POPC   C1A52779   3.819  19.070   6.152
 3938POPC   D2A52780   3.683  19.394   6.458
 3938POPC   C3A52781   3.454  19.238   6.820
 3938POPC   C4A52782   3.573  18.902   7.052
 3938POPC   C1B52783   3.317  18.960   6.238
 3938POPC   C2B52784   3.318  18.701   6.605
 3938POPC   C3B52785   3.089  18.734   6.984
 3938POPC   C4B52786   3.168  18.845   7.379
 3939POPC   NC352787  41.879  16.966   5.474
 3939POPC   PO452788  42.536  17.089   5.355
 3939POPC   GL152789  42.295  16.923   5.755
 3939POPC   GL252790  42.095  16.580   5.778
 3939POPC   C1A52791  42.305  16.777   6.193
 3939POPC   D2A52792  42.264  16.501   6.551
 3939POPC   C3A52793  42.292  16.719   6.905
 3939POPC   C4A52794  42.146  16.764   7.273
 3939POPC   C1B52795  41.867  16.512   6.195
 3939POPC   C2B52796  41.769  16.350   6.627
 3939POPC   C3B52797  42.007  16.296   6.992
 3939POPC   C4B52798  42.033  16.306   7.437
 3940POPC   NC352799  15.273  11.046   5.495
 3940POPC   PO452800  14.687  11.335   5.437
 3940POPC   GL152801  14.875  11.188   5.798
 3940POPC   GL252802  15.101  11.503   5.780
 3940POPC   C1A52803  15.096  11.231   6.199
 3940POPC   D2A52804  15.038  11.111   6.616
 3940POPC   C3A52805  15.049  11.392   6.951
 3940POPC   C4A52806  15.066  11.130   7.277
 3940POPC   C1B52807  15.430  11.593   6.117
 3940POPC   C2B52808  15.455  11.432   6.530
 3940POPC   C3B52809  15.534  11.587   6.921
 3940POPC   C4B52810  15.499  11.413   7.302
 3941POPC   NC352811  25.693  43.743   5.387
 3941POPC   PO452812  25.059  43.940   5.430
 3941POPC   GL152813  25.388  44.027   5.753
 3941POPC   GL252814  25.333  44.335   5.910
 3941POPC   C1A52815  25.509  43.971   6.216
 3941POPC   D2A52816  25.332  44.039   6.652
 3941POPC   C3A52817  25.368  43.806   7.051
 3941POPC   C4A52818  25.533  43.563   7.405
 3941POPC   C1B52819  25.029  44.153   6.181
 3941POPC   C2B52820  24.850  44.282   6.561
 3941POPC   C3B52821  24.973  44.242   6.966
 3941POPC   C4B52822  24.963  43.964   7.307
 3942POPC   NC352823  37.293  31.660   5.058
 3942POPC   PO452824  36.721  31.269   5.060
 3942POPC   GL152825  36.852  31.436   5.548
 3942POPC   GL252826  37.149  31.482   5.696
 3942POPC   C1A52827  36.775  31.724   5.986
 3942POPC   D2A52828  36.893  31.633   6.470
 3942POPC   C3A52829  36.772  31.696   6.957
 3942POPC   C4A52830  36.705  31.535   7.402
 3942POPC   C1B52831  36.875  31.237   6.041
 3942POPC   C2B52832  36.784  31.117   6.485
 3942POPC   C3B52833  37.037  31.253   6.834
 3942POPC   C4B52834  37.258  31.512   7.148
 3943POPC   NC352835  38.994  20.749   5.073
 3943POPC   PO452836  38.442  20.467   5.335
 3943POPC   GL152837  38.396  20.652   5.736
 3943POPC   GL252838  38.357  21.035   5.719
 3943POPC   C1A52839  38.513  20.487   6.137
 3943POPC   D2A52840  38.367  20.248   6.487
 3943POPC   C3A52841  38.460  20.410   6.883
 3943POPC   C4A52842  38.298  20.315   7.273
 3943POPC   C1B52843  38.237  20.918   6.143
 3943POPC   C2B52844  38.322  20.775   6.545
 3943POPC   C3B52845  38.442  20.921   6.963
 3943POPC   C4B52846  38.689  21.000   7.331
 3944POPC   NC352847  19.286  35.535   5.513
 3944POPC   PO452848  18.929  35.193   4.962
 3944POPC   GL152849  18.965  35.144   5.492
 3944POPC   GL252850  18.781  35.411   5.688
 3944POPC   C1A52851  18.947  35.056   6.006
 3944POPC   D2A52852  18.829  35.209   6.456
 3944POPC   C3A52853  19.148  35.222   6.807
 3944POPC   C4A52854  19.146  35.345   7.257
 3944POPC   C1B52855  18.989  35.563   6.117
 3944POPC   C2B52856  19.004  35.735   6.559
 3944POPC   C3B52857  19.131  35.815   7.025
 3944POPC   C4B52858  18.873  35.728   7.428
 3945POPC   NC352859  43.188  30.490   5.338
 3945POPC   PO452860  42.891  31.000   5.611
 3945POPC   GL152861  43.051  30.696   5.824
 3945POPC   GL252862  43.052  30.347   5.802
 3945POPC   C1A52863  42.904  30.648   6.223
 3945POPC   D2A52864  43.026  30.883   6.568
 3945POPC   C3A52865  42.940  30.727   6.979
 3945POPC   C4A52866  43.177  30.902   7.310
 3945POPC   C1B52867  43.169  30.203   6.202
 3945POPC   C2B52868  43.098  30.382   6.611
 3945POPC   C3B52869  43.212  30.271   7.011
 3945POPC   C4B52870  43.124  30.435   7.439
 3946POPC   NC352871  40.824  42.542   5.281
 3946POPC   PO452872  40.824  41.823   5.313
 3946POPC   GL152873  40.918  42.185   5.660
 3946POPC   GL252874  41.049  42.540   5.727
 3946POPC   C1A52875  40.871  42.259   6.104
 3946POPC   D2A52876  40.709  42.422   6.459
 3946POPC   C3A52877  40.722  42.187   6.803
 3946POPC   C4A52878  40.596  42.337   7.184
 3946POPC   C1B52879  40.785  42.768   6.050
 3946POPC   C2B52880  40.902  42.889   6.487
 3946POPC   C3B52881  40.983  42.656   6.901
 3946POPC   C4B52882  40.868  42.822   7.317
 3947POPC   NC352883  35.851  14.298   5.357
 3947POPC   PO452884  36.331  14.713   5.496
 3947POPC   GL152885  36.191  14.431   5.766
 3947POPC   GL252886  35.895  14.590   5.803
 3947POPC   C1A52887  36.295  14.556   6.182
 3947POPC   D2A52888  36.526  14.712   6.518
 3947POPC   C3A52889  36.392  14.501   6.869
 3947POPC   C4A52890  36.300  14.416   7.276
 3947POPC   C1B52891  35.833  14.378   6.188
 3947POPC   C2B52892  35.915  14.410   6.632
 3947POPC   C3B52893  35.847  14.386   7.079
 3947POPC   C4B52894  35.831  14.378   7.532
 3948POPC   NC352895  21.790  33.404   5.515
 3948POPC   PO452896  21.220  33.031   5.374
 3948POPC   GL152897  21.206  33.033   5.813
 3948POPC   GL252898  21.468  33.259   5.885
 3948POPC   C1A52899  21.324  32.926   6.248
 3948POPC   D2A52900  21.609  32.827   6.607
 3948POPC   C3A52901  21.283  32.816   6.935
 3948POPC   C4A52902  21.074  33.175   7.111
 3948POPC   C1B52903  21.659  33.291   6.303
 3948POPC   C2B52904  21.452  33.297   6.707
 3948POPC   C3B52905  21.578  33.181   7.123
 3948POPC   C4B52906  21.444  33.258   7.574
 3949POPC   NC352907  14.177  25.534   5.350
 3949POPC   PO452908  14.588  25.072   5.460
 3949POPC   GL152909  14.616  25.304   5.852
 3949POPC   GL252910  14.394  25.610   5.841
 3949POPC   C1A52911  14.546  25.113   6.277
 3949POPC   D2A52912  14.258  25.122   6.649
 3949POPC   C3A52913  14.525  25.111   7.020
 3949POPC   C4A52914  14.401  24.999   7.454
 3949POPC   C1B52915  14.156  25.488   6.243
 3949POPC   C2B52916  13.996  25.617   6.673
 3949POPC   C3B52917  14.119  25.660   7.119
 3949POPC   C4B52918  14.464  25.486   7.353
 3950POPC   NC352919  11.966   7.187   5.199
 3950POPC   PO452920  11.910   7.843   5.336
 3950POPC   GL152921  12.126   7.535   5.636
 3950POPC   GL252922  11.929   7.221   5.720
 3950POPC   C1A52923  12.158   7.547   6.102
 3950POPC   D2A52924  12.043   7.657   6.523
 3950POPC   C3A52925  12.230   7.738   6.903
 3950POPC   C4A52926  12.246   7.724   7.365
 3950POPC   C1B52927  11.977   7.034   6.122
 3950POPC   C2B52928  11.946   7.167   6.542
 3950POPC   C3B52929  12.010   7.282   6.951
 3950POPC   C4B52930  12.041   7.033   7.292
 3951POPC   NC352931  43.611   6.857   5.193
 3951POPC   PO452932  44.173   6.412   5.323
 3951POPC   GL152933  44.074   6.539   5.725
 3951POPC   GL252934  43.744   6.549   5.801
 3951POPC   C1A52935  44.198   6.594   6.141
 3951POPC   D2A52936  44.061   6.729   6.551
 3951POPC   C3A52937  44.148   6.560   6.971
 3951POPC   C4A52938  43.800   6.458   7.258
 3951POPC   C1B52939  43.704   6.783   6.164
 3951POPC   C2B52940  43.506   6.945   6.524
 3951POPC   C3B52941  43.668   6.839   6.907
 3951POPC   C4B52942  43.481   6.901   7.281
 3952POPC   NC352943  34.864  34.783   5.615
 3952POPC   PO452944  34.550  34.178   5.418
 3952POPC   GL152945  34.616  34.393   5.802
 3952POPC   GL252946  34.310  34.569   5.895
 3952POPC   C1A52947  34.706  34.582   6.223
 3952POPC   D2A52948  34.519  34.449   6.598
 3952POPC   C3A52949  34.811  34.541   6.904
 3952POPC   C4A52950  34.857  34.915   7.135
 3952POPC   C1B52951  34.234  34.815   6.256
 3952POPC   C2B52952  34.141  34.775   6.680
 3952POPC   C3B52953  34.350  34.735   7.079
 3952POPC   C4B52954  34.404  35.025   7.402
 3953POPC   NC352955  25.858  30.245   5.507
 3953POPC   PO452956  26.167  29.632   5.418
 3953POPC   GL152957  26.153  29.869   5.790
 3953POPC   GL252958  25.800  29.870   5.839
 3953POPC   C1A52959  26.178  29.929   6.246
 3953POPC   D2A52960  26.029  30.159   6.610
 3953POPC   C3A52961  25.856  29.969   6.959
 3953POPC   C4A52962  26.084  29.908   7.289
 3953POPC   C1B52963  25.716  30.181   6.163
 3953POPC   C2B52964  25.533  30.135   6.561
 3953POPC   C3B52965  25.581  30.381   6.941
 3953POPC   C4B52966  25.601  30.172   7.373
 3954POPC   NC352967  22.960  33.365   5.134
 3954POPC   PO452968  22.976  32.723   5.414
 3954POPC   GL152969  22.846  32.898   5.848
 3954POPC   GL252970  22.873  33.250   5.898
 3954POPC   C1A52971  22.601  33.002   6.247
 3954POPC   D2A52972  22.811  33.163   6.613
 3954POPC   C3A52973  22.616  33.105   7.049
 3954POPC   C4A52974  22.704  32.895   7.462
 3954POPC   C1B52975  23.146  33.432   6.214
 3954POPC   C2B52976  23.331  33.514   6.601
 3954POPC   C3B52977  23.291  33.222   6.901
 3954POPC   C4B52978  23.085  33.149   7.245
 3955POPC   NC352979   1.590   0.717   5.858
 3955POPC   PO452980   2.022   0.912   5.287
 3955POPC   GL152981   2.100   0.692   5.775
 3955POPC   GL252982   1.985   0.805   6.139
 3955POPC   C1A52983   2.401   0.562   6.172
 3955POPC   D2A52984   2.239   0.589   6.640
 3955POPC   C3A52985   2.295   0.527   7.110
 3955POPC   C4A52986   2.101   0.193   7.378
 3955POPC   C1B52987   1.952   0.333   6.283
 3955POPC   C2B52988   1.916   0.152   6.695
 3955POPC   C3B52989   1.789   0.395   7.044
 3955POPC   C4B52990   1.680   0.701   7.320
 3956POPC   NC352991  40.965  21.596   5.563
 3956POPC   PO452992  41.561  21.676   5.277
 3956POPC   GL152993  41.583  21.369   5.624
 3956POPC   GL252994  41.260  21.183   5.707
 3956POPC   C1A52995  41.697  21.317   6.078
 3956POPC   D2A52996  41.804  21.548   6.470
 3956POPC   C3A52997  41.794  21.295   6.847
 3956POPC   C4A52998  41.658  21.355   7.280
 3956POPC   C1B52999  41.179  21.265   6.139
 3956POPC   C2B53000  41.370  21.297   6.524
 3956POPC   C3B53001  41.299  21.423   6.937
 3956POPC   C4B53002  41.166  21.330   7.386
 3957POPC   NC353003  26.132  31.018   5.539
 3957POPC   PO453004  26.367  30.350   5.472
 3957POPC   GL153005  26.337  30.616   5.829
 3957POPC   GL253006  25.970  30.698   5.914
 3957POPC   C1A53007  26.279  30.468   6.248
 3957POPC   D2A53008  26.120  30.648   6.610
 3957POPC   C3A53009  26.322  30.485   6.951
 3957POPC   C4A53010  26.019  30.425   7.226
 3957POPC   C1B53011  26.183  30.998   6.224
 3957POPC   C2B53012  26.061  31.142   6.643
 3957POPC   C3B53013  26.060  30.938   7.066
 3957POPC   C4B53014  26.200  31.111   7.456
 3958POPC   NC353015  39.104  42.107   5.479
 3958POPC   PO453016  39.661  42.444   5.402
 3958POPC   GL153017  39.347  42.486   5.724
 3958POPC   GL253018  38.997  42.599   5.620
 3958POPC   C1A53019  39.304  42.242   6.132
 3958POPC   D2A53020  39.329  41.970   6.530
 3958POPC   C3A53021  39.274  42.148   6.935
 3958POPC   C4A53022  39.521  42.410   7.215
 3958POPC   C1B53023  38.892  42.552   6.082
 3958POPC   C2B53024  39.019  42.431   6.513
 3958POPC   C3B53025  38.834  42.425   6.925
 3958POPC   C4B53026  39.006  42.297   7.352
 3959POPC   NC353027  21.751  37.970   5.516
 3959POPC   PO453028  21.908  37.375   5.309
 3959POPC   GL153029  22.009  37.389   5.729
 3959POPC   GL253030  21.743  37.567   5.903
 3959POPC   C1A53031  22.250  37.418   6.119
 3959POPC   D2A53032  22.233  37.258   6.571
 3959POPC   C3A53033  22.265  37.522   6.955
 3959POPC   C4A53034  22.368  37.940   7.164
 3959POPC   C1B53035  21.786  37.490   6.358
 3959POPC   C2B53036  21.750  37.501   6.819
 3959POPC   C3B53037  21.879  37.804   7.173
 3959POPC   C4B53038  21.991  37.981   7.593
 3960POPC   NC353039  16.489  31.258   5.566
 3960POPC   PO453040  16.610  31.960   5.454
 3960POPC   GL153041  16.820  31.843   5.865
 3960POPC   GL253042  16.821  31.481   5.917
 3960POPC   C1A53043  16.825  31.914   6.299
 3960POPC   D2A53044  16.569  31.670   6.579
 3960POPC   C3A53045  16.650  31.771   7.000
 3960POPC   C4A53046  16.842  31.684   7.400
 3960POPC   C1B53047  16.786  31.227   6.314
 3960POPC   C2B53048  16.596  31.160   6.731
 3960POPC   C3B53049  16.586  31.259   7.171
 3960POPC   C4B53050  16.461  31.097   7.585
 3961POPC   NC353051  11.445  29.096   5.478
 3961POPC   PO453052  10.864  28.903   5.358
 3961POPC   GL153053  10.941  29.146   5.733
 3961POPC   GL253054  11.166  29.465   5.740
 3961POPC   C1A53055  11.064  29.111   6.160
 3961POPC   D2A53056  11.261  28.839   6.450
 3961POPC   C3A53057  11.179  28.889   6.888
 3961POPC   C4A53058  11.081  29.245   7.195
 3961POPC   C1B53059  11.530  29.383   6.062
 3961POPC   C2B53060  11.675  29.353   6.494
 3961POPC   C3B53061  11.500  29.326   6.895
 3961POPC   C4B53062  11.557  29.016   7.206
 3962POPC   NC353063  14.611  43.434   5.435
 3962POPC   PO453064  14.349  42.840   5.334
 3962POPC   GL153065  14.197  43.050   5.741
 3962POPC   GL253066  14.269  43.395   5.829
 3962POPC   C1A53067  14.226  43.042   6.222
 3962POPC   D2A53068  14.103  43.212   6.665
 3962POPC   C3A53069  14.167  42.949   7.042
 3962POPC   C4A53070  14.195  42.755   7.468
 3962POPC   C1B53071  14.095  43.537   6.250
 3962POPC   C2B53072  13.918  43.695   6.649
 3962POPC   C3B53073  13.871  43.484   7.080
 3962POPC   C4B53074  14.094  43.277   7.442
 3963POPC   NC353075  10.518  38.036   5.463
 3963POPC   PO453076  10.544  38.717   5.349
 3963POPC   GL153077  10.616  38.562   5.761
 3963POPC   GL253078  10.888  38.796   5.809
 3963POPC   C1A53079  10.417  38.433   6.165
 3963POPC   D2A53080  10.557  38.243   6.559
 3963POPC   C3A53081  10.295  38.370   6.927
 3963POPC   C4A53082  10.071  38.167   7.252
 3963POPC   C1B53083  10.923  38.538   6.185
 3963POPC   C2B53084  11.075  38.434   6.590
 3963POPC   C3B53085  10.827  38.491   6.930
 3963POPC   C4B53086  10.664  38.504   7.317
 3964POPC   NC353087  43.171  43.483   5.499
 3964POPC   PO453088  42.811  42.833   5.448
 3964POPC   GL153089  43.084  43.033   5.769
 3964POPC   GL253090  42.828  43.212   5.776
 3964POPC   C1A53091  43.366  43.175   6.164
 3964POPC   D2A53092  43.419  43.369   6.604
 3964POPC   C3A53093  43.347  43.148   6.986
 3964POPC   C4A53094  43.190  43.056   7.398
 3964POPC   C1B53095  42.735  43.139   6.184
 3964POPC   C2B53096  42.974  43.024   6.541
 3964POPC   C3B53097  42.918  42.847   6.907
 3964POPC   C4B53098  42.790  43.177   7.131
 3965POPC   NC353099  35.546   2.359   5.729
 3965POPC   PO453100  35.245   1.898   5.355
 3965POPC   GL153101  35.173   1.994   5.773
 3965POPC   GL253102  35.498   1.841   5.823
 3965POPC   C1A53103  35.224   1.957   6.234
 3965POPC   D2A53104  35.586   2.077   6.484
 3965POPC   C3A53105  35.537   2.075   6.945
 3965POPC   C4A53106  35.250   1.878   7.250
 3965POPC   C1B53107  35.712   1.666   6.175
 3965POPC   C2B53108  35.880   1.671   6.591
 3965POPC   C3B53109  35.665   1.586   6.978
 3965POPC   C4B53110  35.684   1.678   7.417
 3966POPC   NC353111  35.101   1.518   5.614
 3966POPC   PO453112  34.643   1.058   5.390
 3966POPC   GL153113  34.605   1.151   5.853
 3966POPC   GL253114  34.328   1.386   5.933
 3966POPC   C1A53115  34.403   0.905   6.204
 3966POPC   D2A53116  34.285   0.829   6.643
 3966POPC   C3A53117  34.426   1.208   6.799
 3966POPC   C4A53118  34.600   1.345   7.165
 3966POPC   C1B53119  34.540   1.432   6.330
 3966POPC   C2B53120  34.640   1.734   6.696
 3966POPC   C3B53121  34.746   1.816   7.132
 3966POPC   C4B53122  34.897   1.599   7.508
 3967POPC   NC353123  12.998  44.221   5.396
 3967POPC   PO453124  12.798  44.891   5.500
 3967POPC   GL153125  12.796  44.598   5.798
 3967POPC   GL253126  12.522  44.416   5.613
 3967POPC   C1A53127  12.953  44.779   6.193
 3967POPC   D2A53128  12.976   0.027   6.572
 3967POPC   C3A53129  12.928  44.732   6.932
 3967POPC   C4A53130  13.166  44.373   7.141
 3967POPC   C1B53131  12.428  44.362   6.061
 3967POPC   C2B53132  12.636  44.454   6.435
 3967POPC   C3B53133  12.452  44.524   6.806
 3967POPC   C4B53134  12.498  44.617   7.188
 3968POPC   NC353135  19.597  24.476   5.395
 3968POPC   PO453136  18.917  24.579   5.299
 3968POPC   GL153137  18.907  24.722   5.729
 3968POPC   GL253138  19.234  24.870   5.849
 3968POPC   C1A53139  18.971  24.549   6.168
 3968POPC   D2A53140  19.059  24.173   6.453
 3968POPC   C3A53141  18.989  24.169   6.913
 3968POPC   C4A53142  18.844  24.219   7.327
 3968POPC   C1B53143  19.245  24.965   6.309
 3968POPC   C2B53144  19.148  24.886   6.758
 3968POPC   C3B53145  19.149  24.606   7.186
 3968POPC   C4B53146  19.279  24.380   7.561
 3969POPC   NC353147  16.954  35.947   5.601
 3969POPC   PO453148  16.594  36.515   5.475
 3969POPC   GL153149  16.657  36.335   5.822
 3969POPC   GL253150  16.986  36.374   5.900
 3969POPC   C1A53151  16.618  36.080   6.182
 3969POPC   D2A53152  16.787  36.202   6.578
 3969POPC   C3A53153  16.507  36.056   6.848
 3969POPC   C4A53154  16.447  35.994   7.255
 3969POPC   C1B53155  17.152  36.038   6.211
 3969POPC   C2B53156  17.272  35.930   6.628
 3969POPC   C3B53157  16.991  35.876   6.930
 3969POPC   C4B53158  16.906  36.228   7.134
 3970POPC   NC353159  12.684  28.102   5.563
 3970POPC   PO453160  13.198  28.538   5.774
 3970POPC   GL153161  12.919  28.279   5.978
 3970POPC   GL253162  12.577  28.373   5.968
 3970POPC   C1A53163  12.793  28.120   6.366
 3970POPC   D2A53164  12.650  28.214   6.760
 3970POPC   C3A53165  12.976  28.282   7.073
 3970POPC   C4A53166  13.046  28.710   7.210
 3970POPC   C1B53167  12.633  28.627   6.331
 3970POPC   C2B53168  12.419  28.679   6.712
 3970POPC   C3B53169  12.545  28.586   7.145
 3970POPC   C4B53170  12.496  28.498   7.585
 3971POPC   NC353171  39.756  17.312   5.406
 3971POPC   PO453172  40.360  17.532   5.362
 3971POPC   GL153173  40.121  17.476   5.735
 3971POPC   GL253174  40.113  17.118   5.744
 3971POPC   C1A53175  39.914  17.504   6.143
 3971POPC   D2A53176  40.098  17.466   6.557
 3971POPC   C3A53177  40.094  17.695   6.936
 3971POPC   C4A53178  40.390  17.747   7.270
 3971POPC   C1B53179  39.959  16.994   6.142
 3971POPC   C2B53180  39.728  17.088   6.495
 3971POPC   C3B53181  39.827  17.193   6.902
 3971POPC   C4B53182  40.015  17.311   7.278
 3972POPC   NC353183  27.249   8.852   5.352
 3972POPC   PO453184  26.684   8.665   5.383
 3972POPC   GL153185  26.942   8.611   5.766
 3972POPC   GL253186  27.144   8.862   5.880
 3972POPC   C1A53187  26.876   8.530   6.215
 3972POPC   D2A53188  26.816   8.781   6.603
 3972POPC   C3A53189  26.609   8.680   7.023
 3972POPC   C4A53190  26.575   8.955   7.422
 3972POPC   C1B53191  27.308   8.788   6.322
 3972POPC   C2B53192  27.298   8.748   6.759
 3972POPC   C3B53193  27.093   8.749   7.176
 3972POPC   C4B53194  27.094   8.876   7.604
 3973POPC   NC353195  28.251   3.901   5.416
 3973POPC   PO453196  28.624   4.490   5.311
 3973POPC   GL153197  28.391   4.329   5.717
 3973POPC   GL253198  28.541   4.014   5.846
 3973POPC   C1A53199  28.156   4.213   6.140
 3973POPC   D2A53200  28.308   4.343   6.569
 3973POPC   C3A53201  28.172   4.203   6.941
 3973POPC   C4A53202  27.967   4.180   7.325
 3973POPC   C1B53203  28.675   4.293   6.203
 3973POPC   C2B53204  28.817   4.403   6.642
 3973POPC   C3B53205  28.631   4.466   7.029
 3973POPC   C4B53206  28.335   4.508   7.344
 3974POPC   NC353207  19.647  29.378   5.456
 3974POPC   PO453208  19.986  28.903   5.561
 3974POPC   GL153209  19.990  29.072   5.911
 3974POPC   GL253210  20.132  29.414   5.867
 3974POPC   C1A53211  20.035  28.955   6.342
 3974POPC   D2A53212  19.925  29.195   6.694
 3974POPC   C3A53213  19.740  29.019   7.050
 3974POPC   C4A53214  19.378  28.932   7.252
 3974POPC   C1B53215  19.788  29.422   6.205
 3974POPC   C2B53216  19.575  29.585   6.574
 3974POPC   C3B53217  19.487  29.447   6.948
 3974POPC   C4B53218  19.617  29.435   7.348
 3975POPC   NC353219  31.400  39.917   5.320
 3975POPC   PO453220  31.911  39.992   5.549
 3975POPC   GL153221  31.520  40.067   5.796
 3975POPC   GL253222  31.365  39.743   5.833
 3975POPC   C1A53223  31.245  40.120   6.167
 3975POPC   D2A53224  31.195  39.848   6.553
 3975POPC   C3A53225  31.314  40.029   6.974
 3975POPC   C4A53226  31.310  39.842   7.336
 3975POPC   C1B53227  31.628  39.804   6.254
 3975POPC   C2B53228  31.693  39.787   6.733
 3975POPC   C3B53229  31.827  39.805   7.192
 3975POPC   C4B53230  32.168  39.829   7.529
 3976POPC   NC353231  37.941  39.409   5.042
 3976POPC   PO453232  38.447  39.153   5.425
 3976POPC   GL153233  38.535  39.355   5.786
 3976POPC   GL253234  38.734  39.120   5.867
 3976POPC   C1A53235  38.342  39.403   6.151
 3976POPC   D2A53236  38.222  39.194   6.477
 3976POPC   C3A53237  38.223  39.393   6.858
 3976POPC   C4A53238  38.274  39.272   7.266
 3976POPC   C1B53239  38.628  38.946   6.242
 3976POPC   C2B53240  38.525  38.815   6.631
 3976POPC   C3B53241  38.616  39.047   6.949
 3976POPC   C4B53242  38.750  39.055   7.363
 3977POPC   NC353243  10.187  23.803   5.649
 3977POPC   PO453244  10.811  23.408   5.393
 3977POPC   GL153245  10.583  23.480   5.784
 3977POPC   GL253246  10.690  23.789   5.870
 3977POPC   C1A53247  10.438  23.593   6.238
 3977POPC   D2A53248  10.428  23.800   6.601
 3977POPC   C3A53249  10.464  23.660   6.985
 3977POPC   C4A53250  10.164  23.884   7.217
 3977POPC   C1B53251  10.935  23.691   6.257
 3977POPC   C2B53252  10.928  23.744   6.703
 3977POPC   C3B53253  10.835  24.069   7.019
 3977POPC   C4B53254  10.605  24.038   7.383
 3978POPC   NC353255   9.613  17.257   5.248
 3978POPC   PO453256   9.904  17.885   5.406
 3978POPC   GL153257   9.689  17.729   5.792
 3978POPC   GL253258   9.589  17.370   5.766
 3978POPC   C1A53259   9.867  17.554   6.208
 3978POPC   D2A53260   9.723  17.809   6.559
 3978POPC   C3A53261   9.795  17.728   6.978
 3978POPC   C4A53262  10.049  17.473   7.253
 3978POPC   C1B53263   9.484  17.243   6.201
 3978POPC   C2B53264   9.724  17.253   6.608
 3978POPC   C3B53265   9.581  17.266   7.017
 3978POPC   C4B53266   9.506  16.975   7.322
 3979POPC   NC353267  22.694  42.932   5.425
 3979POPC   PO453268  22.946  43.601   5.274
 3979POPC   GL153269  23.073  43.247   5.591
 3979POPC   GL253270  22.768  43.259   5.816
 3979POPC   C1A53271  23.223  43.184   6.046
 3979POPC   D2A53272  22.978  43.148   6.446
 3979POPC   C3A53273  23.096  43.116   6.870
 3979POPC   C4A53274  22.898  43.127   7.273
 3979POPC   C1B53275  22.543  43.226   6.185
 3979POPC   C2B53276  22.444  43.098   6.573
 3979POPC   C3B53277  22.525  42.943   6.963
 3979POPC   C4B53278  22.372  43.168   7.247
 3980POPC   NC353279  44.112  17.724   5.400
 3980POPC   PO453280  43.477  17.422   5.291
 3980POPC   GL153281  43.646  17.671   5.658
 3980POPC   GL253282  43.846  17.377   5.769
 3980POPC   C1A53283  43.841  17.761   6.105
 3980POPC   D2A53284  43.787  17.589   6.553
 3980POPC   C3A53285  43.799  17.822   6.980
 3980POPC   C4A53286  43.864  17.845   7.461
 3980POPC   C1B53287  43.901  17.123   6.165
 3980POPC   C2B53288  44.042  17.133   6.592
 3980POPC   C3B53289  43.908  17.299   6.965
 3980POPC   C4B53290  44.039  17.351   7.376
 3981POPC   NC353291  12.293  37.579   5.061
 3981POPC   PO453292  11.838  37.949   5.466
 3981POPC   GL153293  11.957  37.759   5.889
 3981POPC   GL253294  12.310  37.797   5.993
 3981POPC   C1A53295  12.010  37.475   6.282
 3981POPC   D2A53296  11.961  37.271   6.725
 3981POPC   C3A53297  12.073  37.463   7.166
 3981POPC   C4A53298  11.828  37.487   7.590
 3981POPC   C1B53299  12.100  37.956   6.351
 3981POPC   C2B53300  12.158  37.759   6.715
 3981POPC   C3B53301  12.251  37.932   7.090
 3981POPC   C4B53302  12.165  37.855   7.508
 3982POPC   NC353303  15.307  30.253   5.318
 3982POPC   PO453304  15.274  30.918   5.403
 3982POPC   GL153305  15.262  30.776   5.783
 3982POPC   GL253306  15.444  30.491   5.760
 3982POPC   C1A53307  15.057  30.586   6.124
 3982POPC   D2A53308  15.188  30.439   6.512
 3982POPC   C3A53309  14.921  30.463   6.839
 3982POPC   C4A53310  15.066  30.612   7.211
 3982POPC   C1B53311  15.491  30.241   6.134
 3982POPC   C2B53312  15.638  30.191   6.608
 3982POPC   C3B53313  15.384  30.246   6.966
 3982POPC   C4B53314  15.514  30.419   7.334
 3983POPC   NC353315  38.018  12.627   5.537
 3983POPC   PO453316  37.526  13.054   5.460
 3983POPC   GL153317  37.512  12.710   5.764
 3983POPC   GL253318  37.204  12.805   5.931
 3983POPC   C1A53319  37.701  12.592   6.182
 3983POPC   D2A53320  37.815  12.848   6.570
 3983POPC   C3A53321  37.856  12.759   7.034
 3983POPC   C4A53322  37.957  13.000   7.410
 3983POPC   C1B53323  37.415  13.054   6.260
 3983POPC   C2B53324  37.358  13.197   6.703
 3983POPC   C3B53325  37.326  13.046   7.146
 3983POPC   C4B53326  37.468  13.193   7.541
 3984POPC   NC353327  42.383  20.194   5.516
 3984POPC   PO453328  42.359  19.501   5.560
 3984POPC   GL153329  42.138  19.530   5.875
 3984POPC   GL253330  42.024  19.865   5.749
 3984POPC   C1A53331  42.325  19.532   6.283
 3984POPC   D2A53332  42.451  19.878   6.563
 3984POPC   C3A53333  42.487  19.751   6.977
 3984POPC   C4A53334  42.630  19.566   7.377
 3984POPC   C1B53335  42.172  20.001   6.133
 3984POPC   C2B53336  41.991  20.119   6.525
 3984POPC   C3B53337  42.079  20.223   6.933
 3984POPC   C4B53338  42.205  20.008   7.310
 3985POPC   NC353339  29.857  31.483   5.309
 3985POPC   PO453340  30.393  31.180   5.563
 3985POPC   GL153341  30.004  31.456   5.803
 3985POPC   GL253342  29.617  31.593   5.747
 3985POPC   C1A53343  29.879  31.360   6.243
 3985POPC   D2A53344  30.074  31.309   6.677
 3985POPC   C3A53345  30.215  31.560   7.050
 3985POPC   C4A53346  30.037  31.602   7.490
 3985POPC   C1B53347  29.481  31.688   6.184
 3985POPC   C2B53348  29.667  31.639   6.620
 3985POPC   C3B53349  29.679  31.524   7.056
 3985POPC   C4B53350  29.610  31.863   7.328
 3986POPC   NC353351  29.515  18.950   5.419
 3986POPC   PO453352  28.927  19.317   5.255
 3986POPC   GL153353  29.091  19.413   5.712
 3986POPC   GL253354  29.379  19.195   5.871
 3986POPC   C1A53355  28.986  19.346   6.175
 3986POPC   D2A53356  29.300  19.254   6.532
 3986POPC   C3A53357  29.129  19.065   6.908
 3986POPC   C4A53358  28.876  18.711   7.073
 3986POPC   C1B53359  29.493  18.853   6.202
 3986POPC   C2B53360  29.386  18.692   6.642
 3986POPC   C3B53361  29.498  18.750   7.088
 3986POPC   C4B53362  29.711  19.016   7.414
 3987POPC   NC353363  30.904  13.050   5.369
 3987POPC   PO453364  30.301  12.794   5.528
 3987POPC   GL153365  30.593  12.895   5.757
 3987POPC   GL253366  30.512  13.234   5.689
 3987POPC   C1A53367  30.825  12.723   6.107
 3987POPC   D2A53368  30.874  12.494   6.486
 3987POPC   C3A53369  30.822  12.692   6.880
 3987POPC   C4A53370  30.564  12.645   7.198
 3987POPC   C1B53371  30.511  13.238   6.118
 3987POPC   C2B53372  30.620  13.068   6.482
 3987POPC   C3B53373  30.840  13.197   6.806
 3987POPC   C4B53374  30.724  13.124   7.198
 3988POPC   NC353375  16.704  28.890   5.103
 3988POPC   PO453376  17.023  28.350   5.427
 3988POPC   GL153377  16.734  28.310   5.783
 3988POPC   GL253378  16.502  28.051   5.844
 3988POPC   C1A53379  16.725  28.510   6.166
 3988POPC   D2A53380  16.699  28.359   6.567
 3988POPC   C3A53381  16.624  28.609   6.878
 3988POPC   C4A53382  16.795  28.572   7.234
 3988POPC   C1B53383  16.380  28.047   6.274
 3988POPC   C2B53384  16.543  27.881   6.674
 3988POPC   C3B53385  16.786  28.048   7.040
 3988POPC   C4B53386  16.699  28.151   7.514
 3989POPC   NC353387  13.339   9.496   5.384
 3989POPC   PO453388  13.778   9.970   5.146
 3989POPC   GL153389  13.773   9.802   5.576
 3989POPC   GL253390  13.434   9.906   5.705
 3989POPC   C1A53391  13.865   9.701   6.028
 3989POPC   D2A53392  13.732   9.775   6.465
 3989POPC   C3A53393  13.936   9.826   6.879
 3989POPC   C4A53394  13.871   9.526   7.199
 3989POPC   C1B53395  13.339   9.684   6.100
 3989POPC   C2B53396  13.334   9.430   6.502
 3989POPC   C3B53397  13.464   9.614   6.870
 3989POPC   C4B53398  13.351   9.684   7.236
 3990POPC   NC353399  42.782  44.051   5.694
 3990POPC   PO453400  43.370  43.911   5.490
 3990POPC   GL153401  43.196  43.875   5.920
 3990POPC   GL253402  42.938  43.657   5.951
 3990POPC   C1A53403  43.069  43.985   6.398
 3990POPC   D2A53404  43.323  43.866   6.765
 3990POPC   C3A53405  43.219  44.080   7.155
 3990POPC   C4A53406  42.808  44.265   7.176
 3990POPC   C1B53407  43.026  43.506   6.326
 3990POPC   C2B53408  42.889  43.507   6.740
 3990POPC   C3B53409  43.085  43.579   7.129
 3990POPC   C4B53410  43.394  43.569   7.358
 3991POPC   NC353411  13.016  30.442   5.567
 3991POPC   PO453412  12.668  30.814   5.204
 3991POPC   GL153413  12.685  30.794   5.716
 3991POPC   GL253414  12.954  30.969   5.856
 3991POPC   C1A53415  12.879  30.584   6.171
 3991POPC   D2A53416  13.009  30.331   6.549
 3991POPC   C3A53417  12.745  30.484   6.859
 3991POPC   C4A53418  12.851  30.760   7.199
 3991POPC   C1B53419  12.677  31.081   6.173
 3991POPC   C2B53420  12.709  30.929   6.585
 3991POPC   C3B53421  12.710  31.214   6.914
 3991POPC   C4B53422  12.647  31.193   7.340
 3992POPC   NC353423  11.577   5.063   5.428
 3992POPC   PO453424  10.973   5.110   5.588
 3992POPC   GL153425  11.283   4.973   5.878
 3992POPC   GL253426  11.513   5.274   5.882
 3992POPC   C1A53427  11.240   4.871   6.330
 3992POPC   D2A53428  11.142   4.645   6.713
 3992POPC   C3A53429  10.986   4.945   6.993
 3992POPC   C4A53430  11.202   5.058   7.361
 3992POPC   C1B53431  11.181   5.411   6.169
 3992POPC   C2B53432  11.239   5.570   6.575
 3992POPC   C3B53433  11.226   5.412   6.981
 3992POPC   C4B53434  11.594   5.382   7.223
 3993POPC   NC353435  16.027  43.857   5.277
 3993POPC   PO453436  15.858  44.348   5.422
 3993POPC   GL153437  15.794  44.070   5.777
 3993POPC   GL253438  16.077  43.856   5.803
 3993POPC   C1A53439  15.693  44.064   6.247
 3993POPC   D2A53440  15.666  44.153   6.715
 3993POPC   C3A53441  16.028  44.102   6.999
 3993POPC   C4A53442  16.119  44.293   7.423
 3993POPC   C1B53443  15.980  43.638   6.204
 3993POPC   C2B53444  15.846  43.672   6.658
 3993POPC   C3B53445  15.842  43.637   7.125
 3993POPC   C4B53446  15.933  43.325   7.467
 3994POPC   NC353447  17.633  23.893   5.124
 3994POPC   PO453448  17.709  23.593   5.719
 3994POPC   GL153449  17.352  23.785   5.853
 3994POPC   GL253450  17.258  23.510   6.009
 3994POPC   C1A53451  17.253  24.011   6.256
 3994POPC   D2A53452  17.497  24.037   6.663
 3994POPC   C3A53453  17.411  23.961   7.113
 3994POPC   C4A53454  17.555  23.819   7.564
 3994POPC   C1B53455  17.456  23.541   6.400
 3994POPC   C2B53456  17.379  23.535   6.826
 3994POPC   C3B53457  17.384  23.476   7.244
 3994POPC   C4B53458  17.116  23.441   7.583
 3995POPC   NC353459  13.076  15.354   5.380
 3995POPC   PO453460  12.559  14.897   5.507
 3995POPC   GL153461  12.682  15.112   5.890
 3995POPC   GL253462  12.759  15.461   5.800
 3995POPC   C1A53463  12.643  15.043   6.343
 3995POPC   D2A53464  12.489  15.104   6.773
 3995POPC   C3A53465  12.738  14.967   7.116
 3995POPC   C4A53466  13.118  14.738   7.214
 3995POPC   C1B53467  13.088  15.356   6.108
 3995POPC   C2B53468  13.145  15.080   6.453
 3995POPC   C3B53469  13.148  15.150   6.877
 3995POPC   C4B53470  13.268  15.403   7.229
 3996POPC   NC353471  31.261  15.346   5.263
 3996POPC   PO453472  31.425  14.684   5.282
 3996POPC   GL153473  31.374  14.967   5.641
 3996POPC   GL253474  31.547  15.263   5.737
 3996POPC   C1A53475  31.211  15.017   6.066
 3996POPC   D2A53476  31.437  15.044   6.459
 3996POPC   C3A53477  31.243  15.127   6.856
 3996POPC   C4A53478  31.398  14.967   7.220
 3996POPC   C1B53479  31.729  15.380   6.150
 3996POPC   C2B53480  31.924  15.291   6.540
 3996POPC   C3B53481  31.855  15.386   6.931
 3996POPC   C4B53482  31.558  15.453   7.217
 3997POPC   NC353483   0.191  41.827   5.130
 3997POPC   PO453484   0.512  42.394   5.406
 3997POPC   GL153485   0.507  42.327   5.820
 3997POPC   GL253486   0.673  42.081   5.989
 3997POPC   C1A53487   0.606  42.527   6.207
 3997POPC   D2A53488   0.372  42.644   6.533
 3997POPC   C3A53489   0.524  42.492   6.875
 3997POPC   C4A53490   0.209  42.399   7.184
 3997POPC   C1B53491   0.278  42.127   6.220
 3997POPC   C2B53492   0.230  42.167   6.624
 3997POPC   C3B53493   0.402  41.999   6.954
 3997POPC   C4B53494   0.147  41.865   7.234
 3998POPC   NC353495   6.772   8.456   5.512
 3998POPC   PO453496   6.247   8.039   5.514
 3998POPC   GL153497   6.461   8.284   5.860
 3998POPC   GL253498   6.780   8.071   5.914
 3998POPC   C1A53499   6.709   8.460   6.226
 3998POPC   D2A53500   6.671   8.285   6.651
 3998POPC   C3A53501   6.753   8.497   7.016
 3998POPC   C4A53502   6.955   8.221   7.251
 3998POPC   C1B53503   6.469   7.976   6.270
 3998POPC   C2B53504   6.245   7.992   6.679
 3998POPC   C3B53505   6.220   8.048   7.136
 3998POPC   C4B53506   6.256   7.822   7.518
 3999POPC   NC353507  31.372  16.328   5.420
 3999POPC   PO453508  31.562  15.656   5.423
 3999POPC   GL153509  31.634  15.862   5.833
 3999POPC   GL253510  31.513  16.214   5.898
 3999POPC   C1A53511  31.541  15.844   6.293
 3999POPC   D2A53512  31.463  15.556   6.632
 3999POPC   C3A53513  31.241  15.758   6.972
 3999POPC   C4A53514  31.482  15.974   7.275
 3999POPC   C1B53515  31.749  16.311   6.264
 3999POPC   C2B53516  31.666  16.195   6.700
 3999POPC   C3B53517  31.599  16.431   7.065
 3999POPC   C4B53518  31.692  16.383   7.514
 4000POPC   NC353519  10.938   4.634   5.649
 4000POPC   PO453520  11.597   4.611   5.530
 4000POPC   GL153521  11.327   4.416   5.856
 4000POPC   GL253522  11.287   4.068   5.945
 4000POPC   C1A53523  11.108   4.376   6.274
 4000POPC   D2A53524  11.140   4.026   6.569
 4000POPC   C3A53525  11.156   4.163   7.019
 4000POPC   C4A53526  11.167   4.562   7.258
 4000POPC   C1B53527  11.582   3.933   6.200
 4000POPC   C2B53528  11.657   4.075   6.590
 4000POPC   C3B53529  11.664   3.926   6.981
 4000POPC   C4B53530  11.774   3.832   7.396
 4001POPC   NC353531   2.282  43.763   5.375
 4001POPC   PO453532   1.870  44.294   5.652
 4001POPC   GL153533   1.706  43.942   5.923
 4001POPC   GL253534   1.757  43.604   5.746
 4001POPC   C1A53535   1.766  44.013   6.368
 4001POPC   D2A53536   1.974  44.320   6.616
 4001POPC   C3A53537   2.181  44.112   6.919
 4001POPC   C4A53538   2.023  44.008   7.332
 4001POPC   C1B53539   2.037  43.621   6.139
 4001POPC   C2B53540   2.096  43.698   6.593
 4001POPC   C3B53541   2.083  43.606   7.020
 4001POPC   C4B53542   2.187  43.542   7.435
 4002POPC   NC353543   2.354  33.245   5.530
 4002POPC   PO453544   1.973  33.786   5.368
 4002POPC   GL153545   2.140  33.697   5.810
 4002POPC   GL253546   2.428  33.828   5.913
 4002POPC   C1A53547   2.062  33.745   6.288
 4002POPC   D2A53548   2.202  33.775   6.744
 4002POPC   C3A53549   1.958  33.694   7.112
 4002POPC   C4A53550   1.719  33.906   7.433
 4002POPC   C1B53551   2.493  33.489   6.207
 4002POPC   C2B53552   2.338  33.308   6.575
 4002POPC   C3B53553   2.487  33.266   6.970
 4002POPC   C4B53554   2.450  33.597   7.269
 4003POPC   NC353555  10.587  22.951   5.382
 4003POPC   PO453556  10.079  23.410   5.377
 4003POPC   GL153557  10.251  23.080   5.752
 4003POPC   GL253558  10.493  22.739   5.846
 4003POPC   C1A53559  10.498  23.106   6.165
 4003POPC   D2A53560  10.723  23.241   6.521
 4003POPC   C3A53561  10.541  23.121   6.909
 4003POPC   C4A53562  10.694  23.145   7.306
 4003POPC   C1B53563  10.661  22.641   6.301
 4003POPC   C2B53564  10.712  22.620   6.788
 4003POPC   C3B53565  10.513  22.584   7.227
 4003POPC   C4B53566  10.234  22.584   7.628
 4004POPC   NC353567  20.664  36.960   5.315
 4004POPC   PO453568  20.538  36.360   5.306
 4004POPC   GL153569  20.530  36.654   5.720
 4004POPC   GL253570  20.622  37.003   5.820
 4004POPC   C1A53571  20.293  36.740   6.141
 4004POPC   D2A53572  20.339  37.028   6.484
 4004POPC   C3A53573  20.478  36.794   6.842
 4004POPC   C4A53574  20.212  36.654   7.155
 4004POPC   C1B53575  20.761  36.893   6.227
 4004POPC   C2B53576  20.834  37.107   6.590
 4004POPC   C3B53577  20.582  37.304   6.878
 4004POPC   C4B53578  20.695  37.076   7.253
 4005POPC   NC353579   3.186  35.806   5.190
 4005POPC   PO453580   3.820  36.103   5.463
 4005POPC   GL153581   3.642  36.008   5.823
 4005POPC   GL253582   3.338  36.226   5.843
 4005POPC   C1A53583   3.642  36.135   6.254
 4005POPC   D2A53584   3.526  36.360   6.637
 4005POPC   C3A53585   3.573  36.003   6.911
 4005POPC   C4A53586   3.670  35.740   7.259
 4005POPC   C1B53587   3.149  36.279   6.290
 4005POPC   C2B53588   3.080  36.108   6.764
 4005POPC   C3B53589   3.159  35.967   7.211
 4005POPC   C4B53590   3.329  35.876   7.618
 4006POPC   NC353591   2.974  31.760   5.217
 4006POPC   PO453592   3.594  31.405   5.337
 4006POPC   GL153593   3.487  31.481   5.754
 4006POPC   GL253594   3.151  31.479   5.641
 4006POPC   C1A53595   3.616  31.382   6.192
 4006POPC   D2A53596   3.553  31.221   6.611
 4006POPC   C3A53597   3.697  31.483   6.940
 4006POPC   C4A53598   3.863  31.585   7.325
 4006POPC   C1B53599   3.116  31.292   6.059
 4006POPC   C2B53600   3.097  31.460   6.472
 4006POPC   C3B53601   3.179  31.448   6.912
 4006POPC   C4B53602   3.351  31.767   7.169
 4007POPC   NC353603   8.064  19.986   5.302
 4007POPC   PO453604   8.578  19.648   5.607
 4007POPC   GL153605   8.265  19.830   5.784
 4007POPC   GL253606   8.022  19.595   5.677
 4007POPC   C1A53607   8.260  19.899   6.221
 4007POPC   D2A53608   8.072  20.129   6.550
 4007POPC   C3A53609   8.214  20.035   6.965
 4007POPC   C4A53610   8.383  19.632   7.081
 4007POPC   C1B53611   7.838  19.625   6.111
 4007POPC   C2B53612   7.996  19.590   6.555
 4007POPC   C3B53613   7.853  19.699   6.965
 4007POPC   C4B53614   7.987  19.807   7.381
 4008POPC   NC353615   3.271  39.903   5.423
 4008POPC   PO453616   3.910  40.097   5.342
 4008POPC   GL153617   3.727  39.883   5.658
 4008POPC   GL253618   3.533  40.152   5.772
 4008POPC   C1A53619   3.742  39.775   6.094
 4008POPC   D2A53620   3.822  40.015   6.466
 4008POPC   C3A53621   3.648  39.951   6.885
 4008POPC   C4A53622   3.749  40.209   7.238
 4008POPC   C1B53623   3.264  40.037   6.132
 4008POPC   C2B53624   3.200  39.848   6.540
 4008POPC   C3B53625   3.129  40.007   6.938
 4008POPC   C4B53626   3.312  39.893   7.297
 4009POPC   NC353627   9.658  18.716   5.358
 4009POPC   PO453628  10.030  19.194   5.358
 4009POPC   GL153629   9.874  19.014   5.732
 4009POPC   GL253630   9.500  18.986   5.784
 4009POPC   C1A53631   9.872  18.894   6.156
 4009POPC   D2A53632   9.745  19.062   6.540
 4009POPC   C3A53633   9.803  18.890   6.935
 4009POPC   C4A53634   9.871  19.176   7.271
 4009POPC   C1B53635   9.311  18.950   6.222
 4009POPC   C2B53636   9.209  19.050   6.675
 4009POPC   C3B53637   9.367  19.144   7.110
 4009POPC   C4B53638   9.299  19.209   7.591
 4010POPC   NC353639   4.914  22.243   5.196
 4010POPC   PO453640   5.511  21.859   5.203
 4010POPC   GL153641   5.306  21.934   5.666
 4010POPC   GL253642   4.941  21.808   5.716
 4010POPC   C1A53643   5.112  22.152   6.065
 4010POPC   D2A53644   4.770  22.160   6.418
 4010POPC   C3A53645   4.956  22.297   6.830
 4010POPC   C4A53646   4.923  22.288   7.283
 4010POPC   C1B53647   4.925  21.701   6.189
 4010POPC   C2B53648   5.138  21.864   6.607
 4010POPC   C3B53649   5.195  21.891   7.080
 4010POPC   C4B53650   5.228  21.563   7.387
 4011POPC   NC353651  35.246  17.815   5.193
 4011POPC   PO453652  35.678  17.382   5.504
 4011POPC   GL153653  35.564  17.490   5.916
 4011POPC   GL253654  35.211  17.463   6.003
 4011POPC   C1A53655  35.605  17.658   6.327
 4011POPC   D2A53656  35.369  17.554   6.679
 4011POPC   C3A53657  35.573  17.592   7.085
 4011POPC   C4A53658  35.542  17.386   7.558
 4011POPC   C1B53659  35.056  17.779   6.303
 4011POPC   C2B53660  34.827  17.673   6.673
 4011POPC   C3B53661  35.026  17.479   7.042
 4011POPC   C4B53662  35.197  17.703   7.394
 4012POPC   NC353663  13.654  36.078   5.474
 4012POPC   PO453664  13.040  35.991   5.223
 4012POPC   GL153665  13.241  36.195   5.738
 4012POPC   GL253666  13.641  36.098   5.962
 4012POPC   C1A53667  13.278  36.287   6.217
 4012POPC   D2A53668  13.567  36.215   6.596
 4012POPC   C3A53669  13.391  36.128   7.031
 4012POPC   C4A53670  13.290  35.733   7.233
 4012POPC   C1B53671  14.032  36.258   6.228
 4012POPC   C2B53672  14.188  36.215   6.662
 4012POPC   C3B53673  13.909  36.098   6.969
 4012POPC   C4B53674  13.753  35.693   7.007
 4013POPC   NC353675   4.516  33.323   5.359
 4013POPC   PO453676   4.547  32.682   5.434
 4013POPC   GL153677   4.545  32.940   5.802
 4013POPC   GL253678   4.247  33.147   5.795
 4013POPC   C1A53679   4.460  32.982   6.255
 4013POPC   D2A53680   4.399  32.850   6.704
 4013POPC   C3A53681   4.473  33.180   7.012
 4013POPC   C4A53682   4.724  33.243   7.351
 4013POPC   C1B53683   3.989  33.222   6.177
 4013POPC   C2B53684   3.911  32.989   6.603
 4013POPC   C3B53685   3.962  33.055   7.057
 4013POPC   C4B53686   3.920  33.481   7.218
 4014POPC   NC353687  34.270   5.944   5.436
 4014POPC   PO453688  34.965   5.746   5.483
 4014POPC   GL153689  34.666   5.947   5.770
 4014POPC   GL253690  34.835   6.261   5.742
 4014POPC   C1A53691  34.385   5.998   6.136
 4014POPC   D2A53692  34.507   5.867   6.559
 4014POPC   C3A53693  34.658   5.623   6.910
 4014POPC   C4A53694  34.484   5.853   7.260
 4014POPC   C1B53695  35.059   6.075   6.105
 4014POPC   C2B53696  35.020   5.787   6.470
 4014POPC   C3B53697  35.050   5.939   6.899
 4014POPC   C4B53698  34.932   6.086   7.299
 4015POPC   NC353699  38.371  20.016   5.348
 4015POPC   PO453700  38.528  19.427   5.455
 4015POPC   GL153701  38.523  19.687   5.773
 4015POPC   GL253702  38.176  19.724   5.739
 4015POPC   C1A53703  38.543  19.837   6.191
 4015POPC   D2A53704  38.730  19.805   6.559
 4015POPC   C3A53705  38.496  19.890   6.883
 4015POPC   C4A53706  38.618  19.794   7.254
 4015POPC   C1B53707  38.061  19.983   6.094
 4015POPC   C2B53708  38.002  19.903   6.533
 4015POPC   C3B53709  38.012  19.972   6.986
 4015POPC   C4B53710  38.133  19.853   7.432
 4016POPC   NC353711   4.735   0.693   5.388
 4016POPC   PO453712   5.423   0.496   5.332
 4016POPC   GL153713   5.198   0.724   5.659
 4016POPC   GL253714   4.995   0.448   5.759
 4016POPC   C1A53715   5.063   0.831   6.097
 4016POPC   D2A53716   5.183   0.906   6.543
 4016POPC   C3A53717   5.046   0.697   6.956
 4016POPC   C4A53718   5.193   0.486   7.334
 4016POPC   C1B53719   4.898   0.318   6.157
 4016POPC   C2B53720   5.075   0.343   6.563
 4016POPC   C3B53721   5.086   0.166   6.964
 4016POPC   C4B53722   4.702   0.333   7.190
 4017POPC   NC353723  20.235  27.063   5.324
 4017POPC   PO453724  19.732  26.545   5.418
 4017POPC   GL153725  19.715  26.746   5.804
 4017POPC   GL253726  19.853  27.056   5.679
 4017POPC   C1A53727  19.716  26.649   6.259
 4017POPC   D2A53728  19.969  26.448   6.595
 4017POPC   C3A53729  19.782  26.473   6.991
 4017POPC   C4A53730  19.402  26.740   7.018
 4017POPC   C1B53731  19.905  27.153   6.122
 4017POPC   C2B53732  20.065  26.957   6.484
 4017POPC   C3B53733  20.100  26.875   6.907
 4017POPC   C4B53734  19.823  26.958   7.238
 4018POPC   NC353735   5.655  32.926   5.231
 4018POPC   PO453736   5.857  33.517   5.380
 4018POPC   GL153737   5.853  33.307   5.746
 4018POPC   GL253738   5.944  32.967   5.672
 4018POPC   C1A53739   5.691  33.300   6.156
 4018POPC   D2A53740   5.557  33.130   6.546
 4018POPC   C3A53741   5.780  33.302   6.898
 4018POPC   C4A53742   5.823  33.222   7.320
 4018POPC   C1B53743   5.830  32.826   6.108
 4018POPC   C2B53744   5.848  32.705   6.572
 4018POPC   C3B53745   5.970  32.804   7.012
 4018POPC   C4B53746   5.821  32.709   7.447
 4019POPC   NC353747  43.773   7.637   5.283
 4019POPC   PO453748  43.913   6.973   5.508
 4019POPC   GL153749  43.702   7.118   5.788
 4019POPC   GL253750  43.969   7.408   5.797
 4019POPC   C1A53751  43.638   7.303   6.179
 4019POPC   D2A53752  43.896   7.594   6.436
 4019POPC   C3A53753  43.908   7.506   6.866
 4019POPC   C4A53754  44.106   7.435   7.273
 4019POPC   C1B53755  44.124   7.126   6.136
 4019POPC   C2B53756  44.275   7.187   6.549
 4019POPC   C3B53757  44.146   7.067   6.931
 4019POPC   C4B53758  43.977   6.946   7.307
 4020POPC   NC353759  13.708   4.562   5.182
 4020POPC   PO453760  13.972   4.005   5.473
 4020POPC   GL153761  13.725   4.178   5.796
 4020POPC   GL253762  13.555   4.484   5.680
 4020POPC   C1A53763  13.617   4.074   6.219
 4020POPC   D2A53764  13.412   4.151   6.609
 4020POPC   C3A53765  13.585   4.306   6.997
 4020POPC   C4A53766  13.335   4.540   7.272
 4020POPC   C1B53767  13.808   4.654   6.008
 4020POPC   C2B53768  13.884   4.833   6.430
 4020POPC   C3B53769  13.930   4.689   6.853
 4020POPC   C4B53770  14.058   4.515   7.214
 4021POPC   NC353771   1.172  24.842   5.377
 4021POPC   PO453772   1.056  24.203   5.503
 4021POPC   GL153773   1.089  24.466   5.826
 4021POPC   GL253774   0.775  24.638   5.870
 4021POPC   C1A53775   1.285  24.412   6.225
 4021POPC   D2A53776   1.328  24.225   6.646
 4021POPC   C3A53777   1.206  24.422   7.040
 4021POPC   C4A53778   1.289  24.381   7.501
 4021POPC   C1B53779   0.977  24.833   6.201
 4021POPC   C2B53780   1.107  24.718   6.602
 4021POPC   C3B53781   0.915  24.851   6.980
 4021POPC   C4B53782   0.996  24.778   7.400
 4022POPC   NC353783  13.062  13.803   5.372
 4022POPC   PO453784  12.402  13.935   5.532
 4022POPC   GL153785  12.765  13.746   5.789
 4022POPC   GL253786  13.084  13.925   5.852
 4022POPC   C1A53787  12.815  13.411   6.091
 4022POPC   D2A53788  12.907  13.447   6.506
 4022POPC   C3A53789  12.689  13.332   6.888
 4022POPC   C4A53790  12.881  13.384   7.310
 4022POPC   C1B53791  13.236  13.709   6.204
 4022POPC   C2B53792  13.220  13.828   6.599
 4022POPC   C3B53793  13.046  13.758   6.969
 4022POPC   C4B53794  13.317  13.699   7.313
 4023POPC   NC353795  29.068  34.160   5.467
 4023POPC   PO453796  28.887  34.824   5.487
 4023POPC   GL153797  28.908  34.551   5.812
 4023POPC   GL253798  29.239  34.435   5.904
 4023POPC   C1A53799  28.805  34.407   6.207
 4023POPC   D2A53800  29.019  34.306   6.534
 4023POPC   C3A53801  28.912  34.479   6.918
 4023POPC   C4A53802  29.044  34.391   7.301
 4023POPC   C1B53803  29.159  34.761   6.263
 4023POPC   C2B53804  29.195  35.030   6.641
 4023POPC   C3B53805  29.208  34.872   7.040
 4023POPC   C4B53806  29.019  34.893   7.404
 4024POPC   NC353807  37.453  17.829   5.268
 4024POPC   PO453808  37.809  17.241   5.275
 4024POPC   GL153809  37.607  17.466   5.635
 4024POPC   GL253810  37.836  17.749   5.688
 4024POPC   C1A53811  37.592  17.548   6.105
 4024POPC   D2A53812  37.641  17.613   6.570
 4024POPC   C3A53813  37.296  17.700   6.863
 4024POPC   C4A53814  37.292  17.505   7.268
 4024POPC   C1B53815  37.950  17.956   6.095
 4024POPC   C2B53816  37.889  18.064   6.559
 4024POPC   C3B53817  37.990  18.003   7.011
 4024POPC   C4B53818  38.003  18.011   7.488
 4025POPC   NC353819   0.686   3.578   5.387
 4025POPC   PO453820  44.995   3.338   5.344
 4025POPC   GL153821   0.181   3.228   5.733
 4025POPC   GL253822   0.457   3.426   5.804
 4025POPC   C1A53823   0.078   3.112   6.158
 4025POPC   D2A53824   0.179   3.235   6.603
 4025POPC   C3A53825   0.522   3.261   6.852
 4025POPC   C4A53826   0.358   3.306   7.255
 4025POPC   C1B53827   0.356   3.550   6.212
 4025POPC   C2B53828   0.146   3.753   6.532
 4025POPC   C3B53829   0.281   3.749   6.944
 4025POPC   C4B53830   0.672   3.670   7.163
 4026POPC   NC353831   9.236  23.984   5.399
 4026POPC   PO453832   8.640  23.618   5.409
 4026POPC   GL153833   8.898  23.488   5.799
 4026POPC   GL253834   9.220  23.710   5.879
 4026POPC   C1A53835   8.970  23.318   6.239
 4026POPC   D2A53836   8.769  23.492   6.629
 4026POPC   C3A53837   8.933  23.680   7.027
 4026POPC   C4A53838   8.824  23.842   7.448
 4026POPC   C1B53839   9.429  23.826   6.308
 4026POPC   C2B53840   9.417  24.041   6.748
 4026POPC   C3B53841   9.292  23.994   7.220
 4026POPC   C4B53842   9.278  24.068   7.683
 4027POPC   NC353843  40.251   9.083   5.191
 4027POPC   PO453844  39.611   8.697   5.097
 4027POPC   GL153845  39.818   8.764   5.587
 4027POPC   GL253846  39.837   9.111   5.742
 4027POPC   C1A53847  40.025   8.738   6.080
 4027POPC   D2A53848  40.220   8.771   6.515
 4027POPC   C3A53849  40.003   8.702   6.921
 4027POPC   C4A53850  40.043   8.713   7.347
 4027POPC   C1B53851  39.771   9.180   6.217
 4027POPC   C2B53852  39.869   9.167   6.691
 4027POPC   C3B53853  39.919   9.190   7.169
 4027POPC   C4B53854  39.774   9.279   7.641
 4028POPC   NC353855  33.087  43.871   5.079
 4028POPC   PO453856  32.495  43.649   5.280
 4028POPC   GL153857  32.778  43.979   5.561
 4028POPC   GL253858  33.123  43.894   5.745
 4028POPC   C1A53859  32.837  44.224   6.003
 4028POPC   D2A53860  32.740  44.117   6.456
 4028POPC   C3A53861  32.966  44.137   6.859
 4028POPC   C4A53862  32.860  43.977   7.237
 4028POPC   C1B53863  33.124  43.845   6.254
 4028POPC   C2B53864  33.036  43.657   6.721
 4028POPC   C3B53865  32.991  43.481   7.186
 4028POPC   C4B53866  33.288  43.511   7.582
 4029POPC   NC353867  14.811   7.644   5.341
 4029POPC   PO453868  14.445   7.122   5.527
 4029POPC   GL153869  14.618   7.257   5.925
 4029POPC   GL253870  14.740   7.615   5.852
 4029POPC   C1A53871  14.443   7.355   6.357
 4029POPC   D2A53872  14.013   7.359   6.580
 4029POPC   C3A53873  14.092   7.337   7.028
 4029POPC   C4A53874  14.533   7.227   7.137
 4029POPC   C1B53875  14.302   7.719   6.004
 4029POPC   C2B53876  14.246   7.835   6.456
 4029POPC   C3B53877  14.490   7.639   6.822
 4029POPC   C4B53878  14.852   7.687   7.147
 4030POPC   NC353879  38.758  10.066   5.507
 4030POPC   PO453880  38.199   9.709   5.365
 4030POPC   GL153881  38.339   9.685   5.778
 4030POPC   GL253882  38.665   9.623   5.834
 4030POPC   C1A53883  38.292   9.676   6.214
 4030POPC   D2A53884  38.050   9.671   6.605
 4030POPC   C3A53885  38.289   9.712   7.020
 4030POPC   C4A53886  38.269   9.537   7.436
 4030POPC   C1B53887  38.819   9.712   6.264
 4030POPC   C2B53888  39.032   9.768   6.657
 4030POPC   C3B53889  38.973   9.509   7.004
 4030POPC   C4B53890  38.789   9.556   7.397
 4031POPC   NC353891  39.632  27.079   5.354
 4031POPC   PO453892  39.304  26.503   5.473
 4031POPC   GL153893  39.354  26.834   5.738
 4031POPC   GL253894  39.698  26.767   5.753
 4031POPC   C1A53895  39.205  26.905   6.156
 4031POPC   D2A53896  39.106  26.800   6.581
 4031POPC   C3A53897  39.232  27.114   6.867
 4031POPC   C4A53898  39.293  27.208   7.269
 4031POPC   C1B53899  39.648  26.604   6.170
 4031POPC   C2B53900  39.519  26.544   6.604
 4031POPC   C3B53901  39.380  26.647   7.031
 4031POPC   C4B53902  39.551  26.444   7.373
 4032POPC   NC353903  37.697  40.160   5.318
 4032POPC   PO453904  37.656  39.518   5.396
 4032POPC   GL153905  37.715  39.644   5.836
 4032POPC   GL253906  37.951  39.905   5.793
 4032POPC   C1A53907  37.777  39.750   6.299
 4032POPC   D2A53908  37.643  40.061   6.618
 4032POPC   C3A53909  37.650  39.908   7.036
 4032POPC   C4A53910  37.686  39.719   7.399
 4032POPC   C1B53911  38.033  40.161   6.152
 4032POPC   C2B53912  38.082  40.309   6.587
 4032POPC   C3B53913  37.903  40.353   7.001
 4032POPC   C4B53914  38.072  40.188   7.368
 4033POPC   NC353915   0.753  32.577   5.389
 4033POPC   PO453916   0.317  32.114   5.398
 4033POPC   GL153917   0.579  32.183   5.724
 4033POPC   GL253918   0.285  32.262   5.906
 4033POPC   C1A53919   0.715  32.203   6.174
 4033POPC   D2A53920   0.691  31.947   6.517
 4033POPC   C3A53921   0.645  31.964   6.932
 4033POPC   C4A53922   0.838  32.261   7.120
 4033POPC   C1B53923   0.246  31.971   6.250
 4033POPC   C2B53924   0.214  32.149   6.683
 4033POPC   C3B53925   0.295  32.308   7.118
 4033POPC   C4B53926   0.189  32.624   7.433
 4034POPC   NC353927   6.336  23.413   5.422
 4034POPC   PO453928   6.923  23.628   5.531
 4034POPC   GL153929   6.888  23.300   5.887
 4034POPC   GL253930   6.538  23.246   5.908
 4034POPC   C1A53931   6.841  23.286   6.362
 4034POPC   D2A53932   6.907  23.649   6.679
 4034POPC   C3A53933   6.641  23.787   7.051
 4034POPC   C4A53934   6.707  23.946   7.481
 4034POPC   C1B53935   6.337  23.284   6.340
 4034POPC   C2B53936   6.488  23.388   6.753
 4034POPC   C3B53937   6.477  23.298   7.171
 4034POPC   C4B53938   6.513  23.491   7.574
 4035POPC   NC353939   0.727   1.053   5.480
 4035POPC   PO453940   1.207   1.307   5.091
 4035POPC   GL153941   1.120   1.272   5.664
 4035POPC   GL253942   1.095   0.937   5.809
 4035POPC   C1A53943   1.183   1.314   6.130
 4035POPC   D2A53944   1.303   1.100   6.501
 4035POPC   C3A53945   1.090   1.213   6.872
 4035POPC   C4A53946   1.105   1.448   7.241
 4035POPC   C1B53947   0.732   1.075   6.109
 4035POPC   C2B53948   0.740   1.286   6.478
 4035POPC   C3B53949   0.562   1.151   6.859
 4035POPC   C4B53950   0.722   1.103   7.236
 4036POPC   NC353951   2.043  23.575   5.501
 4036POPC   PO453952   1.964  22.962   5.280
 4036POPC   GL153953   2.133  22.979   5.690
 4036POPC   GL253954   1.856  23.171   5.752
 4036POPC   C1A53955   2.119  22.824   6.128
 4036POPC   D2A53956   1.964  22.954   6.526
 4036POPC   C3A53957   2.073  22.769   6.907
 4036POPC   C4A53958   1.785  22.881   7.209
 4036POPC   C1B53959   1.797  23.264   6.154
 4036POPC   C2B53960   1.849  23.489   6.534
 4036POPC   C3B53961   1.945  23.294   6.924
 4036POPC   C4B53962   1.781  23.378   7.340
 4037POPC   NC353963  39.542  39.474   5.416
 4037POPC   PO453964  40.223  39.304   5.483
 4037POPC   GL153965  40.006  39.366   5.855
 4037POPC   GL253966  39.693  39.235   5.855
 4037POPC   C1A53967  40.026  39.483   6.285
 4037POPC   D2A53968  40.164  39.281   6.667
 4037POPC   C3A53969  39.998  39.398   7.063
 4037POPC   C4A53970  39.977  39.295   7.517
 4037POPC   C1B53971  39.519  39.424   6.233
 4037POPC   C2B53972  39.660  39.351   6.654
 4037POPC   C3B53973  39.647  39.037   6.989
 4037POPC   C4B53974  39.518  39.301   7.327
 4038POPC   NC353975  15.364  11.883   5.502
 4038POPC   PO453976  14.732  12.043   5.397
 4038POPC   GL153977  14.901  11.988   5.771
 4038POPC   GL253978  15.123  12.245   5.780
 4038POPC   C1A53979  15.054  11.918   6.173
 4038POPC   D2A53980  14.976  11.652   6.504
 4038POPC   C3A53981  15.124  11.893   6.849
 4038POPC   C4A53982  15.188  11.806   7.260
 4038POPC   C1B53983  15.322  12.379   6.176
 4038POPC   C2B53984  15.454  12.463   6.608
 4038POPC   C3B53985  15.417  12.290   7.037
 4038POPC   C4B53986  15.352  12.231   7.472
 4039POPC   NC353987  25.006   6.207   5.591
 4039POPC   PO453988  24.378   5.972   5.310
 4039POPC   GL153989  24.331   5.898   5.740
 4039POPC   GL253990  24.696   5.784   5.765
 4039POPC   C1A53991  24.363   5.759   6.171
 4039POPC   D2A53992  24.322   5.458   6.501
 4039POPC   C3A53993  24.459   5.617   6.890
 4039POPC   C4A53994  24.601   5.896   7.192
 4039POPC   C1B53995  24.851   5.563   6.145
 4039POPC   C2B53996  24.857   5.397   6.588
 4039POPC   C3B53997  24.972   5.475   7.031
 4039POPC   C4B53998  24.927   5.599   7.449
 4040POPC   NC353999  25.697  27.847   5.097
 4040POPC   PO454000  25.324  27.434   5.346
 4040POPC   GL154001  25.461  27.543   5.813
 4040POPC   GL254002  25.311  27.891   5.968
 4040POPC   C1A54003  25.567  27.600   6.264
 4040POPC   D2A54004  25.367  27.871   6.550
 4040POPC   C3A54005  25.274  27.658   6.922
 4040POPC   C4A54006  25.582  27.601   7.215
 4040POPC   C1B54007  25.053  27.579   6.249
 4040POPC   C2B54008  24.940  27.313   6.627
 4040POPC   C3B54009  24.855  27.188   7.048
 4040POPC   C4B54010  25.022  27.432   7.356
 4041POPC   NC354011   4.749  16.952   5.634
 4041POPC   PO454012   5.134  16.379   5.340
 4041POPC   GL154013   5.218  16.353   5.744
 4041POPC   GL254014   5.177  16.665   5.854
 4041POPC   C1A54015   5.367  16.315   6.161
 4041POPC   D2A54016   5.300  16.563   6.502
 4041POPC   C3A54017   5.163  16.379   6.868
 4041POPC   C4A54018   5.018  16.585   7.219
 4041POPC   C1B54019   5.206  16.956   6.155
 4041POPC   C2B54020   5.070  17.054   6.531
 4041POPC   C3B54021   5.234  16.916   6.882
 4041POPC   C4B54022   5.394  16.899   7.279
 4042POPC   NC354023  13.579  30.121   5.510
 4042POPC   PO454024  14.038  29.645   5.474
 4042POPC   GL154025  13.756  29.756   5.788
 4042POPC   GL254026  13.772  29.465   5.886
 4042POPC   C1A54027  13.513  29.837   6.183
 4042POPC   D2A54028  13.434  29.614   6.578
 4042POPC   C3A54029  13.551  29.773   6.999
 4042POPC   C4A54030  13.609  30.163   7.245
 4042POPC   C1B54031  14.018  29.731   6.210
 4042POPC   C2B54032  13.865  29.903   6.584
 4042POPC   C3B54033  14.014  30.002   6.984
 4042POPC   C4B54034  13.991  29.856   7.429
 4043POPC   NC354035   5.446   9.926   5.405
 4043POPC   PO454036   5.002   9.560   5.406
 4043POPC   GL154037   5.129   9.710   5.795
 4043POPC   GL254038   5.467   9.648   5.850
 4043POPC   C1A54039   5.142   9.943   6.181
 4043POPC   D2A54040   5.290   9.902   6.593
 4043POPC   C3A54041   5.064   9.897   7.012
 4043POPC   C4A54042   5.379   9.902   7.295
 4043POPC   C1B54043   5.315   9.343   6.114
 4043POPC   C2B54044   5.143   9.432   6.475
 4043POPC   C3B54045   5.253   9.456   6.883
 4043POPC   C4B54046   5.140   9.425   7.291
 4044POPC   NC354047  35.884  16.912   5.502
 4044POPC   PO454048  36.317  16.380   5.367
 4044POPC   GL154049  36.168  16.528   5.749
 4044POPC   GL254050  36.420  16.394   5.930
 4044POPC   C1A54051  36.040  16.759   6.135
 4044POPC   D2A54052  36.169  16.922   6.552
 4044POPC   C3A54053  36.020  16.786   6.939
 4044POPC   C4A54054  36.112  16.850   7.357
 4044POPC   C1B54055  36.396  16.435   6.353
 4044POPC   C2B54056  36.412  16.504   6.768
 4044POPC   C3B54057  36.328  16.433   7.187
 4044POPC   C4B54058  36.392  16.346   7.612
 4045POPC   NC354059  18.166  21.706   5.271
 4045POPC   PO454060  18.000  21.177   5.489
 4045POPC   GL154061  18.222  21.513   5.768
 4045POPC   GL254062  18.103  21.878   5.757
 4045POPC   C1A54063  18.392  21.444   6.207
 4045POPC   D2A54064  18.391  21.155   6.585
 4045POPC   C3A54065  18.271  21.359   6.982
 4045POPC   C4A54066  18.075  21.264   7.399
 4045POPC   C1B54067  17.974  21.721   6.189
 4045POPC   C2B54068  17.922  21.373   6.511
 4045POPC   C3B54069  17.764  21.419   6.929
 4045POPC   C4B54070  17.977  21.719   7.217
 4046POPC   NC354071  23.450  44.348   5.440
 4046POPC   PO454072  23.783  43.843   5.545
 4046POPC   GL154073  23.695  43.936   5.900
 4046POPC   GL254074  23.388  44.019   5.849
 4046POPC   C1A54075  23.795  44.024   6.276
 4046POPC   D2A54076  24.010  43.800   6.538
 4046POPC   C3A54077  23.974  44.008   6.894
 4046POPC   C4A54078  24.094  43.988   7.294
 4046POPC   C1B54079  23.299  43.908   6.271
 4046POPC   C2B54080  23.490  43.966   6.685
 4046POPC   C3B54081  23.555  43.851   7.118
 4046POPC   C4B54082  23.339  44.006   7.429
 4047POPC   NC354083  12.677  35.675   5.128
 4047POPC   PO454084  11.986  35.488   5.342
 4047POPC   GL154085  12.040  35.335   5.784
 4047POPC   GL254086  11.721  35.242   5.913
 4047POPC   C1A54087  12.357  35.135   6.097
 4047POPC   D2A54088  12.563  35.214   6.537
 4047POPC   C3A54089  12.379  35.213   7.019
 4047POPC   C4A54090  12.054  35.464   7.299
 4047POPC   C1B54091  11.963  35.392   6.281
 4047POPC   C2B54092  12.021  35.218   6.661
 4047POPC   C3B54093  11.733  35.144   7.008
 4047POPC   C4B54094  11.657  35.184   7.451
 4048POPC   NC354095  12.130  28.849   5.425
 4048POPC   PO454096  11.772  29.419   5.403
 4048POPC   GL154097  12.026  29.258   5.755
 4048POPC   GL254098  12.201  28.934   5.905
 4048POPC   C1A54099  12.077  29.338   6.181
 4048POPC   D2A54100  12.157  29.101   6.569
 4048POPC   C3A54101  12.006  29.264   6.961
 4048POPC   C4A54102  12.223  29.393   7.373
 4048POPC   C1B54103  11.795  28.905   6.136
 4048POPC   C2B54104  11.743  28.814   6.574
 4048POPC   C3B54105  11.948  28.742   6.950
 4048POPC   C4B54106  12.037  28.910   7.337
 4049POPC   NC354107  44.185   0.585   5.419
 4049POPC   PO454108  44.728   0.148   5.190
 4049POPC   GL154109  44.654   0.441   5.613
 4049POPC   GL254110  44.899   0.430   5.905
 4049POPC   C1A54111  44.419   0.533   6.053
 4049POPC   D2A54112  44.372   0.671   6.495
 4049POPC   C3A54113  44.559   0.485   6.855
 4049POPC   C4A54114  44.874   0.488   7.174
 4049POPC   C1B54115  44.765   0.274   6.357
 4049POPC   C2B54116  44.873   0.081   6.777
 4049POPC   C3B54117   0.069   0.032   7.200
 4049POPC   C4B54118   0.077   0.163   7.670
 4050POPC   NC354119  26.343   1.048   5.354
 4050POPC   PO454120  25.866   1.466   5.577
 4050POPC   GL154121  26.114   1.383   5.855
 4050POPC   GL254122  26.158   1.015   5.846
 4050POPC   C1A54123  26.069   1.558   6.252
 4050POPC   D2A54124  26.264   1.406   6.596
 4050POPC   C3A54125  26.205   1.596   6.963
 4050POPC   C4A54126  26.352   1.374   7.272
 4050POPC   C1B54127  25.847   1.087   6.213
 4050POPC   C2B54128  25.804   1.181   6.678
 4050POPC   C3B54129  25.900   1.134   7.128
 4050POPC   C4B54130  26.212   0.887   7.385
 4051POPC   NC354131  36.318  10.507   5.297
 4051POPC   PO454132  35.883  10.199   5.645
 4051POPC   GL154133  36.179  10.391   5.878
 4051POPC   GL254134  36.429  10.146   5.907
 4051POPC   C1A54135  36.087  10.618   6.249
 4051POPC   D2A54136  35.775  10.653   6.560
 4051POPC   C3A54137  35.860  10.443   6.950
 4051POPC   C4A54138  35.860  10.561   7.403
 4051POPC   C1B54139  36.252  10.140   6.357
 4051POPC   C2B54140  36.307  10.469   6.695
 4051POPC   C3B54141  36.342  10.441   7.139
 4051POPC   C4B54142  36.548  10.089   7.321
 4052POPC   NC354143  16.712  23.213   5.207
 4052POPC   PO454144  16.707  22.530   5.304
 4052POPC   GL154145  16.740  22.764   5.724
 4052POPC   GL254146  16.983  23.073   5.742
 4052POPC   C1A54147  16.576  22.804   6.174
 4052POPC   D2A54148  16.840  22.844   6.556
 4052POPC   C3A54149  16.658  22.841   6.953
 4052POPC   C4A54150  16.656  22.595   7.318
 4052POPC   C1B54151  16.882  23.216   6.180
 4052POPC   C2B54152  16.928  23.354   6.622
 4052POPC   C3B54153  17.035  23.179   7.025
 4052POPC   C4B54154  16.787  23.102   7.403
 4053POPC   NC354155  42.614  26.223   5.468
 4053POPC   PO454156  41.917  26.231   5.497
 4053POPC   GL154157  42.067  25.888   5.799
 4053POPC   GL254158  42.455  25.871   5.849
 4053POPC   C1A54159  42.150  25.839   6.257
 4053POPC   D2A54160  42.276  26.072   6.629
 4053POPC   C3A54161  42.280  25.852   7.020
 4053POPC   C4A54162  41.889  25.786   7.205
 4053POPC   C1B54163  42.500  26.251   6.163
 4053POPC   C2B54164  42.638  26.433   6.594
 4053POPC   C3B54165  42.547  26.339   7.059
 4053POPC   C4B54166  42.637  26.016   7.398
 4054POPC   NC354167  17.631  25.198   5.291
 4054POPC   PO454168  17.583  25.881   5.387
 4054POPC   GL154169  17.431  25.523   5.694
 4054POPC   GL254170  17.729  25.283   5.815
 4054POPC   C1A54171  17.360  25.451   6.167
 4054POPC   D2A54172  17.527  25.596   6.594
 4054POPC   C3A54173  17.436  25.365   6.989
 4054POPC   C4A54174  17.497  25.378   7.448
 4054POPC   C1B54175  17.859  25.308   6.288
 4054POPC   C2B54176  17.993  25.232   6.755
 4054POPC   C3B54177  17.829  25.082   7.176
 4054POPC   C4B54178  17.790  24.978   7.650
 4055POPC   NC354179  36.654  19.773   5.197
 4055POPC   PO454180  37.258  19.680   5.265
 4055POPC   GL154181  36.967  19.792   5.634
 4055POPC   GL254182  36.710  20.018   5.786
 4055POPC   C1A54183  37.084  19.819   6.077
 4055POPC   D2A54184  36.968  19.602   6.449
 4055POPC   C3A54185  37.205  19.714   6.793
 4055POPC   C4A54186  37.190  19.716   7.220
 4055POPC   C1B54187  36.582  19.940   6.253
 4055POPC   C2B54188  36.521  19.695   6.680
 4055POPC   C3B54189  36.683  19.805   7.121
 4055POPC   C4B54190  36.513  19.861   7.583
 4056POPC   NC354191   8.033  18.455   5.568
 4056POPC   PO454192   8.401  17.953   5.316
 4056POPC   GL154193   8.267  18.021   5.751
 4056POPC   GL254194   8.456  18.312   5.811
 4056POPC   C1A54195   8.120  18.252   6.173
 4056POPC   D2A54196   8.127  18.489   6.559
 4056POPC   C3A54197   8.030  18.250   6.946
 4056POPC   C4A54198   8.066  18.308   7.350
 4056POPC   C1B54199   8.566  18.502   6.198
 4056POPC   C2B54200   8.587  18.274   6.559
 4056POPC   C3B54201   8.505  18.388   6.956
 4056POPC   C4B54202   8.541  18.134   7.283
 4057POPC   NC354203  32.389  20.257   4.966
 4057POPC   PO454204  31.845  20.201   5.416
 4057POPC   GL154205  32.111  20.332   5.774
 4057POPC   GL254206  32.379  20.176   6.010
 4057POPC   C1A54207  31.997  20.513   6.152
 4057POPC   D2A54208  31.897  20.684   6.528
 4057POPC   C3A54209  32.104  20.525   6.876
 4057POPC   C4A54210  32.122  20.689   7.286
 4057POPC   C1B54211  32.436  20.477   6.401
 4057POPC   C2B54212  32.496  20.810   6.717
 4057POPC   C3B54213  32.620  20.788   7.177
 4057POPC   C4B54214  32.837  20.610   7.559
 4058POPC   NC354215  44.786  31.173   5.362
 4058POPC   PO454216  44.545  31.783   5.344
 4058POPC   GL154217  44.622  31.542   5.704
 4058POPC   GL254218  44.464  31.208   5.766
 4058POPC   C1A54219  44.569  31.587   6.130
 4058POPC   D2A54220  44.878  31.592   6.430
 4058POPC   C3A54221  44.732  31.624   6.840
 4058POPC   C4A54222  44.926  31.737   7.231
 4058POPC   C1B54223  44.506  31.057   6.193
 4058POPC   C2B54224  44.644  31.129   6.636
 4058POPC   C3B54225  44.643  31.117   7.091
 4058POPC   C4B54226  44.446  31.450   7.277
 4059POPC   NC354227  18.482  24.791   5.384
 4059POPC   PO454228  18.329  24.178   5.608
 4059POPC   GL154229  18.288  24.563   5.791
 4059POPC   GL254230  17.999  24.711   5.623
 4059POPC   C1A54231  18.478  24.690   6.166
 4059POPC   D2A54232  18.624  24.433   6.543
 4059POPC   C3A54233  18.703  24.616   6.937
 4059POPC   C4A54234  18.496  24.598   7.316
 4059POPC   C1B54235  17.960  24.854   6.052
 4059POPC   C2B54236  17.962  24.781   6.505
 4059POPC   C3B54237  18.119  24.711   6.950
 4059POPC   C4B54238  17.967  24.570   7.364
 4060POPC   NC354239  43.087  14.741   5.396
 4060POPC   PO454240  42.981  14.131   5.266
 4060POPC   GL154241  43.146  14.336   5.705
 4060POPC   GL254242  43.392  14.634   5.799
 4060POPC   C1A54243  43.014  14.498   6.150
 4060POPC   D2A54244  42.783  14.350   6.547
 4060POPC   C3A54245  42.953  14.495   6.950
 4060POPC   C4A54246  42.965  14.317   7.342
 4060POPC   C1B54247  43.365  14.887   6.225
 4060POPC   C2B54248  43.384  14.990   6.703
 4060POPC   C3B54249  43.388  14.705   7.079
 4060POPC   C4B54250  43.402  14.524   7.517
 4061POPC   NC354251  24.611  28.088   5.318
 4061POPC   PO454252  24.208  28.619   5.142
 4061POPC   GL154253  24.454  28.492   5.610
 4061POPC   GL254254  24.387  28.139   5.777
 4061POPC   C1A54255  24.643  28.484   6.095
 4061POPC   D2A54256  24.780  28.473   6.594
 4061POPC   C3A54257  24.530  28.370   7.020
 4061POPC   C4A54258  24.241  28.680   7.232
 4061POPC   C1B54259  24.236  28.163   6.221
 4061POPC   C2B54260  24.380  28.047   6.654
 4061POPC   C3B54261  24.242  27.872   7.073
 4061POPC   C4B54262  24.274  27.858   7.559
 4062POPC   NC354263  27.715  38.303   5.469
 4062POPC   PO454264  27.165  38.328   5.557
 4062POPC   GL154265  27.460  38.324   5.931
 4062POPC   GL254266  27.659  38.038   6.008
 4062POPC   C1A54267  27.402  38.351   6.404
 4062POPC   D2A54268  27.511  38.290   6.862
 4062POPC   C3A54269  27.345  38.586   7.184
 4062POPC   C4A54270  27.591  38.818   7.527
 4062POPC   C1B54271  27.883  38.207   6.379
 4062POPC   C2B54272  27.834  38.602   6.611
 4062POPC   C3B54273  27.818  38.682   7.055
 4062POPC   C4B54274  27.836  38.395   7.424
 4063POPC   NC354275  26.597  44.471   5.626
 4063POPC   PO454276  26.938   0.016   5.356
 4063POPC   GL154277  26.916  44.819   5.796
 4063POPC   GL254278  27.075  44.479   5.797
 4063POPC   C1A54279  26.752  44.886   6.245
 4063POPC   D2A54280  26.837   0.091   6.656
 4063POPC   C3A54281  26.772  44.843   7.047
 4063POPC   C4A54282  26.511  44.707   7.439
 4063POPC   C1B54283  26.868  44.383   6.211
 4063POPC   C2B54284  26.681  44.493   6.595
 4063POPC   C3B54285  26.735  44.331   6.976
 4063POPC   C4B54286  27.081  44.444   7.157
 4064POPC   NC354287   1.778   6.377   5.500
 4064POPC   PO454288   2.140   6.971   5.351
 4064POPC   GL154289   2.081   6.728   5.795
 4064POPC   GL254290   1.729   6.637   5.925
 4064POPC   C1A54291   2.044   6.738   6.305
 4064POPC   D2A54292   2.324   6.879   6.667
 4064POPC   C3A54293   2.204   6.780   7.099
 4064POPC   C4A54294   1.939   6.791   7.487
 4064POPC   C1B54295   1.564   6.299   6.203
 4064POPC   C2B54296   1.564   6.404   6.646
 4064POPC   C3B54297   1.716   6.584   7.037
 4064POPC   C4B54298   1.865   6.298   7.382
 4065POPC   NC354299  36.235   5.822   5.345
 4065POPC   PO454300  36.677   6.269   5.380
 4065POPC   GL154301  36.348   6.156   5.760
 4065POPC   GL254302  36.065   5.855   5.828
 4065POPC   C1A54303  36.112   6.204   6.187
 4065POPC   D2A54304  35.835   6.104   6.549
 4065POPC   C3A54305  35.921   6.074   6.973
 4065POPC   C4A54306  36.232   6.092   7.251
 4065POPC   C1B54307  36.004   5.695   6.252
 4065POPC   C2B54308  36.242   5.804   6.635
 4065POPC   C3B54309  36.207   5.640   7.038
 4065POPC   C4B54310  36.036   5.636   7.448
 4066POPC   NC354311  21.633   0.686   5.424
 4066POPC   PO454312  21.057   0.244   5.462
 4066POPC   GL154313  21.310   0.505   5.780
 4066POPC   GL254314  21.307   0.865   5.859
 4066POPC   C1A54315  21.552   0.454   6.180
 4066POPC   D2A54316  21.783   0.444   6.586
 4066POPC   C3A54317  21.582   0.298   7.007
 4066POPC   C4A54318  21.545   0.265   7.497
 4066POPC   C1B54319  21.053   0.694   6.196
 4066POPC   C2B54320  21.195   0.508   6.595
 4066POPC   C3B54321  21.262   0.717   6.979
 4066POPC   C4B54322  21.193   0.703   7.393
 4067POPC   NC354323  12.485  38.446   5.332
 4067POPC   PO454324  13.120  38.375   5.457
 4067POPC   GL154325  12.812  38.411   5.754
 4067POPC   GL254326  12.667  38.090   5.728
 4067POPC   C1A54327  12.827  38.596   6.163
 4067POPC   D2A54328  12.915  38.371   6.550
 4067POPC   C3A54329  13.077  38.526   6.944
 4067POPC   C4A54330  12.911  38.513   7.361
 4067POPC   C1B54331  12.512  38.213   6.172
 4067POPC   C2B54332  12.449  38.203   6.651
 4067POPC   C3B54333  12.691  38.191   7.036
 4067POPC   C4B54334  12.553  38.156   7.448
 4068POPC   NC354335  15.712   0.794   5.452
 4068POPC   PO454336  16.026   0.181   5.398
 4068POPC   GL154337  15.974   0.479   5.759
 4068POPC   GL254338  15.584   0.460   5.839
 4068POPC   C1A54339  15.914   0.647   6.201
 4068POPC   D2A54340  15.740   0.509   6.628
 4068POPC   C3A54341  16.014   0.566   7.002
 4068POPC   C4A54342  16.168   0.311   7.375
 4068POPC   C1B54343  15.406   0.690   6.202
 4068POPC   C2B54344  15.550   0.959   6.576
 4068POPC   C3B54345  15.575   0.843   7.038
 4068POPC   C4B54346  15.753   0.632   7.434
 4069POPC   NC354347  42.082  41.379   5.477
 4069POPC   PO454348  42.456  40.885   5.181
 4069POPC   GL154349  42.412  40.734   5.639
 4069POPC   GL254350  42.060  40.851   5.639
 4069POPC   C1A54351  42.450  40.744   6.159
 4069POPC   D2A54352  42.472  41.033   6.553
 4069POPC   C3A54353  42.501  40.811   6.939
 4069POPC   C4A54354  42.635  40.863   7.352
 4069POPC   C1B54355  41.956  40.906   6.081
 4069POPC   C2B54356  41.962  40.825   6.531
 4069POPC   C3B54357  41.998  40.863   6.994
 4069POPC   C4B54358  42.111  40.787   7.411
 4070POPC   NC354359  17.888  20.750   5.366
 4070POPC   PO454360  18.303  20.230   5.592
 4070POPC   GL154361  18.054  20.287   5.947
 4070POPC   GL254362  18.017  20.630   5.860
 4070POPC   C1A54363  18.133  20.332   6.415
 4070POPC   D2A54364  18.417  20.566   6.746
 4070POPC   C3A54365  18.190  20.862   7.066
 4070POPC   C4A54366  17.944  20.785   7.450
 4070POPC   C1B54367  17.853  20.872   6.182
 4070POPC   C2B54368  17.998  20.823   6.592
 4070POPC   C3B54369  17.955  20.453   6.899
 4070POPC   C4B54370  17.718  20.398   7.226
 4071POPC   NC354371   0.640  20.601   5.382
 4071POPC   PO454372  44.984  20.486   5.264
 4071POPC   GL154373   0.148  20.625   5.701
 4071POPC   GL254374   0.289  20.986   5.825
 4071POPC   C1A54375   0.387  20.555   6.102
 4071POPC   D2A54376   0.346  20.742   6.518
 4071POPC   C3A54377   0.594  20.606   6.844
 4071POPC   C4A54378   0.511  20.371   7.172
 4071POPC   C1B54379   0.637  21.008   6.195
 4071POPC   C2B54380   0.691  21.099   6.650
 4071POPC   C3B54381   0.668  21.063   7.097
 4071POPC   C4B54382   0.250  20.890   7.078
 4072POPC   NC354383  17.056  32.079   5.499
 4072POPC   PO454384  16.591  32.570   5.461
 4072POPC   GL154385  16.731  32.376   5.791
 4072POPC   GL254386  17.024  32.551   5.787
 4072POPC   C1A54387  16.621  32.395   6.211
 4072POPC   D2A54388  16.437  32.176   6.554
 4072POPC   C3A54389  16.450  32.299   6.983
 4072POPC   C4A54390  16.570  32.117   7.370
 4072POPC   C1B54391  17.133  32.487   6.230
 4072POPC   C2B54392  16.924  32.388   6.638
 4072POPC   C3B54393  16.975  32.248   7.059
 4072POPC   C4B54394  17.044  32.284   7.496
 4073POPC   NC354395  34.383  33.044   5.288
 4073POPC   PO454396  34.874  32.627   5.457
 4073POPC   GL154397  34.682  32.972   5.694
 4073POPC   GL254398  34.364  32.852   5.820
 4073POPC   C1A54399  34.707  33.237   6.055
 4073POPC   D2A54400  34.918  33.220   6.451
 4073POPC   C3A54401  34.729  33.171   6.875
 4073POPC   C4A54402  34.523  33.378   7.248
 4073POPC   C1B54403  34.699  32.743   6.156
 4073POPC   C2B54404  34.819  32.720   6.590
 4073POPC   C3B54405  34.743  32.634   7.027
 4073POPC   C4B54406  34.412  32.872   7.174
 4074POPC   NC354407  22.606   5.047   5.372
 4074POPC   PO454408  23.247   4.806   5.447
 4074POPC   GL154409  22.966   5.023   5.763
 4074POPC   GL254410  23.150   5.235   6.013
 4074POPC   C1A54411  22.679   5.065   6.109
 4074POPC   D2A54412  22.612   4.902   6.530
 4074POPC   C3A54413  22.701   5.144   6.904
 4074POPC   C4A54414  22.709   5.217   7.338
 4074POPC   C1B54415  23.142   4.827   6.240
 4074POPC   C2B54416  23.061   4.733   6.692
 4074POPC   C3B54417  23.086   4.833   7.137
 4074POPC   C4B54418  23.196   4.543   7.499
 4075POPC   NC354419  15.065  34.219   5.453
 4075POPC   PO454420  15.227  34.852   5.375
 4075POPC   GL154421  15.302  34.581   5.743
 4075POPC   GL254422  15.674  34.472   5.763
 4075POPC   C1A54423  15.042  34.589   6.145
 4075POPC   D2A54424  14.841  34.598   6.568
 4075POPC   C3A54425  15.076  34.746   6.931
 4075POPC   C4A54426  15.053  34.648   7.351
 4075POPC   C1B54427  15.525  34.401   6.191
 4075POPC   C2B54428  15.305  34.372   6.599
 4075POPC   C3B54429  15.211  34.257   7.029
 4075POPC   C4B54430  15.396  34.276   7.428
 4076POPC   NC354431  20.948  44.849   5.223
 4076POPC   PO454432  20.455  44.416   5.270
 4076POPC   GL154433  20.497  44.597   5.640
 4076POPC   GL254434  20.856  44.585   5.677
 4076POPC   C1A54435  20.349  44.539   6.053
 4076POPC   D2A54436  20.540  44.621   6.444
 4076POPC   C3A54437  20.311  44.539   6.840
 4076POPC   C4A54438  20.322  44.573   7.269
 4076POPC   C1B54439  20.967  44.600   6.109
 4076POPC   C2B54440  21.011  44.749   6.552
 4076POPC   C3B54441  20.814  44.692   6.959
 4076POPC   C4B54442  21.073  44.482   7.274
 4077POPC   NC354443  38.714  30.982   5.521
 4077POPC   PO454444  38.125  30.653   5.320
 4077POPC   GL154445  38.411  30.565   5.671
 4077POPC   GL254446  38.443  30.856   5.903
 4077POPC   C1A54447  38.550  30.396   6.077
 4077POPC   D2A54448  38.642  30.283   6.491
 4077POPC   C3A54449  38.583  30.500   6.849
 4077POPC   C4A54450  38.831  30.691   7.156
 4077POPC   C1B54451  38.673  31.091   6.210
 4077POPC   C2B54452  38.722  30.970   6.647
 4077POPC   C3B54453  38.551  31.087   6.990
 4077POPC   C4B54454  38.692  31.144   7.357
 4078POPC   NC354455  10.296  15.056   5.311
 4078POPC   PO454456  10.966  14.856   5.489
 4078POPC   GL154457  10.576  15.133   5.750
 4078POPC   GL254458  10.181  15.254   5.759
 4078POPC   C1A54459  10.485  15.260   6.204
 4078POPC   D2A54460  10.835  15.305   6.534
 4078POPC   C3A54461  10.869  15.094   6.946
 4078POPC   C4A54462  10.688  15.216   7.322
 4078POPC   C1B54463  10.048  14.936   6.050
 4078POPC   C2B54464  10.279  14.837   6.429
 4078POPC   C3B54465  10.371  15.131   6.775
 4078POPC   C4B54466  10.207  15.099   7.205
 4079POPC   NC354467   7.206  32.790   5.442
 4079POPC   PO454468   6.987  33.457   5.347
 4079POPC   GL154469   7.249  33.278   5.682
 4079POPC   GL254470   7.034  33.080   5.843
 4079POPC   C1A54471   7.525  33.088   6.035
 4079POPC   D2A54472   7.667  33.062   6.496
 4079POPC   C3A54473   7.614  32.788   6.901
 4079POPC   C4A54474   7.505  32.869   7.378
 4079POPC   C1B54475   7.115  33.361   6.208
 4079POPC   C2B54476   7.273  33.370   6.646
 4079POPC   C3B54477   7.200  33.066   6.997
 4079POPC   C4B54478   7.090  33.127   7.472
 4080POPC   NC354479  11.837  23.478   5.577
 4080POPC   PO454480  12.383  23.777   5.386
 4080POPC   GL154481  12.263  23.691   5.802
 4080POPC   GL254482  12.401  23.367   5.842
 4080POPC   C1A54483  12.055  23.828   6.178
 4080POPC   D2A54484  11.895  24.052   6.510
 4080POPC   C3A54485  12.042  23.916   6.895
 4080POPC   C4A54486  11.776  23.800   7.160
 4080POPC   C1B54487  12.364  23.435   6.276
 4080POPC   C2B54488  12.037  23.500   6.605
 4080POPC   C3B54489  12.075  23.399   7.048
 4080POPC   C4B54490  12.274  23.337   7.455
 4081POPC   NC354491   5.709   5.921   5.358
 4081POPC   PO454492   6.159   6.228   5.722
 4081POPC   GL154493   5.810   6.053   5.898
 4081POPC   GL254494   5.790   5.726   5.817
 4081POPC   C1A54495   5.876   6.053   6.331
 4081POPC   D2A54496   5.682   6.095   6.703
 4081POPC   C3A54497   5.914   6.116   7.067
 4081POPC   C4A54498   5.710   5.993   7.468
 4081POPC   C1B54499   6.058   5.607   6.138
 4081POPC   C2B54500   6.105   5.645   6.577
 4081POPC   C3B54501   6.186   5.687   7.007
 4081POPC   C4B54502   5.990   5.575   7.353
 4082POPC   NC354503  35.844  18.631   5.411
 4082POPC   PO454504  35.245  18.260   5.301
 4082POPC   GL154505  35.210  18.302   5.755
 4082POPC   GL254506  35.298  17.963   5.869
 4082POPC   C1A54507  34.946  18.335   6.127
 4082POPC   D2A54508  34.887  18.225   6.562
 4082POPC   C3A54509  35.153  18.446   6.834
 4082POPC   C4A54510  35.140  18.486   7.236
 4082POPC   C1B54511  35.425  18.139   6.277
 4082POPC   C2B54512  35.451  18.051   6.737
 4082POPC   C3B54513  35.476  18.093   7.205
 4082POPC   C4B54514  35.715  17.881   7.542
 4083POPC   NC354515   9.004  41.394   4.949
 4083POPC   PO454516   8.707  41.250   5.555
 4083POPC   GL154517   8.927  41.403   5.934
 4083POPC   GL254518   9.042  41.695   5.868
 4083POPC   C1A54519   8.929  41.458   6.395
 4083POPC   D2A54520   8.585  41.466   6.707
 4083POPC   C3A54521   8.686  41.397   7.130
 4083POPC   C4A54522   9.105  41.382   7.309
 4083POPC   C1B54523   9.140  42.048   6.139
 4083POPC   C2B54524   9.079  41.949   6.555
 4083POPC   C3B54525   9.016  41.734   6.917
 4083POPC   C4B54526   8.868  41.859   7.309
 4084POPC   NC354527  17.003   4.597   5.395
 4084POPC   PO454528  16.351   4.293   5.511
 4084POPC   GL154529  16.744   4.458   5.833
 4084POPC   GL254530  16.968   4.161   6.027
 4084POPC   C1A54531  17.099   4.616   6.113
 4084POPC   D2A54532  17.139   4.572   6.563
 4084POPC   C3A54533  16.797   4.437   6.829
 4084POPC   C4A54534  16.893   4.193   7.184
 4084POPC   C1B54535  16.696   4.239   6.337
 4084POPC   C2B54536  16.599   3.988   6.669
 4084POPC   C3B54537  16.431   4.038   7.075
 4084POPC   C4B54538  16.343   4.337   7.405
 4085POPC   NC354539  10.281  31.152   5.578
 4085POPC   PO454540   9.680  31.602   5.551
 4085POPC   GL154541   9.661  31.294   5.866
 4085POPC   GL254542   9.981  31.213   6.038
 4085POPC   C1A54543   9.490  31.211   6.261
 4085POPC   D2A54544   9.736  31.095   6.627
 4085POPC   C3A54545   9.609  31.410   6.902
 4085POPC   C4A54546   9.484  31.452   7.305
 4085POPC   C1B54547   9.867  31.551   6.363
 4085POPC   C2B54548   9.899  31.808   6.762
 4085POPC   C3B54549   9.888  31.764   7.228
 4085POPC   C4B54550  10.045  31.791   7.691
 4086POPC   NC354551  37.103  12.734   5.425
 4086POPC   PO454552  36.749  13.361   5.357
 4086POPC   GL154553  36.873  13.165   5.726
 4086POPC   GL254554  36.666  12.866   5.748
 4086POPC   C1A54555  36.838  13.263   6.173
 4086POPC   D2A54556  36.612  13.109   6.557
 4086POPC   C3A54557  36.847  13.162   6.931
 4086POPC   C4A54558  36.766  13.009   7.338
 4086POPC   C1B54559  36.768  12.765   6.199
 4086POPC   C2B54560  37.034  12.815   6.572
 4086POPC   C3B54561  36.984  12.673   7.007
 4086POPC   C4B54562  36.686  12.376   7.164
 4087POPC   NC354563  42.298  33.207   5.270
 4087POPC   PO454564  42.008  32.638   5.431
 4087POPC   GL154565  42.039  32.993   5.748
 4087POPC   GL254566  41.733  33.210   5.705
 4087POPC   C1A54567  42.193  32.947   6.212
 4087POPC   D2A54568  42.097  32.720   6.621
 4087POPC   C3A54569  42.245  32.827   7.052
 4087POPC   C4A54570  42.456  33.196   7.236
 4087POPC   C1B54571  41.848  33.302   6.159
 4087POPC   C2B54572  42.003  33.261   6.628
 4087POPC   C3B54573  41.987  33.396   7.084
 4087POPC   C4B54574  42.074  33.412   7.566
 4088POPC   NC354575  15.570  25.960   5.356
 4088POPC   PO454576  14.893  25.792   5.483
 4088POPC   GL154577  15.107  25.806   5.880
 4088POPC   GL254578  15.276  26.082   5.803
 4088POPC   C1A54579  15.409  25.856   6.258
 4088POPC   D2A54580  15.265  26.073   6.645
 4088POPC   C3A54581  15.412  25.878   7.023
 4088POPC   C4A54582  15.169  25.646   7.334
 4088POPC   C1B54583  15.349  26.345   6.187
 4088POPC   C2B54584  15.538  26.500   6.593
 4088POPC   C3B54585  15.467  26.396   7.035
 4088POPC   C4B54586  15.423  26.183   7.467
 4089POPC   NC354587  13.055  34.771   5.329
 4089POPC   PO454588  12.971  34.117   5.362
 4089POPC   GL154589  12.950  34.416   5.734
 4089POPC   GL254590  12.735  34.738   5.749
 4089POPC   C1A54591  12.868  34.405   6.191
 4089POPC   D2A54592  12.545  34.246   6.480
 4089POPC   C3A54593  12.691  34.156   6.870
 4089POPC   C4A54594  12.818  34.379   7.179
 4089POPC   C1B54595  12.842  34.917   6.173
 4089POPC   C2B54596  12.877  34.728   6.597
 4089POPC   C3B54597  12.982  34.823   7.021
 4089POPC   C4B54598  12.831  35.016   7.381
 4090POPC   NC354599  11.891  20.189   5.544
 4090POPC   PO454600  12.309  19.636   5.552
 4090POPC   GL154601  12.126  19.850   5.877
 4090POPC   GL254602  12.281  20.178   5.879
 4090POPC   C1A54603  12.127  19.743   6.306
 4090POPC   D2A54604  12.267  19.633   6.698
 4090POPC   C3A54605  11.897  19.663   6.950
 4090POPC   C4A54606  11.701  20.050   7.032
 4090POPC   C1B54607  12.141  20.247   6.298
 4090POPC   C2B54608  12.119  20.159   6.754
 4090POPC   C3B54609  12.265  19.951   7.128
 4090POPC   C4B54610  12.337  19.900   7.606
 4091POPC   NC354611  36.921  16.161   4.966
 4091POPC   PO454612  37.211  16.188   5.554
 4091POPC   GL154613  37.052  16.025   5.898
 4091POPC   GL254614  37.401  15.896   5.937
 4091POPC   C1A54615  36.818  16.185   6.198
 4091POPC   D2A54616  36.723  16.108   6.607
 4091POPC   C3A54617  36.784  16.252   7.023
 4091POPC   C4A54618  36.638  15.940   7.343
 4091POPC   C1B54619  37.288  15.663   6.240
 4091POPC   C2B54620  37.068  15.720   6.579
 4091POPC   C3B54621  37.250  15.752   6.947
 4091POPC   C4B54622  37.150  15.994   7.243
 4092POPC   NC354623  33.348  21.297   5.444
 4092POPC   PO454624  32.754  21.123   5.527
 4092POPC   GL154625  33.023  21.194   5.902
 4092POPC   GL254626  32.799  21.038   6.155
 4092POPC   C1A54627  33.262  21.271   6.318
 4092POPC   D2A54628  33.294  21.499   6.738
 4092POPC   C3A54629  33.208  21.325   7.166
 4092POPC   C4A54630  32.928  21.140   7.493
 4092POPC   C1B54631  32.785  21.476   6.298
 4092POPC   C2B54632  32.838  21.745   6.667
 4092POPC   C3B54633  33.001  21.794   7.087
 4092POPC   C4B54634  33.173  22.038   7.410
 4093POPC   NC354635  33.894   7.222   5.352
 4093POPC   PO454636  33.454   7.728   5.492
 4093POPC   GL154637  33.627   7.490   5.828
 4093POPC   GL254638  34.000   7.404   5.826
 4093POPC   C1A54639  33.672   7.350   6.232
 4093POPC   D2A54640  33.939   7.181   6.535
 4093POPC   C3A54641  33.684   7.131   6.900
 4093POPC   C4A54642  33.511   7.282   7.263
 4093POPC   C1B54643  34.094   7.665   6.184
 4093POPC   C2B54644  34.211   7.629   6.612
 4093POPC   C3B54645  34.137   7.372   6.983
 4093POPC   C4B54646  34.063   7.486   7.378
 4094POPC   NC354647  32.999  28.273   5.426
 4094POPC   PO454648  32.628  28.858   5.398
 4094POPC   GL154649  32.956  28.733   5.753
 4094POPC   GL254650  33.299  28.521   5.781
 4094POPC   C1A54651  33.015  28.611   6.206
 4094POPC   D2A54652  32.952  28.775   6.623
 4094POPC   C3A54653  32.911  28.386   6.846
 4094POPC   C4A54654  32.557  28.189   7.036
 4094POPC   C1B54655  33.323  28.182   6.120
 4094POPC   C2B54656  33.204  28.058   6.565
 4094POPC   C3B54657  33.352  28.157   6.986
 4094POPC   C4B54658  33.306  28.285   7.439
 4095POPC   NC354659   8.270  23.881   5.331
 4095POPC   PO454660   7.907  23.473   5.446
 4095POPC   GL154661   8.275  23.388   5.704
 4095POPC   GL254662   8.339  23.725   5.824
 4095POPC   C1A54663   8.471  23.348   6.116
 4095POPC   D2A54664   8.298  23.302   6.522
 4095POPC   C3A54665   8.360  23.550   6.933
 4095POPC   C4A54666   8.312  23.645   7.370
 4095POPC   C1B54667   8.032  23.613   6.186
 4095POPC   C2B54668   7.941  23.663   6.668
 4095POPC   C3B54669   7.930  23.863   7.118
 4095POPC   C4B54670   7.627  24.043   7.432
 4096POPC   NC354671  40.409   2.136   5.325
 4096POPC   PO454672  40.877   1.637   5.493
 4096POPC   GL154673  40.740   1.795   5.867
 4096POPC   GL254674  40.640   2.141   5.813
 4096POPC   C1A54675  40.754   1.650   6.293
 4096POPC   D2A54676  40.907   1.509   6.693
 4096POPC   C3A54677  40.864   1.840   6.952
 4096POPC   C4A54678  40.628   1.855   7.306
 4096POPC   C1B54679  40.433   2.371   6.175
 4096POPC   C2B54680  40.406   2.361   6.644
 4096POPC   C3B54681  40.589   2.309   7.078
 4096POPC   C4B54682  40.996   2.188   7.304
 4097POPC   NC354683  34.871  31.339   5.436
 4097POPC   PO454684  35.501  31.326   5.186
 4097POPC   GL154685  35.313  31.552   5.598
 4097POPC   GL254686  35.501  31.833   5.743
 4097POPC   C1A54687  35.270  31.518   6.102
 4097POPC   D2A54688  35.489  31.476   6.543
 4097POPC   C3A54689  35.236  31.501   6.950
 4097POPC   C4A54690  35.048  31.361   7.368
 4097POPC   C1B54691  35.729  31.810   6.185
 4097POPC   C2B54692  35.860  31.860   6.652
 4097POPC   C3B54693  35.746  31.635   7.020
 4097POPC   C4B54694  35.546  31.403   7.344
 4098POPC   NC354695  24.182  14.556   5.476
 4098POPC   PO454696  24.839  14.589   5.467
 4098POPC   GL154697  24.740  14.357   5.867
 4098POPC   GL254698  24.441  14.552   5.929
 4098POPC   C1A54699  24.561  14.271   6.324
 4098POPC   D2A54700  24.407  14.634   6.573
 4098POPC   C3A54701  24.440  14.594   7.026
 4098POPC   C4A54702  24.787  14.437   7.312
 4098POPC   C1B54703  24.079  14.443   6.230
 4098POPC   C2B54704  23.952  14.426   6.684
 4098POPC   C3B54705  23.898  14.663   7.076
 4098POPC   C4B54706  23.790  14.553   7.512
 4099POPC   NC354707  28.631  15.257   5.196
 4099POPC   PO454708  29.262  15.345   5.290
 4099POPC   GL154709  29.132  15.235   5.675
 4099POPC   GL254710  29.278  15.442   5.851
 4099POPC   C1A54711  29.106  15.036   6.097
 4099POPC   D2A54712  29.219  15.056   6.508
 4099POPC   C3A54713  29.027  14.905   6.902
 4099POPC   C4A54714  29.289  14.839   7.282
 4099POPC   C1B54715  29.405  15.654   6.195
 4099POPC   C2B54716  29.399  15.541   6.605
 4099POPC   C3B54717  29.351  15.294   6.945
 4099POPC   C4B54718  29.054  15.271   7.286
 4100POPC   NC354719  39.634   8.320   5.382
 4100POPC   PO454720  40.232   8.020   5.491
 4100POPC   GL154721  40.252   8.317   5.801
 4100POPC   GL254722  39.893   8.321   5.836
 4100POPC   C1A54723  40.185   8.247   6.233
 4100POPC   D2A54724  40.045   8.280   6.619
 4100POPC   C3A54725  40.101   7.999   6.930
 4100POPC   C4A54726  40.049   8.208   7.289
 4100POPC   C1B54727  39.670   8.164   6.240
 4100POPC   C2B54728  39.618   8.023   6.675
 4100POPC   C3B54729  39.619   8.017   7.115
 4100POPC   C4B54730  39.609   7.996   7.577
 4101POPC   NC354731  41.924  40.480   5.243
 4101POPC   PO454732  41.482  39.938   5.258
 4101POPC   GL154733  41.282  39.966   5.698
 4101POPC   GL254734  41.386  40.290   5.830
 4101POPC   C1A54735  41.385  39.907   6.167
 4101POPC   D2A54736  41.252  39.966   6.630
 4101POPC   C3A54737  41.446  39.815   7.060
 4101POPC   C4A54738  41.678  39.786   7.484
 4101POPC   C1B54739  41.129  40.338   6.229
 4101POPC   C2B54740  41.018  40.455   6.656
 4101POPC   C3B54741  41.163  40.269   7.043
 4101POPC   C4B54742  41.401  40.227   7.436
 4102POPC   NC354743  40.889  11.622   5.465
 4102POPC   PO454744  40.431  11.135   5.465
 4102POPC   GL154745  40.763  11.206   5.800
 4102POPC   GL254746  40.954  11.508   5.937
 4102POPC   C1A54747  40.966  11.075   6.207
 4102POPC   D2A54748  40.925  10.860   6.602
 4102POPC   C3A54749  40.880  11.158   6.919
 4102POPC   C4A54750  40.764  11.185   7.338
 4102POPC   C1B54751  40.977  11.609   6.359
 4102POPC   C2B54752  41.025  11.630   6.792
 4102POPC   C3B54753  40.961  11.672   7.230
 4102POPC   C4B54754  40.908  11.551   7.680
 4103POPC   NC354755  17.152  22.326   5.350
 4103POPC   PO454756  17.758  21.941   5.332
 4103POPC   GL154757  17.492  22.079   5.651
 4103POPC   GL254758  17.741  22.234   5.783
 4103POPC   C1A54759  17.345  22.293   6.066
 4103POPC   D2A54760  17.162  22.082   6.430
 4103POPC   C3A54761  17.263  22.208   6.848
 4103POPC   C4A54762  17.251  22.144   7.291
 4103POPC   C1B54763  17.895  22.229   6.143
 4103POPC   C2B54764  17.680  22.211   6.524
 4103POPC   C3B54765  17.729  22.083   6.980
 4103POPC   C4B54766  17.732  22.116   7.465
 4104POPC   NC354767  32.328  18.816   5.335
 4104POPC   PO454768  32.487  18.158   5.372
 4104POPC   GL154769  32.279  18.383   5.683
 4104POPC   GL254770  32.468  18.668   5.789
 4104POPC   C1A54771  32.247  18.211   6.094
 4104POPC   D2A54772  32.250  17.999   6.458
 4104POPC   C3A54773  32.161  18.212   6.863
 4104POPC   C4A54774  32.165  18.390   7.271
 4104POPC   C1B54775  32.594  18.594   6.186
 4104POPC   C2B54776  32.553  18.404   6.556
 4104POPC   C3B54777  32.610  18.478   6.969
 4104POPC   C4B54778  32.348  18.803   7.060
 4105POPC   NC354779  18.762  28.017   5.476
 4105POPC   PO454780  18.785  28.726   5.541
 4105POPC   GL154781  18.459  28.342   5.749
 4105POPC   GL254782  18.073  28.362   5.757
 4105POPC   C1A54783  18.305  28.164   6.155
 4105POPC   D2A54784  17.976  28.135   6.471
 4105POPC   C3A54785  18.130  28.147   6.889
 4105POPC   C4A54786  18.207  28.042   7.304
 4105POPC   C1B54787  18.053  28.613   6.176
 4105POPC   C2B54788  17.918  28.626   6.637
 4105POPC   C3B54789  17.964  28.579   7.104
 4105POPC   C4B54790  18.291  28.572   7.442
 4106POPC   NC354791  40.283  29.630   5.520
 4106POPC   PO454792  39.801  30.154   5.475
 4106POPC   GL154793  39.903  29.878   5.826
 4106POPC   GL254794  40.194  30.038   5.913
 4106POPC   C1A54795  40.096  29.618   6.170
 4106POPC   D2A54796  40.327  29.627   6.564
 4106POPC   C3A54797  40.016  29.846   6.824
 4106POPC   C4A54798  40.018  29.834   7.257
 4106POPC   C1B54799  40.151  30.085   6.382
 4106POPC   C2B54800  40.196  30.332   6.752
 4106POPC   C3B54801  40.031  30.336   7.166
 4106POPC   C4B54802  39.986  30.598   7.546
 4107POPC   NC354803  21.126  10.983   5.703
 4107POPC   PO454804  21.235  10.430   5.244
 4107POPC   GL154805  21.402  10.419   5.680
 4107POPC   GL254806  21.108  10.437   5.864
 4107POPC   C1A54807  21.566  10.346   6.132
 4107POPC   D2A54808  21.650  10.526   6.562
 4107POPC   C3A54809  21.438  10.513   6.959
 4107POPC   C4A54810  21.514  10.584   7.389
 4107POPC   C1B54811  21.155  10.608   6.297
 4107POPC   C2B54812  21.001  10.409   6.670
 4107POPC   C3B54813  20.991  10.307   7.109
 4107POPC   C4B54814  21.013  10.548   7.502
 4108POPC   NC354815  38.261  17.253   5.400
 4108POPC   PO454816  38.541  17.830   5.491
 4108POPC   GL154817  38.364  17.548   5.846
 4108POPC   GL254818  38.055  17.322   5.874
 4108POPC   C1A54819  38.580  17.430   6.250
 4108POPC   D2A54820  38.869  17.358   6.597
 4108POPC   C3A54821  38.692  17.413   7.009
 4108POPC   C4A54822  38.311  17.621   7.182
 4108POPC   C1B54823  38.065  17.495   6.286
 4108POPC   C2B54824  38.251  17.412   6.684
 4108POPC   C3B54825  38.061  17.222   7.013
 4108POPC   C4B54826  37.797  17.555   7.177
 4109POPC   NC354827  11.767  25.483   5.387
 4109POPC   PO454828  11.129  25.605   5.265
 4109POPC   GL154829  11.198  25.312   5.657
 4109POPC   GL254830  11.509  25.165   5.713
 4109POPC   C1A54831  11.020  25.165   6.067
 4109POPC   D2A54832  11.157  25.192   6.493
 4109POPC   C3A54833  10.987  25.055   6.881
 4109POPC   C4A54834  11.050  25.039   7.309
 4109POPC   C1B54835  11.557  25.182   6.170
 4109POPC   C2B54836  11.652  25.251   6.604
 4109POPC   C3B54837  11.486  25.094   7.002
 4109POPC   C4B54838  11.594  25.063   7.419
 4110POPC   NC354839  37.930  37.702   5.355
 4110POPC   PO454840  37.404  37.251   5.320
 4110POPC   GL154841  37.631  37.429   5.666
 4110POPC   GL254842  37.368  37.553   5.803
 4110POPC   C1A54843  37.821  37.698   6.041
 4110POPC   D2A54844  37.796  37.676   6.533
 4110POPC   C3A54845  38.028  37.577   6.942
 4110POPC   C4A54846  37.864  37.752   7.338
 4110POPC   C1B54847  37.367  37.660   6.248
 4110POPC   C2B54848  37.276  37.677   6.688
 4110POPC   C3B54849  37.440  37.845   7.063
 4110POPC   C4B54850  37.369  37.669   7.459
 4111POPC   NC354851  37.744  43.373   5.238
 4111POPC   PO454852  37.755  42.766   5.446
 4111POPC   GL154853  37.923  42.942   5.795
 4111POPC   GL254854  37.584  43.082   5.841
 4111POPC   C1A54855  37.835  42.887   6.251
 4111POPC   D2A54856  37.515  43.039   6.608
 4111POPC   C3A54857  37.652  43.101   7.029
 4111POPC   C4A54858  37.876  43.465   7.232
 4111POPC   C1B54859  37.590  43.351   6.224
 4111POPC   C2B54860  37.325  43.536   6.539
 4111POPC   C3B54861  37.384  43.585   6.943
 4111POPC   C4B54862  37.370  43.402   7.329
 4112POPC   NC354863  42.491  31.666   5.392
 4112POPC   PO454864  42.005  31.267   5.263
 4112POPC   GL154865  42.168  31.430   5.685
 4112POPC   GL254866  42.490  31.300   5.799
 4112POPC   C1A54867  42.143  31.520   6.149
 4112POPC   D2A54868  41.914  31.591   6.561
 4112POPC   C3A54869  42.027  31.412   6.955
 4112POPC   C4A54870  42.070  31.587   7.355
 4112POPC   C1B54871  42.636  31.423   6.233
 4112POPC   C2B54872  42.531  31.800   6.501
 4112POPC   C3B54873  42.378  31.892   6.946
 4112POPC   C4B54874  42.540  31.711   7.350
 4113POPC   NC354875  41.265  41.947   5.387
 4113POPC   PO454876  41.832  41.666   5.195
 4113POPC   GL154877  41.759  41.804   5.635
 4113POPC   GL254878  41.456  41.681   5.799
 4113POPC   C1A54879  41.831  41.953   6.083
 4113POPC   D2A54880  41.823  41.726   6.490
 4113POPC   C3A54881  41.642  41.882   6.871
 4113POPC   C4A54882  41.477  41.610   7.174
 4113POPC   C1B54883  41.349  41.635   6.252
 4113POPC   C2B54884  41.205  41.650   6.693
 4113POPC   C3B54885  41.094  41.341   7.027
 4113POPC   C4B54886  40.992  41.483   7.502
 4114POPC   NC354887  36.510   3.466   5.241
 4114POPC   PO454888  35.758   3.512   5.286
 4114POPC   GL154889  35.928   3.548   5.712
 4114POPC   GL254890  36.282   3.478   5.758
 4114POPC   C1A54891  35.998   3.654   6.165
 4114POPC   D2A54892  36.211   3.644   6.579
 4114POPC   C3A54893  36.022   3.684   6.971
 4114POPC   C4A54894  35.963   3.622   7.394
 4114POPC   C1B54895  36.514   3.660   6.132
 4114POPC   C2B54896  36.647   3.881   6.521
 4114POPC   C3B54897  36.545   3.725   6.963
 4114POPC   C4B54898  36.462   3.468   7.345
 4115POPC   NC354899  21.839   6.548   5.427
 4115POPC   PO454900  22.272   7.083   5.393
 4115POPC   GL154901  22.415   6.877   5.802
 4115POPC   GL254902  22.378   6.516   5.858
 4115POPC   C1A54903  22.247   6.856   6.252
 4115POPC   D2A54904  22.120   6.668   6.679
 4115POPC   C3A54905  22.091   6.880   7.115
 4115POPC   C4A54906  22.387   6.927   7.489
 4115POPC   C1B54907  22.279   6.319   6.271
 4115POPC   C2B54908  22.357   6.141   6.690
 4115POPC   C3B54909  22.283   6.363   7.078
 4115POPC   C4B54910  22.109   6.488   7.477
 4116POPC   NC354911  40.523  35.193   5.407
 4116POPC   PO454912  40.906  35.726   5.646
 4116POPC   GL154913  40.616  35.458   5.898
 4116POPC   GL254914  40.697  35.101   5.872
 4116POPC   C1A54915  40.605  35.306   6.352
 4116POPC   D2A54916  40.780  35.181   6.773
 4116POPC   C3A54917  40.804  35.495   7.121
 4116POPC   C4A54918  40.674  35.782   7.452
 4116POPC   C1B54919  40.420  34.851   6.113
 4116POPC   C2B54920  40.258  34.772   6.497
 4116POPC   C3B54921  40.462  34.782   6.876
 4116POPC   C4B54922  40.499  35.084   7.208
 4117POPC   NC354923   8.484  21.616   5.597
 4117POPC   PO454924   7.903  21.875   5.391
 4117POPC   GL154925   7.955  21.634   5.787
 4117POPC   GL254926   8.108  21.315   5.768
 4117POPC   C1A54927   8.045  21.535   6.231
 4117POPC   D2A54928   8.318  21.470   6.597
 4117POPC   C3A54929   8.100  21.402   6.995
 4117POPC   C4A54930   8.068  21.564   7.425
 4117POPC   C1B54931   8.316  21.111   6.140
 4117POPC   C2B54932   8.394  20.938   6.583
 4117POPC   C3B54933   8.543  21.134   6.948
 4117POPC   C4B54934   8.407  21.141   7.359
 4118POPC   NC354935  11.875  27.076   5.444
 4118POPC   PO454936  12.408  26.613   5.329
 4118POPC   GL154937  12.197  26.771   5.733
 4118POPC   GL254938  11.929  26.555   5.747
 4118POPC   C1A54939  11.967  26.991   6.125
 4118POPC   D2A54940  11.937  26.834   6.579
 4118POPC   C3A54941  11.870  27.049   6.968
 4118POPC   C4A54942  11.957  27.126   7.437
 4118POPC   C1B54943  12.022  26.487   6.191
 4118POPC   C2B54944  11.713  26.370   6.533
 4118POPC   C3B54945  11.677  26.552   6.925
 4118POPC   C4B54946  11.910  26.645   7.270
 4119POPC   NC354947   8.281   4.702   5.385
 4119POPC   PO454948   8.039   5.271   5.094
 4119POPC   GL154949   8.087   5.184   5.607
 4119POPC   GL254950   8.346   4.976   5.815
 4119POPC   C1A54951   7.951   5.135   6.073
 4119POPC   D2A54952   8.217   4.980   6.441
 4119POPC   C3A54953   8.209   5.019   6.903
 4119POPC   C4A54954   8.511   5.051   7.273
 4119POPC   C1B54955   8.072   4.658   6.083
 4119POPC   C2B54956   7.780   4.689   6.449
 4119POPC   C3B54957   7.831   4.657   6.921
 4119POPC   C4B54958   8.172   4.630   7.269
 4120POPC   NC354959  26.308  18.671   5.358
 4120POPC   PO454960  25.974  19.263   5.392
 4120POPC   GL154961  25.912  19.093   5.779
 4120POPC   GL254962  26.199  18.957   5.752
 4120POPC   C1A54963  26.067  19.202   6.185
 4120POPC   D2A54964  26.045  19.116   6.598
 4120POPC   C3A54965  26.004  19.339   6.959
 4120POPC   C4A54966  25.900  19.118   7.333
 4120POPC   C1B54967  26.371  18.723   6.072
 4120POPC   C2B54968  26.257  18.632   6.484
 4120POPC   C3B54969  26.397  18.837   6.832
 4120POPC   C4B54970  26.381  19.058   7.175
 4121POPC   NC354971  13.581  11.107   5.523
 4121POPC   PO454972  13.942  11.595   5.229
 4121POPC   GL154973  13.788  11.552   5.695
 4121POPC   GL254974  13.511  11.757   5.843
 4121POPC   C1A54975  13.675  11.362   6.120
 4121POPC   D2A54976  13.831  11.408   6.538
 4121POPC   C3A54977  13.581  11.215   6.832
 4121POPC   C4A54978  13.608  11.068   7.232
 4121POPC   C1B54979  13.780  11.855   6.234
 4121POPC   C2B54980  13.775  11.882   6.687
 4121POPC   C3B54981  13.663  11.677   7.060
 4121POPC   C4B54982  13.818  11.486   7.424
 4122POPC   NC354983   8.947  10.068   5.483
 4122POPC   PO454984   8.761  10.767   5.500
 4122POPC   GL154985   8.738  10.516   5.818
 4122POPC   GL254986   9.073  10.395   5.840
 4122POPC   C1A54987   8.758  10.484   6.252
 4122POPC   D2A54988   8.853  10.686   6.636
 4122POPC   C3A54989   8.648  10.457   6.974
 4122POPC   C4A54990   8.719  10.569   7.393
 4122POPC   C1B54991   9.259  10.403   6.222
 4122POPC   C2B54992   9.214  10.224   6.620
 4122POPC   C3B54993   9.366  10.253   7.018
 4122POPC   C4B54994   9.220  10.550   7.295
 4123POPC   NC354995   7.347  22.356   5.369
 4123POPC   PO454996   7.127  21.776   5.516
 4123POPC   GL154997   7.307  22.095   5.802
 4123POPC   GL254998   7.661  22.176   5.741
 4123POPC   C1A54999   7.394  22.289   6.190
 4123POPC   D2A55000   7.502  22.043   6.570
 4123POPC   C3A55001   7.428  22.218   6.941
 4123POPC   C4A55002   7.263  22.140   7.309
 4123POPC   C1B55003   7.790  21.965   6.148
 4123POPC   C2B55004   8.004  21.923   6.571
 4123POPC   C3B55005   7.852  21.879   6.994
 4123POPC   C4B55006   7.826  22.216   7.282
 4124POPC   NC355007  35.290  32.623   5.285
 4124POPC   PO455008  35.794  33.058   5.285
 4124POPC   GL155009  35.662  33.148   5.695
 4124POPC   GL255010  35.550  32.802   5.693
 4124POPC   C1A55011  35.354  33.144   6.054
 4124POPC   D2A55012  35.351  32.943   6.467
 4124POPC   C3A55013  35.267  33.217   6.835
 4124POPC   C4A55014  35.351  33.251   7.272
 4124POPC   C1B55015  35.745  32.765   6.069
 4124POPC   C2B55016  35.824  32.738   6.490
 4124POPC   C3B55017  35.706  32.934   6.865
 4124POPC   C4B55018  35.647  32.740   7.250
 4125POPC   NC355019  44.343  20.086   5.429
 4125POPC   PO455020  43.731  19.767   5.489
 4125POPC   GL155021  43.933  19.992   5.752
 4125POPC   GL255022  44.161  19.731   5.756
 4125POPC   C1A55023  44.110  20.020   6.169
 4125POPC   D2A55024  44.005  19.791   6.533
 4125POPC   C3A55025  43.992  20.035   6.898
 4125POPC   C4A55026  43.824  20.061   7.278
 4125POPC   C1B55027  44.241  19.454   6.098
 4125POPC   C2B55028  44.298  19.341   6.529
 4125POPC   C3B55029  44.208  19.554   6.938
 4125POPC   C4B55030  44.171  19.419   7.337
 4126POPC   NC355031  39.208  10.935   5.513
 4126POPC   PO455032  38.818  11.432   5.704
 4126POPC   GL155033  39.182  11.275   5.893
 4126POPC   GL255034  39.117  10.946   5.999
 4126POPC   C1A55035  39.524  11.246   6.191
 4126POPC   D2A55036  39.629  10.998   6.566
 4126POPC   C3A55037  39.304  11.054   6.892
 4126POPC   C4A55038  39.319  11.309   7.251
 4126POPC   C1B55039  39.104  11.035   6.419
 4126POPC   C2B55040  38.802  10.996   6.744
 4126POPC   C3B55041  38.778  11.002   7.177
 4126POPC   C4B55042  39.022  11.024   7.562
 4127POPC   NC355043   9.928  41.913   5.246
 4127POPC   PO455044   9.533  42.394   5.203
 4127POPC   GL155045   9.610  42.416   5.684
 4127POPC   GL255046   9.659  42.096   5.855
 4127POPC   C1A55047   9.609  42.532   6.150
 4127POPC   D2A55048   9.722  42.728   6.593
 4127POPC   C3A55049   9.619  42.562   7.052
 4127POPC   C4A55050   9.637  42.241   7.408
 4127POPC   C1B55051   9.838  42.079   6.295
 4127POPC   C2B55052   9.866  42.125   6.784
 4127POPC   C3B55053   9.986  41.929   7.203
 4127POPC   C4B55054  10.207  42.049   7.602
 4128POPC   NC355055  36.083  44.836   5.287
 4128POPC   PO455056  36.005   0.531   5.451
 4128POPC   GL155057  36.150   0.685   5.832
 4128POPC   GL255058  36.124   0.388   5.956
 4128POPC   C1A55059  36.183   0.802   6.254
 4128POPC   D2A55060  35.894   0.848   6.573
 4128POPC   C3A55061  35.988   0.781   6.985
 4128POPC   C4A55062  36.259   0.526   7.203
 4128POPC   C1B55063  36.010   0.322   6.366
 4128POPC   C2B55064  35.963   0.102   6.733
 4128POPC   C3B55065  35.696   0.359   6.954
 4128POPC   C4B55066  35.668   0.598   7.326
 4129POPC   NC355067  37.726  41.689   5.468
 4129POPC   PO455068  37.774  41.145   5.768
 4129POPC   GL155069  37.872  41.583   5.941
 4129POPC   GL255070  37.531  41.793   5.944
 4129POPC   C1A55071  37.870  41.826   6.319
 4129POPC   D2A55072  37.644  41.835   6.704
 4129POPC   C3A55073  37.809  41.741   7.094
 4129POPC   C4A55074  37.851  41.486   7.480
 4129POPC   C1B55075  37.268  41.815   6.345
 4129POPC   C2B55076  37.150  41.723   6.813
 4129POPC   C3B55077  37.356  41.564   7.212
 4129POPC   C4B55078  37.524  41.872   7.522
 4130POPC   NC355079  10.826  40.805   5.493
 4130POPC   PO455080  10.158  40.808   5.354
 4130POPC   GL155081  10.318  40.714   5.762
 4130POPC   GL255082  10.297  41.033   5.920
 4130POPC   C1A55083  10.644  40.583   6.093
 4130POPC   D2A55084  10.839  40.633   6.537
 4130POPC   C3A55085  10.488  40.732   6.815
 4130POPC   C4A55086  10.307  40.471   7.136
 4130POPC   C1B55087  10.475  40.992   6.337
 4130POPC   C2B55088  10.770  41.154   6.614
 4130POPC   C3B55089  10.934  40.981   6.966
 4130POPC   C4B55090  10.838  40.583   7.169
 4131POPC   NC355091  34.199   9.349   4.996
 4131POPC   PO455092  34.653   9.061   5.392
 4131POPC   GL155093  34.568   8.808   5.753
 4131POPC   GL255094  34.893   8.670   5.815
 4131POPC   C1A55095  34.362   9.005   6.145
 4131POPC   D2A55096  34.546   9.282   6.425
 4131POPC   C3A55097  34.395   9.209   6.833
 4131POPC   C4A55098  34.493   9.228   7.264
 4131POPC   C1B55099  34.851   8.895   6.200
 4131POPC   C2B55100  34.677   8.815   6.582
 4131POPC   C3B55101  34.824   8.961   6.968
 4131POPC   C4B55102  34.780   8.828   7.386
 4132POPC   NC355103  40.558   8.381   5.390
 4132POPC   PO455104  41.196   8.252   5.620
 4132POPC   GL155105  40.831   8.277   5.834
 4132POPC   GL255106  40.779   8.604   5.784
 4132POPC   C1A55107  40.655   8.055   6.195
 4132POPC   D2A55108  40.387   7.853   6.516
 4132POPC   C3A55109  40.602   7.891   6.899
 4132POPC   C4A55110  40.910   8.137   7.109
 4132POPC   C1B55111  40.573   8.573   6.182
 4132POPC   C2B55112  40.546   8.358   6.598
 4132POPC   C3B55113  40.445   8.416   7.019
 4132POPC   C4B55114  40.778   8.618   7.222
 4133POPC   NC355115  22.658   6.041   5.468
 4133POPC   PO455116  23.166   5.570   5.299
 4133POPC   GL155117  22.953   5.624   5.724
 4133POPC   GL255118  23.017   5.981   5.849
 4133POPC   C1A55119  22.887   5.647   6.201
 4133POPC   D2A55120  22.910   5.958   6.549
 4133POPC   C3A55121  23.047   5.827   6.942
 4133POPC   C4A55122  23.130   5.436   7.110
 4133POPC   C1B55123  22.761   6.222   6.136
 4133POPC   C2B55124  22.747   6.437   6.580
 4133POPC   C3B55125  22.790   6.283   7.000
 4133POPC   C4B55126  22.911   6.067   7.386
 4134POPC   NC355127   5.492  23.911   5.363
 4134POPC   PO455128   5.935  23.637   5.374
 4134POPC   GL155129   5.862  23.748   5.824
 4134POPC   GL255130   5.561  23.970   5.871
 4134POPC   C1A55131   6.084  23.734   6.255
 4134POPC   D2A55132   6.324  23.847   6.635
 4134POPC   C3A55133   6.133  23.764   7.052
 4134POPC   C4A55134   5.800  24.054   7.249
 4134POPC   C1B55135   5.572  23.749   6.288
 4134POPC   C2B55136   5.767  23.788   6.707
 4134POPC   C3B55137   5.645  23.592   7.121
 4134POPC   C4B55138   5.662  23.674   7.603
 4135POPC   NC355139   0.590  31.734   5.459
 4135POPC   PO455140   0.260  31.115   5.377
 4135POPC   GL155141   0.404  31.342   5.756
 4135POPC   GL255142   0.165  31.624   5.775
 4135POPC   C1A55143   0.401  31.464   6.222
 4135POPC   D2A55144   0.335  31.626   6.654
 4135POPC   C3A55145   0.575  31.457   7.007
 4135POPC   C4A55146   0.708  31.264   7.382
 4135POPC   C1B55147  44.972  31.264   6.030
 4135POPC   C2B55148   0.106  31.123   6.466
 4135POPC   C3B55149   0.081  31.275   6.904
 4135POPC   C4B55150   0.194  31.306   7.349
 4136POPC   NC355151  14.487  10.915   5.478
 4136POPC   PO455152  14.105  10.379   5.447
 4136POPC   GL155153  14.378  10.480   5.861
 4136POPC   GL255154  14.476  10.831   5.994
 4136POPC   C1A55155  14.662  10.367   6.253
 4136POPC   D2A55156  14.794  10.600   6.661
 4136POPC   C3A55157  14.744  10.434   7.053
 4136POPC   C4A55158  14.514  10.306   7.419
 4136POPC   C1B55159  14.256  10.630   6.363
 4136POPC   C2B55160  14.289  10.512   6.759
 4136POPC   C3B55161  14.337  10.730   7.120
 4136POPC   C4B55162  14.109  11.061   7.259
 4137POPC   NC355163  22.935   7.960   5.551
 4137POPC   PO455164  23.115   7.312   5.294
 4137POPC   GL155165  22.990   7.402   5.724
 4137POPC   GL255166  23.203   7.660   5.861
 4137POPC   C1A55167  22.919   7.181   6.135
 4137POPC   D2A55168  22.719   7.096   6.570
 4137POPC   C3A55169  22.875   7.272   6.974
 4137POPC   C4A55170  22.783   7.226   7.417
 4137POPC   C1B55171  22.940   7.676   6.191
 4137POPC   C2B55172  23.049   7.642   6.617
 4137POPC   C3B55173  23.018   7.798   7.017
 4137POPC   C4B55174  22.631   7.679   7.205
 4138POPC   NC355175  10.964  36.051   5.281
 4138POPC   PO455176  11.566  36.345   5.332
 4138POPC   GL155177  11.346  36.278   5.719
 4138POPC   GL255178  11.301  35.914   5.656
 4138POPC   C1A55179  11.488  36.300   6.167
 4138POPC   D2A55180  11.421  36.012   6.517
 4138POPC   C3A55181  11.302  36.066   6.936
 4138POPC   C4A55182  11.499  36.174   7.312
 4138POPC   C1B55183  11.160  35.929   6.066
 4138POPC   C2B55184  11.007  35.671   6.391
 4138POPC   C3B55185  11.043  35.639   6.811
 4138POPC   C4B55186  11.063  35.705   7.248
 4139POPC   NC355187  13.683  33.361   5.337
 4139POPC   PO455188  13.471  32.728   5.584
 4139POPC   GL155189  13.435  33.093   5.816
 4139POPC   GL255190  13.794  33.216   5.802
 4139POPC   C1A55191  13.292  33.015   6.259
 4139POPC   D2A55192  13.470  33.162   6.627
 4139POPC   C3A55193  13.808  32.995   6.856
 4139POPC   C4A55194  13.502  33.090   7.167
 4139POPC   C1B55195  13.775  33.213   6.211
 4139POPC   C2B55196  13.891  33.461   6.535
 4139POPC   C3B55197  13.764  33.515   6.920
 4139POPC   C4B55198  13.888  33.476   7.298
 4140POPC   NC355199  29.710  17.233   5.067
 4140POPC   PO455200  30.046  17.606   5.520
 4140POPC   GL155201  29.967  17.511   5.985
 4140POPC   GL255202  29.606  17.554   6.089
 4140POPC   C1A55203  30.011  17.458   6.426
 4140POPC   D2A55204  29.901  17.192   6.771
 4140POPC   C3A55205  29.997  17.434   7.156
 4140POPC   C4A55206  30.177  17.366   7.581
 4140POPC   C1B55207  29.712  17.103   6.217
 4140POPC   C2B55208  29.546  16.835   6.525
 4140POPC   C3B55209  29.410  16.910   6.918
 4140POPC   C4B55210  29.681  17.010   7.229
 4141POPC   NC355211  37.411  21.141   5.478
 4141POPC   PO455212  37.871  21.616   5.462
 4141POPC   GL155213  37.794  21.289   5.794
 4141POPC   GL255214  37.457  21.389   5.919
 4141POPC   C1A55215  37.724  21.006   6.141
 4141POPC   D2A55216  37.380  21.015   6.445
 4141POPC   C3A55217  37.460  21.215   6.838
 4141POPC   C4A55218  37.521  21.330   7.276
 4141POPC   C1B55219  37.606  21.479   6.332
 4141POPC   C2B55220  37.833  21.597   6.696
 4141POPC   C3B55221  37.763  21.786   7.082
 4141POPC   C4B55222  37.883  21.624   7.452
 4142POPC   NC355223   3.557  34.285   5.473
 4142POPC   PO455224   3.838  34.920   5.609
 4142POPC   GL155225   3.646  34.606   5.839
 4142POPC   GL255226   3.336  34.662   5.919
 4142POPC   C1A55227   3.623  34.340   6.195
 4142POPC   D2A55228   3.730  34.496   6.582
 4142POPC   C3A55229   3.520  34.251   6.847
 4142POPC   C4A55230   3.401  34.372   7.232
 4142POPC   C1B55231   3.335  34.762   6.364
 4142POPC   C2B55232   3.248  34.688   6.814
 4142POPC   C3B55233   3.210  34.880   7.246
 4142POPC   C4B55234   3.261  35.043   7.680
 4143POPC   NC355235  38.918  34.587   5.420
 4143POPC   PO455236  39.475  34.205   5.201
 4143POPC   GL155237  39.389  34.400   5.625
 4143POPC   GL255238  39.532  34.754   5.682
 4143POPC   C1A55239  39.305  34.463   6.085
 4143POPC   D2A55240  39.372  34.496   6.551
 4143POPC   C3A55241  39.080  34.628   6.887
 4143POPC   C4A55242  38.889  34.352   7.221
 4143POPC   C1B55243  39.399  34.971   6.067
 4143POPC   C2B55244  39.250  35.006   6.465
 4143POPC   C3B55245  39.424  35.031   6.885
 4143POPC   C4B55246  39.433  34.790   7.238
 4144POPC   NC355247  28.602   5.653   5.517
 4144POPC   PO455248  28.470   6.324   5.519
 4144POPC   GL155249  28.222   6.016   5.733
 4144POPC   GL255250  28.521   5.973   5.940
 4144POPC   C1A55251  28.118   5.717   6.112
 4144POPC   D2A55252  28.366   5.692   6.511
 4144POPC   C3A55253  28.268   5.812   6.995
 4144POPC   C4A55254  28.315   5.768   7.473
 4144POPC   C1B55255  28.795   5.904   6.320
 4144POPC   C2B55256  28.847   5.624   6.708
 4144POPC   C3B55257  28.752   5.735   7.139
 4144POPC   C4B55258  28.595   6.166   7.249
 4145POPC   NC355259  30.035  26.060   5.349
 4145POPC   PO455260  30.344  25.614   5.527
 4145POPC   GL155261  30.058  25.853   5.858
 4145POPC   GL255262  29.829  26.147   5.821
 4145POPC   C1A55263  29.930  25.985   6.297
 4145POPC   D2A55264  29.786  25.855   6.702
 4145POPC   C3A55265  29.919  26.037   7.100
 4145POPC   C4A55266  29.668  26.158   7.498
 4145POPC   C1B55267  29.537  26.321   6.162
 4145POPC   C2B55268  29.543  26.350   6.636
 4145POPC   C3B55269  29.697  26.480   7.065
 4145POPC   C4B55270  30.078  26.437   7.409
 4146POPC   NC355271  20.828  37.933   5.478
 4146POPC   PO455272  20.430  37.341   5.468
 4146POPC   GL155273  20.417  37.503   5.911
 4146POPC   GL255274  20.573  37.833   5.916
 4146POPC   C1A55275  20.542  37.482   6.345
 4146POPC   D2A55276  20.914  37.638   6.556
 4146POPC   C3A55277  20.911  37.818   6.945
 4146POPC   C4A55278  20.735  37.604   7.256
 4146POPC   C1B55279  20.615  37.996   6.342
 4146POPC   C2B55280  20.458  37.822   6.725
 4146POPC   C3B55281  20.244  37.769   7.083
 4146POPC   C4B55282  20.149  37.988   7.441
 4147POPC   NC355283   4.911   6.891   5.533
 4147POPC   PO455284   5.376   6.407   5.506
 4147POPC   GL155285   5.289   6.680   5.853
 4147POPC   GL255286   4.973   6.517   5.875
 4147POPC   C1A55287   5.105   6.784   6.282
 4147POPC   D2A55288   5.150   7.025   6.668
 4147POPC   C3A55289   5.202   6.833   7.064
 4147POPC   C4A55290   4.892   6.766   7.321
 4147POPC   C1B55291   4.970   6.269   6.231
 4147POPC   C2B55292   4.729   6.268   6.614
 4147POPC   C3B55293   4.939   6.414   6.940
 4147POPC   C4B55294   5.071   6.282   7.309
 4148POPC   NC355295  39.233  30.144   5.353
 4148POPC   PO455296  38.953  29.643   5.699
 4148POPC   GL155297  39.111  29.890   5.967
 4148POPC   GL255298  39.414  30.054   5.839
 4148POPC   C1A55299  39.052  29.763   6.394
 4148POPC   D2A55300  38.897  29.540   6.738
 4148POPC   C3A55301  39.164  29.727   7.043
 4148POPC   C4A55302  39.072  30.150   7.200
 4148POPC   C1B55303  39.565  29.813   6.220
 4148POPC   C2B55304  39.503  29.851   6.659
 4148POPC   C3B55305  39.585  30.033   7.085
 4148POPC   C4B55306  39.734  30.156   7.550
 4149POPC   NC355307   3.392   3.738   5.473
 4149POPC   PO455308   3.827   3.288   5.508
 4149POPC   GL155309   3.756   3.560   5.837
 4149POPC   GL255310   3.401   3.471   5.906
 4149POPC   C1A55311   3.739   3.511   6.286
 4149POPC   D2A55312   3.443   3.436   6.619
 4149POPC   C3A55313   3.592   3.636   6.983
 4149POPC   C4A55314   3.623   3.491   7.401
 4149POPC   C1B55315   3.268   3.739   6.233
 4149POPC   C2B55316   3.181   3.886   6.645
 4149POPC   C3B55317   3.124   3.793   7.076
 4149POPC   C4B55318   3.276   3.852   7.523
 4150POPC   NC355319  10.037  28.431   5.405
 4150POPC   PO455320  10.649  28.155   5.336
 4150POPC   GL155321  10.480  28.418   5.719
 4150POPC   GL255322  10.766  28.584   5.875
 4150POPC   C1A55323  10.204  28.474   6.128
 4150POPC   D2A55324  10.224  28.199   6.545
 4150POPC   C3A55325  10.165  28.426   6.973
 4150POPC   C4A55326  10.197  28.326   7.437
 4150POPC   C1B55327  10.651  28.268   6.256
 4150POPC   C2B55328  10.682  28.061   6.703
 4150POPC   C3B55329  10.542  28.118   7.119
 4150POPC   C4B55330  10.718  28.181   7.522
 4151POPC   NC355331  33.374  17.513   5.250
 4151POPC   PO455332  34.027  17.321   5.456
 4151POPC   GL155333  33.700  17.590   5.689
 4151POPC   GL255334  33.894  17.893   5.856
 4151POPC   C1A55335  33.546  17.613   6.142
 4151POPC   D2A55336  33.770  17.803   6.509
 4151POPC   C3A55337  33.865  17.650   6.927
 4151POPC   C4A55338  34.078  17.956   7.207
 4151POPC   C1B55339  34.041  17.501   6.089
 4151POPC   C2B55340  34.028  17.172   6.392
 4151POPC   C3B55341  34.132  17.190   6.830
 4151POPC   C4B55342  34.079  17.210   7.264
 4152POPC   NC355343  12.828   0.964   5.407
 4152POPC   PO455344  12.837   1.623   5.520
 4152POPC   GL155345  12.992   1.531   5.920
 4152POPC   GL255346  13.011   1.162   5.868
 4152POPC   C1A55347  12.913   1.345   6.345
 4152POPC   D2A55348  12.553   1.276   6.644
 4152POPC   C3A55349  12.738   1.155   7.025
 4152POPC   C4A55350  13.082   1.421   6.976
 4152POPC   C1B55351  13.101   0.842   6.219
 4152POPC   C2B55352  13.023   0.931   6.643
 4152POPC   C3B55353  13.215   0.937   7.008
 4152POPC   C4B55354  13.264   0.719   7.346
 4153POPC   NC355355   2.581  30.274   5.464
 4153POPC   PO455356   3.067  29.842   5.430
 4153POPC   GL155357   2.874  30.011   5.824
 4153POPC   GL255358   2.524  30.097   5.919
 4153POPC   C1A55359   2.829  29.941   6.280
 4153POPC   D2A55360   2.978  29.752   6.618
 4153POPC   C3A55361   2.783  29.799   6.961
 4153POPC   C4A55362   3.058  29.936   7.244
 4153POPC   C1B55363   2.530  30.341   6.288
 4153POPC   C2B55364   2.533  30.179   6.715
 4153POPC   C3B55365   2.601  30.220   7.168
 4153POPC   C4B55366   2.452  30.458   7.484
 4154POPC   NC355367  43.661   0.186   5.481
 4154POPC   PO455368  44.271   0.115   5.518
 4154POPC   GL155369  44.020   0.327   5.824
 4154POPC   GL255370  43.900   0.053   5.938
 4154POPC   C1A55371  43.874   0.533   6.205
 4154POPC   D2A55372  43.736   0.701   6.610
 4154POPC   C3A55373  44.043   0.560   6.883
 4154POPC   C4A55374  44.252   0.494   7.272
 4154POPC   C1B55375  43.531   0.136   6.193
 4154POPC   C2B55376  43.394   0.218   6.577
 4154POPC   C3B55377  43.518   0.348   6.938
 4154POPC   C4B55378  43.811   0.239   7.196
 4155POPC   NC355379  33.420   5.607   5.031
 4155POPC   PO455380  33.819   6.031   5.373
 4155POPC   GL155381  33.930   5.955   5.833
 4155POPC   GL255382  34.168   5.633   5.826
 4155POPC   C1A55383  33.636   5.984   6.234
 4155POPC   D2A55384  33.483   5.881   6.681
 4155POPC   C3A55385  33.722   5.926   7.064
 4155POPC   C4A55386  33.626   5.782   7.475
 4155POPC   C1B55387  34.020   5.631   6.234
 4155POPC   C2B55388  34.000   5.884   6.580
 4155POPC   C3B55389  34.148   5.717   6.920
 4155POPC   C4B55390  34.030   5.507   7.287
 4156POPC   NC355391  11.826   2.482   5.422
 4156POPC   PO455392  12.178   2.983   5.683
 4156POPC   GL155393  11.965   2.607   5.919
 4156POPC   GL255394  11.655   2.395   5.897
 4156POPC   C1A55395  11.775   2.721   6.304
 4156POPC   D2A55396  12.049   2.934   6.597
 4156POPC   C3A55397  11.868   2.990   6.986
 4156POPC   C4A55398  12.059   3.089   7.378
 4156POPC   C1B55399  11.797   2.192   6.272
 4156POPC   C2B55400  12.084   2.401   6.575
 4156POPC   C3B55401  12.108   2.544   6.987
 4156POPC   C4B55402  11.949   2.539   7.402
 4157POPC   NC355403  21.733   9.263   5.551
 4157POPC   PO455404  21.402   8.738   5.329
 4157POPC   GL155405  21.426   8.821   5.787
 4157POPC   GL255406  21.448   9.152   5.979
 4157POPC   C1A55407  21.289   8.748   6.227
 4157POPC   D2A55408  21.392   8.987   6.573
 4157POPC   C3A55409  21.505   8.784   6.940
 4157POPC   C4A55410  21.361   8.892   7.351
 4157POPC   C1B55411  21.076   9.231   6.236
 4157POPC   C2B55412  21.026   9.353   6.645
 4157POPC   C3B55413  21.311   9.311   6.989
 4157POPC   C4B55414  21.733   9.186   7.136
 4158POPC   NC355415  44.971  20.083   5.494
 4158POPC   PO455416  44.485  19.623   5.337
 4158POPC   GL155417  44.651  19.695   5.777
 4158POPC   GL255418  44.968  19.735   5.871
 4158POPC   C1A55419  44.633  19.759   6.265
 4158POPC   D2A55420  44.907  19.842   6.626
 4158POPC   C3A55421  44.698  19.909   7.017
 4158POPC   C4A55422  44.320  19.934   7.300
 4158POPC   C1B55423   0.239  19.575   6.200
 4158POPC   C2B55424   0.347  19.580   6.610
 4158POPC   C3B55425   0.126  19.549   7.010
 4158POPC   C4B55426   0.154  19.509   7.452
 4159POPC   NC355427  19.535   9.863   5.424
 4159POPC   PO455428  19.881   9.294   5.445
 4159POPC   GL155429  19.973   9.632   5.713
 4159POPC   GL255430  20.237   9.527   5.946
 4159POPC   C1A55431  19.853   9.833   6.098
 4159POPC   D2A55432  19.634   9.713   6.452
 4159POPC   C3A55433  19.799   9.629   6.865
 4159POPC   C4A55434  19.691   9.795   7.276
 4159POPC   C1B55435  20.279   9.736   6.357
 4159POPC   C2B55436  20.034  10.041   6.600
 4159POPC   C3B55437  20.087  10.038   7.047
 4159POPC   C4B55438  20.253   9.597   7.112
 4160POPC   NC355439  24.123  25.386   5.475
 4160POPC   PO455440  24.671  25.017   5.322
 4160POPC   GL155441  24.540  25.180   5.750
 4160POPC   GL255442  24.463  25.543   5.835
 4160POPC   C1A55443  24.618  25.191   6.219
 4160POPC   D2A55444  24.529  25.068   6.659
 4160POPC   C3A55445  24.642  25.248   7.055
 4160POPC   C4A55446  24.444  25.217   7.430
 4160POPC   C1B55447  24.290  25.582   6.269
 4160POPC   C2B55448  24.434  25.566   6.700
 4160POPC   C3B55449  24.242  25.577   7.098
 4160POPC   C4B55450  23.824  25.603   7.258
 4161POPC   NC355451  19.542  10.629   5.569
 4161POPC   PO455452  19.994  10.097   5.463
 4161POPC   GL155453  19.965  10.399   5.759
 4161POPC   GL255454  19.651  10.238   5.871
 4161POPC   C1A55455  19.914  10.622   6.145
 4161POPC   D2A55456  20.138  10.548   6.521
 4161POPC   C3A55457  19.979  10.619   6.942
 4161POPC   C4A55458  20.015  10.621   7.390
 4161POPC   C1B55459  19.618  10.240   6.319
 4161POPC   C2B55460  19.553  10.120   6.741
 4161POPC   C3B55461  19.590  10.275   7.110
 4161POPC   C4B55462  19.492  10.670   7.239
 4162POPC   NC355463  21.640  43.622   5.403
 4162POPC   PO455464  21.581  42.955   5.397
 4162POPC   GL155465  21.402  43.065   5.789
 4162POPC   GL255466  21.477  43.431   5.841
 4162POPC   C1A55467  21.608  43.039   6.196
 4162POPC   D2A55468  21.769  43.190   6.600
 4162POPC   C3A55469  21.531  42.991   6.922
 4162POPC   C4A55470  21.259  42.964   7.285
 4162POPC   C1B55471  21.531  43.549   6.275
 4162POPC   C2B55472  21.385  43.502   6.721
 4162POPC   C3B55473  21.419  43.435   7.153
 4162POPC   C4B55474  21.327  43.429   7.583
 4163POPC   NC355475  14.807  26.248   5.395
 4163POPC   PO455476  14.149  25.996   5.349
 4163POPC   GL155477  14.237  26.153   5.746
 4163POPC   GL255478  14.584  26.089   5.813
 4163POPC   C1A55479  14.203  26.011   6.167
 4163POPC   D2A55480  14.137  26.178   6.567
 4163POPC   C3A55481  14.409  26.008   6.881
 4163POPC   C4A55482  14.490  25.999   7.328
 4163POPC   C1B55483  14.847  26.269   6.101
 4163POPC   C2B55484  14.756  26.174   6.516
 4163POPC   C3B55485  14.857  26.308   6.925
 4163POPC   C4B55486  14.977  26.097   7.253
 4164POPC   NC355487  12.901   4.669   5.379
 4164POPC   PO455488  12.872   5.304   5.473
 4164POPC   GL155489  12.580   5.110   5.823
 4164POPC   GL255490  12.488   4.731   5.770
 4164POPC   C1A55491  12.635   5.247   6.272
 4164POPC   D2A55492  12.863   5.341   6.675
 4164POPC   C3A55493  13.082   5.012   6.920
 4164POPC   C4A55494  13.137   4.993   7.374
 4164POPC   C1B55495  12.373   4.776   6.232
 4164POPC   C2B55496  12.564   4.870   6.655
 4164POPC   C3B55497  12.596   5.079   7.052
 4164POPC   C4B55498  12.637   4.989   7.532
 4165POPC   NC355499   5.349  34.688   5.417
 4165POPC   PO455500   4.695  34.490   5.534
 4165POPC   GL155501   4.908  34.355   5.910
 4165POPC   GL255502   5.244  34.452   5.880
 4165POPC   C1A55503   5.011  34.546   6.333
 4165POPC   D2A55504   4.861  34.768   6.688
 4165POPC   C3A55505   4.906  34.442   6.960
 4165POPC   C4A55506   4.715  34.367   7.334
 4165POPC   C1B55507   5.528  34.541   6.224
 4165POPC   C2B55508   5.454  34.611   6.666
 4165POPC   C3B55509   5.416  34.449   7.069
 4165POPC   C4B55510   5.216  34.421   7.431
 4166POPC   NC355511  12.223  43.910   5.215
 4166POPC   PO455512  12.878  43.788   5.278
 4166POPC   GL155513  13.069  43.805   5.685
 4166POPC   GL255514  12.791  44.041   5.843
 4166POPC   C1A55515  13.051  43.730   6.122
 4166POPC   D2A55516  12.802  43.885   6.485
 4166POPC   C3A55517  13.017  43.748   6.897
 4166POPC   C4A55518  13.018  43.904   7.312
 4166POPC   C1B55519  13.055  44.251   6.184
 4166POPC   C2B55520  13.075  44.275   6.653
 4166POPC   C3B55521  12.746  44.165   6.961
 4166POPC   C4B55522  12.601  44.170   7.409
 4167POPC   NC355523  27.376   3.727   5.425
 4167POPC   PO455524  26.846   3.562   5.403
 4167POPC   GL155525  26.763   3.333   5.790
 4167POPC   GL255526  26.741   3.629   6.012
 4167POPC   C1A55527  26.919   3.173   6.199
 4167POPC   D2A55528  26.887   3.437   6.559
 4167POPC   C3A55529  27.062   3.388   6.948
 4167POPC   C4A55530  26.738   3.332   7.234
 4167POPC   C1B55531  26.945   3.900   6.345
 4167POPC   C2B55532  27.001   3.891   6.824
 4167POPC   C3B55533  26.696   3.855   7.171
 4167POPC   C4B55534  26.574   4.125   7.549
 4168POPC   NC355535  39.252  44.537   5.477
 4168POPC   PO455536  39.254   0.208   5.380
 4168POPC   GL155537  39.485  44.969   5.763
 4168POPC   GL255538  39.583  44.602   5.858
 4168POPC   C1A55539  39.528  44.965   6.232
 4168POPC   D2A55540  39.275  44.812   6.593
 4168POPC   C3A55541  39.497  44.610   6.923
 4168POPC   C4A55542  39.416  44.776   7.312
 4168POPC   C1B55543  39.191  44.589   6.138
 4168POPC   C2B55544  39.121  44.306   6.524
 4168POPC   C3B55545  39.102  44.291   6.977
 4168POPC   C4B55546  39.085  44.266   7.444
 4169POPC   NC355547   5.053  15.815   5.396
 4169POPC   PO455548   5.577  15.458   5.145
 4169POPC   GL155549   5.609  15.676   5.653
 4169POPC   GL255550   5.325  15.853   5.804
 4169POPC   C1A55551   5.622  15.803   6.176
 4169POPC   D2A55552   5.327  15.955   6.526
 4169POPC   C3A55553   5.458  15.945   6.957
 4169POPC   C4A55554   5.323  15.661   7.281
 4169POPC   C1B55555   4.975  16.014   6.072
 4169POPC   C2B55556   4.870  16.179   6.490
 4169POPC   C3B55557   4.916  15.941   6.885
 4169POPC   C4B55558   5.031  16.072   7.280
 4170POPC   NC355559  31.943   3.596   5.479
 4170POPC   PO455560  32.370   3.161   5.127
 4170POPC   GL155561  32.428   3.383   5.559
 4170POPC   GL255562  32.392   3.739   5.653
 4170POPC   C1A55563  32.378   3.432   6.054
 4170POPC   D2A55564  32.427   3.343   6.520
 4170POPC   C3A55565  32.226   3.473   6.893
 4170POPC   C4A55566  32.208   3.276   7.267
 4170POPC   C1B55567  32.067   3.831   6.040
 4170POPC   C2B55568  32.123   3.765   6.470
 4170POPC   C3B55569  31.880   3.830   6.850
 4170POPC   C4B55570  31.907   3.757   7.278
 4171POPC   NC355571  37.278   3.794   5.568
 4171POPC   PO455572  36.582   3.905   5.387
 4171POPC   GL155573  36.804   3.702   5.729
 4171POPC   GL255574  36.757   3.324   5.670
 4171POPC   C1A55575  37.008   3.928   6.135
 4171POPC   D2A55576  37.139   4.055   6.570
 4171POPC   C3A55577  37.053   3.671   6.801
 4171POPC   C4A55578  36.957   3.573   7.209
 4171POPC   C1B55579  36.644   3.159   6.075
 4171POPC   C2B55580  36.695   3.360   6.513
 4171POPC   C3B55581  36.728   3.216   6.946
 4171POPC   C4B55582  36.843   3.097   7.373
 4172POPC   NC355583  44.849  30.407   5.354
 4172POPC   PO455584  44.396  30.853   5.387
 4172POPC   GL155585  44.565  30.667   5.745
 4172POPC   GL255586  44.857  30.834   5.727
 4172POPC   C1A55587  44.504  30.511   6.169
 4172POPC   D2A55588  44.384  30.711   6.562
 4172POPC   C3A55589  44.510  30.568   6.984
 4172POPC   C4A55590  44.516  30.711   7.403
 4172POPC   C1B55591  44.931  30.760   6.132
 4172POPC   C2B55592  44.897  30.584   6.511
 4172POPC   C3B55593  44.973  30.765   6.869
 4172POPC   C4B55594   0.018  30.626   7.269
 4173POPC   NC355595  37.385   0.151   5.587
 4173POPC   PO455596  38.062  44.854   5.438
 4173POPC   GL155597  37.861  44.769   5.817
 4173POPC   GL255598  37.537  44.807   5.952
 4173POPC   C1A55599  37.990  44.760   6.228
 4173POPC   D2A55600  37.723  44.664   6.539
 4173POPC   C3A55601  37.752  44.915   6.880
 4173POPC   C4A55602  37.966  44.851   7.253
 4173POPC   C1B55603  37.285  44.555   6.252
 4173POPC   C2B55604  37.265  44.469   6.675
 4173POPC   C3B55605  37.504  44.484   7.016
 4173POPC   C4B55606  37.438  44.818   7.266
 4174POPC   NC355607  28.838  35.360   5.420
 4174POPC   PO455608  28.179  35.574   5.419
 4174POPC   GL155609  28.416  35.343   5.723
 4174POPC   GL255610  28.403  34.983   5.774
 4174POPC   C1A55611  28.450  35.352   6.160
 4174POPC   D2A55612  28.380  35.166   6.555
 4174POPC   C3A55613  28.303  35.430   6.907
 4174POPC   C4A55614  28.454  35.462   7.317
 4174POPC   C1B55615  28.662  34.892   6.139
 4174POPC   C2B55616  28.739  34.809   6.579
 4174POPC   C3B55617  28.673  35.045   6.991
 4174POPC   C4B55618  28.243  35.009   7.208
 4175POPC   NC355619  41.916  24.815   5.468
 4175POPC   PO455620  41.531  24.236   5.473
 4175POPC   GL155621  41.373  24.570   5.766
 4175POPC   GL255622  41.666  24.713   5.908
 4175POPC   C1A55623  41.277  24.603   6.213
 4175POPC   D2A55624  41.608  24.589   6.542
 4175POPC   C3A55625  41.368  24.444   6.897
 4175POPC   C4A55626  41.205  24.681   7.230
 4175POPC   C1B55627  41.883  24.377   6.146
 4175POPC   C2B55628  42.105  24.403   6.535
 4175POPC   C3B55629  41.911  24.349   6.922
 4175POPC   C4B55630  41.700  24.524   7.278
 4176POPC   NC355631   5.178  38.065   5.468
 4176POPC   PO455632   4.924  38.735   5.457
 4176POPC   GL155633   5.142  38.461   5.787
 4176POPC   GL255634   5.018  38.181   5.947
 4176POPC   C1A55635   5.462  38.511   6.149
 4176POPC   D2A55636   5.433  38.789   6.504
 4176POPC   C3A55637   5.503  38.586   6.899
 4176POPC   C4A55638   5.424  38.646   7.311
 4176POPC   C1B55639   4.979  38.565   6.243
 4176POPC   C2B55640   5.119  38.404   6.626
 4176POPC   C3B55641   5.017  38.472   7.039
 4176POPC   C4B55642   4.789  38.812   7.160
 4177POPC   NC355643  35.907  19.300   5.664
 4177POPC   PO455644  36.235  19.839   5.379
 4177POPC   GL155645  36.198  19.931   5.828
 4177POPC   GL255646  35.921  19.747   5.879
 4177POPC   C1A55647  36.066  20.067   6.248
 4177POPC   D2A55648  35.831  20.088   6.615
 4177POPC   C3A55649  35.947  19.744   6.829
 4177POPC   C4A55650  36.185  19.755   7.208
 4177POPC   C1B55651  36.217  19.579   6.200
 4177POPC   C2B55652  36.163  19.307   6.525
 4177POPC   C3B55653  36.168  19.299   6.931
 4177POPC   C4B55654  36.478  19.320   7.195
 4178POPC   NC355655   4.199   7.768   5.437
 4178POPC   PO455656   4.635   7.272   5.438
 4178POPC   GL155657   4.358   7.230   5.823
 4178POPC   GL255658   4.369   7.517   5.849
 4178POPC   C1A55659   4.013   7.375   6.162
 4178POPC   D2A55660   3.922   7.444   6.605
 4178POPC   C3A55661   4.292   7.449   6.850
 4178POPC   C4A55662   4.362   7.444   7.267
 4178POPC   C1B55663   4.589   7.632   6.218
 4178POPC   C2B55664   4.761   7.786   6.612
 4178POPC   C3B55665   4.646   7.848   7.042
 4178POPC   C4B55666   4.778   7.692   7.443
 4179POPC   NC355667   7.269  30.455   5.471
 4179POPC   PO455668   7.563  30.917   5.251
 4179POPC   GL155669   7.641  30.738   5.662
 4179POPC   GL255670   7.502  31.019   5.876
 4179POPC   C1A55671   7.597  30.549   6.071
 4179POPC   D2A55672   7.790  30.553   6.482
 4179POPC   C3A55673   7.491  30.623   6.814
 4179POPC   C4A55674   7.302  30.426   7.210
 4179POPC   C1B55675   7.533  31.013   6.366
 4179POPC   C2B55676   7.336  31.164   6.765
 4179POPC   C3B55677   7.176  30.925   7.132
 4179POPC   C4B55678   6.935  30.718   7.492
 4180POPC   NC355679  39.153   8.660   5.069
 4180POPC   PO455680  39.249   8.009   5.309
 4180POPC   GL155681  39.345   7.996   5.743
 4180POPC   GL255682  39.391   8.315   5.856
 4180POPC   C1A55683  39.132   8.058   6.169
 4180POPC   D2A55684  39.237   8.330   6.511
 4180POPC   C3A55685  39.152   8.101   6.908
 4180POPC   C4A55686  39.129   8.280   7.326
 4180POPC   C1B55687  39.528   8.652   6.120
 4180POPC   C2B55688  39.685   8.622   6.526
 4180POPC   C3B55689  39.488   8.545   6.943
 4180POPC   C4B55690  39.599   8.462   7.379
 4181POPC   NC355691  13.643  10.395   5.344
 4181POPC   PO455692  13.279  10.846   5.762
 4181POPC   GL155693  13.437  10.405   5.862
 4181POPC   GL255694  13.791  10.267   5.820
 4181POPC   C1A55695  13.576  10.213   6.260
 4181POPC   D2A55696  13.844  10.265   6.625
 4181POPC   C3A55697  13.562  10.154   6.958
 4181POPC   C4A55698  13.426  10.429   7.258
 4181POPC   C1B55699  13.848  10.646   6.074
 4181POPC   C2B55700  13.776  10.791   6.515
 4181POPC   C3B55701  13.830  10.690   6.967
 4181POPC   C4B55702  13.861  10.645   7.441
 4182POPC   NC355703  28.930  19.776   5.218
 4182POPC   PO455704  29.538  20.108   5.290
 4182POPC   GL155705  29.265  19.933   5.672
 4182POPC   GL255706  28.887  19.900   5.710
 4182POPC   C1A55707  29.277  19.759   6.125
 4182POPC   D2A55708  29.042  19.710   6.542
 4182POPC   C3A55709  29.249  19.632   6.949
 4182POPC   C4A55710  29.319  19.355   7.284
 4182POPC   C1B55711  28.769  19.879   6.130
 4182POPC   C2B55712  28.694  20.077   6.534
 4182POPC   C3B55713  28.806  19.932   6.951
 4182POPC   C4B55714  28.694  20.121   7.342
 4183POPC   NC355715  42.779   2.313   5.364
 4183POPC   PO455716  43.375   2.548   5.477
 4183POPC   GL155717  43.079   2.631   5.780
 4183POPC   GL255718  42.855   2.896   5.672
 4183POPC   C1A55719  43.076   2.658   6.228
 4183POPC   D2A55720  42.803   2.589   6.572
 4183POPC   C3A55721  43.021   2.617   6.965
 4183POPC   C4A55722  43.421   2.496   7.195
 4183POPC   C1B55723  42.785   3.052   6.104
 4183POPC   C2B55724  43.013   3.083   6.553
 4183POPC   C3B55725  43.208   3.106   7.021
 4183POPC   C4B55726  43.024   3.164   7.482
 4184POPC   NC355727  28.995  29.637   5.236
 4184POPC   PO455728  29.383  30.157   5.246
 4184POPC   GL155729  29.200  30.047   5.667
 4184POPC   GL255730  29.121  29.713   5.745
 4184POPC   C1A55731  29.274  30.029   6.137
 4184POPC   D2A55732  29.466  30.172   6.567
 4184POPC   C3A55733  29.235  30.026   6.953
 4184POPC   C4A55734  28.791  30.145   7.083
 4184POPC   C1B55735  28.904  29.642   6.168
 4184POPC   C2B55736  28.775  29.574   6.632
 4184POPC   C3B55737  28.668  29.566   7.088
 4184POPC   C4B55738  28.702  29.457   7.555
 4185POPC   NC355739  27.343  32.101   5.395
 4185POPC   PO455740  27.671  32.681   5.183
 4185POPC   GL155741  27.663  32.419   5.648
 4185POPC   GL255742  27.801  32.141   5.780
 4185POPC   C1A55743  27.680  32.467   6.152
 4185POPC   D2A55744  27.859  32.589   6.601
 4185POPC   C3A55745  27.695  32.463   7.028
 4185POPC   C4A55746  27.330  32.199   7.144
 4185POPC   C1B55747  27.614  31.950   6.159
 4185POPC   C2B55748  27.631  32.133   6.581
 4185POPC   C3B55749  27.766  31.951   6.962
 4185POPC   C4B55750  27.710  31.627   7.228
 4186POPC   NC355751  24.230  30.420   5.584
 4186POPC   PO455752  23.690  30.747   5.234
 4186POPC   GL155753  23.658  30.764   5.676
 4186POPC   GL255754  23.999  30.854   5.753
 4186POPC   C1A55755  23.457  30.657   6.078
 4186POPC   D2A55756  23.577  30.567   6.516
 4186POPC   C3A55757  23.555  30.800   6.907
 4186POPC   C4A55758  23.719  30.514   7.206
 4186POPC   C1B55759  23.949  30.754   6.181
 4186POPC   C2B55760  24.011  30.892   6.595
 4186POPC   C3B55761  24.149  30.739   6.977
 4186POPC   C4B55762  24.023  30.904   7.355
 4187POPC   NC355763  13.780  24.673   5.120
 4187POPC   PO455764  13.264  24.264   5.440
 4187POPC   GL155765  13.446  24.160   5.862
 4187POPC   GL255766  13.820  24.223   5.893
 4187POPC   C1A55767  13.455  24.228   6.311
 4187POPC   D2A55768  13.693  24.264   6.677
 4187POPC   C3A55769  13.466  24.358   7.027
 4187POPC   C4A55770  13.408  24.790   7.105
 4187POPC   C1B55771  13.922  24.478   6.238
 4187POPC   C2B55772  14.094  24.600   6.633
 4187POPC   C3B55773  13.898  24.645   7.018
 4187POPC   C4B55774  13.913  24.780   7.428
 4188POPC   NC355775  24.220   1.821   5.449
 4188POPC   PO455776  24.539   2.350   5.313
 4188POPC   GL155777  24.670   2.056   5.683
 4188POPC   GL255778  24.674   1.674   5.684
 4188POPC   C1A55779  24.548   1.939   6.124
 4188POPC   D2A55780  24.212   2.073   6.439
 4188POPC   C3A55781  24.422   2.158   6.823
 4188POPC   C4A55782  24.564   1.900   7.153
 4188POPC   C1B55783  24.355   1.468   5.985
 4188POPC   C2B55784  24.239   1.546   6.393
 4188POPC   C3B55785  24.397   1.548   6.783
 4188POPC   C4B55786  24.273   1.512   7.176
 4189POPC   NC355787  27.139  41.978   5.316
 4189POPC   PO455788  27.069  42.686   5.368
 4189POPC   GL155789  27.095  42.618   5.826
 4189POPC   GL255790  26.775  42.469   5.886
 4189POPC   C1A55791  27.145  42.388   6.236
 4189POPC   D2A55792  27.302  42.442   6.665
 4189POPC   C3A55793  27.146  42.381   7.088
 4189POPC   C4A55794  27.000  42.598   7.482
 4189POPC   C1B55795  26.659  42.315   6.309
 4189POPC   C2B55796  26.777  42.394   6.732
 4189POPC   C3B55797  26.650  42.544   7.107
 4189POPC   C4B55798  26.558  42.331   7.501
 4190POPC   NC355799  31.946  33.231   5.325
 4190POPC   PO455800  32.543  32.879   5.330
 4190POPC   GL155801  32.513  33.017   5.767
 4190POPC   GL255802  32.593  32.676   5.835
 4190POPC   C1A55803  32.365  33.314   6.125
 4190POPC   D2A55804  32.040  33.255   6.453
 4190POPC   C3A55805  32.157  33.210   6.896
 4190POPC   C4A55806  32.187  33.206   7.349
 4190POPC   C1B55807  32.328  32.797   6.228
 4190POPC   C2B55808  32.110  32.769   6.639
 4190POPC   C3B55809  32.147  32.753   7.114
 4190POPC   C4B55810  32.450  32.772   7.498
 4191POPC   NC355811   7.162  29.809   5.502
 4191POPC   PO455812   7.699  30.241   5.449
 4191POPC   GL155813   7.787  30.101   5.819
 4191POPC   GL255814   7.603  29.806   5.827
 4191POPC   C1A55815   7.681  30.090   6.244
 4191POPC   D2A55816   7.524  30.129   6.663
 4191POPC   C3A55817   7.759  30.217   7.048
 4191POPC   C4A55818   7.733  30.339   7.496
 4191POPC   C1B55819   7.282  29.789   6.221
 4191POPC   C2B55820   7.294  29.677   6.685
 4191POPC   C3B55821   7.291  29.920   7.094
 4191POPC   C4B55822   6.920  30.007   7.360
 4192POPC   NC355823  26.640  42.845   5.321
 4192POPC   PO455824  26.993  43.429   5.299
 4192POPC   GL155825  26.992  43.159   5.712
 4192POPC   GL255826  26.712  42.985   5.836
 4192POPC   C1A55827  27.087  43.005   6.164
 4192POPC   D2A55828  26.937  42.807   6.498
 4192POPC   C3A55829  26.747  43.076   6.812
 4192POPC   C4A55830  26.780  43.027   7.266
 4192POPC   C1B55831  26.671  43.359   6.147
 4192POPC   C2B55832  26.521  43.563   6.572
 4192POPC   C3B55833  26.488  43.486   7.054
 4192POPC   C4B55834  26.169  43.287   7.337
 4193POPC   NC355835  27.159  27.342   5.589
 4193POPC   PO455836  27.631  27.908   5.469
 4193POPC   GL155837  27.655  27.585   5.772
 4193POPC   GL255838  27.352  27.685   5.926
 4193POPC   C1A55839  27.741  27.448   6.207
 4193POPC   D2A55840  27.576  27.576   6.611
 4193POPC   C3A55841  27.645  27.375   7.004
 4193POPC   C4A55842  27.781  27.618   7.361
 4193POPC   C1B55843  27.237  27.399   6.275
 4193POPC   C2B55844  27.136  27.295   6.720
 4193POPC   C3B55845  27.119  27.207   7.122
 4193POPC   C4B55846  27.294  27.465   7.405
 4194POPC   NC355847  24.054  44.402   5.245
 4194POPC   PO455848  24.657  44.684   5.532
 4194POPC   GL155849  24.362  44.634   5.873
 4194POPC   GL255850  24.135  44.317   5.797
 4194POPC   C1A55851  24.457  44.735   6.343
 4194POPC   D2A55852  24.522  44.633   6.790
 4194POPC   C3A55853  24.472  44.820   7.184
 4194POPC   C4A55854  24.750  44.640   7.487
 4194POPC   C1B55855  24.047  44.446   6.231
 4194POPC   C2B55856  24.031  44.639   6.631
 4194POPC   C3B55857  24.064  44.486   7.037
 4194POPC   C4B55858  24.207  44.464   7.455
 4195POPC   NC355859  32.622  16.069   5.200
 4195POPC   PO455860  33.180  15.659   5.414
 4195POPC   GL155861  32.900  15.886   5.712
 4195POPC   GL255862  32.689  15.619   5.835
 4195POPC   C1A55863  32.942  16.117   6.147
 4195POPC   D2A55864  33.104  16.328   6.561
 4195POPC   C3A55865  32.906  16.251   6.948
 4195POPC   C4A55866  33.171  16.238   7.295
 4195POPC   C1B55867  33.070  15.619   6.131
 4195POPC   C2B55868  33.132  15.810   6.565
 4195POPC   C3B55869  32.936  15.710   6.988
 4195POPC   C4B55870  33.088  15.413   7.323
 4196POPC   NC355871  18.865   4.589   5.115
 4196POPC   PO455872  19.201   4.064   5.230
 4196POPC   GL155873  18.979   4.165   5.637
 4196POPC   GL255874  18.681   3.949   5.676
 4196POPC   C1A55875  19.066   4.405   6.054
 4196POPC   D2A55876  19.264   4.579   6.463
 4196POPC   C3A55877  19.152   4.403   6.874
 4196POPC   C4A55878  19.189   4.474   7.326
 4196POPC   C1B55879  18.602   4.145   6.081
 4196POPC   C2B55880  18.703   4.368   6.466
 4196POPC   C3B55881  18.685   4.189   6.880
 4196POPC   C4B55882  18.699   4.359   7.300
 4197POPC   NC355883  44.102  28.014   5.454
 4197POPC   PO455884  43.565  28.423   5.534
 4197POPC   GL155885  43.849  28.270   5.836
 4197POPC   GL255886  44.228  28.364   5.826
 4197POPC   C1A55887  43.875  28.443   6.238
 4197POPC   D2A55888  43.611  28.595   6.551
 4197POPC   C3A55889  43.804  28.502   6.926
 4197POPC   C4A55890  43.819  28.084   7.058
 4197POPC   C1B55891  44.360  28.606   6.197
 4197POPC   C2B55892  44.510  28.536   6.626
 4197POPC   C3B55893  44.455  28.650   7.062
 4197POPC   C4B55894  44.124  28.551   7.356
 4198POPC   NC355895  35.042   9.290   5.507
 4198POPC   PO455896  34.518   9.758   5.490
 4198POPC   GL155897  34.583   9.621   5.921
 4198POPC   GL255898  34.704   9.292   5.881
 4198POPC   C1A55899  34.665   9.766   6.358
 4198POPC   D2A55900  34.359   9.716   6.671
 4198POPC   C3A55901  34.392   9.694   7.093
 4198POPC   C4A55902  34.331  10.005   7.352
 4198POPC   C1B55903  35.010   9.407   6.180
 4198POPC   C2B55904  35.042   9.260   6.585
 4198POPC   C3B55905  34.825   9.496   6.865
 4198POPC   C4B55906  34.920   9.497   7.269
 4199POPC   NC355907   5.480  42.173   5.322
 4199POPC   PO455908   6.147  42.103   5.117
 4199POPC   GL155909   6.034  42.067   5.581
 4199POPC   GL255910   6.298  42.267   5.725
 4199POPC   C1A55911   6.064  41.981   6.077
 4199POPC   D2A55912   6.191  41.944   6.541
 4199POPC   C3A55913   5.900  42.129   6.891
 4199POPC   C4A55914   5.698  42.504   7.140
 4199POPC   C1B55915   6.132  42.565   6.058
 4199POPC   C2B55916   6.264  42.732   6.479
 4199POPC   C3B55917   6.105  42.765   6.901
 4199POPC   C4B55918   6.324  42.759   7.266
 4200POPC   NC355919   8.757  20.067   5.572
 4200POPC   PO455920   9.164  19.496   5.480
 4200POPC   GL155921   9.054  19.737   5.851
 4200POPC   GL255922   9.289  19.970   5.940
 4200POPC   C1A55923   8.792  19.882   6.226
 4200POPC   D2A55924   8.589  19.900   6.645
 4200POPC   C3A55925   8.843  19.894   7.016
 4200POPC   C4A55926   8.994  20.065   7.394
 4200POPC   C1B55927   9.235  20.119   6.323
 4200POPC   C2B55928   9.266  19.931   6.687
 4200POPC   C3B55929   9.359  20.079   7.055
 4200POPC   C4B55930   9.469  20.085   7.542
 4201POPC   NC355931   7.739  19.239   5.399
 4201POPC   PO455932   7.136  19.311   5.609
 4201POPC   GL155933   7.460  19.145   5.851
 4201POPC   GL255934   7.391  18.792   5.794
 4201POPC   C1A55935   7.502  19.092   6.295
 4201POPC   D2A55936   7.261  19.275   6.648
 4201POPC   C3A55937   7.535  19.315   7.002
 4201POPC   C4A55938   7.918  19.308   7.306
 4201POPC   C1B55939   7.174  18.702   6.185
 4201POPC   C2B55940   7.294  18.732   6.619
 4201POPC   C3B55941   7.235  18.896   7.011
 4201POPC   C4B55942   7.542  18.958   7.361
 4202POPC   NC355943  42.873   6.241   5.411
 4202POPC   PO455944  43.372   6.484   5.096
 4202POPC   GL155945  43.304   6.709   5.595
 4202POPC   GL255946  43.200   6.496   5.911
 4202POPC   C1A55947  43.217   6.946   6.071
 4202POPC   D2A55948  42.960   6.734   6.444
 4202POPC   C3A55949  43.128   6.729   6.883
 4202POPC   C4A55950  43.001   7.017   7.199
 4202POPC   C1B55951  42.899   6.277   6.168
 4202POPC   C2B55952  42.816   6.175   6.595
 4202POPC   C3B55953  42.705   6.364   6.985
 4202POPC   C4B55954  42.740   6.484   7.417
 4203POPC   NC355955  21.487  25.592   5.177
 4203POPC   PO455956  21.367  26.194   5.368
 4203POPC   GL155957  21.433  26.334   5.808
 4203POPC   GL255958  21.765  26.375   5.903
 4203POPC   C1A55959  21.323  26.432   6.273
 4203POPC   D2A55960  21.194  26.469   6.736
 4203POPC   C3A55961  21.233  26.135   7.086
 4203POPC   C4A55962  20.964  25.810   7.328
 4203POPC   C1B55963  21.838  26.315   6.362
 4203POPC   C2B55964  21.672  26.267   6.800
 4203POPC   C3B55965  21.771  26.138   7.214
 4203POPC   C4B55966  21.922  26.117   7.653
 4204POPC   NC355967   0.830  42.854   5.337
 4204POPC   PO455968   0.286  43.299   5.489
 4204POPC   GL155969   0.481  43.198   5.854
 4204POPC   GL255970   0.392  42.840   5.834
 4204POPC   C1A55971   0.573  43.029   6.279
 4204POPC   D2A55972   0.826  42.879   6.644
 4204POPC   C3A55973   0.715  43.054   7.055
 4204POPC   C4A55974   0.370  43.292   7.227
 4204POPC   C1B55975   0.052  42.802   6.154
 4204POPC   C2B55976  44.966  42.944   6.585
 4204POPC   C3B55977   0.227  42.878   6.990
 4204POPC   C4B55978   0.242  42.849   7.476
 4205POPC   NC355979   2.268   1.331   5.498
 4205POPC   PO455980   1.551   1.065   5.564
 4205POPC   GL155981   1.894   1.167   5.778
 4205POPC   GL255982   1.865   1.527   5.796
 4205POPC   C1A55983   2.199   1.276   6.143
 4205POPC   D2A55984   2.441   1.016   6.425
 4205POPC   C3A55985   2.314   1.097   6.835
 4205POPC   C4A55986   2.066   1.006   7.194
 4205POPC   C1B55987   1.692   1.328   6.196
 4205POPC   C2B55988   1.868   1.099   6.540
 4205POPC   C3B55989   1.648   0.971   6.886
 4205POPC   C4B55990   1.560   1.236   7.207
 4206POPC   NC355991  34.914  43.824   5.420
 4206POPC   PO455992  34.300  43.830   5.384
 4206POPC   GL155993  34.499  43.838   5.809
 4206POPC   GL255994  34.542  44.154   5.887
 4206POPC   C1A55995  34.526  43.840   6.300
 4206POPC   D2A55996  34.596  43.618   6.709
 4206POPC   C3A55997  34.482  43.621   7.158
 4206POPC   C4A55998  34.721  43.389   7.499
 4206POPC   C1B55999  34.815  44.262   6.261
 4206POPC   C2B56000  34.911  44.008   6.634
 4206POPC   C3B56001  34.831  43.974   7.085
 4206POPC   C4B56002  34.572  44.086   7.461
 4207POPC   NC356003  26.940  21.113   5.334
 4207POPC   PO456004  26.700  20.541   5.456
 4207POPC   GL156005  26.933  20.541   5.804
 4207POPC   GL256006  27.113  20.825   5.722
 4207POPC   C1A56007  26.833  20.393   6.213
 4207POPC   D2A56008  26.716  20.552   6.649
 4207POPC   C3A56009  26.838  20.356   7.054
 4207POPC   C4A56010  26.932  20.510   7.479
 4207POPC   C1B56011  26.933  20.891   6.174
 4207POPC   C2B56012  26.978  20.996   6.629
 4207POPC   C3B56013  27.012  20.830   7.034
 4207POPC   C4B56014  26.586  20.772   7.212
 4208POPC   NC356015  39.862  34.361   5.394
 4208POPC   PO456016  40.197  34.862   5.444
 4208POPC   GL156017  40.039  34.704   5.794
 4208POPC   GL256018  39.838  34.413   5.897
 4208POPC   C1A56019  39.884  34.857   6.141
 4208POPC   D2A56020  39.738  34.838   6.535
 4208POPC   C3A56021  39.953  34.913   6.901
 4208POPC   C4A56022  40.137  34.688   7.252
 4208POPC   C1B56023  39.854  34.364   6.323
 4208POPC   C2B56024  39.995  34.390   6.722
 4208POPC   C3B56025  39.721  34.468   6.978
 4208POPC   C4B56026  39.753  34.368   7.369
 4209POPC   NC356027  27.409  33.962   5.372
 4209POPC   PO456028  27.853  33.415   5.423
 4209POPC   GL156029  27.681  33.681   5.734
 4209POPC   GL256030  27.527  33.398   5.841
 4209POPC   C1A56031  27.479  33.812   6.131
 4209POPC   D2A56032  27.605  33.970   6.503
 4209POPC   C3A56033  27.539  33.905   6.917
 4209POPC   C4A56034  27.697  34.055   7.348
 4209POPC   C1B56035  27.773  33.445   6.274
 4209POPC   C2B56036  27.811  33.480   6.733
 4209POPC   C3B56037  27.826  33.588   7.165
 4209POPC   C4B56038  27.828  33.644   7.656
 4210POPC   NC356039  28.692  19.115   5.595
 4210POPC   PO456040  28.085  18.821   5.580
 4210POPC   GL156041  28.130  18.912   6.022
 4210POPC   GL256042  28.228  19.247   5.970
 4210POPC   C1A56043  28.163  19.034   6.478
 4210POPC   D2A56044  28.497  18.951   6.792
 4210POPC   C3A56045  28.413  18.901   7.241
 4210POPC   C4A56046  28.707  18.827   7.599
 4210POPC   C1B56047  28.440  19.519   6.276
 4210POPC   C2B56048  28.518  19.500   6.729
 4210POPC   C3B56049  28.182  19.305   6.979
 4210POPC   C4B56050  28.094  19.299   7.413
 4211POPC   NC356051  22.046  31.877   5.384
 4211POPC   PO456052  22.494  32.360   5.245
 4211POPC   GL156053  22.304  32.275   5.628
 4211POPC   GL256054  22.517  31.973   5.630
 4211POPC   C1A56055  22.128  32.437   6.039
 4211POPC   D2A56056  21.983  32.225   6.420
 4211POPC   C3A56057  22.127  32.430   6.782
 4211POPC   C4A56058  22.178  32.384   7.222
 4211POPC   C1B56059  22.445  32.049   6.066
 4211POPC   C2B56060  22.450  32.034   6.518
 4211POPC   C3B56061  22.416  31.967   6.960
 4211POPC   C4B56062  22.547  31.946   7.394
 4212POPC   NC356063  44.680  28.830   5.470
 4212POPC   PO456064  44.622  28.114   5.415
 4212POPC   GL156065  44.724  28.152   5.829
 4212POPC   GL256066  44.750  28.498   5.867
 4212POPC   C1A56067  44.607  28.163   6.248
 4212POPC   D2A56068  44.661  27.936   6.602
 4212POPC   C3A56069  44.644  28.165   6.972
 4212POPC   C4A56070  44.765  27.964   7.350
 4212POPC   C1B56071  44.868  28.653   6.274
 4212POPC   C2B56072  44.937  28.813   6.708
 4212POPC   C3B56073   0.166  28.617   7.017
 4212POPC   C4B56074  44.855  28.468   7.330
 4213POPC   NC356075  27.910  28.737   5.477
 4213POPC   PO456076  27.635  29.329   5.477
 4213POPC   GL156077  27.497  29.342   5.857
 4213POPC   GL256078  27.516  28.974   5.867
 4213POPC   C1A56079  27.547  29.267   6.282
 4213POPC   D2A56080  27.528  28.961   6.578
 4213POPC   C3A56081  27.457  29.273   6.870
 4213POPC   C4A56082  27.724  29.420   7.178
 4213POPC   C1B56083  27.869  28.859   6.173
 4213POPC   C2B56084  28.002  28.746   6.612
 4213POPC   C3B56085  27.862  28.955   7.010
 4213POPC   C4B56086  27.948  28.943   7.472
 4214POPC   NC356087  20.390  27.863   5.387
 4214POPC   PO456088  20.744  27.323   5.440
 4214POPC   GL156089  20.515  27.530   5.764
 4214POPC   GL256090  20.326  27.270   5.849
 4214POPC   C1A56091  20.487  27.797   6.139
 4214POPC   D2A56092  20.677  27.663   6.547
 4214POPC   C3A56093  20.534  27.720   6.958
 4214POPC   C4A56094  20.656  27.516   7.364
 4214POPC   C1B56095  20.359  27.338   6.293
 4214POPC   C2B56096  20.368  27.285   6.740
 4214POPC   C3B56097  20.239  27.307   7.149
 4214POPC   C4B56098  20.195  27.376   7.570
 4215POPC   NC356099   9.675  42.801   5.365
 4215POPC   PO456100   9.688  43.451   5.416
 4215POPC   GL156101   9.588  43.123   5.750
 4215POPC   GL256102   9.892  42.894   5.817
 4215POPC   C1A56103   9.584  43.045   6.188
 4215POPC   D2A56104   9.683  43.335   6.508
 4215POPC   C3A56105   9.619  43.155   6.870
 4215POPC   C4A56106   9.694  43.275   7.246
 4215POPC   C1B56107  10.064  43.203   6.136
 4215POPC   C2B56108  10.124  43.090   6.587
 4215POPC   C3B56109  10.022  42.891   6.990
 4215POPC   C4B56110  10.010  42.913   7.451
 4216POPC   NC356111   9.362  43.734   5.545
 4216POPC   PO456112   8.717  43.689   5.391
 4216POPC   GL156113   8.904  43.690   5.795
 4216POPC   GL256114   9.066  44.037   5.815
 4216POPC   C1A56115   8.969  43.771   6.239
 4216POPC   D2A56116   9.237  43.629   6.543
 4216POPC   C3A56117   9.018  43.735   6.915
 4216POPC   C4A56118   8.827  43.761   7.324
 4216POPC   C1B56119   9.369  44.091   6.141
 4216POPC   C2B56120   9.244  44.146   6.515
 4216POPC   C3B56121   9.333  44.141   6.898
 4216POPC   C4B56122   9.065  44.191   7.228
 4217POPC   NC356123   5.583   0.970   5.381
 4217POPC   PO456124   4.891   1.166   5.403
 4217POPC   GL156125   5.081   1.273   5.769
 4217POPC   GL256126   5.432   1.199   5.799
 4217POPC   C1A56127   4.847   1.320   6.141
 4217POPC   D2A56128   4.617   1.384   6.507
 4217POPC   C3A56129   4.760   1.086   6.778
 4217POPC   C4A56130   4.854   1.215   7.163
 4217POPC   C1B56131   5.613   1.043   6.181
 4217POPC   C2B56132   5.617   1.196   6.608
 4217POPC   C3B56133   5.439   1.049   6.993
 4217POPC   C4B56134   5.268   1.105   7.398
 4218POPC   NC356135  18.464  33.347   5.629
 4218POPC   PO456136  18.586  32.801   5.303
 4218POPC   GL156137  18.328  32.761   5.706
 4218POPC   GL256138  18.024  32.940   5.802
 4218POPC   C1A56139  18.337  32.760   6.184
 4218POPC   D2A56140  18.145  32.709   6.630
 4218POPC   C3A56141  18.376  32.773   7.029
 4218POPC   C4A56142  18.670  32.718   7.394
 4218POPC   C1B56143  17.889  32.996   6.259
 4218POPC   C2B56144  18.005  33.203   6.672
 4218POPC   C3B56145  17.950  33.088   7.103
 4218POPC   C4B56146  17.860  33.332   7.515
 4219POPC   NC356147  37.652  29.545   5.412
 4219POPC   PO456148  37.657  28.920   5.258
 4219POPC   GL156149  37.463  29.087   5.652
 4219POPC   GL256150  37.328  28.811   5.816
 4219POPC   C1A56151  37.382  29.213   6.122
 4219POPC   D2A56152  37.577  29.393   6.503
 4219POPC   C3A56153  37.521  29.245   6.930
 4219POPC   C4A56154  37.834  29.381   7.248
 4219POPC   C1B56155  37.696  28.766   6.127
 4219POPC   C2B56156  37.899  28.935   6.535
 4219POPC   C3B56157  37.944  28.939   7.002
 4219POPC   C4B56158  37.892  28.573   7.246
 4220POPC   NC356159  13.915  13.548   5.496
 4220POPC   PO456160  13.464  14.004   5.504
 4220POPC   GL156161  13.503  13.630   5.774
 4220POPC   GL256162  13.224  13.392   5.798
 4220POPC   C1A56163  13.706  13.485   6.170
 4220POPC   D2A56164  13.782  13.694   6.573
 4220POPC   C3A56165  13.704  13.525   6.995
 4220POPC   C4A56166  13.927  13.455   7.357
 4220POPC   C1B56167  13.290  13.176   6.195
 4220POPC   C2B56168  13.404  13.338   6.616
 4220POPC   C3B56169  13.300  13.218   7.066
 4220POPC   C4B56170  13.381  13.259   7.539
 4221POPC   NC356171  39.847  35.922   5.323
 4221POPC   PO456172  39.783  36.394   5.702
 4221POPC   GL156173  39.766  35.934   5.864
 4221POPC   GL256174  40.069  35.730   5.800
 4221POPC   C1A56175  39.788  35.824   6.310
 4221POPC   D2A56176  40.010  36.156   6.575
 4221POPC   C3A56177  39.802  36.386   6.902
 4221POPC   C4A56178  39.774  36.044   7.175
 4221POPC   C1B56179  40.281  35.708   6.220
 4221POPC   C2B56180  40.345  35.785   6.688
 4221POPC   C3B56181  40.259  36.068   7.057
 4221POPC   C4B56182  40.209  35.957   7.502
 4222POPC   NC356183  33.431   4.265   5.466
 4222POPC   PO456184  34.107   4.416   5.372
 4222POPC   GL156185  33.885   4.318   5.789
 4222POPC   GL256186  33.604   4.057   5.895
 4222POPC   C1A56187  33.974   4.170   6.222
 4222POPC   D2A56188  33.734   4.089   6.565
 4222POPC   C3A56189  33.994   4.149   6.895
 4222POPC   C4A56190  34.027   4.024   7.287
 4222POPC   C1B56191  33.434   4.366   6.195
 4222POPC   C2B56192  33.334   4.419   6.633
 4222POPC   C3B56193  33.518   4.293   7.028
 4222POPC   C4B56194  33.853   4.532   7.213
 4223POPC   NC356195  27.831  17.064   5.448
 4223POPC   PO456196  27.318  16.791   5.172
 4223POPC   GL156197  27.513  16.734   5.650
 4223POPC   GL256198  27.518  17.040   5.861
 4223POPC   C1A56199  27.789  16.691   6.082
 4223POPC   D2A56200  27.576  16.716   6.495
 4223POPC   C3A56201  27.723  16.647   6.910
 4223POPC   C4A56202  27.578  16.651   7.342
 4223POPC   C1B56203  27.720  17.171   6.271
 4223POPC   C2B56204  27.943  17.046   6.683
 4223POPC   C3B56205  27.831  17.105   7.159
 4223POPC   C4B56206  27.786  17.008   7.647
 4224POPC   NC356207  19.879  22.491   5.444
 4224POPC   PO456208  19.776  23.157   5.260
 4224POPC   GL156209  19.691  22.927   5.665
 4224POPC   GL256210  19.469  23.147   5.868
 4224POPC   C1A56211  19.713  22.778   6.126
 4224POPC   D2A56212  19.909  22.941   6.546
 4224POPC   C3A56213  19.735  22.852   6.957
 4224POPC   C4A56214  19.929  22.636   7.286
 4224POPC   C1B56215  19.467  23.165   6.358
 4224POPC   C2B56216  19.625  23.322   6.773
 4224POPC   C3B56217  19.828  23.356   7.191
 4224POPC   C4B56218  19.816  23.438   7.667
 4225POPC   NC356219  25.651  18.054   5.121
 4225POPC   PO456220  25.116  17.976   5.516
 4225POPC   GL156221  25.177  18.234   5.845
 4225POPC   GL256222  25.508  18.372   5.765
 4225POPC   C1A56223  25.134  18.185   6.278
 4225POPC   D2A56224  25.321  18.422   6.579
 4225POPC   C3A56225  25.141  18.309   6.939
 4225POPC   C4A56226  25.234  18.469   7.293
 4225POPC   C1B56227  25.667  18.233   6.174
 4225POPC   C2B56228  25.874  18.284   6.582
 4225POPC   C3B56229  25.681  18.287   7.001
 4225POPC   C4B56230  25.607  18.123   7.429
 4226POPC   NC356231  37.535  16.871   5.247
 4226POPC   PO456232  38.004  16.522   5.432
 4226POPC   GL156233  38.034  16.761   5.796
 4226POPC   GL256234  37.741  16.948   5.714
 4226POPC   C1A56235  37.999  16.608   6.224
 4226POPC   D2A56236  37.746  16.401   6.584
 4226POPC   C3A56237  37.693  16.668   6.953
 4226POPC   C4A56238  38.014  16.770   7.238
 4226POPC   C1B56239  37.689  17.036   6.142
 4226POPC   C2B56240  37.809  17.106   6.561
 4226POPC   C3B56241  37.546  17.201   6.901
 4226POPC   C4B56242  37.366  16.980   7.225
 4227POPC   NC356243  43.774   8.285   5.533
 4227POPC   PO456244  44.157   7.906   5.246
 4227POPC   GL156245  44.143   7.893   5.687
 4227POPC   GL256246  44.281   8.200   5.760
 4227POPC   C1A56247  43.899   7.964   6.086
 4227POPC   D2A56248  43.656   8.141   6.447
 4227POPC   C3A56249  43.630   7.942   6.841
 4227POPC   C4A56250  43.895   7.896   7.211
 4227POPC   C1B56251  44.269   8.306   6.218
 4227POPC   C2B56252  44.127   8.165   6.654
 4227POPC   C3B56253  43.900   8.363   7.015
 4227POPC   C4B56254  44.057   8.565   7.418
 4228POPC   NC356255  38.419  16.320   5.390
 4228POPC   PO456256  38.739  16.898   5.406
 4228POPC   GL156257  38.574  16.694   5.801
 4228POPC   GL256258  38.472  17.023   5.903
 4228POPC   C1A56259  38.581  16.648   6.299
 4228POPC   D2A56260  38.226  16.605   6.669
 4228POPC   C3A56261  38.336  16.431   7.063
 4228POPC   C4A56262  38.425  16.567   7.513
 4228POPC   C1B56263  38.267  17.033   6.313
 4228POPC   C2B56264  38.528  16.996   6.694
 4228POPC   C3B56265  38.548  16.913   7.127
 4228POPC   C4B56266  38.320  17.103   7.471
 4229POPC   NC356267  36.436  21.194   5.692
 4229POPC   PO456268  36.987  21.191   5.270
 4229POPC   GL156269  36.959  21.362   5.711
 4229POPC   GL256270  36.870  21.723   5.789
 4229POPC   C1A56271  37.013  21.321   6.176
 4229POPC   D2A56272  36.899  21.370   6.621
 4229POPC   C3A56273  36.674  21.154   6.938
 4229POPC   C4A56274  37.044  21.248   7.177
 4229POPC   C1B56275  36.697  21.748   6.244
 4229POPC   C2B56276  36.755  21.864   6.691
 4229POPC   C3B56277  36.744  21.648   7.081
 4229POPC   C4B56278  36.755  21.765   7.523
 4230POPC   NC356279   6.388  18.436   5.498
 4230POPC   PO456280   7.014  18.342   5.396
 4230POPC   GL156281   6.777  18.159   5.765
 4230POPC   GL256282   6.422  18.080   5.849
 4230POPC   C1A56283   6.857  17.989   6.162
 4230POPC   D2A56284   6.766  18.129   6.586
 4230POPC   C3A56285   6.827  17.927   6.959
 4230POPC   C4A56286   6.945  18.119   7.358
 4230POPC   C1B56287   6.517  18.368   6.212
 4230POPC   C2B56288   6.315  18.473   6.614
 4230POPC   C3B56289   6.285  18.360   7.073
 4230POPC   C4B56290   6.485  18.316   7.485
 4231POPC   NC356291  43.705  11.101   5.679
 4231POPC   PO456292  43.360  11.584   5.435
 4231POPC   GL156293  43.571  11.557   5.893
 4231POPC   GL256294  43.919  11.419   5.993
 4231POPC   C1A56295  43.545  11.418   6.350
 4231POPC   D2A56296  43.450  11.268   6.770
 4231POPC   C3A56297  43.655  11.392   7.179
 4231POPC   C4A56298  43.781  11.324   7.608
 4231POPC   C1B56299  44.023  11.588   6.394
 4231POPC   C2B56300  43.949  11.314   6.761
 4231POPC   C3B56301  44.159  11.229   7.156
 4231POPC   C4B56302  44.308  11.324   7.570
 4232POPC   NC356303  13.810  26.320   5.396
 4232POPC   PO456304  13.204  26.103   5.656
 4232POPC   GL156305  13.569  26.283   5.840
 4232POPC   GL256306  13.764  25.975   5.878
 4232POPC   C1A56307  13.831  26.381   6.191
 4232POPC   D2A56308  13.635  26.393   6.621
 4232POPC   C3A56309  13.775  26.049   6.894
 4232POPC   C4A56310  13.989  26.113   7.287
 4232POPC   C1B56311  13.489  25.980   6.276
 4232POPC   C2B56312  13.159  26.130   6.566
 4232POPC   C3B56313  13.187  26.310   6.972
 4232POPC   C4B56314  13.432  26.032   7.265
 4233POPC   NC356315  40.856  34.251   5.366
 4233POPC   PO456316  40.859  34.879   5.317
 4233POPC   GL156317  40.617  34.621   5.673
 4233POPC   GL256318  40.357  34.345   5.600
 4233POPC   C1A56319  40.788  34.459   6.117
 4233POPC   D2A56320  40.926  34.258   6.547
 4233POPC   C3A56321  40.955  34.461   6.981
 4233POPC   C4A56322  40.655  34.581   7.332
 4233POPC   C1B56323  40.305  34.351   6.055
 4233POPC   C2B56324  40.420  34.291   6.469
 4233POPC   C3B56325  40.491  34.271   6.889
 4233POPC   C4B56326  40.315  34.213   7.261
 4234POPC   NC356327  22.539  34.616   5.295
 4234POPC   PO456328  23.127  34.850   5.310
 4234POPC   GL156329  22.853  34.811   5.666
 4234POPC   GL256330  22.767  34.469   5.771
 4234POPC   C1A56331  22.975  34.786   6.109
 4234POPC   D2A56332  23.085  34.849   6.539
 4234POPC   C3A56333  23.083  34.502   6.816
 4234POPC   C4A56334  23.105  34.507   7.271
 4234POPC   C1B56335  22.865  34.285   6.227
 4234POPC   C2B56336  22.610  34.213   6.607
 4234POPC   C3B56337  22.708  34.220   7.029
 4234POPC   C4B56338  22.852  34.045   7.398
 4235POPC   NC356339  26.406   3.460   5.422
 4235POPC   PO456340  25.779   3.395   5.248
 4235POPC   GL156341  25.985   3.613   5.661
 4235POPC   GL256342  26.248   3.430   5.898
 4235POPC   C1A56343  25.859   3.671   6.118
 4235POPC   D2A56344  26.030   3.560   6.521
 4235POPC   C3A56345  25.839   3.559   6.897
 4235POPC   C4A56346  25.823   3.826   7.234
 4235POPC   C1B56347  26.441   3.338   6.325
 4235POPC   C2B56348  26.418   3.352   6.809
 4235POPC   C3B56349  26.229   3.435   7.220
 4235POPC   C4B56350  26.237   3.288   7.634
 4236POPC   NC356351  41.608  31.142   5.437
 4236POPC   PO456352  41.303  30.544   5.485
 4236POPC   GL156353  41.395  30.556   5.900
 4236POPC   GL256354  41.636  30.767   5.804
 4236POPC   C1A56355  41.442  30.564   6.348
 4236POPC   D2A56356  41.292  30.854   6.626
 4236POPC   C3A56357  41.184  30.627   6.966
 4236POPC   C4A56358  41.385  30.700   7.311
 4236POPC   C1B56359  41.893  30.559   6.092
 4236POPC   C2B56360  41.978  30.615   6.523
 4236POPC   C3B56361  41.737  30.613   6.891
 4236POPC   C4B56362  41.871  30.471   7.277
 4237POPC   NC356363   0.823  26.477   5.571
 4237POPC   PO456364   1.223  27.069   5.441
 4237POPC   GL156365   1.045  26.912   5.835
 4237POPC   GL256366   1.223  26.585   5.863
 4237POPC   C1A56367   0.962  27.097   6.264
 4237POPC   D2A56368   0.897  26.889   6.676
 4237POPC   C3A56369   1.088  27.036   7.051
 4237POPC   C4A56370   1.250  26.879   7.431
 4237POPC   C1B56371   0.954  26.557   6.256
 4237POPC   C2B56372   0.854  26.375   6.686
 4237POPC   C3B56373   1.104  26.502   7.075
 4237POPC   C4B56374   1.529  26.397   7.156
 4238POPC   NC356375  43.280   3.830   5.138
 4238POPC   PO456376  42.869   4.276   5.465
 4238POPC   GL156377  43.011   4.327   5.886
 4238POPC   GL256378  43.347   4.214   5.815
 4238POPC   C1A56379  42.866   4.479   6.319
 4238POPC   D2A56380  42.850   4.479   6.783
 4238POPC   C3A56381  42.878   4.348   7.208
 4238POPC   C4A56382  42.696   4.603   7.532
 4238POPC   C1B56383  43.374   4.447   6.234
 4238POPC   C2B56384  43.379   4.560   6.679
 4238POPC   C3B56385  43.416   4.369   7.096
 4238POPC   C4B56386  43.374   4.374   7.548
 4239POPC   NC356387  33.975   4.858   5.356
 4239POPC   PO456388  33.450   5.147   5.084
 4239POPC   GL156389  33.487   5.057   5.586
 4239POPC   GL256390  33.615   5.368   5.790
 4239POPC   C1A56391  33.534   4.951   6.094
 4239POPC   D2A56392  33.551   4.920   6.608
 4239POPC   C3A56393  33.856   5.007   6.993
 4239POPC   C4A56394  34.201   4.906   7.324
 4239POPC   C1B56395  33.527   5.461   6.252
 4239POPC   C2B56396  33.738   5.432   6.671
 4239POPC   C3B56397  33.546   5.427   7.083
 4239POPC   C4B56398  33.644   5.278   7.516
 4240POPC   NC356399  20.953  36.339   5.498
 4240POPC   PO456400  20.296  35.891   5.511
 4240POPC   GL156401  20.481  36.158   5.770
 4240POPC   GL256402  20.783  35.986   5.800
 4240POPC   C1A56403  20.669  36.357   6.157
 4240POPC   D2A56404  20.783  36.117   6.555
 4240POPC   C3A56405  20.601  36.277   6.925
 4240POPC   C4A56406  20.695  36.514   7.282
 4240POPC   C1B56407  20.566  35.837   6.158
 4240POPC   C2B56408  20.361  35.858   6.546
 4240POPC   C3B56409  20.392  35.791   6.981
 4240POPC   C4B56410  20.697  35.884   7.313
 4241POPC   NC356411   3.736   9.777   5.348
 4241POPC   PO456412   3.141   9.871   5.682
 4241POPC   GL156413   3.573   9.961   5.887
 4241POPC   GL256414   3.941   9.878   5.801
 4241POPC   C1A56415   3.707   9.760   6.310
 4241POPC   D2A56416   3.538   9.494   6.686
 4241POPC   C3A56417   3.435   9.661   7.121
 4241POPC   C4A56418   3.375   9.575   7.573
 4241POPC   C1B56419   4.170   9.934   6.183
 4241POPC   C2B56420   4.091  10.112   6.647
 4241POPC   C3B56421   4.102  10.075   7.113
 4241POPC   C4B56422   3.776   9.935   7.426
 4242POPC   NC356423  42.652  21.917   5.641
 4242POPC   PO456424  42.085  22.217   5.389
 4242POPC   GL156425  42.273  22.251   5.856
 4242POPC   GL256426  42.651  22.290   5.995
 4242POPC   C1A56427  42.270  22.380   6.317
 4242POPC   D2A56428  42.560  22.315   6.648
 4242POPC   C3A56429  42.370  22.090   6.911
 4242POPC   C4A56430  42.075  22.091   7.199
 4242POPC   C1B56431  42.519  21.939   6.292
 4242POPC   C2B56432  42.731  21.818   6.652
 4242POPC   C3B56433  42.657  21.677   7.050
 4242POPC   C4B56434  42.627  22.016   7.335
 4243POPC   NC356435   7.117  17.894   5.488
 4243POPC   PO456436   7.559  17.417   5.379
 4243POPC   GL156437   7.614  17.683   5.761
 4243POPC   GL256438   7.649  17.441   6.035
 4243POPC   C1A56439   7.743  17.916   6.150
 4243POPC   D2A56440   7.756  17.663   6.524
 4243POPC   C3A56441   7.761  17.814   6.956
 4243POPC   C4A56442   7.663  17.627   7.368
 4243POPC   C1B56443   7.273  17.680   6.178
 4243POPC   C2B56444   6.942  17.632   6.517
 4243POPC   C3B56445   6.988  17.424   6.924
 4243POPC   C4B56446   7.294  17.286   7.263
 4244POPC   NC356447  20.701  30.772   4.897
 4244POPC   PO456448  20.302  30.612   5.425
 4244POPC   GL156449  20.418  30.351   5.718
 4244POPC   GL256450  20.756  30.443   5.723
 4244POPC   C1A56451  20.375  30.492   6.112
 4244POPC   D2A56452  20.544  30.547   6.509
 4244POPC   C3A56453  20.394  30.899   6.770
 4244POPC   C4A56454  20.478  30.955   7.223
 4244POPC   C1B56455  20.961  30.569   6.081
 4244POPC   C2B56456  21.030  30.747   6.494
 4244POPC   C3B56457  20.883  30.799   6.901
 4244POPC   C4B56458  20.827  30.574   7.294
 4245POPC   NC356459  13.976   7.128   5.590
 4245POPC   PO456460  13.623   7.661   5.420
 4245POPC   GL156461  13.520   7.403   5.789
 4245POPC   GL256462  13.492   6.999   5.765
 4245POPC   C1A56463  13.349   7.549   6.198
 4245POPC   D2A56464  13.240   7.696   6.628
 4245POPC   C3A56465  13.525   7.581   6.981
 4245POPC   C4A56466  13.470   7.429   7.385
 4245POPC   C1B56467  13.621   7.098   6.197
 4245POPC   C2B56468  13.490   7.247   6.587
 4245POPC   C3B56469  13.371   7.101   6.972
 4245POPC   C4B56470  13.720   6.981   7.161
 4246POPC   NC356471  20.795  33.171   5.277
 4246POPC   PO456472  20.237  32.856   5.436
 4246POPC   GL156473  20.623  32.988   5.721
 4246POPC   GL256474  20.553  33.337   5.707
 4246POPC   C1A56475  20.834  33.203   6.119
 4246POPC   D2A56476  20.949  33.146   6.568
 4246POPC   C3A56477  20.606  33.142   6.888
 4246POPC   C4A56478  20.694  32.891   7.261
 4246POPC   C1B56479  20.318  33.175   6.079
 4246POPC   C2B56480  20.196  33.070   6.511
 4246POPC   C3B56481  20.130  32.832   6.887
 4246POPC   C4B56482  20.210  33.052   7.232
 4247POPC   NC356483   0.922  19.773   5.509
 4247POPC   PO456484   1.599  19.872   5.556
 4247POPC   GL156485   1.287  19.836   5.870
 4247POPC   GL256486   1.138  20.140   5.757
 4247POPC   C1A56487   1.162  19.975   6.272
 4247POPC   D2A56488   1.360  19.998   6.649
 4247POPC   C3A56489   1.162  19.696   6.888
 4247POPC   C4A56490   1.093  19.601   7.296
 4247POPC   C1B56491   0.877  20.365   6.029
 4247POPC   C2B56492   0.711  20.211   6.402
 4247POPC   C3B56493   0.911  20.215   6.787
 4247POPC   C4B56494   0.956  20.090   7.189
 4248POPC   NC356495  15.047  16.570   5.341
 4248POPC   PO456496  15.027  17.131   5.410
 4248POPC   GL156497  14.961  16.865   5.783
 4248POPC   GL256498  15.163  16.560   5.839
 4248POPC   C1A56499  15.167  16.920   6.212
 4248POPC   D2A56500  15.300  17.139   6.602
 4248POPC   C3A56501  15.364  16.895   6.985
 4248POPC   C4A56502  15.598  16.937   7.387
 4248POPC   C1B56503  14.880  16.445   6.188
 4248POPC   C2B56504  14.824  16.467   6.658
 4248POPC   C3B56505  15.039  16.419   7.077
 4248POPC   C4B56506  15.047  16.322   7.550
 4249POPC   NC356507  23.901   0.365   5.465
 4249POPC   PO456508  23.300   0.375   5.168
 4249POPC   GL156509  23.416   0.289   5.703
 4249POPC   GL256510  23.715   0.193   5.883
 4249POPC   C1A56511  23.393   0.275   6.243
 4249POPC   D2A56512  23.230   0.334   6.690
 4249POPC   C3A56513  23.564   0.363   7.003
 4249POPC   C4A56514  24.036   0.286   7.004
 4249POPC   C1B56515  23.729   0.624   6.088
 4249POPC   C2B56516  23.692   0.636   6.548
 4249POPC   C3B56517  23.795   0.809   6.940
 4249POPC   C4B56518  24.086   0.700   7.302
 4250POPC   NC356519  29.983  29.746   5.346
 4250POPC   PO456520  29.880  30.449   5.358
 4250POPC   GL156521  29.846  30.238   5.814
 4250POPC   GL256522  29.679  29.883   5.779
 4250POPC   C1A56523  30.060  30.238   6.257
 4250POPC   D2A56524  30.388  29.933   6.465
 4250POPC   C3A56525  30.373  29.967   6.952
 4250POPC   C4A56526  30.085  29.882   7.341
 4250POPC   C1B56527  29.738  29.865   6.240
 4250POPC   C2B56528  29.906  29.924   6.661
 4250POPC   C3B56529  29.718  29.729   6.999
 4250POPC   C4B56530  29.502  29.715   7.363
 4251POPC   NC356531   9.758   3.985   5.523
 4251POPC   PO456532   9.458   3.363   5.277
 4251POPC   GL156533   9.640   3.502   5.700
 4251POPC   GL256534   9.455   3.780   5.868
 4251POPC   C1A56535   9.580   3.412   6.181
 4251POPC   D2A56536   9.441   3.634   6.564
 4251POPC   C3A56537   9.647   3.480   6.944
 4251POPC   C4A56538   9.782   3.310   7.347
 4251POPC   C1B56539   9.769   3.921   6.196
 4251POPC   C2B56540  10.035   4.012   6.552
 4251POPC   C3B56541   9.806   3.995   6.922
 4251POPC   C4B56542   9.893   3.793   7.302
 4252POPC   NC356543  22.940  32.303   5.198
 4252POPC   PO456544  23.221  31.630   5.232
 4252POPC   GL156545  23.062  31.906   5.617
 4252POPC   GL256546  23.087  32.285   5.691
 4252POPC   C1A56547  22.960  31.990   6.084
 4252POPC   D2A56548  22.937  31.868   6.534
 4252POPC   C3A56549  22.960  32.117   6.909
 4252POPC   C4A56550  23.095  31.981   7.310
 4252POPC   C1B56551  23.087  32.508   6.112
 4252POPC   C2B56552  23.251  32.523   6.561
 4252POPC   C3B56553  23.200  32.673   6.999
 4252POPC   C4B56554  23.012  32.483   7.378
 4253POPC   NC356555  42.102   6.050   5.416
 4253POPC   PO456556  42.682   5.821   5.386
 4253POPC   GL156557  42.646   5.958   5.824
 4253POPC   GL256558  42.323   5.810   5.832
 4253POPC   C1A56559  42.468   6.001   6.271
 4253POPC   D2A56560  42.311   6.041   6.706
 4253POPC   C3A56561  42.543   5.841   7.012
 4253POPC   C4A56562  42.738   5.970   7.386
 4253POPC   C1B56563  42.050   5.678   6.207
 4253POPC   C2B56564  41.924   5.696   6.622
 4253POPC   C3B56565  42.057   5.687   7.052
 4253POPC   C4B56566  42.238   5.824   7.438
 4254POPC   NC356567  42.437  15.343   4.977
 4254POPC   PO456568  42.408  15.988   5.292
 4254POPC   GL156569  42.258  16.069   5.712
 4254POPC   GL256570  42.047  15.807   5.819
 4254POPC   C1A56571  42.318  16.235   6.115
 4254POPC   D2A56572  42.652  16.169   6.427
 4254POPC   C3A56573  42.491  16.076   6.840
 4254POPC   C4A56574  42.471  16.296   7.218
 4254POPC   C1B56575  42.007  15.533   6.193
 4254POPC   C2B56576  42.119  15.572   6.606
 4254POPC   C3B56577  42.246  15.612   6.992
 4254POPC   C4B56578  42.213  15.866   7.284
 4255POPC   NC356579  10.428  29.025   5.380
 4255POPC   PO456580  10.290  29.711   5.491
 4255POPC   GL156581  10.490  29.384   5.804
 4255POPC   GL256582  10.392  29.002   5.873
 4255POPC   C1A56583  10.625  29.370   6.255
 4255POPC   D2A56584  10.788  29.097   6.630
 4255POPC   C3A56585  10.609  29.174   7.055
 4255POPC   C4A56586  10.538  29.463   7.418
 4255POPC   C1B56587  10.548  28.855   6.245
 4255POPC   C2B56588  10.498  28.637   6.612
 4255POPC   C3B56589  10.661  28.644   7.014
 4255POPC   C4B56590  10.421  28.763   7.316
 4256POPC   NC356591  34.963  26.711   5.664
 4256POPC   PO456592  35.590  26.805   5.367
 4256POPC   GL156593  35.480  26.829   5.792
 4256POPC   GL256594  35.650  27.155   5.812
 4256POPC   C1A56595  35.450  26.624   6.218
 4256POPC   D2A56596  35.535  26.695   6.655
 4256POPC   C3A56597  35.174  26.855   6.900
 4256POPC   C4A56598  34.907  26.860   7.283
 4256POPC   C1B56599  35.501  27.129   6.233
 4256POPC   C2B56600  35.421  27.238   6.638
 4256POPC   C3B56601  35.620  27.203   7.005
 4256POPC   C4B56602  35.353  27.075   7.344
 4257POPC   NC356603  26.498  25.812   5.546
 4257POPC   PO456604  26.749  25.146   5.448
 4257POPC   GL156605  26.857  25.317   5.854
 4257POPC   GL256606  26.895  25.681   5.860
 4257POPC   C1A56607  26.984  25.256   6.293
 4257POPC   D2A56608  27.112  25.337   6.746
 4257POPC   C3A56609  26.903  25.014   7.018
 4257POPC   C4A56610  26.743  24.939   7.432
 4257POPC   C1B56611  26.609  25.608   6.218
 4257POPC   C2B56612  26.623  25.364   6.641
 4257POPC   C3B56613  26.726  25.483   7.066
 4257POPC   C4B56614  26.444  25.600   7.378
 4258POPC   NC356615  32.613  27.670   5.247
 4258POPC   PO456616  33.236  27.874   5.369
 4258POPC   GL156617  33.063  27.806   5.768
 4258POPC   GL256618  32.996  27.439   5.812
 4258POPC   C1A56619  33.134  27.708   6.208
 4258POPC   D2A56620  33.021  27.519   6.596
 4258POPC   C3A56621  32.804  27.729   6.920
 4258POPC   C4A56622  32.963  27.966   7.251
 4258POPC   C1B56623  32.842  27.214   6.180
 4258POPC   C2B56624  32.801  27.065   6.612
 4258POPC   C3B56625  32.601  27.245   6.964
 4258POPC   C4B56626  32.719  27.408   7.362
 4259POPC   NC356627  10.555  42.376   5.581
 4259POPC   PO456628  10.288  41.789   5.490
 4259POPC   GL156629  10.248  42.079   5.900
 4259POPC   GL256630  10.093  42.410   5.883
 4259POPC   C1A56631  10.515  42.372   6.231
 4259POPC   D2A56632  10.795  42.215   6.598
 4259POPC   C3A56633  10.817  42.438   6.996
 4259POPC   C4A56634  10.576  42.350   7.400
 4259POPC   C1B56635  10.111  42.685   6.247
 4259POPC   C2B56636  10.358  42.634   6.646
 4259POPC   C3B56637  10.322  42.317   6.949
 4259POPC   C4B56638  10.080  42.437   7.293
 4260POPC   NC356639  39.571  24.667   5.310
 4260POPC   PO456640  39.552  24.102   5.713
 4260POPC   GL156641  39.268  24.359   5.934
 4260POPC   GL256642  39.209  24.618   5.725
 4260POPC   C1A56643  39.174  24.435   6.358
 4260POPC   D2A56644  39.477  24.273   6.650
 4260POPC   C3A56645  39.364  24.421   7.034
 4260POPC   C4A56646  39.125  24.206   7.357
 4260POPC   C1B56647  39.013  24.848   6.067
 4260POPC   C2B56648  38.845  24.863   6.491
 4260POPC   C3B56649  38.861  25.070   6.879
 4260POPC   C4B56650  39.052  24.820   7.209
 4261POPC   NC356651   3.150  17.332   5.464
 4261POPC   PO456652   3.851  17.618   5.465
 4261POPC   GL156653   3.783  17.533   5.882
 4261POPC   GL256654   3.710  17.879   5.961
 4261POPC   C1A56655   3.776  17.553   6.347
 4261POPC   D2A56656   3.593  17.819   6.672
 4261POPC   C3A56657   3.646  17.575   7.034
 4261POPC   C4A56658   3.963  17.321   7.176
 4261POPC   C1B56659   3.326  17.729   6.162
 4261POPC   C2B56660   3.083  17.762   6.562
 4261POPC   C3B56661   3.180  17.790   7.012
 4261POPC   C4B56662   3.128  17.525   7.364
 4262POPC   NC356663  14.168  26.990   5.195
 4262POPC   PO456664  14.790  26.775   5.334
 4262POPC   GL156665  14.439  26.921   5.637
 4262POPC   GL256666  14.181  26.692   5.821
 4262POPC   C1A56667  14.401  27.143   6.028
 4262POPC   D2A56668  14.509  26.980   6.438
 4262POPC   C3A56669  14.433  27.111   6.850
 4262POPC   C4A56670  14.406  26.944   7.263
 4262POPC   C1B56671  14.394  26.514   6.221
 4262POPC   C2B56672  14.456  26.549   6.697
 4262POPC   C3B56673  14.366  26.453   7.113
 4262POPC   C4B56674  14.620  26.480   7.442
 4263POPC   NC356675   5.333   9.204   5.462
 4263POPC   PO456676   4.842   8.755   5.562
 4263POPC   GL156677   5.052   8.944   5.868
 4263POPC   GL256678   5.349   8.850   5.847
 4263POPC   C1A56679   5.032   8.946   6.328
 4263POPC   D2A56680   4.986   9.034   6.763
 4263POPC   C3A56681   4.942   8.750   7.050
 4263POPC   C4A56682   4.968   8.967   7.433
 4263POPC   C1B56683   5.536   8.897   6.251
 4263POPC   C2B56684   5.494   9.077   6.652
 4263POPC   C3B56685   5.394   9.010   7.110
 4263POPC   C4B56686   5.446   9.081   7.571
 4264POPC   NC356687  24.162  15.555   5.442
 4264POPC   PO456688  23.897  14.920   5.434
 4264POPC   GL156689  23.845  15.206   5.782
 4264POPC   GL256690  23.978  15.525   5.898
 4264POPC   C1A56691  23.719  15.107   6.199
 4264POPC   D2A56692  23.503  15.071   6.612
 4264POPC   C3A56693  23.610  15.162   7.036
 4264POPC   C4A56694  23.735  15.065   7.460
 4264POPC   C1B56695  24.151  15.436   6.274
 4264POPC   C2B56696  23.902  15.439   6.618
 4264POPC   C3B56697  23.887  15.584   7.026
 4264POPC   C4B56698  24.064  15.477   7.421
 4265POPC   NC356699  27.068   1.086   5.484
 4265POPC   PO456700  26.538   1.455   5.239
 4265POPC   GL156701  26.624   1.388   5.720
 4265POPC   GL256702  26.935   1.245   5.935
 4265POPC   C1A56703  26.493   1.255   6.159
 4265POPC   D2A56704  26.722   1.042   6.452
 4265POPC   C3A56705  26.572   1.097   6.870
 4265POPC   C4A56706  26.742   1.056   7.268
 4265POPC   C1B56707  27.184   1.359   6.317
 4265POPC   C2B56708  27.227   1.365   6.794
 4265POPC   C3B56709  27.215   1.399   7.265
 4265POPC   C4B56710  27.287   1.453   7.755
 4266POPC   NC356711  39.748  41.351   5.310
 4266POPC   PO456712  39.086  41.628   5.351
 4266POPC   GL156713  39.261  41.597   5.749
 4266POPC   GL256714  39.557  41.368   5.800
 4266POPC   C1A56715  39.116  41.678   6.166
 4266POPC   D2A56716  39.051  41.506   6.569
 4266POPC   C3A56717  39.147  41.638   6.975
 4266POPC   C4A56718  39.063  41.749   7.402
 4266POPC   C1B56719  39.719  41.306   6.226
 4266POPC   C2B56720  39.515  41.324   6.649
 4266POPC   C3B56721  39.416  41.125   7.011
 4266POPC   C4B56722  39.624  41.008   7.382
 4267POPC   NC356723  42.595  12.243   5.503
 4267POPC   PO456724  41.895  12.325   5.325
 4267POPC   GL156725  42.108  12.172   5.708
 4267POPC   GL256726  42.342  12.418   5.913
 4267POPC   C1A56727  42.041  12.097   6.146
 4267POPC   D2A56728  42.330  12.255   6.461
 4267POPC   C3A56729  42.364  12.168   6.894
 4267POPC   C4A56730  42.173  11.925   7.248
 4267POPC   C1B56731  42.644  12.073   6.111
 4267POPC   C2B56732  42.659  11.812   6.482
 4267POPC   C3B56733  42.793  11.896   6.914
 4267POPC   C4B56734  42.645  11.743   7.307
 4268POPC   NC356735  28.978  44.333   5.375
 4268POPC   PO456736  28.968  43.729   5.129
 4268POPC   GL156737  29.101  43.785   5.587
 4268POPC   GL256738  28.894  43.996   5.794
 4268POPC   C1A56739  29.117  43.570   6.024
 4268POPC   D2A56740  28.939  43.621   6.465
 4268POPC   C3A56741  29.186  43.636   6.874
 4268POPC   C4A56742  29.424  44.003   7.003
 4268POPC   C1B56743  28.702  44.194   6.163
 4268POPC   C2B56744  28.668  44.123   6.599
 4268POPC   C3B56745  28.875  44.141   6.993
 4268POPC   C4B56746  28.643  44.205   7.368
 4269POPC   NC356747  31.800  36.381   5.535
 4269POPC   PO456748  32.419  36.131   5.287
 4269POPC   GL156749  32.175  36.002   5.680
 4269POPC   GL256750  31.929  35.722   5.601
 4269POPC   C1A56751  32.170  36.076   6.188
 4269POPC   D2A56752  32.367  36.005   6.620
 4269POPC   C3A56753  32.491  36.159   7.036
 4269POPC   C4A56754  32.107  36.301   7.184
 4269POPC   C1B56755  32.065  35.620   6.008
 4269POPC   C2B56756  32.099  35.592   6.443
 4269POPC   C3B56757  32.180  35.563   6.869
 4269POPC   C4B56758  32.222  35.782   7.227
 4270POPC   NC356759  10.766  44.371   5.465
 4270POPC   PO456760  10.520  43.639   5.418
 4270POPC   GL156761  10.472  43.726   5.809
 4270POPC   GL256762  10.684  44.008   5.828
 4270POPC   C1A56763  10.620  43.664   6.209
 4270POPC   D2A56764  10.630  43.919   6.556
 4270POPC   C3A56765  10.656  43.683   6.905
 4270POPC   C4A56766  10.417  43.629   7.262
 4270POPC   C1B56767  10.629  44.285   6.190
 4270POPC   C2B56768  10.904  44.372   6.580
 4270POPC   C3B56769  10.746  44.204   6.984
 4270POPC   C4B56770  10.848  43.903   7.328
 4271POPC   NC356771   6.505  17.127   5.680
 4271POPC   PO456772   6.622  17.762   5.429
 4271POPC   GL156773   6.666  17.607   5.867
 4271POPC   GL256774   6.330  17.579   5.888
 4271POPC   C1A56775   6.553  17.359   6.294
 4271POPC   D2A56776   6.478  17.511   6.710
 4271POPC   C3A56777   6.510  17.351   7.111
 4271POPC   C4A56778   6.795  17.596   7.360
 4271POPC   C1B56779   6.394  17.852   6.312
 4271POPC   C2B56780   6.298  17.968   6.761
 4271POPC   C3B56781   6.385  17.863   7.215
 4271POPC   C4B56782   6.172  17.949   7.613
 4272POPC   NC356783  21.118   5.926   5.123
 4272POPC   PO456784  20.486   5.922   5.459
 4272POPC   GL156785  20.496   6.153   5.826
 4272POPC   GL256786  20.789   6.032   5.981
 4272POPC   C1A56787  20.403   6.271   6.235
 4272POPC   D2A56788  20.509   6.031   6.600
 4272POPC   C3A56789  20.465   6.166   7.012
 4272POPC   C4A56790  20.719   6.236   7.378
 4272POPC   C1B56791  20.483   5.723   6.194
 4272POPC   C2B56792  20.344   5.537   6.635
 4272POPC   C3B56793  20.433   5.608   7.103
 4272POPC   C4B56794  20.637   5.622   7.521
 4273POPC   NC356795  38.103  39.473   5.545
 4273POPC   PO456796  37.732  39.019   5.156
 4273POPC   GL156797  37.752  39.111   5.674
 4273POPC   GL256798  37.589  38.881   5.902
 4273POPC   C1A56799  37.828  39.259   6.143
 4273POPC   D2A56800  37.754  39.312   6.608
 4273POPC   C3A56801  37.773  39.288   7.078
 4273POPC   C4A56802  37.902  38.936   7.374
 4273POPC   C1B56803  37.433  38.983   6.332
 4273POPC   C2B56804  37.300  39.112   6.764
 4273POPC   C3B56805  37.356  39.012   7.211
 4273POPC   C4B56806  37.472  38.755   7.610
 4274POPC   NC356807  40.217   4.415   5.527
 4274POPC   PO456808  39.609   4.065   5.410
 4274POPC   GL156809  39.935   4.039   5.771
 4274POPC   GL256810  40.313   4.131   5.918
 4274POPC   C1A56811  39.907   4.109   6.210
 4274POPC   D2A56812  39.817   3.886   6.558
 4274POPC   C3A56813  39.835   4.093   6.938
 4274POPC   C4A56814  40.180   4.108   7.176
 4274POPC   C1B56815  40.361   4.481   6.193
 4274POPC   C2B56816  40.356   4.642   6.627
 4274POPC   C3B56817  40.274   4.641   7.094
 4274POPC   C4B56818  40.450   4.755   7.500
 4275POPC   NC356819  26.913  35.555   5.407
 4275POPC   PO456820  26.587  34.993   5.496
 4275POPC   GL156821  26.870  35.129   5.764
 4275POPC   GL256822  26.679  35.429   5.854
 4275POPC   C1A56823  26.988  35.009   6.182
 4275POPC   D2A56824  27.211  34.958   6.584
 4275POPC   C3A56825  26.984  34.988   6.973
 4275POPC   C4A56826  26.842  35.390   7.138
 4275POPC   C1B56827  26.504  35.168   6.206
 4275POPC   C2B56828  26.540  34.974   6.645
 4275POPC   C3B56829  26.384  35.177   7.059
 4275POPC   C4B56830  26.484  35.294   7.514
 4276POPC   NC356831   2.394  31.028   5.575
 4276POPC   PO456832   2.472  31.650   5.225
 4276POPC   GL156833   2.687  31.712   5.640
 4276POPC   GL256834   2.665  31.385   5.792
 4276POPC   C1A56835   2.844  31.754   6.070
 4276POPC   D2A56836   2.565  31.898   6.403
 4276POPC   C3A56837   2.625  31.700   6.793
 4276POPC   C4A56838   2.848  31.794   7.144
 4276POPC   C1B56839   2.631  31.278   6.244
 4276POPC   C2B56840   2.719  31.186   6.673
 4276POPC   C3B56841   2.731  31.289   7.088
 4276POPC   C4B56842   3.006  31.413   7.444
 4277POPC   NC356843  14.149  23.062   5.359
 4277POPC   PO456844  14.796  22.699   5.299
 4277POPC   GL156845  14.549  22.775   5.707
 4277POPC   GL256846  14.398  23.086   5.787
 4277POPC   C1A56847  14.690  22.971   6.156
 4277POPC   D2A56848  14.728  23.149   6.557
 4277POPC   C3A56849  14.573  22.822   6.816
 4277POPC   C4A56850  14.486  22.683   7.217
 4277POPC   C1B56851  14.150  22.829   6.080
 4277POPC   C2B56852  14.075  22.929   6.519
 4277POPC   C3B56853  14.245  23.211   6.816
 4277POPC   C4B56854  14.119  23.259   7.214
 4278POPC   NC356855  38.665  36.274   5.365
 4278POPC   PO456856  38.209  36.669   5.429
 4278POPC   GL156857  38.227  36.315   5.764
 4278POPC   GL256858  38.503  36.071   5.796
 4278POPC   C1A56859  38.182  36.119   6.179
 4278POPC   D2A56860  38.516  36.156   6.481
 4278POPC   C3A56861  38.335  36.079   6.868
 4278POPC   C4A56862  38.441  36.102   7.276
 4278POPC   C1B56863  38.713  35.797   6.086
 4278POPC   C2B56864  38.785  35.690   6.504
 4278POPC   C3B56865  38.837  35.906   6.867
 4278POPC   C4B56866  38.875  35.737   7.267
 4279POPC   NC356867  26.501   0.266   5.410
 4279POPC   PO456868  26.669   0.870   5.620
 4279POPC   GL156869  26.939   0.692   5.911
 4279POPC   GL256870  26.931   0.332   5.838
 4279POPC   C1A56871  26.882   0.553   6.344
 4279POPC   D2A56872  26.755   0.619   6.773
 4279POPC   C3A56873  26.997   0.397   7.055
 4279POPC   C4A56874  27.165   0.526   7.439
 4279POPC   C1B56875  26.513   0.317   6.089
 4279POPC   C2B56876  26.380   0.367   6.540
 4279POPC   C3B56877  26.447   0.251   7.031
 4279POPC   C4B56878  26.740   0.175   7.436
 4280POPC   NC356879  43.791  25.105   5.225
 4280POPC   PO456880  43.855  25.746   5.306
 4280POPC   GL156881  43.867  25.397   5.688
 4280POPC   GL256882  43.544  25.433   5.849
 4280POPC   C1A56883  43.849  25.131   6.156
 4280POPC   D2A56884  43.958  25.005   6.625
 4280POPC   C3A56885  43.655  25.081   6.965
 4280POPC   C4A56886  43.603  25.153   7.407
 4280POPC   C1B56887  43.673  25.611   6.256
 4280POPC   C2B56888  43.803  25.489   6.668
 4280POPC   C3B56889  44.043  25.405   7.057
 4280POPC   C4B56890  44.346  25.485   7.384
 4281POPC   NC356891  27.991   6.438   5.432
 4281POPC   PO456892  27.423   6.867   5.466
 4281POPC   GL156893  27.544   6.509   5.697
 4281POPC   GL256894  27.321   6.627   5.906
 4281POPC   C1A56895  27.658   6.323   6.112
 4281POPC   D2A56896  27.836   6.509   6.496
 4281POPC   C3A56897  27.614   6.456   6.888
 4281POPC   C4A56898  27.610   6.470   7.328
 4281POPC   C1B56899  27.644   6.856   6.161
 4281POPC   C2B56900  27.644   6.953   6.631
 4281POPC   C3B56901  27.709   7.062   7.045
 4281POPC   C4B56902  27.491   6.956   7.405
 4282POPC   NC356903  34.214   1.062   5.547
 4282POPC   PO456904  33.722   1.424   5.519
 4282POPC   GL156905  33.830   1.249   5.910
 4282POPC   GL256906  33.858   0.911   5.922
 4282POPC   C1A56907  34.027   1.246   6.323
 4282POPC   D2A56908  33.761   1.354   6.666
 4282POPC   C3A56909  33.997   1.333   7.042
 4282POPC   C4A56910  34.007   1.320   7.507
 4282POPC   C1B56911  33.638   0.936   6.341
 4282POPC   C2B56912  33.663   0.853   6.800
 4282POPC   C3B56913  33.854   0.898   7.216
 4282POPC   C4B56914  34.305   0.957   7.291
 4283POPC   NC356915  37.187  10.236   5.426
 4283POPC   PO456916  37.794  10.623   5.372
 4283POPC   GL156917  37.646  10.692   5.797
 4283POPC   GL256918  37.881  10.443   5.854
 4283POPC   C1A56919  37.829  10.816   6.195
 4283POPC   D2A56920  38.066  10.798   6.564
 4283POPC   C3A56921  37.837  10.697   6.923
 4283POPC   C4A56922  37.713  10.400   7.184
 4283POPC   C1B56923  37.564  10.275   6.112
 4283POPC   C2B56924  37.520  10.197   6.558
 4283POPC   C3B56925  37.331  10.130   6.967
 4283POPC   C4B56926  37.411  10.098   7.456
 4284POPC   NC356927  13.248  18.276   5.594
 4284POPC   PO456928  12.653  18.474   5.653
 4284POPC   GL156929  12.889  18.392   5.987
 4284POPC   GL256930  12.962  18.031   5.931
 4284POPC   C1A56931  12.662  18.533   6.341
 4284POPC   D2A56932  12.593  18.395   6.722
 4284POPC   C3A56933  12.909  18.600   6.980
 4284POPC   C4A56934  12.841  18.678   7.398
 4284POPC   C1B56935  12.774  18.001   6.330
 4284POPC   C2B56936  12.856  17.940   6.751
 4284POPC   C3B56937  12.804  18.121   7.120
 4284POPC   C4B56938  13.093  18.060   7.415
 4285POPC   NC356939  29.663   2.090   5.245
 4285POPC   PO456940  30.183   1.777   5.525
 4285POPC   GL156941  29.946   2.008   5.872
 4285POPC   GL256942  29.662   2.191   5.768
 4285POPC   C1A56943  29.762   1.958   6.345
 4285POPC   D2A56944  29.729   1.931   6.841
 4285POPC   C3A56945  30.072   1.809   7.161
 4285POPC   C4A56946  30.293   1.615   7.574
 4285POPC   C1B56947  29.790   2.425   6.140
 4285POPC   C2B56948  29.682   2.425   6.550
 4285POPC   C3B56949  29.844   2.454   6.945
 4285POPC   C4B56950  29.776   2.215   7.311
 4286POPC   NC356951  28.836  27.303   5.375
 4286POPC   PO456952  28.995  27.938   5.547
 4286POPC   GL156953  29.001  27.746   5.935
 4286POPC   GL256954  28.909  27.401   5.867
 4286POPC   C1A56955  28.772  27.843   6.313
 4286POPC   D2A56956  28.763  27.995   6.744
 4286POPC   C3A56957  29.055  27.767   7.042
 4286POPC   C4A56958  29.380  27.439   7.091
 4286POPC   C1B56959  28.755  27.325   6.275
 4286POPC   C2B56960  28.749  27.480   6.706
 4286POPC   C3B56961  28.868  27.290   7.084
 4286POPC   C4B56962  28.792  26.870   7.194
 4287POPC   NC356963  41.497  42.919   5.360
 4287POPC   PO456964  41.782  43.595   5.418
 4287POPC   GL156965  41.605  43.241   5.767
 4287POPC   GL256966  41.340  42.954   5.822
 4287POPC   C1A56967  41.667  43.047   6.201
 4287POPC   D2A56968  41.856  43.191   6.609
 4287POPC   C3A56969  41.631  43.387   6.953
 4287POPC   C4A56970  41.753  43.196   7.351
 4287POPC   C1B56971  41.256  42.684   6.175
 4287POPC   C2B56972  41.402  42.661   6.578
 4287POPC   C3B56973  41.534  42.880   6.941
 4287POPC   C4B56974  41.390  42.775   7.330
 4288POPC   NC356975   9.119  35.564   5.674
 4288POPC   PO456976   8.788  36.013   5.337
 4288POPC   GL156977   8.849  36.079   5.761
 4288POPC   GL256978   9.205  36.064   5.801
 4288POPC   C1A56979   8.661  36.203   6.174
 4288POPC   D2A56980   8.538  36.024   6.596
 4288POPC   C3A56981   8.688  36.137   7.034
 4288POPC   C4A56982   8.762  36.123   7.549
 4288POPC   C1B56983   9.505  35.855   6.103
 4288POPC   C2B56984   9.386  35.713   6.510
 4288POPC   C3B56985   9.444  35.850   6.932
 4288POPC   C4B56986   9.166  36.133   7.182
 4289POPC   NC356987  33.688  29.320   5.378
 4289POPC   PO456988  34.244  28.970   5.371
 4289POPC   GL156989  33.952  29.057   5.722
 4289POPC   GL256990  34.128  29.317   5.740
 4289POPC   C1A56991  33.745  29.103   6.130
 4289POPC   D2A56992  33.565  29.056   6.558
 4289POPC   C3A56993  33.727  28.968   6.952
 4289POPC   C4A56994  33.844  29.135   7.345
 4289POPC   C1B56995  34.109  29.459   6.139
 4289POPC   C2B56996  33.893  29.469   6.521
 4289POPC   C3B56997  34.045  29.385   6.925
 4289POPC   C4B56998  34.003  29.615   7.289
 4290POPC   NC356999  28.401  29.334   5.470
 4290POPC   PO457000  28.388  28.673   5.430
 4290POPC   GL157001  28.304  28.885   5.798
 4290POPC   GL257002  28.023  29.147   5.763
 4290POPC   C1A57003  28.398  28.818   6.221
 4290POPC   D2A57004  28.491  29.108   6.531
 4290POPC   C3A57005  28.446  28.880   6.901
 4290POPC   C4A57006  28.450  29.032   7.284
 4290POPC   C1B57007  28.159  29.270   6.154
 4290POPC   C2B57008  27.985  29.242   6.563
 4290POPC   C3B57009  28.197  29.355   6.923
 4290POPC   C4B57010  28.206  29.469   7.325
 4291POPC   NC357011   6.493  20.105   5.585
 4291POPC   PO457012   6.726  19.588   5.178
 4291POPC   GL157013   6.719  19.654   5.722
 4291POPC   GL257014   6.938  19.921   5.884
 4291POPC   C1A57015   6.565  19.742   6.188
 4291POPC   D2A57016   6.376  19.754   6.595
 4291POPC   C3A57017   6.480  19.567   6.997
 4291POPC   C4A57018   6.651  19.797   7.373
 4291POPC   C1B57019   7.008  19.918   6.338
 4291POPC   C2B57020   6.921  19.698   6.737
 4291POPC   C3B57021   7.025  19.493   7.159
 4291POPC   C4B57022   7.028  19.550   7.653
 4292POPC   NC357023  10.965  43.604   5.557
 4292POPC   PO457024  11.222  44.238   5.454
 4292POPC   GL157025  11.228  43.979   5.800
 4292POPC   GL257026  11.461  43.684   5.680
 4292POPC   C1A57027  11.058  43.980   6.220
 4292POPC   D2A57028  11.355  43.991   6.568
 4292POPC   C3A57029  11.235  43.916   7.005
 4292POPC   C4A57030  11.320  44.030   7.479
 4292POPC   C1B57031  11.402  43.609   6.124
 4292POPC   C2B57032  11.524  43.498   6.543
 4292POPC   C3B57033  11.590  43.488   6.982
 4292POPC   C4B57034  11.327  43.544   7.347
 4293POPC   NC357035   5.368  38.864   5.611
 4293POPC   PO457036   5.904  38.592   5.316
 4293POPC   GL157037   5.863  38.490   5.731
 4293POPC   GL257038   5.603  38.236   5.720
 4293POPC   C1A57039   5.996  38.586   6.150
 4293POPC   D2A57040   5.833  38.452   6.528
 4293POPC   C3A57041   6.003  38.516   6.909
 4293POPC   C4A57042   5.934  38.551   7.351
 4293POPC   C1B57043   5.772  38.117   6.117
 4293POPC   C2B57044   5.524  38.060   6.490
 4293POPC   C3B57045   5.669  38.085   6.912
 4293POPC   C4B57046   5.392  38.122   7.222
 4294POPC   NC357047  40.785   3.716   5.470
 4294POPC   PO457048  40.464   3.212   5.713
 4294POPC   GL157049  40.765   3.440   5.885
 4294POPC   GL257050  41.096   3.358   5.758
 4294POPC   C1A57051  40.934   3.630   6.212
 4294POPC   D2A57052  40.713   3.690   6.565
 4294POPC   C3A57053  40.867   3.607   6.914
 4294POPC   C4A57054  40.779   3.816   7.272
 4294POPC   C1B57055  41.035   3.076   6.110
 4294POPC   C2B57056  41.058   3.184   6.526
 4294POPC   C3B57057  40.975   3.077   6.901
 4294POPC   C4B57058  40.895   3.265   7.271
 4295POPC   NC357059  28.838  42.580   5.331
 4295POPC   PO457060  29.403  42.079   5.440
 4295POPC   GL157061  29.441  42.364   5.799
 4295POPC   GL257062  29.085  42.442   5.846
 4295POPC   C1A57063  29.354  42.326   6.253
 4295POPC   D2A57064  29.039  42.258   6.558
 4295POPC   C3A57065  29.284  42.246   6.877
 4295POPC   C4A57066  29.236  42.130   7.282
 4295POPC   C1B57067  29.038  42.704   6.228
 4295POPC   C2B57068  29.219  42.710   6.636
 4295POPC   C3B57069  29.033  42.640   7.048
 4295POPC   C4B57070  28.881  42.841   7.412
 4296POPC   NC357071   8.269  41.049   5.532
 4296POPC   PO457072   7.920  40.469   5.282
 4296POPC   GL157073   7.982  40.582   5.762
 4296POPC   GL257074   8.141  40.848   5.960
 4296POPC   C1A57075   8.128  40.399   6.188
 4296POPC   D2A57076   8.491  40.438   6.489
 4296POPC   C3A57077   8.353  40.414   6.908
 4296POPC   C4A57078   8.294  40.568   7.316
 4296POPC   C1B57079   8.018  41.123   6.273
 4296POPC   C2B57080   8.216  41.091   6.651
 4296POPC   C3B57081   8.350  40.994   7.040
 4296POPC   C4B57082   8.050  41.046   7.342
 4297POPC   NC357083  13.338   1.596   5.499
 4297POPC   PO457084  13.309   0.917   5.430
 4297POPC   GL157085  13.492   1.001   5.841
 4297POPC   GL257086  13.779   0.784   5.848
 4297POPC   C1A57087  13.440   1.212   6.270
 4297POPC   D2A57088  13.709   1.282   6.641
 4297POPC   C3A57089  13.583   1.423   7.052
 4297POPC   C4A57090  13.410   1.196   7.398
 4297POPC   C1B57091  13.608   0.698   6.249
 4297POPC   C2B57092  13.576   0.764   6.684
 4297POPC   C3B57093  13.722   0.915   7.087
 4297POPC   C4B57094  13.768   0.829   7.545
 4298POPC   NC357095  36.012  15.999   5.351
 4298POPC   PO457096  36.728  15.887   5.313
 4298POPC   GL157097  36.442  15.921   5.718
 4298POPC   GL257098  36.062  15.898   5.837
 4298POPC   C1A57099  36.387  15.936   6.193
 4298POPC   D2A57100  36.150  15.982   6.540
 4298POPC   C3A57101  36.332  16.000   6.916
 4298POPC   C4A57102  36.130  15.980   7.310
 4298POPC   C1B57103  35.958  16.239   6.133
 4298POPC   C2B57104  35.934  16.451   6.541
 4298POPC   C3B57105  35.907  16.286   6.933
 4298POPC   C4B57106  35.590  16.149   7.185
 4299POPC   NC357107  32.638  12.106   5.561
 4299POPC   PO457108  33.079  11.864   5.189
 4299POPC   GL157109  33.023  11.849   5.782
 4299POPC   GL257110  33.079  11.569   5.962
 4299POPC   C1A57111  33.097  12.042   6.238
 4299POPC   D2A57112  33.169  12.317   6.638
 4299POPC   C3A57113  32.928  12.306   7.033
 4299POPC   C4A57114  32.952  12.259   7.507
 4299POPC   C1B57115  32.758  11.673   6.309
 4299POPC   C2B57116  32.859  11.861   6.723
 4299POPC   C3B57117  33.214  11.857   7.055
 4299POPC   C4B57118  33.345  11.917   7.511
 4300POPC   NC357119  32.639  15.351   5.381
 4300POPC   PO457120  33.080  14.885   5.372
 4300POPC   GL157121  32.994  15.177   5.744
 4300POPC   GL257122  33.303  15.169   5.964
 4300POPC   C1A57123  32.764  15.203   6.153
 4300POPC   D2A57124  32.817  15.402   6.575
 4300POPC   C3A57125  32.850  15.153   6.957
 4300POPC   C4A57126  32.773  14.974   7.377
 4300POPC   C1B57127  33.343  14.807   6.271
 4300POPC   C2B57128  33.477  14.784   6.740
 4300POPC   C3B57129  33.244  14.832   7.161
 4300POPC   C4B57130  33.254  15.020   7.585
 4301POPC   NC357131   1.761   5.340   5.596
 4301POPC   PO457132   2.364   5.497   5.400
 4301POPC   GL157133   2.224   5.408   5.820
 4301POPC   GL257134   2.349   5.063   5.868
 4301POPC   C1A57135   2.013   5.262   6.237
 4301POPC   D2A57136   2.039   5.243   6.699
 4301POPC   C3A57137   1.725   5.200   7.029
 4301POPC   C4A57138   1.496   5.318   7.406
 4301POPC   C1B57139   2.413   4.932   6.308
 4301POPC   C2B57140   2.455   4.922   6.762
 4301POPC   C3B57141   2.248   5.053   7.118
 4301POPC   C4B57142   2.081   5.398   7.357
 4302POPC   NC357143  33.713  16.974   5.551
 4302POPC   PO457144  33.882  16.333   5.564
 4302POPC   GL157145  33.665  16.519   5.912
 4302POPC   GL257146  33.411  16.782   5.897
 4302POPC   C1A57147  33.551  16.553   6.339
 4302POPC   D2A57148  33.742  16.829   6.650
 4302POPC   C3A57149  33.801  16.688   7.069
 4302POPC   C4A57150  33.509  16.690   7.402
 4302POPC   C1B57151  33.552  17.086   6.202
 4302POPC   C2B57152  33.580  17.317   6.590
 4302POPC   C3B57153  33.609  17.177   7.013
 4302POPC   C4B57154  33.251  17.128   7.259
 4303POPC   NC357155  41.670  22.067   5.527
 4303POPC   PO457156  41.397  22.653   5.419
 4303POPC   GL157157  41.326  22.389   5.754
 4303POPC   GL257158  41.173  22.053   5.664
 4303POPC   C1A57159  41.591  22.392   6.138
 4303POPC   D2A57160  41.796  22.226   6.518
 4303POPC   C3A57161  41.647  22.398   6.887
 4303POPC   C4A57162  41.569  22.225   7.269
 4303POPC   C1B57163  41.318  21.825   6.082
 4303POPC   C2B57164  41.375  21.820   6.547
 4303POPC   C3B57165  41.626  21.821   6.938
 4303POPC   C4B57166  41.341  21.780   7.291
 4304POPC   NC357167  19.751  32.824   5.398
 4304POPC   PO457168  19.735  33.528   5.406
 4304POPC   GL157169  19.687  33.175   5.763
 4304POPC   GL257170  19.485  32.826   5.824
 4304POPC   C1A57171  19.828  32.984   6.147
 4304POPC   D2A57172  19.626  33.044   6.521
 4304POPC   C3A57173  19.820  33.234   6.833
 4304POPC   C4A57174  19.758  33.299   7.257
 4304POPC   C1B57175  19.358  32.688   6.256
 4304POPC   C2B57176  19.359  32.670   6.751
 4304POPC   C3B57177  19.618  32.830   7.093
 4304POPC   C4B57178  19.895  32.700   7.416
 4305POPC   NC357179  21.851   5.685   5.520
 4305POPC   PO457180  22.227   6.248   5.452
 4305POPC   GL157181  22.260   5.985   5.834
 4305POPC   GL257182  22.436   5.667   5.836
 4305POPC   C1A57183  22.043   5.841   6.218
 4305POPC   D2A57184  21.873   5.964   6.626
 4305POPC   C3A57185  22.088   5.800   6.976
 4305POPC   C4A57186  21.862   5.628   7.286
 4305POPC   C1B57187  22.402   5.478   6.270
 4305POPC   C2B57188  22.533   5.620   6.702
 4305POPC   C3B57189  22.577   5.743   7.138
 4305POPC   C4B57190  22.399   6.035   7.462
 4306POPC   NC357191  11.520  30.629   5.455
 4306POPC   PO457192  11.016  30.876   5.267
 4306POPC   GL157193  11.125  30.868   5.757
 4306POPC   GL257194  11.439  30.733   5.934
 4306POPC   C1A57195  11.140  31.024   6.214
 4306POPC   D2A57196  11.319  30.836   6.567
 4306POPC   C3A57197  11.257  30.891   7.007
 4306POPC   C4A57198  11.518  30.919   7.427
 4306POPC   C1B57199  11.470  30.435   6.279
 4306POPC   C2B57200  11.494  30.380   6.732
 4306POPC   C3B57201  11.553  30.487   7.173
 4306POPC   C4B57202  11.901  30.603   7.531
 4307POPC   NC357203   0.953   0.081   5.423
 4307POPC   PO457204   1.415  44.591   5.340
 4307POPC   GL157205   1.242  44.683   5.751
 4307POPC   GL257206   0.913  44.828   5.884
 4307POPC   C1A57207   1.428  44.743   6.137
 4307POPC   D2A57208   1.186  44.922   6.486
 4307POPC   C3A57209   1.214  44.728   6.891
 4307POPC   C4A57210   1.372  44.885   7.294
 4307POPC   C1B57211   0.967  44.543   6.249
 4307POPC   C2B57212   0.898  44.365   6.694
 4307POPC   C3B57213   0.821  44.526   7.141
 4307POPC   C4B57214   1.000  44.294   7.509
 4308POPC   NC357215  17.136  25.949   5.482
 4308POPC   PO457216  16.492  25.833   5.396
 4308POPC   GL157217  16.732  25.988   5.808
 4308POPC   GL257218  16.978  25.754   5.937
 4308POPC   C1A57219  16.853  26.186   6.257
 4308POPC   D2A57220  16.796  26.107   6.740
 4308POPC   C3A57221  16.471  26.226   7.055
 4308POPC   C4A57222  16.322  26.287   7.483
 4308POPC   C1B57223  16.612  25.731   6.235
 4308POPC   C2B57224  16.576  25.618   6.670
 4308POPC   C3B57225  16.655  25.741   7.100
 4308POPC   C4B57226  17.004  25.627   7.399
 4309POPC   NC357227  21.079   1.517   5.466
 4309POPC   PO457228  21.724   1.978   5.436
 4309POPC   GL157229  21.466   1.955   5.803
 4309POPC   GL257230  21.663   1.801   6.031
 4309POPC   C1A57231  21.235   2.193   6.147
 4309POPC   D2A57232  21.360   2.365   6.598
 4309POPC   C3A57233  21.360   2.159   7.001
 4309POPC   C4A57234  21.292   2.164   7.428
 4309POPC   C1B57235  21.402   1.776   6.373
 4309POPC   C2B57236  21.360   1.698   6.786
 4309POPC   C3B57237  21.594   1.706   7.180
 4309POPC   C4B57238  21.428   1.545   7.560
 4310POPC   NC357239  41.165  25.291   5.379
 4310POPC   PO457240  40.522  25.494   5.341
 4310POPC   GL157241  40.706  25.375   5.765
 4310POPC   GL257242  40.574  25.627   6.002
 4310POPC   C1A57243  40.937  25.245   6.190
 4310POPC   D2A57244  40.804  25.182   6.659
 4310POPC   C3A57245  41.038  25.143   7.093
 4310POPC   C4A57246  40.988  25.026   7.562
 4310POPC   C1B57247  40.419  25.246   6.187
 4310POPC   C2B57248  40.270  25.139   6.605
 4310POPC   C3B57249  40.425  25.287   6.977
 4310POPC   C4B57250  40.564  25.191   7.342
 4311POPC   NC357251  29.365   5.674   5.568
 4311POPC   PO457252  29.107   6.287   5.338
 4311POPC   GL157253  29.255   6.189   5.769
 4311POPC   GL257254  29.027   5.963   5.852
 4311POPC   C1A57255  29.180   6.265   6.222
 4311POPC   D2A57256  29.376   6.078   6.595
 4311POPC   C3A57257  29.084   6.081   6.900
 4311POPC   C4A57258  29.122   6.035   7.312
 4311POPC   C1B57259  29.279   5.752   6.216
 4311POPC   C2B57260  29.357   5.521   6.609
 4311POPC   C3B57261  29.251   5.591   7.044
 4311POPC   C4B57262  29.128   5.562   7.473
 4312POPC   NC357263  11.029  33.589   5.348
 4312POPC   PO457264  11.375  34.183   4.999
 4312POPC   GL157265  11.442  33.976   5.507
 4312POPC   GL257266  11.213  33.846   5.737
 4312POPC   C1A57267  11.601  33.836   6.021
 4312POPC   D2A57268  11.483  33.872   6.490
 4312POPC   C3A57269  11.634  33.651   6.859
 4312POPC   C4A57270  11.515  33.869   7.202
 4312POPC   C1B57271  11.130  34.045   6.142
 4312POPC   C2B57272  10.959  33.950   6.556
 4312POPC   C3B57273  11.047  33.799   6.930
 4312POPC   C4B57274  10.810  33.706   7.257
 4313POPC   NC357275  41.040  29.407   5.277
 4313POPC   PO457276  41.062  28.752   5.585
 4313POPC   GL157277  40.826  29.084   5.769
 4313POPC   GL257278  40.780  29.450   5.729
 4313POPC   C1A57279  40.726  29.060   6.179
 4313POPC   D2A57280  40.696  29.223   6.564
 4313POPC   C3A57281  40.742  28.979   6.916
 4313POPC   C4A57282  40.506  29.040   7.273
 4313POPC   C1B57283  40.939  29.544   6.170
 4313POPC   C2B57284  40.873  29.698   6.618
 4313POPC   C3B57285  40.739  29.485   7.007
 4313POPC   C4B57286  40.860  29.391   7.449
 4314POPC   NC357287  29.367  36.035   5.382
 4314POPC   PO457288  28.804  35.793   5.251
 4314POPC   GL157289  28.986  35.882   5.686
 4314POPC   GL257290  28.826  36.185   5.813
 4314POPC   C1A57291  29.263  35.838   6.105
 4314POPC   D2A57292  29.400  36.042   6.533
 4314POPC   C3A57293  29.303  35.984   6.971
 4314POPC   C4A57294  29.099  35.840   7.321
 4314POPC   C1B57295  28.975  36.237   6.240
 4314POPC   C2B57296  28.912  36.071   6.652
 4314POPC   C3B57297  28.827  36.231   7.085
 4314POPC   C4B57298  28.568  36.312   7.469
 4315POPC   NC357299   3.838  43.656   5.559
 4315POPC   PO457300   3.378  44.086   5.409
 4315POPC   GL157301   3.400  43.867   5.785
 4315POPC   GL257302   3.693  44.090   5.812
 4315POPC   C1A57303   3.479  43.906   6.233
 4315POPC   D2A57304   3.515  43.693   6.634
 4315POPC   C3A57305   3.399  43.838   7.033
 4315POPC   C4A57306   3.413  43.571   7.363
 4315POPC   C1B57307   3.943  44.085   6.109
 4315POPC   C2B57308   3.875  44.068   6.531
 4315POPC   C3B57309   3.913  44.016   6.964
 4315POPC   C4B57310   3.809  43.923   7.406
 4316POPC   NC357311   2.575   7.595   5.159
 4316POPC   PO457312   2.924   7.224   5.450
 4316POPC   GL157313   2.807   7.434   5.813
 4316POPC   GL257314   3.129   7.512   5.950
 4316POPC   C1A57315   2.745   7.339   6.256
 4316POPC   D2A57316   2.683   7.506   6.672
 4316POPC   C3A57317   2.967   7.335   6.981
 4316POPC   C4A57318   2.673   7.018   7.156
 4316POPC   C1B57319   3.052   7.764   6.346
 4316POPC   C2B57320   2.819   7.989   6.673
 4316POPC   C3B57321   2.876   7.851   7.063
 4316POPC   C4B57322   2.646   7.541   7.309
 4317POPC   NC357323  15.806   1.450   5.289
 4317POPC   PO457324  16.179   0.917   5.415
 4317POPC   GL157325  16.003   1.003   5.808
 4317POPC   GL257326  16.037   1.336   5.728
 4317POPC   C1A57327  15.801   1.186   6.174
 4317POPC   D2A57328  15.628   1.460   6.506
 4317POPC   C3A57329  15.836   1.293   6.891
 4317POPC   C4A57330  15.932   1.090   7.324
 4317POPC   C1B57331  16.247   1.487   6.081
 4317POPC   C2B57332  16.152   1.425   6.493
 4317POPC   C3B57333  16.221   1.624   6.856
 4317POPC   C4B57334  16.153   1.547   7.256
 4318POPC   NC357335  33.296   9.774   5.351
 4318POPC   PO457336  32.622   9.896   5.345
 4318POPC   GL157337  32.728   9.557   5.695
 4318POPC   GL257338  33.082   9.530   5.768
 4318POPC   C1A57339  32.741   9.542   6.160
 4318POPC   D2A57340  32.748   9.938   6.427
 4318POPC   C3A57341  32.965   9.864   6.812
 4318POPC   C4A57342  32.893   9.504   7.082
 4318POPC   C1B57343  33.088   9.936   6.041
 4318POPC   C2B57344  33.329   9.990   6.458
 4318POPC   C3B57345  33.513   9.889   6.869
 4318POPC   C4B57346  33.265   9.857   7.249
 4319POPC   NC357347   6.765  37.718   5.481
 4319POPC   PO457348   6.328  38.178   5.645
 4319POPC   GL157349   6.632  37.997   5.901
 4319POPC   GL257350   6.968  38.114   5.770
 4319POPC   C1A57351   6.605  37.648   6.201
 4319POPC   D2A57352   6.388  37.504   6.590
 4319POPC   C3A57353   6.553  37.662   6.987
 4319POPC   C4A57354   6.658  37.515   7.434
 4319POPC   C1B57355   7.068  37.887   6.165
 4319POPC   C2B57356   6.945  37.736   6.609
 4319POPC   C3B57357   7.041  37.564   7.033
 4319POPC   C4B57358   7.115  37.756   7.446
 4320POPC   NC357359  34.571  10.194   5.648
 4320POPC   PO457360  34.833  10.839   5.529
 4320POPC   GL157361  34.659  10.849   5.946
 4320POPC   GL257362  34.353  10.642   5.957
 4320POPC   C1A57363  34.680  10.619   6.355
 4320POPC   D2A57364  34.499  10.243   6.579
 4320POPC   C3A57365  34.592  10.293   7.014
 4320POPC   C4A57366  34.722  10.285   7.463
 4320POPC   C1B57367  34.125  10.525   6.338
 4320POPC   C2B57368  34.162  10.574   6.789
 4320POPC   C3B57369  34.154  10.475   7.222
 4320POPC   C4B57370  34.332  10.560   7.653
 4321POPC   NC357371   2.278   9.000   5.560
 4321POPC   PO457372   1.584   8.886   5.413
 4321POPC   GL157373   1.751   8.797   5.842
 4321POPC   GL257374   1.972   9.066   5.971
 4321POPC   C1A57375   1.805   8.752   6.323
 4321POPC   D2A57376   1.608   8.610   6.706
 4321POPC   C3A57377   1.761   8.804   7.064
 4321POPC   C4A57378   2.093   8.673   7.255
 4321POPC   C1B57379   2.137   9.173   6.406
 4321POPC   C2B57380   2.163   9.077   6.857
 4321POPC   C3B57381   2.091   9.201   7.276
 4321POPC   C4B57382   2.066   9.350   7.712
 4322POPC   NC357383  34.023  26.931   5.405
 4322POPC   PO457384  33.391  26.790   5.473
 4322POPC   GL157385  33.671  26.708   5.834
 4322POPC   GL257386  33.956  26.920   5.893
 4322POPC   C1A57387  33.678  26.870   6.298
 4322POPC   D2A57388  33.888  27.006   6.679
 4322POPC   C3A57389  33.677  26.837   7.018
 4322POPC   C4A57390  33.547  26.951   7.397
 4322POPC   C1B57391  34.223  26.930   6.247
 4322POPC   C2B57392  34.329  26.732   6.604
 4322POPC   C3B57393  34.155  26.614   6.984
 4322POPC   C4B57394  33.994  26.669   7.426
 4323POPC   NC357395  19.633  43.732   5.235
 4323POPC   PO457396  20.051  43.371   5.621
 4323POPC   GL157397  20.261  43.247   5.973
 4323POPC   GL257398  20.351  42.906   5.842
 4323POPC   C1A57399  20.270  43.336   6.439
 4323POPC   D2A57400  19.968  43.394   6.781
 4323POPC   C3A57401  20.044  43.548   7.177
 4323POPC   C4A57402  19.861  43.365   7.602
 4323POPC   C1B57403  20.231  42.838   6.302
 4323POPC   C2B57404  20.138  42.909   6.755
 4323POPC   C3B57405  19.998  43.041   7.179
 4323POPC   C4B57406  20.035  42.886   7.604
 4324POPC   NC357407  30.457  42.388   5.426
 4324POPC   PO457408  31.058  42.753   5.438
 4324POPC   GL157409  30.780  42.528   5.787
 4324POPC   GL257410  30.784  42.163   5.840
 4324POPC   C1A57411  30.557  42.464   6.201
 4324POPC   D2A57412  30.701  42.404   6.669
 4324POPC   C3A57413  30.458  42.372   7.083
 4324POPC   C4A57414  30.424  42.464   7.555
 4324POPC   C1B57415  30.742  41.975   6.273
 4324POPC   C2B57416  30.577  41.913   6.699
 4324POPC   C3B57417  30.799  41.989   7.072
 4324POPC   C4B57418  30.902  42.321   7.374
 4325POPC   NC357419  41.949   2.452   5.439
 4325POPC   PO457420  42.463   2.786   5.318
 4325POPC   GL157421  42.338   2.795   5.731
 4325POPC   GL257422  42.214   3.130   5.662
 4325POPC   C1A57423  42.467   2.615   6.158
 4325POPC   D2A57424  42.288   2.447   6.569
 4325POPC   C3A57425  42.459   2.654   6.945
 4325POPC   C4A57426  42.707   2.997   7.114
 4325POPC   C1B57427  42.259   3.104   6.124
 4325POPC   C2B57428  42.476   3.023   6.512
 4325POPC   C3B57429  42.291   3.147   6.853
 4325POPC   C4B57430  42.196   3.074   7.262
 4326POPC   NC357431  32.297  28.504   5.384
 4326POPC   PO457432  31.946  27.910   5.446
 4326POPC   GL157433  32.193  28.140   5.795
 4326POPC   GL257434  32.291  28.477   5.876
 4326POPC   C1A57435  32.344  28.099   6.266
 4326POPC   D2A57436  32.168  28.295   6.718
 4326POPC   C3A57437  32.070  28.173   7.191
 4326POPC   C4A57438  32.040  27.993   7.640
 4326POPC   C1B57439  32.066  28.496   6.235
 4326POPC   C2B57440  32.498  28.579   6.457
 4326POPC   C3B57441  32.514  28.695   6.902
 4326POPC   C4B57442  32.242  28.659   7.214
 4327POPC   NC357443  33.331   7.234   5.499
 4327POPC   PO457444  32.728   7.455   5.418
 4327POPC   GL157445  33.041   7.549   5.813
 4327POPC   GL257446  33.201   7.926   5.894
 4327POPC   C1A57447  33.183   7.518   6.224
 4327POPC   D2A57448  33.216   7.645   6.644
 4327POPC   C3A57449  33.163   7.286   6.898
 4327POPC   C4A57450  32.963   7.197   7.273
 4327POPC   C1B57451  32.839   7.922   6.159
 4327POPC   C2B57452  32.758   7.929   6.604
 4327POPC   C3B57453  32.822   7.679   6.977
 4327POPC   C4B57454  33.216   7.715   7.206
 4328POPC   NC357455  37.105  22.655   5.524
 4328POPC   PO457456  36.633  23.113   5.486
 4328POPC   GL157457  36.913  23.074   5.855
 4328POPC   GL257458  37.009  22.741   6.018
 4328POPC   C1A57459  37.146  23.224   6.212
 4328POPC   D2A57460  37.356  23.105   6.593
 4328POPC   C3A57461  37.038  23.107   6.888
 4328POPC   C4A57462  36.739  23.325   7.073
 4328POPC   C1B57463  36.923  22.820   6.447
 4328POPC   C2B57464  36.597  22.870   6.720
 4328POPC   C3B57465  36.636  22.817   7.115
 4328POPC   C4B57466  37.009  22.594   6.996
 4329POPC   NC357467  32.721   4.465   5.584
 4329POPC   PO457468  32.838   3.998   5.148
 4329POPC   GL157469  32.854   3.958   5.655
 4329POPC   GL257470  33.086   4.177   5.835
 4329POPC   C1A57471  32.916   3.847   6.152
 4329POPC   D2A57472  33.240   3.911   6.496
 4329POPC   C3A57473  33.125   3.925   6.956
 4329POPC   C4A57474  32.752   4.061   7.219
 4329POPC   C1B57475  32.904   4.344   6.239
 4329POPC   C2B57476  32.859   4.250   6.675
 4329POPC   C3B57477  33.029   4.447   7.059
 4329POPC   C4B57478  32.935   4.467   7.481
 4330POPC   NC357479  17.516  38.548   5.038
 4330POPC   PO457480  17.765  38.650   5.455
 4330POPC   GL157481  17.723  38.492   5.909
 4330POPC   GL257482  17.834  38.152   5.927
 4330POPC   C1A57483  17.502  38.363   6.311
 4330POPC   D2A57484  17.496  38.222   6.783
 4330POPC   C3A57485  17.544  38.540   7.168
 4330POPC   C4A57486  17.705  38.989   7.207
 4330POPC   C1B57487  17.858  37.948   6.336
 4330POPC   C2B57488  17.893  37.894   6.763
 4330POPC   C3B57489  17.949  38.240   7.039
 4330POPC   C4B57490  17.970  38.406   7.459
 4331POPC   NC357491  34.086  21.401   5.408
 4331POPC   PO457492  33.529  21.703   5.332
 4331POPC   GL157493  33.739  21.536   5.770
 4331POPC   GL257494  34.120  21.495   5.900
 4331POPC   C1A57495  33.762  21.227   6.160
 4331POPC   D2A57496  33.883  21.087   6.593
 4331POPC   C3A57497  33.646  21.159   6.962
 4331POPC   C4A57498  33.721  21.406   7.340
 4331POPC   C1B57499  34.095  21.548   6.377
 4331POPC   C2B57500  33.801  21.601   6.751
 4331POPC   C3B57501  33.532  21.804   7.101
 4331POPC   C4B57502  33.652  21.921   7.547
 4332POPC   NC357503  31.998  16.383   5.334
 4332POPC   PO457504  32.353  15.735   5.407
 4332POPC   GL157505  32.372  16.042   5.730
 4332POPC   GL257506  32.040  16.208   5.816
 4332POPC   C1A57507  32.448  16.258   6.112
 4332POPC   D2A57508  32.240  16.228   6.500
 4332POPC   C3A57509  32.450  15.967   6.777
 4332POPC   C4A57510  32.513  15.993   7.189
 4332POPC   C1B57511  32.042  15.886   6.164
 4332POPC   C2B57512  31.968  15.799   6.640
 4332POPC   C3B57513  31.974  15.902   7.119
 4332POPC   C4B57514  31.895  15.923   7.616
 4333POPC   NC357515   6.667  13.838   5.413
 4333POPC   PO457516   6.434  13.286   5.589
 4333POPC   GL157517   6.761  13.471   5.845
 4333POPC   GL257518   6.852  13.845   5.867
 4333POPC   C1A57519   6.690  13.548   6.261
 4333POPC   D2A57520   6.429  13.467   6.609
 4333POPC   C3A57521   6.522  13.542   7.008
 4333POPC   C4A57522   6.348  13.451   7.382
 4333POPC   C1B57523   6.888  14.020   6.264
 4333POPC   C2B57524   6.881  13.810   6.675
 4333POPC   C3B57525   6.909  13.855   7.107
 4333POPC   C4B57526   6.612  14.033   7.319
 4334POPC   NC357527  43.554  22.347   5.595
 4334POPC   PO457528  44.033  21.891   5.266
 4334POPC   GL157529  44.002  22.015   5.739
 4334POPC   GL257530  44.126  21.711   5.802
 4334POPC   C1A57531  43.910  22.185   6.223
 4334POPC   D2A57532  43.722  22.234   6.664
 4334POPC   C3A57533  44.051  22.275   6.959
 4334POPC   C4A57534  44.222  22.201   7.344
 4334POPC   C1B57535  43.900  21.683   6.156
 4334POPC   C2B57536  43.631  21.757   6.495
 4334POPC   C3B57537  43.716  21.774   6.922
 4334POPC   C4B57538  43.648  22.089   7.229
 4335POPC   NC357539  23.571   7.201   5.408
 4335POPC   PO457540  24.050   7.521   5.580
 4335POPC   GL157541  23.719   7.522   5.859
 4335POPC   GL257542  23.476   7.234   5.899
 4335POPC   C1A57543  23.848   7.476   6.275
 4335POPC   D2A57544  23.819   7.218   6.630
 4335POPC   C3A57545  23.930   7.442   6.959
 4335POPC   C4A57546  23.715   7.595   7.270
 4335POPC   C1B57547  23.361   7.363   6.276
 4335POPC   C2B57548  23.288   7.200   6.640
 4335POPC   C3B57549  23.369   7.388   6.986
 4335POPC   C4B57550  23.320   7.252   7.403
 4336POPC   NC357551  15.259   6.258   5.450
 4336POPC   PO457552  15.109   5.561   5.490
 4336POPC   GL157553  15.320   5.715   5.850
 4336POPC   GL257554  15.103   6.006   5.936
 4336POPC   C1A57555  15.385   5.699   6.290
 4336POPC   D2A57556  15.113   5.985   6.520
 4336POPC   C3A57557  15.122   5.999   6.966
 4336POPC   C4A57558  14.884   5.682   7.186
 4336POPC   C1B57559  15.422   6.200   6.130
 4336POPC   C2B57560  15.564   6.224   6.558
 4336POPC   C3B57561  15.510   6.377   6.958
 4336POPC   C4B57562  15.437   6.159   7.356
 4337POPC   NC357563  28.235   2.455   5.569
 4337POPC   PO457564  28.764   1.994   5.459
 4337POPC   GL157565  28.407   1.931   5.778
 4337POPC   GL257566  28.635   1.924   6.016
 4337POPC   C1A57567  28.243   1.752   6.234
 4337POPC   D2A57568  28.389   2.011   6.600
 4337POPC   C3A57569  28.216   1.981   7.005
 4337POPC   C4A57570  28.141   1.803   7.451
 4337POPC   C1B57571  28.740   2.273   6.309
 4337POPC   C2B57572  28.651   2.455   6.713
 4337POPC   C3B57573  28.855   2.307   7.049
 4337POPC   C4B57574  28.658   1.919   7.241
 4338POPC   NC357575  16.397  18.871   5.319
 4338POPC   PO457576  16.496  19.475   5.485
 4338POPC   GL157577  16.603  19.277   5.877
 4338POPC   GL257578  16.324  19.104   5.815
 4338POPC   C1A57579  16.540  19.081   6.327
 4338POPC   D2A57580  16.483  18.964   6.786
 4338POPC   C3A57581  16.734  19.144   7.170
 4338POPC   C4A57582  16.935  19.380   7.543
 4338POPC   C1B57583  16.195  19.415   6.167
 4338POPC   C2B57584  16.312  19.495   6.624
 4338POPC   C3B57585  16.270  19.333   7.062
 4338POPC   C4B57586  16.424  19.433   7.492
 4339POPC   NC357587   4.098  43.264   5.176
 4339POPC   PO457588   3.478  43.387   5.450
 4339POPC   GL157589   3.675  43.271   5.863
 4339POPC   GL257590   3.487  42.988   5.893
 4339POPC   C1A57591   3.690  43.131   6.321
 4339POPC   D2A57592   3.444  43.184   6.633
 4339POPC   C3A57593   3.615  43.307   6.979
 4339POPC   C4A57594   3.740  42.943   7.151
 4339POPC   C1B57595   3.137  42.981   6.168
 4339POPC   C2B57596   3.059  42.857   6.590
 4339POPC   C3B57597   3.212  42.929   7.021
 4339POPC   C4B57598   3.170  42.671   7.400
 4340POPC   NC357599  22.980  29.142   5.212
 4340POPC   PO457600  23.077  28.507   5.206
 4340POPC   GL157601  22.902  28.943   5.632
 4340POPC   GL257602  23.057  29.337   5.673
 4340POPC   C1A57603  22.951  29.079   6.097
 4340POPC   D2A57604  22.887  29.267   6.511
 4340POPC   C3A57605  22.995  29.043   6.891
 4340POPC   C4A57606  22.851  29.182   7.291
 4340POPC   C1B57607  23.072  29.588   6.095
 4340POPC   C2B57608  23.021  29.751   6.536
 4340POPC   C3B57609  22.955  29.554   6.953
 4340POPC   C4B57610  23.222  29.564   7.272
 4341POPC   NC357611  17.479   9.246   5.458
 4341POPC   PO457612  17.460   8.581   5.297
 4341POPC   GL157613  17.438   8.773   5.729
 4341POPC   GL257614  17.722   8.980   5.841
 4341POPC   C1A57615  17.320   8.990   6.139
 4341POPC   D2A57616  17.421   9.168   6.553
 4341POPC   C3A57617  17.462   8.889   6.910
 4341POPC   C4A57618  17.360   8.974   7.332
 4341POPC   C1B57619  17.818   9.227   6.231
 4341POPC   C2B57620  17.875   9.375   6.683
 4341POPC   C3B57621  17.773   9.254   7.125
 4341POPC   C4B57622  17.771   9.133   7.594
 4342POPC   NC357623  20.997  26.457   5.551
 4342POPC   PO457624  20.342  26.575   5.302
 4342POPC   GL157625  20.439  26.805   5.709
 4342POPC   GL257626  20.788  26.925   5.746
 4342POPC   C1A57627  20.498  26.855   6.174
 4342POPC   D2A57628  20.797  26.669   6.483
 4342POPC   C3A57629  20.676  26.693   6.940
 4342POPC   C4A57630  20.307  26.482   7.148
 4342POPC   C1B57631  20.845  27.247   6.090
 4342POPC   C2B57632  20.804  27.170   6.524
 4342POPC   C3B57633  20.890  27.321   6.936
 4342POPC   C4B57634  20.877  27.048   7.279
 4343POPC   NC357635  44.611   7.819   5.329
 4343POPC   PO457636  44.643   8.503   5.500
 4343POPC   GL157637  44.815   8.217   5.817
 4343POPC   GL257638  44.693   7.886   5.826
 4343POPC   C1A57639  44.770   8.211   6.282
 4343POPC   D2A57640  44.649   8.161   6.730
 4343POPC   C3A57641  44.844   8.360   7.104
 4343POPC   C4A57642  44.959   8.221   7.537
 4343POPC   C1B57643  44.401   7.816   6.156
 4343POPC   C2B57644  44.422   7.677   6.574
 4343POPC   C3B57645  44.348   7.794   6.982
 4343POPC   C4B57646  44.343   8.171   7.165
 4344POPC   NC357647  13.498  23.691   5.153
 4344POPC   PO457648  13.678  22.931   5.295
 4344POPC   GL157649  13.736  22.922   5.744
 4344POPC   GL257650  13.889  23.221   5.785
 4344POPC   C1A57651  13.670  23.046   6.207
 4344POPC   D2A57652  13.450  22.833   6.558
 4344POPC   C3A57653  13.529  22.867   6.988
 4344POPC   C4A57654  13.252  23.014   7.307
 4344POPC   C1B57655  14.118  23.348   6.126
 4344POPC   C2B57656  13.949  23.464   6.481
 4344POPC   C3B57657  13.730  23.310   6.791
 4344POPC   C4B57658  13.624  23.343   7.196
 4345POPC   NC357659   9.597  30.526   5.202
 4345POPC   PO457660  10.079  30.753   5.456
 4345POPC   GL157661   9.806  30.796   5.772
 4345POPC   GL257662   9.544  30.545   5.774
 4345POPC   C1A57663   9.746  30.761   6.209
 4345POPC   D2A57664   9.729  30.485   6.549
 4345POPC   C3A57665   9.856  30.660   6.956
 4345POPC   C4A57666   9.827  31.054   7.156
 4345POPC   C1B57667   9.362  30.262   6.126
 4345POPC   C2B57668   9.209  30.319   6.556
 4345POPC   C3B57669   9.427  30.357   6.930
 4345POPC   C4B57670   9.454  30.606   7.278
 4346POPC   NC357671  41.627  33.615   5.386
 4346POPC   PO457672  41.097  33.898   5.535
 4346POPC   GL157673  41.338  33.570   5.818
 4346POPC   GL257674  41.663  33.704   5.877
 4346POPC   C1A57675  41.431  33.554   6.298
 4346POPC   D2A57676  41.178  33.825   6.571
 4346POPC   C3A57677  41.330  33.966   6.982
 4346POPC   C4A57678  41.555  33.660   7.226
 4346POPC   C1B57679  41.436  34.025   6.137
 4346POPC   C2B57680  41.522  34.208   6.554
 4346POPC   C3B57681  41.606  34.390   6.978
 4346POPC   C4B57682  41.954  34.401   7.280
 4347POPC   NC357683  28.011  20.057   5.495
 4347POPC   PO457684  28.356  19.497   5.544
 4347POPC   GL157685  28.348  19.812   5.825
 4347POPC   GL257686  28.026  19.721   5.911
 4347POPC   C1A57687  28.292  20.042   6.205
 4347POPC   D2A57688  28.219  19.892   6.589
 4347POPC   C3A57689  28.314  20.025   7.002
 4347POPC   C4A57690  28.437  19.691   7.345
 4347POPC   C1B57691  27.908  19.500   6.297
 4347POPC   C2B57692  27.813  19.646   6.711
 4347POPC   C3B57693  27.958  19.716   7.166
 4347POPC   C4B57694  27.916  19.709   7.634
 4348POPC   NC357695  29.507  11.544   5.480
 4348POPC   PO457696  29.702  10.917   5.490
 4348POPC   GL157697  29.748  11.212   5.795
 4348POPC   GL257698  29.404  11.148   5.848
 4348POPC   C1A57699  29.990  11.300   6.162
 4348POPC   D2A57700  30.285  11.199   6.437
 4348POPC   C3A57701  30.213  11.206   6.875
 4348POPC   C4A57702  30.011  11.498   7.132
 4348POPC   C1B57703  29.607  10.940   6.200
 4348POPC   C2B57704  29.849  10.943   6.588
 4348POPC   C3B57705  29.738  11.054   7.016
 4348POPC   C4B57706  29.595  11.126   7.448
 4349POPC   NC357707  31.760  20.648   5.546
 4349POPC   PO457708  31.196  20.553   5.420
 4349POPC   GL157709  31.353  20.516   5.849
 4349POPC   GL257710  31.608  20.283   5.901
 4349POPC   C1A57711  31.310  20.665   6.284
 4349POPC   D2A57712  31.164  20.472   6.681
 4349POPC   C3A57713  31.322  20.612   7.084
 4349POPC   C4A57714  31.638  20.848   7.340
 4349POPC   C1B57715  31.596  20.264   6.364
 4349POPC   C2B57716  31.639  20.308   6.788
 4349POPC   C3B57717  31.739  20.333   7.209
 4349POPC   C4B57718  31.876  20.240   7.605
 4350POPC   NC357719  16.470  13.347   5.498
 4350POPC   PO457720  17.114  13.269   5.430
 4350POPC   GL157721  16.864  13.413   5.838
 4350POPC   GL257722  16.615  13.713   5.834
 4350POPC   C1A57723  16.685  13.476   6.276
 4350POPC   D2A57724  16.384  13.530   6.616
 4350POPC   C3A57725  16.610  13.638   6.997
 4350POPC   C4A57726  17.039  13.643   7.052
 4350POPC   C1B57727  16.668  13.982   6.218
 4350POPC   C2B57728  16.588  14.020   6.662
 4350POPC   C3B57729  16.792  14.100   7.083
 4350POPC   C4B57730  16.807  13.839   7.459
 4351POPC   NC357731  33.931  28.634   5.430
 4351POPC   PO457732  34.089  27.983   5.424
 4351POPC   GL157733  33.799  28.225   5.744
 4351POPC   GL257734  33.861  28.582   5.911
 4351POPC   C1A57735  33.839  28.185   6.204
 4351POPC   D2A57736  33.717  28.141   6.618
 4351POPC   C3A57737  33.801  28.430   6.936
 4351POPC   C4A57738  33.786  28.169   7.287
 4351POPC   C1B57739  33.549  28.640   6.220
 4351POPC   C2B57740  33.391  28.540   6.611
 4351POPC   C3B57741  33.320  28.651   7.035
 4351POPC   C4B57742  33.630  28.672   7.365
 4352POPC   NC357743   4.755  29.588   5.281
 4352POPC   PO457744   5.234  29.200   5.312
 4352POPC   GL157745   5.034  29.138   5.799
 4352POPC   GL257746   4.797  29.390   5.955
 4352POPC   C1A57747   4.852  28.954   6.210
 4352POPC   D2A57748   4.998  29.027   6.634
 4352POPC   C3A57749   4.882  28.943   7.088
 4352POPC   C4A57750   5.193  28.883   7.421
 4352POPC   C1B57751   4.705  29.440   6.424
 4352POPC   C2B57752   4.809  29.439   6.880
 4352POPC   C3B57753   5.024  29.379   7.303
 4352POPC   C4B57754   5.034  29.254   7.783
 4353POPC   NC357755  20.268   7.295   5.278
 4353POPC   PO457756  19.806   7.721   5.628
 4353POPC   GL157757  19.879   7.307   5.780
 4353POPC   GL257758  19.547   7.271   5.887
 4353POPC   C1A57759  19.931   7.111   6.204
 4353POPC   D2A57760  19.890   7.278   6.631
 4353POPC   C3A57761  20.006   7.235   7.049
 4353POPC   C4A57762  20.134   7.631   7.106
 4353POPC   C1B57763  19.659   7.547   6.227
 4353POPC   C2B57764  19.493   7.656   6.586
 4353POPC   C3B57765  19.608   7.600   6.986
 4353POPC   C4B57766  19.330   7.397   7.278
 4354POPC   NC357767  33.327   1.672   5.439
 4354POPC   PO457768  32.842   2.156   5.419
 4354POPC   GL157769  32.990   2.061   5.831
 4354POPC   GL257770  33.289   2.182   5.844
 4354POPC   C1A57771  33.159   1.884   6.244
 4354POPC   D2A57772  33.195   1.687   6.648
 4354POPC   C3A57773  33.345   1.893   7.003
 4354POPC   C4A57774  33.122   1.714   7.367
 4354POPC   C1B57775  33.143   2.401   6.202
 4354POPC   C2B57776  33.328   2.263   6.581
 4354POPC   C3B57777  33.176   2.382   6.955
 4354POPC   C4B57778  33.113   2.244   7.342
 4355POPC   NC357779  28.542  33.623   5.221
 4355POPC   PO457780  29.208  33.650   5.442
 4355POPC   GL157781  28.898  33.758   5.736
 4355POPC   GL257782  28.704  33.490   5.789
 4355POPC   C1A57783  28.956  33.930   6.144
 4355POPC   D2A57784  29.185  33.821   6.527
 4355POPC   C3A57785  28.966  33.968   6.911
 4355POPC   C4A57786  29.053  33.888   7.313
 4355POPC   C1B57787  28.931  33.419   6.168
 4355POPC   C2B57788  29.003  33.317   6.594
 4355POPC   C3B57789  28.977  33.459   7.002
 4355POPC   C4B57790  29.143  33.387   7.409
 4356POPC   NC357791  42.534  13.241   5.520
 4356POPC   PO457792  42.771  12.644   5.688
 4356POPC   GL157793  42.543  12.902   5.914
 4356POPC   GL257794  42.186  13.002   5.879
 4356POPC   C1A57795  42.435  12.754   6.306
 4356POPC   D2A57796  42.238  12.687   6.712
 4356POPC   C3A57797  42.436  12.780   7.099
 4356POPC   C4A57798  42.721  12.722   7.511
 4356POPC   C1B57799  42.042  13.090   6.336
 4356POPC   C2B57800  41.985  13.167   6.765
 4356POPC   C3B57801  42.032  13.188   7.199
 4356POPC   C4B57802  41.885  13.129   7.616
 4357POPC   NC357803  37.767  30.986   5.236
 4357POPC   PO457804  37.202  30.599   5.294
 4357POPC   GL157805  37.488  30.636   5.715
 4357POPC   GL257806  37.850  30.764   5.719
 4357POPC   C1A57807  37.663  30.846   6.167
 4357POPC   D2A57808  37.697  30.620   6.568
 4357POPC   C3A57809  37.746  30.681   7.029
 4357POPC   C4A57810  37.730  30.627   7.490
 4357POPC   C1B57811  38.075  30.578   6.066
 4357POPC   C2B57812  38.330  30.729   6.397
 4357POPC   C3B57813  38.169  30.792   6.784
 4357POPC   C4B57814  38.241  30.687   7.198
 4358POPC   NC357815  10.052  43.725   5.449
 4358POPC   PO457816   9.538  44.162   5.526
 4358POPC   GL157817   9.795  43.964   5.816
 4358POPC   GL257818  10.131  44.150   5.791
 4358POPC   C1A57819   9.728  43.706   6.165
 4358POPC   D2A57820   9.716  43.889   6.571
 4358POPC   C3A57821   9.573  43.668   6.906
 4358POPC   C4A57822   9.395  43.769   7.252
 4358POPC   C1B57823  10.192  43.935   6.195
 4358POPC   C2B57824  10.179  43.600   6.502
 4358POPC   C3B57825  10.052  43.485   6.917
 4358POPC   C4B57826   9.915  43.732   7.279
 4359POPC   NC357827  31.183  12.131   5.649
 4359POPC   PO457828  30.676  11.975   5.150
 4359POPC   GL157829  30.628  12.101   5.607
 4359POPC   GL257830  30.748  11.819   5.757
 4359POPC   C1A57831  30.632  12.191   6.102
 4359POPC   D2A57832  30.542  12.093   6.557
 4359POPC   C3A57833  30.805  12.169   6.918
 4359POPC   C4A57834  30.611  12.162   7.315
 4359POPC   C1B57835  30.932  11.740   6.149
 4359POPC   C2B57836  31.010  11.864   6.533
 4359POPC   C3B57837  30.998  11.676   6.912
 4359POPC   C4B57838  30.903  11.761   7.294
 4360POPC   NC357839   2.766  29.501   5.423
 4360POPC   PO457840   2.419  28.997   5.651
 4360POPC   GL157841   2.712  29.199   5.893
 4360POPC   GL257842   2.668  29.559   5.936
 4360POPC   C1A57843   2.686  29.154   6.337
 4360POPC   D2A57844   2.563  29.442   6.663
 4360POPC   C3A57845   2.485  29.302   7.084
 4360POPC   C4A57846   2.732  29.116   7.449
 4360POPC   C1B57847   3.056  29.476   6.189
 4360POPC   C2B57848   3.111  29.261   6.614
 4360POPC   C3B57849   3.027  29.359   7.062
 4360POPC   C4B57850   3.175  29.363   7.493
 4361POPC   NC357851  35.226  22.992   5.204
 4361POPC   PO457852  35.770  22.638   5.543
 4361POPC   GL157853  35.486  22.913   5.734
 4361POPC   GL257854  35.702  23.191   5.753
 4361POPC   C1A57855  35.390  23.012   6.185
 4361POPC   D2A57856  35.256  23.164   6.623
 4361POPC   C3A57857  35.307  22.987   7.100
 4361POPC   C4A57858  35.062  22.925   7.521
 4361POPC   C1B57859  35.830  23.275   6.192
 4361POPC   C2B57860  35.736  23.403   6.597
 4361POPC   C3B57861  35.779  23.217   6.978
 4361POPC   C4B57862  35.681  23.258   7.389
 4362POPC   NC357863  22.931  27.453   5.393
 4362POPC   PO457864  22.586  28.076   5.532
 4362POPC   GL157865  22.871  27.807   5.831
 4362POPC   GL257866  22.882  27.434   5.924
 4362POPC   C1A57867  22.991  27.830   6.286
 4362POPC   D2A57868  22.891  27.774   6.743
 4362POPC   C3A57869  23.139  27.502   6.983
 4362POPC   C4A57870  23.377  27.507   7.377
 4362POPC   C1B57871  22.810  27.363   6.386
 4362POPC   C2B57872  22.484  27.443   6.690
 4362POPC   C3B57873  22.636  27.340   7.097
 4362POPC   C4B57874  22.859  27.653   7.374
 4363POPC   NC357875  10.664  16.148   5.554
 4363POPC   PO457876  10.456  15.500   5.377
 4363POPC   GL157877  10.426  15.710   5.778
 4363POPC   GL257878  10.240  16.001   5.896
 4363POPC   C1A57879  10.618  15.761   6.189
 4363POPC   D2A57880  10.666  15.888   6.623
 4363POPC   C3A57881  10.666  15.588   6.951
 4363POPC   C4A57882  10.671  15.745   7.364
 4363POPC   C1B57883  10.274  16.116   6.347
 4363POPC   C2B57884  10.580  16.392   6.568
 4363POPC   C3B57885  10.738  16.307   6.955
 4363POPC   C4B57886  10.545  16.238   7.350
 4364POPC   NC357887  24.698  43.646   5.360
 4364POPC   PO457888  24.103  43.951   5.137
 4364POPC   GL157889  24.290  43.879   5.584
 4364POPC   GL257890  24.596  44.097   5.707
 4364POPC   C1A57891  24.229  43.838   6.050
 4364POPC   D2A57892  24.522  43.766   6.412
 4364POPC   C3A57893  24.401  43.714   6.862
 4364POPC   C4A57894  24.483  43.660   7.304
 4364POPC   C1B57895  24.523  44.246   6.159
 4364POPC   C2B57896  24.336  44.208   6.593
 4364POPC   C3B57897  24.481  44.192   7.046
 4364POPC   C4B57898  24.542  44.125   7.495
 4365POPC   NC357899  27.036  17.099   5.373
 4365POPC   PO457900  26.421  16.868   5.502
 4365POPC   GL157901  26.644  17.007   5.844
 4365POPC   GL257902  27.007  16.860   5.837
 4365POPC   C1A57903  26.680  16.888   6.271
 4365POPC   D2A57904  26.779  16.923   6.696
 4365POPC   C3A57905  26.589  16.685   7.030
 4365POPC   C4A57906  26.629  16.273   7.219
 4365POPC   C1B57907  27.189  17.050   6.226
 4365POPC   C2B57908  27.275  17.147   6.643
 4365POPC   C3B57909  27.249  16.816   6.936
 4365POPC   C4B57910  27.046  16.646   7.299
 4366POPC   NC357911  22.240   4.138   5.362
 4366POPC   PO457912  21.627   4.601   5.435
 4366POPC   GL157913  22.017   4.474   5.742
 4366POPC   GL257914  22.367   4.305   5.819
 4366POPC   C1A57915  22.064   4.375   6.207
 4366POPC   D2A57916  22.082   4.061   6.532
 4366POPC   C3A57917  22.044   4.277   6.910
 4366POPC   C4A57918  22.185   4.399   7.294
 4366POPC   C1B57919  22.536   4.024   6.141
 4366POPC   C2B57920  22.650   3.903   6.545
 4366POPC   C3B57921  22.445   3.948   6.915
 4366POPC   C4B57922  22.551   4.057   7.312
 4367POPC   NC357923  39.955  42.098   5.313
 4367POPC   PO457924  40.335  42.627   5.307
 4367POPC   GL157925  40.070  42.525   5.697
 4367POPC   GL257926  40.087  42.179   5.844
 4367POPC   C1A57927  39.764  42.510   6.050
 4367POPC   D2A57928  39.768  42.212   6.372
 4367POPC   C3A57929  39.753  42.342   6.783
 4367POPC   C4A57930  39.904  42.714   7.068
 4367POPC   C1B57931  40.237  42.399   6.256
 4367POPC   C2B57932  40.255  42.449   6.744
 4367POPC   C3B57933  40.095  42.226   7.144
 4367POPC   C4B57934  40.288  42.102   7.558
 4368POPC   NC357935  13.968  37.987   5.344
 4368POPC   PO457936  14.600  37.818   5.483
 4368POPC   GL157937  14.553  37.599   5.901
 4368POPC   GL257938  14.533  37.259   5.941
 4368POPC   C1A57939  14.393  37.658   6.342
 4368POPC   D2A57940  14.244  37.556   6.734
 4368POPC   C3A57941  14.368  37.840   7.062
 4368POPC   C4A57942  14.385  38.197   7.339
 4368POPC   C1B57943  14.462  37.157   6.379
 4368POPC   C2B57944  14.715  37.380   6.658
 4368POPC   C3B57945  14.798  37.490   7.050
 4368POPC   C4B57946  14.432  37.333   7.172
 4369POPC   NC357947   7.977  17.646   5.385
 4369POPC   PO457948   8.459  17.186   5.586
 4369POPC   GL157949   8.139  17.163   5.856
 4369POPC   GL257950   8.121  17.515   5.847
 4369POPC   C1A57951   8.063  17.274   6.295
 4369POPC   D2A57952   8.225  17.436   6.652
 4369POPC   C3A57953   8.049  17.369   7.080
 4369POPC   C4A57954   8.293  17.310   7.470
 4369POPC   C1B57955   8.253  17.744   6.187
 4369POPC   C2B57956   8.182  17.945   6.572
 4369POPC   C3B57957   8.289  17.818   6.978
 4369POPC   C4B57958   8.130  17.796   7.377
 4370POPC   NC357959  30.636  41.374   5.445
 4370POPC   PO457960  30.364  41.971   5.606
 4370POPC   GL157961  30.514  41.679   5.905
 4370POPC   GL257962  30.853  41.650   5.841
 4370POPC   C1A57963  30.456  41.558   6.346
 4370POPC   D2A57964  30.391  41.365   6.738
 4370POPC   C3A57965  30.486  41.593   7.106
 4370POPC   C4A57966  30.619  41.434   7.519
 4370POPC   C1B57967  30.894  41.382   6.211
 4370POPC   C2B57968  30.898  41.517   6.664
 4370POPC   C3B57969  30.966  41.456   7.112
 4370POPC   C4B57970  31.119  41.277   7.506
 4371POPC   NC357971  11.086  17.811   5.457
 4371POPC   PO457972  11.575  17.330   5.434
 4371POPC   GL157973  11.318  17.489   5.777
 4371POPC   GL257974  10.959  17.404   5.757
 4371POPC   C1A57975  11.250  17.616   6.205
 4371POPC   D2A57976  11.580  17.475   6.443
 4371POPC   C3A57977  11.514  17.454   6.855
 4371POPC   C4A57978  11.381  17.390   7.276
 4371POPC   C1B57979  10.786  17.401   6.188
 4371POPC   C2B57980  10.838  17.637   6.577
 4371POPC   C3B57981  11.004  17.552   6.988
 4371POPC   C4B57982  10.912  17.526   7.457
 4372POPC   NC357983  44.433  25.818   4.945
 4372POPC   PO457984  44.621  26.254   5.497
 4372POPC   GL157985  44.800  26.180   5.878
 4372POPC   GL257986  44.774  25.820   5.829
 4372POPC   C1A57987  44.944  26.124   6.296
 4372POPC   D2A57988  44.932  25.867   6.677
 4372POPC   C3A57989  44.869  26.141   7.031
 4372POPC   C4A57990  44.542  26.419   7.172
 4372POPC   C1B57991  44.452  25.946   6.160
 4372POPC   C2B57992  44.425  25.794   6.585
 4372POPC   C3B57993  44.383  25.910   7.021
 4372POPC   C4B57994  44.555  25.948   7.399
 4373POPC   NC357995  22.500  36.250   5.381
 4373POPC   PO457996  21.806  36.073   5.438
 4373POPC   GL157997  21.946  36.231   5.833
 4373POPC   GL257998  22.283  36.073   5.861
 4373POPC   C1A57999  22.071  36.213   6.307
 4373POPC   D2A58000  22.145  36.049   6.727
 4373POPC   C3A58001  22.037  36.268   7.110
 4373POPC   C4A58002  21.992  36.193   7.557
 4373POPC   C1B58003  22.553  35.868   6.182
 4373POPC   C2B58004  22.551  35.618   6.581
 4373POPC   C3B58005  22.463  35.757   7.012
 4373POPC   C4B58006  22.362  35.853   7.440
 4374POPC   NC358007  25.058   7.688   5.200
 4374POPC   PO458008  25.457   7.266   5.397
 4374POPC   GL158009  25.438   7.286   5.840
 4374POPC   GL258010  25.069   7.272   5.923
 4374POPC   C1A58011  25.501   7.242   6.297
 4374POPC   D2A58012  25.333   7.302   6.723
 4374POPC   C3A58013  25.555   7.416   7.104
 4374POPC   C4A58014  25.544   7.605   7.524
 4374POPC   C1B58015  25.027   7.462   6.343
 4374POPC   C2B58016  24.907   7.623   6.766
 4374POPC   C3B58017  25.088   7.715   7.187
 4374POPC   C4B58018  25.160   7.917   7.622
 4375POPC   NC358019  15.581  26.583   5.599
 4375POPC   PO458020  16.105  26.942   5.433
 4375POPC   GL158021  15.926  26.907   5.799
 4375POPC   GL258022  15.632  27.073   5.709
 4375POPC   C1A58023  15.824  26.749   6.204
 4375POPC   D2A58024  16.031  26.769   6.573
 4375POPC   C3A58025  15.815  26.800   6.952
 4375POPC   C4A58026  16.046  26.696   7.306
 4375POPC   C1B58027  15.692  27.243   6.103
 4375POPC   C2B58028  15.812  27.231   6.517
 4375POPC   C3B58029  15.711  27.323   6.954
 4375POPC   C4B58030  15.755  27.159   7.383
 4376POPC   NC358031  21.355   8.308   5.456
 4376POPC   PO458032  21.626   7.719   5.548
 4376POPC   GL158033  21.313   7.967   5.855
 4376POPC   GL258034  21.107   8.316   5.908
 4376POPC   C1A58035  21.346   8.067   6.289
 4376POPC   D2A58036  21.553   7.947   6.659
 4376POPC   C3A58037  21.420   8.097   7.030
 4376POPC   C4A58038  21.625   8.421   7.298
 4376POPC   C1B58039  20.895   8.422   6.309
 4376POPC   C2B58040  21.117   8.564   6.697
 4376POPC   C3B58041  21.133   8.490   7.148
 4376POPC   C4B58042  21.199   8.214   7.495
 4377POPC   NC358043  12.658  33.737   5.367
 4377POPC   PO458044  13.222  33.339   5.399
 4377POPC   GL158045  12.980  33.451   5.734
 4377POPC   GL258046  12.999  33.807   5.778
 4377POPC   C1A58047  12.808  33.503   6.166
 4377POPC   D2A58048  12.789  33.771   6.533
 4377POPC   C3A58049  12.707  33.606   6.930
 4377POPC   C4A58050  12.891  33.539   7.315
 4377POPC   C1B58051  13.136  33.975   6.190
 4377POPC   C2B58052  13.135  34.157   6.638
 4377POPC   C3B58053  13.113  33.975   7.098
 4377POPC   C4B58054  12.930  33.996   7.507
 4378POPC   NC358055  33.681  32.486   5.683
 4378POPC   PO458056  33.935  33.125   5.472
 4378POPC   GL158057  33.855  32.957   5.888
 4378POPC   GL258058  33.537  32.962   5.833
 4378POPC   C1A58059  33.816  32.674   6.285
 4378POPC   D2A58060  33.778  32.516   6.721
 4378POPC   C3A58061  33.898  32.794   7.070
 4378POPC   C4A58062  33.999  33.117   7.366
 4378POPC   C1B58063  33.308  32.865   6.189
 4378POPC   C2B58064  33.139  32.900   6.596
 4378POPC   C3B58065  33.408  32.858   6.928
 4378POPC   C4B58066  33.484  33.075   7.305
 4379POPC   NC358067   3.082  42.225   5.154
 4379POPC   PO458068   2.857  42.808   5.224
 4379POPC   GL158069   2.806  42.664   5.715
 4379POPC   GL258070   2.709  42.298   5.774
 4379POPC   C1A58071   2.854  42.545   6.211
 4379POPC   D2A58072   2.649  42.552   6.654
 4379POPC   C3A58073   2.922  42.481   7.007
 4379POPC   C4A58074   3.221  42.094   7.087
 4379POPC   C1B58075   2.600  42.101   6.207
 4379POPC   C2B58076   2.779  42.061   6.646
 4379POPC   C3B58077   2.539  42.154   7.012
 4379POPC   C4B58078   2.168  41.962   7.113
 4380POPC   NC358079  30.393  32.867   5.073
 4380POPC   PO458080  30.698  33.360   5.357
 4380POPC   GL158081  30.796  33.055   5.656
 4380POPC   GL258082  30.667  33.256   5.888
 4380POPC   C1A58083  30.837  32.776   6.046
 4380POPC   D2A58084  30.572  32.619   6.411
 4380POPC   C3A58085  30.608  32.619   6.886
 4380POPC   C4A58086  30.835  32.867   7.231
 4380POPC   C1B58087  30.701  33.190   6.312
 4380POPC   C2B58088  30.694  33.073   6.682
 4380POPC   C3B58089  30.412  33.098   6.949
 4380POPC   C4B58090  30.525  33.317   7.254
 4381POPC   NC358091  21.043   9.023   5.341
 4381POPC   PO458092  20.415   8.886   5.264
 4381POPC   GL158093  20.592   8.867   5.659
 4381POPC   GL258094  20.326   8.687   5.775
 4381POPC   C1A58095  20.829   8.848   6.035
 4381POPC   D2A58096  20.772   8.893   6.533
 4381POPC   C3A58097  20.945   8.951   6.986
 4381POPC   C4A58098  20.898   9.145   7.418
 4381POPC   C1B58099  20.393   8.666   6.213
 4381POPC   C2B58100  20.264   8.891   6.570
 4381POPC   C3B58101  20.428   8.946   6.982
 4381POPC   C4B58102  20.553   8.769   7.379
 4382POPC   NC358103   5.958  38.089   5.385
 4382POPC   PO458104   6.354  37.472   5.437
 4382POPC   GL158105   6.170  37.705   5.768
 4382POPC   GL258106   5.813  37.757   5.762
 4382POPC   C1A58107   6.090  37.721   6.202
 4382POPC   D2A58108   6.040  37.960   6.567
 4382POPC   C3A58109   6.030  37.698   6.924
 4382POPC   C4A58110   6.214  37.759   7.335
 4382POPC   C1B58111   5.536  37.662   6.090
 4382POPC   C2B58112   5.687  37.581   6.496
 4382POPC   C3B58113   5.493  37.587   6.860
 4382POPC   C4B58114   5.646  37.635   7.245
 4383POPC   NC358115  17.743   4.433   5.597
 4383POPC   PO458116  17.103   4.140   5.519
 4383POPC   GL158117  17.430   4.106   5.831
 4383POPC   GL258118  17.731   3.942   5.691
 4383POPC   C1A58119  17.526   4.363   6.210
 4383POPC   D2A58120  17.656   4.579   6.568
 4383POPC   C3A58121  17.448   4.417   6.960
 4383POPC   C4A58122  17.199   4.669   7.223
 4383POPC   C1B58123  17.784   3.931   6.160
 4383POPC   C2B58124  17.687   4.069   6.602
 4383POPC   C3B58125  17.728   3.983   7.053
 4383POPC   C4B58126  17.807   4.282   7.406
 4384POPC   NC358127  15.791  34.665   5.019
 4384POPC   PO458128  16.320  34.228   5.205
 4384POPC   GL158129  16.232  34.350   5.726
 4384POPC   GL258130  16.136  34.711   5.812
 4384POPC   C1A58131  16.045  34.323   6.217
 4384POPC   D2A58132  15.781  34.563   6.610
 4384POPC   C3A58133  15.608  34.626   7.066
 4384POPC   C4A58134  15.847  34.483   7.464
 4384POPC   C1B58135  16.000  34.816   6.223
 4384POPC   C2B58136  16.276  34.678   6.585
 4384POPC   C3B58137  16.126  34.626   7.008
 4384POPC   C4B58138  16.194  34.837   7.384
 4385POPC   NC358139   8.167   1.297   5.415
 4385POPC   PO458140   8.093   0.680   5.515
 4385POPC   GL158141   7.993   1.013   5.820
 4385POPC   GL258142   7.918   1.375   5.875
 4385POPC   C1A58143   8.103   1.039   6.242
 4385POPC   D2A58144   8.302   0.869   6.582
 4385POPC   C3A58145   8.129   0.912   6.969
 4385POPC   C4A58146   8.295   1.203   7.224
 4385POPC   C1B58147   7.991   1.539   6.281
 4385POPC   C2B58148   8.044   1.334   6.667
 4385POPC   C3B58149   7.897   1.442   7.052
 4385POPC   C4B58150   8.029   1.677   7.348
 4386POPC   NC358151  29.182   9.206   5.441
 4386POPC   PO458152  29.557   8.725   5.412
 4386POPC   GL158153  29.272   8.813   5.745
 4386POPC   GL258154  29.531   9.013   5.857
 4386POPC   C1A58155  29.124   9.038   6.158
 4386POPC   D2A58156  29.152   8.904   6.630
 4386POPC   C3A58157  28.981   9.171   7.013
 4386POPC   C4A58158  28.952   9.120   7.496
 4386POPC   C1B58159  29.456   8.680   6.218
 4386POPC   C2B58160  29.685   8.775   6.599
 4386POPC   C3B58161  29.738   8.731   7.014
 4386POPC   C4B58162  29.332   8.866   7.203
 4387POPC   NC358163  16.883   7.591   5.185
 4387POPC   PO458164  16.954   6.970   5.280
 4387POPC   GL158165  16.718   7.146   5.682
 4387POPC   GL258166  16.736   7.510   5.670
 4387POPC   C1A58167  16.768   7.108   6.173
 4387POPC   D2A58168  17.005   7.151   6.603
 4387POPC   C3A58169  16.771   7.046   7.008
 4387POPC   C4A58170  16.620   6.970   7.469
 4387POPC   C1B58171  16.653   7.598   6.080
 4387POPC   C2B58172  16.689   7.641   6.514
 4387POPC   C3B58173  16.834   7.565   6.919
 4387POPC   C4B58174  16.614   7.441   7.279
 4388POPC   NC358175   1.807  29.847   5.166
 4388POPC   PO458176   2.417  29.795   5.506
 4388POPC   GL158177   2.074  30.054   5.675
 4388POPC   GL258178   1.832  29.802   5.692
 4388POPC   C1A58179   2.047  30.175   6.142
 4388POPC   D2A58180   2.019  30.146   6.634
 4388POPC   C3A58181   2.249  29.789   6.925
 4388POPC   C4A58182   2.112  29.565   7.335
 4388POPC   C1B58183   1.714  29.766   6.155
 4388POPC   C2B58184   1.627  29.714   6.628
 4388POPC   C3B58185   1.759  29.918   7.028
 4388POPC   C4B58186   2.106  30.201   7.173
 4389POPC   NC358187  14.445  17.080   5.406
 4389POPC   PO458188  14.454  16.394   5.327
 4389POPC   GL158189  14.463  16.538   5.768
 4389POPC   GL258190  14.315  16.863   5.864
 4389POPC   C1A58191  14.355  16.466   6.205
 4389POPC   D2A58192  14.367  16.705   6.587
 4389POPC   C3A58193  14.358  16.483   6.972
 4389POPC   C4A58194  14.591  16.343   7.309
 4389POPC   C1B58195  14.653  16.893   6.176
 4389POPC   C2B58196  14.819  16.972   6.595
 4389POPC   C3B58197  14.707  16.857   7.023
 4389POPC   C4B58198  14.303  16.990   7.189
 4390POPC   NC358199  33.515   0.906   5.496
 4390POPC   PO458200  32.982   1.303   5.391
 4390POPC   GL158201  32.972   1.033   5.795
 4390POPC   GL258202  33.316   1.013   5.943
 4390POPC   C1A58203  32.896   1.067   6.277
 4390POPC   D2A58204  32.654   1.246   6.644
 4390POPC   C3A58205  32.883   1.400   7.024
 4390POPC   C4A58206  33.056   1.209   7.404
 4390POPC   C1B58207  33.336   1.337   6.265
 4390POPC   C2B58208  33.244   1.171   6.687
 4390POPC   C3B58209  33.438   1.313   7.068
 4390POPC   C4B58210  33.676   1.649   7.289
 4391POPC   NC358211   0.512  23.278   5.228
 4391POPC   PO458212   0.441  23.926   5.430
 4391POPC   GL158213   0.427  23.738   5.823
 4391POPC   GL258214   0.260  23.435   5.773
 4391POPC   C1A58215   0.495  23.874   6.240
 4391POPC   D2A58216   0.779  23.895   6.557
 4391POPC   C3A58217   0.556  23.938   6.937
 4391POPC   C4A58218   0.213  24.138   7.085
 4391POPC   C1B58219   0.391  23.351   6.204
 4391POPC   C2B58220   0.445  23.490   6.650
 4391POPC   C3B58221   0.559  23.445   7.102
 4391POPC   C4B58222   0.578  23.450   7.572
 4392POPC   NC358223  17.149  20.471   5.437
 4392POPC   PO458224  17.750  20.265   5.163
 4392POPC   GL158225  17.633  20.398   5.624
 4392POPC   GL258226  17.511  20.702   5.699
 4392POPC   C1A58227  17.579  20.400   6.081
 4392POPC   D2A58228  17.651  20.476   6.489
 4392POPC   C3A58229  17.403  20.400   6.826
 4392POPC   C4A58230  17.183  20.274   7.192
 4392POPC   C1B58231  17.336  20.856   6.096
 4392POPC   C2B58232  17.479  20.952   6.549
 4392POPC   C3B58233  17.643  20.868   6.947
 4392POPC   C4B58234  17.371  20.746   7.236
 4393POPC   NC358235  23.492  42.682   5.308
 4393POPC   PO458236  24.006  42.376   5.448
 4393POPC   GL158237  23.803  42.662   5.726
 4393POPC   GL258238  23.427  42.684   5.817
 4393POPC   C1A58239  23.791  42.512   6.140
 4393POPC   D2A58240  23.834  42.701   6.535
 4393POPC   C3A58241  23.825  42.453   6.889
 4393POPC   C4A58242  23.783  42.632   7.256
 4393POPC   C1B58243  23.273  42.695   6.277
 4393POPC   C2B58244  23.343  42.624   6.757
 4393POPC   C3B58245  23.360  42.362   7.155
 4393POPC   C4B58246  23.712  42.162   7.426
 4394POPC   NC358247   0.354   1.862   5.346
 4394POPC   PO458248   0.544   2.512   5.438
 4394POPC   GL158249   0.471   2.185   5.758
 4394POPC   GL258250   0.702   1.884   5.753
 4394POPC   C1A58251   0.525   2.105   6.209
 4394POPC   D2A58252   0.647   2.270   6.610
 4394POPC   C3A58253   0.523   2.097   6.990
 4394POPC   C4A58254   0.656   2.369   7.311
 4394POPC   C1B58255   0.886   1.725   6.123
 4394POPC   C2B58256   0.779   1.786   6.542
 4394POPC   C3B58257   0.759   1.616   6.914
 4394POPC   C4B58258   0.648   1.676   7.335
 4395POPC   NC358259  38.885  32.956   5.460
 4395POPC   PO458260  38.216  33.070   5.296
 4395POPC   GL158261  38.207  33.102   5.779
 4395POPC   GL258262  38.583  33.032   5.890
 4395POPC   C1A58263  38.222  32.946   6.246
 4395POPC   D2A58264  38.461  32.964   6.642
 4395POPC   C3A58265  38.353  33.065   7.060
 4395POPC   C4A58266  38.269  33.464   7.207
 4395POPC   C1B58267  38.831  32.923   6.293
 4395POPC   C2B58268  38.956  32.870   6.740
 4395POPC   C3B58269  38.873  33.110   7.110
 4395POPC   C4B58270  38.661  32.920   7.458
 4396POPC   NC358271  43.054  26.910   5.138
 4396POPC   PO458272  43.102  26.273   5.406
 4396POPC   GL158273  42.909  26.604   5.739
 4396POPC   GL258274  43.157  26.844   5.935
 4396POPC   C1A58275  42.714  26.806   6.134
 4396POPC   D2A58276  43.012  26.863   6.477
 4396POPC   C3A58277  42.909  26.745   6.906
 4396POPC   C4A58278  42.831  26.860   7.334
 4396POPC   C1B58279  43.500  27.105   6.072
 4396POPC   C2B58280  43.591  27.158   6.516
 4396POPC   C3B58281  43.240  27.183   6.824
 4396POPC   C4B58282  43.300  26.951   7.218
 4397POPC   NC358283  28.099  31.802   5.537
 4397POPC   PO458284  28.784  31.578   5.373
 4397POPC   GL158285  28.536  31.546   5.754
 4397POPC   GL258286  28.590  31.876   5.780
 4397POPC   C1A58287  28.251  31.628   6.153
 4397POPC   D2A58288  28.067  31.396   6.508
 4397POPC   C3A58289  28.160  31.501   6.940
 4397POPC   C4A58290  28.499  31.462   7.241
 4397POPC   C1B58291  28.589  32.003   6.209
 4397POPC   C2B58292  28.648  31.806   6.599
 4397POPC   C3B58293  28.533  31.922   7.012
 4397POPC   C4B58294  28.185  31.876   7.306
 4398POPC   NC358295  20.365   8.289   5.315
 4398POPC   PO458296  20.964   8.073   5.476
 4398POPC   GL158297  20.752   7.919   5.811
 4398POPC   GL258298  20.571   8.229   5.857
 4398POPC   C1A58299  20.860   7.908   6.245
 4398POPC   D2A58300  21.018   8.086   6.673
 4398POPC   C3A58301  20.901   8.024   7.057
 4398POPC   C4A58302  20.489   7.975   7.075
 4398POPC   C1B58303  20.403   8.157   6.275
 4398POPC   C2B58304  20.439   8.387   6.658
 4398POPC   C3B58305  20.665   8.470   6.994
 4398POPC   C4B58306  20.680   8.270   7.456
 4399POPC   NC358307   9.437  19.913   5.469
 4399POPC   PO458308  10.128  20.029   5.669
 4399POPC   GL158309   9.791  19.797   5.824
 4399POPC   GL258310   9.676  19.491   5.638
 4399POPC   C1A58311   9.681  19.897   6.247
 4399POPC   D2A58312   9.711  20.187   6.584
 4399POPC   C3A58313   9.967  19.982   6.850
 4399POPC   C4A58314   9.817  19.951   7.200
 4399POPC   C1B58315   9.489  19.435   6.057
 4399POPC   C2B58316   9.474  19.489   6.507
 4399POPC   C3B58317   9.563  19.584   6.938
 4399POPC   C4B58318   9.234  19.624   7.236
 4400POPC   NC358319  16.948  36.866   5.411
 4400POPC   PO458320  16.879  37.372   5.802
 4400POPC   GL158321  16.839  36.897   5.912
 4400POPC   GL258322  16.498  36.874   5.852
 4400POPC   C1A58323  16.668  36.597   6.244
 4400POPC   D2A58324  16.571  36.677   6.657
 4400POPC   C3A58325  16.923  36.707   6.937
 4400POPC   C4A58326  16.921  36.675   7.393
 4400POPC   C1B58327  16.564  37.110   6.306
 4400POPC   C2B58328  16.354  37.138   6.719
 4400POPC   C3B58329  16.592  37.118   7.149
 4400POPC   C4B58330  16.612  37.309   7.607
 4401POPC   NC358331  44.598  29.578   5.195
 4401POPC   PO458332  44.299  29.088   5.546
 4401POPC   GL158333  44.472  29.019   5.925
 4401POPC   GL258334  44.799  29.017   5.927
 4401POPC   C1A58335  44.518  29.179   6.341
 4401POPC   D2A58336  44.491  29.066   6.758
 4401POPC   C3A58337  44.601  29.348   7.067
 4401POPC   C4A58338  44.630  29.302   7.521
 4401POPC   C1B58339   0.031  29.125   6.286
 4401POPC   C2B58340  44.955  29.331   6.683
 4401POPC   C3B58341   0.119  29.330   7.093
 4401POPC   C4B58342  44.924  28.968   7.282
 4402POPC   NC358343  13.593  17.604   5.378
 4402POPC   PO458344  14.063  17.259   5.642
 4402POPC   GL158345  13.818  17.625   5.854
 4402POPC   GL258346  13.452  17.737   5.855
 4402POPC   C1A58347  13.749  17.671   6.307
 4402POPC   D2A58348  14.014  17.535   6.638
 4402POPC   C3A58349  13.864  17.524   7.033
 4402POPC   C4A58350  13.945  17.315   7.411
 4402POPC   C1B58351  13.240  17.764   6.261
 4402POPC   C2B58352  13.209  17.586   6.667
 4402POPC   C3B58353  13.349  17.747   7.059
 4402POPC   C4B58354  13.601  17.748   7.439
 4403POPC   NC358355   3.836   2.844   5.419
 4403POPC   PO458356   3.300   2.441   5.435
 4403POPC   GL158357   3.319   2.678   5.803
 4403POPC   GL258358   3.435   3.002   5.722
 4403POPC   C1A58359   3.127   2.665   6.223
 4403POPC   D2A58360   3.135   2.908   6.604
 4403POPC   C3A58361   3.400   2.825   6.940
 4403POPC   C4A58362   3.415   3.005   7.335
 4403POPC   C1B58363   3.522   3.017   6.186
 4403POPC   C2B58364   3.725   3.012   6.596
 4403POPC   C3B58365   3.801   3.142   7.018
 4403POPC   C4B58366   3.912   3.086   7.454
 4404POPC   NC358367  35.845  25.521   5.082
 4404POPC   PO458368  35.293  25.263   5.465
 4404POPC   GL158369  35.581  25.236   5.827
 4404POPC   GL258370  35.678  24.926   5.903
 4404POPC   C1A58371  35.667  25.501   6.226
 4404POPC   D2A58372  35.350  25.688   6.505
 4404POPC   C3A58373  35.333  25.439   6.859
 4404POPC   C4A58374  35.630  25.408   7.153
 4404POPC   C1B58375  35.445  25.034   6.305
 4404POPC   C2B58376  35.559  24.943   6.749
 4404POPC   C3B58377  35.358  24.964   7.141
 4404POPC   C4B58378  34.951  25.036   7.229
 4405POPC   NC358379  31.386  35.575   5.470
 4405POPC   PO458380  31.223  34.929   5.460
 4405POPC   GL158381  31.479  35.059   5.833
 4405POPC   GL258382  31.575  35.431   5.920
 4405POPC   C1A58383  31.448  35.079   6.279
 4405POPC   D2A58384  31.540  35.404   6.574
 4405POPC   C3A58385  31.330  35.289   6.939
 4405POPC   C4A58386  31.508  35.147   7.309
 4405POPC   C1B58387  31.204  35.565   6.173
 4405POPC   C2B58388  31.101  35.698   6.595
 4405POPC   C3B58389  31.213  35.799   7.006
 4405POPC   C4B58390  31.216  35.546   7.372
 4406POPC   NC358391  35.848  25.601   5.597
 4406POPC   PO458392  35.910  24.954   5.361
 4406POPC   GL158393  36.171  25.048   5.702
 4406POPC   GL258394  36.291  25.398   5.708
 4406POPC   C1A58395  36.092  25.153   6.131
 4406POPC   D2A58396  36.126  25.365   6.518
 4406POPC   C3A58397  36.021  25.155   6.909
 4406POPC   C4A58398  35.862  24.989   7.296
 4406POPC   C1B58399  36.421  25.587   6.125
 4406POPC   C2B58400  36.561  25.623   6.568
 4406POPC   C3B58401  36.341  25.553   6.961
 4406POPC   C4B58402  36.371  25.234   7.304
 4407POPC   NC358403  12.736  27.320   5.468
 4407POPC   PO458404  13.076  27.875   5.602
 4407POPC   GL158405  12.716  27.784   5.960
 4407POPC   GL258406  12.561  27.461   5.917
 4407POPC   C1A58407  12.626  27.651   6.435
 4407POPC   D2A58408  12.927  27.755   6.797
 4407POPC   C3A58409  12.836  27.693   7.240
 4407POPC   C4A58410  12.618  27.672   7.662
 4407POPC   C1B58411  12.910  27.342   6.159
 4407POPC   C2B58412  12.826  27.175   6.552
 4407POPC   C3B58413  12.664  27.301   6.937
 4407POPC   C4B58414  12.787  27.222   7.383
 4408POPC   NC358415  13.735  27.316   5.434
 4408POPC   PO458416  13.886  28.018   5.372
 4408POPC   GL158417  13.687  27.749   5.726
 4408POPC   GL258418  13.396  27.486   5.762
 4408POPC   C1A58419  13.687  27.715   6.174
 4408POPC   D2A58420  13.767  27.433   6.537
 4408POPC   C3A58421  13.642  27.553   6.961
 4408POPC   C4A58422  13.770  27.642   7.397
 4408POPC   C1B58423  13.417  27.276   6.166
 4408POPC   C2B58424  13.261  27.437   6.574
 4408POPC   C3B58425  13.177  27.306   7.014
 4408POPC   C4B58426  13.467  27.228   7.362
 4409POPC   NC358427  24.011   3.889   5.245
 4409POPC   PO458428  23.573   3.527   5.560
 4409POPC   GL158429  23.824   3.614   5.902
 4409POPC   GL258430  23.513   3.604   6.094
 4409POPC   C1A58431  23.932   3.658   6.362
 4409POPC   D2A58432  23.621   3.507   6.676
 4409POPC   C3A58433  23.752   3.623   7.087
 4409POPC   C4A58434  24.093   3.878   7.232
 4409POPC   C1B58435  23.272   3.298   6.287
 4409POPC   C2B58436  23.319   3.068   6.656
 4409POPC   C3B58437  23.352   3.248   7.054
 4409POPC   C4B58438  23.635   3.243   7.381
 4410POPC   NC358439  35.622   3.069   5.473
 4410POPC   PO458440  35.160   2.563   5.579
 4410POPC   GL158441  34.949   2.713   5.932
 4410POPC   GL258442  34.953   3.096   5.848
 4410POPC   C1A58443  35.185   2.505   6.291
 4410POPC   D2A58444  35.388   2.503   6.677
 4410POPC   C3A58445  35.157   2.652   6.994
 4410POPC   C4A58446  35.364   2.416   7.296
 4410POPC   C1B58447  35.265   3.003   6.178
 4410POPC   C2B58448  35.417   2.991   6.607
 4410POPC   C3B58449  35.580   2.914   7.028
 4410POPC   C4B58450  35.236   3.095   7.274
 4411POPC   NC358451  27.664  16.500   5.202
 4411POPC   PO458452  27.862  15.960   5.282
 4411POPC   GL158453  27.759  15.958   5.718
 4411POPC   GL258454  27.827  16.307   5.763
 4411POPC   C1A58455  27.865  15.689   6.095
 4411POPC   D2A58456  27.970  15.549   6.521
 4411POPC   C3A58457  27.883  15.773   6.876
 4411POPC   C4A58458  27.532  15.838   7.148
 4411POPC   C1B58459  27.824  16.192   6.234
 4411POPC   C2B58460  27.650  16.198   6.663
 4411POPC   C3B58461  27.364  16.304   7.023
 4411POPC   C4B58462  27.244  16.183   7.448
 4412POPC   NC358463  44.805  22.657   5.566
 4412POPC   PO458464  44.445  23.197   5.392
 4412POPC   GL158465  44.655  23.082   5.791
 4412POPC   GL258466  44.785  23.332   5.969
 4412POPC   C1A58467  44.685  22.888   6.250
 4412POPC   D2A58468  44.505  22.591   6.598
 4412POPC   C3A58469  44.414  22.669   7.066
 4412POPC   C4A58470  44.748  22.874   7.394
 4412POPC   C1B58471  44.322  23.243   6.126
 4412POPC   C2B58472  44.260  23.099   6.544
 4412POPC   C3B58473  44.520  23.125   6.901
 4412POPC   C4B58474  44.415  23.251   7.320
 4413POPC   NC358475  18.476  31.993   5.515
 4413POPC   PO458476  18.225  31.338   5.278
 4413POPC   GL158477  18.335  31.503   5.689
 4413POPC   GL258478  18.700  31.583   5.695
 4413POPC   C1A58479  18.115  31.394   6.100
 4413POPC   D2A58480  18.037  31.150   6.505
 4413POPC   C3A58481  18.051  31.382   6.914
 4413POPC   C4A58482  18.148  31.474   7.375
 4413POPC   C1B58483  18.617  31.431   6.129
 4413POPC   C2B58484  18.410  31.522   6.534
 4413POPC   C3B58485  18.552  31.461   6.974
 4413POPC   C4B58486  18.617  31.277   7.398
 4414POPC   NC358487  43.479   2.165   5.260
 4414POPC   PO458488  44.001   1.776   5.371
 4414POPC   GL158489  44.055   1.794   5.854
 4414POPC   GL258490  44.204   2.139   5.855
 4414POPC   C1A58491  43.886   1.739   6.337
 4414POPC   D2A58492  43.626   2.012   6.672
 4414POPC   C3A58493  43.504   1.949   7.126
 4414POPC   C4A58494  43.614   1.930   7.583
 4414POPC   C1B58495  44.321   2.467   6.153
 4414POPC   C2B58496  44.239   2.481   6.598
 4414POPC   C3B58497  44.153   2.208   6.950
 4414POPC   C4B58498  44.383   2.188   7.323
 4415POPC   NC358499  38.760   4.457   5.428
 4415POPC   PO458500  38.059   4.502   5.380
 4415POPC   GL158501  38.341   4.504   5.759
 4415POPC   GL258502  38.564   4.195   5.833
 4415POPC   C1A58503  38.426   4.567   6.195
 4415POPC   D2A58504  38.384   4.334   6.589
 4415POPC   C3A58505  38.339   4.546   6.963
 4415POPC   C4A58506  38.287   4.375   7.374
 4415POPC   C1B58507  38.418   4.000   6.208
 4415POPC   C2B58508  38.456   3.793   6.645
 4415POPC   C3B58509  38.455   3.986   7.073
 4415POPC   C4B58510  38.661   4.055   7.492
 4416POPC   NC358511   5.451  40.550   5.060
 4416POPC   PO458512   5.945  41.025   5.260
 4416POPC   GL158513   5.947  40.853   5.681
 4416POPC   GL258514   5.664  41.060   5.784
 4416POPC   C1A58515   5.889  40.772   6.161
 4416POPC   D2A58516   5.932  40.982   6.584
 4416POPC   C3A58517   5.874  40.747   6.982
 4416POPC   C4A58518   5.777  40.768   7.438
 4416POPC   C1B58519   5.565  41.150   6.228
 4416POPC   C2B58520   5.439  41.233   6.656
 4416POPC   C3B58521   5.480  41.063   7.081
 4416POPC   C4B58522   5.309  40.910   7.470
 4417POPC   NC358523  31.511   7.233   5.309
 4417POPC   PO458524  31.217   7.813   5.382
 4417POPC   GL158525  31.336   7.507   5.705
 4417POPC   GL258526  31.706   7.576   5.694
 4417POPC   C1A58527  31.498   7.218   6.042
 4417POPC   D2A58528  31.632   7.329   6.481
 4417POPC   C3A58529  31.433   7.255   6.885
 4417POPC   C4A58530  31.432   7.479   7.246
 4417POPC   C1B58531  31.610   7.728   6.131
 4417POPC   C2B58532  31.399   7.803   6.542
 4417POPC   C3B58533  31.167   7.773   6.927
 4417POPC   C4B58534  31.275   7.942   7.339
 4418POPC   NC358535  37.854   1.630   5.333
 4418POPC   PO458536  37.604   2.206   5.496
 4418POPC   GL158537  37.654   1.940   5.857
 4418POPC   GL258538  38.020   1.820   5.826
 4418POPC   C1A58539  37.489   2.032   6.294
 4418POPC   D2A58540  37.652   2.331   6.621
 4418POPC   C3A58541  37.738   2.182   7.046
 4418POPC   C4A58542  37.399   1.875   7.199
 4418POPC   C1B58543  37.994   1.947   6.275
 4418POPC   C2B58544  37.828   1.807   6.675
 4418POPC   C3B58545  38.024   1.737   7.077
 4418POPC   C4B58546  38.107   2.000   7.412
 4419POPC   NC358547  40.638  31.228   5.210
 4419POPC   PO458548  41.188  31.496   5.204
 4419POPC   GL158549  40.779  31.469   5.657
 4419POPC   GL258550  40.870  31.273   5.966
 4419POPC   C1A58551  40.491  31.521   6.124
 4419POPC   D2A58552  40.538  31.527   6.616
 4419POPC   C3A58553  40.528  31.231   6.952
 4419POPC   C4A58554  40.656  31.294   7.377
 4419POPC   C1B58555  40.977  31.623   6.269
 4419POPC   C2B58556  40.976  31.800   6.683
 4419POPC   C3B58557  40.895  31.634   7.083
 4419POPC   C4B58558  41.127  31.524   7.462
 4420POPC   NC358559  29.845  39.441   5.355
 4420POPC   PO458560  29.735  38.815   5.429
 4420POPC   GL158561  29.859  39.043   5.770
 4420POPC   GL258562  30.158  39.223   5.692
 4420POPC   C1A58563  29.777  39.030   6.224
 4420POPC   D2A58564  29.624  39.178   6.646
 4420POPC   C3A58565  29.821  39.142   7.052
 4420POPC   C4A58566  29.766  38.870   7.461
 4420POPC   C1B58567  30.222  39.267   6.143
 4420POPC   C2B58568  30.146  39.171   6.603
 4420POPC   C3B58569  30.305  39.345   7.005
 4420POPC   C4B58570  30.513  39.541   7.371
 4421POPC   NC358571   3.079   0.303   5.379
 4421POPC   PO458572   3.636   0.636   5.636
 4421POPC   GL158573   3.354   0.395   5.820
 4421POPC   GL258574   3.655   0.202   5.899
 4421POPC   C1A58575   3.250   0.282   6.224
 4421POPC   D2A58576   3.493   0.284   6.598
 4421POPC   C3A58577   3.241   0.363   6.973
 4421POPC   C4A58578   3.348   0.537   7.409
 4421POPC   C1B58579   3.853   0.466   6.243
 4421POPC   C2B58580   3.969   0.543   6.678
 4421POPC   C3B58581   3.725   0.513   7.052
 4421POPC   C4B58582   3.829   0.621   7.502
 4422POPC   NC358583  20.190  33.584   5.355
 4422POPC   PO458584  19.857  34.178   5.465
 4422POPC   GL158585  20.093  33.926   5.762
 4422POPC   GL258586  20.036  33.566   5.841
 4422POPC   C1A58587  20.081  33.968   6.199
 4422POPC   D2A58588  19.761  34.077   6.495
 4422POPC   C3A58589  19.867  34.112   6.931
 4422POPC   C4A58590  19.506  34.167   7.257
 4422POPC   C1B58591  19.967  33.475   6.277
 4422POPC   C2B58592  20.039  33.667   6.651
 4422POPC   C3B58593  20.148  33.550   7.053
 4422POPC   C4B58594  20.236  33.505   7.469
 4423POPC   NC358595  19.836  21.748   5.026
 4423POPC   PO458596  19.715  21.269   5.312
 4423POPC   GL158597  19.718  21.439   5.768
 4423POPC   GL258598  19.416  21.621   5.879
 4423POPC   C1A58599  19.933  21.435   6.227
 4423POPC   D2A58600  20.119  21.539   6.677
 4423POPC   C3A58601  19.932  21.584   7.123
 4423POPC   C4A58602  19.705  21.602   7.546
 4423POPC   C1B58603  19.433  21.398   6.300
 4423POPC   C2B58604  19.632  21.354   6.733
 4423POPC   C3B58605  19.530  21.263   7.176
 4423POPC   C4B58606  19.232  21.426   7.499
 4424POPC   NC358607   6.970   9.942   5.396
 4424POPC   PO458608   6.464   9.487   5.242
 4424POPC   GL158609   6.391   9.580   5.705
 4424POPC   GL258610   6.650   9.847   5.782
 4424POPC   C1A58611   6.404   9.665   6.183
 4424POPC   D2A58612   6.583   9.724   6.600
 4424POPC   C3A58613   6.576   9.485   6.969
 4424POPC   C4A58614   7.029   9.495   7.091
 4424POPC   C1B58615   6.850   9.954   6.197
 4424POPC   C2B58616   6.735  10.208   6.589
 4424POPC   C3B58617   6.643  10.040   7.029
 4424POPC   C4B58618   6.869  10.078   7.428
 4425POPC   NC358619   4.627   2.797   5.302
 4425POPC   PO458620   4.066   2.437   5.386
 4425POPC   GL158621   4.167   2.632   5.799
 4425POPC   GL258622   3.843   2.722   5.911
 4425POPC   C1A58623   4.409   2.489   6.194
 4425POPC   D2A58624   4.729   2.514   6.521
 4425POPC   C3A58625   4.585   2.433   6.947
 4425POPC   C4A58626   4.597   2.623   7.371
 4425POPC   C1B58627   3.950   2.650   6.325
 4425POPC   C2B58628   4.220   2.759   6.684
 4425POPC   C3B58629   4.195   2.800   7.142
 4425POPC   C4B58630   4.153   2.693   7.646
 4426POPC   NC358631   2.528   5.949   5.394
 4426POPC   PO458632   3.184   5.690   5.458
 4426POPC   GL158633   2.947   5.976   5.740
 4426POPC   GL258634   2.630   5.791   5.862
 4426POPC   C1A58635   2.858   6.153   6.170
 4426POPC   D2A58636   2.714   5.902   6.512
 4426POPC   C3A58637   2.585   6.038   6.907
 4426POPC   C4A58638   2.882   6.137   7.246
 4426POPC   C1B58639   2.982   5.633   6.134
 4426POPC   C2B58640   3.107   5.579   6.564
 4426POPC   C3B58641   2.943   5.657   6.993
 4426POPC   C4B58642   3.058   5.529   7.418
 4427POPC   NC358643  16.143   7.883   5.527
 4427POPC   PO458644  15.634   8.347   5.577
 4427POPC   GL158645  15.903   8.209   5.873
 4427POPC   GL258646  16.222   8.314   5.825
 4427POPC   C1A58647  15.982   8.310   6.299
 4427POPC   D2A58648  15.793   8.329   6.670
 4427POPC   C3A58649  16.030   8.223   7.014
 4427POPC   C4A58650  16.109   8.497   7.353
 4427POPC   C1B58651  16.312   7.969   6.156
 4427POPC   C2B58652  16.277   7.956   6.617
 4427POPC   C3B58653  16.465   7.921   7.039
 4427POPC   C4B58654  16.471   8.166   7.422
 4428POPC   NC358655   8.212  32.918   5.288
 4428POPC   PO458656   7.593  33.054   5.374
 4428POPC   GL158657   7.944  33.191   5.691
 4428POPC   GL258658   8.329  33.082   5.753
 4428POPC   C1A58659   8.011  33.262   6.140
 4428POPC   D2A58660   8.018  33.459   6.564
 4428POPC   C3A58661   7.851  33.263   6.941
 4428POPC   C4A58662   8.217  33.341   7.165
 4428POPC   C1B58663   8.254  32.786   6.110
 4428POPC   C2B58664   8.365  32.652   6.535
 4428POPC   C3B58665   8.203  32.885   6.896
 4428POPC   C4B58666   7.995  32.790   7.275
 4429POPC   NC358667  15.453  32.496   5.517
 4429POPC   PO458668  14.983  32.969   5.286
 4429POPC   GL158669  15.226  33.013   5.700
 4429POPC   GL258670  15.048  33.294   5.852
 4429POPC   C1A58671  15.232  32.941   6.175
 4429POPC   D2A58672  15.138  32.727   6.583
 4429POPC   C3A58673  15.212  32.915   6.984
 4429POPC   C4A58674  15.318  32.962   7.451
 4429POPC   C1B58675  15.121  33.462   6.253
 4429POPC   C2B58676  15.164  33.380   6.679
 4429POPC   C3B58677  14.808  33.310   6.958
 4429POPC   C4B58678  14.830  33.046   7.300
 4430POPC   NC358679   8.209  40.112   5.294
 4430POPC   PO458680   8.489  40.627   5.635
 4430POPC   GL158681   8.408  40.203   5.772
 4430POPC   GL258682   8.065  40.082   5.782
 4430POPC   C1A58683   8.375  39.930   6.154
 4430POPC   D2A58684   8.204  40.000   6.558
 4430POPC   C3A58685   8.414  39.896   6.933
 4430POPC   C4A58686   8.312  40.055   7.310
 4430POPC   C1B58687   7.848  39.963   6.164
 4430POPC   C2B58688   7.772  39.719   6.505
 4430POPC   C3B58689   7.981  39.620   6.868
 4430POPC   C4B58690   8.052  39.595   7.293
 4431POPC   NC358691  38.271   1.105   5.446
 4431POPC   PO458692  37.658   1.228   5.292
 4431POPC   GL158693  37.584   1.287   5.749
 4431POPC   GL258694  37.744   0.989   5.911
 4431POPC   C1A58695  37.755   1.467   6.164
 4431POPC   D2A58696  37.772   1.267   6.608
 4431POPC   C3A58697  37.612   1.437   7.021
 4431POPC   C4A58698  37.702   1.573   7.482
 4431POPC   C1B58699  37.633   0.664   6.256
 4431POPC   C2B58700  37.441   0.729   6.613
 4431POPC   C3B58701  37.530   0.929   6.994
 4431POPC   C4B58702  37.662   1.050   7.388
 4432POPC   NC358703  35.384   3.778   5.176
 4432POPC   PO458704  35.655   3.986   5.749
 4432POPC   GL158705  35.498   3.684   6.008
 4432POPC   GL258706  35.442   3.378   5.844
 4432POPC   C1A58707  35.166   3.499   6.259
 4432POPC   D2A58708  35.057   3.361   6.676
 4432POPC   C3A58709  35.175   3.640   7.009
 4432POPC   C4A58710  35.280   3.589   7.446
 4432POPC   C1B58711  35.667   3.292   6.273
 4432POPC   C2B58712  35.794   3.320   6.697
 4432POPC   C3B58713  35.614   3.408   7.099
 4432POPC   C4B58714  35.659   3.231   7.520
 4433POPC   NC358715  38.191  14.165   5.371
 4433POPC   PO458716  38.808  14.540   5.246
 4433POPC   GL158717  38.515  14.427   5.637
 4433POPC   GL258718  38.575  14.080   5.757
 4433POPC   C1A58719  38.471  14.504   6.102
 4433POPC   D2A58720  38.648  14.392   6.522
 4433POPC   C3A58721  38.474  14.485   6.935
 4433POPC   C4A58722  38.647  14.721   7.278
 4433POPC   C1B58723  38.521  13.983   6.236
 4433POPC   C2B58724  38.271  14.061   6.642
 4433POPC   C3B58725  38.323  13.980   7.091
 4433POPC   C4B58726  38.202  13.852   7.518
 4434POPC   NC358727  44.600   3.161   5.185
 4434POPC   PO458728  44.504   3.777   5.397
 4434POPC   GL158729  44.398   3.521   5.728
 4434POPC   GL258730  44.766   3.530   5.793
 4434POPC   C1A58731  44.399   3.532   6.180
 4434POPC   D2A58732  44.747   3.416   6.446
 4434POPC   C3A58733  44.793   3.450   6.938
 4434POPC   C4A58734  44.721   3.336   7.409
 4434POPC   C1B58735  44.808   3.820   6.110
 4434POPC   C2B58736  44.657   3.937   6.508
 4434POPC   C3B58737  44.799   3.977   6.928
 4434POPC   C4B58738  44.591   3.835   7.275
 4435POPC   NC358739   0.569  18.954   5.616
 4435POPC   PO458740   0.094  19.338   5.343
 4435POPC   GL158741   0.283  19.345   5.760
 4435POPC   GL258742   0.634  19.394   5.882
 4435POPC   C1A58743   0.216  19.074   6.136
 4435POPC   D2A58744   0.170  18.823   6.478
 4435POPC   C3A58745   0.314  19.121   6.816
 4435POPC   C4A58746   0.356  19.069   7.269
 4435POPC   C1B58747   0.725  19.114   6.237
 4435POPC   C2B58748   0.677  18.852   6.589
 4435POPC   C3B58749   0.774  18.932   6.996
 4435POPC   C4B58750   0.872  19.141   7.377
 4436POPC   NC358751  15.946  12.463   5.127
 4436POPC   PO458752  16.259  11.968   5.439
 4436POPC   GL158753  16.028  12.038   5.805
 4436POPC   GL258754  16.164  12.302   6.031
 4436POPC   C1A58755  15.714  12.037   6.128
 4436POPC   D2A58756  15.517  11.959   6.522
 4436POPC   C3A58757  15.826  12.008   6.877
 4436POPC   C4A58758  15.824  12.084   7.311
 4436POPC   C1B58759  16.240  11.969   6.292
 4436POPC   C2B58760  16.334  11.864   6.709
 4436POPC   C3B58761  16.290  11.937   7.141
 4436POPC   C4B58762  16.302  12.064   7.557
 4437POPC   NC358763  27.774  36.755   5.306
 4437POPC   PO458764  27.242  36.825   5.395
 4437POPC   GL158765  27.550  36.807   5.777
 4437POPC   GL258766  27.850  36.559   5.774
 4437POPC   C1A58767  27.536  36.966   6.236
 4437POPC   D2A58768  27.362  37.026   6.676
 4437POPC   C3A58769  27.633  36.998   7.066
 4437POPC   C4A58770  28.043  36.843   7.213
 4437POPC   C1B58771  27.696  36.485   6.206
 4437POPC   C2B58772  27.703  36.619   6.663
 4437POPC   C3B58773  27.679  36.488   7.109
 4437POPC   C4B58774  27.646  36.699   7.522
 4438POPC   NC358775  37.234   2.811   5.386
 4438POPC   PO458776  36.620   3.011   5.220
 4438POPC   GL158777  36.764   2.815   5.679
 4438POPC   GL258778  37.083   2.883   5.852
 4438POPC   C1A58779  36.748   2.635   6.125
 4438POPC   D2A58780  36.680   2.858   6.526
 4438POPC   C3A58781  36.847   2.717   6.914
 4438POPC   C4A58782  36.775   2.415   7.203
 4438POPC   C1B58783  37.098   3.027   6.277
 4438POPC   C2B58784  37.300   3.233   6.616
 4438POPC   C3B58785  37.236   3.081   7.017
 4438POPC   C4B58786  37.200   2.743   7.319
 4439POPC   NC358787   5.111  12.726   5.294
 4439POPC   PO458788   4.833  13.364   5.366
 4439POPC   GL158789   5.160  13.113   5.682
 4439POPC   GL258790   5.182  12.721   5.794
 4439POPC   C1A58791   5.266  13.069   6.145
 4439POPC   D2A58792   5.138  12.943   6.558
 4439POPC   C3A58793   5.177  13.021   7.005
 4439POPC   C4A58794   5.233  13.250   7.422
 4439POPC   C1B58795   5.173  12.544   6.243
 4439POPC   C2B58796   5.001  12.463   6.690
 4439POPC   C3B58797   5.085  12.529   7.123
 4439POPC   C4B58798   5.046  12.786   7.477
 4440POPC   NC358799  41.814  30.262   5.491
 4440POPC   PO458800  41.389  29.742   5.284
 4440POPC   GL158801  41.401  29.700   5.714
 4440POPC   GL258802  41.458  30.051   5.827
 4440POPC   C1A58803  41.512  29.572   6.135
 4440POPC   D2A58804  41.650  29.620   6.547
 4440POPC   C3A58805  41.351  29.739   6.857
 4440POPC   C4A58806  41.545  29.633   7.218
 4440POPC   C1B58807  41.641  30.092   6.253
 4440POPC   C2B58808  41.699  30.134   6.706
 4440POPC   C3B58809  41.477  30.185   7.119
 4440POPC   C4B58810  41.516  30.265   7.568
 4441POPC   NC358811  43.033  20.849   5.438
 4441POPC   PO458812  43.566  20.473   5.515
 4441POPC   GL158813  43.307  20.530   5.888
 4441POPC   GL258814  43.008  20.305   5.902
 4441POPC   C1A58815  43.284  20.388   6.336
 4441POPC   D2A58816  43.144  20.455   6.757
 4441POPC   C3A58817  43.251  20.858   6.909
 4441POPC   C4A58818  43.350  20.942   7.326
 4441POPC   C1B58819  42.832  20.627   6.228
 4441POPC   C2B58820  42.777  20.829   6.668
 4441POPC   C3B58821  42.806  20.681   7.118
 4441POPC   C4B58822  42.612  20.248   7.090
 4442POPC   NC358823  23.556  28.775   5.228
 4442POPC   PO458824  23.958  28.357   5.600
 4442POPC   GL158825  23.771  28.241   5.928
 4442POPC   GL258826  23.403  28.304   5.985
 4442POPC   C1A58827  23.766  28.416   6.322
 4442POPC   D2A58828  23.607  28.317   6.694
 4442POPC   C3A58829  23.988  28.320   6.934
 4442POPC   C4A58830  24.010  28.229   7.342
 4442POPC   C1B58831  23.320  28.686   6.303
 4442POPC   C2B58832  23.586  28.889   6.649
 4442POPC   C3B58833  23.649  28.686   7.050
 4442POPC   C4B58834  23.276  28.409   7.095
 4443POPC   NC358835  34.588  28.664   5.371
 4443POPC   PO458836  34.942  29.258   5.348
 4443POPC   GL158837  34.634  29.125   5.707
 4443POPC   GL258838  34.409  28.843   5.827
 4443POPC   C1A58839  34.564  29.194   6.153
 4443POPC   D2A58840  34.343  29.208   6.542
 4443POPC   C3A58841  34.511  29.145   6.948
 4443POPC   C4A58842  34.858  28.989   7.168
 4443POPC   C1B58843  34.175  28.837   6.232
 4443POPC   C2B58844  34.138  28.769   6.707
 4443POPC   C3B58845  34.201  28.801   7.184
 4443POPC   C4B58846  34.468  28.835   7.599
 4444POPC   NC358847  38.943  10.745   5.032
 4444POPC   PO458848  39.483  10.515   5.420
 4444POPC   GL158849  39.132  10.450   5.708
 4444POPC   GL258850  39.398  10.321   5.886
 4444POPC   C1A58851  38.927  10.479   6.150
 4444POPC   D2A58852  38.899  10.259   6.578
 4444POPC   C3A58853  38.890  10.522   6.913
 4444POPC   C4A58854  39.149  10.668   7.219
 4444POPC   C1B58855  39.423  10.615   6.203
 4444POPC   C2B58856  39.293  10.587   6.596
 4444POPC   C3B58857  39.557  10.606   6.905
 4444POPC   C4B58858  39.618  10.884   7.260
 4445POPC   NC358859  39.763   6.836   5.239
 4445POPC   PO458860  39.931   7.508   5.199
 4445POPC   GL158861  39.977   7.504   5.665
 4445POPC   GL258862  39.839   7.817   5.777
 4445POPC   C1A58863  40.022   7.269   6.077
 4445POPC   D2A58864  40.186   7.361   6.508
 4445POPC   C3A58865  40.170   7.073   6.853
 4445POPC   C4A58866  40.179   7.275   7.227
 4445POPC   C1B58867  39.968   7.755   6.212
 4445POPC   C2B58868  39.727   7.545   6.544
 4445POPC   C3B58869  39.846   7.538   6.957
 4445POPC   C4B58870  39.638   7.374   7.328
 4446POPC   NC358871   8.181  38.174   5.352
 4446POPC   PO458872   8.310  37.548   5.450
 4446POPC   GL158873   8.142  37.638   5.841
 4446POPC   GL258874   8.287  37.963   5.830
 4446POPC   C1A58875   8.047  37.746   6.281
 4446POPC   D2A58876   8.222  37.985   6.659
 4446POPC   C3A58877   8.287  37.671   6.996
 4446POPC   C4A58878   8.053  37.554   7.385
 4446POPC   C1B58879   8.512  38.001   6.232
 4446POPC   C2B58880   8.749  38.046   6.629
 4446POPC   C3B58881   8.634  38.069   7.077
 4446POPC   C4B58882   8.538  37.737   7.455
 4447POPC   NC358883  35.988   3.977   5.422
 4447POPC   PO458884  36.273   4.612   5.318
 4447POPC   GL158885  36.258   4.352   5.661
 4447POPC   GL258886  35.944   4.405   5.725
 4447POPC   C1A58887  36.242   4.089   6.065
 4447POPC   D2A58888  35.955   4.073   6.459
 4447POPC   C3A58889  36.102   4.175   6.881
 4447POPC   C4A58890  36.257   4.031   7.280
 4447POPC   C1B58891  35.922   4.482   6.145
 4447POPC   C2B58892  35.885   4.573   6.574
 4447POPC   C3B58893  35.679   4.427   6.966
 4447POPC   C4B58894  35.965   4.468   7.310
 4448POPC   NC358895  12.442  13.458   5.508
 4448POPC   PO458896  11.730  13.475   5.361
 4448POPC   GL158897  11.951  13.361   5.749
 4448POPC   GL258898  12.076  13.675   5.834
 4448POPC   C1A58899  12.049  13.357   6.217
 4448POPC   D2A58900  12.045  13.717   6.515
 4448POPC   C3A58901  12.076  13.604   6.900
 4448POPC   C4A58902  12.021  13.862   7.218
 4448POPC   C1B58903  12.414  13.714   6.178
 4448POPC   C2B58904  12.535  13.760   6.653
 4448POPC   C3B58905  12.517  13.753   7.124
 4448POPC   C4B58906  12.411  13.772   7.579
 4449POPC   NC358907   4.405   1.380   5.451
 4449POPC   PO458908   4.201   0.764   5.392
 4449POPC   GL158909   4.231   1.020   5.787
 4449POPC   GL258910   4.604   1.017   5.800
 4449POPC   C1A58911   4.254   1.337   6.164
 4449POPC   D2A58912   4.174   1.712   6.486
 4449POPC   C3A58913   4.012   1.651   6.920
 4449POPC   C4A58914   4.063   1.451   7.322
 4449POPC   C1B58915   4.548   0.902   6.231
 4449POPC   C2B58916   4.270   1.000   6.571
 4449POPC   C3B58917   4.325   1.255   6.937
 4449POPC   C4B58918   4.422   1.088   7.347
 4450POPC   NC358919  20.066  25.303   5.392
 4450POPC   PO458920  19.607  24.854   5.134
 4450POPC   GL158921  19.725  24.979   5.626
 4450POPC   GL258922  19.755  25.364   5.781
 4450POPC   C1A58923  19.732  24.981   6.116
 4450POPC   D2A58924  19.682  24.880   6.584
 4450POPC   C3A58925  19.913  25.109   6.893
 4450POPC   C4A58926  19.971  25.032   7.319
 4450POPC   C1B58927  19.839  25.594   6.187
 4450POPC   C2B58928  19.980  25.565   6.630
 4450POPC   C3B58929  19.865  25.600   7.079
 4450POPC   C4B58930  20.064  25.518   7.465
 4451POPC   NC358931   8.724  43.207   5.350
 4451POPC   PO458932   9.212  42.823   5.458
 4451POPC   GL158933   9.055  43.144   5.744
 4451POPC   GL258934   8.729  43.007   5.841
 4451POPC   C1A58935   9.145  43.294   6.152
 4451POPC   D2A58936   9.222  43.095   6.544
 4451POPC   C3A58937   9.125  43.243   6.938
 4451POPC   C4A58938   9.225  42.908   7.187
 4451POPC   C1B58939   8.646  43.349   6.133
 4451POPC   C2B58940   8.781  43.386   6.579
 4451POPC   C3B58941   8.610  43.391   7.026
 4451POPC   C4B58942   8.640  43.328   7.511
 4452POPC   NC358943  11.127   8.560   5.482
 4452POPC   PO458944  11.375   9.222   5.311
 4452POPC   GL158945  11.258   9.124   5.706
 4452POPC   GL258946  11.418   8.851   5.811
 4452POPC   C1A58947  11.468   9.262   6.099
 4452POPC   D2A58948  11.361   9.471   6.497
 4452POPC   C3A58949  11.470   9.281   6.867
 4452POPC   C4A58950  11.237   8.989   7.125
 4452POPC   C1B58951  11.321   8.798   6.245
 4452POPC   C2B58952  11.507   8.793   6.648
 4452POPC   C3B58953  11.446   8.518   6.985
 4452POPC   C4B58954  11.477   8.657   7.403
 4453POPC   NC358955  16.488   2.180   5.318
 4453POPC   PO458956  16.847   1.677   5.619
 4453POPC   GL158957  16.494   1.887   5.742
 4453POPC   GL258958  16.712   2.154   5.782
 4453POPC   C1A58959  16.383   2.002   6.146
 4453POPC   D2A58960  16.549   1.753   6.483
 4453POPC   C3A58961  16.604   1.974   6.877
 4453POPC   C4A58962  16.592   1.817   7.269
 4453POPC   C1B58963  17.039   2.240   6.098
 4453POPC   C2B58964  17.237   2.217   6.494
 4453POPC   C3B58965  17.066   2.244   6.876
 4453POPC   C4B58966  16.924   2.206   7.268
 4454POPC   NC358967  13.541  28.287   5.573
 4454POPC   PO458968  14.205  28.577   5.482
 4454POPC   GL158969  13.958  28.460   5.810
 4454POPC   GL258970  13.983  28.134   5.864
 4454POPC   C1A58971  13.734  28.543   6.212
 4454POPC   D2A58972  13.916  28.509   6.632
 4454POPC   C3A58973  13.635  28.615   6.957
 4454POPC   C4A58974  13.851  28.668   7.298
 4454POPC   C1B58975  14.120  28.206   6.268
 4454POPC   C2B58976  13.936  27.940   6.577
 4454POPC   C3B58977  13.954  27.970   6.997
 4454POPC   C4B58978  13.707  28.175   7.241
 4455POPC   NC358979   0.873  23.774   5.525
 4455POPC   PO458980   1.604  23.750   5.447
 4455POPC   GL158981   1.310  23.667   5.781
 4455POPC   GL258982   1.127  23.946   5.960
 4455POPC   C1A58983   1.369  23.523   6.196
 4455POPC   D2A58984   1.379  23.700   6.591
 4455POPC   C3A58985   1.449  23.409   6.896
 4455POPC   C4A58986   1.363  23.631   7.254
 4455POPC   C1B58987   0.877  23.572   6.141
 4455POPC   C2B58988   0.944  23.397   6.542
 4455POPC   C3B58989   0.987  23.639   6.933
 4455POPC   C4B58990   1.000  24.002   7.227
 4456POPC   NC358991  25.219  14.352   5.493
 4456POPC   PO458992  25.429  14.926   5.583
 4456POPC   GL158993  25.101  14.755   5.885
 4456POPC   GL258994  25.247  14.468   5.995
 4456POPC   C1A58995  24.834  14.684   6.256
 4456POPC   D2A58996  24.864  14.483   6.694
 4456POPC   C3A58997  25.142  14.635   6.983
 4456POPC   C4A58998  25.136  14.952   7.315
 4456POPC   C1B58999  25.062  14.197   6.288
 4456POPC   C2B59000  25.006  13.994   6.688
 4456POPC   C3B59001  25.164  14.101   7.112
 4456POPC   C4B59002  25.335  13.966   7.536
 4457POPC   NC359003  13.226  37.999   5.201
 4457POPC   PO459004  13.735  37.587   5.411
 4457POPC   GL159005  13.601  37.703   5.785
 4457POPC   GL259006  13.680  38.033   5.805
 4457POPC   C1A59007  13.483  37.602   6.193
 4457POPC   D2A59008  13.725  37.586   6.552
 4457POPC   C3A59009  13.479  37.486   6.897
 4457POPC   C4A59010  13.592  37.308   7.274
 4457POPC   C1B59011  13.772  38.036   6.263
 4457POPC   C2B59012  13.994  38.016   6.671
 4457POPC   C3B59013  13.867  37.772   7.033
 4457POPC   C4B59014  13.536  37.853   7.324
 4458POPC   NC359015  34.345  23.358   5.502
 4458POPC   PO459016  34.804  22.841   5.383
 4458POPC   GL159017  34.853  22.943   5.810
 4458POPC   GL259018  34.499  22.965   5.878
 4458POPC   C1A59019  34.883  22.921   6.276
 4458POPC   D2A59020  34.747  23.103   6.683
 4458POPC   C3A59021  34.793  22.886   7.087
 4458POPC   C4A59022  34.682  22.592   7.438
 4458POPC   C1B59023  34.377  23.073   6.316
 4458POPC   C2B59024  34.239  22.985   6.771
 4458POPC   C3B59025  34.299  22.879   7.223
 4458POPC   C4B59026  34.214  22.686   7.647
 4459POPC   NC359027   5.089   1.627   5.342
 4459POPC   PO459028   5.455   2.275   5.387
 4459POPC   GL159029   5.202   2.072   5.730
 4459POPC   GL259030   5.406   1.758   5.762
 4459POPC   C1A59031   4.979   2.154   6.153
 4459POPC   D2A59032   5.140   2.192   6.600
 4459POPC   C3A59033   4.951   2.034   7.003
 4459POPC   C4A59034   5.060   1.955   7.481
 4459POPC   C1B59035   5.319   1.553   6.142
 4459POPC   C2B59036   5.014   1.709   6.418
 4459POPC   C3B59037   5.002   1.561   6.805
 4459POPC   C4B59038   5.195   1.589   7.173
 4460POPC   NC359039  43.263   9.915   5.260
 4460POPC   PO459040  43.085   9.209   5.208
 4460POPC   GL159041  43.079   9.503   5.706
 4460POPC   GL259042  42.771   9.541   5.896
 4460POPC   C1A59043  43.177   9.752   6.118
 4460POPC   D2A59044  43.013   9.874   6.521
 4460POPC   C3A59045  43.251   9.918   6.925
 4460POPC   C4A59046  43.420   9.623   7.220
 4460POPC   C1B59047  42.677   9.960   6.114
 4460POPC   C2B59048  42.567  10.148   6.540
 4460POPC   C3B59049  42.746  10.009   6.938
 4460POPC   C4B59050  42.865   9.719   7.229
 4461POPC   NC359051   9.483   9.592   5.427
 4461POPC   PO459052  10.167   9.604   5.604
 4461POPC   GL159053   9.787   9.539   5.867
 4461POPC   GL259054   9.444   9.751   5.907
 4461POPC   C1A59055   9.848   9.589   6.294
 4461POPC   D2A59056  10.056   9.876   6.528
 4461POPC   C3A59057   9.985   9.735   6.925
 4461POPC   C4A59058   9.782  10.011   7.178
 4461POPC   C1B59059   9.544   9.989   6.275
 4461POPC   C2B59060   9.565   9.846   6.676
 4461POPC   C3B59061   9.477   9.499   6.924
 4461POPC   C4B59062   9.303   9.769   7.214
 4462POPC   NC359063   2.089  33.423   5.121
 4462POPC   PO459064   2.192  32.814   5.453
 4462POPC   GL159065   2.010  32.906   5.814
 4462POPC   GL259066   1.907  33.241   5.769
 4462POPC   C1A59067   2.010  32.706   6.217
 4462POPC   D2A59068   1.851  32.856   6.601
 4462POPC   C3A59069   2.060  32.915   6.969
 4462POPC   C4A59070   2.076  33.218   7.259
 4462POPC   C1B59071   1.963  33.228   6.232
 4462POPC   C2B59072   1.840  33.369   6.669
 4462POPC   C3B59073   1.602  33.308   7.055
 4462POPC   C4B59074   1.622  33.391   7.500
 4463POPC   NC359075  40.366  14.721   5.255
 4463POPC   PO459076  39.817  14.242   5.378
 4463POPC   GL159077  40.166  14.411   5.637
 4463POPC   GL259078  40.276  14.152   5.813
 4463POPC   C1A59079  40.148  14.553   6.099
 4463POPC   D2A59080  39.815  14.435   6.399
 4463POPC   C3A59081  39.932  14.438   6.839
 4463POPC   C4A59082  39.979  14.637   7.215
 4463POPC   C1B59083  40.202  14.045   6.227
 4463POPC   C2B59084  40.308  14.201   6.617
 4463POPC   C3B59085  40.412  14.324   7.054
 4463POPC   C4B59086  40.363  14.057   7.421
 4464POPC   NC359087  38.941   0.686   5.631
 4464POPC   PO459088  38.524   0.317   5.187
 4464POPC   GL159089  38.564   0.247   5.712
 4464POPC   GL259090  38.265   0.086   5.867
 4464POPC   C1A59091  38.622   0.452   6.178
 4464POPC   D2A59092  38.458   0.513   6.629
 4464POPC   C3A59093  38.658   0.433   7.048
 4464POPC   C4A59094  38.403   0.488   7.452
 4464POPC   C1B59095  38.113   0.299   6.276
 4464POPC   C2B59096  37.992   0.296   6.669
 4464POPC   C3B59097  38.192   0.239   7.061
 4464POPC   C4B59098  38.475   0.002   7.395
 4465POPC   NC359099  11.997  40.132   5.237
 4465POPC   PO459100  12.039  39.487   5.320
 4465POPC   GL159101  11.763  39.762   5.609
 4465POPC   GL259102  11.772  40.151   5.728
 4465POPC   C1A59103  11.713  39.757   6.076
 4465POPC   D2A59104  11.866  39.781   6.526
 4465POPC   C3A59105  11.667  40.025   6.886
 4465POPC   C4A59106  11.844  40.028   7.299
 4465POPC   C1B59107  11.807  40.248   6.224
 4465POPC   C2B59108  12.046  40.271   6.651
 4465POPC   C3B59109  12.279  40.086   7.049
 4465POPC   C4B59110  12.264  40.139   7.542
 4466POPC   NC359111  37.678  11.065   5.450
 4466POPC   PO459112  37.164  11.436   5.338
 4466POPC   GL159113  37.500  11.410   5.779
 4466POPC   GL259114  37.826  11.229   5.909
 4466POPC   C1A59115  37.424  11.175   6.203
 4466POPC   D2A59116  37.649  11.111   6.589
 4466POPC   C3A59117  37.486  11.105   6.996
 4466POPC   C4A59118  37.697  11.021   7.360
 4466POPC   C1B59119  37.778  11.522   6.255
 4466POPC   C2B59120  37.904  11.830   6.553
 4466POPC   C3B59121  38.077  11.697   6.938
 4466POPC   C4B59122  37.797  11.507   7.244
 4467POPC   NC359123  37.421  30.195   5.347
 4467POPC   PO459124  38.023  29.841   5.388
 4467POPC   GL159125  37.794  29.951   5.730
 4467POPC   GL259126  37.868  30.271   5.674
 4467POPC   C1A59127  37.697  29.785   6.149
 4467POPC   D2A59128  37.916  29.797   6.568
 4467POPC   C3A59129  37.661  29.780   6.924
 4467POPC   C4A59130  37.397  29.640   7.248
 4467POPC   C1B59131  37.651  30.312   6.097
 4467POPC   C2B59132  37.509  30.132   6.486
 4467POPC   C3B59133  37.463  30.282   6.882
 4467POPC   C4B59134  37.668  30.207   7.218
 4468POPC   NC359135  24.810  18.480   5.523
 4468POPC   PO459136  24.367  17.987   5.409
 4468POPC   GL159137  24.498  18.164   5.807
 4468POPC   GL259138  24.754  17.922   5.928
 4468POPC   C1A59139  24.662  18.375   6.192
 4468POPC   D2A59140  24.815  18.517   6.610
 4468POPC   C3A59141  24.616  18.372   6.999
 4468POPC   C4A59142  24.758  18.349   7.409
 4468POPC   C1B59143  24.483  17.890   6.331
 4468POPC   C2B59144  24.471  17.905   6.793
 4468POPC   C3B59145  24.416  17.937   7.232
 4468POPC   C4B59146  24.274  18.183   7.579
 4469POPC   NC359147  37.780   5.576   5.313
 4469POPC   PO459148  37.540   6.220   5.197
 4469POPC   GL159149  37.681   6.052   5.668
 4469POPC   GL259150  37.723   5.697   5.807
 4469POPC   C1A59151  37.609   6.068   6.160
 4469POPC   D2A59152  37.770   6.236   6.576
 4469POPC   C3A59153  37.666   6.027   6.986
 4469POPC   C4A59154  37.863   5.883   7.388
 4469POPC   C1B59155  37.928   5.668   6.224
 4469POPC   C2B59156  38.086   5.750   6.644
 4469POPC   C3B59157  37.943   5.538   7.012
 4469POPC   C4B59158  37.499   5.561   7.191
 4470POPC   NC359159   3.787   1.007   5.438
 4470POPC   PO459160   3.609   1.558   5.249
 4470POPC   GL159161   3.546   1.356   5.734
 4470POPC   GL259162   3.344   1.008   5.828
 4470POPC   C1A59163   3.771   1.123   6.105
 4470POPC   D2A59164   3.750   0.992   6.561
 4470POPC   C3A59165   3.632   1.326   6.840
 4470POPC   C4A59166   3.571   1.441   7.266
 4470POPC   C1B59167   3.396   0.778   6.240
 4470POPC   C2B59168   3.280   0.777   6.679
 4470POPC   C3B59169   3.409   0.941   7.085
 4470POPC   C4B59170   3.133   1.203   7.335
 4471POPC   NC359171  33.934  35.012   5.518
 4471POPC   PO459172  33.889  35.643   5.332
 4471POPC   GL159173  33.783  35.434   5.757
 4471POPC   GL259174  33.494  35.212   5.734
 4471POPC   C1A59175  33.956  35.258   6.177
 4471POPC   D2A59176  34.226  35.262   6.561
 4471POPC   C3A59177  34.054  35.184   6.998
 4471POPC   C4A59178  34.029  35.560   7.273
 4471POPC   C1B59179  33.435  35.206   6.209
 4471POPC   C2B59180  33.620  35.334   6.639
 4471POPC   C3B59181  33.573  35.351   7.130
 4471POPC   C4B59182  33.434  35.222   7.559
 4472POPC   NC359183   7.661  13.727   5.400
 4472POPC   PO459184   7.001  13.602   5.165
 4472POPC   GL159185   7.243  13.577   5.656
 4472POPC   GL259186   7.636  13.541   5.855
 4472POPC   C1A59187   7.241  13.667   6.130
 4472POPC   D2A59188   7.394  13.514   6.518
 4472POPC   C3A59189   7.360  13.709   6.913
 4472POPC   C4A59190   7.303  13.597   7.360
 4472POPC   C1B59191   7.845  13.545   6.275
 4472POPC   C2B59192   7.866  13.562   6.750
 4472POPC   C3B59193   7.793  13.668   7.180
 4472POPC   C4B59194   7.720  13.820   7.615
 4473POPC   NC359195  12.427   1.471   5.724
 4473POPC   PO459196  12.070   1.948   5.380
 4473POPC   GL159197  12.025   2.066   5.781
 4473POPC   GL259198  11.681   1.901   5.775
 4473POPC   C1A59199  12.288   2.211   6.138
 4473POPC   D2A59200  12.580   2.210   6.496
 4473POPC   C3A59201  12.417   2.123   6.889
 4473POPC   C4A59202  12.449   2.286   7.268
 4473POPC   C1B59203  11.947   1.709   6.133
 4473POPC   C2B59204  12.138   1.877   6.520
 4473POPC   C3B59205  11.891   2.038   6.877
 4473POPC   C4B59206  12.025   2.015   7.281
 4474POPC   NC359207  12.337   0.557   5.430
 4474POPC   PO459208  11.890   0.091   5.465
 4474POPC   GL159209  12.037   0.336   5.789
 4474POPC   GL259210  12.368   0.223   5.840
 4474POPC   C1A59211  12.144   0.543   6.180
 4474POPC   D2A59212  12.201   0.356   6.590
 4474POPC   C3A59213  11.918   0.476   6.896
 4474POPC   C4A59214  11.940   0.776   7.214
 4474POPC   C1B59215  12.459  44.882   6.126
 4474POPC   C2B59216  12.480  44.944   6.551
 4474POPC   C3B59217  12.237  44.995   6.957
 4474POPC   C4B59218  12.263   0.330   7.257
 4475POPC   NC359219  38.585  37.016   5.422
 4475POPC   PO459220  38.641  37.459   5.864
 4475POPC   GL159221  38.509  37.049   5.983
 4475POPC   GL259222  38.565  36.701   5.812
 4475POPC   C1A59223  38.505  37.013   6.445
 4475POPC   D2A59224  38.658  37.208   6.844
 4475POPC   C3A59225  38.376  37.112   7.186
 4475POPC   C4A59226  38.043  37.295   7.446
 4475POPC   C1B59227  38.403  36.577   6.191
 4475POPC   C2B59228  38.229  36.579   6.610
 4475POPC   C3B59229  38.288  36.563   7.051
 4475POPC   C4B59230  38.583  36.613   7.360
 4476POPC   NC359231   6.109  44.707   5.784
 4476POPC   PO459232   5.549  44.860   5.519
 4476POPC   GL159233   5.601  44.662   5.924
 4476POPC   GL259234   5.745  44.317   5.870
 4476POPC   C1A59235   5.757  44.783   6.346
 4476POPC   D2A59236   6.113  44.675   6.640
 4476POPC   C3A59237   6.055  44.944   6.989
 4476POPC   C4A59238   5.845  44.722   7.285
 4476POPC   C1B59239   5.958  44.312   6.297
 4476POPC   C2B59240   5.910  44.190   6.732
 4476POPC   C3B59241   6.164  44.346   7.089
 4476POPC   C4B59242   6.130  44.355   7.543
 4477POPC   NC359243  32.616  30.837   5.483
 4477POPC   PO459244  32.146  30.534   5.199
 4477POPC   GL159245  32.168  30.664   5.653
 4477POPC   GL259246  32.209  31.004   5.784
 4477POPC   C1A59247  32.274  30.533   6.065
 4477POPC   D2A59248  32.232  30.714   6.456
 4477POPC   C3A59249  32.119  30.489   6.803
 4477POPC   C4A59250  32.153  30.676   7.198
 4477POPC   C1B59251  32.518  30.992   6.134
 4477POPC   C2B59252  32.549  31.142   6.583
 4477POPC   C3B59253  32.372  31.103   7.050
 4477POPC   C4B59254  32.587  30.908   7.452
 4478POPC   NC359255  24.252   7.926   5.522
 4478POPC   PO459256  23.966   8.514   5.497
 4478POPC   GL159257  24.284   8.538   5.829
 4478POPC   GL259258  24.255   8.216   5.941
 4478POPC   C1A59259  24.453   8.478   6.324
 4478POPC   D2A59260  24.331   8.272   6.773
 4478POPC   C3A59261  24.628   8.028   7.042
 4478POPC   C4A59262  24.842   8.238   7.388
 4478POPC   C1B59263  24.262   8.005   6.348
 4478POPC   C2B59264  23.997   7.856   6.654
 4478POPC   C3B59265  24.063   7.921   7.076
 4478POPC   C4B59266  24.207   7.624   7.396
 4479POPC   NC359267   3.972  42.362   5.588
 4479POPC   PO459268   3.270  42.497   5.536
 4479POPC   GL159269   3.519  42.486   5.869
 4479POPC   GL259270   3.695  42.233   5.997
 4479POPC   C1A59271   3.387  42.568   6.288
 4479POPC   D2A59272   3.226  42.363   6.633
 4479POPC   C3A59273   3.480  42.512   6.980
 4479POPC   C4A59274   3.653  42.526   7.390
 4479POPC   C1B59275   3.508  42.084   6.319
 4479POPC   C2B59276   3.707  42.152   6.688
 4479POPC   C3B59277   3.899  42.219   7.060
 4479POPC   C4B59278   3.887  42.086   7.471
 4480POPC   NC359279  14.411   6.748   5.246
 4480POPC   PO459280  14.854   6.368   5.658
 4480POPC   GL159281  14.596   6.584   6.004
 4480POPC   GL259282  14.289   6.736   5.847
 4480POPC   C1A59283  14.724   6.879   6.331
 4480POPC   D2A59284  14.804   6.931   6.775
 4480POPC   C3A59285  14.573   6.617   7.015
 4480POPC   C4A59286  14.282   6.346   7.209
 4480POPC   C1B59287  14.211   6.907   6.290
 4480POPC   C2B59288  14.265   6.933   6.772
 4480POPC   C3B59289  14.199   6.859   7.279
 4480POPC   C4B59290  14.289   6.961   7.758
 4481POPC   NC359291  29.401  20.534   5.213
 4481POPC   PO459292  28.806  20.237   5.215
 4481POPC   GL159293  29.022  20.393   5.652
 4481POPC   GL259294  29.384  20.473   5.762
 4481POPC   C1A59295  29.124  20.243   6.130
 4481POPC   D2A59296  29.130  20.346   6.594
 4481POPC   C3A59297  29.210  20.240   7.039
 4481POPC   C4A59298  29.267  20.545   7.383
 4481POPC   C1B59299  29.428  20.635   6.263
 4481POPC   C2B59300  29.311  20.828   6.717
 4481POPC   C3B59301  29.450  20.977   7.167
 4481POPC   C4B59302  29.488  20.934   7.662
 4482POPC   NC359303  36.702  18.147   5.235
 4482POPC   PO459304  37.059  18.709   5.403
 4482POPC   GL159305  37.063  18.481   5.774
 4482POPC   GL259306  36.986  18.135   5.665
 4482POPC   C1A59307  36.875  18.626   6.189
 4482POPC   D2A59308  36.771  18.513   6.628
 4482POPC   C3A59309  36.786  18.611   7.059
 4482POPC   C4A59310  37.082  18.477   7.352
 4482POPC   C1B59311  36.903  18.095   6.114
 4482POPC   C2B59312  36.972  18.043   6.548
 4482POPC   C3B59313  36.980  18.125   6.976
 4482POPC   C4B59314  37.060  17.960   7.388
 4483POPC   NC359315  31.449  28.861   5.099
 4483POPC   PO459316  31.194  29.377   5.497
 4483POPC   GL159317  31.355  29.216   5.896
 4483POPC   GL259318  31.688  29.096   5.868
 4483POPC   C1A59319  31.444  29.345   6.339
 4483POPC   D2A59320  31.251  29.652   6.637
 4483POPC   C3A59321  31.129  29.351   6.921
 4483POPC   C4A59322  31.313  29.000   7.055
 4483POPC   C1B59323  31.737  28.935   6.259
 4483POPC   C2B59324  31.605  28.920   6.667
 4483POPC   C3B59325  31.754  28.733   7.079
 4483POPC   C4B59326  31.906  28.968   7.465
 4484POPC   NC359327  24.320  34.639   5.322
 4484POPC   PO459328  24.328  33.973   5.463
 4484POPC   GL159329  24.520  34.186   5.784
 4484POPC   GL259330  24.372  34.502   5.813
 4484POPC   C1A59331  24.331  34.184   6.216
 4484POPC   D2A59332  24.387  34.425   6.580
 4484POPC   C3A59333  24.491  34.281   6.980
 4484POPC   C4A59334  24.286  34.487   7.314
 4484POPC   C1B59335  24.632  34.612   6.162
 4484POPC   C2B59336  24.598  34.882   6.536
 4484POPC   C3B59337  24.625  34.771   6.967
 4484POPC   C4B59338  24.972  34.528   7.141
 4485POPC   NC359339   0.136  25.256   5.380
 4485POPC   PO459340   0.701  24.904   5.462
 4485POPC   GL159341   0.390  25.066   5.794
 4485POPC   GL259342   0.357  25.412   5.860
 4485POPC   C1A59343   0.135  25.111   6.213
 4485POPC   D2A59344   0.060  24.930   6.623
 4485POPC   C3A59345   0.151  25.210   6.996
 4485POPC   C4A59346   0.212  25.444   7.400
 4485POPC   C1B59347   0.627  25.207   6.216
 4485POPC   C2B59348   0.575  25.033   6.616
 4485POPC   C3B59349   0.677  25.307   6.960
 4485POPC   C4B59350   0.653  25.185   7.372
 4486POPC   NC359351   7.595   6.708   5.425
 4486POPC   PO459352   7.138   6.430   5.748
 4486POPC   GL159353   7.391   6.760   5.927
 4486POPC   GL259354   7.732   6.892   5.908
 4486POPC   C1A59355   7.504   6.636   6.341
 4486POPC   D2A59356   7.355   6.347   6.648
 4486POPC   C3A59357   7.485   6.530   7.035
 4486POPC   C4A59358   7.416   6.477   7.455
 4486POPC   C1B59359   7.656   7.118   6.311
 4486POPC   C2B59360   7.674   6.966   6.738
 4486POPC   C3B59361   7.876   7.041   7.145
 4486POPC   C4B59362   7.704   6.895   7.517
 4487POPC   NC359363  18.395  23.444   5.395
 4487POPC   PO459364  18.241  22.786   5.461
 4487POPC   GL159365  18.278  22.927   5.864
 4487POPC   GL259366  18.465  23.210   5.839
 4487POPC   C1A59367  18.155  23.017   6.281
 4487POPC   D2A59368  17.863  23.052   6.598
 4487POPC   C3A59369  18.114  22.939   6.966
 4487POPC   C4A59370  18.237  22.866   7.399
 4487POPC   C1B59371  18.494  23.423   6.223
 4487POPC   C2B59372  18.634  23.284   6.620
 4487POPC   C3B59373  18.514  23.263   7.048
 4487POPC   C4B59374  18.327  23.647   7.182
 4488POPC   NC359375  25.643  25.722   5.269
 4488POPC   PO459376  25.432  26.376   5.147
 4488POPC   GL159377  25.537  26.207   5.532
 4488POPC   GL259378  25.170  26.223   5.611
 4488POPC   C1A59379  25.495  26.190   5.991
 4488POPC   D2A59380  25.311  26.179   6.406
 4488POPC   C3A59381  25.474  26.292   6.808
 4488POPC   C4A59382  25.348  26.214   7.229
 4488POPC   C1B59383  24.942  26.305   6.021
 4488POPC   C2B59384  24.902  26.471   6.474
 4488POPC   C3B59385  24.964  26.324   6.911
 4488POPC   C4B59386  24.860  26.259   7.369
 4489POPC   NC359387   2.534   7.023   5.611
 4489POPC   PO459388   2.205   7.673   5.425
 4489POPC   GL159389   2.294   7.571   5.849
 4489POPC   GL259390   2.099   7.258   5.858
 4489POPC   C1A59391   2.258   7.508   6.306
 4489POPC   D2A59392   2.031   7.484   6.686
 4489POPC   C3A59393   2.294   7.301   6.977
 4489POPC   C4A59394   2.282   7.212   7.414
 4489POPC   C1B59395   1.831   7.214   6.257
 4489POPC   C2B59396   1.817   7.016   6.696
 4489POPC   C3B59397   1.828   7.122   7.125
 4489POPC   C4B59398   1.824   7.279   7.592
 4490POPC   NC359399  20.485  43.282   5.504
 4490POPC   PO459400  20.799  42.737   5.422
 4490POPC   GL159401  20.862  43.017   5.784
 4490POPC   GL259402  20.966  43.371   5.712
 4490POPC   C1A59403  20.672  43.086   6.204
 4490POPC   D2A59404  20.634  43.014   6.641
 4490POPC   C3A59405  20.445  43.259   6.974
 4490POPC   C4A59406  20.482  42.896   7.251
 4490POPC   C1B59407  21.104  43.308   6.149
 4490POPC   C2B59408  20.913  43.427   6.537
 4490POPC   C3B59409  20.955  43.263   6.983
 4490POPC   C4B59410  20.847  43.211   7.457
 4491POPC   NC359411  26.482  21.937   5.308
 4491POPC   PO459412  27.012  21.557   5.436
 4491POPC   GL159413  26.772  21.784   5.799
 4491POPC   GL259414  26.403  21.853   5.819
 4491POPC   C1A59415  26.821  21.889   6.278
 4491POPC   D2A59416  26.759  21.940   6.763
 4491POPC   C3A59417  26.935  22.275   7.053
 4491POPC   C4A59418  26.845  22.335   7.500
 4491POPC   C1B59419  26.405  22.165   6.199
 4491POPC   C2B59420  26.465  22.348   6.637
 4491POPC   C3B59421  26.420  22.270   7.091
 4491POPC   C4B59422  26.357  22.033   7.494
 4492POPC   NC359423  25.799   7.017   5.213
 4492POPC   PO459424  26.187   7.427   5.056
 4492POPC   GL159425  25.918   7.429   5.526
 4492POPC   GL259426  26.073   7.664   5.784
 4492POPC   C1A59427  25.929   7.232   5.986
 4492POPC   D2A59428  25.989   7.200   6.469
 4492POPC   C3A59429  26.009   7.229   6.933
 4492POPC   C4A59430  26.011   7.454   7.360
 4492POPC   C1B59431  25.833   7.663   6.224
 4492POPC   C2B59432  25.825   7.645   6.692
 4492POPC   C3B59433  26.034   7.849   7.060
 4492POPC   C4B59434  25.913   7.960   7.499
 4493POPC   NC359435  26.103  32.837   5.226
 4493POPC   PO459436  25.619  33.159   5.539
 4493POPC   GL159437  25.956  33.023   5.751
 4493POPC   GL259438  25.951  32.680   5.716
 4493POPC   C1A59439  25.992  32.990   6.183
 4493POPC   D2A59440  25.779  32.902   6.553
 4493POPC   C3A59441  26.027  32.974   6.875
 4493POPC   C4A59442  25.928  33.001   7.282
 4493POPC   C1B59443  26.373  32.728   5.972
 4493POPC   C2B59444  26.386  32.762   6.458
 4493POPC   C3B59445  26.441  32.645   6.895
 4493POPC   C4B59446  26.210  32.586   7.254
 4494POPC   NC359447   5.772  22.155   4.959
 4494POPC   PO459448   6.232  22.066   5.377
 4494POPC   GL159449   5.868  22.015   5.672
 4494POPC   GL259450   6.036  21.781   5.853
 4494POPC   C1A59451   5.622  22.027   6.081
 4494POPC   D2A59452   5.643  22.050   6.559
 4494POPC   C3A59453   5.592  22.194   7.015
 4494POPC   C4A59454   5.818  22.184   7.431
 4494POPC   C1B59455   6.108  21.934   6.253
 4494POPC   C2B59456   6.047  21.749   6.640
 4494POPC   C3B59457   5.998  21.877   7.030
 4494POPC   C4B59458   5.675  21.714   7.256
 4495POPC   NC359459  19.324  23.118   5.359
 4495POPC   PO459460  18.849  23.577   5.464
 4495POPC   GL159461  18.969  23.147   5.728
 4495POPC   GL259462  18.951  23.283   6.062
 4495POPC   C1A59463  19.148  22.839   6.107
 4495POPC   D2A59464  19.030  22.956   6.530
 4495POPC   C3A59465  19.237  22.953   6.899
 4495POPC   C4A59466  19.167  22.830   7.308
 4495POPC   C1B59467  18.656  22.928   6.208
 4495POPC   C2B59468  18.528  22.785   6.632
 4495POPC   C3B59469  18.674  22.764   7.079
 4495POPC   C4B59470  18.721  22.869   7.541
 4496POPC   NC359471  41.163  36.732   5.217
 4496POPC   PO459472  40.648  36.806   5.418
 4496POPC   GL159473  40.575  36.854   5.860
 4496POPC   GL259474  40.704  37.173   5.898
 4496POPC   C1A59475  40.352  36.998   6.248
 4496POPC   D2A59476  40.585  37.007   6.611
 4496POPC   C3A59477  40.632  37.002   7.036
 4496POPC   C4A59478  40.831  36.657   7.167
 4496POPC   C1B59479  40.752  37.382   6.313
 4496POPC   C2B59480  40.901  37.372   6.762
 4496POPC   C3B59481  40.806  37.476   7.189
 4496POPC   C4B59482  40.760  37.541   7.642
 4497POPC   NC359483  13.667  11.933   5.380
 4497POPC   PO459484  13.604  12.572   5.314
 4497POPC   GL159485  13.469  12.306   5.711
 4497POPC   GL259486  13.793  12.178   5.832
 4497POPC   C1A59487  13.358  12.135   6.165
 4497POPC   D2A59488  13.200  12.057   6.622
 4497POPC   C3A59489  13.450  12.158   6.969
 4497POPC   C4A59490  13.872  12.130   7.170
 4497POPC   C1B59491  13.746  12.472   6.132
 4497POPC   C2B59492  13.651  12.358   6.532
 4497POPC   C3B59493  13.784  12.539   6.896
 4497POPC   C4B59494  14.045  12.618   7.222
 4498POPC   NC359495  18.251  13.128   5.306
 4498POPC   PO459496  18.705  12.632   5.386
 4498POPC   GL159497  18.514  12.740   5.796
 4498POPC   GL259498  18.155  12.817   5.800
 4498POPC   C1A59499  18.357  12.604   6.214
 4498POPC   D2A59500  18.561  12.604   6.619
 4498POPC   C3A59501  18.424  12.938   6.921
 4498POPC   C4A59502  18.078  13.090   7.184
 4498POPC   C1B59503  17.968  12.967   6.229
 4498POPC   C2B59504  17.949  12.863   6.681
 4498POPC   C3B59505  18.081  12.568   6.991
 4498POPC   C4B59506  18.021  12.596   7.423
 4499POPC   NC359507  10.981  31.900   5.349
 4499POPC   PO459508  11.388  32.479   5.290
 4499POPC   GL159509  11.356  32.319   5.750
 4499POPC   GL259510  11.079  32.114   5.806
 4499POPC   C1A59511  11.348  32.403   6.224
 4499POPC   D2A59512  11.237  32.540   6.677
 4499POPC   C3A59513  11.591  32.589   6.994
 4499POPC   C4A59514  11.702  32.322   7.334
 4499POPC   C1B59515  11.119  31.934   6.215
 4499POPC   C2B59516  11.016  31.856   6.655
 4499POPC   C3B59517  11.258  32.076   6.945
 4499POPC   C4B59518  11.197  32.372   7.233
 4500POPC   NC359519   1.955  22.551   5.473
 4500POPC   PO459520   2.159  21.936   5.300
 4500POPC   GL159521   1.927  22.066   5.721
 4500POPC   GL259522   2.097  22.355   5.911
 4500POPC   C1A59523   1.632  22.238   6.086
 4500POPC   D2A59524   1.819  22.456   6.480
 4500POPC   C3A59525   1.731  22.365   6.932
 4500POPC   C4A59526   1.852  22.269   7.363
 4500POPC   C1B59527   2.073  22.063   6.249
 4500POPC   C2B59528   2.230  22.148   6.674
 4500POPC   C3B59529   2.258  22.307   7.071
 4500POPC   C4B59530   2.304  22.049   7.455
 4501POPC   NC359531   5.547  40.552   5.583
 4501POPC   PO459532   5.066  41.020   5.349
 4501POPC   GL159533   5.183  40.892   5.748
 4501POPC   GL259534   5.001  40.595   5.913
 4501POPC   C1A59535   5.075  41.076   6.127
 4501POPC   D2A59536   4.931  40.807   6.421
 4501POPC   C3A59537   5.073  40.870   6.798
 4501POPC   C4A59538   4.941  40.763   7.170
 4501POPC   C1B59539   5.372  40.665   6.198
 4501POPC   C2B59540   5.514  40.676   6.624
 4501POPC   C3B59541   5.394  40.558   7.063
 4501POPC   C4B59542   5.192  40.410   7.428
 4502POPC   NC359543  35.018  41.589   5.508
 4502POPC   PO459544  35.169  41.154   5.814
 4502POPC   GL159545  35.255  41.600   5.985
 4502POPC   GL259546  34.990  41.853   5.947
 4502POPC   C1A59547  35.386  41.755   6.397
 4502POPC   D2A59548  35.546  41.496   6.747
 4502POPC   C3A59549  35.234  41.267   6.990
 4502POPC   C4A59550  34.894  41.479   7.240
 4502POPC   C1B59551  34.868  41.721   6.365
 4502POPC   C2B59552  35.040  41.676   6.775
 4502POPC   C3B59553  35.317  41.797   7.105
 4502POPC   C4B59554  35.681  41.792   7.376
 4503POPC   NC359555  39.182  14.292   5.331
 4503POPC   PO459556  39.017  13.704   5.556
 4503POPC   GL159557  39.188  14.086   5.803
 4503POPC   GL259558  38.960  14.388   5.869
 4503POPC   C1A59559  39.355  14.365   6.155
 4503POPC   D2A59560  39.150  14.353   6.532
 4503POPC   C3A59561  39.443  14.328   6.786
 4503POPC   C4A59562  39.535  14.382   7.197
 4503POPC   C1B59563  38.950  14.724   6.216
 4503POPC   C2B59564  38.879  14.848   6.639
 4503POPC   C3B59565  39.061  14.636   6.980
 4503POPC   C4B59566  39.218  14.751   7.366
 4504POPC   NC359567  31.438   9.293   5.503
 4504POPC   PO459568  31.193   8.668   5.454
 4504POPC   GL159569  31.612   8.824   5.720
 4504POPC   GL259570  31.826   9.157   5.797
 4504POPC   C1A59571  31.575   8.748   6.195
 4504POPC   D2A59572  31.473   8.572   6.642
 4504POPC   C3A59573  31.510   8.731   7.108
 4504POPC   C4A59574  31.546   8.679   7.634
 4504POPC   C1B59575  31.581   9.261   6.183
 4504POPC   C2B59576  31.564   9.069   6.611
 4504POPC   C3B59577  31.666   9.204   7.002
 4504POPC   C4B59578  31.726   9.108   7.434
 4505POPC   NC359579  23.808  28.813   5.665
 4505POPC   PO459580  23.441  29.252   5.247
 4505POPC   GL159581  23.577  29.334   5.727
 4505POPC   GL259582  23.439  29.100   5.948
 4505POPC   C1A59583  23.859  29.289   6.171
 4505POPC   D2A59584  23.845  29.367   6.623
 4505POPC   C3A59585  23.975  29.149   7.003
 4505POPC   C4A59586  24.118  29.411   7.336
 4505POPC   C1B59587  23.378  29.272   6.349
 4505POPC   C2B59588  23.365  29.381   6.751
 4505POPC   C3B59589  23.458  29.153   7.087
 4505POPC   C4B59590  23.278  28.875   7.361
 4506POPC   NC359591   5.621  43.236   5.566
 4506POPC   PO459592   6.048  43.033   5.096
 4506POPC   GL159593   5.985  42.918   5.679
 4506POPC   GL259594   5.616  42.952   5.965
 4506POPC   C1A59595   6.050  43.083   6.150
 4506POPC   D2A59596   5.837  43.097   6.566
 4506POPC   C3A59597   5.972  43.267   6.968
 4506POPC   C4A59598   5.888  43.028   7.356
 4506POPC   C1B59599   5.519  43.363   6.266
 4506POPC   C2B59600   5.394  43.349   6.730
 4506POPC   C3B59601   5.466  43.186   7.135
 4506POPC   C4B59602   5.444  43.212   7.599
 4507POPC   NC359603  23.985  27.911   5.492
 4507POPC   PO459604  23.414  27.529   5.466
 4507POPC   GL159605  23.803  27.418   5.702
 4507POPC   GL259606  23.758  27.709   5.896
 4507POPC   C1A59607  23.854  27.301   6.171
 4507POPC   D2A59608  23.695  27.443   6.587
 4507POPC   C3A59609  23.937  27.442   6.986
 4507POPC   C4A59610  23.997  27.284   7.398
 4507POPC   C1B59611  23.739  27.887   6.288
 4507POPC   C2B59612  23.904  27.889   6.673
 4507POPC   C3B59613  23.697  27.903   7.063
 4507POPC   C4B59614  23.800  27.754   7.459
 4508POPC   NC359615  10.112  27.083   5.482
 4508POPC   PO459616  10.504  26.562   5.338
 4508POPC   GL159617  10.530  26.868   5.716
 4508POPC   GL259618  10.278  26.989   5.950
 4508POPC   C1A59619  10.773  27.017   6.089
 4508POPC   D2A59620  10.983  27.140   6.489
 4508POPC   C3A59621  10.783  27.126   6.915
 4508POPC   C4A59622  10.982  26.849   7.211
 4508POPC   C1B59623  10.250  26.816   6.375
 4508POPC   C2B59624  10.288  26.875   6.841
 4508POPC   C3B59625  10.398  26.706   7.249
 4508POPC   C4B59626  10.148  26.570   7.636
 4509POPC   NC359627  16.931  29.515   5.337
 4509POPC   PO459628  16.644  30.182   5.253
 4509POPC   GL159629  16.796  29.928   5.636
 4509POPC   GL259630  16.553  29.680   5.673
 4509POPC   C1A59631  16.817  29.857   6.122
 4509POPC   D2A59632  16.653  29.963   6.574
 4509POPC   C3A59633  16.815  29.775   6.959
 4509POPC   C4A59634  16.990  29.827   7.402
 4509POPC   C1B59635  16.407  29.545   6.101
 4509POPC   C2B59636  16.521  29.453   6.517
 4509POPC   C3B59637  16.335  29.529   6.902
 4509POPC   C4B59638  16.476  29.612   7.317
 4510POPC   NC359639  20.685  35.924   5.283
 4510POPC   PO459640  20.575  35.311   5.227
 4510POPC   GL159641  20.561  35.478   5.657
 4510POPC   GL259642  20.882  35.519   5.647
 4510POPC   C1A59643  20.437  35.346   6.089
 4510POPC   D2A59644  20.431  35.045   6.407
 4510POPC   C3A59645  20.435  35.151   6.856
 4510POPC   C4A59646  20.493  35.380   7.259
 4510POPC   C1B59647  20.921  35.477   6.077
 4510POPC   C2B59648  20.757  35.443   6.497
 4510POPC   C3B59649  20.876  35.458   6.928
 4510POPC   C4B59650  21.020  35.431   7.347
 4511POPC   NC359651  40.248  40.603   5.473
 4511POPC   PO459652  40.132  41.305   5.568
 4511POPC   GL159653  40.129  40.947   5.834
 4511POPC   GL259654  39.805  40.726   5.813
 4511POPC   C1A59655  40.044  40.870   6.263
 4511POPC   D2A59656  39.947  41.069   6.630
 4511POPC   C3A59657  39.908  40.793   6.964
 4511POPC   C4A59658  40.162  40.893   7.312
 4511POPC   C1B59659  39.772  40.421   6.190
 4511POPC   C2B59660  39.872  40.311   6.621
 4511POPC   C3B59661  39.809  40.226   7.053
 4511POPC   C4B59662  39.726  40.518   7.377
 4512POPC   NC359663  37.182  36.833   5.281
 4512POPC   PO459664  36.654  37.085   5.414
 4512POPC   GL159665  36.893  36.885   5.758
 4512POPC   GL259666  37.160  37.086   5.741
 4512POPC   C1A59667  36.928  36.765   6.231
 4512POPC   D2A59668  37.040  36.662   6.677
 4512POPC   C3A59669  36.829  36.762   7.046
 4512POPC   C4A59670  37.047  36.823   7.424
 4512POPC   C1B59671  37.160  37.212   6.167
 4512POPC   C2B59672  37.166  37.174   6.622
 4512POPC   C3B59673  37.104  37.209   7.074
 4512POPC   C4B59674  36.767  37.260   7.358
 4513POPC   NC359675  30.290  33.177   5.525
 4513POPC   PO459676  29.958  32.744   5.085
 4513POPC   GL159677  30.026  32.747   5.640
 4513POPC   GL259678  30.337  32.841   5.906
 4513POPC   C1A59679  29.902  32.835   6.148
 4513POPC   D2A59680  30.137  32.867   6.574
 4513POPC   C3A59681  29.905  32.963   6.963
 4513POPC   C4A59682  29.540  33.237   7.108
 4513POPC   C1B59683  30.215  33.242   6.212
 4513POPC   C2B59684  30.160  33.443   6.678
 4513POPC   C3B59685  30.042  33.423   7.167
 4513POPC   C4B59686  30.203  33.383   7.640
 4514POPC   NC359687  39.728  43.585   5.563
 4514POPC   PO459688  39.628  44.265   5.376
 4514POPC   GL159689  39.834  44.119   5.770
 4514POPC   GL259690  40.174  43.922   5.776
 4514POPC   C1A59691  39.822  43.853   6.162
 4514POPC   D2A59692  39.961  43.724   6.586
 4514POPC   C3A59693  39.679  43.584   6.889
 4514POPC   C4A59694  39.743  43.664   7.290
 4514POPC   C1B59695  40.248  43.600   6.132
 4514POPC   C2B59696  40.328  43.386   6.479
 4514POPC   C3B59697  40.425  43.604   6.832
 4514POPC   C4B59698  40.261  43.625   7.261
 4515POPC   NC359699   3.752  23.155   5.409
 4515POPC   PO459700   3.212  22.774   5.370
 4515POPC   GL159701   3.447  22.842   5.764
 4515POPC   GL259702   3.293  22.588   5.955
 4515POPC   C1A59703   3.714  22.779   6.153
 4515POPC   D2A59704   3.750  22.586   6.593
 4515POPC   C3A59705   3.647  22.874   6.922
 4515POPC   C4A59706   3.518  23.204   7.185
 4515POPC   C1B59707   3.273  22.700   6.401
 4515POPC   C2B59708   3.155  22.923   6.777
 4515POPC   C3B59709   3.047  22.989   7.205
 4515POPC   C4B59710   2.951  22.837   7.609
 4516POPC   NC359711  38.203  35.047   5.397
 4516POPC   PO459712  38.430  35.694   5.440
 4516POPC   GL159713  38.528  35.364   5.763
 4516POPC   GL259714  38.481  34.971   5.818
 4516POPC   C1A59715  38.634  35.295   6.207
 4516POPC   D2A59716  38.459  35.267   6.617
 4516POPC   C3A59717  38.571  35.477   6.957
 4516POPC   C4A59718  38.366  35.596   7.302
 4516POPC   C1B59719  38.310  34.886   6.254
 4516POPC   C2B59720  38.209  34.852   6.719
 4516POPC   C3B59721  38.183  35.138   7.102
 4516POPC   C4B59722  37.947  35.083   7.487
 4517POPC   NC359723  15.507  37.221   5.412
 4517POPC   PO459724  15.623  36.563   5.527
 4517POPC   GL159725  15.567  36.901   5.819
 4517POPC   GL259726  15.936  36.930   5.864
 4517POPC   C1A59727  15.390  36.966   6.233
 4517POPC   D2A59728  15.553  36.822   6.696
 4517POPC   C3A59729  15.690  37.013   7.092
 4517POPC   C4A59730  15.667  37.259   7.490
 4517POPC   C1B59731  16.193  36.801   6.238
 4517POPC   C2B59732  16.049  36.718   6.652
 4517POPC   C3B59733  16.186  36.790   7.061
 4517POPC   C4B59734  16.496  36.508   7.138
 4518POPC   NC359735  19.777  37.364   5.092
 4518POPC   PO459736  19.806  36.696   5.294
 4518POPC   GL159737  19.946  36.883   5.684
 4518POPC   GL259738  20.011  36.545   5.793
 4518POPC   C1A59739  19.821  36.992   6.132
 4518POPC   D2A59740  19.896  36.817   6.563
 4518POPC   C3A59741  20.021  37.060   6.912
 4518POPC   C4A59742  19.791  37.034   7.296
 4518POPC   C1B59743  19.756  36.484   6.185
 4518POPC   C2B59744  19.630  36.395   6.635
 4518POPC   C3B59745  19.714  36.539   7.085
 4518POPC   C4B59746  19.743  36.594   7.560
 4519POPC   NC359747  37.093  20.795   5.053
 4519POPC   PO459748  36.815  20.206   5.314
 4519POPC   GL159749  36.986  20.513   5.625
 4519POPC   GL259750  36.665  20.564   5.790
 4519POPC   C1A59751  37.055  20.831   5.992
 4519POPC   D2A59752  36.863  20.873   6.433
 4519POPC   C3A59753  37.059  20.830   6.866
 4519POPC   C4A59754  36.878  20.786   7.291
 4519POPC   C1B59755  36.920  20.338   6.133
 4519POPC   C2B59756  36.996  20.099   6.530
 4519POPC   C3B59757  36.957  20.237   6.966
 4519POPC   C4B59758  36.592  20.344   7.244
 4520POPC   NC359759  38.500  33.461   5.379
 4520POPC   PO459760  38.777  34.132   5.488
 4520POPC   GL159761  38.466  33.892   5.791
 4520POPC   GL259762  38.461  33.541   5.870
 4520POPC   C1A59763  38.301  33.869   6.214
 4520POPC   D2A59764  38.385  34.119   6.549
 4520POPC   C3A59765  38.434  34.003   6.960
 4520POPC   C4A59766  38.559  33.980   7.383
 4520POPC   C1B59767  38.503  33.377   6.287
 4520POPC   C2B59768  38.439  33.518   6.714
 4520POPC   C3B59769  38.733  33.600   7.066
 4520POPC   C4B59770  38.707  33.508   7.515
 4521POPC   NC359771  36.463   2.537   5.372
 4521POPC   PO459772  35.833   2.673   5.585
 4521POPC   GL159773  36.201   2.875   5.759
 4521POPC   GL259774  35.968   3.092   5.927
 4521POPC   C1A59775  36.259   2.759   6.196
 4521POPC   D2A59776  35.924   2.832   6.522
 4521POPC   C3A59777  36.025   2.667   6.931
 4521POPC   C4A59778  35.868   2.341   7.243
 4521POPC   C1B59779  36.199   3.227   6.311
 4521POPC   C2B59780  36.273   3.143   6.747
 4521POPC   C3B59781  36.066   3.159   7.143
 4521POPC   C4B59782  35.938   2.816   7.418
 4522POPC   NC359783  37.246  27.782   5.146
 4522POPC   PO459784  37.776  27.459   5.517
 4522POPC   GL159785  37.839  27.814   5.795
 4522POPC   GL259786  37.475  27.812   5.800
 4522POPC   C1A59787  38.053  27.798   6.229
 4522POPC   D2A59788  38.009  27.489   6.559
 4522POPC   C3A59789  37.931  27.636   6.943
 4522POPC   C4A59790  37.760  27.692   7.317
 4522POPC   C1B59791  37.607  27.583   6.188
 4522POPC   C2B59792  37.599  27.800   6.600
 4522POPC   C3B59793  37.363  27.732   6.997
 4522POPC   C4B59794  37.348  27.421   7.351
 4523POPC   NC359795  44.358  44.644   5.574
 4523POPC   PO459796  43.820  44.818   5.190
 4523POPC   GL159797  43.814  44.620   5.653
 4523POPC   GL259798  44.093  44.547   5.969
 4523POPC   C1A59799  43.638  44.650   6.088
 4523POPC   D2A59800  43.886  44.835   6.412
 4523POPC   C3A59801  43.727  44.872   6.831
 4523POPC   C4A59802  43.868  44.760   7.252
 4523POPC   C1B59803  43.979  44.277   6.307
 4523POPC   C2B59804  44.006  44.441   6.699
 4523POPC   C3B59805  44.234  44.555   7.006
 4523POPC   C4B59806  44.126  44.273   7.329
 4524POPC   NC359807  41.773   9.400   5.296
 4524POPC   PO459808  41.846  10.000   5.521
 4524POPC   GL159809  41.499   9.786   5.754
 4524POPC   GL259810  41.125   9.916   5.749
 4524POPC   C1A59811  41.567   9.649   6.172
 4524POPC   D2A59812  41.456   9.562   6.580
 4524POPC   C3A59813  41.721   9.691   6.925
 4524POPC   C4A59814  41.609   9.847   7.347
 4524POPC   C1B59815  41.278  10.090   6.138
 4524POPC   C2B59816  41.517  10.050   6.504
 4524POPC   C3B59817  41.327   9.987   6.908
 4524POPC   C4B59818  41.154  10.044   7.289
 4525POPC   NC359819  27.337  26.147   5.467
 4525POPC   PO459820  27.949  26.370   5.502
 4525POPC   GL159821  27.725  26.213   5.860
 4525POPC   GL259822  27.462  26.399   5.887
 4525POPC   C1A59823  27.573  26.057   6.288
 4525POPC   D2A59824  27.855  25.870   6.637
 4525POPC   C3A59825  27.756  25.961   7.072
 4525POPC   C4A59826  27.388  26.059   7.334
 4525POPC   C1B59827  27.685  26.536   6.300
 4525POPC   C2B59828  27.566  26.397   6.713
 4525POPC   C3B59829  27.669  26.458   7.168
 4525POPC   C4B59830  27.832  26.199   7.546
 4526POPC   NC359831  12.003  24.155   5.369
 4526POPC   PO459832  11.839  24.882   5.363
 4526POPC   GL159833  12.031  24.653   5.693
 4526POPC   GL259834  11.840  24.831   5.914
 4526POPC   C1A59835  12.268  24.606   6.109
 4526POPC   D2A59836  12.334  24.315   6.469
 4526POPC   C3A59837  12.093  24.403   6.845
 4526POPC   C4A59838  12.060  24.300   7.286
 4526POPC   C1B59839  11.787  24.690   6.329
 4526POPC   C2B59840  11.869  24.827   6.737
 4526POPC   C3B59841  11.743  24.670   7.147
 4526POPC   C4B59842  11.779  24.616   7.621
 4527POPC   NC359843  13.885  16.956   5.348
 4527POPC   PO459844  13.494  16.512   5.579
 4527POPC   GL159845  13.614  16.801   5.926
 4527POPC   GL259846  13.566  17.167   5.841
 4527POPC   C1A59847  13.835  16.916   6.338
 4527POPC   D2A59848  14.021  17.028   6.760
 4527POPC   C3A59849  13.802  16.882   7.115
 4527POPC   C4A59850  13.574  16.536   7.284
 4527POPC   C1B59851  13.428  17.266   6.279
 4527POPC   C2B59852  13.557  17.224   6.738
 4527POPC   C3B59853  13.457  17.258   7.197
 4527POPC   C4B59854  13.247  17.047   7.528
 4528POPC   NC359855  39.412  36.454   5.436
 4528POPC   PO459856  39.393  35.777   5.183
 4528POPC   GL159857  39.307  35.911   5.631
 4528POPC   GL259858  39.044  36.150   5.675
 4528POPC   C1A59859  39.303  36.006   6.116
 4528POPC   D2A59860  39.492  36.174   6.529
 4528POPC   C3A59861  39.314  36.083   6.950
 4528POPC   C4A59862  39.366  35.820   7.347
 4528POPC   C1B59863  38.869  36.296   6.078
 4528POPC   C2B59864  38.992  36.340   6.512
 4528POPC   C3B59865  38.775  36.418   6.897
 4528POPC   C4B59866  38.932  36.245   7.259
 4529POPC   NC359867   0.680  30.941   5.505
 4529POPC   PO459868   0.287  30.441   5.192
 4529POPC   GL159869   0.307  30.614   5.660
 4529POPC   GL259870   0.602  30.478   5.809
 4529POPC   C1A59871   0.405  30.911   6.086
 4529POPC   D2A59872   0.452  30.765   6.559
 4529POPC   C3A59873   0.430  30.944   7.015
 4529POPC   C4A59874   0.407  30.857   7.496
 4529POPC   C1B59875   0.312  30.421   6.169
 4529POPC   C2B59876   0.304  30.280   6.600
 4529POPC   C3B59877   0.395  30.437   6.966
 4529POPC   C4B59878   0.555  30.330   7.307
 4530POPC   NC359879   1.089   6.033   5.336
 4530POPC   PO459880   1.544   5.600   5.274
 4530POPC   GL159881   1.469   5.825   5.721
 4530POPC   GL259882   1.181   6.075   5.836
 4530POPC   C1A59883   1.415   5.698   6.186
 4530POPC   D2A59884   1.196   5.543   6.585
 4530POPC   C3A59885   1.371   5.647   6.994
 4530POPC   C4A59886   1.199   5.735   7.413
 4530POPC   C1B59887   1.019   6.009   6.237
 4530POPC   C2B59888   1.175   6.057   6.639
 4530POPC   C3B59889   0.983   5.973   7.015
 4530POPC   C4B59890   0.963   6.188   7.417
 4531POPC   NC359891   2.246   2.970   5.538
 4531POPC   PO459892   2.028   3.453   5.090
 4531POPC   GL159893   1.998   3.423   5.616
 4531POPC   GL259894   2.189   3.702   5.760
 4531POPC   C1A59895   1.808   3.492   6.091
 4531POPC   D2A59896   1.770   3.684   6.555
 4531POPC   C3A59897   2.017   3.584   6.958
 4531POPC   C4A59898   1.873   3.370   7.385
 4531POPC   C1B59899   2.276   3.674   6.201
 4531POPC   C2B59900   2.377   3.514   6.586
 4531POPC   C3B59901   2.421   3.265   6.942
 4531POPC   C4B59902   2.669   3.141   7.287
 4532POPC   NC359903   3.563  21.677   5.500
 4532POPC   PO459904   3.367  21.040   5.507
 4532POPC   GL159905   3.398  21.195   5.915
 4532POPC   GL259906   3.544  21.492   5.970
 4532POPC   C1A59907   3.302  21.268   6.358
 4532POPC   D2A59908   3.577  21.149   6.680
 4532POPC   C3A59909   3.672  21.408   6.983
 4532POPC   C4A59910   3.351  21.534   7.194
 4532POPC   C1B59911   3.733  21.750   6.287
 4532POPC   C2B59912   3.719  21.930   6.700
 4532POPC   C3B59913   3.721  21.893   7.146
 4532POPC   C4B59914   3.812  21.762   7.566
 4533POPC   NC359915  35.497   0.315   5.475
 4533POPC   PO459916  35.305   0.935   5.308
 4533POPC   GL159917  35.271   0.699   5.730
 4533POPC   GL259918  35.628   0.602   5.877
 4533POPC   C1A59919  35.190   0.591   6.179
 4533POPC   D2A59920  35.460   0.566   6.543
 4533POPC   C3A59921  35.275   0.633   6.949
 4533POPC   C4A59922  35.269   0.900   7.305
 4533POPC   C1B59923  35.541   0.208   6.158
 4533POPC   C2B59924  35.466   0.045   6.586
 4533POPC   C3B59925  35.229   0.097   6.937
 4533POPC   C4B59926  35.295   0.248   7.323
 4534POPC   NC359927  23.219  44.939   5.368
 4534POPC   PO459928  22.649  44.636   5.431
 4534POPC   GL159929  22.799  44.531   5.845
 4534POPC   GL259930  23.140  44.498   5.811
 4534POPC   C1A59931  22.885  44.593   6.289
 4534POPC   D2A59932  22.745  44.812   6.659
 4534POPC   C3A59933  22.721  44.589   7.042
 4534POPC   C4A59934  22.476  44.249   7.131
 4534POPC   C1B59935  23.241  44.847   6.045
 4534POPC   C2B59936  23.254  44.861   6.519
 4534POPC   C3B59937  23.210  44.743   6.966
 4534POPC   C4B59938  23.115  44.431   7.307
 4535POPC   NC359939  43.452  12.045   5.372
 4535POPC   PO459940  42.880  12.422   5.178
 4535POPC   GL159941  43.114  12.311   5.606
 4535POPC   GL259942  43.085  11.968   5.709
 4535POPC   C1A59943  43.130  12.276   6.092
 4535POPC   D2A59944  42.939  12.255   6.513
 4535POPC   C3A59945  43.242  12.161   6.819
 4535POPC   C4A59946  43.187  12.148   7.259
 4535POPC   C1B59947  43.143  11.766   6.124
 4535POPC   C2B59948  43.157  11.699   6.579
 4535POPC   C3B59949  43.252  11.693   7.023
 4535POPC   C4B59950  43.607  11.892   7.262
 4536POPC   NC359951   7.295  16.718   5.489
 4536POPC   PO459952   7.935  16.490   5.406
 4536POPC   GL159953   7.762  16.700   5.744
 4536POPC   GL259954   7.661  17.034   5.724
 4536POPC   C1A59955   7.605  16.451   6.096
 4536POPC   D2A59956   7.866  16.452   6.469
 4536POPC   C3A59957   7.723  16.463   6.915
 4536POPC   C4A59958   7.382  16.533   7.239
 4536POPC   C1B59959   7.706  16.939   6.201
 4536POPC   C2B59960   7.860  16.941   6.667
 4536POPC   C3B59961   7.721  16.946   7.128
 4536POPC   C4B59962   7.527  16.899   7.564
 4537POPC   NC359963   9.180  25.914   5.315
 4537POPC   PO459964   8.999  26.570   5.474
 4537POPC   GL159965   9.236  26.277   5.756
 4537POPC   GL259966   9.116  25.944   5.818
 4537POPC   C1A59967   9.389  26.173   6.211
 4537POPC   D2A59968   9.321  25.996   6.653
 4537POPC   C3A59969   9.024  26.187   6.933
 4537POPC   C4A59970   9.067  26.335   7.332
 4537POPC   C1B59971   9.106  25.716   6.207
 4537POPC   C2B59972   9.068  25.542   6.622
 4537POPC   C3B59973   9.062  25.672   7.058
 4537POPC   C4B59974   9.064  25.387   7.437
 4538POPC   NC359975  15.015   9.367   5.626
 4538POPC   PO459976  15.437   8.921   5.317
 4538POPC   GL159977  15.509   9.007   5.821
 4538POPC   GL259978  15.418   9.332   5.979
 4538POPC   C1A59979  15.340   8.915   6.267
 4538POPC   D2A59980  14.942   8.848   6.512
 4538POPC   C3A59981  15.001   8.799   6.950
 4538POPC   C4A59982  15.266   8.736   7.288
 4538POPC   C1B59983  15.076   9.380   6.274
 4538POPC   C2B59984  15.086   9.335   6.699
 4538POPC   C3B59985  15.173   9.250   7.099
 4538POPC   C4B59986  14.895   9.095   7.380
 4539POPC   NC359987   5.832  31.253   5.408
 4539POPC   PO459988   6.036  31.909   5.536
 4539POPC   GL159989   6.030  31.828   5.932
 4539POPC   GL259990   6.057  31.465   5.825
 4539POPC   C1A59991   6.040  31.855   6.376
 4539POPC   D2A59992   5.744  31.724   6.667
 4539POPC   C3A59993   5.818  31.555   7.054
 4539POPC   C4A59994   5.559  31.251   7.235
 4539POPC   C1B59995   6.063  31.364   6.279
 4539POPC   C2B59996   6.196  31.402   6.733
 4539POPC   C3B59997   6.156  31.159   7.152
 4539POPC   C4B59998   6.141  31.101   7.639
 4540POPC   NC359999  41.518  20.322   5.486
 4540POPC   PO460000  42.111  20.593   5.467
 4540POPC   GL160001  41.940  20.376   5.818
 4540POPC   GL260002  41.668  20.610   5.914
 4540POPC   C1A60003  41.677  20.138   6.115
 4540POPC   D2A60004  41.437  20.358   6.430
 4540POPC   C3A60005  41.539  20.323   6.894
 4540POPC   C4A60006  41.746  20.369   7.334
 4540POPC   C1B60007  41.442  20.842   6.242
 4540POPC   C2B60008  41.429  20.812   6.687
 4540POPC   C3B60009  41.386  20.951   7.096
 4540POPC   C4B60010  41.481  20.889   7.526
 4541POPC   NC360011  26.697  32.481   5.428
 4541POPC   PO460012  26.663  31.929   5.729
 4541POPC   GL160013  27.006  32.244   5.826
 4541POPC   GL260014  26.903  32.580   5.891
 4541POPC   C1A60015  27.212  32.264   6.243
 4541POPC   D2A60016  27.118  32.110   6.664
 4541POPC   C3A60017  26.685  32.110   6.788
 4541POPC   C4A60018  26.541  32.217   7.178
 4541POPC   C1B60019  26.725  32.435   6.247
 4541POPC   C2B60020  26.860  32.578   6.617
 4541POPC   C3B60021  26.924  32.515   7.045
 4541POPC   C4B60022  26.758  32.752   7.426
 4542POPC   NC360023  44.429  21.659   5.390
 4542POPC   PO460024  44.971  21.282   5.451
 4542POPC   GL160025  44.888  21.388   5.868
 4542POPC   GL260026  44.539  21.412   5.818
 4542POPC   C1A60027  44.795  21.609   6.257
 4542POPC   D2A60028  44.579  21.666   6.650
 4542POPC   C3A60029  44.846  21.564   6.959
 4542POPC   C4A60030  44.962  21.264   7.252
 4542POPC   C1B60031  44.355  21.320   6.178
 4542POPC   C2B60032  44.546  21.169   6.520
 4542POPC   C3B60033  44.405  21.231   6.901
 4542POPC   C4B60034  44.472  21.377   7.259
 4543POPC   NC360035  34.997  20.991   5.441
 4543POPC   PO460036  34.484  20.655   5.111
 4543POPC   GL160037  34.399  20.681   5.625
 4543POPC   GL260038  34.733  20.709   5.768
 4543POPC   C1A60039  34.448  20.460   6.084
 4543POPC   D2A60040  34.499  20.630   6.537
 4543POPC   C3A60041  34.426  20.425   6.947
 4543POPC   C4A60042  34.288  20.573   7.386
 4543POPC   C1B60043  34.888  20.727   6.209
 4543POPC   C2B60044  35.098  20.926   6.580
 4543POPC   C3B60045  35.087  20.910   7.030
 4543POPC   C4B60046  34.782  20.662   7.242
 4544POPC   NC360047   8.697  37.829   5.453
 4544POPC   PO460048   9.301  37.570   5.323
 4544POPC   GL160049   9.066  37.668   5.769
 4544POPC   GL260050   8.886  37.970   5.897
 4544POPC   C1A60051   8.836  37.555   6.182
 4544POPC   D2A60052   8.624  37.531   6.615
 4544POPC   C3A60053   8.890  37.639   6.996
 4544POPC   C4A60054   9.332  37.670   7.132
 4544POPC   C1B60055   9.177  37.989   6.265
 4544POPC   C2B60056   9.253  37.979   6.721
 4544POPC   C3B60057   9.148  38.168   7.104
 4544POPC   C4B60058   9.002  37.934   7.440
 4545POPC   NC360059  12.437  39.245   5.378
 4545POPC   PO460060  13.061  39.122   5.280
 4545POPC   GL160061  12.966  38.924   5.707
 4545POPC   GL260062  12.601  38.887   5.753
 4545POPC   C1A60063  12.966  39.076   6.176
 4545POPC   D2A60064  12.938  38.889   6.617
 4545POPC   C3A60065  12.859  39.072   7.060
 4545POPC   C4A60066  12.650  39.385   7.369
 4545POPC   C1B60067  12.467  39.149   6.112
 4545POPC   C2B60068  12.585  39.261   6.541
 4545POPC   C3B60069  12.379  39.193   6.931
 4545POPC   C4B60070  12.327  38.969   7.292
 4546POPC   NC360071  39.124   1.588   5.645
 4546POPC   PO460072  39.108   2.197   5.278
 4546POPC   GL160073  39.293   2.150   5.713
 4546POPC   GL260074  39.033   2.016   5.921
 4546POPC   C1A60075  39.379   2.309   6.166
 4546POPC   D2A60076  39.326   2.116   6.577
 4546POPC   C3A60077  39.318   2.289   6.984
 4546POPC   C4A60078  38.992   2.144   7.275
 4546POPC   C1B60079  38.989   1.809   6.310
 4546POPC   C2B60080  39.211   1.596   6.591
 4546POPC   C3B60081  39.203   1.750   6.989
 4546POPC   C4B60082  39.423   1.905   7.343
 4547POPC   NC360083   4.818  10.881   5.712
 4547POPC   PO460084   4.266  10.804   5.351
 4547POPC   GL160085   4.312  11.024   5.783
 4547POPC   GL260086   4.145  10.837   6.004
 4547POPC   C1A60087   4.420  11.186   6.253
 4547POPC   D2A60088   4.396  11.035   6.718
 4547POPC   C3A60089   4.426  11.376   7.023
 4547POPC   C4A60090   4.667  11.714   7.256
 4547POPC   C1B60091   4.519  10.702   6.288
 4547POPC   C2B60092   4.845  10.776   6.630
 4547POPC   C3B60093   4.757  10.835   7.067
 4547POPC   C4B60094   4.364  10.916   7.249
 4548POPC   NC360095   1.188  25.759   4.979
 4548POPC   PO460096   1.209  26.273   5.409
 4548POPC   GL160097   1.048  26.093   5.836
 4548POPC   GL260098   1.019  25.732   5.801
 4548POPC   C1A60099   1.075  25.998   6.302
 4548POPC   D2A60100   1.258  25.699   6.617
 4548POPC   C3A60101   1.344  25.893   7.023
 4548POPC   C4A60102   1.493  25.965   7.436
 4548POPC   C1B60103   0.699  25.697   6.119
 4548POPC   C2B60104   0.759  25.628   6.535
 4548POPC   C3B60105   0.835  25.843   6.904
 4548POPC   C4B60106   0.982  25.638   7.290
 4549POPC   NC360107   0.194  44.433   5.353
 4549POPC   PO460108   0.506  44.977   5.501
 4549POPC   GL160109   0.413  44.632   5.832
 4549POPC   GL260110   0.398  44.261   5.824
 4549POPC   C1A60111   0.468  44.523   6.290
 4549POPC   D2A60112   0.690  44.815   6.585
 4549POPC   C3A60113   0.463  44.873   6.911
 4549POPC   C4A60114   0.294  44.561   7.134
 4549POPC   C1B60115   0.041  44.260   6.144
 4549POPC   C2B60116  44.983  44.379   6.613
 4549POPC   C3B60117   0.021  44.154   7.038
 4549POPC   C4B60118   0.330  44.097   7.385
 4550POPC   NC360119  10.355  18.837   5.346
 4550POPC   PO460120  10.893  19.173   5.504
 4550POPC   GL160121  10.665  19.076   5.852
 4550POPC   GL260122  10.377  18.855   5.861
 4550POPC   C1A60123  10.566  19.225   6.243
 4550POPC   D2A60124  10.294  19.007   6.500
 4550POPC   C3A60125  10.267  19.154   6.908
 4550POPC   C4A60126  10.274  18.842   7.194
 4550POPC   C1B60127  10.646  18.693   6.218
 4550POPC   C2B60128  10.821  18.911   6.573
 4550POPC   C3B60129  10.747  18.932   6.991
 4550POPC   C4B60130  10.827  18.580   7.264
 4551POPC   NC360131  44.917   1.288   5.391
 4551POPC   PO460132  44.289   1.033   5.345
 4551POPC   GL160133  44.497   1.177   5.702
 4551POPC   GL260134  44.465   1.536   5.650
 4551POPC   C1A60135  44.586   1.033   6.137
 4551POPC   D2A60136  44.618   1.119   6.590
 4551POPC   C3A60137  44.335   1.005   6.939
 4551POPC   C4A60138  44.168   1.348   7.216
 4551POPC   C1B60139  44.772   1.523   6.007
 4551POPC   C2B60140  44.828   1.579   6.425
 4551POPC   C3B60141  44.822   1.529   6.836
 4551POPC   C4B60142  44.690   1.290   7.178
 4552POPC   NC360143  22.507  43.741   5.225
 4552POPC   PO460144  23.046  44.131   5.472
 4552POPC   GL160145  22.889  44.011   5.861
 4552POPC   GL260146  22.991  43.707   5.797
 4552POPC   C1A60147  22.668  44.141   6.211
 4552POPC   D2A60148  22.663  44.275   6.629
 4552POPC   C3A60149  23.017  44.157   6.875
 4552POPC   C4A60150  22.870  43.955   7.233
 4552POPC   C1B60151  22.921  43.591   6.215
 4552POPC   C2B60152  23.116  43.606   6.674
 4552POPC   C3B60153  23.150  43.549   7.157
 4552POPC   C4B60154  23.186  43.591   7.649
 4553POPC   NC360155   4.004  17.181   5.431
 4553POPC   PO460156   4.709  17.404   5.454
 4553POPC   GL160157   4.319  17.524   5.697
 4553POPC   GL260158   4.228  17.252   5.899
 4553POPC   C1A60159   4.216  17.745   6.093
 4553POPC   D2A60160   4.262  17.522   6.492
 4553POPC   C3A60161   4.151  17.686   6.887
 4553POPC   C4A60162   4.017  17.821   7.312
 4553POPC   C1B60163   4.615  17.411   6.107
 4553POPC   C2B60164   4.751  17.445   6.504
 4553POPC   C3B60165   4.658  17.190   6.813
 4553POPC   C4B60166   4.452  17.296   7.171
 4554POPC   NC360167  42.131  14.595   5.371
 4554POPC   PO460168  42.297  13.946   5.437
 4554POPC   GL160169  42.365  14.105   5.855
 4554POPC   GL260170  42.075  14.282   5.817
 4554POPC   C1A60171  42.491  13.972   6.316
 4554POPC   D2A60172  42.547  13.967   6.802
 4554POPC   C3A60173  42.487  14.349   7.065
 4554POPC   C4A60174  42.621  14.825   7.143
 4554POPC   C1B60175  42.004  14.143   6.223
 4554POPC   C2B60176  42.149  14.295   6.617
 4554POPC   C3B60177  42.215  14.695   6.824
 4554POPC   C4B60178  42.146  14.724   7.275
 4555POPC   NC360179  35.199  29.608   5.578
 4555POPC   PO460180  35.675  30.118   5.311
 4555POPC   GL160181  35.566  30.071   5.777
 4555POPC   GL260182  35.237  30.221   5.825
 4555POPC   C1A60183  35.643  30.080   6.241
 4555POPC   D2A60184  35.424  30.126   6.647
 4555POPC   C3A60185  35.711  30.137   7.007
 4555POPC   C4A60186  35.700  30.041   7.452
 4555POPC   C1B60187  35.154  29.965   6.190
 4555POPC   C2B60188  35.289  29.625   6.480
 4555POPC   C3B60189  35.410  29.640   6.917
 4555POPC   C4B60190  35.261  29.962   7.202
 4556POPC   NC360191   3.086   2.879   5.361
 4556POPC   PO460192   2.446   2.740   5.177
 4556POPC   GL160193   2.689   2.780   5.642
 4556POPC   GL260194   2.837   2.485   5.741
 4556POPC   C1A60195   2.687   2.899   6.090
 4556POPC   D2A60196   2.614   3.068   6.487
 4556POPC   C3A60197   2.693   2.828   6.863
 4556POPC   C4A60198   2.976   2.732   7.201
 4556POPC   C1B60199   2.623   2.403   6.144
 4556POPC   C2B60200   2.693   2.414   6.554
 4556POPC   C3B60201   3.057   2.411   6.796
 4556POPC   C4B60202   3.346   2.356   7.141
 4557POPC   NC360203  38.885   8.373   5.491
 4557POPC   PO460204  38.267   8.030   5.263
 4557POPC   GL160205  38.428   8.009   5.725
 4557POPC   GL260206  38.483   8.344   5.792
 4557POPC   C1A60207  38.324   8.142   6.219
 4557POPC   D2A60208  38.205   8.420   6.574
 4557POPC   C3A60209  38.399   8.317   6.978
 4557POPC   C4A60210  38.323   8.078   7.301
 4557POPC   C1B60211  38.766   8.411   6.141
 4557POPC   C2B60212  38.731   8.334   6.574
 4557POPC   C3B60213  38.879   8.531   6.946
 4557POPC   C4B60214  38.711   8.655   7.348
 4558POPC   NC360215  16.155  28.155   5.486
 4558POPC   PO460216  15.488  28.380   5.304
 4558POPC   GL160217  15.826  28.506   5.709
 4558POPC   GL260218  16.226  28.491   5.877
 4558POPC   C1A60219  15.825  28.446   6.179
 4558POPC   D2A60220  15.822  28.704   6.581
 4558POPC   C3A60221  15.834  28.597   7.034
 4558POPC   C4A60222  15.855  28.170   7.240
 4558POPC   C1B60223  16.274  28.602   6.354
 4558POPC   C2B60224  16.176  28.303   6.693
 4558POPC   C3B60225  16.326  28.259   7.098
 4558POPC   C4B60226  16.282  28.668   7.267
 4559POPC   NC360227  36.802   5.402   5.429
 4559POPC   PO460228  37.047   4.759   5.486
 4559POPC   GL160229  36.737   4.787   5.803
 4559POPC   GL260230  36.666   5.140   5.826
 4559POPC   C1A60231  36.759   4.944   6.261
 4559POPC   D2A60232  37.130   5.155   6.448
 4559POPC   C3A60233  37.103   5.132   6.876
 4559POPC   C4A60234  36.801   4.937   7.186
 4559POPC   C1B60235  36.854   5.472   6.117
 4559POPC   C2B60236  36.750   5.642   6.540
 4559POPC   C3B60237  36.688   5.415   6.918
 4559POPC   C4B60238  36.997   5.412   7.287
 4560POPC   NC360239  44.756   9.657   5.209
 4560POPC   PO460240  44.210   9.402   5.497
 4560POPC   GL160241  44.504   9.651   5.760
 4560POPC   GL260242  44.876   9.719   5.728
 4560POPC   C1A60243  44.570   9.650   6.229
 4560POPC   D2A60244  44.368   9.716   6.659
 4560POPC   C3A60245  44.607   9.572   7.052
 4560POPC   C4A60246  44.612   9.725   7.473
 4560POPC   C1B60247   0.066   9.639   6.169
 4560POPC   C2B60248  44.917   9.675   6.639
 4560POPC   C3B60249   0.007   9.893   7.080
 4560POPC   C4B60250   0.058   9.964   7.556
 4561POPC   NC360251  39.218  19.956   5.460
 4561POPC   PO460252  39.222  19.314   5.543
 4561POPC   GL160253  39.050  19.595   5.789
 4561POPC   GL260254  39.368  19.815   5.916
 4561POPC   C1A60255  39.032  19.599   6.213
 4561POPC   D2A60256  39.239  19.904   6.497
 4561POPC   C3A60257  39.127  19.737   6.880
 4561POPC   C4A60258  39.134  19.838   7.259
 4561POPC   C1B60259  38.986  20.083   6.050
 4561POPC   C2B60260  38.876  20.275   6.423
 4561POPC   C3B60261  38.904  20.190   6.837
 4561POPC   C4B60262  38.814  20.278   7.255
 4562POPC   NC360263  44.211  16.019   5.505
 4562POPC   PO460264  43.583  15.803   5.583
 4562POPC   GL160265  43.865  15.890   5.954
 4562POPC   GL260266  44.105  16.175   5.972
 4562POPC   C1A60267  43.800  15.802   6.417
 4562POPC   D2A60268  43.554  15.983   6.772
 4562POPC   C3A60269  43.688  15.872   7.181
 4562POPC   C4A60270  43.870  15.996   7.610
 4562POPC   C1B60271  43.978  16.270   6.391
 4562POPC   C2B60272  43.961  16.282   6.826
 4562POPC   C3B60273  44.160  16.181   7.225
 4562POPC   C4B60274  44.090  16.473   7.595
 4563POPC   NC360275  43.344  31.982   5.404
 4563POPC   PO460276  42.678  32.077   5.502
 4563POPC   GL160277  42.984  32.056   5.792
 4563POPC   GL260278  43.245  32.305   5.794
 4563POPC   C1A60279  42.988  31.918   6.203
 4563POPC   D2A60280  42.930  32.228   6.517
 4563POPC   C3A60281  43.004  32.139   6.919
 4563POPC   C4A60282  43.270  32.030   7.264
 4563POPC   C1B60283  43.445  32.176   6.178
 4563POPC   C2B60284  43.433  32.095   6.628
 4563POPC   C3B60285  43.447  32.401   6.969
 4563POPC   C4B60286  43.457  32.498   7.409
 4564POPC   NC360287  15.304  14.043   5.423
 4564POPC   PO460288  15.316  13.372   5.422
 4564POPC   GL160289  15.222  13.585   5.790
 4564POPC   GL260290  14.923  13.785   5.803
 4564POPC   C1A60291  15.130  13.428   6.180
 4564POPC   D2A60292  15.116  13.219   6.580
 4564POPC   C3A60293  15.372  13.321   6.912
 4564POPC   C4A60294  15.371  13.237   7.347
 4564POPC   C1B60295  14.981  13.926   6.237
 4564POPC   C2B60296  15.152  13.725   6.615
 4564POPC   C3B60297  15.517  13.805   6.868
 4564POPC   C4B60298  15.369  13.741   7.293
 4565POPC   NC360299  20.111  35.456   5.408
 4565POPC   PO460300  19.497  35.100   5.610
 4565POPC   GL160301  19.829  35.349   5.812
 4565POPC   GL260302  20.123  35.099   5.786
 4565POPC   C1A60303  20.017  35.621   6.143
 4565POPC   D2A60304  20.102  35.435   6.550
 4565POPC   C3A60305  19.754  35.507   6.849
 4565POPC   C4A60306  19.779  35.591   7.267
 4565POPC   C1B60307  19.955  34.977   6.206
 4565POPC   C2B60308  19.813  35.037   6.653
 4565POPC   C3B60309  19.968  35.106   7.099
 4565POPC   C4B60310  19.897  34.816   7.471
 4566POPC   NC360311   6.704  16.275   5.591
 4566POPC   PO460312   7.107  15.616   5.483
 4566POPC   GL160313   6.886  15.755   5.845
 4566POPC   GL260314   6.522  15.841   5.802
 4566POPC   C1A60315   6.790  15.997   6.217
 4566POPC   D2A60316   6.605  15.877   6.605
 4566POPC   C3A60317   6.777  15.973   6.993
 4566POPC   C4A60318   6.704  15.840   7.379
 4566POPC   C1B60319   6.520  15.559   6.188
 4566POPC   C2B60320   6.386  15.422   6.630
 4566POPC   C3B60321   6.353  15.545   7.090
 4566POPC   C4B60322   6.227  15.902   7.383
 4567POPC   NC360323   7.571  10.935   5.317
 4567POPC   PO460324   7.612  10.316   5.345
 4567POPC   GL160325   7.430  10.556   5.701
 4567POPC   GL260326   7.719  10.633   5.830
 4567POPC   C1A60327   7.375  10.691   6.179
 4567POPC   D2A60328   7.523  10.705   6.622
 4567POPC   C3A60329   7.184  10.713   6.953
 4567POPC   C4A60330   7.069  10.788   7.394
 4567POPC   C1B60331   7.797  10.340   6.174
 4567POPC   C2B60332   7.792  10.249   6.639
 4567POPC   C3B60333   7.598  10.388   7.038
 4567POPC   C4B60334   7.662  10.407   7.495
 4568POPC   NC360335  15.263  22.710   5.442
 4568POPC   PO460336  15.084  22.050   5.332
 4568POPC   GL160337  15.213  21.979   5.753
 4568POPC   GL260338  15.269  22.307   5.777
 4568POPC   C1A60339  15.389  21.779   6.121
 4568POPC   D2A60340  15.203  21.803   6.535
 4568POPC   C3A60341  15.383  21.893   6.950
 4568POPC   C4A60342  15.298  22.257   7.230
 4568POPC   C1B60343  15.165  22.230   6.219
 4568POPC   C2B60344  15.234  22.325   6.677
 4568POPC   C3B60345  14.907  22.460   6.986
 4568POPC   C4B60346  14.966  22.612   7.417
 4569POPC   NC360347  16.857   6.514   5.327
 4569POPC   PO460348  16.425   6.270   5.760
 4569POPC   GL160349  16.885   6.413   5.854
 4569POPC   GL260350  17.012   6.750   5.814
 4569POPC   C1A60351  17.097   6.392   6.259
 4569POPC   D2A60352  16.970   6.465   6.697
 4569POPC   C3A60353  16.540   6.351   6.880
 4569POPC   C4A60354  16.351   6.607   7.212
 4569POPC   C1B60355  17.247   6.888   6.187
 4569POPC   C2B60356  17.430   6.748   6.569
 4569POPC   C3B60357  17.237   6.785   6.984
 4569POPC   C4B60358  16.861   6.593   7.206
 4570POPC   NC360359   4.614  32.209   5.430
 4570POPC   PO460360   3.936  32.208   5.591
 4570POPC   GL160361   4.243  32.455   5.811
 4570POPC   GL260362   4.367  32.131   5.864
 4570POPC   C1A60363   4.412  32.467   6.271
 4570POPC   D2A60364   4.237  32.320   6.696
 4570POPC   C3A60365   4.286  32.431   7.143
 4570POPC   C4A60366   4.232  32.327   7.601
 4570POPC   C1B60367   4.670  31.999   6.122
 4570POPC   C2B60368   4.691  32.115   6.543
 4570POPC   C3B60369   4.671  32.117   6.971
 4570POPC   C4B60370   4.442  31.787   7.133
 4571POPC   NC360371  29.487   8.269   5.459
 4571POPC   PO460372  28.862   8.387   5.460
 4571POPC   GL160373  28.862   8.529   5.886
 4571POPC   GL260374  29.188   8.330   5.920
 4571POPC   C1A60375  28.938   8.468   6.339
 4571POPC   D2A60376  29.169   8.094   6.504
 4571POPC   C3A60377  28.985   7.917   6.885
 4571POPC   C4A60378  29.072   8.028   7.305
 4571POPC   C1B60379  29.595   8.192   6.138
 4571POPC   C2B60380  29.691   8.245   6.574
 4571POPC   C3B60381  29.475   8.141   6.963
 4571POPC   C4B60382  29.461   8.381   7.326
 4572POPC   NC360383  14.839   1.043   5.429
 4572POPC   PO460384  15.356   1.413   5.335
 4572POPC   GL160385  15.248   1.240   5.745
 4572POPC   GL260386  14.921   1.312   5.863
 4572POPC   C1A60387  15.274   1.183   6.200
 4572POPC   D2A60388  15.046   1.194   6.595
 4572POPC   C3A60389  15.336   1.279   6.910
 4572POPC   C4A60390  15.552   1.428   7.277
 4572POPC   C1B60391  15.007   1.613   6.210
 4572POPC   C2B60392  15.104   1.696   6.659
 4572POPC   C3B60393  14.923   1.511   7.044
 4572POPC   C4B60394  15.084   1.209   7.345
 4573POPC   NC360395  15.257   8.629   5.616
 4573POPC   PO460396  14.993   8.044   5.516
 4573POPC   GL160397  15.152   8.186   5.905
 4573POPC   GL260398  15.453   8.043   6.059
 4573POPC   C1A60399  14.995   8.262   6.318
 4573POPC   D2A60400  14.877   8.044   6.688
 4573POPC   C3A60401  14.901   8.309   7.046
 4573POPC   C4A60402  15.112   8.234   7.421
 4573POPC   C1B60403  15.479   8.418   6.259
 4573POPC   C2B60404  15.308   8.504   6.657
 4573POPC   C3B60405  15.408   8.262   7.006
 4573POPC   C4B60406  15.613   8.347   7.361
 4574POPC   NC360407  34.315  13.934   5.243
 4574POPC   PO460408  34.420  13.293   5.360
 4574POPC   GL160409  34.633  13.376   5.795
 4574POPC   GL260410  34.513  13.671   5.908
 4574POPC   C1A60411  34.679  13.277   6.262
 4574POPC   D2A60412  34.848  13.450   6.623
 4574POPC   C3A60413  34.544  13.482   6.916
 4574POPC   C4A60414  34.591  13.824   7.167
 4574POPC   C1B60415  34.673  13.818   6.283
 4574POPC   C2B60416  34.478  13.948   6.671
 4574POPC   C3B60417  34.178  14.054   7.031
 4574POPC   C4B60418  34.198  13.969   7.532
 4575POPC   NC360419  34.717  13.029   5.100
 4575POPC   PO460420  35.148  12.619   5.488
 4575POPC   GL160421  35.394  12.905   5.740
 4575POPC   GL260422  35.145  12.845   6.003
 4575POPC   C1A60423  35.486  13.195   6.100
 4575POPC   D2A60424  35.222  13.111   6.482
 4575POPC   C3A60425  35.424  13.215   6.870
 4575POPC   C4A60426  35.451  13.045   7.266
 4575POPC   C1B60427  35.508  12.702   6.263
 4575POPC   C2B60428  35.565  12.731   6.701
 4575POPC   C3B60429  35.172  12.753   6.936
 4575POPC   C4B60430  35.081  12.581   7.320
 4576POPC   NC360431   0.052  42.348   5.569
 4576POPC   PO460432  44.712  41.891   5.169
 4576POPC   GL160433  44.647  41.906   5.688
 4576POPC   GL260434  44.572  42.275   5.801
 4576POPC   C1A60435  44.780  42.009   6.155
 4576POPC   D2A60436  44.737  42.308   6.497
 4576POPC   C3A60437  44.785  42.118   6.887
 4576POPC   C4A60438  44.738  42.137   7.285
 4576POPC   C1B60439  44.536  42.651   6.156
 4576POPC   C2B60440  44.479  42.756   6.614
 4576POPC   C3B60441  44.783  42.644   6.959
 4576POPC   C4B60442  44.803  42.615   7.408
 4577POPC   NC360443  44.773  15.279   5.374
 4577POPC   PO460444  44.456  14.832   5.551
 4577POPC   GL160445  44.757  15.028   5.826
 4577POPC   GL260446  44.530  15.282   5.834
 4577POPC   C1A60447  44.880  15.135   6.260
 4577POPC   D2A60448  44.647  15.226   6.633
 4577POPC   C3A60449  44.757  15.266   7.062
 4577POPC   C4A60450  44.451  15.301   7.372
 4577POPC   C1B60451  44.379  15.057   6.185
 4577POPC   C2B60452  44.263  14.896   6.561
 4577POPC   C3B60453  44.288  15.062   6.952
 4577POPC   C4B60454  44.260  14.802   7.299
 4578POPC   NC360455   5.240  21.507   5.404
 4578POPC   PO460456   4.609  21.546   5.416
 4578POPC   GL160457   4.877  21.288   5.739
 4578POPC   GL260458   5.212  21.404   5.892
 4578POPC   C1A60459   4.897  21.167   6.206
 4578POPC   D2A60460   5.114  21.365   6.539
 4578POPC   C3A60461   4.964  21.476   6.937
 4578POPC   C4A60462   4.952  21.167   7.246
 4578POPC   C1B60463   5.398  21.092   6.167
 4578POPC   C2B60464   5.546  21.115   6.576
 4578POPC   C3B60465   5.387  21.160   6.968
 4578POPC   C4B60466   5.575  21.193   7.329
 4579POPC   NC360467  11.045  21.175   5.413
 4579POPC   PO460468  11.679  21.537   5.379
 4579POPC   GL160469  11.435  21.352   5.722
 4579POPC   GL260470  11.108  21.514   5.777
 4579POPC   C1A60471  11.248  21.168   6.116
 4579POPC   D2A60472  11.020  21.050   6.488
 4579POPC   C3A60473  11.185  21.250   6.843
 4579POPC   C4A60474  11.227  21.425   7.236
 4579POPC   C1B60475  11.268  21.686   6.161
 4579POPC   C2B60476  11.402  21.678   6.578
 4579POPC   C3B60477  11.218  21.846   6.931
 4579POPC   C4B60478  11.151  21.905   7.349
 4580POPC   NC360479  32.521  36.575   5.309
 4580POPC   PO460480  32.019  36.779   5.558
 4580POPC   GL160481  32.135  36.500   5.907
 4580POPC   GL260482  32.475  36.382   5.853
 4580POPC   C1A60483  32.013  36.545   6.357
 4580POPC   D2A60484  31.962  36.892   6.692
 4580POPC   C3A60485  32.055  36.849   7.158
 4580POPC   C4A60486  32.340  37.056   7.494
 4580POPC   C1B60487  32.521  36.421   6.335
 4580POPC   C2B60488  32.342  36.548   6.753
 4580POPC   C3B60489  32.524  36.670   7.149
 4580POPC   C4B60490  32.830  36.884   7.412
 4581POPC   NC360491  16.204  33.177   5.398
 4581POPC   PO460492  15.895  32.584   5.424
 4581POPC   GL160493  15.769  32.842   5.770
 4581POPC   GL260494  16.056  33.037   5.853
 4581POPC   C1A60495  15.747  32.843   6.228
 4581POPC   D2A60496  15.549  33.042   6.571
 4581POPC   C3A60497  15.723  32.913   6.925
 4581POPC   C4A60498  15.800  33.023   7.329
 4581POPC   C1B60499  16.124  33.257   6.206
 4581POPC   C2B60500  16.066  33.150   6.593
 4581POPC   C3B60501  16.140  33.211   6.994
 4581POPC   C4B60502  16.323  32.962   7.280
 4582POPC   NC360503  12.569  29.678   5.475
 4582POPC   PO460504  13.128  30.004   5.569
 4582POPC   GL160505  13.076  29.737   5.889
 4582POPC   GL260506  13.016  30.017   6.137
 4582POPC   C1A60507  13.018  29.507   6.253
 4582POPC   D2A60508  12.852  29.759   6.567
 4582POPC   C3A60509  13.041  29.672   6.913
 4582POPC   C4A60510  13.131  29.927   7.252
 4582POPC   C1B60511  12.579  30.160   6.309
 4582POPC   C2B60512  12.397  30.030   6.681
 4582POPC   C3B60513  12.672  29.993   7.026
 4582POPC   C4B60514  12.761  30.263   7.339
 4583POPC   NC360515  20.279  38.865   5.442
 4583POPC   PO460516  20.456  38.211   5.450
 4583POPC   GL160517  20.556  38.362   5.881
 4583POPC   GL260518  20.648  38.697   5.789
 4583POPC   C1A60519  20.739  38.477   6.335
 4583POPC   D2A60520  20.870  38.324   6.772
 4583POPC   C3A60521  20.597  38.170   7.134
 4583POPC   C4A60522  20.452  38.372   7.506
 4583POPC   C1B60523  20.996  38.808   6.064
 4583POPC   C2B60524  21.060  38.841   6.541
 4583POPC   C3B60525  20.989  38.808   7.004
 4583POPC   C4B60526  20.839  38.709   7.422
 4584POPC   NC360527   7.439   3.263   5.467
 4584POPC   PO460528   7.201   3.837   5.345
 4584POPC   GL160529   7.371   3.776   5.769
 4584POPC   GL260530   7.153   3.542   5.872
 4584POPC   C1A60531   7.545   3.777   6.214
 4584POPC   D2A60532   7.432   3.874   6.678
 4584POPC   C3A60533   7.516   3.609   7.082
 4584POPC   C4A60534   7.682   3.180   7.173
 4584POPC   C1B60535   6.943   3.184   6.077
 4584POPC   C2B60536   6.959   3.066   6.515
 4584POPC   C3B60537   7.203   3.209   6.874
 4584POPC   C4B60538   7.058   3.340   7.269
 4585POPC   NC360539  29.254   1.809   5.440
 4585POPC   PO460540  29.297   2.377   5.247
 4585POPC   GL160541  29.156   2.253   5.717
 4585POPC   GL260542  29.118   1.893   5.892
 4585POPC   C1A60543  29.298   2.261   6.189
 4585POPC   D2A60544  29.163   2.422   6.598
 4585POPC   C3A60545  29.366   2.270   6.986
 4585POPC   C4A60546  29.176   2.146   7.408
 4585POPC   C1B60547  29.033   1.839   6.302
 4585POPC   C2B60548  29.266   1.897   6.627
 4585POPC   C3B60549  29.099   1.841   7.015
 4585POPC   C4B60550  29.041   1.660   7.439
 4586POPC   NC360551   9.150   1.117   5.383
 4586POPC   PO460552   8.571   1.540   5.336
 4586POPC   GL160553   8.739   1.282   5.674
 4586POPC   GL260554   8.506   0.986   5.709
 4586POPC   C1A60555   8.924   1.255   6.113
 4586POPC   D2A60556   9.155   1.447   6.491
 4586POPC   C3A60557   9.108   1.245   6.887
 4586POPC   C4A60558   8.813   1.348   7.206
 4586POPC   C1B60559   8.590   0.867   6.147
 4586POPC   C2B60560   8.812   0.923   6.556
 4586POPC   C3B60561   8.682   0.931   6.979
 4586POPC   C4B60562   8.985   0.863   7.347
 4587POPC   NC360563  21.758  26.454   5.381
 4587POPC   PO460564  21.290  26.834   5.491
 4587POPC   GL160565  21.267  26.815   5.896
 4587POPC   GL260566  21.503  27.075   5.897
 4587POPC   C1A60567  21.216  26.957   6.305
 4587POPC   D2A60568  21.509  27.111   6.575
 4587POPC   C3A60569  21.318  27.003   6.961
 4587POPC   C4A60570  21.166  26.642   7.207
 4587POPC   C1B60571  21.685  26.785   6.207
 4587POPC   C2B60572  21.816  26.729   6.668
 4587POPC   C3B60573  21.702  26.702   7.130
 4587POPC   C4B60574  21.541  26.477   7.519
 4588POPC   NC360575  36.551  30.284   5.573
 4588POPC   PO460576  36.373  30.941   5.489
 4588POPC   GL160577  36.193  30.752   5.853
 4588POPC   GL260578  35.882  30.920   5.926
 4588POPC   C1A60579  36.202  30.807   6.306
 4588POPC   D2A60580  36.172  30.850   6.738
 4588POPC   C3A60581  36.278  30.502   7.028
 4588POPC   C4A60582  36.370  30.576   7.464
 4588POPC   C1B60583  35.740  30.585   6.184
 4588POPC   C2B60584  35.828  30.467   6.603
 4588POPC   C3B60585  35.776  30.653   7.014
 4588POPC   C4B60586  36.068  30.962   7.215
 4589POPC   NC360587  15.619   7.030   5.116
 4589POPC   PO460588  15.794   7.565   5.567
 4589POPC   GL160589  15.809   7.702   5.943
 4589POPC   GL260590  15.703   7.400   6.104
 4589POPC   C1A60591  15.825   7.829   6.368
 4589POPC   D2A60592  15.943   7.561   6.695
 4589POPC   C3A60593  16.026   7.662   7.108
 4589POPC   C4A60594  15.831   7.546   7.482
 4589POPC   C1B60595  16.155   7.428   6.237
 4589POPC   C2B60596  16.369   7.250   6.610
 4589POPC   C3B60597  16.246   7.184   7.046
 4589POPC   C4B60598  16.183   7.196   7.504
 4590POPC   NC360599   5.243  43.052   4.989
 4590POPC   PO460600   5.175  43.075   5.625
 4590POPC   GL160601   5.127  43.169   6.008
 4590POPC   GL260602   5.028  43.491   5.950
 4590POPC   C1A60603   5.249  42.957   6.385
 4590POPC   D2A60604   5.432  42.808   6.763
 4590POPC   C3A60605   5.132  42.746   7.080
 4590POPC   C4A60606   5.167  42.809   7.511
 4590POPC   C1B60607   5.014  43.449   6.405
 4590POPC   C2B60608   4.891  43.129   6.720
 4590POPC   C3B60609   4.961  43.218   7.151
 4590POPC   C4B60610   5.150  43.578   7.301
 4591POPC   NC360611  17.863   9.801   5.413
 4591POPC   PO460612  17.130   9.536   5.423
 4591POPC   GL160613  17.422   9.750   5.690
 4591POPC   GL260614  17.671   9.524   5.833
 4591POPC   C1A60615  17.493  10.008   6.065
 4591POPC   D2A60616  17.531  10.230   6.452
 4591POPC   C3A60617  17.448  10.078   6.866
 4591POPC   C4A60618  17.525  10.178   7.294
 4591POPC   C1B60619  17.386   9.511   6.155
 4591POPC   C2B60620  17.448   9.692   6.538
 4591POPC   C3B60621  17.395   9.557   6.937
 4591POPC   C4B60622  17.450   9.542   7.371
 4592POPC   NC360623  43.907  10.679   5.284
 4592POPC   PO460624  43.702  10.071   5.383
 4592POPC   GL160625  43.678  10.275   5.785
 4592POPC   GL260626  43.837  10.613   5.808
 4592POPC   C1A60627  43.887  10.286   6.214
 4592POPC   D2A60628  44.015  10.174   6.649
 4592POPC   C3A60629  44.002  10.443   7.030
 4592POPC   C4A60630  44.014  10.268   7.455
 4592POPC   C1B60631  43.694  10.782   6.229
 4592POPC   C2B60632  43.749  10.842   6.658
 4592POPC   C3B60633  43.760  10.905   7.078
 4592POPC   C4B60634  43.999  10.839   7.467
 4593POPC   NC360635  29.251  40.939   5.329
 4593POPC   PO460636  29.402  40.425   5.446
 4593POPC   GL160637  29.261  40.706   5.805
 4593POPC   GL260638  29.038  40.478   5.961
 4593POPC   C1A60639  29.179  40.929   6.245
 4593POPC   D2A60640  29.347  41.079   6.690
 4593POPC   C3A60641  29.128  41.023   7.122
 4593POPC   C4A60642  29.101  40.920   7.594
 4593POPC   C1B60643  29.392  40.450   6.268
 4593POPC   C2B60644  29.526  40.461   6.719
 4593POPC   C3B60645  29.407  40.348   7.161
 4593POPC   C4B60646  29.387  40.261   7.631
 4594POPC   NC360647   6.342  16.583   5.222
 4594POPC   PO460648   6.829  16.781   5.629
 4594POPC   GL160649   6.441  16.658   5.862
 4594POPC   GL260650   6.266  16.352   5.888
 4594POPC   C1A60651   6.402  16.780   6.300
 4594POPC   D2A60652   6.392  17.005   6.717
 4594POPC   C3A60653   6.622  16.825   7.075
 4594POPC   C4A60654   6.914  16.469   7.065
 4594POPC   C1B60655   6.351  16.252   6.339
 4594POPC   C2B60656   6.509  16.379   6.753
 4594POPC   C3B60657   6.438  16.349   7.201
 4594POPC   C4B60658   6.354  16.678   7.508
 4595POPC   NC360659   8.218   6.931   5.467
 4595POPC   PO460660   7.896   6.354   5.368
 4595POPC   GL160661   8.065   6.491   5.857
 4595POPC   GL260662   8.243   6.816   5.943
 4595POPC   C1A60663   8.441   6.479   6.235
 4595POPC   D2A60664   8.404   6.500   6.709
 4595POPC   C3A60665   8.002   6.553   6.941
 4595POPC   C4A60666   7.926   6.463   7.373
 4595POPC   C1B60667   8.041   6.779   6.353
 4595POPC   C2B60668   8.186   6.979   6.724
 4595POPC   C3B60669   8.378   6.878   7.134
 4595POPC   C4B60670   8.225   6.834   7.575
 4596POPC   NC360671   6.782  36.115   5.306
 4596POPC   PO460672   6.162  35.824   5.506
 4596POPC   GL160673   6.500  36.044   5.749
 4596POPC   GL260674   6.879  36.177   5.787
 4596POPC   C1A60675   6.605  35.947   6.174
 4596POPC   D2A60676   6.468  35.670   6.536
 4596POPC   C3A60677   6.571  35.880   6.924
 4596POPC   C4A60678   6.451  36.071   7.318
 4596POPC   C1B60679   6.898  36.396   6.187
 4596POPC   C2B60680   6.725  36.472   6.591
 4596POPC   C3B60681   6.685  36.420   7.012
 4596POPC   C4B60682   7.011  36.577   7.295
 4597POPC   NC360683  31.609  10.133   5.496
 4597POPC   PO460684  31.460  10.814   5.324
 4597POPC   GL160685  31.414  10.527   5.740
 4597POPC   GL260686  31.326  10.745   5.957
 4597POPC   C1A60687  31.424  10.334   6.235
 4597POPC   D2A60688  31.316  10.405   6.694
 4597POPC   C3A60689  31.457  10.208   7.089
 4597POPC   C4A60690  31.506  10.418   7.526
 4597POPC   C1B60691  31.555  10.839   6.344
 4597POPC   C2B60692  31.584  10.855   6.787
 4597POPC   C3B60693  31.468  10.820   7.212
 4597POPC   C4B60694  31.707  10.885   7.614
 4598POPC   NC360695   2.449   0.554   5.427
 4598POPC   PO460696   3.145   0.773   5.346
 4598POPC   GL160697   2.874   0.589   5.731
 4598POPC   GL260698   2.947   0.687   6.036
 4598POPC   C1A60699   2.754   0.219   6.048
 4598POPC   D2A60700   2.441   0.089   6.399
 4598POPC   C3A60701   2.560   0.181   6.832
 4598POPC   C4A60702   2.800   0.260   7.227
 4598POPC   C1B60703   2.834   0.536   6.459
 4598POPC   C2B60704   2.712   0.709   6.846
 4598POPC   C3B60705   2.955   0.750   7.199
 4598POPC   C4B60706   3.037   0.840   7.677
 4599POPC   NC360707  43.350  39.892   5.401
 4599POPC   PO460708  43.045  40.357   5.368
 4599POPC   GL160709  43.155  40.190   5.786
 4599POPC   GL260710  43.004  39.851   5.881
 4599POPC   C1A60711  43.237  40.141   6.236
 4599POPC   D2A60712  42.991  40.107   6.623
 4599POPC   C3A60713  43.211  40.123   7.029
 4599POPC   C4A60714  43.270  40.049   7.485
 4599POPC   C1B60715  43.173  39.635   6.289
 4599POPC   C2B60716  43.251  39.662   6.762
 4599POPC   C3B60717  43.222  39.609   7.227
 4599POPC   C4B60718  43.130  39.595   7.695
 4600POPC   NC360719  13.724  37.031   5.180
 4600POPC   PO460720  13.264  36.718   5.568
 4600POPC   GL160721  13.599  36.977   5.707
 4600POPC   GL260722  13.865  36.729   5.638
 4600POPC   C1A60723  13.579  37.096   6.153
 4600POPC   D2A60724  13.353  37.117   6.551
 4600POPC   C3A60725  13.492  36.939   6.928
 4600POPC   C4A60726  13.551  36.806   7.359
 4600POPC   C1B60727  13.698  36.604   6.057
 4600POPC   C2B60728  13.709  36.695   6.493
 4600POPC   C3B60729  13.908  36.633   6.896
 4600POPC   C4B60730  14.232  36.453   7.147
 4601POPC   NC360731  11.935  10.986   5.537
 4601POPC   PO460732  12.232  10.354   5.401
 4601POPC   GL160733  12.059  10.393   5.803
 4601POPC   GL260734  12.173  10.726   5.890
 4601POPC   C1A60735  12.138  10.372   6.245
 4601POPC   D2A60736  11.950  10.257   6.596
 4601POPC   C3A60737  12.200  10.387   6.908
 4601POPC   C4A60738  12.265  10.707   7.199
 4601POPC   C1B60739  12.004  10.900   6.274
 4601POPC   C2B60740  11.983  10.841   6.743
 4601POPC   C3B60741  11.768  10.780   7.163
 4601POPC   C4B60742  11.564  10.858   7.596
 4602POPC   NC360743  39.829  22.992   5.671
 4602POPC   PO460744  40.116  22.469   5.305
 4602POPC   GL160745  40.267  22.663   5.726
 4602POPC   GL260746  40.431  22.988   5.710
 4602POPC   C1A60747  40.174  22.829   6.181
 4602POPC   D2A60748  39.856  22.882   6.525
 4602POPC   C3A60749  39.812  22.991   6.960
 4602POPC   C4A60750  39.736  23.054   7.391
 4602POPC   C1B60751  40.470  23.255   6.090
 4602POPC   C2B60752  40.270  23.250   6.487
 4602POPC   C3B60753  40.292  23.133   6.923
 4602POPC   C4B60754  40.267  23.210   7.365
 4603POPC   NC360755  38.797   5.337   5.526
 4603POPC   PO460756  39.360   4.961   5.215
 4603POPC   GL160757  39.366   5.069   5.660
 4603POPC   GL260758  39.311   5.439   5.691
 4603POPC   C1A60759  39.233   4.980   6.093
 4603POPC   D2A60760  39.049   5.119   6.497
 4603POPC   C3A60761  39.239   4.941   6.872
 4603POPC   C4A60762  39.124   4.786   7.265
 4603POPC   C1B60763  39.192   5.492   6.122
 4603POPC   C2B60764  39.286   5.591   6.543
 4603POPC   C3B60765  39.064   5.447   6.903
 4603POPC   C4B60766  39.132   5.290   7.297
 4604POPC   NC360767  27.335   2.859   5.402
 4604POPC   PO460768  27.808   2.326   5.471
 4604POPC   GL160769  27.773   2.592   5.810
 4604POPC   GL260770  27.423   2.632   5.855
 4604POPC   C1A60771  27.881   2.735   6.208
 4604POPC   D2A60772  27.695   2.786   6.623
 4604POPC   C3A60773  27.861   2.928   7.019
 4604POPC   C4A60774  27.663   2.944   7.399
 4604POPC   C1B60775  27.414   2.973   6.171
 4604POPC   C2B60776  27.217   2.969   6.586
 4604POPC   C3B60777  27.292   2.942   7.034
 4604POPC   C4B60778  27.192   3.180   7.443
 4605POPC   NC360779  25.148   5.289   5.502
 4605POPC   PO460780  25.738   5.035   5.548
 4605POPC   GL160781  25.434   4.924   5.854
 4605POPC   GL260782  25.111   5.117   5.967
 4605POPC   C1A60783  25.508   4.939   6.293
 4605POPC   D2A60784  25.257   5.073   6.641
 4605POPC   C3A60785  25.376   5.151   7.052
 4605POPC   C4A60786  25.190   5.166   7.441
 4605POPC   C1B60787  25.062   4.731   6.148
 4605POPC   C2B60788  25.217   4.566   6.512
 4605POPC   C3B60789  25.167   4.655   6.921
 4605POPC   C4B60790  25.350   4.697   7.310
 4606POPC   NC360791  36.627  21.671   5.172
 4606POPC   PO460792  37.025  22.200   5.377
 4606POPC   GL160793  36.896  22.262   5.816
 4606POPC   GL260794  36.584  22.142   5.932
 4606POPC   C1A60795  37.011  22.179   6.262
 4606POPC   D2A60796  37.181  22.190   6.711
 4606POPC   C3A60797  36.992  22.096   7.119
 4606POPC   C4A60798  37.055  22.158   7.605
 4606POPC   C1B60799  36.591  22.459   6.220
 4606POPC   C2B60800  36.709  22.379   6.617
 4606POPC   C3B60801  36.541  22.320   6.961
 4606POPC   C4B60802  36.678  22.391   7.370
 4607POPC   NC360803  36.966  37.442   5.407
 4607POPC   PO460804  36.873  38.056   5.511
 4607POPC   GL160805  36.895  37.718   5.872
 4607POPC   GL260806  36.754  37.371   5.898
 4607POPC   C1A60807  36.878  37.644   6.340
 4607POPC   D2A60808  36.757  37.793   6.753
 4607POPC   C3A60809  36.958  37.715   7.147
 4607POPC   C4A60810  37.079  38.079   7.434
 4607POPC   C1B60811  36.676  37.189   6.356
 4607POPC   C2B60812  36.667  37.290   6.823
 4607POPC   C3B60813  36.458  37.603   7.129
 4607POPC   C4B60814  36.567  37.997   7.368
 4608POPC   NC360815  43.633  16.852   5.303
 4608POPC   PO460816  44.197  16.424   5.272
 4608POPC   GL160817  43.889  16.504   5.631
 4608POPC   GL260818  43.954  16.847   5.741
 4608POPC   C1A60819  43.668  16.553   6.067
 4608POPC   D2A60820  43.775  16.727   6.483
 4608POPC   C3A60821  43.645  16.687   6.915
 4608POPC   C4A60822  43.688  16.376   7.249
 4608POPC   C1B60823  44.181  16.661   6.128
 4608POPC   C2B60824  44.284  16.662   6.582
 4608POPC   C3B60825  44.278  16.643   7.041
 4608POPC   C4B60826  43.977  16.860   7.260
 4609POPC   NC360827  12.737  19.785   5.425
 4609POPC   PO460828  13.184  20.151   5.678
 4609POPC   GL160829  12.995  19.823   5.909
 4609POPC   GL260830  12.642  19.801   5.922
 4609POPC   C1A60831  13.055  19.814   6.341
 4609POPC   D2A60832  13.318  19.913   6.694
 4609POPC   C3A60833  13.037  19.969   7.005
 4609POPC   C4A60834  12.730  19.901   7.272
 4609POPC   C1B60835  12.616  19.561   6.283
 4609POPC   C2B60836  12.804  19.554   6.705
 4609POPC   C3B60837  12.571  19.459   7.061
 4609POPC   C4B60838  12.205  19.489   7.334
 4610POPC   NC360839  30.634   8.759   4.995
 4610POPC   PO460840  30.995   9.280   5.373
 4610POPC   GL160841  31.023   9.194   5.827
 4610POPC   GL260842  31.140   8.876   5.907
 4610POPC   C1A60843  30.667   9.088   6.155
 4610POPC   D2A60844  30.490   8.977   6.576
 4610POPC   C3A60845  30.561   9.200   6.969
 4610POPC   C4A60846  30.717   8.986   7.304
 4610POPC   C1B60847  31.144   9.028   6.306
 4610POPC   C2B60848  31.015   8.894   6.670
 4610POPC   C3B60849  31.145   9.113   7.002
 4610POPC   C4B60850  31.212   9.011   7.410
 4611POPC   NC360851  23.399  29.723   5.226
 4611POPC   PO460852  23.926  30.110   5.421
 4611POPC   GL160853  23.636  30.133   5.761
 4611POPC   GL260854  23.394  29.833   5.729
 4611POPC   C1A60855  23.748  30.178   6.211
 4611POPC   D2A60856  24.073  29.884   6.404
 4611POPC   C3A60857  24.062  29.794   6.843
 4611POPC   C4A60858  23.712  29.613   7.070
 4611POPC   C1B60859  23.575  29.705   6.124
 4611POPC   C2B60860  23.578  29.803   6.558
 4611POPC   C3B60861  23.335  29.922   6.905
 4611POPC   C4B60862  23.408  30.096   7.288
 4612POPC   NC360863   1.511  23.040   5.306
 4612POPC   PO460864   0.893  23.218   5.469
 4612POPC   GL160865   1.080  23.199   5.865
 4612POPC   GL260866   1.377  23.040   5.828
 4612POPC   C1A60867   1.093  22.963   6.250
 4612POPC   D2A60868   0.904  22.819   6.617
 4612POPC   C3A60869   1.054  23.086   6.931
 4612POPC   C4A60870   1.296  23.111   7.314
 4612POPC   C1B60871   1.578  22.796   6.167
 4612POPC   C2B60872   1.459  22.817   6.623
 4612POPC   C3B60873   1.256  22.604   6.968
 4612POPC   C4B60874   1.445  22.550   7.365
 4613POPC   NC360875  18.097   0.860   5.359
 4613POPC   PO460876  17.978   0.189   5.437
 4613POPC   GL160877  18.203   0.407   5.820
 4613POPC   GL260878  18.283   0.759   5.827
 4613POPC   C1A60879  18.327   0.396   6.296
 4613POPC   D2A60880  18.582   0.262   6.715
 4613POPC   C3A60881  18.407   0.134   7.132
 4613POPC   C4A60882  18.311   0.398   7.502
 4613POPC   C1B60883  18.547   0.855   6.186
 4613POPC   C2B60884  18.502   0.763   6.619
 4613POPC   C3B60885  18.358   0.682   7.042
 4613POPC   C4B60886  18.059   0.865   7.353
 4614POPC   NC360887  28.297  30.317   5.316
 4614POPC   PO460888  28.517  29.668   5.148
 4614POPC   GL160889  28.384  29.829   5.596
 4614POPC   GL260890  28.323  30.144   5.788
 4614POPC   C1A60891  28.379  29.721   6.063
 4614POPC   D2A60892  28.272  29.660   6.508
 4614POPC   C3A60893  28.393  29.943   6.830
 4614POPC   C4A60894  28.350  29.948   7.272
 4614POPC   C1B60895  28.092  30.153   6.163
 4614POPC   C2B60896  27.990  30.115   6.556
 4614POPC   C3B60897  27.985  30.333   6.932
 4614POPC   C4B60898  27.831  30.338   7.341
 4615POPC   NC360899   4.640   9.277   5.353
 4615POPC   PO460900   4.197   9.808   5.291
 4615POPC   GL160901   4.383   9.614   5.692
 4615POPC   GL260902   4.652   9.855   5.690
 4615POPC   C1A60903   4.281   9.434   6.144
 4615POPC   D2A60904   4.290   9.645   6.578
 4615POPC   C3A60905   4.232   9.479   6.998
 4615POPC   C4A60906   4.184   9.641   7.406
 4615POPC   C1B60907   4.661   9.784   6.140
 4615POPC   C2B60908   4.791   9.808   6.552
 4615POPC   C3B60909   4.564   9.970   6.884
 4615POPC   C4B60910   4.588   9.909   7.287
 4616POPC   NC360911  40.619  28.689   5.486
 4616POPC   PO460912  41.106  28.151   5.430
 4616POPC   GL160913  40.903  28.311   5.802
 4616POPC   GL260914  40.562  28.249   5.831
 4616POPC   C1A60915  40.969  28.309   6.257
 4616POPC   D2A60916  41.184  28.107   6.615
 4616POPC   C3A60917  40.879  28.144   6.935
 4616POPC   C4A60918  40.719  28.499   7.130
 4616POPC   C1B60919  40.514  28.584   6.185
 4616POPC   C2B60920  40.461  28.619   6.672
 4616POPC   C3B60921  40.250  28.630   7.128
 4616POPC   C4B60922  40.470  28.522   7.576
 4617POPC   NC360923  29.526  30.581   5.058
 4617POPC   PO460924  29.169  30.988   5.485
 4617POPC   GL160925  29.132  30.782   5.843
 4617POPC   GL260926  28.801  30.883   5.903
 4617POPC   C1A60927  29.261  30.543   6.218
 4617POPC   D2A60928  29.488  30.694   6.571
 4617POPC   C3A60929  29.373  30.530   6.957
 4617POPC   C4A60930  29.306  30.792   7.281
 4617POPC   C1B60931  29.001  30.962   6.314
 4617POPC   C2B60932  28.979  30.773   6.721
 4617POPC   C3B60933  28.846  30.656   7.127
 4617POPC   C4B60934  28.833  30.660   7.572
 4618POPC   NC360935   3.693   5.206   4.983
 4618POPC   PO460936   3.248   5.059   5.556
 4618POPC   GL160937   3.395   5.235   5.936
 4618POPC   GL260938   3.748   5.136   5.853
 4618POPC   C1A60939   3.331   5.128   6.374
 4618POPC   D2A60940   3.489   4.767   6.593
 4618POPC   C3A60941   3.361   4.722   7.016
 4618POPC   C4A60942   3.260   5.059   7.281
 4618POPC   C1B60943   3.813   5.125   6.255
 4618POPC   C2B60944   3.995   5.003   6.584
 4618POPC   C3B60945   3.859   5.189   6.913
 4618POPC   C4B60946   3.758   4.990   7.258
 4619POPC   NC360947  33.515  19.083   5.378
 4619POPC   PO460948  32.788  18.906   5.394
 4619POPC   GL160949  32.989  19.149   5.759
 4619POPC   GL260950  33.312  19.383   5.770
 4619POPC   C1A60951  32.900  19.024   6.216
 4619POPC   D2A60952  32.937  18.742   6.598
 4619POPC   C3A60953  32.889  18.935   7.011
 4619POPC   C4A60954  33.146  18.886   7.416
 4619POPC   C1B60955  33.351  19.297   6.223
 4619POPC   C2B60956  33.171  19.204   6.629
 4619POPC   C3B60957  33.372  19.152   6.990
 4619POPC   C4B60958  33.510  19.373   7.348
 4620POPC   NC360959  16.602  23.818   5.388
 4620POPC   PO460960  17.093  23.452   5.333
 4620POPC   GL160961  16.832  23.576   5.766
 4620POPC   GL260962  16.861  23.936   5.808
 4620POPC   C1A60963  16.821  23.720   6.266
 4620POPC   D2A60964  17.002  23.875   6.686
 4620POPC   C3A60965  16.884  23.672   7.056
 4620POPC   C4A60966  16.552  23.350   7.028
 4620POPC   C1B60967  16.435  23.931   6.000
 4620POPC   C2B60968  16.303  23.864   6.417
 4620POPC   C3B60969  16.397  23.806   6.839
 4620POPC   C4B60970  16.339  23.932   7.261
 4621POPC   NC360971  35.280   8.329   5.646
 4621POPC   PO460972  35.699   7.759   5.652
 4621POPC   GL160973  35.586   8.044   5.950
 4621POPC   GL260974  35.729   8.403   5.887
 4621POPC   C1A60975  35.281   8.027   6.297
 4621POPC   D2A60976  35.261   7.740   6.658
 4621POPC   C3A60977  35.447   7.891   7.059
 4621POPC   C4A60978  35.283   8.193   7.336
 4621POPC   C1B60979  35.707   8.335   6.329
 4621POPC   C2B60980  35.484   8.273   6.697
 4621POPC   C3B60981  35.662   8.357   7.054
 4621POPC   C4B60982  35.721   8.428   7.482
 4622POPC   NC360983  22.086   7.722   5.647
 4622POPC   PO460984  22.374   8.245   5.145
 4622POPC   GL160985  22.134   8.243   5.599
 4622POPC   GL260986  21.824   8.449   5.642
 4622POPC   C1A60987  22.074   8.172   6.114
 4622POPC   D2A60988  22.046   7.851   6.520
 4622POPC   C3A60989  22.181   7.873   6.991
 4622POPC   C4A60990  22.257   7.918   7.461
 4622POPC   C1B60991  21.629   8.419   6.052
 4622POPC   C2B60992  21.624   8.474   6.521
 4622POPC   C3B60993  21.875   8.292   6.864
 4622POPC   C4B60994  22.134   8.358   7.230
 4623POPC   NC360995  24.711  33.721   5.388
 4623POPC   PO460996  25.292  34.040   5.206
 4623POPC   GL160997  25.260  33.764   5.599
 4623POPC   GL260998  24.961  33.795   5.846
 4623POPC   C1A60999  25.487  33.671   6.007
 4623POPC   D2A61000  25.289  33.719   6.409
 4623POPC   C3A61001  25.437  33.724   6.829
 4623POPC   C4A61002  25.232  33.649   7.230
 4623POPC   C1B61003  24.852  34.131   6.157
 4623POPC   C2B61004  24.897  34.323   6.556
 4623POPC   C3B61005  24.979  34.055   6.903
 4623POPC   C4B61006  24.976  34.058   7.349
 4624POPC   NC361007  10.759  22.132   5.356
 4624POPC   PO461008  10.400  21.647   5.648
 4624POPC   GL161009  10.412  22.110   5.760
 4624POPC   GL261010  10.741  22.271   5.844
 4624POPC   C1A61011  10.376  22.221   6.210
 4624POPC   D2A61012  10.453  21.955   6.592
 4624POPC   C3A61013  10.252  22.038   7.002
 4624POPC   C4A61014  10.441  22.042   7.420
 4624POPC   C1B61015  10.814  21.953   6.174
 4624POPC   C2B61016  10.938  22.110   6.588
 4624POPC   C3B61017  10.794  22.146   7.038
 4624POPC   C4B61018  10.877  22.313   7.468
 4625POPC   NC361019  11.829  17.738   5.352
 4625POPC   PO461020  12.278  17.280   5.340
 4625POPC   GL161021  12.175  17.339   5.784
 4625POPC   GL261022  11.942  17.586   5.841
 4625POPC   C1A61023  12.044  17.255   6.238
 4625POPC   D2A61024  12.069  17.441   6.652
 4625POPC   C3A61025  12.279  17.285   7.005
 4625POPC   C4A61026  12.293  17.428   7.438
 4625POPC   C1B61027  11.947  17.790   6.275
 4625POPC   C2B61028  11.817  17.869   6.728
 4625POPC   C3B61029  11.917  17.655   7.117
 4625POPC   C4B61030  11.789  17.511   7.537
 4626POPC   NC361031   3.880  41.453   5.300
 4626POPC   PO461032   3.642  42.036   5.549
 4626POPC   GL161033   3.592  41.707   5.840
 4626POPC   GL261034   3.299  41.559   5.648
 4626POPC   C1A61035   3.617  41.603   6.316
 4626POPC   D2A61036   3.345  41.765   6.694
 4626POPC   C3A61037   3.627  41.774   7.057
 4626POPC   C4A61038   3.822  41.412   7.242
 4626POPC   C1B61039   3.245  41.385   6.048
 4626POPC   C2B61040   3.253  41.290   6.495
 4626POPC   C3B61041   3.441  41.284   6.888
 4626POPC   C4B61042   3.244  41.465   7.220
 4627POPC   NC361043   1.512  43.246   5.365
 4627POPC   PO461044   0.929  43.269   5.161
 4627POPC   GL161045   0.993  43.173   5.695
 4627POPC   GL261046   1.339  43.248   5.826
 4627POPC   C1A61047   1.067  43.149   6.222
 4627POPC   D2A61048   1.133  43.309   6.680
 4627POPC   C3A61049   1.224  42.974   7.009
 4627POPC   C4A61050   1.174  42.802   7.453
 4627POPC   C1B61051   1.588  43.368   6.169
 4627POPC   C2B61052   1.583  43.563   6.556
 4627POPC   C3B61053   1.614  43.360   6.934
 4627POPC   C4B61054   1.557  43.167   7.348
 4628POPC   NC361055   9.253  38.659   5.422
 4628POPC   PO461056   8.619  38.297   5.428
 4628POPC   GL161057   8.869  38.472   5.772
 4628POPC   GL261058   9.235  38.331   5.826
 4628POPC   C1A61059   8.883  38.400   6.227
 4628POPC   D2A61060   9.080  38.464   6.617
 4628POPC   C3A61061   8.850  38.563   6.989
 4628POPC   C4A61062   8.949  38.567   7.439
 4628POPC   C1B61063   9.333  38.667   6.149
 4628POPC   C2B61064   9.497  38.833   6.558
 4628POPC   C3B61065   9.350  38.735   6.969
 4628POPC   C4B61066   9.453  38.565   7.359
 4629POPC   NC361067  29.162  43.352   5.312
 4629POPC   PO461068  29.239  42.742   5.466
 4629POPC   GL161069  29.142  42.998   5.810
 4629POPC   GL261070  28.811  42.886   5.817
 4629POPC   C1A61071  29.320  43.120   6.245
 4629POPC   D2A61072  29.589  43.038   6.597
 4629POPC   C3A61073  29.356  43.045   7.013
 4629POPC   C4A61074  29.105  43.307   7.287
 4629POPC   C1B61075  28.817  43.170   6.194
 4629POPC   C2B61076  28.951  43.145   6.633
 4629POPC   C3B61077  28.745  43.369   6.941
 4629POPC   C4B61078  28.602  43.282   7.367
 4630POPC   NC361079  43.963  32.684   5.424
 4630POPC   PO461080  43.896  33.292   5.458
 4630POPC   GL161081  43.808  32.987   5.824
 4630POPC   GL261082  43.630  32.655   5.840
 4630POPC   C1A61083  43.883  32.951   6.276
 4630POPC   D2A61084  44.081  32.850   6.661
 4630POPC   C3A61085  43.996  33.094   7.036
 4630POPC   C4A61086  44.163  33.264   7.441
 4630POPC   C1B61087  43.464  32.673   6.291
 4630POPC   C2B61088  43.567  32.848   6.712
 4630POPC   C3B61089  43.410  32.922   7.117
 4630POPC   C4B61090  43.167  32.906   7.526
 4631POPC   NC361091  22.674  14.645   5.448
 4631POPC   PO461092  23.159  14.204   5.464
 4631POPC   GL161093  22.953  14.384   5.824
 4631POPC   GL261094  22.636  14.205   5.881
 4631POPC   C1A61095  22.800  14.589   6.234
 4631POPC   D2A61096  22.691  14.386   6.662
 4631POPC   C3A61097  22.813  14.599   7.083
 4631POPC   C4A61098  22.767  14.626   7.541
 4631POPC   C1B61099  22.901  14.105   6.245
 4631POPC   C2B61100  23.121  14.133   6.640
 4631POPC   C3B61101  22.914  14.097   7.050
 4631POPC   C4B61102  23.083  14.232   7.448
 4632POPC   NC361103  18.360   5.543   5.387
 4632POPC   PO461104  18.161   6.195   5.199
 4632POPC   GL161105  18.188   6.028   5.654
 4632POPC   GL261106  17.918   5.794   5.651
 4632POPC   C1A61107  18.430   5.997   6.078
 4632POPC   D2A61108  18.490   6.061   6.528
 4632POPC   C3A61109  18.481   5.774   6.900
 4632POPC   C4A61110  18.434   6.050   7.271
 4632POPC   C1B61111  17.914   5.931   6.101
 4632POPC   C2B61112  17.959   6.019   6.569
 4632POPC   C3B61113  18.007   5.870   7.025
 4632POPC   C4B61114  18.022   5.888   7.561
 4633POPC   NC361115  34.136   1.690   5.514
 4633POPC   PO461116  33.591   2.127   5.413
 4633POPC   GL161117  33.778   2.022   5.776
 4633POPC   GL261118  34.085   2.150   5.880
 4633POPC   C1A61119  33.641   2.076   6.192
 4633POPC   D2A61120  33.674   1.874   6.569
 4633POPC   C3A61121  33.769   2.190   6.837
 4633POPC   C4A61122  33.728   2.188   7.253
 4633POPC   C1B61123  34.006   1.737   6.153
 4633POPC   C2B61124  34.146   1.683   6.581
 4633POPC   C3B61125  34.067   1.823   6.985
 4633POPC   C4B61126  34.270   1.687   7.309
 4634POPC   NC361127  42.463  31.053   5.357
 4634POPC   PO461128  42.239  30.415   5.342
 4634POPC   GL161129  42.247  30.652   5.717
 4634POPC   GL261130  42.075  30.934   5.651
 4634POPC   C1A61131  42.399  30.600   6.170
 4634POPC   D2A61132  42.546  30.592   6.622
 4634POPC   C3A61133  42.281  30.410   6.983
 4634POPC   C4A61134  42.295  30.261   7.464
 4634POPC   C1B61135  42.161  31.024   6.068
 4634POPC   C2B61136  42.272  31.051   6.487
 4634POPC   C3B61137  42.235  30.924   6.918
 4634POPC   C4B61138  42.351  31.165   7.305
 4635POPC   NC361139  26.516   4.305   5.380
 4635POPC   PO461140  27.114   4.524   5.423
 4635POPC   GL161141  26.863   4.632   5.803
 4635POPC   GL261142  26.500   4.524   5.838
 4635POPC   C1A61143  27.011   4.574   6.241
 4635POPC   D2A61144  27.246   4.279   6.533
 4635POPC   C3A61145  27.144   4.466   6.922
 4635POPC   C4A61146  26.981   4.695   7.278
 4635POPC   C1B61147  26.585   4.298   6.213
 4635POPC   C2B61148  26.735   4.281   6.634
 4635POPC   C3B61149  26.650   4.351   7.053
 4635POPC   C4B61150  26.484   4.591   7.381
 4636POPC   NC361151   1.516  41.330   5.526
 4636POPC   PO461152   0.870  41.619   5.379
 4636POPC   GL161153   1.128  41.636   5.707
 4636POPC   GL261154   1.073  41.342   5.821
 4636POPC   C1A61155   1.036  41.754   6.144
 4636POPC   D2A61156   1.029  41.510   6.499
 4636POPC   C3A61157   0.990  41.731   6.875
 4636POPC   C4A61158   1.111  41.556   7.246
 4636POPC   C1B61159   1.436  41.449   6.127
 4636POPC   C2B61160   1.544  41.463   6.515
 4636POPC   C3B61161   1.392  41.375   6.875
 4636POPC   C4B61162   1.544  41.314   7.281
 4637POPC   NC361163  13.375  14.455   5.452
 4637POPC   PO461164  13.996  14.768   5.554
 4637POPC   GL161165  13.773  14.408   5.787
 4637POPC   GL261166  13.936  14.053   5.773
 4637POPC   C1A61167  13.505  14.504   6.186
 4637POPC   D2A61168  13.438  14.693   6.649
 4637POPC   C3A61169  13.623  14.499   7.047
 4637POPC   C4A61170  13.944  14.488   7.408
 4637POPC   C1B61171  13.661  14.001   6.140
 4637POPC   C2B61172  13.583  14.171   6.554
 4637POPC   C3B61173  13.565  14.001   6.942
 4637POPC   C4B61174  13.678  14.055   7.345
 4638POPC   NC361175  14.445  23.958   5.334
 4638POPC   PO461176  14.603  23.306   5.371
 4638POPC   GL161177  14.380  23.588   5.697
 4638POPC   GL261178  14.658  23.794   5.790
 4638POPC   C1A61179  14.236  23.844   6.099
 4638POPC   D2A61180  14.078  23.956   6.547
 4638POPC   C3A61181  14.196  23.730   6.949
 4638POPC   C4A61182  14.529  23.818   7.275
 4638POPC   C1B61183  14.629  23.509   6.154
 4638POPC   C2B61184  14.480  23.608   6.544
 4638POPC   C3B61185  14.668  23.491   6.937
 4638POPC   C4B61186  14.629  23.166   7.234
 4639POPC   NC361187  36.548  29.470   5.569
 4639POPC   PO461188  35.936  29.156   5.391
 4639POPC   GL161189  36.059  29.250   5.804
 4639POPC   GL261190  36.362  29.066   5.868
 4639POPC   C1A61191  35.933  29.088   6.227
 4639POPC   D2A61192  36.198  29.081   6.589
 4639POPC   C3A61193  36.001  28.984   6.964
 4639POPC   C4A61194  35.968  29.208   7.310
 4639POPC   C1B61195  36.342  29.404   6.204
 4639POPC   C2B61196  36.382  29.582   6.613
 4639POPC   C3B61197  36.378  29.402   7.020
 4639POPC   C4B61198  36.336  29.577   7.404
 4640POPC   NC361199  40.737  38.911   5.131
 4640POPC   PO461200  40.502  38.349   5.374
 4640POPC   GL161201  40.609  38.505   5.790
 4640POPC   GL261202  40.583  38.211   5.957
 4640POPC   C1A61203  40.584  38.690   6.205
 4640POPC   D2A61204  40.820  38.679   6.597
 4640POPC   C3A61205  40.788  38.742   7.044
 4640POPC   C4A61206  41.047  38.868   7.428
 4640POPC   C1B61207  40.589  38.233   6.407
 4640POPC   C2B61208  40.628  38.258   6.823
 4640POPC   C3B61209  40.579  38.039   7.230
 4640POPC   C4B61210  40.686  38.040   7.695
 4641POPC   NC361211  37.129  42.230   5.387
 4641POPC   PO461212  36.773  42.747   5.388
 4641POPC   GL161213  36.952  42.510   5.769
 4641POPC   GL261214  37.315  42.532   5.788
 4641POPC   C1A61215  37.012  42.361   6.206
 4641POPC   D2A61216  36.778  42.352   6.590
 4641POPC   C3A61217  36.916  42.279   7.025
 4641POPC   C4A61218  36.655  42.241   7.402
 4641POPC   C1B61219  37.331  42.762   6.174
 4641POPC   C2B61220  37.140  42.715   6.588
 4641POPC   C3B61221  37.271  42.646   7.035
 4641POPC   C4B61222  37.256  42.839   7.467
 4642POPC   NC361223  10.591   5.222   5.363
 4642POPC   PO461224  10.181   4.740   5.422
 4642POPC   GL161225  10.383   4.957   5.788
 4642POPC   GL261226  10.563   5.279   5.862
 4642POPC   C1A61227  10.256   5.060   6.206
 4642POPC   D2A61228  10.446   4.963   6.610
 4642POPC   C3A61229  10.230   5.109   6.949
 4642POPC   C4A61230  10.336   5.122   7.374
 4642POPC   C1B61231  10.768   5.071   6.198
 4642POPC   C2B61232  10.889   5.216   6.571
 4642POPC   C3B61233  10.682   5.346   6.927
 4642POPC   C4B61234  10.777   5.346   7.341
 4643POPC   NC361235  18.498  37.021   5.393
 4643POPC   PO461236  18.166  36.418   5.535
 4643POPC   GL161237  18.338  36.621   5.901
 4643POPC   GL261238  18.272  36.959   5.858
 4643POPC   C1A61239  18.323  36.784   6.332
 4643POPC   D2A61240  18.458  37.030   6.663
 4643POPC   C3A61241  18.485  36.868   7.034
 4643POPC   C4A61242  18.525  37.206   7.291
 4643POPC   C1B61243  18.003  37.173   6.184
 4643POPC   C2B61244  17.956  37.009   6.617
 4643POPC   C3B61245  18.060  37.155   7.035
 4643POPC   C4B61246  18.075  37.319   7.482
 4644POPC   NC361247  14.605  35.769   5.496
 4644POPC   PO461248  14.284  35.138   5.398
 4644POPC   GL161249  14.257  35.271   5.835
 4644POPC   GL261250  14.608  35.384   5.847
 4644POPC   C1A61251  14.339  35.370   6.313
 4644POPC   D2A61252  14.227  35.580   6.741
 4644POPC   C3A61253  14.218  35.335   7.157
 4644POPC   C4A61254  14.144  35.524   7.579
 4644POPC   C1B61255  14.860  35.327   6.211
 4644POPC   C2B61256  14.901  35.109   6.609
 4644POPC   C3B61257  14.907  35.257   7.037
 4644POPC   C4B61258  14.659  35.525   7.346
 4645POPC   NC361259  24.742   3.758   5.470
 4645POPC   PO461260  24.230   3.416   5.281
 4645POPC   GL161261  24.310   3.477   5.698
 4645POPC   GL261262  24.298   3.824   5.760
 4645POPC   C1A61263  24.325   3.383   6.129
 4645POPC   D2A61264  24.495   3.554   6.519
 4645POPC   C3A61265  24.184   3.553   6.815
 4645POPC   C4A61266  24.108   3.255   7.124
 4645POPC   C1B61267  24.618   3.851   6.112
 4645POPC   C2B61268  24.667   4.030   6.538
 4645POPC   C3B61269  24.542   3.955   6.958
 4645POPC   C4B61270  24.524   3.589   7.208
 4646POPC   NC361271  33.345  31.669   5.429
 4646POPC   PO461272  32.805  31.252   5.440
 4646POPC   GL161273  33.019  31.370   5.805
 4646POPC   GL261274  32.968  31.706   5.782
 4646POPC   C1A61275  32.971  31.192   6.246
 4646POPC   D2A61276  33.025  30.929   6.630
 4646POPC   C3A61277  32.872  31.098   6.990
 4646POPC   C4A61278  33.004  31.208   7.380
 4646POPC   C1B61279  33.234  31.649   6.193
 4646POPC   C2B61280  33.127  31.495   6.619
 4646POPC   C3B61281  32.991  31.600   7.004
 4646POPC   C4B61282  32.624  31.508   7.249
 4647POPC   NC361283  10.243   7.476   5.622
 4647POPC   PO461284  10.800   7.142   5.315
 4647POPC   GL161285  10.734   7.321   5.708
 4647POPC   GL261286  10.922   7.612   5.830
 4647POPC   C1A61287  10.611   7.220   6.133
 4647POPC   D2A61288  10.574   7.378   6.541
 4647POPC   C3A61289  10.728   7.148   6.888
 4647POPC   C4A61290  10.642   7.295   7.300
 4647POPC   C1B61291  10.588   7.741   6.138
 4647POPC   C2B61292  10.421   7.870   6.540
 4647POPC   C3B61293  10.564   7.689   6.946
 4647POPC   C4B61294  10.653   7.804   7.379
 4648POPC   NC361295  40.914  31.859   5.376
 4648POPC   PO461296  40.479  32.393   5.376
 4648POPC   GL161297  40.613  32.279   5.759
 4648POPC   GL261298  40.812  31.983   5.894
 4648POPC   C1A61299  40.396  32.254   6.134
 4648POPC   D2A61300  40.572  31.973   6.409
 4648POPC   C3A61301  40.555  32.023   6.887
 4648POPC   C4A61302  40.552  32.266   7.298
 4648POPC   C1B61303  41.050  32.151   6.280
 4648POPC   C2B61304  41.168  32.289   6.715
 4648POPC   C3B61305  41.027  32.127   7.112
 4648POPC   C4B61306  40.877  31.965   7.532
 4649POPC   NC361307  29.942  41.944   5.373
 4649POPC   PO461308  30.221  41.345   5.244
 4649POPC   GL161309  30.077  41.513   5.670
 4649POPC   GL261310  29.718  41.628   5.715
 4649POPC   C1A61311  30.020  41.675   6.135
 4649POPC   D2A61312  30.080  41.784   6.616
 4649POPC   C3A61313  29.986  41.560   7.016
 4649POPC   C4A61314  30.119  41.565   7.451
 4649POPC   C1B61315  29.568  41.894   6.098
 4649POPC   C2B61316  29.658  42.048   6.541
 4649POPC   C3B61317  29.623  41.902   6.976
 4649POPC   C4B61318  29.629  41.756   7.384
 4650POPC   NC361319  10.630  27.803   5.020
 4650POPC   PO461320  10.658  27.374   5.475
 4650POPC   GL161321  10.379  27.502   5.810
 4650POPC   GL261322  10.441  27.855   6.005
 4650POPC   C1A61323  10.454  27.385   6.222
 4650POPC   D2A61324  10.268  27.321   6.573
 4650POPC   C3A61325  10.423  27.612   6.869
 4650POPC   C4A61326  10.376  27.486   7.282
 4650POPC   C1B61327  10.812  27.751   6.309
 4650POPC   C2B61328  10.935  27.598   6.735
 4650POPC   C3B61329  10.842  27.719   7.157
 4650POPC   C4B61330  10.751  27.642   7.580
 4651POPC   NC361331  14.855   0.279   5.447
 4651POPC   PO461332  15.249   0.808   5.460
 4651POPC   GL161333  14.985   0.760   5.819
 4651POPC   GL261334  15.044   0.442   5.891
 4651POPC   C1A61335  14.893   0.827   6.254
 4651POPC   D2A61336  15.128   0.685   6.640
 4651POPC   C3A61337  15.030   0.784   7.054
 4651POPC   C4A61338  15.262   0.734   7.451
 4651POPC   C1B61339  14.992   0.324   6.303
 4651POPC   C2B61340  15.111   0.187   6.729
 4651POPC   C3B61341  15.351   0.360   7.060
 4651POPC   C4B61342  15.698   0.163   7.242
 4652POPC   NC361343  14.800   6.832   5.615
 4652POPC   PO461344  15.446   6.723   5.441
 4652POPC   GL161345  15.443   6.695   5.885
 4652POPC   GL261346  15.125   6.696   5.976
 4652POPC   C1A61347  15.517   6.680   6.341
 4652POPC   D2A61348  15.332   6.865   6.704
 4652POPC   C3A61349  15.346   6.881   7.149
 4652POPC   C4A61350  14.905   6.924   7.279
 4652POPC   C1B61351  15.009   6.445   6.296
 4652POPC   C2B61352  14.986   6.449   6.700
 4652POPC   C3B61353  15.052   6.490   7.084
 4652POPC   C4B61354  15.078   6.500   7.509
 4653POPC   NC361355  12.193  16.813   5.465
 4653POPC   PO461356  11.660  16.521   5.143
 4653POPC   GL161357  11.724  16.832   5.677
 4653POPC   GL261358  11.685  17.121   5.888
 4653POPC   C1A61359  11.998  16.710   6.130
 4653POPC   D2A61360  11.966  16.557   6.598
 4653POPC   C3A61361  12.181  16.772   6.949
 4653POPC   C4A61362  12.217  16.940   7.396
 4653POPC   C1B61363  11.612  16.966   6.309
 4653POPC   C2B61364  11.777  17.041   6.701
 4653POPC   C3B61365  11.810  17.134   7.127
 4653POPC   C4B61366  11.732  16.739   7.218
 4654POPC   NC361367  20.436  10.212   5.405
 4654POPC   PO461368  20.802  10.699   5.544
 4654POPC   GL161369  20.547  10.477   5.827
 4654POPC   GL261370  20.348  10.751   5.930
 4654POPC   C1A61371  20.330  10.228   6.153
 4654POPC   D2A61372  20.528  10.170   6.574
 4654POPC   C3A61373  20.539  10.546   6.841
 4654POPC   C4A61374  20.557  10.597   7.261
 4654POPC   C1B61375  20.621  10.641   6.311
 4654POPC   C2B61376  20.860  10.905   6.599
 4654POPC   C3B61377  20.983  10.811   7.012
 4654POPC   C4B61378  20.882  11.003   7.355
 4655POPC   NC361379   0.540  41.260   5.532
 4655POPC   PO461380   0.150  41.884   5.579
 4655POPC   GL161381   0.319  41.675   5.891
 4655POPC   GL261382   0.640  41.610   5.857
 4655POPC   C1A61383   0.387  41.640   6.302
 4655POPC   D2A61384   0.546  41.651   6.646
 4655POPC   C3A61385   0.260  41.461   6.910
 4655POPC   C4A61386   0.113  41.385   7.341
 4655POPC   C1B61387   0.684  41.269   6.154
 4655POPC   C2B61388   0.655  41.174   6.569
 4655POPC   C3B61389   0.799  41.276   6.952
 4655POPC   C4B61390   0.611  41.601   7.229
 4656POPC   NC361391  42.867  16.218   5.198
 4656POPC   PO461392  43.270  16.684   5.545
 4656POPC   GL161393  43.031  16.803   5.859
 4656POPC   GL261394  42.710  16.638   5.858
 4656POPC   C1A61395  43.221  16.940   6.200
 4656POPC   D2A61396  43.264  16.707   6.556
 4656POPC   C3A61397  43.154  16.808   6.969
 4656POPC   C4A61398  43.222  16.561   7.338
 4656POPC   C1B61399  42.788  16.661   6.322
 4656POPC   C2B61400  42.748  16.560   6.769
 4656POPC   C3B61401  42.718  16.720   7.206
 4656POPC   C4B61402  42.851  16.896   7.571
 4657POPC   NC361403  21.933  41.892   5.419
 4657POPC   PO461404  22.339  42.537   5.395
 4657POPC   GL161405  22.325  42.334   5.764
 4657POPC   GL261406  21.976  42.265   5.776
 4657POPC   C1A61407  22.396  42.358   6.198
 4657POPC   D2A61408  22.361  42.598   6.604
 4657POPC   C3A61409  22.396  42.403   7.014
 4657POPC   C4A61410  22.231  42.207   7.409
 4657POPC   C1B61411  21.960  42.086   6.181
 4657POPC   C2B61412  22.162  42.132   6.596
 4657POPC   C3B61413  22.096  41.960   6.978
 4657POPC   C4B61414  21.763  41.980   7.250
 4658POPC   NC361415  21.553   1.644   5.142
 4658POPC   PO461416  21.345   1.099   5.412
 4658POPC   GL161417  21.448   1.373   5.772
 4658POPC   GL261418  21.706   1.217   5.882
 4658POPC   C1A61419  21.301   1.314   6.197
 4658POPC   D2A61420  21.277   1.023   6.543
 4658POPC   C3A61421  21.448   1.206   6.897
 4658POPC   C4A61422  21.518   1.092   7.307
 4658POPC   C1B61423  21.670   0.962   6.225
 4658POPC   C2B61424  21.835   0.987   6.607
 4658POPC   C3B61425  21.771   0.809   6.954
 4658POPC   C4B61426  21.853   0.610   7.275
 4659POPC   NC361427   6.958  34.101   5.591
 4659POPC   PO461428   7.032  34.757   5.394
 4659POPC   GL161429   6.693  34.741   5.750
 4659POPC   GL261430   6.624  34.403   5.850
 4659POPC   C1A61431   6.533  34.696   6.231
 4659POPC   D2A61432   6.619  34.653   6.684
 4659POPC   C3A61433   6.383  34.509   7.045
 4659POPC   C4A61434   6.618  34.395   7.416
 4659POPC   C1B61435   6.900  34.308   6.201
 4659POPC   C2B61436   6.817  34.187   6.612
 4659POPC   C3B61437   6.932  34.344   6.997
 4659POPC   C4B61438   7.179  34.436   7.355
 4660POPC   NC361439  41.448  28.505   5.423
 4660POPC   PO461440  42.090  28.539   5.624
 4660POPC   GL161441  41.785  28.426   5.907
 4660POPC   GL261442  41.426  28.303   5.896
 4660POPC   C1A61443  41.802  28.488   6.338
 4660POPC   D2A61444  41.504  28.513   6.615
 4660POPC   C3A61445  41.672  28.644   6.979
 4660POPC   C4A61446  41.843  28.282   7.217
 4660POPC   C1B61447  41.337  28.649   6.156
 4660POPC   C2B61448  41.084  28.815   6.511
 4660POPC   C3B61449  41.143  28.655   6.926
 4660POPC   C4B61450  41.321  28.302   7.122
 4661POPC   NC361451  25.858  31.380   4.682
 4661POPC   PO461452  25.971  31.445   5.383
 4661POPC   GL161453  25.952  31.416   5.816
 4661POPC   GL261454  26.306  31.369   5.876
 4661POPC   C1A61455  25.779  31.320   6.220
 4661POPC   D2A61456  25.804  31.573   6.589
 4661POPC   C3A61457  25.951  31.494   7.017
 4661POPC   C4A61458  25.721  31.743   7.293
 4661POPC   C1B61459  26.234  31.554   6.282
 4661POPC   C2B61460  26.310  31.728   6.708
 4661POPC   C3B61461  26.383  31.749   7.164
 4661POPC   C4B61462  26.555  31.854   7.599
 4662POPC   NC361463  14.252  28.546   5.028
 4662POPC   PO461464  14.376  29.185   5.234
 4662POPC   GL161465  14.297  29.015   5.727
 4662POPC   GL261466  14.534  28.922   5.848
 4662POPC   C1A61467  14.192  28.745   6.154
 4662POPC   D2A61468  14.251  28.908   6.566
 4662POPC   C3A61469  14.044  28.974   6.920
 4662POPC   C4A61470  14.153  29.073   7.334
 4662POPC   C1B61471  14.632  29.072   6.261
 4662POPC   C2B61472  14.744  28.908   6.662
 4662POPC   C3B61473  14.547  29.145   6.945
 4662POPC   C4B61474  14.647  29.036   7.300
 4663POPC   NC361475   2.582   4.589   5.361
 4663POPC   PO461476   3.064   4.080   5.478
 4663POPC   GL161477   2.817   4.258   5.773
 4663POPC   GL261478   2.608   3.989   5.850
 4663POPC   C1A61479   2.964   4.197   6.204
 4663POPC   D2A61480   3.122   4.394   6.571
 4663POPC   C3A61481   2.888   4.243   6.900
 4663POPC   C4A61482   2.790   4.285   7.301
 4663POPC   C1B61483   2.456   4.173   6.205
 4663POPC   C2B61484   2.526   4.449   6.546
 4663POPC   C3B61485   2.411   4.447   6.987
 4663POPC   C4B61486   2.336   4.085   7.305
 4664POPC   NC361487  26.406   2.524   5.561
 4664POPC   PO461488  27.102   2.410   5.357
 4664POPC   GL161489  26.901   2.586   5.765
 4664POPC   GL261490  26.622   2.432   6.016
 4664POPC   C1A61491  27.022   2.655   6.204
 4664POPC   D2A61492  26.791   2.609   6.570
 4664POPC   C3A61493  26.779   2.962   6.839
 4664POPC   C4A61494  26.843   2.838   7.260
 4664POPC   C1B61495  26.488   2.827   6.197
 4664POPC   C2B61496  26.301   2.893   6.604
 4664POPC   C3B61497  26.342   2.826   7.069
 4664POPC   C4B61498  26.309   2.793   7.542
 4665POPC   NC361499  27.213  17.803   5.596
 4665POPC   PO461500  26.592  17.590   5.366
 4665POPC   GL161501  26.754  17.620   5.819
 4665POPC   GL261502  26.992  17.373   5.851
 4665POPC   C1A61503  26.498  17.765   6.207
 4665POPC   D2A61504  26.230  17.663   6.561
 4665POPC   C3A61505  26.422  17.735   6.933
 4665POPC   C4A61506  26.643  17.557   7.283
 4665POPC   C1B61507  26.836  17.399   6.314
 4665POPC   C2B61508  26.791  17.413   6.783
 4665POPC   C3B61509  26.913  17.141   7.141
 4665POPC   C4B61510  27.336  17.086   7.363
 4666POPC   NC361511   5.805   1.943   5.447
 4666POPC   PO461512   5.943   2.601   5.444
 4666POPC   GL161513   6.025   2.293   5.771
 4666POPC   GL261514   5.679   2.234   5.851
 4666POPC   C1A61515   6.034   2.057   6.182
 4666POPC   D2A61516   5.843   2.083   6.590
 4666POPC   C3A61517   5.970   1.902   6.986
 4666POPC   C4A61518   6.261   2.127   7.195
 4666POPC   C1B61519   5.489   2.025   6.218
 4666POPC   C2B61520   5.476   1.748   6.610
 4666POPC   C3B61521   5.461   1.999   6.967
 4666POPC   C4B61522   5.563   1.949   7.362
 4667POPC   NC361523  15.127   4.461   5.426
 4667POPC   PO461524  14.852   3.957   5.737
 4667POPC   GL161525  15.154   4.079   5.962
 4667POPC   GL261526  15.074   4.410   5.932
 4667POPC   C1A61527  15.209   4.151   6.385
 4667POPC   D2A61528  15.170   4.321   6.791
 4667POPC   C3A61529  15.020   4.049   7.141
 4667POPC   C4A61530  15.144   4.008   7.590
 4667POPC   C1B61531  15.258   4.653   6.233
 4667POPC   C2B61532  15.412   4.761   6.631
 4667POPC   C3B61533  15.272   4.754   7.042
 4667POPC   C4B61534  14.929   4.558   7.233
 4668POPC   NC361535   7.546  31.381   5.215
 4668POPC   PO461536   6.986  31.603   5.594
 4668POPC   GL161537   7.342  31.544   5.880
 4668POPC   GL261538   7.667  31.487   5.710
 4668POPC   C1A61539   7.417  31.700   6.303
 4668POPC   D2A61540   7.316  31.823   6.722
 4668POPC   C3A61541   7.174  31.563   7.053
 4668POPC   C4A61542   7.272  31.663   7.471
 4668POPC   C1B61543   7.803  31.391   6.134
 4668POPC   C2B61544   7.769  31.450   6.578
 4668POPC   C3B61545   7.689  31.540   6.988
 4668POPC   C4B61546   7.535  31.269   7.281
 4669POPC   NC361547  23.614   2.466   5.376
 4669POPC   PO461548  23.763   1.723   5.381
 4669POPC   GL161549  23.530   1.917   5.736
 4669POPC   GL261550  23.388   2.280   5.800
 4669POPC   C1A61551  23.476   1.724   6.140
 4669POPC   D2A61552  23.746   1.655   6.491
 4669POPC   C3A61553  23.966   1.854   6.850
 4669POPC   C4A61554  24.072   2.077   7.199
 4669POPC   C1B61555  23.699   2.181   6.149
 4669POPC   C2B61556  23.660   2.168   6.588
 4669POPC   C3B61557  23.564   2.227   7.043
 4669POPC   C4B61558  23.574   2.069   7.465
 4670POPC   NC361559   8.065  29.851   5.447
 4670POPC   PO461560   8.285  30.336   5.050
 4670POPC   GL161561   8.212  30.361   5.585
 4670POPC   GL261562   8.413  30.114   5.763
 4670POPC   C1A61563   8.118  30.369   6.098
 4670POPC   D2A61564   8.065  30.098   6.548
 4670POPC   C3A61565   8.287  30.150   6.940
 4670POPC   C4A61566   8.119  29.904   7.245
 4670POPC   C1B61567   8.427  29.955   6.206
 4670POPC   C2B61568   8.472  29.765   6.640
 4670POPC   C3B61569   8.547  29.662   7.089
 4670POPC   C4B61570   8.328  29.505   7.492
 4671POPC   NC361571   9.779   3.009   5.306
 4671POPC   PO461572  10.012   2.375   5.194
 4671POPC   GL161573   9.981   2.457   5.654
 4671POPC   GL261574   9.896   2.792   5.769
 4671POPC   C1A61575   9.977   2.432   6.128
 4671POPC   D2A61576   9.985   2.281   6.556
 4671POPC   C3A61577   9.899   2.571   6.889
 4671POPC   C4A61578   9.531   2.472   7.148
 4671POPC   C1B61579   9.682   2.881   6.177
 4671POPC   C2B61580   9.774   3.023   6.594
 4671POPC   C3B61581   9.600   2.974   7.010
 4671POPC   C4B61582   9.808   2.806   7.371
 4672POPC   NC361583   9.515  11.588   5.441
 4672POPC   PO461584   9.676  10.923   5.515
 4672POPC   GL161585   9.810  11.125   5.891
 4672POPC   GL261586   9.769  11.461   5.909
 4672POPC   C1A61587  10.084  11.125   6.242
 4672POPC   D2A61588  10.038  10.928   6.641
 4672POPC   C3A61589   9.659  11.143   6.746
 4672POPC   C4A61590   9.408  11.216   7.106
 4672POPC   C1B61591  10.012  11.677   6.193
 4672POPC   C2B61592   9.926  11.590   6.618
 4672POPC   C3B61593   9.911  11.480   7.037
 4672POPC   C4B61594  10.047  11.749   7.390
 4673POPC   NC361595  18.425  26.575   5.443
 4673POPC   PO461596  18.416  27.284   5.606
 4673POPC   GL161597  18.445  26.917   5.809
 4673POPC   GL261598  18.094  26.925   5.805
 4673POPC   C1A61599  18.538  26.784   6.204
 4673POPC   D2A61600  18.525  26.996   6.574
 4673POPC   C3A61601  18.386  26.730   6.864
 4673POPC   C4A61602  18.481  26.848   7.253
 4673POPC   C1B61603  18.149  27.113   6.212
 4673POPC   C2B61604  18.014  26.983   6.611
 4673POPC   C3B61605  18.065  27.109   7.021
 4673POPC   C4B61606  18.005  26.734   7.254
 4674POPC   NC361607  16.139   6.308   5.398
 4674POPC   PO461608  15.556   5.902   5.428
 4674POPC   GL161609  15.830   5.845   5.782
 4674POPC   GL261610  16.011   5.523   5.832
 4674POPC   C1A61611  15.845   5.923   6.226
 4674POPC   D2A61612  16.027   6.035   6.621
 4674POPC   C3A61613  15.802   5.935   6.984
 4674POPC   C4A61614  15.887   5.819   7.407
 4674POPC   C1B61615  15.885   5.392   6.266
 4674POPC   C2B61616  15.926   5.519   6.700
 4674POPC   C3B61617  16.110   5.437   7.109
 4674POPC   C4B61618  16.062   5.304   7.551
 4675POPC   NC361619  25.589  21.991   5.106
 4675POPC   PO461620  25.191  22.055   5.603
 4675POPC   GL161621  25.508  22.077   5.923
 4675POPC   GL261622  25.614  22.392   5.847
 4675POPC   C1A61623  25.576  22.073   6.390
 4675POPC   D2A61624  25.629  22.144   6.831
 4675POPC   C3A61625  25.453  21.904   7.176
 4675POPC   C4A61626  25.468  21.759   7.609
 4675POPC   C1B61627  25.443  22.544   6.245
 4675POPC   C2B61628  25.468  22.609   6.701
 4675POPC   C3B61629  25.384  22.484   7.134
 4675POPC   C4B61630  25.333  22.767   7.512
 4676POPC   NC361631  22.451   3.362   5.356
 4676POPC   PO461632  21.918   3.769   5.325
 4676POPC   GL161633  22.009   3.541   5.739
 4676POPC   GL261634  22.292   3.297   5.839
 4676POPC   C1A61635  22.131   3.678   6.168
 4676POPC   D2A61636  22.264   3.567   6.580
 4676POPC   C3A61637  22.005   3.715   6.939
 4676POPC   C4A61638  22.172   3.727   7.379
 4676POPC   C1B61639  22.288   3.089   6.256
 4676POPC   C2B61640  22.380   3.056   6.704
 4676POPC   C3B61641  22.354   3.347   7.043
 4676POPC   C4B61642  22.519   3.368   7.443
 4677POPC   NC361643  34.843  33.853   5.249
 4677POPC   PO461644  35.494  33.864   5.305
 4677POPC   GL161645  35.483  33.664   5.709
 4677POPC   GL261646  35.139  33.561   5.684
 4677POPC   C1A61647  35.548  33.635   6.173
 4677POPC   D2A61648  35.700  33.841   6.566
 4677POPC   C3A61649  35.472  33.713   6.947
 4677POPC   C4A61650  35.243  33.759   7.338
 4677POPC   C1B61651  35.036  33.632   6.127
 4677POPC   C2B61652  35.145  33.665   6.568
 4677POPC   C3B61653  34.915  33.644   6.989
 4677POPC   C4B61654  34.724  33.823   7.420
 4678POPC   NC361655   9.893  13.972   5.701
 4678POPC   PO461656   9.446  13.601   5.596
 4678POPC   GL161657   9.605  13.574   5.971
 4678POPC   GL261658   9.918  13.451   5.871
 4678POPC   C1A61659   9.583  13.778   6.358
 4678POPC   D2A61660   9.681  13.646   6.764
 4678POPC   C3A61661   9.674  13.881   7.120
 4678POPC   C4A61662   9.917  14.010   7.467
 4678POPC   C1B61663   9.971  13.417   6.322
 4678POPC   C2B61664   9.951  13.208   6.721
 4678POPC   C3B61665   9.944  13.410   7.154
 4678POPC   C4B61666  10.125  13.498   7.591
 4679POPC   NC361667   6.520  22.436   5.309
 4679POPC   PO461668   6.632  23.065   5.376
 4679POPC   GL161669   6.690  22.783   5.726
 4679POPC   GL261670   7.037  22.703   5.626
 4679POPC   C1A61671   6.544  22.805   6.207
 4679POPC   D2A61672   6.488  22.892   6.713
 4679POPC   C3A61673   6.538  22.788   7.208
 4679POPC   C4A61674   6.621  22.636   7.670
 4679POPC   C1B61675   7.050  22.835   6.071
 4679POPC   C2B61676   6.954  22.781   6.487
 4679POPC   C3B61677   6.888  22.621   6.886
 4679POPC   C4B61678   7.059  22.767   7.245
 4680POPC   NC361679  12.941  35.739   5.594
 4680POPC   PO461680  12.704  35.094   5.336
 4680POPC   GL161681  12.771  35.258   5.751
 4680POPC   GL261682  12.525  35.506   5.767
 4680POPC   C1A61683  12.907  35.424   6.165
 4680POPC   D2A61684  13.081  35.577   6.544
 4680POPC   C3A61685  12.862  35.422   6.895
 4680POPC   C4A61686  12.726  35.507   7.277
 4680POPC   C1B61687  12.445  35.627   6.213
 4680POPC   C2B61688  12.577  35.760   6.615
 4680POPC   C3B61689  12.361  35.759   7.025
 4680POPC   C4B61690  12.398  35.785   7.539
 4681POPC   NC361691  17.717  36.397   5.376
 4681POPC   PO461692  17.417  36.977   5.145
 4681POPC   GL161693  17.446  36.788   5.583
 4681POPC   GL261694  17.803  36.772   5.712
 4681POPC   C1A61695  17.389  36.938   6.009
 4681POPC   D2A61696  17.513  37.094   6.405
 4681POPC   C3A61697  17.381  36.882   6.789
 4681POPC   C4A61698  17.393  36.773   7.236
 4681POPC   C1B61699  17.866  36.699   6.140
 4681POPC   C2B61700  17.719  36.586   6.515
 4681POPC   C3B61701  17.811  36.658   6.946
 4681POPC   C4B61702  17.919  36.800   7.354
 4682POPC   NC361703  42.183   7.191   5.484
 4682POPC   PO461704  42.108   6.525   5.376
 4682POPC   GL161705  42.262   6.375   5.781
 4682POPC   GL261706  42.620   6.493   5.803
 4682POPC   C1A61707  42.256   6.590   6.171
 4682POPC   D2A61708  42.441   6.520   6.545
 4682POPC   C3A61709  42.201   6.531   6.925
 4682POPC   C4A61710  42.298   6.301   7.288
 4682POPC   C1B61711  42.659   6.909   6.048
 4682POPC   C2B61712  42.503   7.039   6.462
 4682POPC   C3B61713  42.632   6.883   6.856
 4682POPC   C4B61714  42.444   6.864   7.239
 4683POPC   NC361715   2.981  39.296   5.465
 4683POPC   PO461716   2.299  39.235   5.333
 4683POPC   GL161717   2.588  39.361   5.802
 4683POPC   GL261718   2.964  39.235   5.947
 4683POPC   C1A61719   2.745  39.551   6.274
 4683POPC   D2A61720   2.882  39.477   6.734
 4683POPC   C3A61721   2.628  39.232   7.053
 4683POPC   C4A61722   2.543  39.399   7.480
 4683POPC   C1B61723   3.256  39.016   6.248
 4683POPC   C2B61724   3.141  39.033   6.685
 4683POPC   C3B61725   3.046  38.937   7.098
 4683POPC   C4B61726   2.799  38.964   7.491
 4684POPC   NC361727   4.125   4.416   5.417
 4684POPC   PO461728   4.617   3.867   5.479
 4684POPC   GL161729   4.366   4.106   5.823
 4684POPC   GL261730   4.047   4.285   5.881
 4684POPC   C1A61731   4.389   4.386   6.210
 4684POPC   D2A61732   4.339   4.633   6.552
 4684POPC   C3A61733   4.331   4.386   6.934
 4684POPC   C4A61734   4.378   4.411   7.359
 4684POPC   C1B61735   4.011   3.968   6.168
 4684POPC   C2B61736   4.189   4.012   6.569
 4684POPC   C3B61737   3.999   4.001   6.985
 4684POPC   C4B61738   3.738   3.985   7.341
 4685POPC   NC361739  40.419   7.566   5.396
 4685POPC   PO461740  41.092   7.744   5.170
 4685POPC   GL161741  40.969   7.783   5.630
 4685POPC   GL261742  40.627   7.815   5.765
 4685POPC   C1A61743  41.017   7.683   6.081
 4685POPC   D2A61744  40.903   7.725   6.514
 4685POPC   C3A61745  41.072   7.404   6.783
 4685POPC   C4A61746  41.106   7.456   7.206
 4685POPC   C1B61747  40.507   7.537   6.122
 4685POPC   C2B61748  40.673   7.269   6.472
 4685POPC   C3B61749  40.586   7.369   6.910
 4685POPC   C4B61750  40.670   7.172   7.296
 4686POPC   NC361751   4.282  19.403   5.490
 4686POPC   PO461752   4.660  19.914   5.208
 4686POPC   GL161753   4.467  19.924   5.690
 4686POPC   GL261754   4.172  19.816   5.815
 4686POPC   C1A61755   4.510  19.930   6.177
 4686POPC   D2A61756   4.550  19.770   6.596
 4686POPC   C3A61757   4.784  19.916   6.939
 4686POPC   C4A61758   4.492  20.026   7.234
 4686POPC   C1B61759   4.011  19.832   6.250
 4686POPC   C2B61760   3.897  19.969   6.656
 4686POPC   C3B61761   4.063  19.811   7.031
 4686POPC   C4B61762   4.377  19.494   7.125
 4687POPC   NC361763  21.780  14.199   5.410
 4687POPC   PO461764  22.222  14.554   5.450
 4687POPC   GL161765  22.135  14.338   5.845
 4687POPC   GL261766  21.814  14.173   5.943
 4687POPC   C1A61767  22.317  14.378   6.276
 4687POPC   D2A61768  22.201  14.458   6.736
 4687POPC   C3A61769  22.413  14.233   7.085
 4687POPC   C4A61770  22.354  14.316   7.548
 4687POPC   C1B61771  21.832  14.212   6.420
 4687POPC   C2B61772  21.885  14.090   6.878
 4687POPC   C3B61773  21.934  14.348   7.250
 4687POPC   C4B61774  21.844  14.420   7.693
 4688POPC   NC361775  37.221  24.463   5.502
 4688POPC   PO461776  36.664  24.856   5.325
 4688POPC   GL161777  36.877  24.794   5.706
 4688POPC   GL261778  36.806  24.470   5.839
 4688POPC   C1A61779  37.029  24.921   6.114
 4688POPC   D2A61780  37.092  24.789   6.528
 4688POPC   C3A61781  36.853  24.601   6.814
 4688POPC   C4A61782  37.026  24.660   7.220
 4688POPC   C1B61783  37.120  24.403   6.177
 4688POPC   C2B61784  37.184  24.097   6.534
 4688POPC   C3B61785  37.327  24.020   6.957
 4688POPC   C4B61786  37.277  24.173   7.389
 4689POPC   NC361787  22.351   0.812   5.588
 4689POPC   PO461788  21.875   0.260   5.529
 4689POPC   GL161789  22.092   0.440   5.857
 4689POPC   GL261790  21.925   0.750   5.859
 4689POPC   C1A61791  22.404   0.435   6.192
 4689POPC   D2A61792  22.399   0.203   6.574
 4689POPC   C3A61793  22.157   0.369   6.928
 4689POPC   C4A61794  22.331   0.467   7.327
 4689POPC   C1B61795  22.189   0.916   6.220
 4689POPC   C2B61796  22.314   0.748   6.632
 4689POPC   C3B61797  22.257   0.910   7.069
 4689POPC   C4B61798  22.142   0.925   7.531
 4690POPC   NC361799   3.176   8.654   5.563
 4690POPC   PO461800   3.474   9.122   5.214
 4690POPC   GL161801   3.644   8.917   5.656
 4690POPC   GL261802   3.872   8.613   5.779
 4690POPC   C1A61803   3.547   8.833   6.109
 4690POPC   D2A61804   3.670   9.024   6.492
 4690POPC   C3A61805   3.388   9.013   6.849
 4690POPC   C4A61806   3.562   9.177   7.207
 4690POPC   C1B61807   3.846   8.438   6.243
 4690POPC   C2B61808   3.610   8.546   6.635
 4690POPC   C3B61809   3.830   8.764   6.991
 4690POPC   C4B61810   3.848   8.824   7.454
 4691POPC   NC361811  37.086   6.307   5.110
 4691POPC   PO461812  37.097   5.758   5.466
 4691POPC   GL161813  36.807   5.881   5.759
 4691POPC   GL261814  36.523   5.651   5.767
 4691POPC   C1A61815  36.962   6.001   6.177
 4691POPC   D2A61816  37.220   6.104   6.544
 4691POPC   C3A61817  37.109   5.861   6.929
 4691POPC   C4A61818  37.121   5.956   7.367
 4691POPC   C1B61819  36.477   5.846   6.155
 4691POPC   C2B61820  36.551   6.168   6.459
 4691POPC   C3B61821  36.644   6.126   6.886
 4691POPC   C4B61822  36.659   5.806   7.221
 4692POPC   NC361823  35.708  33.498   5.127
 4692POPC   PO461824  36.255  33.768   5.290
 4692POPC   GL161825  36.081  33.826   5.734
 4692POPC   GL261826  36.356  33.991   5.883
 4692POPC   C1A61827  36.072  33.693   6.209
 4692POPC   D2A61828  36.237  33.762   6.647
 4692POPC   C3A61829  35.986  33.767   7.031
 4692POPC   C4A61830  35.724  33.599   7.370
 4692POPC   C1B61831  36.220  34.208   6.265
 4692POPC   C2B61832  36.037  34.258   6.672
 4692POPC   C3B61833  36.016  34.264   7.106
 4692POPC   C4B61834  36.062  34.020   7.475
 4693POPC   NC361835   8.770  11.834   5.367
 4693POPC   PO461836   9.384  12.125   5.383
 4693POPC   GL161837   9.067  12.146   5.710
 4693POPC   GL261838   8.975  11.816   5.842
 4693POPC   C1A61839   9.137  12.221   6.151
 4693POPC   D2A61840   9.022  11.932   6.471
 4693POPC   C3A61841   8.982  12.142   6.856
 4693POPC   C4A61842   9.223  12.080   7.203
 4693POPC   C1B61843   8.742  11.598   6.160
 4693POPC   C2B61844   8.770  11.490   6.583
 4693POPC   C3B61845   8.646  11.721   6.934
 4693POPC   C4B61846   8.741  11.933   7.302
 4694POPC   NC361847  41.089  12.299   5.396
 4694POPC   PO461848  40.500  11.957   5.257
 4694POPC   GL161849  40.533  11.977   5.742
 4694POPC   GL261850  40.733  12.286   5.912
 4694POPC   C1A61851  40.569  11.906   6.202
 4694POPC   D2A61852  40.792  12.032   6.573
 4694POPC   C3A61853  40.615  11.926   6.973
 4694POPC   C4A61854  40.573  11.915   7.450
 4694POPC   C1B61855  41.048  12.480   6.208
 4694POPC   C2B61856  41.006  12.487   6.675
 4694POPC   C3B61857  41.068  12.188   7.026
 4694POPC   C4B61858  41.274  12.262   7.453
 4695POPC   NC361859  27.638   1.907   5.449
 4695POPC   PO461860  28.111   1.517   5.644
 4695POPC   GL161861  27.890   1.912   5.895
 4695POPC   GL261862  27.521   2.110   5.902
 4695POPC   C1A61863  27.720   1.924   6.326
 4695POPC   D2A61864  27.311   1.836   6.562
 4695POPC   C3A61865  27.444   1.812   7.003
 4695POPC   C4A61866  27.769   2.079   7.187
 4695POPC   C1B61867  27.483   2.395   6.304
 4695POPC   C2B61868  27.299   2.462   6.739
 4695POPC   C3B61869  27.497   2.499   7.170
 4695POPC   C4B61870  27.497   2.250   7.591
 4696POPC   NC361871  11.781  32.337   5.471
 4696POPC   PO461872  12.210  31.910   5.399
 4696POPC   GL161873  12.063  32.010   5.796
 4696POPC   GL261874  11.726  31.932   5.809
 4696POPC   C1A61875  11.951  32.178   6.202
 4696POPC   D2A61876  11.750  32.287   6.588
 4696POPC   C3A61877  12.057  32.385   6.909
 4696POPC   C4A61878  12.123  32.603   7.251
 4696POPC   C1B61879  11.795  31.656   6.143
 4696POPC   C2B61880  11.889  31.752   6.570
 4696POPC   C3B61881  11.780  31.947   6.974
 4696POPC   C4B61882  12.116  32.045   7.271
 4697POPC   NC361883  29.921  36.472   5.095
 4697POPC   PO461884  29.709  37.100   5.375
 4697POPC   GL161885  29.906  36.987   5.789
 4697POPC   GL261886  29.659  36.850   6.026
 4697POPC   C1A61887  30.123  36.945   6.238
 4697POPC   D2A61888  30.028  36.729   6.667
 4697POPC   C3A61889  30.001  36.831   7.134
 4697POPC   C4A61890  30.306  37.000   7.422
 4697POPC   C1B61891  29.747  37.293   6.147
 4697POPC   C2B61892  29.888  37.364   6.542
 4697POPC   C3B61893  29.678  37.110   6.843
 4697POPC   C4B61894  29.506  37.311   7.182
 4698POPC   NC361895   5.007  19.389   5.320
 4698POPC   PO461896   5.372  18.773   5.437
 4698POPC   GL161897   5.356  18.953   5.817
 4698POPC   GL261898   5.063  19.120   5.778
 4698POPC   C1A61899   5.160  18.841   6.228
 4698POPC   D2A61900   5.193  19.054   6.628
 4698POPC   C3A61901   4.976  18.834   6.934
 4698POPC   C4A61902   5.191  18.736   7.307
 4698POPC   C1B61903   5.076  19.332   6.184
 4698POPC   C2B61904   4.776  19.329   6.522
 4698POPC   C3B61905   4.868  19.394   6.951
 4698POPC   C4B61906   4.840  19.144   7.306
 4699POPC   NC361907   5.533   2.636   5.084
 4699POPC   PO461908   5.022   2.953   5.491
 4699POPC   GL161909   5.065   2.616   5.812
 4699POPC   GL261910   4.728   2.498   5.807
 4699POPC   C1A61911   5.192   2.621   6.270
 4699POPC   D2A61912   5.238   2.934   6.631
 4699POPC   C3A61913   5.331   2.779   7.057
 4699POPC   C4A61914   5.091   2.453   7.291
 4699POPC   C1B61915   4.732   2.876   6.127
 4699POPC   C2B61916   4.684   3.026   6.573
 4699POPC   C3B61917   4.821   2.890   6.988
 4699POPC   C4B61918   4.932   3.035   7.413
 4700POPC   NC361919  16.863  28.751   5.580
 4700POPC   PO461920  16.489  29.271   5.253
 4700POPC   GL161921  16.639  29.181   5.679
 4700POPC   GL261922  16.933  29.341   5.816
 4700POPC   C1A61923  16.495  29.038   6.104
 4700POPC   D2A61924  16.650  28.954   6.524
 4700POPC   C3A61925  16.668  29.148   6.964
 4700POPC   C4A61926  16.592  29.090   7.414
 4700POPC   C1B61927  17.015  29.019   6.142
 4700POPC   C2B61928  17.097  28.718   6.457
 4700POPC   C3B61929  17.101  28.887   6.855
 4700POPC   C4B61930  17.086  28.981   7.264
 4701POPC   NC361931   7.140  35.196   5.471
 4701POPC   PO461932   7.797  35.400   5.418
 4701POPC   GL161933   7.613  35.312   5.784
 4701POPC   GL261934   7.342  35.533   5.809
 4701POPC   C1A61935   7.600  35.050   6.143
 4701POPC   D2A61936   7.328  35.092   6.478
 4701POPC   C3A61937   7.515  35.176   6.856
 4701POPC   C4A61938   7.481  35.087   7.272
 4701POPC   C1B61939   7.403  35.531   6.237
 4701POPC   C2B61940   7.248  35.587   6.649
 4701POPC   C3B61941   7.434  35.696   7.007
 4701POPC   C4B61942   7.328  35.553   7.376
 4702POPC   NC361943  34.523  26.856   5.152
 4702POPC   PO461944  33.970  26.470   5.363
 4702POPC   GL161945  34.289  26.544   5.764
 4702POPC   GL261946  34.461  26.871   5.762
 4702POPC   C1A61947  34.585  26.572   6.168
 4702POPC   D2A61948  34.843  26.676   6.531
 4702POPC   C3A61949  34.684  26.519   6.937
 4702POPC   C4A61950  34.491  26.612   7.348
 4702POPC   C1B61951  34.702  27.070   6.148
 4702POPC   C2B61952  34.689  27.175   6.591
 4702POPC   C3B61953  34.502  27.035   6.986
 4702POPC   C4B61954  34.111  27.096   7.167
 4703POPC   NC361955  39.373  16.326   5.300
 4703POPC   PO461956  39.239  15.599   5.351
 4703POPC   GL161957  39.129  15.660   5.793
 4703POPC   GL261958  39.121  16.028   5.791
 4703POPC   C1A61959  39.292  15.725   6.207
 4703POPC   D2A61960  39.421  15.769   6.630
 4703POPC   C3A61961  39.158  15.661   6.992
 4703POPC   C4A61962  39.089  15.674   7.439
 4703POPC   C1B61963  39.043  16.314   6.136
 4703POPC   C2B61964  38.986  16.447   6.559
 4703POPC   C3B61965  38.854  16.415   6.989
 4703POPC   C4B61966  39.086  16.122   7.219
 4704POPC   NC361967  31.239  33.493   5.522
 4704POPC   PO461968  31.555  32.964   5.201
 4704POPC   GL161969  31.540  32.866   5.679
 4704POPC   GL261970  31.270  33.072   5.848
 4704POPC   C1A61971  31.678  32.886   6.152
 4704POPC   D2A61972  31.559  33.116   6.543
 4704POPC   C3A61973  31.685  32.986   6.947
 4704POPC   C4A61974  31.371  32.770   7.196
 4704POPC   C1B61975  31.131  33.394   6.164
 4704POPC   C2B61976  31.115  33.386   6.613
 4704POPC   C3B61977  31.337  33.436   6.986
 4704POPC   C4B61978  31.305  33.743   7.306
 4705POPC   NC361979  16.380   0.490   5.351
 4705POPC   PO461980  17.006   0.367   5.295
 4705POPC   GL161981  16.850   0.532   5.713
 4705POPC   GL261982  16.496   0.616   5.842
 4705POPC   C1A61983  16.879   0.367   6.154
 4705POPC   D2A61984  17.129   0.359   6.548
 4705POPC   C3A61985  16.890   0.421   6.922
 4705POPC   C4A61986  17.001   0.558   7.319
 4705POPC   C1B61987  16.813   0.862   6.121
 4705POPC   C2B61988  16.945   0.835   6.563
 4705POPC   C3B61989  16.780   0.915   6.993
 4705POPC   C4B61990  16.486   0.679   7.204
 4706POPC   NC361991  42.476  15.529   5.461
 4706POPC   PO461992  42.374  14.917   5.152
 4706POPC   GL161993  42.217  15.068   5.582
 4706POPC   GL261994  42.028  14.803   5.813
 4706POPC   C1A61995  42.316  15.157   6.037
 4706POPC   D2A61996  42.547  15.338   6.397
 4706POPC   C3A61997  42.497  15.199   6.821
 4706POPC   C4A61998  42.692  15.446   7.168
 4706POPC   C1B61999  42.118  14.703   6.253
 4706POPC   C2B62000  42.088  15.077   6.516
 4706POPC   C3B62001  42.011  15.155   6.963
 4706POPC   C4B62002  42.275  15.204   7.314
 4707POPC   NC362003   7.095  39.395   5.684
 4707POPC   PO462004   7.682  39.864   5.545
 4707POPC   GL162005   7.680  39.533   5.929
 4707POPC   GL262006   7.556  39.197   5.883
 4707POPC   C1A62007   7.734  39.231   6.335
 4707POPC   D2A62008   7.599  39.287   6.729
 4707POPC   C3A62009   7.632  39.292   7.142
 4707POPC   C4A62010   7.170  39.398   7.174
 4707POPC   C1B62011   7.265  39.007   6.232
 4707POPC   C2B62012   7.151  39.027   6.721
 4707POPC   C3B62013   7.113  38.795   7.143
 4707POPC   C4B62014   7.128  38.686   7.611
 4708POPC   NC362015  15.293  33.481   5.460
 4708POPC   PO462016  15.542  34.133   5.355
 4708POPC   GL162017  15.386  34.041   5.813
 4708POPC   GL262018  15.437  33.682   5.895
 4708POPC   C1A62019  15.194  33.992   6.247
 4708POPC   D2A62020  15.346  33.865   6.681
 4708POPC   C3A62021  15.001  33.792   6.969
 4708POPC   C4A62022  14.992  33.788   7.401
 4708POPC   C1B62023  15.631  33.412   6.201
 4708POPC   C2B62024  15.732  33.528   6.614
 4708POPC   C3B62025  15.625  33.398   7.001
 4708POPC   C4B62026  15.238  33.383   7.186
 4709POPC   NC362027  35.208   3.950   5.686
 4709POPC   PO462028  35.646   4.190   5.181
 4709POPC   GL162029  35.439   4.434   5.591
 4709POPC   GL262030  35.093   4.598   5.691
 4709POPC   C1A62031  35.417   4.471   6.069
 4709POPC   D2A62032  35.379   4.511   6.532
 4709POPC   C3A62033  35.273   4.143   6.841
 4709POPC   C4A62034  35.561   3.950   7.192
 4709POPC   C1B62035  34.961   4.658   6.165
 4709POPC   C2B62036  34.891   4.612   6.631
 4709POPC   C3B62037  35.185   4.680   6.984
 4709POPC   C4B62038  35.268   4.382   7.296
 4710POPC   NC362039  44.632  19.156   5.331
 4710POPC   PO462040  44.670  18.411   5.307
 4710POPC   GL162041  44.630  18.738   5.653
 4710POPC   GL262042  44.440  19.066   5.805
 4710POPC   C1A62043  44.784  18.803   6.069
 4710POPC   D2A62044  44.637  18.884   6.485
 4710POPC   C3A62045  44.852  18.919   6.875
 4710POPC   C4A62046  44.590  18.988   7.238
 4710POPC   C1B62047  44.752  19.299   6.081
 4710POPC   C2B62048  44.903  19.322   6.510
 4710POPC   C3B62049  44.674  19.386   6.880
 4710POPC   C4B62050  44.666  19.495   7.304
 4711POPC   NC362051  13.171   7.776   5.470
 4711POPC   PO462052  12.696   8.219   5.188
 4711POPC   GL162053  12.791   8.103   5.620
 4711POPC   GL262054  12.510   7.936   5.802
 4711POPC   C1A62055  13.003   8.192   6.027
 4711POPC   D2A62056  12.918   8.377   6.439
 4711POPC   C3A62057  12.955   8.213   6.839
 4711POPC   C4A62058  12.704   8.386   7.122
 4711POPC   C1B62059  12.571   7.862   6.259
 4711POPC   C2B62060  12.735   7.762   6.679
 4711POPC   C3B62061  12.676   7.857   7.103
 4711POPC   C4B62062  12.622   8.064   7.490
 4712POPC   NC362063  37.995   6.765   5.113
 4712POPC   PO462064  37.580   6.618   5.630
 4712POPC   GL162065  37.647   6.520   5.965
 4712POPC   GL262066  37.981   6.383   5.930
 4712POPC   C1A62067  37.445   6.574   6.342
 4712POPC   D2A62068  37.573   6.833   6.656
 4712POPC   C3A62069  37.590   6.558   6.991
 4712POPC   C4A62070  37.540   6.794   7.345
 4712POPC   C1B62071  38.015   6.616   6.297
 4712POPC   C2B62072  38.058   6.666   6.716
 4712POPC   C3B62073  37.983   6.857   7.070
 4712POPC   C4B62074  37.943   6.495   7.375
 4713POPC   NC362075   5.768  39.033   5.170
 4713POPC   PO462076   6.248  39.488   5.038
 4713POPC   GL162077   5.989  39.378   5.483
 4713POPC   GL262078   5.882  39.035   5.676
 4713POPC   C1A62079   5.887  39.522   5.948
 4713POPC   D2A62080   6.024  39.458   6.409
 4713POPC   C3A62081   5.908  39.433   6.857
 4713POPC   C4A62082   6.138  39.328   7.262
 4713POPC   C1B62083   5.767  39.046   6.162
 4713POPC   C2B62084   5.904  38.968   6.623
 4713POPC   C3B62085   5.776  38.982   7.075
 4713POPC   C4B62086   5.763  38.999   7.534
 4714POPC   NC362087  39.205  16.937   5.353
 4714POPC   PO462088  38.912  16.277   5.350
 4714POPC   GL162089  39.067  16.554   5.674
 4714POPC   GL262090  39.407  16.476   5.778
 4714POPC   C1A62091  39.021  16.848   6.037
 4714POPC   D2A62092  39.192  16.996   6.436
 4714POPC   C3A62093  39.007  16.887   6.820
 4714POPC   C4A62094  39.111  16.870   7.237
 4714POPC   C1B62095  39.507  16.710   6.138
 4714POPC   C2B62096  39.533  16.623   6.572
 4714POPC   C3B62097  39.366  16.516   6.950
 4714POPC   C4B62098  39.418  16.460   7.377
 4715POPC   NC362099  41.170   5.701   5.321
 4715POPC   PO462100  41.730   6.029   5.161
 4715POPC   GL162101  41.630   5.887   5.632
 4715POPC   GL262102  41.869   6.029   5.875
 4715POPC   C1A62103  41.536   5.742   6.115
 4715POPC   D2A62104  41.459   5.910   6.555
 4715POPC   C3A62105  41.553   5.731   6.994
 4715POPC   C4A62106  41.722   5.800   7.464
 4715POPC   C1B62107  41.983   6.174   6.302
 4715POPC   C2B62108  41.834   6.226   6.725
 4715POPC   C3B62109  41.831   6.183   7.171
 4715POPC   C4B62110  41.964   6.207   7.663
 4716POPC   NC362111  32.248  10.119   5.198
 4716POPC   PO462112  32.409  10.621   5.574
 4716POPC   GL162113  32.269  10.365   5.852
 4716POPC   GL262114  31.942  10.458   5.680
 4716POPC   C1A62115  32.320  10.309   6.316
 4716POPC   D2A62116  32.504  10.277   6.745
 4716POPC   C3A62117  32.296  10.449   7.103
 4716POPC   C4A62118  31.854  10.517   7.078
 4716POPC   C1B62119  31.861  10.531   6.092
 4716POPC   C2B62120  31.873  10.455   6.545
 4716POPC   C3B62121  32.005  10.095   6.808
 4716POPC   C4B62122  31.990  10.049   7.260
 4717POPC   NC362123  35.238  17.232   5.550
 4717POPC   PO462124  35.451  16.626   5.496
 4717POPC   GL162125  35.194  16.774   5.817
 4717POPC   GL262126  35.489  16.975   5.926
 4717POPC   C1A62127  35.122  16.753   6.274
 4717POPC   D2A62128  35.484  16.674   6.557
 4717POPC   C3A62129  35.527  16.629   7.007
 4717POPC   C4A62130  35.235  16.513   7.342
 4717POPC   C1B62131  35.445  17.152   6.340
 4717POPC   C2B62132  35.701  17.150   6.720
 4717POPC   C3B62133  35.688  17.100   7.160
 4717POPC   C4B62134  35.605  16.825   7.489
 4718POPC   NC362135  13.223   0.054   5.531
 4718POPC   PO462136  12.783   0.514   5.290
 4718POPC   GL162137  12.844   0.368   5.709
 4718POPC   GL262138  12.860   0.668   5.822
 4718POPC   C1A62139  12.737   0.319   6.181
 4718POPC   D2A62140  12.772   0.489   6.600
 4718POPC   C3A62141  12.692   0.209   6.948
 4718POPC   C4A62142  12.711   0.065   7.366
 4718POPC   C1B62143  12.594   0.885   6.134
 4718POPC   C2B62144  12.388   0.823   6.529
 4718POPC   C3B62145  12.426   0.690   6.929
 4718POPC   C4B62146  12.807   0.649   7.150
 4719POPC   NC362147  39.367  33.832   5.453
 4719POPC   PO462148  38.933  33.366   5.241
 4719POPC   GL162149  38.922  33.685   5.681
 4719POPC   GL262150  39.124  34.002   5.860
 4719POPC   C1A62151  38.953  33.678   6.201
 4719POPC   D2A62152  39.299  33.478   6.499
 4719POPC   C3A62153  39.403  33.622   6.935
 4719POPC   C4A62154  39.179  33.611   7.331
 4719POPC   C1B62155  39.451  33.968   6.237
 4719POPC   C2B62156  39.590  34.044   6.679
 4719POPC   C3B62157  39.383  34.107   7.117
 4719POPC   C4B62158  39.496  33.954   7.534
 4720POPC   NC362159  33.390   9.119   5.315
 4720POPC   PO462160  32.708   9.135   5.354
 4720POPC   GL162161  32.857   9.022   5.794
 4720POPC   GL262162  33.222   9.012   5.784
 4720POPC   C1A62163  32.638   8.955   6.222
 4720POPC   D2A62164  32.547   9.198   6.634
 4720POPC   C3A62165  32.661   9.008   7.062
 4720POPC   C4A62166  32.846   8.630   7.282
 4720POPC   C1B62167  33.143   8.869   6.214
 4720POPC   C2B62168  33.050   8.978   6.677
 4720POPC   C3B62169  33.176   9.028   7.130
 4720POPC   C4B62170  33.365   8.723   7.398
 4721POPC   NC362171  31.166  32.733   5.340
 4721POPC   PO462172  31.581  32.226   5.433
 4721POPC   GL162173  31.477  32.068   5.836
 4721POPC   GL262174  31.151  31.948   5.797
 4721POPC   C1A62175  31.445  32.262   6.239
 4721POPC   D2A62176  31.636  32.521   6.568
 4721POPC   C3A62177  31.494  32.339   6.943
 4721POPC   C4A62178  31.567  32.310   7.385
 4721POPC   C1B62179  31.224  31.775   6.198
 4721POPC   C2B62180  31.049  31.846   6.622
 4721POPC   C3B62181  31.264  31.895   7.030
 4721POPC   C4B62182  31.218  31.970   7.478
 4722POPC   NC362183  10.574   9.387   5.585
 4722POPC   PO462184  10.524   8.718   5.458
 4722POPC   GL162185  10.604   8.904   5.838
 4722POPC   GL262186  10.912   8.720   5.927
 4722POPC   C1A62187  10.493   8.949   6.289
 4722POPC   D2A62188  10.471   8.950   6.753
 4722POPC   C3A62189  10.602   8.628   7.035
 4722POPC   C4A62190  10.517   8.609   7.483
 4722POPC   C1B62191  10.956   9.143   6.126
 4722POPC   C2B62192  10.812   9.354   6.495
 4722POPC   C3B62193  10.862   9.253   6.911
 4722POPC   C4B62194  10.714   9.072   7.275
 4723POPC   NC362195  29.362   0.255   5.334
 4723POPC   PO462196  29.385  44.569   5.265
 4723POPC   GL162197  29.408  44.595   5.719
 4723POPC   GL262198  29.390  44.967   5.807
 4723POPC   C1A62199  29.172  44.435   6.097
 4723POPC   D2A62200  28.888  44.629   6.432
 4723POPC   C3A62201  28.932  44.645   6.896
 4723POPC   C4A62202  29.195  44.483   7.243
 4723POPC   C1B62203  29.355  44.877   6.268
 4723POPC   C2B62204  29.399  44.743   6.701
 4723POPC   C3B62205  29.338  44.957   7.109
 4723POPC   C4B62206  29.232  44.890   7.562
 4724POPC   NC362207   0.102  28.041   5.480
 4724POPC   PO462208   0.516  28.559   5.363
 4724POPC   GL162209   0.594  28.524   5.790
 4724POPC   GL262210   0.268  28.398   5.827
 4724POPC   C1A62211   0.604  28.414   6.235
 4724POPC   D2A62212   0.807  28.559   6.609
 4724POPC   C3A62213   0.687  28.357   6.967
 4724POPC   C4A62214   0.680  28.505   7.385
 4724POPC   C1B62215   0.121  28.204   6.179
 4724POPC   C2B62216   0.027  28.295   6.595
 4724POPC   C3B62217   0.139  28.104   6.936
 4724POPC   C4B62218   0.279  28.213   7.298
 4725POPC   NC362219  32.501  26.051   5.474
 4725POPC   PO462220  32.012  26.395   5.472
 4725POPC   GL162221  32.243  26.251   5.871
 4725POPC   GL262222  32.238  25.892   5.894
 4725POPC   C1A62223  32.489  26.364   6.265
 4725POPC   D2A62224  32.574  26.145   6.659
 4725POPC   C3A62225  32.349  26.244   7.027
 4725POPC   C4A62226  31.914  26.148   7.095
 4725POPC   C1B62227  32.145  25.985   6.322
 4725POPC   C2B62228  32.181  25.820   6.732
 4725POPC   C3B62229  32.390  25.737   7.121
 4725POPC   C4B62230  32.574  25.639   7.533
 4726POPC   NC362231  37.527   9.296   5.402
 4726POPC   PO462232  37.223   9.846   5.194
 4726POPC   GL162233  37.469   9.891   5.696
 4726POPC   GL262234  37.860   9.931   5.791
 4726POPC   C1A62235  37.565   9.763   6.189
 4726POPC   D2A62236  37.365   9.708   6.622
 4726POPC   C3A62237  37.442   9.647   7.076
 4726POPC   C4A62238  37.415   9.602   7.525
 4726POPC   C1B62239  38.039  10.122   6.218
 4726POPC   C2B62240  38.031  10.241   6.668
 4726POPC   C3B62241  37.833   9.963   6.970
 4726POPC   C4B62242  37.851   9.842   7.399
 4727POPC   NC362243  10.849  35.102   5.573
 4727POPC   PO462244  10.182  35.341   5.398
 4727POPC   GL162245  10.392  35.335   5.815
 4727POPC   GL262246  10.581  35.092   5.987
 4727POPC   C1A62247  10.472  35.520   6.229
 4727POPC   D2A62248  10.667  35.344   6.588
 4727POPC   C3A62249  10.525  35.574   6.911
 4727POPC   C4A62250  10.356  35.511   7.287
 4727POPC   C1B62251  10.214  35.051   6.225
 4727POPC   C2B62252  10.174  35.229   6.619
 4727POPC   C3B62253  10.281  35.092   7.017
 4727POPC   C4B62254  10.019  35.150   7.375
 4728POPC   NC362255   1.058  30.138   5.465
 4728POPC   PO462256   1.158  30.772   5.553
 4728POPC   GL162257   1.316  30.628   5.889
 4728POPC   GL262258   1.075  30.363   5.989
 4728POPC   C1A62259   1.372  30.762   6.288
 4728POPC   D2A62260   1.404  30.566   6.655
 4728POPC   C3A62261   1.315  30.778   7.020
 4728POPC   C4A62262   1.145  31.182   7.146
 4728POPC   C1B62263   0.796  30.370   6.381
 4728POPC   C2B62264   0.877  30.576   6.804
 4728POPC   C3B62265   0.838  30.775   7.234
 4728POPC   C4B62266   0.848  30.574   7.655
 4729POPC   NC362267  13.532   3.814   5.476
 4729POPC   PO462268  13.996   3.455   5.173
 4729POPC   GL162269  13.854   3.499   5.667
 4729POPC   GL262270  13.523   3.409   5.813
 4729POPC   C1A62271  13.892   3.636   6.160
 4729POPC   D2A62272  13.984   3.441   6.614
 4729POPC   C3A62273  13.783   3.558   7.039
 4729POPC   C4A62274  13.551   3.534   7.455
 4729POPC   C1B62275  13.362   3.602   6.181
 4729POPC   C2B62276  13.499   3.647   6.589
 4729POPC   C3B62277  13.311   3.770   6.974
 4729POPC   C4B62278  13.367   4.012   7.355
 4730POPC   NC362279  11.928  19.334   5.501
 4730POPC   PO462280  12.384  18.918   5.345
 4730POPC   GL162281  12.269  18.989   5.745
 4730POPC   GL262282  11.949  18.845   5.748
 4730POPC   C1A62283  12.200  19.270   6.114
 4730POPC   D2A62284  11.965  19.258   6.493
 4730POPC   C3A62285  12.100  19.180   6.901
 4730POPC   C4A62286  11.793  19.224   7.189
 4730POPC   C1B62287  12.060  18.782   6.173
 4730POPC   C2B62288  12.192  18.744   6.566
 4730POPC   C3B62289  11.996  18.665   6.927
 4730POPC   C4B62290  12.017  18.805   7.334
 4731POPC   NC362291  20.930  30.022   5.518
 4731POPC   PO462292  20.335  29.822   5.379
 4731POPC   GL162293  20.537  29.845   5.775
 4731POPC   GL262294  20.778  29.607   5.835
 4731POPC   C1A62295  20.700  30.107   6.120
 4731POPC   D2A62296  20.995  30.206   6.439
 4731POPC   C3A62297  20.848  30.293   6.831
 4731POPC   C4A62298  20.627  30.079   7.157
 4731POPC   C1B62299  20.578  29.611   6.217
 4731POPC   C2B62300  20.597  29.880   6.571
 4731POPC   C3B62301  20.458  29.689   6.899
 4731POPC   C4B62302  20.339  29.493   7.245
 4732POPC   NC362303  44.626  16.965   5.286
 4732POPC   PO462304  44.883  16.358   5.185
 4732POPC   GL162305  44.841  16.629   5.594
 4732POPC   GL262306  44.455  16.718   5.689
 4732POPC   C1A62307  44.817  16.728   6.060
 4732POPC   D2A62308  44.751  16.503   6.448
 4732POPC   C3A62309  44.725  16.765   6.839
 4732POPC   C4A62310  44.829  16.704   7.271
 4732POPC   C1B62311  44.437  17.080   6.023
 4732POPC   C2B62312  44.548  17.145   6.505
 4732POPC   C3B62313  44.395  17.154   6.974
 4732POPC   C4B62314  44.456  17.021   7.418
 4733POPC   NC362315  14.156   0.171   5.348
 4733POPC   PO462316  14.496   0.702   5.454
 4733POPC   GL162317  14.523   0.459   5.806
 4733POPC   GL262318  14.169   0.455   5.820
 4733POPC   C1A62319  14.495   0.477   6.268
 4733POPC   D2A62320  14.668   0.406   6.696
 4733POPC   C3A62321  14.539   0.540   7.098
 4733POPC   C4A62322  14.101   0.568   7.122
 4733POPC   C1B62323  14.258   0.078   6.014
 4733POPC   C2B62324  14.290   0.031   6.413
 4733POPC   C3B62325  14.260   0.109   6.839
 4733POPC   C4B62326  14.279   0.105   7.255
 4734POPC   NC362327  25.886  26.529   5.222
 4734POPC   PO462328  26.055  25.866   5.419
 4734POPC   GL162329  25.887  25.897   5.843
 4734POPC   GL262330  26.212  25.950   5.950
 4734POPC   C1A62331  25.836  25.997   6.338
 4734POPC   D2A62332  26.050  26.108   6.768
 4734POPC   C3A62333  25.840  26.132   7.150
 4734POPC   C4A62334  25.587  25.762   7.243
 4734POPC   C1B62335  26.262  26.260   6.264
 4734POPC   C2B62336  26.524  26.152   6.589
 4734POPC   C3B62337  26.488  25.920   6.944
 4734POPC   C4B62338  26.335  26.086   7.265
 4735POPC   NC362339  23.687   0.189   4.957
 4735POPC   PO462340  23.635  44.785   5.509
 4735POPC   GL162341  23.802  44.699   5.855
 4735POPC   GL262342  23.647  44.442   5.911
 4735POPC   C1A62343  23.709  44.830   6.264
 4735POPC   D2A62344  23.719   0.091   6.602
 4735POPC   C3A62345  23.713  44.867   6.976
 4735POPC   C4A62346  23.972  44.886   7.337
 4735POPC   C1B62347  23.408  44.402   6.253
 4735POPC   C2B62348  23.553  44.471   6.648
 4735POPC   C3B62349  23.556  44.357   7.053
 4735POPC   C4B62350  23.737  44.313   7.432
 4736POPC   NC362351  12.837   8.634   5.081
 4736POPC   PO462352  13.039   9.130   5.447
 4736POPC   GL162353  12.904   8.861   5.786
 4736POPC   GL262354  13.254   8.780   5.997
 4736POPC   C1A62355  12.807   8.826   6.220
 4736POPC   D2A62356  13.127   8.864   6.531
 4736POPC   C3A62357  12.950   8.774   6.923
 4736POPC   C4A62358  12.783   8.825   7.370
 4736POPC   C1B62359  13.085   9.225   6.115
 4736POPC   C2B62360  12.785   9.299   6.492
 4736POPC   C3B62361  12.697   9.223   6.948
 4736POPC   C4B62362  13.036   9.267   7.228
 4737POPC   NC362363  23.230   1.706   5.365
 4737POPC   PO462364  23.102   2.282   5.337
 4737POPC   GL162365  22.836   2.159   5.713
 4737POPC   GL262366  23.030   1.890   5.846
 4737POPC   C1A62367  22.650   2.055   6.169
 4737POPC   D2A62368  22.791   2.164   6.602
 4737POPC   C3A62369  22.640   1.954   6.974
 4737POPC   C4A62370  22.483   1.807   7.367
 4737POPC   C1B62371  23.166   2.105   6.243
 4737POPC   C2B62372  23.267   1.849   6.606
 4737POPC   C3B62373  23.432   1.734   6.987
 4737POPC   C4B62374  23.111   1.940   7.252
 4738POPC   NC362375  41.492  41.375   5.130
 4738POPC   PO462376  41.521  40.721   5.381
 4738POPC   GL162377  41.568  40.795   5.782
 4738POPC   GL262378  41.627  41.164   5.685
 4738POPC   C1A62379  41.547  40.628   6.195
 4738POPC   D2A62380  41.444  40.761   6.588
 4738POPC   C3A62381  41.583  40.550   6.948
 4738POPC   C4A62382  41.617  40.697   7.355
 4738POPC   C1B62383  41.499  41.153   6.151
 4738POPC   C2B62384  41.524  41.265   6.596
 4738POPC   C3B62385  41.572  41.129   7.031
 4738POPC   C4B62386  41.336  41.116   7.435
 4739POPC   NC362387  37.514  14.188   5.507
 4739POPC   PO462388  38.076  13.966   5.770
 4739POPC   GL162389  37.763  14.250   5.967
 4739POPC   GL262390  37.960  14.549   5.989
 4739POPC   C1A62391  37.589  14.317   6.417
 4739POPC   D2A62392  37.780  14.234   6.831
 4739POPC   C3A62393  37.630  14.419   7.227
 4739POPC   C4A62394  37.456  14.178   7.584
 4739POPC   C1B62395  37.615  14.771   6.194
 4739POPC   C2B62396  37.571  14.858   6.631
 4739POPC   C3B62397  37.919  14.734   6.888
 4739POPC   C4B62398  38.117  14.675   7.277
 4740POPC   NC362399  19.495  30.894   5.513
 4740POPC   PO462400  19.961  31.380   5.437
 4740POPC   GL162401  19.885  31.308   5.850
 4740POPC   GL262402  19.575  31.242   5.868
 4740POPC   C1A62403  19.854  31.429   6.271
 4740POPC   D2A62404  19.850  31.717   6.580
 4740POPC   C3A62405  19.897  31.514   6.949
 4740POPC   C4A62406  19.967  31.870   7.181
 4740POPC   C1B62407  19.452  31.124   6.269
 4740POPC   C2B62408  19.463  31.356   6.625
 4740POPC   C3B62409  19.480  31.189   6.977
 4740POPC   C4B62410  19.539  31.395   7.310
 4741POPC   NC362411  15.726  30.932   5.504
 4741POPC   PO462412  15.761  30.255   5.420
 4741POPC   GL162413  15.943  30.357   5.827
 4741POPC   GL262414  15.898  30.721   5.921
 4741POPC   C1A62415  15.961  30.401   6.278
 4741POPC   D2A62416  15.871  30.648   6.616
 4741POPC   C3A62417  16.020  30.494   6.978
 4741POPC   C4A62418  16.273  30.785   7.211
 4741POPC   C1B62419  15.545  30.722   6.211
 4741POPC   C2B62420  15.398  30.890   6.560
 4741POPC   C3B62421  15.469  30.751   6.935
 4741POPC   C4B62422  15.755  30.870   7.223
 4742POPC   NC362423   8.013   7.615   5.475
 4742POPC   PO462424   8.580   7.233   5.443
 4742POPC   GL162425   8.275   7.325   5.810
 4742POPC   GL262426   8.236   7.696   5.928
 4742POPC   C1A62427   8.302   7.232   6.256
 4742POPC   D2A62428   8.507   7.358   6.637
 4742POPC   C3A62429   8.244   7.404   7.026
 4742POPC   C4A62430   8.410   7.288   7.448
 4742POPC   C1B62431   7.910   7.546   6.217
 4742POPC   C2B62432   7.828   7.474   6.672
 4742POPC   C3B62433   7.784   7.705   7.080
 4742POPC   C4B62434   8.045   7.623   7.464
 4743POPC   NC362435  12.038  11.575   5.092
 4743POPC   PO462436  12.367  11.147   5.494
 4743POPC   GL162437  12.246  11.257   5.924
 4743POPC   GL262438  12.223  11.622   5.838
 4743POPC   C1A62439  12.347  11.258   6.401
 4743POPC   D2A62440  12.237  11.491   6.771
 4743POPC   C3A62441  12.074  11.199   7.147
 4743POPC   C4A62442  12.287  11.006   7.604
 4743POPC   C1B62443  12.023  11.609   6.247
 4743POPC   C2B62444  11.747  11.515   6.573
 4743POPC   C3B62445  11.796  11.639   6.977
 4743POPC   C4B62446  12.161  11.719   7.223
 4744POPC   NC362447  30.736   5.870   5.021
 4744POPC   PO462448  31.185   5.842   5.454
 4744POPC   GL162449  30.859   5.971   5.726
 4744POPC   GL262450  30.753   5.651   5.868
 4744POPC   C1A62451  30.624   6.095   6.099
 4744POPC   D2A62452  30.705   5.898   6.478
 4744POPC   C3A62453  30.663   6.111   6.851
 4744POPC   C4A62454  30.477   6.115   7.249
 4744POPC   C1B62455  30.942   5.505   6.276
 4744POPC   C2B62456  31.101   5.697   6.695
 4744POPC   C3B62457  30.895   5.732   7.108
 4744POPC   C4B62458  30.978   5.495   7.480
 4745POPC   NC362459  37.244   6.298   5.579
 4745POPC   PO462460  36.848   6.918   5.380
 4745POPC   GL162461  36.964   6.729   5.765
 4745POPC   GL262462  36.830   6.395   5.851
 4745POPC   C1A62463  37.136   6.931   6.132
 4745POPC   D2A62464  37.073   6.932   6.572
 4745POPC   C3A62465  37.122   6.550   6.785
 4745POPC   C4A62466  37.122   6.517   7.229
 4745POPC   C1B62467  36.892   6.511   6.284
 4745POPC   C2B62468  36.639   6.650   6.633
 4745POPC   C3B62469  36.769   6.863   6.998
 4745POPC   C4B62470  36.707   6.767   7.435
 4746POPC   NC362471   5.554  20.691   5.407
 4746POPC   PO462472   6.206  20.423   5.361
 4746POPC   GL162473   5.934  20.542   5.756
 4746POPC   GL262474   5.745  20.845   5.839
 4746POPC   C1A62475   5.686  20.466   6.158
 4746POPC   D2A62476   5.643  20.616   6.579
 4746POPC   C3A62477   5.733  20.338   6.916
 4746POPC   C4A62478   5.734  20.353   7.338
 4746POPC   C1B62479   5.892  20.966   6.216
 4746POPC   C2B62480   6.021  20.987   6.633
 4746POPC   C3B62481   5.820  20.852   7.033
 4746POPC   C4B62482   5.866  20.819   7.511
 4747POPC   NC362483  11.787   6.171   5.547
 4747POPC   PO462484  12.225   6.732   5.424
 4747POPC   GL162485  11.953   6.637   5.771
 4747POPC   GL262486  11.617   6.795   5.780
 4747POPC   C1A62487  11.842   6.527   6.201
 4747POPC   D2A62488  11.734   6.712   6.608
 4747POPC   C3A62489  11.950   6.611   7.024
 4747POPC   C4A62490  11.953   6.598   7.501
 4747POPC   C1B62491  11.492   6.922   6.208
 4747POPC   C2B62492  11.413   7.133   6.611
 4747POPC   C3B62493  11.575   6.988   7.015
 4747POPC   C4B62494  11.540   6.937   7.450
 4748POPC   NC362495   6.418  30.427   5.425
 4748POPC   PO462496   6.261  31.053   5.442
 4748POPC   GL162497   6.002  30.952   5.803
 4748POPC   GL262498   6.126  30.630   5.826
 4748POPC   C1A62499   5.784  30.950   6.241
 4748POPC   D2A62500   5.732  31.171   6.675
 4748POPC   C3A62501   5.776  30.849   7.012
 4748POPC   C4A62502   5.877  30.722   7.447
 4748POPC   C1B62503   6.286  30.840   6.218
 4748POPC   C2B62504   6.163  30.879   6.654
 4748POPC   C3B62505   6.261  30.666   7.052
 4748POPC   C4B62506   6.426  30.725   7.458
 4749POPC   NC362507   3.557   5.385   5.469
 4749POPC   PO462508   3.757   6.016   5.263
 4749POPC   GL162509   3.687   5.827   5.675
 4749POPC   GL262510   3.983   5.598   5.717
 4749POPC   C1A62511   3.451   5.815   6.070
 4749POPC   D2A62512   3.302   6.034   6.429
 4749POPC   C3A62513   3.488   5.944   6.805
 4749POPC   C4A62514   3.357   5.895   7.226
 4749POPC   C1B62515   3.912   5.635   6.162
 4749POPC   C2B62516   3.640   5.532   6.529
 4749POPC   C3B62517   3.420   5.436   6.934
 4749POPC   C4B62518   3.599   5.460   7.326
 4750POPC   NC362519   6.344  34.601   5.362
 4750POPC   PO462520   5.771  34.328   5.014
 4750POPC   GL162521   5.874  34.566   5.480
 4750POPC   GL262522   6.092  34.278   5.671
 4750POPC   C1A62523   5.963  34.681   5.973
 4750POPC   D2A62524   6.061  34.627   6.454
 4750POPC   C3A62525   5.980  34.867   6.860
 4750POPC   C4A62526   5.756  34.786   7.250
 4750POPC   C1B62527   6.012  34.182   6.128
 4750POPC   C2B62528   5.766  34.183   6.504
 4750POPC   C3B62529   5.888  34.357   6.884
 4750POPC   C4B62530   5.819  34.218   7.274
 4751POPC   NC362531  28.362   4.884   5.304
 4751POPC   PO462532  28.783   5.349   5.220
 4751POPC   GL162533  28.579   5.154   5.673
 4751POPC   GL262534  28.379   4.855   5.795
 4751POPC   C1A62535  28.479   5.209   6.144
 4751POPC   D2A62536  28.135   5.221   6.430
 4751POPC   C3A62537  28.261   5.323   6.830
 4751POPC   C4A62538  28.423   5.356   7.217
 4751POPC   C1B62539  28.321   4.706   6.200
 4751POPC   C2B62540  28.470   4.832   6.598
 4751POPC   C3B62541  28.326   4.862   6.990
 4751POPC   C4B62542  28.128   4.976   7.329
 4752POPC   NC362543  26.323  20.326   5.337
 4752POPC   PO462544  25.780  20.148   5.476
 4752POPC   GL162545  26.132  20.264   5.852
 4752POPC   GL262546  26.508  20.241   5.838
 4752POPC   C1A62547  26.284  20.531   6.273
 4752POPC   D2A62548  26.257  20.726   6.754
 4752POPC   C3A62549  26.066  20.723   7.194
 4752POPC   C4A62550  25.880  21.015   7.486
 4752POPC   C1B62551  26.460  20.057   6.260
 4752POPC   C2B62552  26.316  20.208   6.674
 4752POPC   C3B62553  26.331  20.297   7.099
 4752POPC   C4B62554  26.450  20.385   7.508
 4753POPC   NC362555   1.494   3.392   5.461
 4753POPC   PO462556   1.074   3.734   5.193
 4753POPC   GL162557   1.063   3.498   5.691
 4753POPC   GL262558   1.315   3.470   5.926
 4753POPC   C1A62559   0.853   3.422   6.128
 4753POPC   D2A62560   0.842   3.540   6.581
 4753POPC   C3A62561   1.030   3.361   6.975
 4753POPC   C4A62562   0.843   3.164   7.314
 4753POPC   C1B62563   1.320   3.455   6.348
 4753POPC   C2B62564   1.464   3.265   6.679
 4753POPC   C3B62565   1.517   3.455   7.049
 4753POPC   C4B62566   1.626   3.863   7.109
 4754POPC   NC362567  14.135   0.992   5.533
 4754POPC   PO462568  14.588   1.490   5.484
 4754POPC   GL162569  14.418   1.300   5.866
 4754POPC   GL262570  14.508   0.954   5.908
 4754POPC   C1A62571  14.603   1.276   6.298
 4754POPC   D2A62572  14.553   1.391   6.738
 4754POPC   C3A62573  14.591   1.105   7.124
 4754POPC   C4A62574  14.290   0.900   7.435
 4754POPC   C1B62575  14.153   0.853   6.215
 4754POPC   C2B62576  14.088   0.904   6.677
 4754POPC   C3B62577  14.112   1.239   6.985
 4754POPC   C4B62578  13.960   1.282   7.378
 4755POPC   NC362579  32.159  16.912   5.224
 4755POPC   PO462580  31.702  16.609   5.611
 4755POPC   GL162581  32.114  16.723   5.774
 4755POPC   GL262582  32.428  16.930   5.671
 4755POPC   C1A62583  32.139  16.649   6.219
 4755POPC   D2A62584  31.946  16.630   6.627
 4755POPC   C3A62585  32.095  16.376   6.968
 4755POPC   C4A62586  32.027  16.685   7.261
 4755POPC   C1B62587  32.578  16.873   6.098
 4755POPC   C2B62588  32.597  16.621   6.462
 4755POPC   C3B62589  32.428  16.732   6.834
 4755POPC   C4B62590  32.538  16.551   7.188
 4756POPC   NC362591   5.435  44.169   5.312
 4756POPC   PO462592   5.031  43.582   5.186
 4756POPC   GL162593   5.094  43.870   5.589
 4756POPC   GL262594   4.766  44.028   5.632
 4756POPC   C1A62595   5.258  43.930   6.065
 4756POPC   D2A62596   5.335  43.832   6.539
 4756POPC   C3A62597   5.111  43.932   6.929
 4756POPC   C4A62598   5.283  44.076   7.335
 4756POPC   C1B62599   4.755  43.918   6.050
 4756POPC   C2B62600   4.834  43.949   6.463
 4756POPC   C3B62601   4.842  44.311   6.707
 4756POPC   C4B62602   4.902  44.393   7.128
 4757POPC   NC362603  26.551  19.358   5.438
 4757POPC   PO462604  26.784  18.741   5.306
 4757POPC   GL162605  26.743  18.935   5.743
 4757POPC   GL262606  26.593  19.169   5.963
 4757POPC   C1A62607  26.918  18.855   6.184
 4757POPC   D2A62608  26.999  19.077   6.619
 4757POPC   C3A62609  26.877  18.896   7.033
 4757POPC   C4A62610  27.067  18.603   7.338
 4757POPC   C1B62611  26.524  19.093   6.408
 4757POPC   C2B62612  26.562  19.350   6.779
 4757POPC   C3B62613  26.864  19.440   7.087
 4757POPC   C4B62614  26.794  19.216   7.433
 4758POPC   NC362615   8.206  44.693   5.346
 4758POPC   PO462616   8.724   0.019   5.608
 4758POPC   GL162617   8.370  44.916   5.807
 4758POPC   GL262618   8.369  44.563   5.802
 4758POPC   C1A62619   8.392  44.838   6.235
 4758POPC   D2A62620   8.208  44.928   6.606
 4758POPC   C3A62621   8.351  44.822   7.014
 4758POPC   C4A62622   8.307  44.691   7.455
 4758POPC   C1B62623   8.273  44.344   6.176
 4758POPC   C2B62624   8.154  44.191   6.591
 4758POPC   C3B62625   8.129  44.341   7.006
 4758POPC   C4B62626   7.996  44.259   7.435
 4759POPC   NC362627   9.879  14.155   5.191
 4759POPC   PO462628   9.339  14.475   5.225
 4759POPC   GL162629   9.541  14.361   5.687
 4759POPC   GL262630   9.902  14.490   5.792
 4759POPC   C1A62631   9.584  14.301   6.189
 4759POPC   D2A62632   9.770  14.587   6.545
 4759POPC   C3A62633   9.551  14.513   6.912
 4759POPC   C4A62634   9.584  14.364   7.325
 4759POPC   C1B62635  10.083  14.384   6.214
 4759POPC   C2B62636   9.962  14.098   6.584
 4759POPC   C3B62637   9.993  14.280   7.008
 4759POPC   C4B62638  10.014  14.639   7.336
 4760POPC   NC362639  36.676  33.932   5.458
 4760POPC   PO462640  37.310  33.534   5.359
 4760POPC   GL162641  37.060  33.616   5.778
 4760POPC   GL262642  36.903  33.917   5.908
 4760POPC   C1A62643  36.908  33.541   6.254
 4760POPC   D2A62644  36.737  33.650   6.657
 4760POPC   C3A62645  37.033  33.685   6.960
 4760POPC   C4A62646  37.089  33.409   7.268
 4760POPC   C1B62647  36.671  33.987   6.280
 4760POPC   C2B62648  36.572  34.157   6.669
 4760POPC   C3B62649  36.463  34.018   7.056
 4760POPC   C4B62650  36.567  33.615   7.153
 4761POPC   NC362651  31.155   3.333   5.272
 4761POPC   PO462652  30.535   3.703   5.322
 4761POPC   GL162653  30.533   3.692   5.783
 4761POPC   GL262654  30.615   3.329   5.854
 4761POPC   C1A62655  30.528   3.651   6.259
 4761POPC   D2A62656  30.713   3.536   6.671
 4761POPC   C3A62657  30.458   3.605   7.037
 4761POPC   C4A62658  30.188   3.333   7.288
 4761POPC   C1B62659  30.984   3.629   6.011
 4761POPC   C2B62660  31.010   3.947   6.371
 4761POPC   C3B62661  30.954   3.977   6.854
 4761POPC   C4B62662  30.897   3.747   7.252
 4762POPC   NC362663  32.460  34.194   5.407
 4762POPC   PO462664  32.126  33.667   5.358
 4762POPC   GL162665  32.119  33.821   5.821
 4762POPC   GL262666  32.464  33.858   5.820
 4762POPC   C1A62667  32.054  33.756   6.292
 4762POPC   D2A62668  32.325  33.629   6.664
 4762POPC   C3A62669  32.167  33.669   7.101
 4762POPC   C4A62670  32.140  34.029   7.317
 4762POPC   C1B62671  32.561  33.863   6.247
 4762POPC   C2B62672  32.604  34.083   6.640
 4762POPC   C3B62673  32.573  33.926   7.047
 4762POPC   C4B62674  32.617  33.783   7.468
 4763POPC   NC362675   1.630  27.324   5.453
 4763POPC   PO462676   1.190  27.820   5.359
 4763POPC   GL162677   1.045  27.740   5.801
 4763POPC   GL262678   1.209  27.415   5.835
 4763POPC   C1A62679   1.017  27.647   6.260
 4763POPC   D2A62680   1.294  27.643   6.613
 4763POPC   C3A62681   1.293  27.502   7.031
 4763POPC   C4A62682   0.942  27.529   7.222
 4763POPC   C1B62683   1.457  27.346   6.214
 4763POPC   C2B62684   1.542  27.206   6.639
 4763POPC   C3B62685   1.776  27.380   7.006
 4763POPC   C4B62686   1.682  27.255   7.413
 4764POPC   NC362687   2.471   8.021   5.620
 4764POPC   PO462688   3.045   8.214   5.376
 4764POPC   GL162689   2.930   8.259   5.823
 4764POPC   GL262690   2.837   7.942   5.944
 4764POPC   C1A62691   2.838   8.328   6.285
 4764POPC   D2A62692   2.621   8.459   6.670
 4764POPC   C3A62693   2.646   8.304   7.090
 4764POPC   C4A62694   2.935   8.469   7.408
 4764POPC   C1B62695   2.481   7.965   6.253
 4764POPC   C2B62696   2.224   7.959   6.597
 4764POPC   C3B62697   2.365   7.821   6.965
 4764POPC   C4B62698   2.345   7.937   7.375
 4765POPC   NC362699  27.055  31.371   5.387
 4765POPC   PO462700  27.641  31.740   5.519
 4765POPC   GL162701  27.454  31.385   5.755
 4765POPC   GL262702  27.589  31.078   5.730
 4765POPC   C1A62703  27.426  31.400   6.187
 4765POPC   D2A62704  27.599  31.623   6.574
 4765POPC   C3A62705  27.318  31.705   6.917
 4765POPC   C4A62706  27.163  31.379   7.172
 4765POPC   C1B62707  27.815  31.070   6.123
 4765POPC   C2B62708  27.640  31.105   6.536
 4765POPC   C3B62709  27.724  31.197   6.964
 4765POPC   C4B62710  27.978  31.220   7.379
 4766POPC   NC362711  28.836   2.442   5.263
 4766POPC   PO462712  28.430   2.860   5.639
 4766POPC   GL162713  28.507   2.623   5.972
 4766POPC   GL262714  28.665   2.385   5.828
 4766POPC   C1A62715  28.362   2.671   6.360
 4766POPC   D2A62716  28.198   2.935   6.601
 4766POPC   C3A62717  28.438   2.880   6.943
 4766POPC   C4A62718  28.302   2.927   7.332
 4766POPC   C1B62719  28.240   2.240   6.149
 4766POPC   C2B62720  27.985   2.337   6.524
 4766POPC   C3B62721  28.085   2.484   6.929
 4766POPC   C4B62722  28.410   2.428   7.231
 4767POPC   NC362723  21.552  29.699   5.384
 4767POPC   PO462724  21.263  30.343   5.488
 4767POPC   GL162725  21.483  30.160   5.843
 4767POPC   GL262726  21.176  30.109   5.965
 4767POPC   C1A62727  21.561  30.000   6.285
 4767POPC   D2A62728  21.395  29.786   6.661
 4767POPC   C3A62729  21.590  29.900   7.092
 4767POPC   C4A62730  21.587  30.208   7.472
 4767POPC   C1B62731  21.077  29.753   6.210
 4767POPC   C2B62732  20.954  29.512   6.551
 4767POPC   C3B62733  20.965  29.684   6.926
 4767POPC   C4B62734  21.122  30.025   7.149
 4768POPC   NC362735   8.587  26.369   5.483
 4768POPC   PO462736   8.751  25.770   5.411
 4768POPC   GL162737   8.600  25.991   5.851
 4768POPC   GL262738   8.765  26.310   5.967
 4768POPC   C1A62739   8.398  26.099   6.307
 4768POPC   D2A62740   8.440  26.294   6.776
 4768POPC   C3A62741   8.152  26.168   7.146
 4768POPC   C4A62742   7.825  25.857   7.270
 4768POPC   C1B62743   8.892  26.142   6.394
 4768POPC   C2B62744   8.693  25.860   6.709
 4768POPC   C3B62745   8.593  25.887   7.147
 4768POPC   C4B62746   8.576  26.216   7.467
 4769POPC   NC362747  12.342  22.506   5.382
 4769POPC   PO462748  11.891  22.097   5.103
 4769POPC   GL162749  11.988  22.157   5.590
 4769POPC   GL262750  11.945  22.511   5.713
 4769POPC   C1A62751  12.225  22.089   6.029
 4769POPC   D2A62752  12.434  22.077   6.462
 4769POPC   C3A62753  12.219  22.061   6.884
 4769POPC   C4A62754  12.207  21.739   7.199
 4769POPC   C1B62755  12.096  22.580   6.143
 4769POPC   C2B62756  11.991  22.365   6.519
 4769POPC   C3B62757  11.759  22.335   6.900
 4769POPC   C4B62758  11.856  22.436   7.295
 4770POPC   NC362759  31.830   1.160   5.519
 4770POPC   PO462760  31.177   1.276   5.393
 4770POPC   GL162761  31.306   1.260   5.797
 4770POPC   GL262762  31.131   1.560   5.872
 4770POPC   C1A62763  31.449   1.080   6.198
 4770POPC   D2A62764  31.643   0.956   6.568
 4770POPC   C3A62765  31.748   1.207   6.931
 4770POPC   C4A62766  31.820   1.054   7.356
 4770POPC   C1B62767  31.375   1.579   6.221
 4770POPC   C2B62768  31.351   1.385   6.617
 4770POPC   C3B62769  31.276   1.394   7.047
 4770POPC   C4B62770  31.281   1.627   7.417
 4771POPC   NC362771  42.002  26.693   5.416
 4771POPC   PO462772  42.666  26.883   5.382
 4771POPC   GL162773  42.395  26.832   5.733
 4771POPC   GL262774  42.148  27.096   5.802
 4771POPC   C1A62775  42.215  26.703   6.134
 4771POPC   D2A62776  42.384  26.869   6.526
 4771POPC   C3A62777  42.236  26.723   6.916
 4771POPC   C4A62778  42.351  26.734   7.351
 4771POPC   C1B62779  42.080  27.220   6.265
 4771POPC   C2B62780  42.066  27.204   6.754
 4771POPC   C3B62781  41.989  27.081   7.209
 4771POPC   C4B62782  42.159  27.064   7.663
 4772POPC   NC362783  34.206   9.088   5.526
 4772POPC   PO462784  33.742   9.353   5.103
 4772POPC   GL162785  33.739   9.022   5.631
 4772POPC   GL262786  33.651   8.678   5.710
 4772POPC   C1A62787  33.631   9.051   6.115
 4772POPC   D2A62788  33.545   8.763   6.512
 4772POPC   C3A62789  33.654   8.892   6.948
 4772POPC   C4A62790  34.003   9.103   7.139
 4772POPC   C1B62791  33.958   8.675   6.088
 4772POPC   C2B62792  34.078   8.817   6.535
 4772POPC   C3B62793  34.113   8.638   6.962
 4772POPC   C4B62794  33.871   8.588   7.343
 4773POPC   NC362795  37.952  13.361   5.391
 4773POPC   PO462796  37.558  13.846   5.182
 4773POPC   GL162797  37.580  13.672   5.652
 4773POPC   GL262798  37.306  13.444   5.790
 4773POPC   C1A62799  37.738  13.478   6.090
 4773POPC   D2A62800  37.872  13.365   6.552
 4773POPC   C3A62801  37.953  13.662   6.916
 4773POPC   C4A62802  37.789  13.947   7.253
 4773POPC   C1B62803  37.255  13.544   6.265
 4773POPC   C2B62804  37.417  13.710   6.672
 4773POPC   C3B62805  37.465  13.553   7.093
 4773POPC   C4B62806  37.406  13.695   7.510
 4774POPC   NC362807   7.097  19.739   5.424
 4774POPC   PO462808   7.721  19.676   5.238
 4774POPC   GL162809   7.515  19.659   5.697
 4774POPC   GL262810   7.424  20.016   5.709
 4774POPC   C1A62811   7.333  19.573   6.157
 4774POPC   D2A62812   7.496  19.745   6.563
 4774POPC   C3A62813   7.355  19.850   6.978
 4774POPC   C4A62814   7.474  19.683   7.349
 4774POPC   C1B62815   7.473  20.070   6.142
 4774POPC   C2B62816   7.578  20.253   6.531
 4774POPC   C3B62817   7.725  20.218   6.942
 4774POPC   C4B62818   7.609  20.166   7.362
 4775POPC   NC362819  38.836  20.873   5.570
 4775POPC   PO462820  39.134  20.349   5.253
 4775POPC   GL162821  39.149  20.455   5.718
 4775POPC   GL262822  39.461  20.593   5.823
 4775POPC   C1A62823  39.082  20.673   6.155
 4775POPC   D2A62824  38.826  20.792   6.526
 4775POPC   C3A62825  38.944  20.688   6.948
 4775POPC   C4A62826  39.196  20.893   7.237
 4775POPC   C1B62827  39.438  20.300   6.178
 4775POPC   C2B62828  39.331  20.420   6.604
 4775POPC   C3B62829  39.367  20.210   6.992
 4775POPC   C4B62830  39.306  20.403   7.366
 4776POPC   NC362831  38.955   0.453   5.119
 4776POPC   PO462832  39.431   0.785   5.494
 4776POPC   GL162833  39.360   0.493   5.858
 4776POPC   GL262834  39.066   0.248   5.857
 4776POPC   C1A62835  39.320   0.425   6.293
 4776POPC   D2A62836  39.434   0.340   6.714
 4776POPC   C3A62837  39.145   0.591   7.006
 4776POPC   C4A62838  39.414   0.858   7.188
 4776POPC   C1B62839  38.983   0.058   6.236
 4776POPC   C2B62840  38.921   0.227   6.621
 4776POPC   C3B62841  39.096   0.088   7.001
 4776POPC   C4B62842  38.983   0.234   7.398
 4777POPC   NC362843  38.302  10.944   5.358
 4777POPC   PO462844  38.926  11.162   5.215
 4777POPC   GL162845  38.709  10.946   5.679
 4777POPC   GL262846  38.391  11.151   5.801
 4777POPC   C1A62847  38.640  11.018   6.209
 4777POPC   D2A62848  38.638  11.421   6.522
 4777POPC   C3A62849  38.518  11.406   6.990
 4777POPC   C4A62850  38.674  11.401   7.466
 4777POPC   C1B62851  38.268  11.406   6.155
 4777POPC   C2B62852  38.132  11.329   6.571
 4777POPC   C3B62853  38.038  11.158   6.950
 4777POPC   C4B62854  38.198  11.167   7.329
 4778POPC   NC362855   7.513  12.416   5.650
 4778POPC   PO462856   7.549  11.781   5.435
 4778POPC   GL162857   7.385  11.889   5.837
 4778POPC   GL262858   7.092  12.144   5.836
 4778POPC   C1A62859   7.555  12.019   6.246
 4778POPC   D2A62860   7.368  12.236   6.586
 4778POPC   C3A62861   7.568  12.163   6.954
 4778POPC   C4A62862   7.584  12.005   7.367
 4778POPC   C1B62863   7.029  12.453   6.184
 4778POPC   C2B62864   6.994  12.622   6.604
 4778POPC   C3B62865   7.071  12.359   6.986
 4778POPC   C4B62866   7.285  12.433   7.338
 4779POPC   NC362867   9.911  25.470   5.438
 4779POPC   PO462868   9.397  25.015   5.524
 4779POPC   GL162869   9.749  25.094   5.781
 4779POPC   GL262870  10.045  24.947   5.880
 4779POPC   C1A62871   9.815  25.332   6.165
 4779POPC   D2A62872   9.555  25.589   6.432
 4779POPC   C3A62873   9.525  25.559   6.858
 4779POPC   C4A62874   9.545  25.383   7.244
 4779POPC   C1B62875  10.070  24.894   6.323
 4779POPC   C2B62876  10.123  25.276   6.572
 4779POPC   C3B62877   9.998  25.405   6.956
 4779POPC   C4B62878   9.980  25.098   7.238
 4780POPC   NC362879  38.680  41.839   5.221
 4780POPC   PO462880  38.127  41.496   5.332
 4780POPC   GL162881  38.354  41.428   5.742
 4780POPC   GL262882  38.715  41.499   5.696
 4780POPC   C1A62883  38.372  41.657   6.144
 4780POPC   D2A62884  38.338  41.933   6.495
 4780POPC   C3A62885  38.292  41.782   6.908
 4780POPC   C4A62886  38.220  41.897   7.319
 4780POPC   C1B62887  38.762  41.318   6.100
 4780POPC   C2B62888  38.679  41.188   6.519
 4780POPC   C3B62889  38.672  41.394   6.914
 4780POPC   C4B62890  38.577  41.531   7.313
 4781POPC   NC362891   1.748  25.093   5.471
 4781POPC   PO462892   2.326  24.924   5.624
 4781POPC   GL162893   2.007  25.004   5.998
 4781POPC   GL262894   1.733  25.237   5.958
 4781POPC   C1A62895   1.968  25.022   6.478
 4781POPC   D2A62896   1.949  24.986   6.972
 4781POPC   C3A62897   2.205  25.260   7.272
 4781POPC   C4A62898   2.282  25.415   7.707
 4781POPC   C1B62899   1.607  25.402   6.355
 4781POPC   C2B62900   1.699  25.465   6.789
 4781POPC   C3B62901   1.710  25.396   7.212
 4781POPC   C4B62902   1.818  25.606   7.586
 4782POPC   NC362903  39.508  40.364   5.529
 4782POPC   PO462904  39.153  39.763   5.397
 4782POPC   GL162905  39.213  39.987   5.772
 4782POPC   GL262906  39.012  40.293   5.793
 4782POPC   C1A62907  39.206  39.863   6.204
 4782POPC   D2A62908  38.927  39.837   6.562
 4782POPC   C3A62909  39.025  39.947   6.980
 4782POPC   C4A62910  39.336  40.166   7.223
 4782POPC   C1B62911  38.960  40.305   6.273
 4782POPC   C2B62912  39.055  40.378   6.721
 4782POPC   C3B62913  38.881  40.404   7.173
 4782POPC   C4B62914  38.865  40.386   7.647
 4783POPC   NC362915  36.677   8.209   5.280
 4783POPC   PO462916  37.300   7.810   5.393
 4783POPC   GL162917  37.065   8.089   5.725
 4783POPC   GL262918  36.688   8.068   5.764
 4783POPC   C1A62919  37.049   8.141   6.188
 4783POPC   D2A62920  37.034   7.861   6.588
 4783POPC   C3A62921  36.946   8.097   6.969
 4783POPC   C4A62922  36.996   8.455   7.242
 4783POPC   C1B62923  36.502   7.998   6.162
 4783POPC   C2B62924  36.531   7.822   6.588
 4783POPC   C3B62925  36.409   7.969   6.996
 4783POPC   C4B62926  36.567   8.195   7.353
 4784POPC   NC362927   5.593  10.678   5.339
 4784POPC   PO462928   4.862  10.550   5.376
 4784POPC   GL162929   4.975  10.389   5.784
 4784POPC   GL262930   5.290  10.340   5.647
 4784POPC   C1A62931   4.966  10.437   6.268
 4784POPC   D2A62932   4.962  10.289   6.717
 4784POPC   C3A62933   5.031  10.422   7.179
 4784POPC   C4A62934   4.965  10.703   7.571
 4784POPC   C1B62935   5.417  10.371   6.069
 4784POPC   C2B62936   5.499  10.369   6.504
 4784POPC   C3B62937   5.450  10.252   6.921
 4784POPC   C4B62938   5.563  10.499   7.231
 4785POPC   NC362939  38.912  28.552   5.413
 4785POPC   PO462940  39.363  28.156   5.576
 4785POPC   GL162941  39.102  28.334   5.843
 4785POPC   GL262942  39.248  28.642   5.787
 4785POPC   C1A62943  39.177  28.411   6.255
 4785POPC   D2A62944  39.057  28.315   6.609
 4785POPC   C3A62945  39.158  28.147   6.985
 4785POPC   C4A62946  38.839  27.984   7.209
 4785POPC   C1B62947  39.434  28.832   6.156
 4785POPC   C2B62948  39.284  28.819   6.604
 4785POPC   C3B62949  39.296  28.653   7.043
 4785POPC   C4B62950  39.442  28.562   7.500
 4786POPC   NC362951  29.221  16.473   5.451
 4786POPC   PO462952  29.022  17.083   5.292
 4786POPC   GL162953  29.017  16.875   5.703
 4786POPC   GL262954  29.403  16.877   5.739
 4786POPC   C1A62955  28.781  16.934   6.115
 4786POPC   D2A62956  29.015  16.931   6.508
 4786POPC   C3A62957  28.901  16.770   6.915
 4786POPC   C4A62958  28.999  16.912   7.329
 4786POPC   C1B62959  29.266  16.647   6.133
 4786POPC   C2B62960  29.181  16.457   6.574
 4786POPC   C3B62961  29.358  16.417   7.003
 4786POPC   C4B62962  29.415  16.587   7.429
 4787POPC   NC362963   0.947   6.934   5.490
 4787POPC   PO462964   1.315   6.419   5.476
 4787POPC   GL162965   1.206   6.612   5.858
 4787POPC   GL262966   1.352   6.951   5.783
 4787POPC   C1A62967   1.072   6.523   6.301
 4787POPC   D2A62968   0.911   6.685   6.699
 4787POPC   C3A62969   1.177   6.455   6.989
 4787POPC   C4A62970   1.469   6.125   7.118
 4787POPC   C1B62971   1.141   7.014   6.171
 4787POPC   C2B62972   1.339   6.919   6.555
 4787POPC   C3B62973   1.277   6.988   6.977
 4787POPC   C4B62974   0.931   6.825   7.220
 4788POPC   NC362975  18.697  11.262   5.419
 4788POPC   PO462976  19.348  11.067   5.608
 4788POPC   GL162977  19.127  11.352   5.862
 4788POPC   GL262978  18.757  11.359   5.911
 4788POPC   C1A62979  19.090  11.277   6.299
 4788POPC   D2A62980  18.995  11.111   6.722
 4788POPC   C3A62981  19.225  11.098   7.151
 4788POPC   C4A62982  19.425  11.147   7.594
 4788POPC   C1B62983  18.606  11.386   6.331
 4788POPC   C2B62984  18.821  11.571   6.670
 4788POPC   C3B62985  18.777  11.400   7.098
 4788POPC   C4B62986  18.691  11.643   7.476
 4789POPC   NC362987  27.851  17.812   5.106
 4789POPC   PO462988  27.440  17.350   5.482
 4789POPC   GL162989  27.695  17.536   5.785
 4789POPC   GL262990  27.434  17.539   5.987
 4789POPC   C1A62991  27.819  17.690   6.238
 4789POPC   D2A62992  27.732  17.515   6.656
 4789POPC   C3A62993  27.753  17.703   7.054
 4789POPC   C4A62994  27.640  17.486   7.449
 4789POPC   C1B62995  27.297  17.611   6.370
 4789POPC   C2B62996  27.352  17.858   6.714
 4789POPC   C3B62997  27.266  17.547   6.974
 4789POPC   C4B62998  27.139  17.547   7.336
 4790POPC   NC362999  24.283   7.134   5.522
 4790POPC   PO463000  24.628   7.736   5.346
 4790POPC   GL163001  24.556   7.531   5.768
 4790POPC   GL263002  24.271   7.350   5.985
 4790POPC   C1A63003  24.591   7.669   6.190
 4790POPC   D2A63004  24.310   7.485   6.489
 4790POPC   C3A63005  24.407   7.594   6.883
 4790POPC   C4A63006  24.627   7.389   7.167
 4790POPC   C1B63007  24.625   7.163   6.184
 4790POPC   C2B63008  24.685   7.161   6.632
 4790POPC   C3B63009  24.288   7.087   6.832
 4790POPC   C4B63010  24.206   7.089   7.268
 4791POPC   NC363011  37.391   8.306   5.391
 4791POPC   PO463012  37.976   8.205   5.668
 4791POPC   GL163013  37.847   8.008   6.000
 4791POPC   GL263014  37.529   7.876   5.863
 4791POPC   C1A63015  37.728   8.249   6.379
 4791POPC   D2A63016  37.363   8.267   6.657
 4791POPC   C3A63017  37.486   8.434   7.055
 4791POPC   C4A63018  37.896   8.365   7.242
 4791POPC   C1B63019  37.444   7.830   6.297
 4791POPC   C2B63020  37.544   7.769   6.737
 4791POPC   C3B63021  37.547   7.914   7.170
 4791POPC   C4B63022  37.492   7.701   7.572
 4792POPC   NC363023  13.464  40.494   5.384
 4792POPC   PO463024  13.737  40.003   5.338
 4792POPC   GL163025  13.646  40.122   5.822
 4792POPC   GL263026  13.562  40.490   5.906
 4792POPC   C1A63027  13.658  40.035   6.329
 4792POPC   D2A63028  13.726  39.850   6.797
 4792POPC   C3A63029  13.493  40.020   7.157
 4792POPC   C4A63030  13.265  40.298   7.469
 4792POPC   C1B63031  13.675  40.561   6.370
 4792POPC   C2B63032  13.721  40.388   6.809
 4792POPC   C3B63033  13.694  40.511   7.255
 4792POPC   C4B63034  13.630  40.608   7.713
 4793POPC   NC363035  10.126  34.893   5.189
 4793POPC   PO463036  10.714  34.661   5.428
 4793POPC   GL163037  10.607  34.597   5.859
 4793POPC   GL263038  10.292  34.713   5.799
 4793POPC   C1A63039  10.657  34.751   6.340
 4793POPC   D2A63040  10.914  34.904   6.697
 4793POPC   C3A63041  10.903  34.626   7.034
 4793POPC   C4A63042  10.693  34.559   7.423
 4793POPC   C1B63043  10.211  34.533   6.211
 4793POPC   C2B63044  10.204  34.708   6.627
 4793POPC   C3B63045  10.318  34.575   7.031
 4793POPC   C4B63046  10.157  34.645   7.409
 4794POPC   NC363047  40.570  17.864   5.590
 4794POPC   PO463048  41.084  17.584   5.330
 4794POPC   GL163049  40.976  17.359   5.753
 4794POPC   GL263050  40.613  17.322   5.777
 4794POPC   C1A63051  40.862  17.549   6.189
 4794POPC   D2A63052  40.958  17.812   6.585
 4794POPC   C3A63053  41.044  17.655   7.024
 4794POPC   C4A63054  40.904  17.296   7.253
 4794POPC   C1B63055  40.412  17.288   6.188
 4794POPC   C2B63056  40.635  17.346   6.609
 4794POPC   C3B63057  40.458  17.320   7.023
 4794POPC   C4B63058  40.474  17.313   7.524
 4795POPC   NC363059  28.714  20.688   5.286
 4795POPC   PO463060  28.086  20.503   5.450
 4795POPC   GL163061  28.203  20.386   5.829
 4795POPC   GL263062  28.514  20.268   5.668
 4795POPC   C1A63063  28.178  20.538   6.242
 4795POPC   D2A63064  28.283  20.408   6.632
 4795POPC   C3A63065  28.015  20.592   6.896
 4795POPC   C4A63066  27.924  20.339   7.190
 4795POPC   C1B63067  28.650  20.397   6.078
 4795POPC   C2B63068  28.721  20.603   6.469
 4795POPC   C3B63069  28.729  20.452   6.912
 4795POPC   C4B63070  28.404  20.498   7.199
 4796POPC   NC363071  36.567  34.791   5.238
 4796POPC   PO463072  35.914  34.706   5.359
 4796POPC   GL163073  36.078  34.513   5.746
 4796POPC   GL263074  36.417  34.432   5.639
 4796POPC   C1A63075  35.905  34.593   6.165
 4796POPC   D2A63076  36.079  34.768   6.534
 4796POPC   C3A63077  35.832  34.708   6.891
 4796POPC   C4A63078  36.056  34.756   7.267
 4796POPC   C1B63079  36.550  34.576   6.057
 4796POPC   C2B63080  36.586  34.640   6.511
 4796POPC   C3B63081  36.408  34.564   6.939
 4796POPC   C4B63082  36.399  34.416   7.396
 4797POPC   NC363083   5.895  37.368   5.446
 4797POPC   PO463084   5.709  36.715   5.537
 4797POPC   GL163085   5.592  36.872   5.927
 4797POPC   GL263086   5.508  37.204   5.829
 4797POPC   C1A63087   5.671  36.799   6.373
 4797POPC   D2A63088   5.985  36.652   6.701
 4797POPC   C3A63089   5.886  36.715   7.164
 4797POPC   C4A63090   6.079  36.831   7.581
 4797POPC   C1B63091   5.863  37.262   6.113
 4797POPC   C2B63092   5.990  37.172   6.522
 4797POPC   C3B63093   5.850  37.193   6.927
 4797POPC   C4B63094   6.148  37.268   7.243
 4798POPC   NC363095  17.274  35.470   5.348
 4798POPC   PO463096  17.935  35.273   5.357
 4798POPC   GL163097  17.692  35.130   5.769
 4798POPC   GL263098  17.322  35.209   5.799
 4798POPC   C1A63099  17.714  35.330   6.189
 4798POPC   D2A63100  17.697  35.625   6.538
 4798POPC   C3A63101  17.871  35.466   6.880
 4798POPC   C4A63102  17.722  35.171   7.154
 4798POPC   C1B63103  17.251  35.539   6.101
 4798POPC   C2B63104  17.242  35.440   6.522
 4798POPC   C3B63105  17.339  35.471   6.942
 4798POPC   C4B63106  17.017  35.352   7.193
 4799POPC   NC363107  35.030  44.725   5.650
 4799POPC   PO463108  35.679  44.728   5.508
 4799POPC   GL163109  35.496  44.663   5.884
 4799POPC   GL263110  35.376  44.352   5.749
 4799POPC   C1A63111  35.225  44.758   6.242
 4799POPC   D2A63112  34.953  44.844   6.580
 4799POPC   C3A63113  35.048  44.613   6.957
 4799POPC   C4A63114  35.329  44.532   7.304
 4799POPC   C1B63115  35.396  44.235   6.167
 4799POPC   C2B63116  35.253  44.359   6.555
 4799POPC   C3B63117  35.290  44.156   6.958
 4799POPC   C4B63118  35.555  44.049   7.274
 4800POPC   NC363119  16.850  12.878   5.225
 4800POPC   PO463120  16.211  12.966   5.485
 4800POPC   GL163121  16.548  12.861   5.790
 4800POPC   GL263122  16.918  12.895   5.745
 4800POPC   C1A63123  16.479  12.756   6.253
 4800POPC   D2A63124  16.734  12.573   6.623
 4800POPC   C3A63125  16.649  12.645   7.080
 4800POPC   C4A63126  16.406  12.919   7.358
 4800POPC   C1B63127  16.911  13.021   6.200
 4800POPC   C2B63128  16.672  13.092   6.621
 4800POPC   C3B63129  16.796  13.148   7.059
 4800POPC   C4B63130  17.056  12.915   7.371
 4801POPC   NC363131  36.788  25.312   5.340
 4801POPC   PO463132  37.343  24.961   5.520
 4801POPC   GL163133  37.081  25.318   5.748
 4801POPC   GL263134  36.733  25.247   5.871
 4801POPC   C1A63135  37.043  25.512   6.160
 4801POPC   D2A63136  37.249  25.291   6.485
 4801POPC   C3A63137  37.063  25.150   6.888
 4801POPC   C4A63138  36.811  25.423   7.126
 4801POPC   C1B63139  36.605  25.144   6.329
 4801POPC   C2B63140  36.536  25.085   6.790
 4801POPC   C3B63141  36.515  24.785   7.152
 4801POPC   C4B63142  36.693  24.896   7.563
 4802POPC   NC363143  10.144  38.735   5.587
 4802POPC   PO463144   9.617  38.345   5.386
 4802POPC   GL163145   9.699  38.566   5.754
 4802POPC   GL263146   9.985  38.307   5.836
 4802POPC   C1A63147   9.851  38.719   6.171
 4802POPC   D2A63148  10.038  38.557   6.526
 4802POPC   C3A63149   9.890  38.739   6.906
 4802POPC   C4A63150   9.970  38.674   7.324
 4802POPC   C1B63151   9.647  38.244   6.133
 4802POPC   C2B63152   9.571  38.336   6.545
 4802POPC   C3B63153   9.641  38.278   6.976
 4802POPC   C4B63154   9.575  38.056   7.378
 4803POPC   NC363155  18.738  34.769   5.224
 4803POPC   PO463156  19.246  34.346   5.390
 4803POPC   GL163157  19.084  34.651   5.659
 4803POPC   GL263158  18.739  34.560   5.697
 4803POPC   C1A63159  19.060  34.572   6.107
 4803POPC   D2A63160  19.141  34.783   6.487
 4803POPC   C3A63161  19.125  34.580   6.871
 4803POPC   C4A63162  19.014  34.870   7.165
 4803POPC   C1B63163  18.607  34.336   6.080
 4803POPC   C2B63164  18.769  34.387   6.502
 4803POPC   C3B63165  18.700  34.311   6.936
 4803POPC   C4B63166  18.861  34.422   7.331
 4804POPC   NC363167  23.867  33.435   5.389
 4804POPC   PO463168  23.409  33.912   5.512
 4804POPC   GL163169  23.545  33.618   5.800
 4804POPC   GL263170  23.756  33.833   5.974
 4804POPC   C1A63171  23.658  33.415   6.210
 4804POPC   D2A63172  23.825  33.683   6.551
 4804POPC   C3A63173  23.638  33.740   6.958
 4804POPC   C4A63174  23.732  33.690   7.399
 4804POPC   C1B63175  23.802  34.122   6.298
 4804POPC   C2B63176  23.982  34.152   6.725
 4804POPC   C3B63177  24.042  34.047   7.170
 4804POPC   C4B63178  24.006  34.056   7.636
 4805POPC   NC363179  28.716  28.304   5.461
 4805POPC   PO463180  29.448  28.532   5.463
 4805POPC   GL163181  29.113  28.447   5.739
 4805POPC   GL263182  28.889  28.739   5.716
 4805POPC   C1A63183  29.037  28.315   6.173
 4805POPC   D2A63184  29.213  28.223   6.594
 4805POPC   C3A63185  29.127  28.267   7.034
 4805POPC   C4A63186  29.441  28.033   7.280
 4805POPC   C1B63187  29.191  28.807   6.084
 4805POPC   C2B63188  29.241  28.730   6.532
 4805POPC   C3B63189  29.248  28.754   6.989
 4805POPC   C4B63190  28.880  28.681   7.248
 4806POPC   NC363191  21.083  10.871   5.205
 4806POPC   PO463192  21.446  11.318   5.603
 4806POPC   GL163193  21.317  11.382   5.973
 4806POPC   GL263194  21.041  11.526   5.909
 4806POPC   C1A63195  21.398  11.190   6.343
 4806POPC   D2A63196  21.355  10.927   6.691
 4806POPC   C3A63197  21.460  11.038   7.119
 4806POPC   C4A63198  21.575  11.461   7.147
 4806POPC   C1B63199  21.141  11.680   6.335
 4806POPC   C2B63200  21.301  11.521   6.705
 4806POPC   C3B63201  21.055  11.344   6.995
 4806POPC   C4B63202  21.079  11.758   7.154
 4807POPC   NC363203  17.827   7.836   5.455
 4807POPC   PO463204  17.205   7.638   5.507
 4807POPC   GL163205  17.217   8.044   5.771
 4807POPC   GL263206  17.547   8.244   5.725
 4807POPC   C1A63207  17.361   8.143   6.213
 4807POPC   D2A63208  17.612   8.091   6.603
 4807POPC   C3A63209  17.476   8.263   7.010
 4807POPC   C4A63210  17.332   8.087   7.411
 4807POPC   C1B63211  17.742   8.487   6.105
 4807POPC   C2B63212  17.999   8.471   6.497
 4807POPC   C3B63213  18.007   8.428   6.950
 4807POPC   C4B63214  17.808   8.700   7.264
 4808POPC   NC363215   3.151  21.386   5.233
 4808POPC   PO463216   2.620  21.052   5.382
 4808POPC   GL163217   2.915  21.225   5.726
 4808POPC   GL263218   3.051  21.576   5.799
 4808POPC   C1A63219   2.804  21.272   6.181
 4808POPC   D2A63220   2.808  21.451   6.600
 4808POPC   C3A63221   2.635  21.184   6.962
 4808POPC   C4A63222   2.822  21.031   7.342
 4808POPC   C1B63223   2.746  21.771   6.123
 4808POPC   C2B63224   2.400  21.713   6.426
 4808POPC   C3B63225   2.430  21.684   6.895
 4808POPC   C4B63226   2.861  21.634   7.083
 4809POPC   NC363227  22.230  34.020   5.330
 4809POPC   PO463228  22.610  33.430   5.434
 4809POPC   GL163229  22.293  33.695   5.744
 4809POPC   GL263230  21.935  33.858   5.805
 4809POPC   C1A63231  22.295  33.854   6.184
 4809POPC   D2A63232  22.466  33.613   6.547
 4809POPC   C3A63233  22.451  33.806   6.917
 4809POPC   C4A63234  22.356  33.938   7.319
 4809POPC   C1B63235  21.904  34.161   6.184
 4809POPC   C2B63236  22.097  34.090   6.609
 4809POPC   C3B63237  21.959  33.865   6.960
 4809POPC   C4B63238  21.735  33.641   7.221
 4810POPC   NC363239   9.789  44.583   5.434
 4810POPC   PO463240   9.575   0.136   5.749
 4810POPC   GL163241   9.789  44.808   5.947
 4810POPC   GL263242   9.715  44.457   5.934
 4810POPC   C1A63243   9.679  44.737   6.363
 4810POPC   D2A63244   9.683  44.421   6.630
 4810POPC   C3A63245   9.834  44.685   6.948
 4810POPC   C4A63246   9.627   0.034   7.175
 4810POPC   C1B63247  10.076  44.421   6.258
 4810POPC   C2B63248  10.141  44.161   6.675
 4810POPC   C3B63249   9.840  44.167   7.044
 4810POPC   C4B63250   9.528  44.438   7.252
 4811POPC   NC363251   2.459  24.483   5.540
 4811POPC   PO463252   3.072  24.303   5.531
 4811POPC   GL163253   2.834  24.415   5.913
 4811POPC   GL263254   2.623  24.708   5.971
 4811POPC   C1A63255   2.621  24.284   6.297
 4811POPC   D2A63256   2.714  24.029   6.661
 4811POPC   C3A63257   2.649  24.200   7.077
 4811POPC   C4A63258   2.510  24.382   7.492
 4811POPC   C1B63259   2.899  24.737   6.314
 4811POPC   C2B63260   2.817  24.542   6.714
 4811POPC   C3B63261   2.531  24.695   7.033
 4811POPC   C4B63262   2.618  24.956   7.385
 4812POPC   NC363263  17.219   7.181   5.586
 4812POPC   PO463264  17.882   7.277   5.488
 4812POPC   GL163265  17.645   7.338   5.840
 4812POPC   GL263266  17.574   7.692   5.898
 4812POPC   C1A63267  17.533   7.309   6.261
 4812POPC   D2A63268  17.616   7.539   6.611
 4812POPC   C3A63269  17.464   7.250   6.895
 4812POPC   C4A63270  17.552   7.107   7.284
 4812POPC   C1B63271  17.180   7.664   6.170
 4812POPC   C2B63272  17.169   7.810   6.596
 4812POPC   C3B63273  17.335   7.743   7.003
 4812POPC   C4B63274  17.157   7.441   7.299
 4813POPC   NC363275   9.443  28.855   5.396
 4813POPC   PO463276   9.649  28.196   5.329
 4813POPC   GL163277   9.751  28.245   5.777
 4813POPC   GL263278   9.729  28.615   5.816
 4813POPC   C1A63279   9.802  28.157   6.216
 4813POPC   D2A63280   9.791  28.419   6.576
 4813POPC   C3A63281   9.743  28.165   6.867
 4813POPC   C4A63282   9.722  28.276   7.266
 4813POPC   C1B63283   9.499  28.606   6.215
 4813POPC   C2B63284   9.335  28.598   6.685
 4813POPC   C3B63285   9.417  28.640   7.136
 4813POPC   C4B63286   9.495  28.656   7.607
 4814POPC   NC363287  43.487   3.638   5.661
 4814POPC   PO463288  43.020   3.464   5.287
 4814POPC   GL163289  42.945   3.448   5.729
 4814POPC   GL263290  42.996   3.809   5.783
 4814POPC   C1A63291  43.067   3.463   6.178
 4814POPC   D2A63292  42.897   3.672   6.524
 4814POPC   C3A63293  42.744   3.434   6.816
 4814POPC   C4A63294  42.964   3.531   7.153
 4814POPC   C1B63295  43.195   3.951   6.196
 4814POPC   C2B63296  43.132   4.118   6.569
 4814POPC   C3B63297  43.102   3.979   6.947
 4814POPC   C4B63298  43.222   3.925   7.350
 4815POPC   NC363299  18.097   3.739   5.376
 4815POPC   PO463300  18.686   3.447   5.508
 4815POPC   GL163301  18.335   3.488   5.821
 4815POPC   GL263302  18.210   3.841   5.863
 4815POPC   C1A63303  18.274   3.253   6.240
 4815POPC   D2A63304  18.573   3.165   6.607
 4815POPC   C3A63305  18.453   3.154   7.062
 4815POPC   C4A63306  18.074   3.170   7.304
 4815POPC   C1B63307  18.259   3.781   6.297
 4815POPC   C2B63308  18.054   3.721   6.699
 4815POPC   C3B63309  18.131   3.643   7.122
 4815POPC   C4B63310  18.095   3.845   7.495
 4816POPC   NC363311   3.786   8.800   5.143
 4816POPC   PO463312   4.449   8.900   5.181
 4816POPC   GL163313   4.272   8.935   5.645
 4816POPC   GL263314   4.532   9.086   5.817
 4816POPC   C1A63315   4.140   8.914   6.140
 4816POPC   D2A63316   4.173   9.123   6.592
 4816POPC   C3A63317   4.471   8.993   6.952
 4816POPC   C4A63318   4.523   8.708   7.336
 4816POPC   C1B63319   4.785   9.312   6.082
 4816POPC   C2B63320   4.655   9.311   6.510
 4816POPC   C3B63321   4.740   9.468   6.934
 4816POPC   C4B63322   4.649   9.398   7.364
 4817POPC   NC363323  33.230  13.748   5.534
 4817POPC   PO463324  32.731  13.261   5.506
 4817POPC   GL163325  32.903  13.356   5.905
 4817POPC   GL263326  32.884  13.727   5.920
 4817POPC   C1A63327  32.843  13.431   6.368
 4817POPC   D2A63328  32.997  13.787   6.654
 4817POPC   C3A63329  33.005  13.573   7.067
 4817POPC   C4A63330  32.728  13.246   7.242
 4817POPC   C1B63331  33.261  13.634   6.199
 4817POPC   C2B63332  33.317  13.387   6.616
 4817POPC   C3B63333  33.540  13.464   7.013
 4817POPC   C4B63334  33.383  13.633   7.433
 4818POPC   NC363335  43.164   0.693   5.448
 4818POPC   PO463336  43.277  44.974   5.571
 4818POPC   GL163337  43.329   0.409   5.834
 4818POPC   GL263338  42.995   0.606   5.919
 4818POPC   C1A63339  43.349   0.635   6.274
 4818POPC   D2A63340  43.146   0.652   6.718
 4818POPC   C3A63341  43.372   0.793   7.119
 4818POPC   C4A63342  43.260   0.749   7.553
 4818POPC   C1B63343  42.992   0.232   6.183
 4818POPC   C2B63344  42.886   0.155   6.596
 4818POPC   C3B63345  43.038   0.141   6.999
 4818POPC   C4B63346  42.943   0.513   7.224
 4819POPC   NC363347  21.755  40.908   5.407
 4819POPC   PO463348  21.178  41.036   5.478
 4819POPC   GL163349  21.164  40.807   5.806
 4819POPC   GL263350  21.459  40.576   5.814
 4819POPC   C1A63351  21.316  40.870   6.220
 4819POPC   D2A63352  21.527  40.704   6.605
 4819POPC   C3A63353  21.327  40.857   6.958
 4819POPC   C4A63354  21.183  40.881   7.337
 4819POPC   C1B63355  21.787  40.727   6.125
 4819POPC   C2B63356  21.807  41.078   6.434
 4819POPC   C3B63357  21.751  41.138   6.862
 4819POPC   C4B63358  21.769  40.902   7.217
 4820POPC   NC363359   1.747  32.688   5.373
 4820POPC   PO463360   1.885  32.026   5.403
 4820POPC   GL163361   1.820  32.300   5.750
 4820POPC   GL263362   2.155  32.417   5.793
 4820POPC   C1A63363   1.644  32.335   6.179
 4820POPC   D2A63364   1.508  32.481   6.599
 4820POPC   C3A63365   1.696  32.318   6.992
 4820POPC   C4A63366   1.835  32.046   7.363
 4820POPC   C1B63367   2.151  32.205   6.198
 4820POPC   C2B63368   2.072  32.377   6.623
 4820POPC   C3B63369   2.197  32.274   7.042
 4820POPC   C4B63370   2.321  31.855   7.206
 4821POPC   NC363371   0.162   2.842   5.399
 4821POPC   PO463372   0.810   3.086   5.514
 4821POPC   GL163373   0.593   2.930   5.875
 4821POPC   GL263374   0.292   2.707   5.864
 4821POPC   C1A63375   0.554   3.034   6.314
 4821POPC   D2A63376   0.552   2.762   6.679
 4821POPC   C3A63377   0.470   2.823   7.110
 4821POPC   C4A63378   0.514   2.832   7.542
 4821POPC   C1B63379   0.264   2.583   6.277
 4821POPC   C2B63380   0.054   2.744   6.633
 4821POPC   C3B63381   0.147   2.470   6.935
 4821POPC   C4B63382   0.142   2.459   7.350
 4822POPC   NC363383  39.879  42.863   5.346
 4822POPC   PO463384  40.175  43.444   5.539
 4822POPC   GL163385  40.071  43.083   5.763
 4822POPC   GL263386  40.396  42.928   5.730
 4822POPC   C1A63387  39.814  43.020   6.128
 4822POPC   D2A63388  39.725  43.277   6.474
 4822POPC   C3A63389  39.629  43.057   6.822
 4822POPC   C4A63390  39.667  43.176   7.237
 4822POPC   C1B63391  40.326  42.936   6.197
 4822POPC   C2B63392  40.096  42.933   6.590
 4822POPC   C3B63393  40.087  43.235   6.930
 4822POPC   C4B63394  40.168  43.116   7.344
 4823POPC   NC363395  41.060  13.956   5.372
 4823POPC   PO463396  40.763  14.528   5.353
 4823POPC   GL163397  40.675  14.508   5.768
 4823POPC   GL263398  40.773  14.166   5.741
 4823POPC   C1A63399  40.639  14.704   6.189
 4823POPC   D2A63400  40.483  14.790   6.629
 4823POPC   C3A63401  40.835  14.722   6.924
 4823POPC   C4A63402  40.864  14.546   7.330
 4823POPC   C1B63403  40.677  14.186   6.169
 4823POPC   C2B63404  40.778  14.350   6.560
 4823POPC   C3B63405  40.900  14.189   6.932
 4823POPC   C4B63406  40.866  14.031   7.333
 4824POPC   NC363407  37.515  32.486   5.277
 4824POPC   PO463408  37.990  32.102   5.409
 4824POPC   GL163409  37.886  32.317   5.788
 4824POPC   GL263410  37.533  32.443   5.809
 4824POPC   C1A63411  37.786  32.164   6.210
 4824POPC   D2A63412  37.990  32.089   6.591
 4824POPC   C3A63413  37.962  32.306   6.970
 4824POPC   C4A63414  37.599  32.096   7.108
 4824POPC   C1B63415  37.768  32.672   6.146
 4824POPC   C2B63416  37.747  32.574   6.567
 4824POPC   C3B63417  37.408  32.494   6.850
 4824POPC   C4B63418  37.566  32.629   7.216
 4825POPC   NC363419  23.937  13.278   4.971
 4825POPC   PO463420  23.530  13.513   5.261
 4825POPC   GL163421  23.513  13.704   5.740
 4825POPC   GL263422  23.373  14.019   5.878
 4825POPC   C1A63423  23.693  13.715   6.193
 4825POPC   D2A63424  23.675  13.492   6.615
 4825POPC   C3A63425  23.738  13.687   7.039
 4825POPC   C4A63426  23.915  14.125   7.174
 4825POPC   C1B63427  23.481  14.171   6.274
 4825POPC   C2B63428  23.620  14.026   6.670
 4825POPC   C3B63429  23.416  14.067   7.073
 4825POPC   C4B63430  23.196  13.737   7.278
 4826POPC   NC363431  18.869  32.443   5.330
 4826POPC   PO463432  18.147  32.305   5.477
 4826POPC   GL163433  18.253  32.286   5.890
 4826POPC   GL263434  18.593  32.331   5.880
 4826POPC   C1A63435  18.191  32.293   6.321
 4826POPC   D2A63436  17.935  32.160   6.645
 4826POPC   C3A63437  17.960  32.407   7.024
 4826POPC   C4A63438  18.266  32.400   7.362
 4826POPC   C1B63439  18.582  31.972   6.191
 4826POPC   C2B63440  18.516  32.033   6.640
 4826POPC   C3B63441  18.600  32.148   7.054
 4826POPC   C4B63442  18.662  31.806   7.331
 4827POPC   NC363443  17.881  11.425   5.311
 4827POPC   PO463444  18.379  10.925   5.403
 4827POPC   GL163445  18.349  11.089   5.776
 4827POPC   GL263446  18.282  11.441   5.681
 4827POPC   C1A63447  18.200  10.970   6.158
 4827POPC   D2A63448  18.317  10.825   6.538
 4827POPC   C3A63449  18.439  11.160   6.780
 4827POPC   C4A63450  18.322  11.086   7.181
 4827POPC   C1B63451  18.172  11.511   6.113
 4827POPC   C2B63452  18.281  11.733   6.521
 4827POPC   C3B63453  18.428  11.746   6.947
 4827POPC   C4B63454  18.232  11.573   7.267
 4828POPC   NC363455  21.139   7.617   5.502
 4828POPC   PO463456  21.576   7.007   5.437
 4828POPC   GL163457  21.502   7.265   5.788
 4828POPC   GL263458  21.153   7.167   5.749
 4828POPC   C1A63459  21.342   7.511   6.156
 4828POPC   D2A63460  21.171   7.634   6.562
 4828POPC   C3A63461  21.325   7.530   6.963
 4828POPC   C4A63462  21.191   7.717   7.329
 4828POPC   C1B63463  21.172   6.998   6.139
 4828POPC   C2B63464  21.267   7.153   6.533
 4828POPC   C3B63465  21.132   7.044   6.915
 4828POPC   C4B63466  21.028   7.182   7.309
 4829POPC   NC363467  16.113  14.194   5.465
 4829POPC   PO463468  16.165  14.800   5.567
 4829POPC   GL163469  15.927  14.494   5.867
 4829POPC   GL263470  15.908  14.107   5.920
 4829POPC   C1A63471  15.747  14.426   6.296
 4829POPC   D2A63472  15.709  14.281   6.752
 4829POPC   C3A63473  15.862  14.543   7.090
 4829POPC   C4A63474  15.739  14.707   7.507
 4829POPC   C1B63475  16.223  14.249   6.239
 4829POPC   C2B63476  16.207  14.353   6.689
 4829POPC   C3B63477  16.295  14.228   7.126
 4829POPC   C4B63478  16.523  14.240   7.543
 4830POPC   NC363479  36.458   0.363   5.559
 4830POPC   PO463480  37.058   0.467   5.462
 4830POPC   GL163481  36.932   0.445   5.870
 4830POPC   GL263482  36.693   0.721   5.926
 4830POPC   C1A63483  37.062   0.534   6.297
 4830POPC   D2A63484  36.882   0.653   6.675
 4830POPC   C3A63485  37.133   0.586   6.982
 4830POPC   C4A63486  37.171   0.232   7.222
 4830POPC   C1B63487  36.544   0.429   6.256
 4830POPC   C2B63488  36.415   0.379   6.688
 4830POPC   C3B63489  36.682   0.290   7.041
 4830POPC   C4B63490  36.811   0.573   7.348
 4831POPC   NC363491  41.045  18.519   5.566
 4831POPC   PO463492  40.449  18.304   5.517
 4831POPC   GL163493  40.627  18.366   5.874
 4831POPC   GL263494  40.607  18.714   5.793
 4831POPC   C1A63495  40.668  18.090   6.244
 4831POPC   D2A63496  40.451  17.868   6.585
 4831POPC   C3A63497  40.653  18.032   6.944
 4831POPC   C4A63498  40.825  18.062   7.334
 4831POPC   C1B63499  40.630  18.690   6.253
 4831POPC   C2B63500  40.796  18.774   6.667
 4831POPC   C3B63501  40.784  18.536   7.057
 4831POPC   C4B63502  40.622  18.588   7.509
 4832POPC   NC363503  29.529  32.392   5.049
 4832POPC   PO463504  29.983  31.941   5.393
 4832POPC   GL163505  29.959  32.004   5.825
 4832POPC   GL263506  29.922  32.345   5.938
 4832POPC   C1A63507  29.907  31.943   6.256
 4832POPC   D2A63508  30.131  31.857   6.592
 4832POPC   C3A63509  29.937  31.969   6.943
 4832POPC   C4A63510  30.067  32.091   7.327
 4832POPC   C1B63511  30.116  32.411   6.298
 4832POPC   C2B63512  29.962  32.383   6.650
 4832POPC   C3B63513  30.118  32.492   7.003
 4832POPC   C4B63514  29.899  32.571   7.341
 4833POPC   NC363515   9.133  41.409   5.460
 4833POPC   PO463516   9.796  41.453   5.302
 4833POPC   GL163517   9.849  41.631   5.740
 4833POPC   GL263518   9.522  41.583   5.775
 4833POPC   C1A63519   9.899  41.565   6.226
 4833POPC   D2A63520   9.932  41.605   6.719
 4833POPC   C3A63521  10.007  41.407   7.178
 4833POPC   C4A63522  10.093  41.400   7.663
 4833POPC   C1B63523   9.400  41.629   6.213
 4833POPC   C2B63524   9.470  41.403   6.570
 4833POPC   C3B63525   9.506  41.457   6.995
 4833POPC   C4B63526   9.429  41.793   7.264
 4834POPC   NC363527  40.908  16.173   5.296
 4834POPC   PO463528  40.307  15.822   5.489
 4834POPC   GL163529  40.545  15.906   5.837
 4834POPC   GL263530  40.921  15.993   5.793
 4834POPC   C1A63531  40.501  15.709   6.219
 4834POPC   D2A63532  40.658  15.763   6.615
 4834POPC   C3A63533  40.422  15.621   6.918
 4834POPC   C4A63534  40.463  15.741   7.332
 4834POPC   C1B63535  40.856  16.090   6.239
 4834POPC   C2B63536  40.838  16.252   6.667
 4834POPC   C3B63537  40.735  16.056   7.047
 4834POPC   C4B63538  40.716  16.204   7.472
 4835POPC   NC363539  30.027  42.774   4.987
 4835POPC   PO463540  29.684  43.231   5.321
 4835POPC   GL163541  29.961  43.151   5.695
 4835POPC   GL263542  29.646  43.122   5.849
 4835POPC   C1A63543  30.049  43.090   6.143
 4835POPC   D2A63544  30.042  43.260   6.546
 4835POPC   C3A63545  30.018  42.978   6.901
 4835POPC   C4A63546  29.863  42.973   7.311
 4835POPC   C1B63547  29.677  43.462   6.138
 4835POPC   C2B63548  29.574  43.545   6.544
 4835POPC   C3B63549  29.708  43.401   6.941
 4835POPC   C4B63550  29.615  43.375   7.343
 4836POPC   NC363551  24.198  30.308   5.087
 4836POPC   PO463552  24.675  30.772   5.403
 4836POPC   GL163553  24.687  30.458   5.787
 4836POPC   GL263554  24.459  30.685   5.937
 4836POPC   C1A63555  24.766  30.452   6.251
 4836POPC   D2A63556  24.513  30.624   6.589
 4836POPC   C3A63557  24.648  30.469   6.980
 4836POPC   C4A63558  24.638  30.376   7.422
 4836POPC   C1B63559  24.553  31.036   6.140
 4836POPC   C2B63560  24.485  31.125   6.543
 4836POPC   C3B63561  24.686  31.009   6.904
 4836POPC   C4B63562  24.527  30.890   7.280
 4837POPC   NC363563  14.999  25.289   5.477
 4837POPC   PO463564  15.695  25.438   5.368
 4837POPC   GL163565  15.440  25.436   5.744
 4837POPC   GL263566  15.389  25.122   5.765
 4837POPC   C1A63567  15.259  25.373   6.195
 4837POPC   D2A63568  15.333  25.504   6.656
 4837POPC   C3A63569  15.046  25.299   6.969
 4837POPC   C4A63570  14.896  25.195   7.390
 4837POPC   C1B63571  15.555  24.957   6.153
 4837POPC   C2B63572  15.592  25.071   6.558
 4837POPC   C3B63573  15.442  24.967   6.968
 4837POPC   C4B63574  15.472  25.266   7.307
 4838POPC   NC363575  14.464   3.999   5.503
 4838POPC   PO463576  14.691   4.672   5.301
 4838POPC   GL163577  14.588   4.490   5.722
 4838POPC   GL263578  14.216   4.403   5.742
 4838POPC   C1A63579  14.624   4.355   6.174
 4838POPC   D2A63580  14.731   4.105   6.512
 4838POPC   C3A63581  14.659   4.316   6.865
 4838POPC   C4A63582  14.497   4.259   7.233
 4838POPC   C1B63583  14.109   4.251   6.178
 4838POPC   C2B63584  13.933   4.239   6.610
 4838POPC   C3B63585  14.033   4.042   7.028
 4838POPC   C4B63586  13.932   3.880   7.457
 4839POPC   NC363587  19.949  28.786   5.122
 4839POPC   PO463588  20.000  28.154   5.474
 4839POPC   GL163589  19.926  28.478   5.862
 4839POPC   GL263590  20.273  28.651   5.978
 4839POPC   C1A63591  19.711  28.531   6.297
 4839POPC   D2A63592  19.460  28.524   6.709
 4839POPC   C3A63593  19.664  28.467   7.114
 4839POPC   C4A63594  19.984  28.240   7.390
 4839POPC   C1B63595  20.235  28.252   6.186
 4839POPC   C2B63596  20.055  28.265   6.586
 4839POPC   C3B63597  20.031  28.657   6.798
 4839POPC   C4B63598  20.116  28.752   7.235
 4840POPC   NC363599  24.745  16.016   5.523
 4840POPC   PO463600  24.116  15.965   5.638
 4840POPC   GL163601  24.344  15.962   5.987
 4840POPC   GL263602  24.508  15.673   5.965
 4840POPC   C1A63603  24.434  15.945   6.438
 4840POPC   D2A63604  24.379  15.604   6.749
 4840POPC   C3A63605  24.346  15.802   7.128
 4840POPC   C4A63606  24.493  16.192   7.329
 4840POPC   C1B63607  24.851  15.945   6.161
 4840POPC   C2B63608  24.950  16.055   6.588
 4840POPC   C3B63609  24.810  15.977   6.996
 4840POPC   C4B63610  24.958  15.925   7.436
 4841POPC   NC363611   8.903   5.341   5.352
 4841POPC   PO463612   8.739   4.661   5.465
 4841POPC   GL163613   8.873   4.952   5.823
 4841POPC   GL263614   8.735   5.323   5.849
 4841POPC   C1A63615   9.048   5.152   6.227
 4841POPC   D2A63616   9.076   5.122   6.693
 4841POPC   C3A63617   9.284   5.248   7.077
 4841POPC   C4A63618   9.053   5.074   7.457
 4841POPC   C1B63619   8.462   5.395   6.234
 4841POPC   C2B63620   8.500   5.384   6.698
 4841POPC   C3B63621   8.806   5.413   7.052
 4841POPC   C4B63622   8.804   5.512   7.519
 4842POPC   NC363623  35.642  20.896   5.469
 4842POPC   PO463624  35.113  20.496   5.507
 4842POPC   GL163625  35.132  20.390   5.907
 4842POPC   GL263626  35.499  20.399   5.882
 4842POPC   C1A63627  35.217  20.233   6.289
 4842POPC   D2A63628  35.400  20.424   6.600
 4842POPC   C3A63629  35.149  20.397   6.949
 4842POPC   C4A63630  35.304  20.466   7.340
 4842POPC   C1B63631  35.388  20.762   6.153
 4842POPC   C2B63632  35.605  20.908   6.518
 4842POPC   C3B63633  35.584  20.751   6.945
 4842POPC   C4B63634  35.518  21.007   7.289
 4843POPC   NC363635   3.653  36.542   5.571
 4843POPC   PO463636   3.806  37.258   5.503
 4843POPC   GL163637   3.668  36.963   5.841
 4843POPC   GL263638   3.352  36.914   5.765
 4843POPC   C1A63639   3.675  36.676   6.234
 4843POPC   D2A63640   3.871  36.781   6.658
 4843POPC   C3A63641   3.771  36.779   7.070
 4843POPC   C4A63642   3.735  37.198   7.205
 4843POPC   C1B63643   3.346  37.069   6.215
 4843POPC   C2B63644   3.376  36.896   6.626
 4843POPC   C3B63645   3.284  36.938   7.056
 4843POPC   C4B63646   3.143  36.512   7.141
 4844POPC   NC363647  25.884   4.619   5.408
 4844POPC   PO463648  26.178   3.986   5.331
 4844POPC   GL163649  26.079   4.154   5.707
 4844POPC   GL263650  26.382   3.995   5.813
 4844POPC   C1A63651  26.066   4.313   6.137
 4844POPC   D2A63652  26.217   4.264   6.582
 4844POPC   C3A63653  26.195   4.582   6.918
 4844POPC   C4A63654  25.876   4.580   7.239
 4844POPC   C1B63655  26.330   3.852   6.211
 4844POPC   C2B63656  26.505   3.809   6.595
 4844POPC   C3B63657  26.254   3.866   6.928
 4844POPC   C4B63658  26.188   4.174   7.218
 4845POPC   NC363659  43.069  11.224   5.314
 4845POPC   PO463660  42.690  11.770   5.496
 4845POPC   GL163661  42.906  11.489   5.780
 4845POPC   GL263662  43.174  11.233   5.809
 4845POPC   C1A63663  42.826  11.382   6.223
 4845POPC   D2A63664  42.969  11.230   6.633
 4845POPC   C3A63665  42.755  11.374   6.982
 4845POPC   C4A63666  42.688  11.245   7.418
 4845POPC   C1B63667  43.230  11.051   6.207
 4845POPC   C2B63668  43.254  10.778   6.534
 4845POPC   C3B63669  43.249  10.848   6.970
 4845POPC   C4B63670  43.178  11.236   7.211
 4846POPC   NC363671  40.596   1.187   5.505
 4846POPC   PO463672  41.205   1.033   5.622
 4846POPC   GL163673  40.942   1.274   5.885
 4846POPC   GL263674  40.650   1.082   6.006
 4846POPC   C1A63675  41.031   1.229   6.299
 4846POPC   D2A63676  41.092   0.961   6.668
 4846POPC   C3A63677  40.764   1.064   6.962
 4846POPC   C4A63678  40.799   1.395   7.207
 4846POPC   C1B63679  40.565   1.137   6.475
 4846POPC   C2B63680  40.415   1.416   6.804
 4846POPC   C3B63681  40.300   1.397   7.216
 4846POPC   C4B63682  40.481   1.059   7.459
 4847POPC   NC363683  26.515  29.911   5.386
 4847POPC   PO463684  27.124  29.836   5.116
 4847POPC   GL163685  27.002  29.696   5.607
 4847POPC   GL263686  26.672  29.704   5.826
 4847POPC   C1A63687  27.117  29.713   6.094
 4847POPC   D2A63688  27.212  29.719   6.564
 4847POPC   C3A63689  26.881  29.897   6.859
 4847POPC   C4A63690  26.580  30.117   7.201
 4847POPC   C1B63691  26.665  30.073   6.128
 4847POPC   C2B63692  26.539  30.152   6.569
 4847POPC   C3B63693  26.361  29.826   6.842
 4847POPC   C4B63694  26.566  29.598   7.192
 4848POPC   NC363695  29.553   6.423   5.435
 4848POPC   PO463696  30.002   6.937   5.357
 4848POPC   GL163697  30.125   6.606   5.680
 4848POPC   GL263698  30.115   6.883   5.874
 4848POPC   C1A63699  30.126   6.319   6.105
 4848POPC   D2A63700  29.862   6.286   6.529
 4848POPC   C3A63701  30.063   6.225   6.927
 4848POPC   C4A63702  30.015   6.302   7.363
 4848POPC   C1B63703  29.998   6.781   6.294
 4848POPC   C2B63704  30.148   6.690   6.675
 4848POPC   C3B63705  29.984   6.740   7.067
 4848POPC   C4B63706  30.221   6.773   7.424
 4849POPC   NC363707  41.144  38.696   5.502
 4849POPC   PO463708  41.468  38.258   5.699
 4849POPC   GL163709  41.381  38.648   5.961
 4849POPC   GL263710  41.027  38.746   5.990
 4849POPC   C1A63711  41.468  38.717   6.414
 4849POPC   D2A63712  41.640  38.924   6.794
 4849POPC   C3A63713  41.386  38.704   7.082
 4849POPC   C4A63714  41.517  38.295   7.236
 4849POPC   C1B63715  41.066  38.391   6.269
 4849POPC   C2B63716  41.194  38.359   6.721
 4849POPC   C3B63717  41.029  38.291   7.117
 4849POPC   C4B63718  41.050  37.904   7.354
 4850POPC   NC363719  25.938  27.255   5.541
 4850POPC   PO463720  26.302  26.799   5.190
 4850POPC   GL163721  26.211  26.607   5.693
 4850POPC   GL263722  25.952  26.394   5.802
 4850POPC   C1A63723  26.202  26.792   6.133
 4850POPC   D2A63724  25.946  27.013   6.490
 4850POPC   C3A63725  26.167  26.919   6.899
 4850POPC   C4A63726  26.177  26.564   7.177
 4850POPC   C1B63727  25.791  26.517   6.229
 4850POPC   C2B63728  25.892  26.555   6.661
 4850POPC   C3B63729  25.692  26.709   7.034
 4850POPC   C4B63730  25.650  26.587   7.461
 4851POPC   NC363731  21.297  28.099   5.428
 4851POPC   PO463732  21.483  28.821   5.371
 4851POPC   GL163733  21.250  28.664   5.748
 4851POPC   GL263734  21.120  28.315   5.834
 4851POPC   C1A63735  21.257  28.609   6.209
 4851POPC   D2A63736  21.014  28.504   6.552
 4851POPC   C3A63737  21.268  28.382   6.907
 4851POPC   C4A63738  21.163  28.275   7.321
 4851POPC   C1B63739  21.357  28.094   6.141
 4851POPC   C2B63740  21.551  27.861   6.479
 4851POPC   C3B63741  21.579  27.964   6.910
 4851POPC   C4B63742  21.516  27.922   7.323
 4852POPC   NC363743  23.875  33.993   5.514
 4852POPC   PO463744  24.327  33.464   5.289
 4852POPC   GL163745  24.455  33.531   5.774
 4852POPC   GL263746  24.248  33.773   5.910
 4852POPC   C1A63747  24.637  33.648   6.218
 4852POPC   D2A63748  24.541  33.906   6.603
 4852POPC   C3A63749  24.572  33.782   7.052
 4852POPC   C4A63750  24.488  34.035   7.450
 4852POPC   C1B63751  24.157  33.474   6.199
 4852POPC   C2B63752  24.255  33.404   6.625
 4852POPC   C3B63753  24.115  33.551   6.996
 4852POPC   C4B63754  24.242  33.610   7.410
 4853POPC   NC363755  32.230  30.192   5.486
 4853POPC   PO463756  32.173  29.577   5.488
 4853POPC   GL163757  32.241  29.822   5.858
 4853POPC   GL263758  32.569  29.671   5.896
 4853POPC   C1A63759  32.079  30.050   6.251
 4853POPC   D2A63760  31.753  30.230   6.530
 4853POPC   C3A63761  31.823  30.059   6.957
 4853POPC   C4A63762  32.182  30.178   7.203
 4853POPC   C1B63763  32.448  29.699   6.358
 4853POPC   C2B63764  32.418  30.000   6.751
 4853POPC   C3B63765  32.642  29.941   7.165
 4853POPC   C4B63766  32.641  29.533   7.383
 4854POPC   NC363767  27.736  20.538   5.143
 4854POPC   PO463768  27.369  21.074   5.193
 4854POPC   GL163769  27.617  20.860   5.556
 4854POPC   GL263770  27.531  20.506   5.645
 4854POPC   C1A63771  27.784  20.799   6.009
 4854POPC   D2A63772  27.717  20.643   6.463
 4854POPC   C3A63773  27.538  20.801   6.889
 4854POPC   C4A63774  27.751  20.802   7.312
 4854POPC   C1B63775  27.351  20.574   6.078
 4854POPC   C2B63776  27.214  20.561   6.498
 4854POPC   C3B63777  27.285  20.368   6.839
 4854POPC   C4B63778  27.389  20.438   7.242
 4855POPC   NC363779  37.730  16.150   5.462
 4855POPC   PO463780  37.622  15.560   5.622
 4855POPC   GL163781  37.933  15.852   5.877
 4855POPC   GL263782  38.018  16.229   5.863
 4855POPC   C1A63783  37.976  15.993   6.316
 4855POPC   D2A63784  37.638  15.885   6.602
 4855POPC   C3A63785  37.766  15.661   6.958
 4855POPC   C4A63786  37.574  15.720   7.349
 4855POPC   C1B63787  37.614  16.315   6.086
 4855POPC   C2B63788  37.286  16.197   6.367
 4855POPC   C3B63789  37.273  16.236   6.791
 4855POPC   C4B63790  37.639  16.159   7.079
 4856POPC   NC363791  17.687  37.332   5.024
 4856POPC   PO463792  18.299  37.419   5.305
 4856POPC   GL163793  18.342  37.452   5.790
 4856POPC   GL263794  18.145  37.671   6.021
 4856POPC   C1A63795  18.468  37.346   6.252
 4856POPC   D2A63796  18.169  37.451   6.622
 4856POPC   C3A63797  18.248  37.633   7.034
 4856POPC   C4A63798  18.010  37.850   7.380
 4856POPC   C1B63799  18.400  37.819   6.407
 4856POPC   C2B63800  18.360  38.081   6.751
 4856POPC   C3B63801  18.419  38.108   7.196
 4856POPC   C4B63802  18.791  38.118   7.403
 4857POPC   NC363803  40.174  38.021   5.426
 4857POPC   PO463804  39.943  37.355   5.475
 4857POPC   GL163805  40.051  37.542   5.874
 4857POPC   GL263806  39.942  37.909   5.869
 4857POPC   C1A63807  40.013  37.424   6.324
 4857POPC   D2A63808  39.685  37.418   6.665
 4857POPC   C3A63809  39.883  37.583   7.026
 4857POPC   C4A63810  40.332  37.616   7.062
 4857POPC   C1B63811  40.185  37.949   6.256
 4857POPC   C2B63812  40.150  38.139   6.690
 4857POPC   C3B63813  40.056  38.052   7.122
 4857POPC   C4B63814  39.799  37.901   7.443
 4858POPC   NC363815   4.787  43.968   5.109
 4858POPC   PO463816   4.273  43.640   5.403
 4858POPC   GL163817   4.337  43.744   5.824
 4858POPC   GL263818   4.109  43.571   5.954
 4858POPC   C1A63819   4.327  43.852   6.298
 4858POPC   D2A63820   4.365  44.068   6.637
 4858POPC   C3A63821   4.569  43.903   6.959
 4858POPC   C4A63822   4.316  43.953   7.304
 4858POPC   C1B63823   3.882  43.591   6.289
 4858POPC   C2B63824   4.042  43.603   6.696
 4858POPC   C3B63825   4.057  43.547   7.138
 4858POPC   C4B63826   3.863  43.345   7.448
 4859POPC   NC363827  13.027  28.811   5.458
 4859POPC   PO463828  12.512  29.219   5.510
 4859POPC   GL163829  12.862  29.163   5.814
 4859POPC   GL263830  12.716  28.846   5.868
 4859POPC   C1A63831  13.028  28.989   6.240
 4859POPC   D2A63832  13.198  29.168   6.615
 4859POPC   C3A63833  13.055  29.172   7.016
 4859POPC   C4A63834  13.285  29.432   7.288
 4859POPC   C1B63835  12.553  29.137   6.214
 4859POPC   C2B63836  12.681  29.150   6.646
 4859POPC   C3B63837  12.480  29.079   7.033
 4859POPC   C4B63838  12.517  28.982   7.456
 4860POPC   NC363839  11.573   8.030   5.566
 4860POPC   PO463840  10.946   8.107   5.303
 4860POPC   GL163841  11.125   8.096   5.752
 4860POPC   GL263842  11.340   8.353   5.953
 4860POPC   C1A63843  11.262   7.894   6.158
 4860POPC   D2A63844  11.374   8.179   6.512
 4860POPC   C3A63845  11.333   8.005   6.935
 4860POPC   C4A63846  11.410   8.164   7.360
 4860POPC   C1B63847  11.714   8.478   6.255
 4860POPC   C2B63848  11.986   8.596   6.626
 4860POPC   C3B63849  11.937   8.613   7.084
 4860POPC   C4B63850  11.864   8.349   7.429
 4861POPC   NC363851  34.200  34.487   5.402
 4861POPC   PO463852  33.610  34.770   5.290
 4861POPC   GL163853  33.785  34.567   5.727
 4861POPC   GL263854  33.781  34.830   5.962
 4861POPC   C1A63855  33.915  34.389   6.169
 4861POPC   D2A63856  34.036  34.235   6.611
 4861POPC   C3A63857  33.908  34.468   6.991
 4861POPC   C4A63858  33.885  34.710   7.334
 4861POPC   C1B63859  33.721  34.827   6.397
 4861POPC   C2B63860  33.648  34.874   6.825
 4861POPC   C3B63861  33.438  34.863   7.183
 4861POPC   C4B63862  33.415  34.737   7.621
 4862POPC   NC363863  35.152  28.132   5.195
 4862POPC   PO463864  35.643  28.545   5.345
 4862POPC   GL163865  35.290  28.507   5.631
 4862POPC   GL263866  35.188  28.142   5.724
 4862POPC   C1A63867  35.057  28.579   6.005
 4862POPC   D2A63868  35.037  28.462   6.428
 4862POPC   C3A63869  35.110  28.742   6.768
 4862POPC   C4A63870  35.175  28.586   7.196
 4862POPC   C1B63871  35.367  28.137   6.159
 4862POPC   C2B63872  35.439  28.210   6.624
 4862POPC   C3B63873  35.278  28.086   7.038
 4862POPC   C4B63874  35.501  27.992   7.428
 4863POPC   NC363875  25.445   3.185   5.467
 4863POPC   PO463876  25.006   2.748   5.281
 4863POPC   GL163877  25.209   2.745   5.707
 4863POPC   GL263878  25.579   2.655   5.706
 4863POPC   C1A63879  25.063   2.874   6.135
 4863POPC   D2A63880  24.904   2.908   6.571
 4863POPC   C3A63881  25.175   3.080   6.904
 4863POPC   C4A63882  25.106   2.992   7.348
 4863POPC   C1B63883  25.567   2.812   6.134
 4863POPC   C2B63884  25.386   2.733   6.524
 4863POPC   C3B63885  25.281   2.553   6.885
 4863POPC   C4B63886  25.510   2.722   7.214
 4864POPC   NC363887  10.017   5.971   5.329
 4864POPC   PO463888  10.568   5.606   5.104
 4864POPC   GL163889  10.316   5.608   5.552
 4864POPC   GL263890  10.506   5.828   5.749
 4864POPC   C1A63891  10.223   5.577   6.077
 4864POPC   D2A63892  10.360   5.461   6.511
 4864POPC   C3A63893  10.286   5.675   6.918
 4864POPC   C4A63894  10.134   5.588   7.320
 4864POPC   C1B63895  10.714   5.710   6.158
 4864POPC   C2B63896  10.766   5.758   6.608
 4864POPC   C3B63897  10.902   5.787   7.045
 4864POPC   C4B63898  10.585   5.806   7.338
 4865POPC   NC363899  13.094  37.084   5.364
 4865POPC   PO463900  12.410  37.150   5.278
 4865POPC   GL163901  12.654  36.987   5.620
 4865POPC   GL263902  12.661  37.316   5.707
 4865POPC   C1A63903  12.649  36.879   6.088
 4865POPC   D2A63904  12.711  36.614   6.474
 4865POPC   C3A63905  12.826  36.905   6.824
 4865POPC   C4A63906  13.062  36.939   7.237
 4865POPC   C1B63907  12.505  37.353   6.103
 4865POPC   C2B63908  12.609  37.241   6.494
 4865POPC   C3B63909  12.458  37.293   6.879
 4865POPC   C4B63910  12.593  37.155   7.233
 4866POPC   NC363911  36.048  19.413   5.204
 4866POPC   PO463912  36.118  18.894   5.685
 4866POPC   GL163913  36.194  19.092   6.038
 4866POPC   GL263914  35.831  19.238   6.138
 4866POPC   C1A63915  36.399  18.871   6.370
 4866POPC   D2A63916  36.518  18.951   6.784
 4866POPC   C3A63917  36.285  18.820   7.117
 4866POPC   C4A63918  36.052  18.884   7.458
 4866POPC   C1B63919  35.853  18.886   6.340
 4866POPC   C2B63920  35.944  18.864   6.740
 4866POPC   C3B63921  35.753  19.046   7.088
 4866POPC   C4B63922  35.895  19.371   7.360
 4867POPC   NC363923  30.524   0.165   5.343
 4867POPC   PO463924  30.957  44.661   5.450
 4867POPC   GL163925  30.756  44.679   5.847
 4867POPC   GL263926  30.410  44.785   5.747
 4867POPC   C1A63927  30.887  44.611   6.294
 4867POPC   D2A63928  31.134  44.373   6.646
 4867POPC   C3A63929  30.881  44.219   7.006
 4867POPC   C4A63930  30.558  44.391   7.271
 4867POPC   C1B63931  30.375  44.763   6.218
 4867POPC   C2B63932  30.432  44.781   6.674
 4867POPC   C3B63933  30.675  44.865   7.050
 4867POPC   C4B63934  30.569  44.880   7.512
 4868POPC   NC363935  25.773  32.001   5.576
 4868POPC   PO463936  26.246  32.405   5.341
 4868POPC   GL163937  26.209  32.256   5.807
 4868POPC   GL263938  26.176  31.891   5.884
 4868POPC   C1A63939  26.032  32.458   6.222
 4868POPC   D2A63940  25.681  32.415   6.523
 4868POPC   C3A63941  25.788  32.510   6.958
 4868POPC   C4A63942  25.662  32.244   7.316
 4868POPC   C1B63943  26.354  32.069   6.293
 4868POPC   C2B63944  26.192  32.257   6.668
 4868POPC   C3B63945  26.018  32.058   7.001
 4868POPC   C4B63946  26.124  32.093   7.437
 4869POPC   NC363947   1.124   8.632   5.526
 4869POPC   PO463948   0.965   9.255   5.470
 4869POPC   GL163949   1.232   9.048   5.805
 4869POPC   GL263950   1.486   9.256   5.902
 4869POPC   C1A63951   1.314   8.818   6.211
 4869POPC   D2A63952   1.112   8.753   6.633
 4869POPC   C3A63953   1.251   8.857   7.063
 4869POPC   C4A63954   1.145   9.170   7.335
 4869POPC   C1B63955   1.615   9.237   6.312
 4869POPC   C2B63956   1.547   9.109   6.706
 4869POPC   C3B63957   1.582   9.292   7.113
 4869POPC   C4B63958   1.634   9.119   7.535
 4870POPC   NC363959  33.442  35.574   5.271
 4870POPC   PO463960  32.791  35.342   5.264
 4870POPC   GL163961  32.745  35.283   5.721
 4870POPC   GL263962  32.487  35.533   5.758
 4870POPC   C1A63963  32.938  35.366   6.143
 4870POPC   D2A63964  33.108  35.505   6.546
 4870POPC   C3A63965  33.157  35.216   6.865
 4870POPC   C4A63966  33.030  35.123   7.273
 4870POPC   C1B63967  32.558  35.740   6.167
 4870POPC   C2B63968  32.598  35.564   6.569
 4870POPC   C3B63969  32.707  35.693   6.969
 4870POPC   C4B63970  33.108  35.626   7.185
 4871POPC   NC363971  31.268   1.754   5.393
 4871POPC   PO463972  31.487   2.360   5.541
 4871POPC   GL163973  31.321   2.050   5.823
 4871POPC   GL263974  31.604   1.799   5.802
 4871POPC   C1A63975  31.139   2.041   6.246
 4871POPC   D2A63976  31.118   2.261   6.665
 4871POPC   C3A63977  31.144   1.986   7.048
 4871POPC   C4A63978  31.065   2.095   7.500
 4871POPC   C1B63979  31.652   2.018   6.213
 4871POPC   C2B63980  31.481   1.887   6.628
 4871POPC   C3B63981  31.625   1.785   7.028
 4871POPC   C4B63982  31.935   2.019   7.220
 4872POPC   NC363983  28.098  27.821   5.507
 4872POPC   PO463984  28.335  27.201   5.402
 4872POPC   GL163985  28.399  27.482   5.790
 4872POPC   GL263986  28.537  27.846   5.753
 4872POPC   C1A63987  28.253  27.411   6.236
 4872POPC   D2A63988  28.037  27.321   6.652
 4872POPC   C3A63989  28.303  27.355   7.044
 4872POPC   C4A63990  28.554  27.726   7.142
 4872POPC   C1B63991  28.298  27.923   6.134
 4872POPC   C2B63992  28.295  27.795   6.571
 4872POPC   C3B63993  28.035  27.783   6.924
 4872POPC   C4B63994  28.123  28.048   7.253
 4873POPC   NC363995  13.453  19.277   5.029
 4873POPC   PO463996  13.326  18.712   5.449
 4873POPC   GL163997  13.462  19.044   5.734
 4873POPC   GL263998  13.836  19.042   5.710
 4873POPC   C1A63999  13.525  19.077   6.189
 4873POPC   D2A64000  13.724  18.852   6.526
 4873POPC   C3A64001  13.432  18.760   6.856
 4873POPC   C4A64002  13.391  19.020   7.216
 4873POPC   C1B64003  14.030  19.091   6.113
 4873POPC   C2B64004  13.937  19.328   6.483
 4873POPC   C3B64005  13.734  19.256   6.885
 4873POPC   C4B64006  13.752  19.473   7.263
 4874POPC   NC364007  19.085   8.619   5.390
 4874POPC   PO464008  19.146   7.969   5.383
 4874POPC   GL164009  19.001   8.210   5.725
 4874POPC   GL264010  19.327   8.375   5.797
 4874POPC   C1A64011  18.927   8.301   6.174
 4874POPC   D2A64012  19.154   8.408   6.544
 4874POPC   C3A64013  19.019   8.208   6.915
 4874POPC   C4A64014  18.788   8.331   7.244
 4874POPC   C1B64015  19.390   8.060   6.148
 4874POPC   C2B64016  19.594   8.150   6.555
 4874POPC   C3B64017  19.516   8.313   6.956
 4874POPC   C4B64018  19.340   7.988   7.250
 4875POPC   NC364019  33.110  12.979   5.433
 4875POPC   PO464020  33.064  12.326   5.628
 4875POPC   GL164021  33.075  12.717   5.868
 4875POPC   GL264022  33.398  12.890   5.833
 4875POPC   C1A64023  32.795  12.839   6.199
 4875POPC   D2A64024  32.685  12.547   6.560
 4875POPC   C3A64025  32.676  12.752   6.944
 4875POPC   C4A64026  32.876  12.739   7.320
 4875POPC   C1B64027  33.257  13.097   6.193
 4875POPC   C2B64028  33.167  12.857   6.563
 4875POPC   C3B64029  33.241  12.792   6.983
 4875POPC   C4B64030  33.230  13.142   7.274
 4876POPC   NC364031   9.547   7.936   5.591
 4876POPC   PO464032   9.788   8.446   5.216
 4876POPC   GL164033   9.590   8.487   5.647
 4876POPC   GL264034   9.850   8.319   5.813
 4876POPC   C1A64035   9.417   8.395   6.096
 4876POPC   D2A64036   9.438   8.176   6.497
 4876POPC   C3A64037   9.670   8.272   6.867
 4876POPC   C4A64038   9.496   8.354   7.253
 4876POPC   C1B64039   9.898   8.229   6.258
 4876POPC   C2B64040   9.910   7.913   6.562
 4876POPC   C3B64041  10.100   7.919   6.940
 4876POPC   C4B64042  10.340   8.160   7.254
 4877POPC   NC364043   6.350  32.284   5.547
 4877POPC   PO464044   5.726  32.469   5.272
 4877POPC   GL164045   5.847  32.355   5.721
 4877POPC   GL264046   5.558  32.174   5.843
 4877POPC   C1A64047   5.928  32.331   6.194
 4877POPC   D2A64048   6.156  32.296   6.623
 4877POPC   C3A64049   5.966  32.296   7.046
 4877POPC   C4A64050   5.968  31.976   7.378
 4877POPC   C1B64051   5.558  31.996   6.250
 4877POPC   C2B64052   5.622  32.223   6.644
 4877POPC   C3B64053   5.548  32.018   7.054
 4877POPC   C4B64054   5.463  31.748   7.398
 4878POPC   NC364055  43.171  23.325   5.329
 4878POPC   PO464056  43.547  22.763   5.328
 4878POPC   GL164057  43.365  23.014   5.681
 4878POPC   GL264058  43.027  23.039   5.741
 4878POPC   C1A64059  43.330  23.117   6.148
 4878POPC   D2A64060  43.047  23.045   6.520
 4878POPC   C3A64061  43.252  23.029   6.951
 4878POPC   C4A64062  43.548  23.054   7.303
 4878POPC   C1B64063  43.072  22.653   5.974
 4878POPC   C2B64064  42.951  22.520   6.393
 4878POPC   C3B64065  42.911  22.655   6.838
 4878POPC   C4B64066  42.640  22.527   7.176
 4879POPC   NC364067  39.807   3.025   5.447
 4879POPC   PO464068  40.063   2.406   5.487
 4879POPC   GL164069  40.029   2.597   5.919
 4879POPC   GL264070  39.999   2.974   5.900
 4879POPC   C1A64071  39.764   2.659   6.326
 4879POPC   D2A64072  39.775   2.431   6.740
 4879POPC   C3A64073  40.125   2.534   7.039
 4879POPC   C4A64074  40.177   2.767   7.438
 4879POPC   C1B64075  40.152   2.995   6.269
 4879POPC   C2B64076  40.180   2.831   6.633
 4879POPC   C3B64077  40.025   3.035   6.974
 4879POPC   C4B64078  40.211   3.274   7.283
 4880POPC   NC364079  19.220  12.919   5.432
 4880POPC   PO464080  19.415  12.350   5.457
 4880POPC   GL164081  19.081  12.523   5.747
 4880POPC   GL264082  19.286  12.774   5.909
 4880POPC   C1A64083  18.868  12.653   6.156
 4880POPC   D2A64084  18.981  12.913   6.521
 4880POPC   C3A64085  18.911  12.791   6.943
 4880POPC   C4A64086  18.864  12.972   7.368
 4880POPC   C1B64087  19.398  12.672   6.323
 4880POPC   C2B64088  19.400  12.702   6.765
 4880POPC   C3B64089  19.367  12.952   7.133
 4880POPC   C4B64090  19.436  13.071   7.563
 4881POPC   NC364091   7.553   8.497   5.376
 4881POPC   PO464092   7.291   8.006   5.508
 4881POPC   GL164093   7.480   8.252   5.815
 4881POPC   GL264094   7.157   8.442   5.859
 4881POPC   C1A64095   7.449   8.235   6.228
 4881POPC   D2A64096   7.131   8.234   6.462
 4881POPC   C3A64097   7.234   8.379   6.851
 4881POPC   C4A64098   7.486   8.212   7.186
 4881POPC   C1B64099   7.425   8.711   6.077
 4881POPC   C2B64100   7.534   8.667   6.519
 4881POPC   C3B64101   7.693   8.604   6.929
 4881POPC   C4B64102   7.753   8.682   7.352
 4882POPC   NC364103   6.358   3.099   5.393
 4882POPC   PO464104   6.929   2.763   5.484
 4882POPC   GL164105   6.693   2.789   5.869
 4882POPC   GL264106   6.364   2.730   5.762
 4882POPC   C1A64107   6.744   2.629   6.308
 4882POPC   D2A64108   6.978   2.580   6.700
 4882POPC   C3A64109   6.863   2.871   7.044
 4882POPC   C4A64110   6.573   2.833   7.366
 4882POPC   C1B64111   6.249   2.557   6.154
 4882POPC   C2B64112   6.150   2.508   6.585
 4882POPC   C3B64113   6.259   2.627   6.996
 4882POPC   C4B64114   6.124   2.571   7.392
 4883POPC   NC364115  14.562  32.044   5.573
 4883POPC   PO464116  14.147  32.421   5.255
 4883POPC   GL164117  14.240  32.400   5.730
 4883POPC   GL264118  14.268  32.073   5.980
 4883POPC   C1A64119  14.507  32.503   6.084
 4883POPC   D2A64120  14.444  32.652   6.475
 4883POPC   C3A64121  14.515  32.337   6.817
 4883POPC   C4A64122  14.199  32.195   7.096
 4883POPC   C1B64123  14.435  32.058   6.386
 4883POPC   C2B64124  14.739  31.886   6.698
 4883POPC   C3B64125  14.547  31.820   7.086
 4883POPC   C4B64126  14.505  32.033   7.475
 4884POPC   NC364127  30.768  15.745   5.452
 4884POPC   PO464128  30.333  16.280   5.563
 4884POPC   GL164129  30.623  16.073   5.842
 4884POPC   GL264130  31.011  16.051   5.858
 4884POPC   C1A64131  30.665  15.980   6.280
 4884POPC   D2A64132  30.821  15.770   6.662
 4884POPC   C3A64133  30.753  15.997   7.051
 4884POPC   C4A64134  30.695  16.165   7.476
 4884POPC   C1B64135  31.151  16.217   6.299
 4884POPC   C2B64136  31.144  16.238   6.781
 4884POPC   C3B64137  31.119  16.332   7.242
 4884POPC   C4B64138  31.019  16.525   7.643
 4885POPC   NC364139  36.468   6.667   5.504
 4885POPC   PO464140  35.960   6.981   5.500
 4885POPC   GL164141  36.179   6.922   5.892
 4885POPC   GL264142  36.417   6.630   6.012
 4885POPC   C1A64143  35.958   6.688   6.199
 4885POPC   D2A64144  36.132   6.530   6.593
 4885POPC   C3A64145  35.879   6.604   6.933
 4885POPC   C4A64146  35.884   6.466   7.325
 4885POPC   C1B64147  36.619   6.983   6.212
 4885POPC   C2B64148  36.491   7.147   6.617
 4885POPC   C3B64149  36.285   6.940   6.943
 4885POPC   C4B64150  36.373   6.535   7.084
 4886POPC   NC364151  40.548   0.188   5.523
 4886POPC   PO464152  41.244   0.205   5.575
 4886POPC   GL164153  40.990   0.549   5.809
 4886POPC   GL264154  40.598   0.552   5.908
 4886POPC   C1A64155  40.979   0.727   6.213
 4886POPC   D2A64156  40.718   0.629   6.563
 4886POPC   C3A64157  40.841   0.571   6.976
 4886POPC   C4A64158  40.809   0.662   7.423
 4886POPC   C1B64159  40.700   0.225   6.245
 4886POPC   C2B64160  40.562   0.101   6.702
 4886POPC   C3B64161  40.331  44.916   7.099
 4886POPC   C4B64162  40.356   0.031   7.558
 4887POPC   NC364163  21.515  32.710   5.537
 4887POPC   PO464164  21.565  32.040   5.433
 4887POPC   GL164165  21.723  32.280   5.765
 4887POPC   GL264166  21.913  32.020   5.876
 4887POPC   C1A64167  21.621  32.494   6.173
 4887POPC   D2A64168  21.489  32.337   6.584
 4887POPC   C3A64169  21.656  32.463   7.002
 4887POPC   C4A64170  21.335  32.451   7.319
 4887POPC   C1B64171  21.611  31.943   6.212
 4887POPC   C2B64172  21.569  31.842   6.682
 4887POPC   C3B64173  21.519  31.981   7.161
 4887POPC   C4B64174  21.233  32.003   7.545
 4888POPC   NC364175  25.949  44.464   5.181
 4888POPC   PO464176  26.339  44.843   5.539
 4888POPC   GL164177  26.084  44.693   5.846
 4888POPC   GL264178  25.897   0.013   5.819
 4888POPC   C1A64179  26.213  44.661   6.286
 4888POPC   D2A64180  26.357  44.879   6.661
 4888POPC   C3A64181  26.305  44.612   6.988
 4888POPC   C4A64182  25.939  44.431   7.105
 4888POPC   C1B64183  25.916   0.104   6.273
 4888POPC   C2B64184  25.927   0.199   6.726
 4888POPC   C3B64185  25.917  44.950   7.076
 4888POPC   C4B64186  26.077  44.974   7.476
 4889POPC   NC364187  35.980  32.574   5.394
 4889POPC   PO464188  36.264  31.932   5.411
 4889POPC   GL164189  36.154  32.229   5.756
 4889POPC   GL264190  36.435  32.420   5.910
 4889POPC   C1A64191  36.003  32.319   6.177
 4889POPC   D2A64192  35.656  32.262   6.419
 4889POPC   C3A64193  35.697  32.399   6.839
 4889POPC   C4A64194  35.828  32.138   7.129
 4889POPC   C1B64195  36.473  32.342   6.349
 4889POPC   C2B64196  36.243  32.273   6.754
 4889POPC   C3B64197  36.352  32.273   7.211
 4889POPC   C4B64198  36.474  32.373   7.705
 4890POPC   NC364199  11.842  21.070   5.468
 4890POPC   PO464200  12.262  20.469   5.457
 4890POPC   GL164201  12.212  20.745   5.795
 4890POPC   GL264202  12.503  20.949   5.828
 4890POPC   C1A64203  11.968  20.744   6.199
 4890POPC   D2A64204  11.932  20.864   6.648
 4890POPC   C3A64205  11.790  20.545   6.948
 4890POPC   C4A64206  12.033  20.359   7.283
 4890POPC   C1B64207  12.463  20.899   6.277
 4890POPC   C2B64208  12.362  20.593   6.586
 4890POPC   C3B64209  12.282  20.671   6.982
 4890POPC   C4B64210  12.454  20.842   7.308
 4891POPC   NC364211  24.267  26.453   5.452
 4891POPC   PO464212  24.140  25.841   5.520
 4891POPC   GL164213  24.365  26.092   5.841
 4891POPC   GL264214  24.147  26.363   5.954
 4891POPC   C1A64215  24.526  26.131   6.272
 4891POPC   D2A64216  24.742  25.981   6.608
 4891POPC   C3A64217  24.578  25.978   7.025
 4891POPC   C4A64218  24.664  25.691   7.362
 4891POPC   C1B64219  24.035  26.036   6.267
 4891POPC   C2B64220  24.194  26.011   6.692
 4891POPC   C3B64221  24.043  26.059   7.123
 4891POPC   C4B64222  23.900  26.062   7.577
 4892POPC   NC364223  10.157  19.644   5.435
 4892POPC   PO464224  10.753  20.033   5.372
 4892POPC   GL164225  10.605  19.817   5.728
 4892POPC   GL264226  10.824  19.560   5.908
 4892POPC   C1A64227  10.561  19.921   6.150
 4892POPC   D2A64228  10.736  20.113   6.497
 4892POPC   C3A64229  10.535  19.913   6.837
 4892POPC   C4A64230  10.510  20.007   7.249
 4892POPC   C1B64231  10.916  19.631   6.367
 4892POPC   C2B64232  10.737  19.418   6.734
 4892POPC   C3B64233  10.612  19.462   7.161
 4892POPC   C4B64234  10.177  19.597   7.232
 4893POPC   NC364235  13.882   7.988   5.210
 4893POPC   PO464236  13.344   8.358   5.291
 4893POPC   GL164237  13.435   8.181   5.699
 4893POPC   GL264238  13.778   8.070   5.717
 4893POPC   C1A64239  13.539   8.280   6.143
 4893POPC   D2A64240  13.398   8.193   6.563
 4893POPC   C3A64241  13.414   8.456   6.923
 4893POPC   C4A64242  13.629   8.417   7.299
 4893POPC   C1B64243  13.787   7.804   6.100
 4893POPC   C2B64244  13.737   7.810   6.549
 4893POPC   C3B64245  13.784   8.007   6.966
 4893POPC   C4B64246  13.948   7.729   7.320
 4894POPC   NC364247  22.516   8.589   5.470
 4894POPC   PO464248  22.215   9.194   5.418
 4894POPC   GL164249  22.025   8.916   5.779
 4894POPC   GL264250  22.230   8.645   5.931
 4894POPC   C1A64251  21.814   8.884   6.193
 4894POPC   D2A64252  21.904   9.054   6.598
 4894POPC   C3A64253  22.024   8.788   6.891
 4894POPC   C4A64254  22.143   8.908   7.262
 4894POPC   C1B64255  22.318   8.987   6.267
 4894POPC   C2B64256  22.403   9.186   6.716
 4894POPC   C3B64257  22.571   9.184   7.190
 4894POPC   C4B64258  22.629   9.385   7.607
 4895POPC   NC364259  32.028   5.143   5.224
 4895POPC   PO464260  32.549   4.751   5.260
 4895POPC   GL164261  32.486   5.020   5.628
 4895POPC   GL264262  32.124   5.094   5.726
 4895POPC   C1A64263  32.492   5.140   6.082
 4895POPC   D2A64264  32.296   5.136   6.474
 4895POPC   C3A64265  32.514   5.084   6.859
 4895POPC   C4A64266  32.332   5.161   7.259
 4895POPC   C1B64267  31.994   4.885   6.118
 4895POPC   C2B64268  32.094   4.666   6.532
 4895POPC   C3B64269  32.083   4.808   6.967
 4895POPC   C4B64270  31.893   4.813   7.380
 4896POPC   NC364271  18.039  30.821   5.466
 4896POPC   PO464272  18.647  30.523   5.635
 4896POPC   GL164273  18.192  30.533   5.860
 4896POPC   GL264274  18.022  30.886   5.967
 4896POPC   C1A64275  17.901  30.468   6.222
 4896POPC   D2A64276  18.008  30.656   6.621
 4896POPC   C3A64277  18.221  30.492   6.981
 4896POPC   C4A64278  18.195  30.483   7.412
 4896POPC   C1B64279  18.410  30.943   6.185
 4896POPC   C2B64280  18.524  31.025   6.608
 4896POPC   C3B64281  18.377  30.981   7.011
 4896POPC   C4B64282  18.590  30.776   7.326
 4897POPC   NC364283  14.859  23.090   5.058
 4897POPC   PO464284  15.363  23.193   5.451
 4897POPC   GL164285  15.196  23.038   5.844
 4897POPC   GL264286  15.017  22.721   5.876
 4897POPC   C1A64287  15.119  23.260   6.222
 4897POPC   D2A64288  15.350  23.256   6.586
 4897POPC   C3A64289  15.122  23.252   6.954
 4897POPC   C4A64290  15.127  23.091   7.345
 4897POPC   C1B64291  15.172  22.752   6.275
 4897POPC   C2B64292  15.102  22.818   6.678
 4897POPC   C3B64293  15.328  22.729   7.044
 4897POPC   C4B64294  15.489  22.771   7.470
 4898POPC   NC364295   5.541  16.660   5.440
 4898POPC   PO464296   6.169  16.988   5.387
 4898POPC   GL164297   5.930  16.834   5.773
 4898POPC   GL264298   5.586  17.022   5.806
 4898POPC   C1A64299   5.879  16.803   6.246
 4898POPC   D2A64300   6.066  16.596   6.628
 4898POPC   C3A64301   6.106  16.737   7.044
 4898POPC   C4A64302   5.848  16.730   7.399
 4898POPC   C1B64303   5.610  17.254   6.200
 4898POPC   C2B64304   5.501  17.316   6.634
 4898POPC   C3B64305   5.736  17.104   6.960
 4898POPC   C4B64306   6.036  17.187   7.287
 4899POPC   NC364307  17.702  29.280   5.457
 4899POPC   PO464308  17.073  29.068   5.321
 4899POPC   GL164309  17.345  29.025   5.725
 4899POPC   GL264310  17.474  29.343   5.910
 4899POPC   C1A64311  17.512  28.879   6.150
 4899POPC   D2A64312  17.450  29.113   6.525
 4899POPC   C3A64313  17.629  28.988   6.920
 4899POPC   C4A64314  17.663  29.287   7.251
 4899POPC   C1B64315  17.196  29.498   6.232
 4899POPC   C2B64316  17.017  29.376   6.641
 4899POPC   C3B64317  17.189  29.437   7.067
 4899POPC   C4B64318  17.218  29.392   7.531
 4900POPC   NC364319  28.866   6.536   5.655
 4900POPC   PO464320  28.318   6.765   5.245
 4900POPC   GL164321  28.424   6.819   5.711
 4900POPC   GL264322  28.196   6.572   5.888
 4900POPC   C1A64323  28.542   6.783   6.194
 4900POPC   D2A64324  28.382   6.570   6.599
 4900POPC   C3A64325  28.572   6.656   7.029
 4900POPC   C4A64326  28.410   6.636   7.461
 4900POPC   C1B64327  28.164   6.238   6.198
 4900POPC   C2B64328  28.111   6.119   6.624
 4900POPC   C3B64329  28.118   6.327   7.037
 4900POPC   C4B64330  27.982   6.125   7.413
 4901POPC   NC364331  27.612   5.515   5.498
 4901POPC   PO464332  27.924   4.949   5.437
 4901POPC   GL164333  27.681   5.070   5.779
 4901POPC   GL264334  28.006   5.216   5.899
 4901POPC   C1A64335  27.357   4.982   6.117
 4901POPC   D2A64336  27.398   4.762   6.526
 4901POPC   C3A64337  27.288   4.976   6.909
 4901POPC   C4A64338  27.461   4.842   7.253
 4901POPC   C1B64339  27.709   5.368   6.191
 4901POPC   C2B64340  27.602   5.222   6.581
 4901POPC   C3B64341  27.787   5.171   6.993
 4901POPC   C4B64342  27.918   5.507   7.242
 4902POPC   NC364343  23.473   6.250   5.615
 4902POPC   PO464344  23.899   6.834   5.472
 4902POPC   GL164345  23.916   6.992   5.883
 4902POPC   GL264346  23.805   6.652   5.978
 4902POPC   C1A64347  24.134   6.959   6.299
 4902POPC   D2A64348  24.188   6.615   6.611
 4902POPC   C3A64349  23.988   6.678   7.029
 4902POPC   C4A64350  23.718   7.043   7.168
 4902POPC   C1B64351  23.595   6.882   6.305
 4902POPC   C2B64352  23.543   6.768   6.749
 4902POPC   C3B64353  23.477   6.609   7.170
 4902POPC   C4B64354  23.790   6.424   7.480
 4903POPC   NC364355  10.046  13.276   5.411
 4903POPC   PO464356   9.796  12.669   5.500
 4903POPC   GL164357   9.877  12.918   5.853
 4903POPC   GL264358   9.612  12.716   6.003
 4903POPC   C1A64359  10.004  12.876   6.298
 4903POPC   D2A64360   9.690  12.767   6.633
 4903POPC   C3A64361   9.824  12.866   7.069
 4903POPC   C4A64362   9.788  12.645   7.450
 4903POPC   C1B64363   9.562  13.116   6.242
 4903POPC   C2B64364   9.421  13.227   6.638
 4903POPC   C3B64365   9.275  12.948   6.925
 4903POPC   C4B64366   9.372  12.876   7.333
 4904POPC   NC364367  14.450   3.463   5.241
 4904POPC   PO464368  14.211   3.193   5.800
 4904POPC   GL164369  14.349   3.589   5.804
 4904POPC   GL264370  14.648   3.501   5.689
 4904POPC   C1A64371  14.413   3.826   6.184
 4904POPC   D2A64372  14.286   3.882   6.595
 4904POPC   C3A64373  14.555   3.823   6.938
 4904POPC   C4A64374  14.282   3.620   7.176
 4904POPC   C1B64375  14.759   3.416   6.121
 4904POPC   C2B64376  14.735   3.554   6.533
 4904POPC   C3B64377  14.572   3.308   6.877
 4904POPC   C4B64378  14.670   3.317   7.315
 4905POPC   NC364379  24.074  18.368   5.420
 4905POPC   PO464380  23.655  17.966   5.478
 4905POPC   GL164381  23.943  18.084   5.817
 4905POPC   GL264382  23.775  18.376   5.862
 4905POPC   C1A64383  24.152  18.253   6.205
 4905POPC   D2A64384  24.026  18.145   6.666
 4905POPC   C3A64385  24.082  18.327   7.113
 4905POPC   C4A64386  23.852  18.470   7.513
 4905POPC   C1B64387  23.654  18.219   6.275
 4905POPC   C2B64388  23.529  18.347   6.690
 4905POPC   C3B64389  23.557  18.241   7.128
 4905POPC   C4B64390  23.321  18.415   7.465
 4906POPC   NC364391   8.891  28.204   5.319
 4906POPC   PO464392   8.969  28.817   5.419
 4906POPC   GL164393   9.157  28.644   5.803
 4906POPC   GL264394   9.285  28.397   5.629
 4906POPC   C1A64395   9.011  28.494   6.242
 4906POPC   D2A64396   8.891  28.341   6.657
 4906POPC   C3A64397   8.924  28.608   7.029
 4906POPC   C4A64398   9.040  28.461   7.441
 4906POPC   C1B64399   9.322  28.142   6.031
 4906POPC   C2B64400   9.355  28.127   6.513
 4906POPC   C3B64401   9.258  28.161   7.000
 4906POPC   C4B64402   9.324  28.027   7.463
 4907POPC   NC364403  19.887   4.870   5.490
 4907POPC   PO464404  19.593   5.472   5.469
 4907POPC   GL164405  19.769   5.269   5.811
 4907POPC   GL264406  19.455   5.075   5.786
 4907POPC   C1A64407  19.870   4.948   6.151
 4907POPC   D2A64408  19.761   4.728   6.537
 4907POPC   C3A64409  19.863   4.993   6.894
 4907POPC   C4A64410  20.022   4.843   7.277
 4907POPC   C1B64411  19.362   5.035   6.196
 4907POPC   C2B64412  19.505   5.187   6.568
 4907POPC   C3B64413  19.360   5.050   6.939
 4907POPC   C4B64414  19.540   5.093   7.301
 4908POPC   NC364415  38.297  30.216   5.297
 4908POPC   PO464416  38.883  29.837   5.235
 4908POPC   GL164417  38.703  30.084   5.671
 4908POPC   GL264418  38.337  30.039   5.760
 4908POPC   C1A64419  38.614  29.905   6.153
 4908POPC   D2A64420  38.424  29.832   6.560
 4908POPC   C3A64421  38.642  29.966   6.918
 4908POPC   C4A64422  38.696  29.661   7.225
 4908POPC   C1B64423  38.124  30.078   6.155
 4908POPC   C2B64424  38.100  30.298   6.541
 4908POPC   C3B64425  38.140  30.207   6.965
 4908POPC   C4B64426  38.162  29.778   7.090
 4909POPC   NC364427  39.020   3.634   5.345
 4909POPC   PO464428  39.465   3.216   5.666
 4909POPC   GL164429  39.183   3.409   5.889
 4909POPC   GL264430  39.188   3.765   5.840
 4909POPC   C1A64431  39.131   3.308   6.327
 4909POPC   D2A64432  39.090   3.144   6.749
 4909POPC   C3A64433  39.370   3.310   7.065
 4909POPC   C4A64434  39.703   3.244   7.323
 4909POPC   C1B64435  39.452   3.719   6.211
 4909POPC   C2B64436  39.427   3.585   6.648
 4909POPC   C3B64437  39.417   3.828   7.053
 4909POPC   C4B64438  39.218   4.093   7.405
 4910POPC   NC364439  28.270  16.166   5.415
 4910POPC   PO464440  28.298  15.461   5.465
 4910POPC   GL164441  28.457  15.822   5.760
 4910POPC   GL264442  28.225  16.034   5.913
 4910POPC   C1A64443  28.585  15.956   6.230
 4910POPC   D2A64444  28.276  16.037   6.547
 4910POPC   C3A64445  28.443  15.927   6.940
 4910POPC   C4A64446  28.170  15.782   7.288
 4910POPC   C1B64447  28.275  16.410   6.180
 4910POPC   C2B64448  28.131  16.537   6.607
 4910POPC   C3B64449  28.047  16.249   6.972
 4910POPC   C4B64450  27.826  16.213   7.336
 4911POPC   NC364451   7.077  23.219   5.421
 4911POPC   PO464452   7.578  22.745   5.432
 4911POPC   GL164453   7.506  22.715   5.847
 4911POPC   GL264454   7.412  23.070   5.799
 4911POPC   C1A64455   7.509  22.778   6.314
 4911POPC   D2A64456   7.370  22.691   6.746
 4911POPC   C3A64457   7.554  23.009   7.037
 4911POPC   C4A64458   7.895  23.327   7.086
 4911POPC   C1B64459   7.331  23.251   6.188
 4911POPC   C2B64460   7.274  23.170   6.612
 4911POPC   C3B64461   6.936  23.146   6.900
 4911POPC   C4B64462   6.964  23.447   7.226
 4912POPC   NC364463   8.662   1.816   4.977
 4912POPC   PO464464   8.085   2.093   5.323
 4912POPC   GL164465   8.280   2.049   5.705
 4912POPC   GL264466   8.251   1.708   5.720
 4912POPC   C1A64467   8.295   1.949   6.169
 4912POPC   D2A64468   7.951   2.023   6.462
 4912POPC   C3A64469   8.046   1.915   6.873
 4912POPC   C4A64470   7.963   2.162   7.240
 4912POPC   C1B64471   8.423   1.406   6.052
 4912POPC   C2B64472   8.533   1.357   6.499
 4912POPC   C3B64473   8.441   1.573   6.907
 4912POPC   C4B64474   8.492   1.965   7.143
 4913POPC   NC364475  44.284  24.975   5.461
 4913POPC   PO464476  44.500  25.600   5.347
 4913POPC   GL164477  44.527  25.367   5.743
 4913POPC   GL264478  44.859  25.213   5.801
 4913POPC   C1A64479  44.623  25.468   6.188
 4913POPC   D2A64480  44.800  25.367   6.563
 4913POPC   C3A64481  44.570  25.437   6.913
 4913POPC   C4A64482  44.838  25.636   7.143
 4913POPC   C1B64483  44.650  24.967   6.142
 4913POPC   C2B64484  44.491  24.973   6.586
 4913POPC   C3B64485  44.706  24.968   6.988
 4913POPC   C4B64486  44.757  25.168   7.365
 4914POPC   NC364487  42.974   8.482   5.435
 4914POPC   PO464488  43.428   7.955   5.461
 4914POPC   GL164489  43.084   7.904   5.808
 4914POPC   GL264490  42.964   8.188   5.847
 4914POPC   C1A64491  42.910   7.837   6.248
 4914POPC   D2A64492  43.160   7.959   6.606
 4914POPC   C3A64493  43.052   7.989   7.027
 4914POPC   C4A64494  43.394   7.913   7.304
 4914POPC   C1B64495  43.214   8.279   6.212
 4914POPC   C2B64496  43.296   8.455   6.656
 4914POPC   C3B64497  43.385   8.389   7.104
 4914POPC   C4B64498  43.633   8.310   7.495
 4915POPC   NC364499  43.988  12.902   5.454
 4915POPC   PO464500  43.685  12.439   5.340
 4915POPC   GL164501  43.598  12.401   5.790
 4915POPC   GL264502  43.546  12.065   5.888
 4915POPC   C1A64503  43.839  12.345   6.207
 4915POPC   D2A64504  43.997  12.097   6.583
 4915POPC   C3A64505  44.002  12.216   7.036
 4915POPC   C4A64506  44.274  12.201   7.393
 4915POPC   C1B64507  43.569  11.932   6.338
 4915POPC   C2B64508  43.673  11.749   6.751
 4915POPC   C3B64509  44.024  11.716   7.050
 4915POPC   C4B64510  44.050  11.749   7.483
 4916POPC   NC364511  22.307  41.195   5.391
 4916POPC   PO464512  22.403  41.790   5.397
 4916POPC   GL164513  22.286  41.826   5.836
 4916POPC   GL264514  21.998  41.648   5.903
 4916POPC   C1A64515  22.332  41.752   6.303
 4916POPC   D2A64516  22.527  41.791   6.737
 4916POPC   C3A64517  22.414  41.596   7.130
 4916POPC   C4A64518  22.288  41.641   7.565
 4916POPC   C1B64519  21.802  41.604   6.340
 4916POPC   C2B64520  21.731  41.645   6.807
 4916POPC   C3B64521  21.914  41.498   7.212
 4916POPC   C4B64522  21.803  41.521   7.706
 4917POPC   NC364523  37.491  22.131   5.367
 4917POPC   PO464524  38.067  22.396   5.177
 4917POPC   GL164525  37.892  22.088   5.656
 4917POPC   GL264526  37.813  21.801   5.920
 4917POPC   C1A64527  37.822  22.243   6.143
 4917POPC   D2A64528  37.638  22.038   6.524
 4917POPC   C3A64529  37.642  22.270   6.946
 4917POPC   C4A64530  37.383  22.417   7.304
 4917POPC   C1B64531  37.393  21.885   6.061
 4917POPC   C2B64532  37.195  21.743   6.448
 4917POPC   C3B64533  37.249  21.686   6.901
 4917POPC   C4B64534  37.244  21.735   7.359
 4918POPC   NC364535  41.903  32.244   5.644
 4918POPC   PO464536  41.237  32.305   5.431
 4918POPC   GL164537  41.450  32.376   5.826
 4918POPC   GL264538  41.620  32.699   5.791
 4918POPC   C1A64539  41.560  32.206   6.241
 4918POPC   D2A64540  41.455  31.903   6.545
 4918POPC   C3A64541  41.553  31.992   6.942
 4918POPC   C4A64542  41.496  32.352   7.136
 4918POPC   C1B64543  41.746  32.677   6.213
 4918POPC   C2B64544  41.633  32.530   6.642
 4918POPC   C3B64545  41.739  32.766   7.000
 4918POPC   C4B64546  41.840  32.602   7.413
 4919POPC   NC364547  43.100  28.471   5.423
 4919POPC   PO464548  42.774  27.812   5.553
 4919POPC   GL164549  42.980  28.108   5.811
 4919POPC   GL264550  43.307  28.178   5.881
 4919POPC   C1A64551  42.912  28.393   6.154
 4919POPC   D2A64552  43.103  28.367   6.566
 4919POPC   C3A64553  42.929  28.581   6.938
 4919POPC   C4A64554  42.966  28.503   7.394
 4919POPC   C1B64555  43.557  28.029   6.223
 4919POPC   C2B64556  43.518  28.088   6.658
 4919POPC   C3B64557  43.325  28.257   7.035
 4919POPC   C4B64558  43.521  28.486   7.364
 4920POPC   NC364559  36.497  22.160   5.441
 4920POPC   PO464560  36.167  21.747   5.133
 4920POPC   GL164561  36.128  22.017   5.739
 4920POPC   GL264562  35.813  22.200   5.806
 4920POPC   C1A64563  36.141  22.129   6.196
 4920POPC   D2A64564  36.269  21.992   6.618
 4920POPC   C3A64565  36.014  22.165   6.950
 4920POPC   C4A64566  36.180  22.394   7.304
 4920POPC   C1B64567  35.667  22.392   6.172
 4920POPC   C2B64568  35.723  22.410   6.586
 4920POPC   C3B64569  35.640  22.605   6.954
 4920POPC   C4B64570  35.685  22.374   7.305
 4921POPC   NC364571  19.629  34.596   5.523
 4921POPC   PO464572  20.312  34.726   5.457
 4921POPC   GL164573  20.095  34.484   5.845
 4921POPC   GL264574  19.758  34.299   5.936
 4921POPC   C1A64575  20.054  34.471   6.314
 4921POPC   D2A64576  20.184  34.698   6.652
 4921POPC   C3A64577  20.016  34.607   7.022
 4921POPC   C4A64578  20.004  34.341   7.354
 4921POPC   C1B64579  19.568  34.580   6.234
 4921POPC   C2B64580  19.625  34.566   6.678
 4921POPC   C3B64581  19.538  34.830   7.043
 4921POPC   C4B64582  19.416  34.659   7.409
 4922POPC   NC364583  20.574   1.894   5.315
 4922POPC   PO464584  21.240   1.916   5.337
 4922POPC   GL164585  20.949   1.935   5.739
 4922POPC   GL264586  20.577   2.000   5.831
 4922POPC   C1A64587  20.886   1.699   6.151
 4922POPC   D2A64588  20.632   1.756   6.555
 4922POPC   C3A64589  20.883   1.960   6.890
 4922POPC   C4A64590  21.086   1.750   7.228
 4922POPC   C1B64591  20.255   1.936   6.192
 4922POPC   C2B64592  20.112   1.853   6.630
 4922POPC   C3B64593  20.363   2.009   6.987
 4922POPC   C4B64594  20.434   2.454   7.093
 4923POPC   NC364595  31.133   2.576   5.343
 4923POPC   PO464596  30.553   2.703   5.448
 4923POPC   GL164597  30.729   2.664   5.819
 4923POPC   GL264598  30.894   2.343   5.781
 4923POPC   C1A64599  30.784   2.864   6.227
 4923POPC   D2A64600  30.575   3.008   6.610
 4923POPC   C3A64601  30.674   3.131   7.064
 4923POPC   C4A64602  30.890   2.910   7.413
 4923POPC   C1B64603  30.729   2.349   6.220
 4923POPC   C2B64604  30.517   2.512   6.593
 4923POPC   C3B64605  30.701   2.615   6.988
 4923POPC   C4B64606  31.079   2.485   7.174
 4924POPC   NC364607  27.626  34.921   5.186
 4924POPC   PO464608  27.280  34.386   5.262
 4924POPC   GL164609  27.479  34.520   5.676
 4924POPC   GL264610  27.557  34.203   5.816
 4924POPC   C1A64611  27.386  34.692   6.136
 4924POPC   D2A64612  27.676  34.799   6.468
 4924POPC   C3A64613  27.583  34.878   6.925
 4924POPC   C4A64614  27.387  34.696   7.289
 4924POPC   C1B64615  27.775  34.359   6.177
 4924POPC   C2B64616  27.929  34.340   6.589
 4924POPC   C3B64617  27.777  34.413   6.985
 4924POPC   C4B64618  28.069  34.407   7.291
 4925POPC   NC364619  28.057  44.453   5.006
 4925POPC   PO464620  28.542  44.207   5.488
 4925POPC   GL164621  28.273  44.262   5.805
 4925POPC   GL264622  28.093  44.593   5.729
 4925POPC   C1A64623  28.208  44.335   6.209
 4925POPC   D2A64624  28.387  44.569   6.550
 4925POPC   C3A64625  28.437  44.433   6.961
 4925POPC   C4A64626  28.590  44.715   7.278
 4925POPC   C1B64627  28.198  44.837   6.118
 4925POPC   C2B64628  28.117   0.026   6.530
 4925POPC   C3B64629  28.198  44.913   6.964
 4925POPC   C4B64630  28.068  44.638   7.275
 4926POPC   NC364631  16.684   9.369   5.469
 4926POPC   PO464632  16.512   8.703   5.515
 4926POPC   GL164633  16.605   8.990   5.863
 4926POPC   GL264634  16.402   9.308   5.898
 4926POPC   C1A64635  16.870   9.267   6.123
 4926POPC   D2A64636  16.990   9.463   6.502
 4926POPC   C3A64637  17.032   9.212   6.889
 4926POPC   C4A64638  16.982   9.318   7.326
 4926POPC   C1B64639  16.377   9.147   6.323
 4926POPC   C2B64640  16.634   8.941   6.655
 4926POPC   C3B64641  16.676   8.938   7.122
 4926POPC   C4B64642  16.573   8.680   7.470
 4927POPC   NC364643  39.061  24.133   5.519
 4927POPC   PO464644  38.572  24.577   5.358
 4927POPC   GL164645  38.657  24.661   5.757
 4927POPC   GL264646  38.312  24.671   5.824
 4927POPC   C1A64647  38.643  24.489   6.178
 4927POPC   D2A64648  38.429  24.552   6.566
 4927POPC   C3A64649  38.732  24.487   6.871
 4927POPC   C4A64650  38.664  24.479   7.283
 4927POPC   C1B64651  38.124  24.398   6.162
 4927POPC   C2B64652  37.991  24.269   6.617
 4927POPC   C3B64653  38.229  24.292   6.997
 4927POPC   C4B64654  38.279  24.136   7.391
 4928POPC   NC364655  19.552  31.650   5.500
 4928POPC   PO464656  19.759  32.353   5.324
 4928POPC   GL164657  19.830  32.449   5.785
 4928POPC   GL264658  19.520  32.289   5.862
 4928POPC   C1A64659  20.023  32.438   6.247
 4928POPC   D2A64660  20.187  32.223   6.663
 4928POPC   C3A64661  20.027  32.361   7.077
 4928POPC   C4A64662  19.984  32.222   7.551
 4928POPC   C1B64663  19.563  32.224   6.293
 4928POPC   C2B64664  19.661  32.234   6.720
 4928POPC   C3B64665  19.526  32.318   7.130
 4928POPC   C4B64666  19.464  32.375   7.573
 4929POPC   NC364667   0.418   4.674   5.232
 4929POPC   PO464668   0.475   4.015   5.383
 4929POPC   GL164669   0.422   4.238   5.744
 4929POPC   GL264670   0.247   3.928   5.872
 4929POPC   C1A64671   0.425   4.543   6.093
 4929POPC   D2A64672   0.689   4.514   6.484
 4929POPC   C3A64673   0.476   4.590   6.853
 4929POPC   C4A64674   0.563   4.561   7.266
 4929POPC   C1B64675   0.520   4.053   6.228
 4929POPC   C2B64676   0.653   4.004   6.623
 4929POPC   C3B64677   0.662   4.142   7.005
 4929POPC   C4B64678   0.368   4.085   7.334
 4930POPC   NC364679  16.726  11.907   5.411
 4930POPC   PO464680  16.568  12.521   5.291
 4930POPC   GL164681  16.600  12.293   5.739
 4930POPC   GL264682  16.551  11.911   5.884
 4930POPC   C1A64683  16.671  12.290   6.191
 4930POPC   D2A64684  16.769  12.011   6.511
 4930POPC   C3A64685  16.729  12.148   6.924
 4930POPC   C4A64686  16.757  12.053   7.336
 4930POPC   C1B64687  17.019  11.919   6.066
 4930POPC   C2B64688  17.277  11.821   6.461
 4930POPC   C3B64689  17.077  11.761   6.866
 4930POPC   C4B64690  17.030  11.624   7.277
 4931POPC   NC364691   4.806  31.375   5.377
 4931POPC   PO464692   5.454  31.508   5.326
 4931POPC   GL164693   5.131  31.637   5.691
 4931POPC   GL264694   4.908  31.361   5.868
 4931POPC   C1A64695   5.116  31.724   6.154
 4931POPC   D2A64696   5.326  31.484   6.489
 4931POPC   C3A64697   5.286  31.577   6.928
 4931POPC   C4A64698   4.959  31.719   7.190
 4931POPC   C1B64699   4.655  31.484   6.235
 4931POPC   C2B64700   4.762  31.618   6.651
 4931POPC   C3B64701   4.789  31.309   6.942
 4931POPC   C4B64702   4.760  31.124   7.317
 4932POPC   NC364703  14.840   2.615   5.159
 4932POPC   PO464704  15.300   3.014   5.430
 4932POPC   GL164705  15.326   2.830   5.855
 4932POPC   GL264706  15.076   3.068   5.893
 4932POPC   C1A64707  15.169   2.654   6.294
 4932POPC   D2A64708  15.232   2.658   6.753
 4932POPC   C3A64709  14.944   2.515   7.043
 4932POPC   C4A64710  14.914   2.645   7.442
 4932POPC   C1B64711  15.242   3.154   6.273
 4932POPC   C2B64712  14.983   3.100   6.616
 4932POPC   C3B64713  14.993   3.026   7.037
 4932POPC   C4B64714  15.336   3.179   7.177
 4933POPC   NC364715   3.953  29.008   5.421
 4933POPC   PO464716   4.604  29.183   5.499
 4933POPC   GL164717   4.372  29.064   5.893
 4933POPC   GL264718   4.033  29.266   5.978
 4933POPC   C1A64719   4.350  29.091   6.344
 4933POPC   D2A64720   4.511  29.012   6.751
 4933POPC   C3A64721   4.446  29.233   7.159
 4933POPC   C4A64722   4.584  29.375   7.557
 4933POPC   C1B64723   3.855  29.217   6.394
 4933POPC   C2B64724   4.006  28.948   6.720
 4933POPC   C3B64725   4.007  28.938   7.167
 4933POPC   C4B64726   4.246  28.964   7.555
 4934POPC   NC364727  22.413  29.856   5.484
 4934POPC   PO464728  23.014  30.010   5.273
 4934POPC   GL164729  22.862  29.874   5.724
 4934POPC   GL264730  22.625  29.572   5.860
 4934POPC   C1A64731  22.831  30.064   6.157
 4934POPC   D2A64732  22.812  30.392   6.490
 4934POPC   C3A64733  22.900  30.244   6.899
 4934POPC   C4A64734  22.914  29.975   7.225
 4934POPC   C1B64735  22.548  29.641   6.333
 4934POPC   C2B64736  22.541  29.754   6.801
 4934POPC   C3B64737  22.534  29.625   7.289
 4934POPC   C4B64738  22.571  29.327   7.700
 4935POPC   NC364739  11.519  22.950   5.186
 4935POPC   PO464740  11.094  22.453   5.308
 4935POPC   GL164741  11.084  22.859   5.611
 4935POPC   GL264742  11.417  23.062   5.707
 4935POPC   C1A64743  11.006  23.010   6.070
 4935POPC   D2A64744  11.121  22.824   6.491
 4935POPC   C3A64745  11.063  23.004   6.908
 4935POPC   C4A64746  11.036  22.751   7.268
 4935POPC   C1B64747  11.537  22.913   6.145
 4935POPC   C2B64748  11.631  22.938   6.613
 4935POPC   C3B64749  11.539  22.811   7.047
 4935POPC   C4B64750  11.533  22.809   7.497
 4936POPC   NC364751  24.262  27.171   5.372
 4936POPC   PO464752  24.679  26.683   5.483
 4936POPC   GL164753  24.424  26.793   5.867
 4936POPC   GL264754  24.253  27.134   5.880
 4936POPC   C1A64755  24.435  26.631   6.318
 4936POPC   D2A64756  24.466  26.447   6.770
 4936POPC   C3A64757  24.676  26.679   7.128
 4936POPC   C4A64758  24.847  26.756   7.554
 4936POPC   C1B64759  24.381  27.153   6.300
 4936POPC   C2B64760  24.535  26.970   6.689
 4936POPC   C3B64761  24.324  27.026   7.073
 4936POPC   C4B64762  24.425  26.994   7.485
 4937POPC   NC364763   3.407  38.829   5.129
 4937POPC   PO464764   3.343  39.480   5.231
 4937POPC   GL164765   3.405  39.467   5.708
 4937POPC   GL264766   3.752  39.357   5.759
 4937POPC   C1A64767   3.314  39.516   6.167
 4937POPC   D2A64768   3.476  39.398   6.578
 4937POPC   C3A64769   3.348  39.504   6.975
 4937POPC   C4A64770   3.039  39.429   7.282
 4937POPC   C1B64771   3.777  39.234   6.201
 4937POPC   C2B64772   3.940  39.205   6.637
 4937POPC   C3B64773   3.803  39.240   7.069
 4937POPC   C4B64774   3.458  39.133   7.346
 4938POPC   NC364775   1.425  31.965   5.516
 4938POPC   PO464776   1.210  32.630   5.425
 4938POPC   GL164777   1.289  32.415   5.794
 4938POPC   GL264778   1.082  32.110   5.853
 4938POPC   C1A64779   1.142  32.499   6.208
 4938POPC   D2A64780   1.011  32.333   6.599
 4938POPC   C3A64781   1.066  32.645   6.882
 4938POPC   C4A64782   1.128  32.639   7.300
 4938POPC   C1B64783   1.264  31.974   6.269
 4938POPC   C2B64784   1.397  31.973   6.724
 4938POPC   C3B64785   1.315  32.053   7.185
 4938POPC   C4B64786   1.404  31.909   7.630
 4939POPC   NC364787  38.004   2.507   5.472
 4939POPC   PO464788  37.635   3.041   5.269
 4939POPC   GL164789  37.620   2.979   5.725
 4939POPC   GL264790  37.547   2.637   5.763
 4939POPC   C1A64791  37.598   2.913   6.196
 4939POPC   D2A64792  37.749   2.966   6.615
 4939POPC   C3A64793  37.635   2.748   6.989
 4939POPC   C4A64794  37.654   2.958   7.347
 4939POPC   C1B64795  37.766   2.420   6.095
 4939POPC   C2B64796  38.018   2.582   6.375
 4939POPC   C3B64797  38.068   2.583   6.803
 4939POPC   C4B64798  38.093   2.594   7.255
 4940POPC   NC364799  36.169  33.370   5.510
 4940POPC   PO464800  36.486  32.716   5.483
 4940POPC   GL164801  36.173  32.864   5.788
 4940POPC   GL264802  36.105  33.193   5.969
 4940POPC   C1A64803  36.259  32.792   6.223
 4940POPC   D2A64804  36.245  32.994   6.621
 4940POPC   C3A64805  36.158  32.738   6.984
 4940POPC   C4A64806  36.303  32.740   7.394
 4940POPC   C1B64807  35.820  33.218   6.308
 4940POPC   C2B64808  35.880  33.384   6.699
 4940POPC   C3B64809  36.178  33.297   7.021
 4940POPC   C4B64810  35.968  33.126   7.323
 4941POPC   NC364811  44.046  39.259   5.062
 4941POPC   PO464812  43.662  39.571   5.335
 4941POPC   GL164813  43.878  39.392   5.708
 4941POPC   GL264814  43.694  39.089   5.789
 4941POPC   C1A64815  43.990  39.275   6.169
 4941POPC   D2A64816  43.817  39.139   6.607
 4941POPC   C3A64817  43.939  39.416   6.977
 4941POPC   C4A64818  44.059  39.455   7.423
 4941POPC   C1B64819  43.489  39.226   6.183
 4941POPC   C2B64820  43.301  39.189   6.584
 4941POPC   C3B64821  43.476  39.203   7.018
 4941POPC   C4B64822  43.840  38.996   7.251
 4942POPC   NC364823   3.126  32.621   5.408
 4942POPC   PO464824   2.741  33.135   5.309
 4942POPC   GL164825   2.848  32.963   5.684
 4942POPC   GL264826   2.580  32.751   5.769
 4942POPC   C1A64827   2.946  32.883   6.117
 4942POPC   D2A64828   2.785  33.093   6.495
 4942POPC   C3A64829   2.943  33.045   6.889
 4942POPC   C4A64830   2.902  33.089   7.305
 4942POPC   C1B64831   2.427  32.982   6.148
 4942POPC   C2B64832   2.380  32.800   6.593
 4942POPC   C3B64833   2.551  32.729   7.029
 4942POPC   C4B64834   2.473  32.732   7.489
 4943POPC   NC364835  27.151  33.080   5.469
 4943POPC   PO464836  26.560  32.910   5.311
 4943POPC   GL164837  26.722  33.038   5.748
 4943POPC   GL264838  26.936  33.330   5.847
 4943POPC   C1A64839  26.815  32.975   6.217
 4943POPC   D2A64840  27.070  33.057   6.623
 4943POPC   C3A64841  26.845  33.026   6.996
 4943POPC   C4A64842  26.437  33.080   7.167
 4943POPC   C1B64843  27.223  33.335   6.220
 4943POPC   C2B64844  27.323  33.537   6.589
 4943POPC   C3B64845  27.371  33.335   6.985
 4943POPC   C4B64846  27.148  33.195   7.379
 4944POPC   NC364847  38.719  13.339   5.501
 4944POPC   PO464848  38.237  13.716   5.221
 4944POPC   GL164849  38.316  13.537   5.714
 4944POPC   GL264850  38.637  13.600   5.906
 4944POPC   C1A64851  38.265  13.433   6.194
 4944POPC   D2A64852  38.422  13.574   6.612
 4944POPC   C3A64853  38.406  13.326   6.997
 4944POPC   C4A64854  38.329  13.349   7.438
 4944POPC   C1B64855  38.896  13.617   6.238
 4944POPC   C2B64856  38.872  13.847   6.613
 4944POPC   C3B64857  38.851  13.627   6.982
 4944POPC   C4B64858  38.680  13.711   7.372
 4945POPC   NC364859   9.501  27.798   5.141
 4945POPC   PO464860   9.677  27.199   5.399
 4945POPC   GL164861   9.825  27.403   5.801
 4945POPC   GL264862   9.642  27.727   5.845
 4945POPC   C1A64863  10.016  27.643   6.188
 4945POPC   D2A64864   9.965  27.749   6.645
 4945POPC   C3A64865   9.963  27.406   6.976
 4945POPC   C4A64866   9.672  27.180   7.207
 4945POPC   C1B64867   9.528  27.682   6.309
 4945POPC   C2B64868   9.464  27.677   6.781
 4945POPC   C3B64869   9.657  27.758   7.173
 4945POPC   C4B64870  10.077  27.898   7.163
 4946POPC   NC364871  40.908   9.090   5.228
 4946POPC   PO464872  40.360   8.788   5.533
 4946POPC   GL164873  40.582   9.084   5.810
 4946POPC   GL264874  40.952   9.080   5.798
 4946POPC   C1A64875  40.638   9.074   6.276
 4946POPC   D2A64876  40.725   8.861   6.713
 4946POPC   C3A64877  40.439   8.981   7.100
 4946POPC   C4A64878  40.413   8.951   7.583
 4946POPC   C1B64879  41.063   8.790   6.170
 4946POPC   C2B64880  41.249   8.565   6.539
 4946POPC   C3B64881  41.242   8.760   6.950
 4946POPC   C4B64882  40.977   9.089   7.158
 4947POPC   NC364883  17.535  30.285   5.529
 4947POPC   PO464884  17.390  29.641   5.476
 4947POPC   GL164885  17.422  29.877   5.851
 4947POPC   GL264886  17.186  30.154   5.900
 4947POPC   C1A64887  17.593  29.866   6.258
 4947POPC   D2A64888  17.442  29.689   6.654
 4947POPC   C3A64889  17.361  29.951   7.007
 4947POPC   C4A64890  17.502  29.766   7.378
 4947POPC   C1B64891  17.382  30.355   6.259
 4947POPC   C2B64892  17.617  30.245   6.612
 4947POPC   C3B64893  17.709  30.370   7.001
 4947POPC   C4B64894  17.830  30.150   7.337
 4948POPC   NC364895  28.621   3.234   5.430
 4948POPC   PO464896  28.174   3.633   5.059
 4948POPC   GL164897  28.003   3.477   5.528
 4948POPC   GL264898  27.960   3.141   5.742
 4948POPC   C1A64899  28.143   3.601   5.991
 4948POPC   D2A64900  28.283   3.465   6.430
 4948POPC   C3A64901  28.450   3.743   6.804
 4948POPC   C4A64902  28.378   3.853   7.254
 4948POPC   C1B64903  27.838   3.254   6.208
 4948POPC   C2B64904  27.845   3.316   6.658
 4948POPC   C3B64905  28.185   3.323   6.933
 4948POPC   C4B64906  28.522   3.371   7.194
 4949POPC   NC364907  44.700  44.003   5.480
 4949POPC   PO464908  44.372  43.385   5.447
 4949POPC   GL164909  44.551  43.577   5.828
 4949POPC   GL264910  44.485  43.936   5.922
 4949POPC   C1A64911  44.804  43.668   6.200
 4949POPC   D2A64912  44.883  43.887   6.581
 4949POPC   C3A64913  44.725  43.699   6.934
 4949POPC   C4A64914  44.530  43.490   7.280
 4949POPC   C1B64915  44.516  44.281   6.197
 4949POPC   C2B64916  44.415  44.152   6.583
 4949POPC   C3B64917  44.529  44.167   6.961
 4949POPC   C4B64918  44.620  43.992   7.333
 4950POPC   NC364919  27.179  18.727   5.583
 4950POPC   PO464920  27.625  18.200   5.319
 4950POPC   GL164921  27.601  18.338   5.768
 4950POPC   GL264922  27.580  18.026   5.861
 4950POPC   C1A64923  27.892  18.284   6.163
 4950POPC   D2A64924  27.838  18.049   6.587
 4950POPC   C3A64925  27.804  18.251   6.958
 4950POPC   C4A64926  27.595  18.479   7.254
 4950POPC   C1B64927  27.447  18.084   6.253
 4950POPC   C2B64928  27.194  18.322   6.510
 4950POPC   C3B64929  27.216  18.328   6.934
 4950POPC   C4B64930  27.372  18.000   7.219
 4951POPC   NC364931  40.511  41.563   5.083
 4951POPC   PO464932  41.150  41.426   5.433
 4951POPC   GL164933  41.032  41.387   5.872
 4951POPC   GL264934  40.927  41.743   5.938
 4951POPC   C1A64935  40.846  41.387   6.295
 4951POPC   D2A64936  40.693  41.626   6.643
 4951POPC   C3A64937  40.595  41.360   6.962
 4951POPC   C4A64938  40.407  41.398   7.341
 4951POPC   C1B64939  40.542  41.886   6.220
 4951POPC   C2B64940  40.277  41.952   6.613
 4951POPC   C3B64941  40.439  41.852   7.057
 4951POPC   C4B64942  40.887  41.788   7.099
 4952POPC   NC364943   3.974  35.611   5.394
 4952POPC   PO464944   4.570  35.190   5.352
 4952POPC   GL164945   4.526  35.348   5.772
 4952POPC   GL264946   4.179  35.306   5.757
 4952POPC   C1A64947   4.560  35.562   6.181
 4952POPC   D2A64948   4.382  35.552   6.606
 4952POPC   C3A64949   4.470  35.187   6.845
 4952POPC   C4A64950   4.832  35.271   7.049
 4952POPC   C1B64951   4.059  35.447   6.156
 4952POPC   C2B64952   3.867  35.505   6.588
 4952POPC   C3B64953   3.991  35.382   7.033
 4952POPC   C4B64954   4.034  35.483   7.508
 4953POPC   NC364955  13.714  24.126   5.414
 4953POPC   PO464956  13.861  23.467   5.348
 4953POPC   GL164957  13.877  23.732   5.719
 4953POPC   GL264958  13.546  23.677   5.700
 4953POPC   C1A64959  13.733  23.811   6.166
 4953POPC   D2A64960  13.510  23.758   6.554
 4953POPC   C3A64961  13.661  23.831   6.968
 4953POPC   C4A64962  13.468  23.938   7.367
 4953POPC   C1B64963  13.375  23.462   6.063
 4953POPC   C2B64964  13.292  23.304   6.456
 4953POPC   C3B64965  13.219  23.267   6.856
 4953POPC   C4B64966  13.142  23.561   7.176
 4954POPC   NC364967  17.133   3.672   5.374
 4954POPC   PO464968  17.763   3.409   5.370
 4954POPC   GL164969  17.794   3.468   5.860
 4954POPC   GL264970  17.442   3.597   5.962
 4954POPC   C1A64971  17.773   3.470   6.348
 4954POPC   D2A64972  17.526   3.609   6.729
 4954POPC   C3A64973  17.624   3.450   7.152
 4954POPC   C4A64974  17.285   3.187   7.287
 4954POPC   C1B64975  17.281   3.882   6.319
 4954POPC   C2B64976  17.168   4.017   6.757
 4954POPC   C3B64977  17.238   3.813   7.177
 4954POPC   C4B64978  17.098   3.831   7.636
 4955POPC   NC364979  35.631   7.310   5.591
 4955POPC   PO464980  35.012   7.235   5.303
 4955POPC   GL164981  35.126   7.420   5.744
 4955POPC   GL264982  34.984   7.222   6.005
 4955POPC   C1A64983  35.391   7.510   6.176
 4955POPC   D2A64984  35.534   7.295   6.562
 4955POPC   C3A64985  35.374   7.383   7.005
 4955POPC   C4A64986  35.059   7.615   7.223
 4955POPC   C1B64987  35.022   7.289   6.454
 4955POPC   C2B64988  34.975   7.090   6.835
 4955POPC   C3B64989  35.028   7.075   7.258
 4955POPC   C4B64990  35.209   6.945   7.628
 4956POPC   NC364991   1.952  11.040   5.032
 4956POPC   PO464992   1.761  11.242   5.406
 4956POPC   GL164993   1.944  11.271   5.851
 4956POPC   GL264994   2.286  11.121   5.869
 4956POPC   C1A64995   1.879  11.443   6.318
 4956POPC   D2A64996   1.679  11.485   6.721
 4956POPC   C3A64997   1.917  11.428   7.098
 4956POPC   C4A64998   1.940  11.596   7.525
 4956POPC   C1B64999   2.099  10.994   6.271
 4956POPC   C2B65000   2.004  11.080   6.714
 4956POPC   C3B65001   2.068  10.935   7.153
 4956POPC   C4B65002   2.181  10.939   7.596
 4957POPC   NC365003  38.391  23.373   5.217
 4957POPC   PO465004  38.792  23.748   5.558
 4957POPC   GL165005  38.416  23.692   5.820
 4957POPC   GL265006  38.270  23.368   5.733
 4957POPC   C1A65007  38.273  23.908   6.215
 4957POPC   D2A65008  38.443  24.023   6.604
 4957POPC   C3A65009  38.764  23.777   6.801
 4957POPC   C4A65010  38.708  24.009   7.150
 4957POPC   C1B65011  38.149  23.423   6.181
 4957POPC   C2B65012  38.358  23.496   6.594
 4957POPC   C3B65013  38.302  23.714   7.029
 4957POPC   C4B65014  38.027  23.691   7.432
 4958POPC   NC365015  21.041  39.274   5.329
 4958POPC   PO465016  21.542  39.537   5.431
 4958POPC   GL165017  21.335  39.303   5.758
 4958POPC   GL265018  21.107  39.585   5.770
 4958POPC   C1A65019  21.421  39.076   6.174
 4958POPC   D2A65020  21.579  38.841   6.554
 4958POPC   C3A65021  21.489  38.944   6.991
 4958POPC   C4A65022  21.653  39.269   7.236
 4958POPC   C1B65023  21.245  39.552   6.216
 4958POPC   C2B65024  21.270  39.304   6.623
 4958POPC   C3B65025  21.137  39.319   7.063
 4958POPC   C4B65026  21.174  39.112   7.436
 4959POPC   NC365027  17.289  26.933   5.398
 4959POPC   PO465028  17.928  26.589   5.416
 4959POPC   GL165029  17.624  26.741   5.762
 4959POPC   GL265030  17.516  27.083   5.823
 4959POPC   C1A65031  17.700  26.853   6.217
 4959POPC   D2A65032  17.521  26.683   6.575
 4959POPC   C3A65033  17.615  26.872   6.960
 4959POPC   C4A65034  17.521  26.828   7.394
 4959POPC   C1B65035  17.279  27.160   6.206
 4959POPC   C2B65036  17.106  27.048   6.632
 4959POPC   C3B65037  17.152  27.024   7.091
 4959POPC   C4B65038  17.260  27.297   7.449
 4960POPC   NC365039  41.151  14.651   5.564
 4960POPC   PO465040  41.730  14.336   5.452
 4960POPC   GL165041  41.568  14.381   5.860
 4960POPC   GL265042  41.283  14.174   5.809
 4960POPC   C1A65043  41.628  14.453   6.311
 4960POPC   D2A65044  41.631  14.210   6.699
 4960POPC   C3A65045  41.814  14.453   7.020
 4960POPC   C4A65046  41.710  14.513   7.475
 4960POPC   C1B65047  41.136  14.410   6.191
 4960POPC   C2B65048  41.238  14.546   6.641
 4960POPC   C3B65049  41.313  14.464   7.087
 4960POPC   C4B65050  41.276  14.258   7.496
 4961POPC   NC365051   6.845  13.135   5.457
 4961POPC   PO465052   6.279  12.714   5.476
 4961POPC   GL165053   6.461  12.881   5.886
 4961POPC   GL265054   6.823  12.911   5.900
 4961POPC   C1A65055   6.613  12.970   6.342
 4961POPC   D2A65056   6.543  12.970   6.766
 4961POPC   C3A65057   6.659  12.640   7.037
 4961POPC   C4A65058   6.839  12.689   7.459
 4961POPC   C1B65059   7.061  13.178   6.185
 4961POPC   C2B65060   6.946  13.296   6.613
 4961POPC   C3B65061   6.996  13.351   7.021
 4961POPC   C4B65062   6.705  13.113   7.223
 4962POPC   NC365063  30.409  39.820   5.232
 4962POPC   PO465064  30.981  39.968   5.181
 4962POPC   GL165065  30.890  39.972   5.700
 4962POPC   GL265066  30.586  39.744   5.803
 4962POPC   C1A65067  30.751  40.036   6.200
 4962POPC   D2A65068  30.671  39.870   6.644
 4962POPC   C3A65069  30.816  40.053   7.058
 4962POPC   C4A65070  30.994  40.268   7.442
 4962POPC   C1B65071  30.285  39.790   6.205
 4962POPC   C2B65072  30.169  39.999   6.603
 4962POPC   C3B65073  30.312  39.914   7.042
 4962POPC   C4B65074  30.474  40.057   7.449
 4963POPC   NC365075  40.226  32.772   5.484
 4963POPC   PO465076  39.912  33.275   5.420
 4963POPC   GL165077  40.143  33.101   5.868
 4963POPC   GL265078  40.139  32.741   6.003
 4963POPC   C1A65079  39.921  33.026   6.355
 4963POPC   D2A65080  39.838  32.656   6.675
 4963POPC   C3A65081  39.872  32.790   7.099
 4963POPC   C4A65082  39.940  33.085   7.415
 4963POPC   C1B65083  40.403  32.911   6.288
 4963POPC   C2B65084  40.322  32.786   6.693
 4963POPC   C3B65085  40.392  32.862   7.089
 4963POPC   C4B65086  40.269  32.675   7.445
 4964POPC   NC365087  25.313  32.827   5.429
 4964POPC   PO465088  24.920  33.352   5.579
 4964POPC   GL165089  25.128  33.044   5.853
 4964POPC   GL265090  25.466  32.831   5.911
 4964POPC   C1A65091  25.028  33.076   6.271
 4964POPC   D2A65092  24.913  33.414   6.597
 4964POPC   C3A65093  25.061  33.242   6.989
 4964POPC   C4A65094  25.013  32.939   7.307
 4964POPC   C1B65095  25.512  33.180   6.187
 4964POPC   C2B65096  25.402  33.243   6.602
 4964POPC   C3B65097  25.601  33.267   6.976
 4964POPC   C4B65098  25.465  33.215   7.369
 4965POPC   NC365099  16.371  24.697   5.558
 4965POPC   PO465100  15.821  24.401   5.252
 4965POPC   GL165101  15.979  24.331   5.680
 4965POPC   GL265102  15.630  24.226   5.758
 4965POPC   C1A65103  16.214  24.383   6.114
 4965POPC   D2A65104  16.424  24.381   6.529
 4965POPC   C3A65105  16.328  24.613   6.906
 4965POPC   C4A65106  16.181  24.442   7.279
 4965POPC   C1B65107  15.703  24.462   6.131
 4965POPC   C2B65108  15.508  24.564   6.519
 4965POPC   C3B65109  15.740  24.536   6.900
 4965POPC   C4B65110  15.653  24.479   7.306
 4966POPC   NC365111  29.500   3.681   5.599
 4966POPC   PO465112  28.811   3.711   5.502
 4966POPC   GL165113  29.030   3.467   5.835
 4966POPC   GL265114  29.276   3.204   5.724
 4966POPC   C1A65115  28.923   3.302   6.267
 4966POPC   D2A65116  28.686   3.272   6.669
 4966POPC   C3A65117  28.973   3.421   6.951
 4966POPC   C4A65118  29.334   3.233   7.160
 4966POPC   C1B65119  29.447   3.331   6.133
 4966POPC   C2B65120  29.316   3.537   6.495
 4966POPC   C3B65121  29.393   3.692   6.865
 4966POPC   C4B65122  29.265   3.824   7.251
 4967POPC   NC365123  36.780  30.829   5.274
 4967POPC   PO465124  36.977  30.144   5.452
 4967POPC   GL165125  36.940  30.562   5.732
 4967POPC   GL265126  37.055  30.932   5.679
 4967POPC   C1A65127  36.693  30.729   6.122
 4967POPC   D2A65128  36.602  30.626   6.594
 4967POPC   C3A65129  36.747  30.754   7.040
 4967POPC   C4A65130  36.988  31.071   7.296
 4967POPC   C1B65131  37.181  30.834   6.086
 4967POPC   C2B65132  37.265  30.918   6.497
 4967POPC   C3B65133  37.243  30.772   6.896
 4967POPC   C4B65134  37.260  30.573   7.273
 4968POPC   NC365135  11.819  34.182   5.234
 4968POPC   PO465136  12.208  33.668   5.205
 4968POPC   GL165137  11.945  33.804   5.598
 4968POPC   GL265138  11.853  34.174   5.733
 4968POPC   C1A65139  12.110  33.819   6.046
 4968POPC   D2A65140  12.001  33.739   6.492
 4968POPC   C3A65141  12.249  33.933   6.835
 4968POPC   C4A65142  12.470  33.914   7.263
 4968POPC   C1B65143  12.033  34.326   6.087
 4968POPC   C2B65144  12.022  34.289   6.501
 4968POPC   C3B65145  11.797  34.197   6.864
 4968POPC   C4B65146  12.003  34.141   7.241
 4969POPC   NC365147  19.301  30.204   5.321
 4969POPC   PO465148  18.901  29.737   5.522
 4969POPC   GL165149  19.232  29.716   5.825
 4969POPC   GL265150  19.233  30.066   5.822
 4969POPC   C1A65151  19.204  29.858   6.291
 4969POPC   D2A65152  18.916  30.116   6.612
 4969POPC   C3A65153  18.814  29.852   6.991
 4969POPC   C4A65154  19.153  29.687   7.233
 4969POPC   C1B65155  19.439  30.316   6.142
 4969POPC   C2B65156  19.422  30.215   6.599
 4969POPC   C3B65157  19.244  30.299   7.027
 4969POPC   C4B65158  19.469  30.339   7.427
 4970POPC   NC365159  16.801   9.974   5.356
 4970POPC   PO465160  16.274   9.565   5.454
 4970POPC   GL165161  16.573   9.771   5.764
 4970POPC   GL265162  16.603  10.142   5.795
 4970POPC   C1A65163  16.957   9.776   6.031
 4970POPC   D2A65164  17.063  10.012   6.396
 4970POPC   C3A65165  16.982   9.872   6.813
 4970POPC   C4A65166  17.097   9.879   7.235
 4970POPC   C1B65167  16.547  10.020   6.206
 4970POPC   C2B65168  16.544   9.738   6.564
 4970POPC   C3B65169  16.497   9.901   7.001
 4970POPC   C4B65170  16.668  10.132   7.365
 4971POPC   NC365171  41.472  26.377   5.353
 4971POPC   PO465172  41.350  25.706   5.267
 4971POPC   GL165173  41.397  25.711   5.709
 4971POPC   GL265174  41.360  26.064   5.729
 4971POPC   C1A65175  41.627  25.842   6.106
 4971POPC   D2A65176  41.789  26.204   6.369
 4971POPC   C3A65177  41.764  26.105   6.807
 4971POPC   C4A65178  41.752  26.292   7.210
 4971POPC   C1B65179  41.330  26.259   6.119
 4971POPC   C2B65180  41.291  26.091   6.527
 4971POPC   C3B65181  41.285  25.899   6.926
 4971POPC   C4B65182  41.316  26.044   7.323
 4972POPC   NC365183  34.871   9.762   5.179
 4972POPC   PO465184  35.436   9.378   5.291
 4972POPC   GL165185  35.381   9.560   5.749
 4972POPC   GL265186  35.061   9.754   5.810
 4972POPC   C1A65187  35.502   9.812   6.095
 4972POPC   D2A65188  35.472   9.992   6.511
 4972POPC   C3A65189  35.315   9.680   6.794
 4972POPC   C4A65190  35.408   9.622   7.215
 4972POPC   C1B65191  35.051  10.055   6.187
 4972POPC   C2B65192  34.978  10.073   6.668
 4972POPC   C3B65193  35.028  10.000   7.130
 4972POPC   C4B65194  35.019   9.885   7.583
 4973POPC   NC365195  43.328  13.782   5.241
 4973POPC   PO465196  42.851  13.336   5.204
 4973POPC   GL165197  42.932  13.546   5.628
 4973POPC   GL265198  43.133  13.817   5.697
 4973POPC   C1A65199  42.948  13.499   6.098
 4973POPC   D2A65200  42.751  13.564   6.532
 4973POPC   C3A65201  43.007  13.480   6.903
 4973POPC   C4A65202  43.302  13.678   7.220
 4973POPC   C1B65203  42.951  13.998   6.062
 4973POPC   C2B65204  43.077  13.939   6.488
 4973POPC   C3B65205  43.047  14.002   6.920
 4973POPC   C4B65206  43.413  14.191   7.100
 4974POPC   NC365207  15.887  31.389   5.100
 4974POPC   PO465208  16.055  31.171   5.719
 4974POPC   GL165209  15.758  31.419   5.959
 4974POPC   GL265210  15.579  31.147   5.971
 4974POPC   C1A65211  15.709  31.571   6.429
 4974POPC   D2A65212  16.086  31.630   6.732
 4974POPC   C3A65213  16.127  31.818   7.152
 4974POPC   C4A65214  15.866  31.693   7.532
 4974POPC   C1B65215  15.862  31.085   6.342
 4974POPC   C2B65216  15.770  31.167   6.766
 4974POPC   C3B65217  15.747  31.455   7.073
 4974POPC   C4B65218  16.076  31.278   7.302
 4975POPC   NC365219  39.343   9.258   5.571
 4975POPC   PO465220  39.269   8.626   5.511
 4975POPC   GL165221  38.964   8.788   5.815
 4975POPC   GL265222  38.849   9.126   5.679
 4975POPC   C1A65223  39.067   8.806   6.284
 4975POPC   D2A65224  39.386   9.024   6.528
 4975POPC   C3A65225  39.410   9.160   6.951
 4975POPC   C4A65226  39.504   8.956   7.332
 4975POPC   C1B65227  38.762   9.199   6.112
 4975POPC   C2B65228  38.942   9.272   6.509
 4975POPC   C3B65229  38.923   9.025   6.857
 4975POPC   C4B65230  38.997   9.076   7.292
 4976POPC   NC365231   7.194   0.947   5.475
 4976POPC   PO465232   7.707   1.300   5.412
 4976POPC   GL165233   7.479   1.136   5.859
 4976POPC   GL265234   7.087   1.163   5.918
 4976POPC   C1A65235   7.600   1.187   6.332
 4976POPC   D2A65236   7.591   1.109   6.807
 4976POPC   C3A65237   7.405   1.372   7.152
 4976POPC   C4A65238   7.615   1.485   7.587
 4976POPC   C1B65239   7.210   0.844   6.227
 4976POPC   C2B65240   7.181   0.755   6.651
 4976POPC   C3B65241   7.206   0.865   7.060
 4976POPC   C4B65242   6.874   1.110   7.221
 4977POPC   NC365243  11.193   6.976   5.533
 4977POPC   PO465244  11.309   6.320   5.552
 4977POPC   GL165245  11.136   6.583   5.862
 4977POPC   GL265246  10.791   6.767   5.771
 4977POPC   C1A65247  11.260   6.471   6.272
 4977POPC   D2A65248  11.533   6.222   6.517
 4977POPC   C3A65249  11.464   6.402   6.885
 4977POPC   C4A65250  11.527   6.471   7.260
 4977POPC   C1B65251  10.841   6.766   6.227
 4977POPC   C2B65252  11.010   6.757   6.644
 4977POPC   C3B65253  11.095   6.768   7.085
 4977POPC   C4B65254  11.095   6.576   7.494
 4978POPC   NC365255  23.632   4.813   5.184
 4978POPC   PO465256  23.568   4.160   5.190
 4978POPC   GL165257  23.582   4.289   5.651
 4978POPC   GL265258  23.392   3.986   5.760
 4978POPC   C1A65259  23.606   4.581   6.043
 4978POPC   D2A65260  23.476   4.511   6.492
 4978POPC   C3A65261  23.675   4.600   6.903
 4978POPC   C4A65262  23.897   4.517   7.270
 4978POPC   C1B65263  23.649   4.081   6.134
 4978POPC   C2B65264  23.553   4.001   6.552
 4978POPC   C3B65265  23.703   4.101   6.948
 4978POPC   C4B65266  23.556   4.139   7.362
 4979POPC   NC365267   5.707   6.781   5.503
 4979POPC   PO465268   6.289   6.546   5.218
 4979POPC   GL165269   6.176   6.737   5.720
 4979POPC   GL265270   5.831   6.565   5.929
 4979POPC   C1A65271   6.153   6.800   6.212
 4979POPC   D2A65272   5.921   6.534   6.559
 4979POPC   C3A65273   6.060   6.638   6.993
 4979POPC   C4A65274   6.426   6.926   7.053
 4979POPC   C1B65275   5.502   6.408   6.234
 4979POPC   C2B65276   5.363   6.506   6.659
 4979POPC   C3B65277   5.508   6.412   7.096
 4979POPC   C4B65278   5.467   6.447   7.583
 4980POPC   NC365279  21.775   4.929   5.758
 4980POPC   PO465280  22.200   5.364   5.452
 4980POPC   GL165281  22.216   5.194   5.863
 4980POPC   GL265282  21.953   5.406   5.955
 4980POPC   C1A65283  22.212   4.887   6.223
 4980POPC   D2A65284  22.040   4.727   6.611
 4980POPC   C3A65285  22.343   4.740   6.934
 4980POPC   C4A65286  22.342   4.885   7.334
 4980POPC   C1B65287  21.918   5.288   6.374
 4980POPC   C2B65288  22.221   5.206   6.684
 4980POPC   C3B65289  22.225   5.307   7.101
 4980POPC   C4B65290  21.959   5.185   7.494
 4981POPC   NC365291  33.827   6.474   5.515
 4981POPC   PO465292  33.555   6.982   5.137
 4981POPC   GL165293  33.712   6.970   5.728
 4981POPC   GL265294  34.028   6.849   5.823
 4981POPC   C1A65295  33.639   6.825   6.201
 4981POPC   D2A65296  33.740   6.671   6.657
 4981POPC   C3A65297  33.500   6.378   6.960
 4981POPC   C4A65298  33.567   6.269   7.439
 4981POPC   C1B65299  34.082   6.470   6.138
 4981POPC   C2B65300  34.270   6.343   6.528
 4981POPC   C3B65301  34.188   6.556   6.899
 4981POPC   C4B65302  33.917   6.536   7.203
 4982POPC   NC365303  23.464   5.785   5.024
 4982POPC   PO465304  23.846   6.022   5.487
 4982POPC   GL165305  23.769   5.894   5.876
 4982POPC   GL265306  23.457   5.736   5.751
 4982POPC   C1A65307  23.854   5.955   6.319
 4982POPC   D2A65308  23.774   6.277   6.658
 4982POPC   C3A65309  23.897   6.133   7.069
 4982POPC   C4A65310  23.754   5.900   7.458
 4982POPC   C1B65311  23.432   5.646   6.188
 4982POPC   C2B65312  23.435   5.845   6.599
 4982POPC   C3B65313  23.589   5.702   6.999
 4982POPC   C4B65314  23.628   5.406   7.334
 4983POPC   NC365315   6.253   1.282   5.436
 4983POPC   PO465316   5.599   1.480   5.375
 4983POPC   GL165317   5.874   1.512   5.748
 4983POPC   GL265318   6.014   1.185   5.874
 4983POPC   C1A65319   5.861   1.537   6.205
 4983POPC   D2A65320   6.108   1.235   6.455
 4983POPC   C3A65321   6.036   1.397   6.848
 4983POPC   C4A65322   5.675   1.490   7.097
 4983POPC   C1B65323   6.101   0.809   6.124
 4983POPC   C2B65324   5.890   0.666   6.491
 4983POPC   C3B65325   5.934   0.859   6.889
 4983POPC   C4B65326   5.998   1.109   7.258
 4984POPC   NC365327   6.547  20.804   5.372
 4984POPC   PO465328   6.999  20.304   5.529
 4984POPC   GL165329   6.784  20.436   5.885
 4984POPC   GL265330   6.444  20.574   5.838
 4984POPC   C1A65331   6.602  20.256   6.243
 4984POPC   D2A65332   6.610  20.189   6.660
 4984POPC   C3A65333   6.652  20.513   6.929
 4984POPC   C4A65334   6.645  20.349   7.328
 4984POPC   C1B65335   6.195  20.566   6.239
 4984POPC   C2B65336   6.167  20.500   6.695
 4984POPC   C3B65337   6.185  20.529   7.156
 4984POPC   C4B65338   6.377  20.770   7.469
 4985POPC   NC365339  13.375   6.399   5.260
 4985POPC   PO465340  13.974   6.713   5.378
 4985POPC   GL165341  13.793   6.544   5.761
 4985POPC   GL265342  13.432   6.464   5.752
 4985POPC   C1A65343  13.806   6.629   6.200
 4985POPC   D2A65344  13.786   6.816   6.605
 4985POPC   C3A65345  13.943   6.535   6.874
 4985POPC   C4A65346  13.790   6.489   7.261
 4985POPC   C1B65347  13.312   6.644   6.141
 4985POPC   C2B65348  13.275   6.777   6.553
 4985POPC   C3B65349  13.394   6.605   6.934
 4985POPC   C4B65350  13.307   6.732   7.337
 4986POPC   NC365351  32.532   4.327   5.052
 4986POPC   PO465352  32.032   4.060   5.405
 4986POPC   GL165353  32.277   4.233   5.700
 4986POPC   GL265354  32.213   4.578   5.692
 4986POPC   C1A65355  32.480   4.100   6.079
 4986POPC   D2A65356  32.391   4.235   6.486
 4986POPC   C3A65357  32.376   4.003   6.865
 4986POPC   C4A65358  32.214   4.177   7.249
 4986POPC   C1B65359  32.408   4.608   6.124
 4986POPC   C2B65360  32.619   4.704   6.511
 4986POPC   C3B65361  32.523   4.537   6.929
 4986POPC   C4B65362  32.428   4.630   7.349
 4987POPC   NC365363  11.538  42.416   5.404
 4987POPC   PO465364  10.981  42.181   5.601
 4987POPC   GL165365  11.292  42.328   5.868
 4987POPC   GL265366  11.499  42.042   5.747
 4987POPC   C1A65367  11.421  42.573   6.267
 4987POPC   D2A65368  11.274  42.531   6.695
 4987POPC   C3A65369  11.306  42.551   7.130
 4987POPC   C4A65370  11.087  42.349   7.441
 4987POPC   C1B65371  11.302  41.889   6.126
 4987POPC   C2B65372  11.227  41.869   6.545
 4987POPC   C3B65373  11.203  42.065   6.920
 4987POPC   C4B65374  11.201  41.898   7.295
 4988POPC   NC365375   3.867  16.538   5.410
 4988POPC   PO465376   3.536  17.063   5.374
 4988POPC   GL165377   3.594  17.063   5.800
 4988POPC   GL265378   3.882  16.870   5.832
 4988POPC   C1A65379   3.424  17.206   6.214
 4988POPC   D2A65380   3.371  17.337   6.669
 4988POPC   C3A65381   3.302  16.974   6.980
 4988POPC   C4A65382   3.413  16.560   7.194
 4988POPC   C1B65383   3.914  17.051   6.254
 4988POPC   C2B65384   3.708  16.951   6.663
 4988POPC   C3B65385   3.817  16.850   7.115
 4988POPC   C4B65386   3.734  16.793   7.589
 4989POPC   NC365387  36.697  11.080   5.646
 4989POPC   PO465388  36.801  10.506   5.391
 4989POPC   GL165389  36.905  10.513   5.789
 4989POPC   GL265390  36.625  10.641   5.887
 4989POPC   C1A65391  37.118  10.498   6.162
 4989POPC   D2A65392  37.393  10.689   6.425
 4989POPC   C3A65393  37.331  10.621   6.845
 4989POPC   C4A65394  37.221  10.533   7.275
 4989POPC   C1B65395  36.626  10.472   6.272
 4989POPC   C2B65396  36.825  10.620   6.620
 4989POPC   C3B65397  36.822  10.439   7.009
 4989POPC   C4B65398  36.734  10.655   7.421
 4990POPC   NC365399   1.793   8.439   5.406
 4990POPC   PO465400   2.468   8.475   5.483
 4990POPC   GL165401   2.139   8.397   5.803
 4990POPC   GL265402   1.970   8.059   5.760
 4990POPC   C1A65403   2.050   8.303   6.250
 4990POPC   D2A65404   2.124   8.523   6.670
 4990POPC   C3A65405   2.072   8.250   7.005
 4990POPC   C4A65406   1.633   8.295   7.126
 4990POPC   C1B65407   1.860   7.803   6.136
 4990POPC   C2B65408   1.665   7.868   6.549
 4990POPC   C3B65409   1.788   7.837   6.969
 4990POPC   C4B65410   1.980   7.605   7.240
 4991POPC   NC365411  42.472  32.469   5.353
 4991POPC   PO465412  42.043  31.874   5.405
 4991POPC   GL165413  42.251  31.919   5.816
 4991POPC   GL265414  42.554  31.795   5.911
 4991POPC   C1A65415  42.101  32.013   6.244
 4991POPC   D2A65416  41.922  32.115   6.612
 4991POPC   C3A65417  42.025  32.322   6.978
 4991POPC   C4A65418  41.911  32.068   7.315
 4991POPC   C1B65419  42.559  32.196   6.149
 4991POPC   C2B65420  42.408  32.305   6.578
 4991POPC   C3B65421  42.550  32.385   6.994
 4991POPC   C4B65422  42.745  32.164   7.352
 4992POPC   NC365423  15.523  35.177   5.500
 4992POPC   PO465424  14.957  35.463   5.465
 4992POPC   GL165425  15.179  35.440   5.811
 4992POPC   GL265426  15.120  35.080   5.835
 4992POPC   C1A65427  15.262  35.680   6.179
 4992POPC   D2A65428  15.183  35.522   6.575
 4992POPC   C3A65429  15.192  35.675   6.957
 4992POPC   C4A65430  15.172  35.523   7.380
 4992POPC   C1B65431  15.456  34.909   6.096
 4992POPC   C2B65432  15.387  34.879   6.517
 4992POPC   C3B65433  15.392  35.146   6.856
 4992POPC   C4B65434  15.365  35.057   7.272
 4993POPC   NC365435   5.503  15.020   5.016
 4993POPC   PO465436   5.208  15.398   5.522
 4993POPC   GL165437   5.261  15.358   5.943
 4993POPC   GL265438   5.573  15.313   6.026
 4993POPC   C1A65439   5.195  15.495   6.367
 4993POPC   D2A65440   5.196  15.502   6.829
 4993POPC   C3A65441   5.066  15.164   7.158
 4993POPC   C4A65442   5.159  14.746   7.399
 4993POPC   C1B65443   5.515  15.097   6.431
 4993POPC   C2B65444   5.519  15.103   6.901
 4993POPC   C3B65445   5.537  15.204   7.342
 4993POPC   C4B65446   5.427  15.010   7.756
 4994POPC   NC365447  34.468  29.474   5.347
 4994POPC   PO465448  34.857  29.947   5.573
 4994POPC   GL165449  34.695  29.625   5.838
 4994POPC   GL265450  34.359  29.760   5.766
 4994POPC   C1A65451  34.777  29.631   6.297
 4994POPC   D2A65452  34.758  30.038   6.515
 4994POPC   C3A65453  34.849  30.044   6.931
 4994POPC   C4A65454  34.658  30.097   7.335
 4994POPC   C1B65455  34.357  29.901   6.188
 4994POPC   C2B65456  34.362  29.702   6.597
 4994POPC   C3B65457  34.385  29.796   7.011
 4994POPC   C4B65458  34.126  30.125   7.191
 4995POPC   NC365459  16.161  12.484   5.564
 4995POPC   PO465460  15.736  12.871   5.143
 4995POPC   GL165461  15.765  12.840   5.693
 4995POPC   GL265462  16.067  12.805   5.936
 4995POPC   C1A65463  15.776  13.143   6.102
 4995POPC   D2A65464  16.129  13.111   6.420
 4995POPC   C3A65465  16.085  12.880   6.817
 4995POPC   C4A65466  15.857  12.975   7.193
 4995POPC   C1B65467  15.783  12.619   6.207
 4995POPC   C2B65468  15.944  12.337   6.504
 4995POPC   C3B65469  16.255  12.364   6.824
 4995POPC   C4B65470  16.175  12.465   7.251
 4996POPC   NC365471  29.212  26.389   5.225
 4996POPC   PO465472  29.215  27.022   5.280
 4996POPC   GL165473  29.223  26.954   5.701
 4996POPC   GL265474  29.117  26.618   5.787
 4996POPC   C1A65475  29.143  26.996   6.136
 4996POPC   D2A65476  29.306  26.786   6.499
 4996POPC   C3A65477  29.212  26.962   6.882
 4996POPC   C4A65478  29.279  26.970   7.312
 4996POPC   C1B65479  28.957  26.513   6.232
 4996POPC   C2B65480  28.928  26.539   6.726
 4996POPC   C3B65481  29.171  26.502   7.139
 4996POPC   C4B65482  29.321  26.545   7.594
 4997POPC   NC365483   8.230  43.694   5.304
 4997POPC   PO465484   8.421  44.288   5.300
 4997POPC   GL165485   8.226  44.078   5.708
 4997POPC   GL265486   8.560  44.081   5.769
 4997POPC   C1A65487   8.000  43.935   6.152
 4997POPC   D2A65488   7.929  43.731   6.611
 4997POPC   C3A65489   8.177  43.811   7.005
 4997POPC   C4A65490   8.323  43.726   7.438
 4997POPC   C1B65491   8.485  43.832   6.104
 4997POPC   C2B65492   8.464  43.781   6.547
 4997POPC   C3B65493   8.615  44.052   6.894
 4997POPC   C4B65494   8.503  44.197   7.299
 4998POPC   NC365495  12.385   6.292   5.349
 4998POPC   PO465496  12.981   6.594   5.398
 4998POPC   GL165497  12.910   6.609   5.829
 4998POPC   GL265498  12.620   6.412   5.794
 4998POPC   C1A65499  12.860   6.873   6.223
 4998POPC   D2A65500  12.758   6.745   6.653
 4998POPC   C3A65501  12.876   6.909   7.090
 4998POPC   C4A65502  12.834   6.845   7.583
 4998POPC   C1B65503  12.376   6.669   6.092
 4998POPC   C2B65504  12.237   6.738   6.517
 4998POPC   C3B65505  12.356   6.894   6.915
 4998POPC   C4B65506  12.432   6.719   7.319
 4999POPC   NC365507  38.091  22.519   5.619
 4999POPC   PO465508  38.494  22.903   5.190
 4999POPC   GL165509  38.470  22.877   5.675
 4999POPC   GL265510  38.589  22.603   5.909
 4999POPC   C1A65511  38.385  22.992   6.132
 4999POPC   D2A65512  38.312  22.943   6.596
 4999POPC   C3A65513  38.457  23.178   6.968
 4999POPC   C4A65514  38.273  23.260   7.343
 4999POPC   C1B65515  38.356  22.475   6.278
 4999POPC   C2B65516  38.464  22.439   6.723
 4999POPC   C3B65517  38.309  22.705   7.075
 4999POPC   C4B65518  38.584  22.850   7.399
 5000POPC   NC365519  12.362  24.984   5.450
 5000POPC   PO465520  12.159  25.659   5.559
 5000POPC   GL165521  11.997  25.339   5.858
 5000POPC   GL265522  11.750  25.579   5.918
 5000POPC   C1A65523  12.077  25.126   6.295
 5000POPC   D2A65524  12.152  25.296   6.740
 5000POPC   C3A65525  12.092  25.044   7.130
 5000POPC   C4A65526  12.094  25.064   7.581
 5000POPC   C1B65527  11.939  25.613   6.334
 5000POPC   C2B65528  11.811  25.748   6.740
 5000POPC   C3B65529  11.789  25.492   7.064
 5000POPC   C4B65530  12.136  25.494   7.323
 5001POPC   NC365531  18.758   0.550   5.554
 5001POPC   PO465532  19.221   0.717   5.123
 5001POPC   GL165533  19.226   0.638   5.680
 5001POPC   GL265534  19.279   0.290   5.753
 5001POPC   C1A65535  19.022   0.622   6.132
 5001POPC   D2A65536  19.019   0.848   6.526
 5001POPC   C3A65537  18.901   0.669   6.926
 5001POPC   C4A65538  18.767   0.456   7.307
 5001POPC   C1B65539  19.327   0.212   6.184
 5001POPC   C2B65540  19.070   0.301   6.558
 5001POPC   C3B65541  19.133   0.214   6.997
 5001POPC   C4B65542  19.039  44.958   7.357
 5002POPC   NC365543  12.563  12.662   5.522
 5002POPC   PO465544  12.886  13.259   5.429
 5002POPC   GL165545  12.907  12.932   5.831
 5002POPC   GL265546  12.747  12.567   5.972
 5002POPC   C1A65547  12.837  12.925   6.302
 5002POPC   D2A65548  13.035  12.998   6.674
 5002POPC   C3A65549  12.869  12.899   7.069
 5002POPC   C4A65550  13.070  12.866   7.472
 5002POPC   C1B65551  12.364  12.732   6.171
 5002POPC   C2B65552  12.291  12.843   6.583
 5002POPC   C3B65553  12.386  12.620   6.972
 5002POPC   C4B65554  12.664  12.536   7.336
 5003POPC   NC365555   1.170  29.554   5.576
 5003POPC   PO465556   1.498  30.153   5.341
 5003POPC   GL165557   1.532  30.191   5.770
 5003POPC   GL265558   1.316  29.919   5.898
 5003POPC   C1A65559   1.535  30.261   6.220
 5003POPC   D2A65560   1.225  30.113   6.508
 5003POPC   C3A65561   1.295  30.159   6.949
 5003POPC   C4A65562   1.047  30.334   7.235
 5003POPC   C1B65563   1.200  29.648   6.297
 5003POPC   C2B65564   1.114  29.696   6.773
 5003POPC   C3B65565   1.326  29.693   7.180
 5003POPC   C4B65566   1.547  29.607   7.586
 5004POPC   NC365567  40.998  21.594   4.979
 5004POPC   PO465568  40.649  21.266   5.435
 5004POPC   GL165569  40.738  21.295   5.874
 5004POPC   GL265570  40.775  20.973   5.901
 5004POPC   C1A65571  40.837  21.618   6.235
 5004POPC   D2A65572  40.909  21.516   6.647
 5004POPC   C3A65573  40.890  21.737   7.040
 5004POPC   C4A65574  40.599  21.825   7.372
 5004POPC   C1B65575  40.708  21.095   6.327
 5004POPC   C2B65576  40.964  21.012   6.633
 5004POPC   C3B65577  40.882  21.140   7.023
 5004POPC   C4B65578  40.953  20.885   7.378
 5005POPC   NC365579   2.864  44.531   5.280
 5005POPC   PO465580   2.630   0.126   5.396
 5005POPC   GL165581   2.866  44.834   5.719
 5005POPC   GL265582   2.742  44.479   5.781
 5005POPC   C1A65583   3.033  44.797   6.175
 5005POPC   D2A65584   3.014   0.023   6.603
 5005POPC   C3A65585   2.912  44.810   7.010
 5005POPC   C4A65586   2.492  44.853   7.247
 5005POPC   C1B65587   2.879  44.303   6.198
 5005POPC   C2B65588   2.923  44.402   6.656
 5005POPC   C3B65589   2.598  44.399   7.014
 5005POPC   C4B65590   2.635  44.360   7.491
 5006POPC   NC365591   5.958  21.612   5.374
 5006POPC   PO465592   5.502  21.140   5.507
 5006POPC   GL165593   5.718  21.373   5.847
 5006POPC   GL265594   6.055  21.262   5.784
 5006POPC   C1A65595   5.590  21.559   6.290
 5006POPC   D2A65596   5.563  21.594   6.766
 5006POPC   C3A65597   5.919  21.360   6.975
 5006POPC   C4A65598   6.141  21.259   7.383
 5006POPC   C1B65599   6.093  21.422   6.239
 5006POPC   C2B65600   6.387  21.377   6.605
 5006POPC   C3B65601   6.408  21.548   7.032
 5006POPC   C4B65602   6.467  21.938   7.233
 5007POPC   NC365603  32.590   1.002   5.349
 5007POPC   PO465604  32.124   1.515   5.437
 5007POPC   GL165605  32.145   1.360   5.872
 5007POPC   GL265606  32.463   1.178   5.847
 5007POPC   C1A65607  31.983   1.259   6.301
 5007POPC   D2A65608  32.170   1.003   6.650
 5007POPC   C3A65609  32.278   1.136   7.082
 5007POPC   C4A65610  32.249   1.258   7.529
 5007POPC   C1B65611  32.417   0.895   6.203
 5007POPC   C2B65612  32.614   0.723   6.578
 5007POPC   C3B65613  32.764   0.886   7.003
 5007POPC   C4B65614  32.634   0.948   7.442
 5008POPC   NC365615  43.693  19.332   5.341
 5008POPC   PO465616  44.188  18.917   5.382
 5008POPC   GL165617  43.916  19.014   5.768
 5008POPC   GL265618  43.812  19.361   5.832
 5008POPC   C1A65619  43.964  18.989   6.244
 5008POPC   D2A65620  44.154  18.793   6.625
 5008POPC   C3A65621  44.107  19.029   6.997
 5008POPC   C4A65622  43.745  19.157   7.263
 5008POPC   C1B65623  43.729  19.448   6.258
 5008POPC   C2B65624  43.794  19.329   6.693
 5008POPC   C3B65625  43.699  19.613   7.045
 5008POPC   C4B65626  43.729  19.614   7.513
 5009POPC   NC365627   3.165   1.252   5.419
 5009POPC   PO465628   2.519   0.953   5.633
 5009POPC   GL165629   2.837   1.148   5.825
 5009POPC   GL265630   2.680   1.473   5.861
 5009POPC   C1A65631   2.929   1.146   6.265
 5009POPC   D2A65632   2.728   1.417   6.575
 5009POPC   C3A65633   2.809   1.230   6.946
 5009POPC   C4A65634   2.581   1.068   7.271
 5009POPC   C1B65635   2.992   1.640   6.168
 5009POPC   C2B65636   3.238   1.512   6.533
 5009POPC   C3B65637   3.181   1.594   6.970
 5009POPC   C4B65638   2.883   1.644   7.298
 5010POPC   NC365639  14.591  18.622   5.460
 5010POPC   PO465640  13.984  18.230   5.351
 5010POPC   GL165641  14.245  18.298   5.691
 5010POPC   GL265642  14.140  18.620   5.767
 5010POPC   C1A65643  14.457  18.366   6.119
 5010POPC   D2A65644  14.660  18.559   6.508
 5010POPC   C3A65645  14.543  18.361   6.894
 5010POPC   C4A65646  14.445  18.203   7.291
 5010POPC   C1B65647  13.982  18.540   6.185
 5010POPC   C2B65648  14.153  18.542   6.580
 5010POPC   C3B65649  14.053  18.467   7.006
 5010POPC   C4B65650  13.809  18.732   7.249
 5011POPC   NC365651  42.185  28.075   5.498
 5011POPC   PO465652  42.696  28.403   5.220
 5011POPC   GL165653  42.598  28.421   5.722
 5011POPC   GL265654  42.481  28.096   5.905
 5011POPC   C1A65655  42.508  28.722   6.098
 5011POPC   D2A65656  42.189  28.796   6.441
 5011POPC   C3A65657  42.112  28.474   6.781
 5011POPC   C4A65658  42.350  28.496   7.186
 5011POPC   C1B65659  42.289  28.278   6.264
 5011POPC   C2B65660  42.578  28.384   6.587
 5011POPC   C3B65661  42.672  28.149   6.959
 5011POPC   C4B65662  42.343  27.987   7.237
 5012POPC   NC365663  27.052  23.790   5.551
 5012POPC   PO465664  27.630  23.875   5.229
 5012POPC   GL165665  27.577  23.785   5.684
 5012POPC   GL265666  27.889  23.629   5.843
 5012POPC   C1A65667  27.489  23.730   6.161
 5012POPC   D2A65668  27.633  23.844   6.617
 5012POPC   C3A65669  27.599  23.720   7.088
 5012POPC   C4A65670  27.710  23.910   7.507
 5012POPC   C1B65671  27.953  23.549   6.324
 5012POPC   C2B65672  28.014  23.535   6.812
 5012POPC   C3B65673  28.104  23.692   7.250
 5012POPC   C4B65674  28.068  23.584   7.703
 5013POPC   NC365675  13.375   2.325   5.397
 5013POPC   PO465676  13.765   1.807   5.452
 5013POPC   GL165677  13.740   2.115   5.757
 5013POPC   GL265678  13.412   2.028   5.829
 5013POPC   C1A65679  13.736   2.249   6.205
 5013POPC   D2A65680  13.497   2.181   6.588
 5013POPC   C3A65681  13.714   2.232   6.994
 5013POPC   C4A65682  13.690   2.037   7.414
 5013POPC   C1B65683  13.419   1.738   6.165
 5013POPC   C2B65684  13.272   1.679   6.572
 5013POPC   C3B65685  13.309   1.887   6.971
 5013POPC   C4B65686  13.266   1.727   7.355
 5014POPC   NC365687  43.818  20.869   5.436
 5014POPC   PO465688  44.349  20.517   5.254
 5014POPC   GL165689  44.193  20.538   5.707
 5014POPC   GL265690  43.865  20.469   5.920
 5014POPC   C1A65691  44.201  20.815   6.074
 5014POPC   D2A65692  44.114  20.902   6.504
 5014POPC   C3A65693  44.266  20.735   6.848
 5014POPC   C4A65694  44.029  20.508   7.142
 5014POPC   C1B65695  43.690  20.703   6.282
 5014POPC   C2B65696  43.695  20.645   6.744
 5014POPC   C3B65697  43.520  20.477   7.139
 5014POPC   C4B65698  43.663  20.444   7.564
 5015POPC   NC365699  35.623  22.433   5.153
 5015POPC   PO465700  35.459  21.758   5.209
 5015POPC   GL165701  35.372  22.100   5.542
 5015POPC   GL265702  35.257  22.471   5.524
 5015POPC   C1A65703  35.316  22.073   6.001
 5015POPC   D2A65704  35.297  22.078   6.482
 5015POPC   C3A65705  35.447  22.120   6.929
 5015POPC   C4A65706  35.475  21.901   7.363
 5015POPC   C1B65707  35.192  22.573   5.988
 5015POPC   C2B65708  35.261  22.602   6.460
 5015POPC   C3B65709  35.134  22.543   6.889
 5015POPC   C4B65710  35.187  22.443   7.332
 5016POPC   NC365711  38.902  43.079   5.357
 5016POPC   PO465712  39.572  43.273   5.267
 5016POPC   GL165713  39.516  43.136   5.710
 5016POPC   GL265714  39.193  43.037   5.761
 5016POPC   C1A65715  39.345  43.320   6.143
 5016POPC   D2A65716  39.205  43.094   6.544
 5016POPC   C3A65717  39.200  43.264   6.997
 5016POPC   C4A65718  38.971  43.225   7.400
 5016POPC   C1B65719  39.336  42.803   6.112
 5016POPC   C2B65720  39.488  42.663   6.490
 5016POPC   C3B65721  39.266  42.701   6.887
 5016POPC   C4B65722  39.290  42.847   7.308
 5017POPC   NC365723  30.331   1.458   5.238
 5017POPC   PO465724  29.665   1.622   5.282
 5017POPC   GL165725  29.824   1.526   5.755
 5017POPC   GL265726  30.006   1.215   5.818
 5017POPC   C1A65727  30.042   1.564   6.176
 5017POPC   D2A65728  30.116   1.655   6.626
 5017POPC   C3A65729  29.867   1.406   6.926
 5017POPC   C4A65730  29.935   1.050   7.183
 5017POPC   C1B65731  29.686   1.140   6.081
 5017POPC   C2B65732  29.629   1.153   6.531
 5017POPC   C3B65733  29.500   0.941   6.922
 5017POPC   C4B65734  29.594   0.699   7.282
 5018POPC   NC365735  44.494   8.954   5.518
 5018POPC   PO465736   0.061   9.368   5.370
 5018POPC   GL165737  44.821   9.222   5.811
 5018POPC   GL265738  44.436   9.188   5.952
 5018POPC   C1A65739  44.827   9.187   6.286
 5018POPC   D2A65740  44.731   8.914   6.651
 5018POPC   C3A65741  44.776   9.076   7.060
 5018POPC   C4A65742  44.714   9.230   7.481
 5018POPC   C1B65743  44.475   8.808   6.204
 5018POPC   C2B65744  44.283   8.665   6.584
 5018POPC   C3B65745  44.410   8.654   7.005
 5018POPC   C4B65746  44.320   8.968   7.291
 5019POPC   NC365747  12.230  18.510   5.473
 5019POPC   PO465748  12.286  17.933   5.179
 5019POPC   GL165749  12.270  17.950   5.637
 5019POPC   GL265750  11.962  18.114   5.695
 5019POPC   C1A65751  12.312  18.109   6.100
 5019POPC   D2A65752  12.083  18.247   6.493
 5019POPC   C3A65753  12.169  18.182   6.959
 5019POPC   C4A65754  12.402  18.497   7.190
 5019POPC   C1B65755  11.780  18.372   6.037
 5019POPC   C2B65756  11.674  18.532   6.466
 5019POPC   C3B65757  11.601  18.332   6.863
 5019POPC   C4B65758  11.621  18.490   7.284
 5020POPC   NC365759  12.031   4.585   5.394
 5020POPC   PO465760  12.597   4.323   5.441
 5020POPC   GL165761  12.230   4.249   5.791
 5020POPC   GL265762  11.823   4.233   5.809
 5020POPC   C1A65763  12.136   4.246   6.268
 5020POPC   D2A65764  12.142   4.068   6.731
 5020POPC   C3A65765  12.052   4.241   7.129
 5020POPC   C4A65766  12.189   4.088   7.518
 5020POPC   C1B65767  11.666   4.423   6.202
 5020POPC   C2B65768  11.693   4.618   6.581
 5020POPC   C3B65769  11.583   4.463   6.963
 5020POPC   C4B65770  11.571   4.280   7.354
 5021POPC   NC365771   4.462   8.504   5.432
 5021POPC   PO465772   3.911   8.111   5.430
 5021POPC   GL165773   4.198   8.222   5.766
 5021POPC   GL265774   4.405   8.006   5.867
 5021POPC   C1A65775   4.354   8.428   6.151
 5021POPC   D2A65776   4.261   8.596   6.583
 5021POPC   C3A65777   4.434   8.360   6.956
 5021POPC   C4A65778   4.165   8.328   7.338
 5021POPC   C1B65779   4.139   7.918   6.218
 5021POPC   C2B65780   4.279   7.923   6.653
 5021POPC   C3B65781   4.150   7.880   7.101
 5021POPC   C4B65782   4.315   7.878   7.550
 5022POPC   NC365783  34.109  14.475   5.499
 5022POPC   PO465784  33.657  13.878   5.635
 5022POPC   GL165785  33.764  14.265   5.930
 5022POPC   GL265786  34.088  14.448   5.997
 5022POPC   C1A65787  33.721  14.460   6.345
 5022POPC   D2A65788  33.821  14.296   6.743
 5022POPC   C3A65789  33.567  14.418   7.107
 5022POPC   C4A65790  33.402  14.233   7.480
 5022POPC   C1B65791  34.121  14.775   6.316
 5022POPC   C2B65792  34.013  14.842   6.753
 5022POPC   C3B65793  34.059  14.555   7.105
 5022POPC   C4B65794  33.918  14.399   7.500
 5023POPC   NC365795  12.955  21.719   5.449
 5023POPC   PO465796  13.017  21.080   5.347
 5023POPC   GL165797  12.981  21.246   5.749
 5023POPC   GL265798  12.667  21.443   5.800
 5023POPC   C1A65799  13.079  21.331   6.171
 5023POPC   D2A65800  12.846  21.223   6.529
 5023POPC   C3A65801  13.010  21.267   6.945
 5023POPC   C4A65802  12.686  21.279   7.250
 5023POPC   C1B65803  12.754  21.764   6.132
 5023POPC   C2B65804  12.854  21.775   6.575
 5023POPC   C3B65805  12.739  21.724   7.000
 5023POPC   C4B65806  13.012  21.649   7.339
 5024POPC   NC365807   8.654  17.529   5.332
 5024POPC   PO465808   9.334  17.609   5.351
 5024POPC   GL165809   9.058  17.560   5.754
 5024POPC   GL265810   8.666  17.574   5.841
 5024POPC   C1A65811   9.037  17.551   6.218
 5024POPC   D2A65812   9.256  17.468   6.608
 5024POPC   C3A65813   9.291  17.679   6.976
 5024POPC   C4A65814   9.239  17.430   7.350
 5024POPC   C1B65815   8.576  17.308   6.207
 5024POPC   C2B65816   8.791  17.228   6.571
 5024POPC   C3B65817   8.616  17.273   6.938
 5024POPC   C4B65818   8.763  17.335   7.292
 5025POPC   NC365819  18.598   8.111   5.353
 5025POPC   PO465820  17.954   8.242   5.235
 5025POPC   GL165821  18.065   8.226   5.758
 5025POPC   GL265822  18.455   8.204   5.846
 5025POPC   C1A65823  17.951   8.009   6.180
 5025POPC   D2A65824  18.111   7.984   6.627
 5025POPC   C3A65825  17.883   7.884   7.017
 5025POPC   C4A65826  17.838   8.168   7.379
 5025POPC   C1B65827  18.412   8.249   6.270
 5025POPC   C2B65828  18.582   8.159   6.671
 5025POPC   C3B65829  18.380   8.085   7.090
 5025POPC   C4B65830  18.507   8.016   7.558
 5026POPC   NC365831  26.677   5.637   5.657
 5026POPC   PO465832  26.817   6.262   5.417
 5026POPC   GL165833  26.867   6.106   5.806
 5026POPC   GL265834  27.215   6.126   5.831
 5026POPC   C1A65835  26.658   5.988   6.204
 5026POPC   D2A65836  26.685   5.663   6.528
 5026POPC   C3A65837  26.746   5.834   6.945
 5026POPC   C4A65838  27.010   5.736   7.274
 5026POPC   C1B65839  27.048   6.345   6.214
 5026POPC   C2B65840  26.935   6.186   6.610
 5026POPC   C3B65841  27.164   6.167   7.016
 5026POPC   C4B65842  27.175   6.230   7.467
 5027POPC   NC365843  14.757  15.164   5.387
 5027POPC   PO465844  15.341  15.133   5.324
 5027POPC   GL165845  15.125  15.084   5.749
 5027POPC   GL265846  14.948  14.771   5.725
 5027POPC   C1A65847  15.069  15.273   6.191
 5027POPC   D2A65848  15.151  15.109   6.616
 5027POPC   C3A65849  15.222  15.280   7.024
 5027POPC   C4A65850  15.387  15.060   7.365
 5027POPC   C1B65851  14.803  14.847   6.163
 5027POPC   C2B65852  14.644  15.056   6.568
 5027POPC   C3B65853  14.777  15.016   7.005
 5027POPC   C4B65854  14.893  14.909   7.424
 5028POPC   NC365855  42.578  11.659   5.078
 5028POPC   PO465856  42.011  11.333   5.295
 5028POPC   GL165857  42.325  11.383   5.672
 5028POPC   GL265858  42.584  11.106   5.752
 5028POPC   C1A65859  42.331  11.659   6.070
 5028POPC   D2A65860  42.081  11.698   6.465
 5028POPC   C3A65861  42.312  11.654   6.836
 5028POPC   C4A65862  42.260  11.412   7.177
 5028POPC   C1B65863  42.365  11.167   6.167
 5028POPC   C2B65864  42.433  11.198   6.634
 5028POPC   C3B65865  42.436  10.962   7.070
 5028POPC   C4B65866  42.294  10.899   7.514
 5029POPC   NC365867  10.068  17.487   5.572
 5029POPC   PO465868  10.641  17.687   5.397
 5029POPC   GL165869  10.491  17.616   5.828
 5029POPC   GL265870  10.455  17.246   5.788
 5029POPC   C1A65871  10.365  17.665   6.281
 5029POPC   D2A65872  10.179  17.550   6.693
 5029POPC   C3A65873  10.499  17.609   7.037
 5029POPC   C4A65874  10.739  17.977   7.177
 5029POPC   C1B65875  10.338  17.149   6.211
 5029POPC   C2B65876  10.548  17.216   6.620
 5029POPC   C3B65877  10.393  17.110   7.014
 5029POPC   C4B65878  10.487  17.258   7.429
 5030POPC   NC365879  23.731  19.792   5.377
 5030POPC   PO465880  24.239  19.576   5.403
 5030POPC   GL165881  24.043  19.774   5.814
 5030POPC   GL265882  23.755  20.007   5.854
 5030POPC   C1A65883  23.988  19.757   6.296
 5030POPC   D2A65884  23.747  19.629   6.684
 5030POPC   C3A65885  23.937  19.558   7.113
 5030POPC   C4A65886  23.725  19.517   7.531
 5030POPC   C1B65887  23.573  20.069   6.284
 5030POPC   C2B65888  23.575  20.113   6.748
 5030POPC   C3B65889  23.502  19.864   7.149
 5030POPC   C4B65890  23.365  19.879   7.614
 5031POPC   NC365891  23.446  27.081   5.343
 5031POPC   PO465892  24.017  26.779   5.195
 5031POPC   GL165893  23.931  26.796   5.681
 5031POPC   GL265894  23.625  26.957   5.822
 5031POPC   C1A65895  23.978  26.809   6.181
 5031POPC   D2A65896  23.998  27.028   6.638
 5031POPC   C3A65897  23.875  26.811   7.061
 5031POPC   C4A65898  24.174  26.549   7.288
 5031POPC   C1B65899  23.327  27.188   6.114
 5031POPC   C2B65900  23.264  27.184   6.579
 5031POPC   C3B65901  23.505  27.156   7.010
 5031POPC   C4B65902  23.553  27.039   7.477
 5032POPC   NC365903  15.310   3.479   5.385
 5032POPC   PO465904  14.797   3.779   5.240
 5032POPC   GL165905  15.121   3.575   5.805
 5032POPC   GL265906  15.488   3.676   5.844
 5032POPC   C1A65907  15.195   3.654   6.267
 5032POPC   D2A65908  15.348   3.496   6.664
 5032POPC   C3A65909  15.033   3.551   6.986
 5032POPC   C4A65910  15.107   3.548   7.430
 5032POPC   C1B65911  15.669   3.871   6.253
 5032POPC   C2B65912  15.579   3.975   6.722
 5032POPC   C3B65913  15.517   3.772   7.144
 5032POPC   C4B65914  15.599   3.786   7.600
 5033POPC   NC365915  40.591  41.368   5.564
 5033POPC   PO465916  40.064  41.678   5.150
 5033POPC   GL165917  39.874  41.738   5.640
 5033POPC   GL265918  39.597  42.004   5.684
 5033POPC   C1A65919  40.080  41.707   6.077
 5033POPC   D2A65920  40.267  41.447   6.397
 5033POPC   C3A65921  40.135  41.509   6.823
 5033POPC   C4A65922  39.914  41.296   7.091
 5033POPC   C1B65923  39.596  41.810   6.095
 5033POPC   C2B65924  39.793  41.730   6.515
 5033POPC   C3B65925  39.653  41.760   6.949
 5033POPC   C4B65926  39.521  41.512   7.328
 5034POPC   NC365927  18.489  25.712   5.296
 5034POPC   PO465928  18.120  25.113   5.321
 5034POPC   GL165929  18.324  25.121   5.753
 5034POPC   GL265930  18.515  25.432   5.732
 5034POPC   C1A65931  18.348  25.176   6.226
 5034POPC   D2A65932  18.456  24.946   6.613
 5034POPC   C3A65933  18.489  25.091   7.032
 5034POPC   C4A65934  18.263  25.025   7.425
 5034POPC   C1B65935  18.607  25.611   6.142
 5034POPC   C2B65936  18.453  25.549   6.588
 5034POPC   C3B65937  18.602  25.770   6.952
 5034POPC   C4B65938  18.715  25.529   7.292
 5035POPC   NC365939  44.173  30.430   5.500
 5035POPC   PO465940  43.610  30.810   5.355
 5035POPC   GL165941  43.817  30.734   5.729
 5035POPC   GL265942  43.548  30.551   5.799
 5035POPC   C1A65943  43.998  30.610   6.145
 5035POPC   D2A65944  44.027  30.345   6.526
 5035POPC   C3A65945  44.001  30.613   6.875
 5035POPC   C4A65946  44.156  30.970   7.112
 5035POPC   C1B65947  43.413  30.668   6.178
 5035POPC   C2B65948  43.580  30.662   6.535
 5035POPC   C3B65949  43.453  30.730   6.902
 5035POPC   C4B65950  43.672  30.651   7.245
 5036POPC   NC365951  31.300   4.772   5.800
 5036POPC   PO465952  31.644   5.173   5.474
 5036POPC   GL165953  31.609   5.343   5.864
 5036POPC   GL265954  31.267   5.466   5.868
 5036POPC   C1A65955  31.572   5.119   6.262
 5036POPC   D2A65956  31.797   5.068   6.606
 5036POPC   C3A65957  31.580   4.953   6.951
 5036POPC   C4A65958  31.651   5.262   7.209
 5036POPC   C1B65959  31.443   5.591   6.290
 5036POPC   C2B65960  31.578   5.525   6.749
 5036POPC   C3B65961  31.404   5.693   7.165
 5036POPC   C4B65962  31.442   5.483   7.637
 5037POPC   NC365963  10.262  10.060   5.559
 5037POPC   PO465964  10.825   9.741   5.436
 5037POPC   GL165965  10.630   9.837   5.831
 5037POPC   GL265966  10.791   9.611   6.031
 5037POPC   C1A65967  10.482   9.987   6.235
 5037POPC   D2A65968  10.535   9.772   6.629
 5037POPC   C3A65969  10.429   9.946   7.006
 5037POPC   C4A65970  10.688  10.087   7.308
 5037POPC   C1B65971  10.383   9.475   6.218
 5037POPC   C2B65972  10.220   9.371   6.614
 5037POPC   C3B65973  10.380   9.405   7.029
 5037POPC   C4B65974  10.679   9.579   7.326
 5038POPC   NC365975  10.142  11.052   5.511
 5038POPC   PO465976  10.760  11.285   5.453
 5038POPC   GL165977  10.738  11.426   5.874
 5038POPC   GL265978  10.401  11.291   5.881
 5038POPC   C1A65979  10.527  11.584   6.260
 5038POPC   D2A65980  10.375  11.354   6.608
 5038POPC   C3A65981  10.396  11.587   6.953
 5038POPC   C4A65982  10.315  11.330   7.313
 5038POPC   C1B65983  10.629  11.082   6.252
 5038POPC   C2B65984  10.568  10.854   6.644
 5038POPC   C3B65985  10.428  10.887   7.071
 5038POPC   C4B65986  10.608  10.983   7.524
 5039POPC   NC365987   1.418  44.213   5.601
 5039POPC   PO465988   1.103  43.654   5.603
 5039POPC   GL165989   1.152  43.932   5.948
 5039POPC   GL265990   0.934  44.227   5.867
 5039POPC   C1A65991   1.295  44.173   6.316
 5039POPC   D2A65992   1.438  44.255   6.747
 5039POPC   C3A65993   1.699  43.925   6.921
 5039POPC   C4A65994   1.666  43.667   7.325
 5039POPC   C1B65995   0.794  44.048   6.296
 5039POPC   C2B65996   1.035  43.849   6.665
 5039POPC   C3B65997   1.233  43.830   7.100
 5039POPC   C4B65998   1.064  43.781   7.532
 5040POPC   NC365999  20.363  39.880   5.467
 5040POPC   PO466000  20.593  39.226   5.390
 5040POPC   GL166001  20.773  39.197   5.801
 5040POPC   GL266002  20.450  39.165   5.928
 5040POPC   C1A66003  20.846  39.237   6.275
 5040POPC   D2A66004  20.751  39.287   6.724
 5040POPC   C3A66005  20.632  39.156   7.153
 5040POPC   C4A66006  20.314  39.351   7.444
 5040POPC   C1B66007  20.450  38.914   6.293
 5040POPC   C2B66008  20.571  38.804   6.694
 5040POPC   C3B66009  20.466  38.678   7.079
 5040POPC   C4B66010  20.348  38.850   7.486
 5041POPC   NC366011  23.187  34.307   5.381
 5041POPC   PO466012  23.852  34.569   5.388
 5041POPC   GL166013  23.862  34.405   5.840
 5041POPC   GL266014  23.524  34.279   5.850
 5041POPC   C1A66015  23.962  34.597   6.284
 5041POPC   D2A66016  24.050  34.806   6.697
 5041POPC   C3A66017  23.815  34.727   7.075
 5041POPC   C4A66018  23.769  34.466   7.445
 5041POPC   C1B66019  23.394  34.462   6.253
 5041POPC   C2B66020  23.590  34.501   6.660
 5041POPC   C3B66021  23.574  34.261   7.036
 5041POPC   C4B66022  23.400  34.092   7.430
 5042POPC   NC366023  13.351  23.197   5.481
 5042POPC   PO466024  12.709  22.823   5.381
 5042POPC   GL166025  12.968  22.859   5.713
 5042POPC   GL266026  12.903  23.210   5.762
 5042POPC   C1A66027  13.147  22.906   6.131
 5042POPC   D2A66028  12.939  22.863   6.541
 5042POPC   C3A66029  13.091  22.612   6.899
 5042POPC   C4A66030  12.891  22.552   7.292
 5042POPC   C1B66031  12.860  23.356   6.195
 5042POPC   C2B66032  12.716  23.309   6.639
 5042POPC   C3B66033  12.773  23.186   7.084
 5042POPC   C4B66034  12.893  23.278   7.524
 5043POPC   NC366035  43.366   9.111   5.554
 5043POPC   PO466036  42.742   8.884   5.525
 5043POPC   GL166037  43.051   8.781   5.850
 5043POPC   GL266038  43.055   9.100   6.000
 5043POPC   C1A66039  43.348   8.770   6.228
 5043POPC   D2A66040  43.263   9.021   6.585
 5043POPC   C3A66041  43.256   8.883   6.988
 5043POPC   C4A66042  43.120   8.755   7.401
 5043POPC   C1B66043  43.432   9.306   6.191
 5043POPC   C2B66044  43.382   9.530   6.579
 5043POPC   C3B66045  43.088   9.413   6.886
 5043POPC   C4B66046  42.982   9.236   7.283
 5044POPC   NC366047   9.558   6.264   5.100
 5044POPC   PO466048   9.796   5.555   5.305
 5044POPC   GL166049   9.889   5.756   5.771
 5044POPC   GL266050  10.037   6.092   5.810
 5044POPC   C1A66051   9.740   5.861   6.190
 5044POPC   D2A66052   9.448   6.102   6.480
 5044POPC   C3A66053   9.577   6.031   6.920
 5044POPC   C4A66054   9.662   5.687   7.158
 5044POPC   C1B66055  10.287   6.088   6.152
 5044POPC   C2B66056  10.189   6.017   6.558
 5044POPC   C3B66057  10.066   6.240   6.940
 5044POPC   C4B66058   9.970   6.085   7.298
 5045POPC   NC366059  43.888  27.153   5.369
 5045POPC   PO466060  43.690  27.821   5.384
 5045POPC   GL166061  43.743  27.543   5.723
 5045POPC   GL266062  44.109  27.591   5.806
 5045POPC   C1A66063  43.741  27.544   6.177
 5045POPC   D2A66064  43.876  27.722   6.558
 5045POPC   C3A66065  43.955  27.439   6.887
 5045POPC   C4A66066  43.606  27.342   7.135
 5045POPC   C1B66067  44.118  27.942   6.134
 5045POPC   C2B66068  44.173  28.134   6.545
 5045POPC   C3B66069  44.243  27.869   6.902
 5045POPC   C4B66070  44.267  28.026   7.296
 5046POPC   NC366071  30.588  33.816   5.321
 5046POPC   PO466072  31.192  33.950   5.575
 5046POPC   GL166073  30.804  33.748   5.769
 5046POPC   GL266074  30.503  34.016   5.790
 5046POPC   C1A66075  30.584  33.682   6.167
 5046POPC   D2A66076  30.834  33.795   6.512
 5046POPC   C3A66077  30.768  33.648   6.930
 5046POPC   C4A66078  30.420  33.800   7.180
 5046POPC   C1B66079  30.820  34.152   6.109
 5046POPC   C2B66080  30.934  34.304   6.539
 5046POPC   C3B66081  30.778  34.179   6.935
 5046POPC   C4B66082  30.859  33.999   7.326
 5047POPC   NC366083  18.673  36.276   5.108
 5047POPC   PO466084  18.895  35.898   5.580
 5047POPC   GL166085  19.160  36.064   5.884
 5047POPC   GL266086  18.867  36.081   6.081
 5047POPC   C1A66087  19.264  36.339   6.250
 5047POPC   D2A66088  19.077  36.245   6.621
 5047POPC   C3A66089  19.230  36.398   6.966
 5047POPC   C4A66090  19.295  36.215   7.346
 5047POPC   C1B66091  18.753  36.469   6.247
 5047POPC   C2B66092  18.707  36.595   6.596
 5047POPC   C3B66093  18.720  36.428   6.976
 5047POPC   C4B66094  18.854  36.503   7.391
 5048POPC   NC366095   7.326  38.517   5.265
 5048POPC   PO466096   7.349  39.116   5.437
 5048POPC   GL166097   7.477  38.722   5.716
 5048POPC   GL266098   7.436  38.349   5.733
 5048POPC   C1A66099   7.672  38.638   6.133
 5048POPC   D2A66100   7.466  38.656   6.540
 5048POPC   C3A66101   7.534  38.432   6.895
 5048POPC   C4A66102   7.551  38.591   7.285
 5048POPC   C1B66103   7.246  38.377   6.149
 5048POPC   C2B66104   7.215  38.180   6.558
 5048POPC   C3B66105   7.261  38.014   6.973
 5048POPC   C4B66106   7.102  38.269   7.307
 5049POPC   NC366107  39.498  12.337   5.439
 5049POPC   PO466108  39.916  11.933   5.152
 5049POPC   GL166109  40.072  12.117   5.579
 5049POPC   GL266110  39.992  11.845   5.784
 5049POPC   C1A66111  40.148  12.225   6.091
 5049POPC   D2A66112  39.821  12.243   6.461
 5049POPC   C3A66113  39.921  12.315   6.914
 5049POPC   C4A66114  40.275  12.233   7.184
 5049POPC   C1B66115  40.087  11.728   6.217
 5049POPC   C2B66116  40.237  11.919   6.609
 5049POPC   C3B66117  40.121  11.770   7.018
 5049POPC   C4B66118  39.784  11.910   7.249
 5050POPC   NC366119  17.860   6.847   5.307
 5050POPC   PO466120  17.331   6.570   5.461
 5050POPC   GL166121  17.553   6.814   5.750
 5050POPC   GL266122  17.487   6.525   5.929
 5050POPC   C1A66123  17.786   6.865   6.155
 5050POPC   D2A66124  17.876   7.047   6.587
 5050POPC   C3A66125  17.777   6.784   6.954
 5050POPC   C4A66126  17.571   6.603   7.315
 5050POPC   C1B66127  17.621   6.339   6.237
 5050POPC   C2B66128  17.479   6.190   6.559
 5050POPC   C3B66129  17.605   6.299   6.911
 5050POPC   C4B66130  17.223   6.265   7.145
 5051POPC   NC366131   4.719  43.506   5.531
 5051POPC   PO466132   4.359  42.927   5.346
 5051POPC   GL166133   4.336  43.190   5.700
 5051POPC   GL266134   4.630  43.118   5.883
 5051POPC   C1A66135   4.171  43.120   6.141
 5051POPC   D2A66136   4.371  43.045   6.517
 5051POPC   C3A66137   4.101  43.118   6.839
 5051POPC   C4A66138   4.227  43.044   7.269
 5051POPC   C1B66139   4.567  43.427   6.176
 5051POPC   C2B66140   4.547  43.525   6.605
 5051POPC   C3B66141   4.512  43.379   6.991
 5051POPC   C4B66142   4.568  43.517   7.395
 5052POPC   NC366143  20.232  44.027   5.125
 5052POPC   PO466144  19.641  44.208   5.344
 5052POPC   GL166145  19.846  44.038   5.676
 5052POPC   GL266146  20.172  44.161   5.634
 5052POPC   C1A66147  19.766  43.830   6.085
 5052POPC   D2A66148  19.960  43.811   6.501
 5052POPC   C3A66149  19.744  43.897   6.927
 5052POPC   C4A66150  19.674  43.788   7.395
 5052POPC   C1B66151  20.238  44.014   6.064
 5052POPC   C2B66152  20.250  44.213   6.452
 5052POPC   C3B66153  20.241  44.034   6.874
 5052POPC   C4B66154  20.081  44.084   7.277
 5053POPC   NC366155  34.528   4.601   5.350
 5053POPC   PO466156  34.774   4.039   5.546
 5053POPC   GL166157  34.809   4.215   5.916
 5053POPC   GL266158  34.593   4.499   5.853
 5053POPC   C1A66159  34.747   4.186   6.346
 5053POPC   D2A66160  34.406   4.204   6.615
 5053POPC   C3A66161  34.509   4.123   7.060
 5053POPC   C4A66162  34.917   4.009   7.281
 5053POPC   C1B66163  34.296   4.573   6.190
 5053POPC   C2B66164  34.036   4.577   6.583
 5053POPC   C3B66165  34.290   4.581   6.955
 5053POPC   C4B66166  34.710   4.592   7.155
 5054POPC   NC366167  20.187  11.221   5.456
 5054POPC   PO466168  20.908  11.291   5.410
 5054POPC   GL166169  20.621  11.268   5.758
 5054POPC   GL266170  20.449  11.603   5.761
 5054POPC   C1A66171  20.575  11.143   6.197
 5054POPC   D2A66172  20.370  11.004   6.595
 5054POPC   C3A66173  20.544  11.098   6.980
 5054POPC   C4A66174  20.345  11.078   7.374
 5054POPC   C1B66175  20.640  11.658   6.171
 5054POPC   C2B66176  20.730  11.459   6.585
 5054POPC   C3B66177  20.600  11.620   6.982
 5054POPC   C4B66178  20.702  11.475   7.383
 5055POPC   NC366179  17.445  23.256   5.572
 5055POPC   PO466180  17.532  22.603   5.447
 5055POPC   GL166181  17.794  22.743   5.823
 5055POPC   GL266182  17.780  23.111   5.942
 5055POPC   C1A66183  17.679  22.673   6.265
 5055POPC   D2A66184  17.276  22.582   6.496
 5055POPC   C3A66185  17.197  22.691   6.954
 5055POPC   C4A66186  17.506  22.565   7.260
 5055POPC   C1B66187  17.384  23.064   6.201
 5055POPC   C2B66188  17.356  23.062   6.635
 5055POPC   C3B66189  17.567  23.045   7.043
 5055POPC   C4B66190  17.308  22.999   7.420
 5056POPC   NC366191  39.691   0.370   5.489
 5056POPC   PO466192  40.229   0.874   5.473
 5056POPC   GL166193  39.923   0.664   5.838
 5056POPC   GL266194  39.850   0.297   5.958
 5056POPC   C1A66195  39.774   0.661   6.320
 5056POPC   D2A66196  39.765   0.774   6.781
 5056POPC   C3A66197  39.838   0.521   7.109
 5056POPC   C4A66198  39.490   0.313   7.239
 5056POPC   C1B66199  40.178   0.336   6.254
 5056POPC   C2B66200  40.056   0.255   6.691
 5056POPC   C3B66201  39.829   0.008   7.003
 5056POPC   C4B66202  39.866   0.060   7.465
 5057POPC   NC366203  32.480  43.198   5.433
 5057POPC   PO466204  31.850  43.253   5.189
 5057POPC   GL166205  32.066  43.481   5.525
 5057POPC   GL266206  31.859  43.462   5.739
 5057POPC   C1A66207  32.317  43.473   5.994
 5057POPC   D2A66208  32.553  43.339   6.399
 5057POPC   C3A66209  32.454  43.329   6.858
 5057POPC   C4A66210  32.480  43.133   7.313
 5057POPC   C1B66211  31.882  43.229   6.120
 5057POPC   C2B66212  32.020  43.280   6.555
 5057POPC   C3B66213  31.987  43.160   6.996
 5057POPC   C4B66214  31.959  43.086   7.436
 5058POPC   NC366215  10.973  19.620   5.418
 5058POPC   PO466216  11.475  19.986   5.487
 5058POPC   GL166217  11.262  19.817   5.804
 5058POPC   GL266218  11.044  20.029   5.930
 5058POPC   C1A66219  11.405  19.626   6.178
 5058POPC   D2A66220  11.642  19.785   6.515
 5058POPC   C3A66221  11.381  19.701   6.843
 5058POPC   C4A66222  11.445  19.640   7.263
 5058POPC   C1B66223  11.421  20.176   6.163
 5058POPC   C2B66224  11.508  20.292   6.592
 5058POPC   C3B66225  11.238  20.206   6.929
 5058POPC   C4B66226  10.981  19.861   7.123
 5059POPC   NC366227  37.990  34.464   5.247
 5059POPC   PO466228  37.375  34.396   5.374
 5059POPC   GL166229  37.611  34.587   5.732
 5059POPC   GL266230  37.972  34.719   5.764
 5059POPC   C1A66231  37.482  34.536   6.170
 5059POPC   D2A66232  37.510  34.307   6.534
 5059POPC   C3A66233  37.477  34.390   6.989
 5059POPC   C4A66234  37.787  34.314   7.306
 5059POPC   C1B66235  37.806  34.910   6.154
 5059POPC   C2B66236  37.695  34.793   6.593
 5059POPC   C3B66237  37.810  34.783   7.041
 5059POPC   C4B66238  37.558  34.750   7.372
 5060POPC   NC366239  38.569   9.420   5.351
 5060POPC   PO466240  38.645   8.757   5.348
 5060POPC   GL166241  38.419   8.842   5.729
 5060POPC   GL266242  38.338   9.172   5.827
 5060POPC   C1A66243  38.358   8.706   6.143
 5060POPC   D2A66244  38.608   8.835   6.484
 5060POPC   C3A66245  38.435   8.806   6.854
 5060POPC   C4A66246  38.226   8.763   7.227
 5060POPC   C1B66247  38.273   9.183   6.300
 5060POPC   C2B66248  38.469   9.331   6.695
 5060POPC   C3B66249  38.518   9.210   7.142
 5060POPC   C4B66250  38.576   9.110   7.599
 5061POPC   NC366251  41.073  26.930   5.122
 5061POPC   PO466252  41.651  26.761   5.147
 5061POPC   GL166253  41.541  26.787   5.640
 5061POPC   GL266254  41.199  26.649   5.721
 5061POPC   C1A66255  41.645  26.674   6.099
 5061POPC   D2A66256  41.873  26.746   6.515
 5061POPC   C3A66257  41.704  26.742   6.938
 5061POPC   C4A66258  41.498  26.964   7.273
 5061POPC   C1B66259  41.117  26.721   6.175
 5061POPC   C2B66260  41.326  26.606   6.574
 5061POPC   C3B66261  41.290  26.439   7.003
 5061POPC   C4B66262  41.370  26.517   7.468
 5062POPC   NC366263  31.277   0.339   5.620
 5062POPC   PO466264  30.732   0.595   5.333
 5062POPC   GL166265  30.622   0.537   5.745
 5062POPC   GL266266  30.748   0.204   5.813
 5062POPC   C1A66267  30.649   0.508   6.214
 5062POPC   D2A66268  30.689   0.217   6.567
 5062POPC   C3A66269  30.991   0.363   6.863
 5062POPC   C4A66270  30.930   0.672   7.151
 5062POPC   C1B66271  30.291   0.222   5.992
 5062POPC   C2B66272  30.170   0.212   6.432
 5062POPC   C3B66273  30.206   0.193   6.864
 5062POPC   C4B66274  30.535   0.349   7.085
 5063POPC   NC366275  14.761   8.429   5.391
 5063POPC   PO466276  14.465   7.976   5.007
 5063POPC   GL166277  14.462   8.019   5.537
 5063POPC   GL266278  14.252   8.317   5.668
 5063POPC   C1A66279  14.588   8.136   6.023
 5063POPC   D2A66280  14.472   8.306   6.464
 5063POPC   C3A66281  14.433   8.132   6.921
 5063POPC   C4A66282  14.592   8.071   7.389
 5063POPC   C1B66283  14.081   8.224   6.099
 5063POPC   C2B66284  13.940   8.296   6.519
 5063POPC   C3B66285  14.042   8.453   6.920
 5063POPC   C4B66286  14.103   8.227   7.306
 5064POPC   NC366287  44.376   6.906   5.483
 5064POPC   PO466288   0.050   6.819   5.582
 5064POPC   GL166289  44.706   6.743   5.828
 5064POPC   GL266290  44.579   6.426   5.666
 5064POPC   C1A66291  44.665   6.836   6.250
 5064POPC   D2A66292  44.910   6.762   6.606
 5064POPC   C3A66293  44.609   6.851   6.858
 5064POPC   C4A66294  44.485   6.850   7.247
 5064POPC   C1B66295  44.630   6.325   6.107
 5064POPC   C2B66296  44.503   6.435   6.536
 5064POPC   C3B66297  44.640   6.352   6.941
 5064POPC   C4B66298  44.520   6.327   7.343
 5065POPC   NC366299  18.398  44.038   5.229
 5065POPC   PO466300  18.101  43.555   5.249
 5065POPC   GL166301  18.238  43.574   5.682
 5065POPC   GL266302  18.445  43.901   5.750
 5065POPC   C1A66303  18.069  43.738   6.069
 5065POPC   D2A66304  18.275  43.802   6.458
 5065POPC   C3A66305  18.253  43.767   6.906
 5065POPC   C4A66306  18.065  43.969   7.247
 5065POPC   C1B66307  18.615  44.089   6.151
 5065POPC   C2B66308  18.623  44.132   6.611
 5065POPC   C3B66309  18.508  44.215   7.050
 5065POPC   C4B66310  18.412  44.261   7.496
 5066POPC   NC366311  41.700   6.482   5.137
 5066POPC   PO466312  41.179   6.861   5.219
 5066POPC   GL166313  41.496   6.804   5.593
 5066POPC   GL266314  41.674   6.465   5.703
 5066POPC   C1A66315  41.528   6.810   6.075
 5066POPC   D2A66316  41.805   6.679   6.448
 5066POPC   C3A66317  41.793   6.869   6.885
 5066POPC   C4A66318  42.001   7.151   7.199
 5066POPC   C1B66319  41.511   6.305   6.166
 5066POPC   C2B66320  41.371   6.429   6.627
 5066POPC   C3B66321  41.459   6.539   7.093
 5066POPC   C4B66322  41.818   6.670   7.404
 5067POPC   NC366323  42.447  23.354   5.191
 5067POPC   PO466324  42.238  24.014   5.386
 5067POPC   GL166325  42.353  23.764   5.760
 5067POPC   GL266326  42.240  23.455   5.662
 5067POPC   C1A66327  42.434  23.759   6.227
 5067POPC   D2A66328  42.404  23.969   6.620
 5067POPC   C3A66329  42.593  23.874   7.021
 5067POPC   C4A66330  42.290  23.908   7.342
 5067POPC   C1B66331  42.211  23.310   6.077
 5067POPC   C2B66332  42.013  23.392   6.476
 5067POPC   C3B66333  42.001  23.273   6.903
 5067POPC   C4B66334  42.317  23.432   7.116
 5068POPC   NC366335  42.427  28.746   5.383
 5068POPC   PO466336  42.349  29.470   5.366
 5068POPC   GL166337  42.448  29.193   5.757
 5068POPC   GL266338  42.152  29.015   5.794
 5068POPC   C1A66339  42.550  29.266   6.239
 5068POPC   D2A66340  42.624  29.569   6.640
 5068POPC   C3A66341  42.649  29.385   7.075
 5068POPC   C4A66342  42.724  28.966   7.203
 5068POPC   C1B66343  42.056  29.351   6.096
 5068POPC   C2B66344  42.082  29.291   6.528
 5068POPC   C3B66345  42.233  29.108   6.908
 5068POPC   C4B66346  42.140  29.458   7.165
 5069POPC   NC366347  39.083   5.272   5.021
 5069POPC   PO466348  39.068   5.866   5.468
 5069POPC   GL166349  39.075   5.934   5.868
 5069POPC   GL266350  38.724   5.850   5.915
 5069POPC   C1A66351  39.401   5.963   6.183
 5069POPC   D2A66352  39.488   6.141   6.566
 5069POPC   C3A66353  39.559   5.874   6.901
 5069POPC   C4A66354  39.352   5.728   7.206
 5069POPC   C1B66355  38.891   5.868   6.359
 5069POPC   C2B66356  39.034   5.946   6.795
 5069POPC   C3B66357  38.856   5.849   7.177
 5069POPC   C4B66358  38.807   5.590   7.536
 5070POPC   NC366359  19.518  11.503   5.520
 5070POPC   PO466360  19.843  10.926   5.370
 5070POPC   GL166361  19.837  11.074   5.812
 5070POPC   GL266362  19.901  11.441   5.863
 5070POPC   C1A66363  20.042  11.123   6.224
 5070POPC   D2A66364  19.886  11.143   6.655
 5070POPC   C3A66365  20.074  11.356   7.011
 5070POPC   C4A66366  19.826  11.068   7.250
 5070POPC   C1B66367  19.585  11.378   6.209
 5070POPC   C2B66368  19.425  11.366   6.655
 5070POPC   C3B66369  19.562  11.448   7.036
 5070POPC   C4B66370  19.725  11.535   7.423
 5071POPC   NC366371   5.992  13.106   5.505
 5071POPC   PO466372   5.733  13.794   5.445
 5071POPC   GL166373   5.893  13.577   5.868
 5071POPC   GL266374   6.053  13.236   5.993
 5071POPC   C1A66375   6.033  13.641   6.313
 5071POPC   D2A66376   5.810  13.576   6.723
 5071POPC   C3A66377   6.007  13.700   7.087
 5071POPC   C4A66378   6.033  13.816   7.534
 5071POPC   C1B66379   5.692  13.273   6.297
 5071POPC   C2B66380   5.603  13.127   6.755
 5071POPC   C3B66381   5.699  13.294   7.218
 5071POPC   C4B66382   5.643  13.403   7.687
 5072POPC   NC366383  40.892  32.611   5.447
 5072POPC   PO466384  40.568  33.172   5.468
 5072POPC   GL166385  40.706  33.069   5.832
 5072POPC   GL266386  40.607  32.777   5.833
 5072POPC   C1A66387  40.896  33.045   6.217
 5072POPC   D2A66388  40.795  32.928   6.610
 5072POPC   C3A66389  40.681  33.238   6.889
 5072POPC   C4A66390  40.933  33.084   7.136
 5072POPC   C1B66391  40.767  32.563   6.187
 5072POPC   C2B66392  40.691  32.432   6.607
 5072POPC   C3B66393  40.826  32.589   7.021
 5072POPC   C4B66394  40.771  32.752   7.453
 5073POPC   NC366395  16.494  21.646   5.519
 5073POPC   PO466396  17.052  21.365   5.743
 5073POPC   GL166397  16.670  21.435   5.944
 5073POPC   GL266398  16.550  21.128   5.975
 5073POPC   C1A66399  16.561  21.566   6.359
 5073POPC   D2A66400  16.749  21.866   6.636
 5073POPC   C3A66401  16.840  21.621   6.974
 5073POPC   C4A66402  16.510  21.465   7.203
 5073POPC   C1B66403  16.803  21.112   6.339
 5073POPC   C2B66404  16.658  21.194   6.724
 5073POPC   C3B66405  16.589  20.988   7.074
 5073POPC   C4B66406  16.861  21.166   7.404
 5074POPC   NC366407   5.119  19.879   5.223
 5074POPC   PO466408   4.740  19.512   5.669
 5074POPC   GL166409   4.927  19.788   5.924
 5074POPC   GL266410   5.001  20.052   5.716
 5074POPC   C1A66411   5.011  19.810   6.373
 5074POPC   D2A66412   5.387  19.609   6.512
 5074POPC   C3A66413   5.393  19.533   6.923
 5074POPC   C4A66414   5.228  19.712   7.276
 5074POPC   C1B66415   5.300  20.099   6.083
 5074POPC   C2B66416   5.435  20.140   6.500
 5074POPC   C3B66417   5.286  20.079   6.916
 5074POPC   C4B66418   5.217  20.230   7.341
 5075POPC   NC366419  10.977  39.038   5.353
 5075POPC   PO466420  10.353  39.293   5.111
 5075POPC   GL166421  10.369  39.387   5.610
 5075POPC   GL266422  10.467  39.083   5.753
 5075POPC   C1A66423  10.590  39.455   6.078
 5075POPC   D2A66424  10.542  39.315   6.536
 5075POPC   C3A66425  10.608  39.555   6.944
 5075POPC   C4A66426  10.615  39.269   7.261
 5075POPC   C1B66427  10.564  38.929   6.179
 5075POPC   C2B66428  10.516  38.768   6.600
 5075POPC   C3B66429  10.409  38.856   7.033
 5075POPC   C4B66430  10.384  38.884   7.511
 5076POPC   NC366431  30.170   0.565   5.383
 5076POPC   PO466432  29.513   0.709   5.327
 5076POPC   GL166433  29.765   0.703   5.672
 5076POPC   GL266434  29.752   0.338   5.697
 5076POPC   C1A66435  29.775   0.639   6.114
 5076POPC   D2A66436  29.615   0.638   6.524
 5076POPC   C3A66437  29.955   0.695   6.784
 5076POPC   C4A66438  30.105   0.593   7.165
 5076POPC   C1B66439  29.780   0.124   6.114
 5076POPC   C2B66440  29.684   0.151   6.577
 5076POPC   C3B66441  29.719   0.290   7.020
 5076POPC   C4B66442  29.625   0.225   7.482
 5077POPC   NC366443  35.025   5.289   5.441
 5077POPC   PO466444  34.394   5.036   5.395
 5077POPC   GL166445  34.678   5.014   5.722
 5077POPC   GL266446  34.658   5.390   5.776
 5077POPC   C1A66447  34.597   5.014   6.171
 5077POPC   D2A66448  34.473   4.893   6.592
 5077POPC   C3A66449  34.770   5.039   6.916
 5077POPC   C4A66450  35.040   5.107   7.245
 5077POPC   C1B66451  34.585   5.534   6.180
 5077POPC   C2B66452  34.348   5.385   6.548
 5077POPC   C3B66453  34.317   5.239   6.966
 5077POPC   C4B66454  34.539   5.342   7.372
 5078POPC   NC366455   6.562  14.937   5.318
 5078POPC   PO466456   6.598  14.295   5.425
 5078POPC   GL166457   6.709  14.660   5.759
 5078POPC   GL266458   6.785  14.365   5.906
 5078POPC   C1A66459   6.740  14.699   6.269
 5078POPC   D2A66460   6.744  14.367   6.610
 5078POPC   C3A66461   6.548  14.476   6.997
 5078POPC   C4A66462   6.634  14.543   7.434
 5078POPC   C1B66463   6.428  14.089   6.039
 5078POPC   C2B66464   6.413  13.953   6.439
 5078POPC   C3B66465   6.407  14.005   6.845
 5078POPC   C4B66466   6.163  14.173   7.158
 5079POPC   NC366467   7.181  43.476   5.104
 5079POPC   PO466468   7.531  42.857   5.436
 5079POPC   GL166469   7.328  43.204   5.649
 5079POPC   GL266470   7.653  43.361   5.730
 5079POPC   C1A66471   7.317  43.200   6.128
 5079POPC   D2A66472   7.423  42.910   6.492
 5079POPC   C3A66473   7.498  43.083   6.908
 5079POPC   C4A66474   7.236  43.180   7.262
 5079POPC   C1B66475   7.651  43.576   6.157
 5079POPC   C2B66476   7.440  43.529   6.567
 5079POPC   C3B66477   7.323  43.611   7.006
 5079POPC   C4B66478   7.359  43.620   7.485
 5080POPC   NC366479  10.292  32.630   5.548
 5080POPC   PO466480  10.535  32.002   5.334
 5080POPC   GL166481  10.537  32.162   5.756
 5080POPC   GL266482  10.267  32.037   5.955
 5080POPC   C1A66483  10.679  32.194   6.202
 5080POPC   D2A66484  10.510  32.414   6.578
 5080POPC   C3A66485  10.786  32.353   6.918
 5080POPC   C4A66486  10.772  32.051   7.236
 5080POPC   C1B66487  10.235  31.992   6.407
 5080POPC   C2B66488  10.453  31.922   6.802
 5080POPC   C3B66489  10.293  32.208   7.106
 5080POPC   C4B66490  10.037  32.236   7.461
 5081POPC   NC366491  34.462  12.099   5.364
 5081POPC   PO466492  34.952  11.781   5.674
 5081POPC   GL166493  34.720  12.119   5.817
 5081POPC   GL266494  34.469  11.879   5.866
 5081POPC   C1A66495  34.562  12.306   6.194
 5081POPC   D2A66496  34.477  12.206   6.642
 5081POPC   C3A66497  34.613  12.477   6.985
 5081POPC   C4A66498  34.579  12.252   7.339
 5081POPC   C1B66499  34.602  11.816   6.311
 5081POPC   C2B66500  34.526  11.700   6.751
 5081POPC   C3B66501  34.627  11.723   7.229
 5081POPC   C4B66502  34.420  11.753   7.644
 5082POPC   NC366503  21.207  11.694   5.455
 5082POPC   PO466504  21.321  12.305   5.717
 5082POPC   GL166505  21.360  11.974   5.966
 5082POPC   GL266506  21.618  11.772   5.861
 5082POPC   C1A66507  21.406  12.130   6.374
 5082POPC   D2A66508  21.195  12.046   6.719
 5082POPC   C3A66509  21.280  12.333   6.989
 5082POPC   C4A66510  21.152  12.239   7.347
 5082POPC   C1B66511  21.662  11.690   6.327
 5082POPC   C2B66512  21.698  11.916   6.746
 5082POPC   C3B66513  21.576  11.956   7.178
 5082POPC   C4B66514  21.708  11.760   7.563
 5083POPC   NC366515  17.343  21.585   5.443
 5083POPC   PO466516  17.231  20.921   5.312
 5083POPC   GL166517  17.529  21.193   5.710
 5083POPC   GL266518  17.711  21.543   5.764
 5083POPC   C1A66519  17.525  21.316   6.197
 5083POPC   D2A66520  17.180  21.371   6.569
 5083POPC   C3A66521  17.249  21.226   7.017
 5083POPC   C4A66522  17.569  21.191   7.343
 5083POPC   C1B66523  17.494  21.811   6.087
 5083POPC   C2B66524  17.542  21.732   6.532
 5083POPC   C3B66525  17.341  21.723   6.918
 5083POPC   C4B66526  17.471  21.684   7.311
 5084POPC   NC366527  41.235  40.339   5.335
 5084POPC   PO466528  40.761  39.950   5.519
 5084POPC   GL166529  40.814  40.105   5.878
 5084POPC   GL266530  40.856  39.770   5.990
 5084POPC   C1A66531  40.651  40.173   6.283
 5084POPC   D2A66532  40.731  39.994   6.673
 5084POPC   C3A66533  40.656  40.215   7.067
 5084POPC   C4A66534  40.880  40.208   7.461
 5084POPC   C1B66535  41.041  39.571   6.309
 5084POPC   C2B66536  41.009  39.525   6.723
 5084POPC   C3B66537  40.943  39.770   7.073
 5084POPC   C4B66538  40.659  39.774   7.404
 5085POPC   NC366539  30.756  43.204   5.408
 5085POPC   PO466540  30.176  42.765   5.436
 5085POPC   GL166541  30.475  42.968   5.766
 5085POPC   GL266542  30.884  43.018   5.847
 5085POPC   C1A66543  30.544  43.036   6.214
 5085POPC   D2A66544  30.322  42.795   6.523
 5085POPC   C3A66545  30.537  42.859   6.902
 5085POPC   C4A66546  30.374  42.909   7.281
 5085POPC   C1B66547  31.084  43.230   6.193
 5085POPC   C2B66548  31.037  43.416   6.602
 5085POPC   C3B66549  31.066  43.349   7.026
 5085POPC   C4B66550  31.015  42.952   7.216
 5086POPC   NC366551  19.375   2.993   5.138
 5086POPC   PO466552  19.273   2.407   5.518
 5086POPC   GL166553  18.999   2.464   5.843
 5086POPC   GL266554  18.849   2.806   5.853
 5086POPC   C1A66555  19.083   2.581   6.257
 5086POPC   D2A66556  19.395   2.557   6.579
 5086POPC   C3A66557  19.152   2.580   6.936
 5086POPC   C4A66558  19.254   2.489   7.326
 5086POPC   C1B66559  18.919   3.073   6.198
 5086POPC   C2B66560  19.037   2.963   6.591
 5086POPC   C3B66561  18.949   3.041   6.982
 5086POPC   C4B66562  19.089   2.954   7.339
 5087POPC   NC366563   8.871  44.196   5.354
 5087POPC   PO466564   9.347  44.667   5.272
 5087POPC   GL166565   9.225  44.507   5.694
 5087POPC   GL266566   8.876  44.536   5.748
 5087POPC   C1A66567   9.246  44.595   6.124
 5087POPC   D2A66568   9.070  44.620   6.525
 5087POPC   C3A66569   9.296  44.689   6.877
 5087POPC   C4A66570   9.194  44.825   7.282
 5087POPC   C1B66571   8.785  44.346   6.168
 5087POPC   C2B66572   8.582  44.477   6.585
 5087POPC   C3B66573   8.786  44.552   6.991
 5087POPC   C4B66574   8.803  44.585   7.447
 5088POPC   NC366575  35.766   1.747   5.283
 5088POPC   PO466576  36.296   2.099   5.472
 5088POPC   GL166577  36.046   1.859   5.760
 5088POPC   GL266578  35.915   2.102   5.993
 5088POPC   C1A66579  36.224   1.697   6.154
 5088POPC   D2A66580  36.325   1.934   6.528
 5088POPC   C3A66581  36.282   1.751   6.909
 5088POPC   C4A66582  36.122   1.893   7.280
 5088POPC   C1B66583  36.324   2.262   6.133
 5088POPC   C2B66584  36.425   2.428   6.569
 5088POPC   C3B66585  36.344   2.269   6.994
 5088POPC   C4B66586  36.330   2.326   7.464
 5089POPC   NC366587   8.669  30.570   5.104
 5089POPC   PO466588   9.247  30.839   5.208
 5089POPC   GL166589   9.061  30.638   5.621
 5089POPC   GL266590   8.699  30.563   5.682
 5089POPC   C1A66591   9.128  30.712   6.097
 5089POPC   D2A66592   9.309  30.807   6.516
 5089POPC   C3A66593   9.103  30.766   6.907
 5089POPC   C4A66594   9.213  31.053   7.159
 5089POPC   C1B66595   8.702  30.425   6.139
 5089POPC   C2B66596   8.785  30.685   6.529
 5089POPC   C3B66597   8.584  30.616   6.978
 5089POPC   C4B66598   8.690  30.507   7.417
 5090POPC   NC366599  36.613  27.852   5.482
 5090POPC   PO466600  36.985  27.371   5.189
 5090POPC   GL166601  37.019  27.570   5.634
 5090POPC   GL266602  36.708  27.454   5.809
 5090POPC   C1A66603  37.102  27.630   6.114
 5090POPC   D2A66604  37.256  27.416   6.516
 5090POPC   C3A66605  37.026  27.365   6.881
 5090POPC   C4A66606  36.894  27.598   7.244
 5090POPC   C1B66607  36.607  27.701   6.170
 5090POPC   C2B66608  36.763  27.716   6.587
 5090POPC   C3B66609  36.534  27.564   6.923
 5090POPC   C4B66610  36.337  27.672   7.272
 5091POPC   NC366611  41.303  23.120   5.419
 5091POPC   PO466612  42.000  23.173   5.303
 5091POPC   GL166613  41.803  22.983   5.724
 5091POPC   GL266614  41.440  22.901   5.849
 5091POPC   C1A66615  41.733  23.059   6.201
 5091POPC   D2A66616  41.523  22.787   6.531
 5091POPC   C3A66617  41.642  22.912   6.937
 5091POPC   C4A66618  41.422  23.213   7.225
 5091POPC   C1B66619  41.177  22.715   6.161
 5091POPC   C2B66620  41.001  22.783   6.593
 5091POPC   C3B66621  41.156  22.656   7.004
 5091POPC   C4B66622  41.447  22.700   7.347
 5092POPC   NC366623  43.238  27.836   5.469
 5092POPC   PO466624  43.356  27.135   5.405
 5092POPC   GL166625  43.128  27.363   5.780
 5092POPC   GL266626  43.280  27.669   5.942
 5092POPC   C1A66627  43.103  27.353   6.280
 5092POPC   D2A66628  43.360  27.614   6.557
 5092POPC   C3A66629  43.207  27.695   6.981
 5092POPC   C4A66630  43.031  27.379   7.266
 5092POPC   C1B66631  43.045  27.896   6.274
 5092POPC   C2B66632  42.767  27.723   6.592
 5092POPC   C3B66633  42.664  27.644   7.028
 5092POPC   C4B66634  42.870  27.884   7.370
 5093POPC   NC366635  30.772  44.202   5.446
 5093POPC   PO466636  30.493  43.568   5.563
 5093POPC   GL166637  30.720  43.830   5.798
 5093POPC   GL266638  30.919  43.533   5.828
 5093POPC   C1A66639  30.673  44.145   6.149
 5093POPC   D2A66640  30.596  44.316   6.584
 5093POPC   C3A66641  30.373  44.079   6.906
 5093POPC   C4A66642  30.376  43.855   7.296
 5093POPC   C1B66643  30.695  43.574   6.227
 5093POPC   C2B66644  30.789  43.851   6.559
 5093POPC   C3B66645  30.706  43.701   6.935
 5093POPC   C4B66646  30.903  43.790   7.300
 5094POPC   NC366647  31.002  19.274   5.405
 5094POPC   PO466648  30.778  18.706   5.411
 5094POPC   GL166649  30.521  18.857   5.762
 5094POPC   GL266650  30.852  18.941   5.873
 5094POPC   C1A66651  30.532  18.841   6.251
 5094POPC   D2A66652  30.503  19.173   6.564
 5094POPC   C3A66653  30.597  19.111   6.998
 5094POPC   C4A66654  30.585  18.837   7.346
 5094POPC   C1B66655  31.051  18.934   6.269
 5094POPC   C2B66656  31.004  19.068   6.677
 5094POPC   C3B66657  31.057  18.908   7.078
 5094POPC   C4B66658  31.326  18.889   7.408
 5095POPC   NC366659  19.469  27.674   5.125
 5095POPC   PO466660  19.116  27.800   5.724
 5095POPC   GL166661  19.085  27.442   5.972
 5095POPC   GL266662  18.815  27.227   5.976
 5095POPC   C1A66663  19.075  27.424   6.385
 5095POPC   D2A66664  19.123  27.787   6.623
 5095POPC   C3A66665  19.315  27.692   6.984
 5095POPC   C4A66666  19.038  27.551   7.288
 5095POPC   C1B66667  18.573  27.418   6.264
 5095POPC   C2B66668  18.658  27.485   6.670
 5095POPC   C3B66669  18.640  27.292   7.050
 5095POPC   C4B66670  18.650  27.271   7.494
 5096POPC   NC366671  17.397   5.287   5.302
 5096POPC   PO466672  17.798   4.775   5.307
 5096POPC   GL166673  17.443   4.871   5.649
 5096POPC   GL266674  17.181   5.148   5.755
 5096POPC   C1A66675  17.511   4.937   6.129
 5096POPC   D2A66676  17.745   5.081   6.524
 5096POPC   C3A66677  17.526   4.944   6.916
 5096POPC   C4A66678  17.716   4.752   7.265
 5096POPC   C1B66679  17.219   5.361   6.153
 5096POPC   C2B66680  17.256   5.222   6.569
 5096POPC   C3B66681  17.150   5.378   6.969
 5096POPC   C4B66682  17.331   5.523   7.326
 5097POPC   NC366683   0.161  22.350   5.104
 5097POPC   PO466684   0.648  22.018   5.416
 5097POPC   GL166685   0.441  22.147   5.800
 5097POPC   GL266686   0.053  22.199   5.808
 5097POPC   C1A66687   0.582  22.304   6.203
 5097POPC   D2A66688   0.694  22.119   6.584
 5097POPC   C3A66689   0.717  22.428   6.900
 5097POPC   C4A66690   0.673  22.568   7.318
 5097POPC   C1B66691   0.185  21.959   6.208
 5097POPC   C2B66692   0.213  21.831   6.652
 5097POPC   C3B66693   0.049  22.034   7.035
 5097POPC   C4B66694   0.073  22.072   7.506
 5098POPC   NC366695  30.192  10.815   5.489
 5098POPC   PO466696  30.242  10.093   5.438
 5098POPC   GL166697  30.063  10.405   5.775
 5098POPC   GL266698  29.723  10.521   5.821
 5098POPC   C1A66699  30.077  10.712   6.168
 5098POPC   D2A66700  30.319  10.712   6.588
 5098POPC   C3A66701  30.064  10.633   6.983
 5098POPC   C4A66702  29.770  10.654   7.351
 5098POPC   C1B66703  29.649  10.431   6.286
 5098POPC   C2B66704  29.617  10.501   6.746
 5098POPC   C3B66705  29.340  10.656   7.078
 5098POPC   C4B66706  29.273  10.515   7.504
 5099POPC   NC366707  19.337   2.842   5.651
 5099POPC   PO466708  19.885   2.523   5.330
 5099POPC   GL166709  19.818   2.695   5.746
 5099POPC   GL266710  19.547   2.543   6.003
 5099POPC   C1A66711  19.953   2.879   6.117
 5099POPC   D2A66712  19.844   2.842   6.549
 5099POPC   C3A66713  19.977   3.087   6.887
 5099POPC   C4A66714  20.015   2.744   7.181
 5099POPC   C1B66715  19.445   2.956   6.257
 5099POPC   C2B66716  19.475   3.192   6.653
 5099POPC   C3B66717  19.501   2.953   7.028
 5099POPC   C4B66718  19.698   3.080   7.401
 5100POPC   NC366719  37.905   7.798   5.480
 5100POPC   PO466720  37.799   7.185   5.223
 5100POPC   GL166721  37.588   7.130   5.648
 5100POPC   GL266722  37.717   7.407   5.762
 5100POPC   C1A66723  37.657   7.023   6.132
 5100POPC   D2A66724  37.974   7.107   6.455
 5100POPC   C3A66725  37.862   7.341   6.811
 5100POPC   C4A66726  37.704   7.277   7.229
 5100POPC   C1B66727  37.816   7.514   6.178
 5100POPC   C2B66728  37.998   7.810   6.467
 5100POPC   C3B66729  38.001   7.992   6.869
 5100POPC   C4B66730  38.010   7.687   7.187
 5101POPC   NC366731  13.579  31.900   5.460
 5101POPC   PO466732  13.799  31.297   5.158
 5101POPC   GL166733  13.785  31.365   5.617
 5101POPC   GL266734  13.708  31.037   5.717
 5101POPC   C1A66735  13.657  31.545   6.025
 5101POPC   D2A66736  13.308  31.632   6.323
 5101POPC   C3A66737  13.436  31.624   6.763
 5101POPC   C4A66738  13.377  31.854   7.150
 5101POPC   C1B66739  13.905  31.073   6.095
 5101POPC   C2B66740  13.914  30.924   6.527
 5101POPC   C3B66741  13.682  31.126   6.847
 5101POPC   C4B66742  13.648  31.409   7.185
 5102POPC   NC366743   0.903   4.166   5.244
 5102POPC   PO466744   1.437   3.859   5.610
 5102POPC   GL166745   1.032   4.046   5.738
 5102POPC   GL266746   0.760   3.862   5.839
 5102POPC   C1A66747   0.935   4.384   6.051
 5102POPC   D2A66748   1.213   4.680   6.337
 5102POPC   C3A66749   1.373   4.597   6.793
 5102POPC   C4A66750   1.124   4.355   7.121
 5102POPC   C1B66751   1.029   3.897   6.250
 5102POPC   C2B66752   1.222   3.862   6.709
 5102POPC   C3B66753   1.133   3.847   7.168
 5102POPC   C4B66754   0.851   4.053   7.486
 5103POPC   NC366755  26.311  24.997   5.437
 5103POPC   PO466756  25.781  25.291   5.322
 5103POPC   GL166757  26.029  25.428   5.699
 5103POPC   GL266758  26.362  25.386   5.795
 5103POPC   C1A66759  26.032  25.531   6.174
 5103POPC   D2A66760  26.237  25.693   6.557
 5103POPC   C3A66761  26.073  25.626   7.011
 5103POPC   C4A66762  25.902  25.346   7.355
 5103POPC   C1B66763  26.368  25.160   6.231
 5103POPC   C2B66764  26.166  25.181   6.689
 5103POPC   C3B66765  26.335  25.151   7.142
 5103POPC   C4B66766  26.317  25.172   7.626
 5104POPC   NC366767  19.972  38.335   5.217
 5104POPC   PO466768  19.825  38.893   5.565
 5104POPC   GL166769  19.992  38.494   5.721
 5104POPC   GL266770  20.161  38.696   5.930
 5104POPC   C1A66771  19.818  38.247   6.093
 5104POPC   D2A66772  19.859  38.272   6.578
 5104POPC   C3A66773  19.647  38.492   6.933
 5104POPC   C4A66774  19.436  38.313   7.296
 5104POPC   C1B66775  20.245  38.434   6.282
 5104POPC   C2B66776  20.362  38.318   6.691
 5104POPC   C3B66777  20.112  38.319   7.060
 5104POPC   C4B66778  19.921  38.445   7.459
 5105POPC   NC366779  30.828  14.046   5.421
 5105POPC   PO466780  30.699  13.405   5.154
 5105POPC   GL166781  30.883  13.557   5.579
 5105POPC   GL266782  30.565  13.738   5.750
 5105POPC   C1A66783  30.935  13.578   6.057
 5105POPC   D2A66784  30.766  13.570   6.468
 5105POPC   C3A66785  30.955  13.696   6.865
 5105POPC   C4A66786  31.089  13.505   7.250
 5105POPC   C1B66787  30.360  13.713   6.178
 5105POPC   C2B66788  30.268  13.465   6.548
 5105POPC   C3B66789  30.421  13.471   6.944
 5105POPC   C4B66790  30.581  13.736   7.229
 5106POPC   NC366791  12.598  17.613   5.283
 5106POPC   PO466792  13.210  17.336   5.495
 5106POPC   GL166793  12.999  17.487   5.872
 5106POPC   GL266794  12.647  17.621   5.821
 5106POPC   C1A66795  12.896  17.375   6.301
 5106POPC   D2A66796  12.683  17.431   6.705
 5106POPC   C3A66797  12.925  17.453   7.100
 5106POPC   C4A66798  13.146  17.553   7.490
 5106POPC   C1B66799  12.431  17.613   6.227
 5106POPC   C2B66800  12.368  17.844   6.618
 5106POPC   C3B66801  12.462  17.754   7.055
 5106POPC   C4B66802  12.682  17.744   7.470
 5107POPC   NC366803  36.753  17.115   5.274
 5107POPC   PO466804  36.977  17.780   5.252
 5107POPC   GL166805  37.074  17.461   5.606
 5107POPC   GL266806  37.160  17.673   5.882
 5107POPC   C1A66807  37.063  17.175   6.021
 5107POPC   D2A66808  37.188  17.052   6.492
 5107POPC   C3A66809  37.023  17.207   6.925
 5107POPC   C4A66810  36.920  17.172   7.398
 5107POPC   C1B66811  37.125  17.583   6.345
 5107POPC   C2B66812  36.794  17.574   6.660
 5107POPC   C3B66813  36.801  17.626   7.106
 5107POPC   C4B66814  36.618  17.705   7.500
 5108POPC   NC366815  30.860  31.077   5.496
 5108POPC   PO466816  30.958  31.720   5.390
 5108POPC   GL166817  30.786  31.565   5.783
 5108POPC   GL266818  30.880  31.263   5.968
 5108POPC   C1A66819  30.716  31.700   6.223
 5108POPC   D2A66820  30.563  31.598   6.645
 5108POPC   C3A66821  30.764  31.695   7.053
 5108POPC   C4A66822  30.494  31.824   7.411
 5108POPC   C1B66823  31.026  31.339   6.392
 5108POPC   C2B66824  30.844  31.207   6.778
 5108POPC   C3B66825  30.867  31.208   7.221
 5108POPC   C4B66826  30.860  31.122   7.668
 5109POPC   NC366827  18.030  35.962   5.539
 5109POPC   PO466828  17.389  36.056   5.499
 5109POPC   GL166829  17.618  35.985   5.892
 5109POPC   GL266830  17.827  36.270   5.894
 5109POPC   C1A66831  17.673  36.099   6.354
 5109POPC   D2A66832  17.818  36.167   6.766
 5109POPC   C3A66833  17.647  35.899   7.004
 5109POPC   C4A66834  17.358  35.911   7.244
 5109POPC   C1B66835  17.439  36.446   6.081
 5109POPC   C2B66836  17.233  36.446   6.509
 5109POPC   C3B66837  17.360  36.354   6.937
 5109POPC   C4B66838  17.660  36.333   7.295
 5110POPC   NC366839  34.629   3.175   5.433
 5110POPC   PO466840  34.412   2.450   5.373
 5110POPC   GL166841  34.468   2.555   5.795
 5110POPC   GL266842  34.448   2.911   5.837
 5110POPC   C1A66843  34.522   2.575   6.236
 5110POPC   D2A66844  34.817   2.744   6.546
 5110POPC   C3A66845  34.669   2.571   6.898
 5110POPC   C4A66846  34.519   2.711   7.267
 5110POPC   C1B66847  34.615   3.093   6.227
 5110POPC   C2B66848  34.563   3.232   6.658
 5110POPC   C3B66849  34.783   3.073   7.029
 5110POPC   C4B66850  34.747   3.123   7.500
 5111POPC   NC366851  38.314  32.503   5.184
 5111POPC   PO466852  38.932  32.380   5.406
 5111POPC   GL166853  38.688  32.285   5.760
 5111POPC   GL266854  38.445  32.014   5.659
 5111POPC   C1A66855  38.529  32.529   6.131
 5111POPC   D2A66856  38.269  32.504   6.510
 5111POPC   C3A66857  38.458  32.520   6.930
 5111POPC   C4A66858  38.483  32.152   7.181
 5111POPC   C1B66859  38.300  32.068   6.116
 5111POPC   C2B66860  38.481  31.986   6.547
 5111POPC   C3B66861  38.258  31.775   6.889
 5111POPC   C4B66862  38.038  31.874   7.257
 5112POPC   NC366863   8.212  22.276   5.355
 5112POPC   PO466864   8.777  21.973   5.526
 5112POPC   GL166865   8.505  22.246   5.787
 5112POPC   GL266866   8.179  22.099   5.836
 5112POPC   C1A66867   8.376  22.433   6.199
 5112POPC   D2A66868   8.304  22.627   6.612
 5112POPC   C3A66869   8.220  22.307   6.929
 5112POPC   C4A66870   8.320  22.285   7.380
 5112POPC   C1B66871   8.393  21.919   6.206
 5112POPC   C2B66872   8.510  21.959   6.649
 5112POPC   C3B66873   8.378  21.845   7.093
 5112POPC   C4B66874   8.457  21.851   7.572
 5113POPC   NC366875  15.438  38.853   5.309
 5113POPC   PO466876  15.224  38.375   5.425
 5113POPC   GL166877  15.005  38.309   5.846
 5113POPC   GL266878  15.310  38.185   5.934
 5113POPC   C1A66879  14.981  38.292   6.331
 5113POPC   D2A66880  15.153  38.168   6.753
 5113POPC   C3A66881  15.130  38.411   7.181
 5113POPC   C4A66882  15.195  38.666   7.578
 5113POPC   C1B66883  15.372  37.953   6.308
 5113POPC   C2B66884  15.624  38.000   6.670
 5113POPC   C3B66885  15.623  38.411   6.916
 5113POPC   C4B66886  15.640  38.515   7.371
 5114POPC   NC366887   5.914   4.295   5.454
 5114POPC   PO466888   5.433   4.685   5.564
 5114POPC   GL166889   5.601   4.384   5.838
 5114POPC   GL266890   5.962   4.516   5.907
 5114POPC   C1A66891   5.711   4.188   6.219
 5114POPC   D2A66892   5.942   4.475   6.486
 5114POPC   C3A66893   5.818   4.410   6.877
 5114POPC   C4A66894   5.779   4.010   7.062
 5114POPC   C1B66895   6.342   4.518   6.176
 5114POPC   C2B66896   6.480   4.295   6.577
 5114POPC   C3B66897   6.280   4.119   6.958
 5114POPC   C4B66898   6.056   4.364   7.313
 5115POPC   NC366899  12.284  43.206   5.339
 5115POPC   PO466900  11.853  42.746   5.418
 5115POPC   GL166901  12.070  42.923   5.758
 5115POPC   GL266902  12.057  43.281   5.802
 5115POPC   C1A66903  11.945  42.964   6.212
 5115POPC   D2A66904  11.891  43.171   6.632
 5115POPC   C3A66905  11.975  43.039   7.062
 5115POPC   C4A66906  12.190  42.877   7.452
 5115POPC   C1B66907  11.916  43.485   6.197
 5115POPC   C2B66908  11.995  43.685   6.626
 5115POPC   C3B66909  12.080  43.551   7.077
 5115POPC   C4B66910  11.835  43.352   7.439
 5116POPC   NC366911  37.512  23.819   5.385
 5116POPC   PO466912  37.936  23.318   5.271
 5116POPC   GL166913  37.764  23.509   5.719
 5116POPC   GL266914  37.376  23.510   5.792
 5116POPC   C1A66915  37.756  23.751   6.153
 5116POPC   D2A66916  37.943  23.765   6.600
 5116POPC   C3A66917  37.831  23.919   7.027
 5116POPC   C4A66918  37.781  24.126   7.502
 5116POPC   C1B66919  37.243  23.718   6.187
 5116POPC   C2B66920  37.455  23.613   6.571
 5116POPC   C3B66921  37.436  23.471   6.996
 5116POPC   C4B66922  37.515  23.706   7.368
 5117POPC   NC366923  38.917  35.586   5.473
 5117POPC   PO466924  39.212  35.028   5.396
 5117POPC   GL166925  39.300  35.337   5.724
 5117POPC   GL266926  38.993  35.189   5.843
 5117POPC   C1A66927  39.220  35.481   6.184
 5117POPC   D2A66928  39.283  35.723   6.567
 5117POPC   C3A66929  39.266  35.519   6.956
 5117POPC   C4A66930  39.490  35.310   7.325
 5117POPC   C1B66931  38.883  34.826   6.110
 5117POPC   C2B66932  38.756  34.871   6.528
 5117POPC   C3B66933  38.920  35.143   6.821
 5117POPC   C4B66934  39.020  35.161   7.232
 5118POPC   NC366935  19.417   9.091   5.460
 5118POPC   PO466936  18.711   8.869   5.414
 5118POPC   GL166937  18.993   8.942   5.764
 5118POPC   GL266938  19.107   9.261   5.829
 5118POPC   C1A66939  19.150   8.770   6.139
 5118POPC   D2A66940  19.099   8.928   6.545
 5118POPC   C3A66941  19.056   8.729   6.961
 5118POPC   C4A66942  19.103   8.966   7.359
 5118POPC   C1B66943  19.292   9.354   6.228
 5118POPC   C2B66944  19.468   9.271   6.620
 5118POPC   C3B66945  19.241   9.221   6.947
 5118POPC   C4B66946  19.401   9.385   7.290
 5119POPC   NC366947  41.763   3.279   5.419
 5119POPC   PO466948  41.275   3.737   5.453
 5119POPC   GL166949  41.552   3.631   5.805
 5119POPC   GL266950  41.757   3.917   5.882
 5119POPC   C1A66951  41.408   3.436   6.217
 5119POPC   D2A66952  41.285   3.622   6.625
 5119POPC   C3A66953  41.356   3.428   7.057
 5119POPC   C4A66954  41.653   3.266   7.426
 5119POPC   C1B66955  41.837   3.667   6.316
 5119POPC   C2B66956  41.851   3.311   6.593
 5119POPC   C3B66957  41.881   3.439   7.011
 5119POPC   C4B66958  41.681   3.766   7.270
 5120POPC   NC366959  43.690   6.281   5.377
 5120POPC   PO466960  44.022   5.656   5.315
 5120POPC   GL166961  43.927   5.917   5.675
 5120POPC   GL266962  44.233   6.058   5.814
 5120POPC   C1A66963  43.810   5.818   6.104
 5120POPC   D2A66964  43.887   5.567   6.485
 5120POPC   C3A66965  43.848   5.740   6.891
 5120POPC   C4A66966  43.670   5.965   7.226
 5120POPC   C1B66967  44.246   6.038   6.270
 5120POPC   C2B66968  44.115   6.126   6.682
 5120POPC   C3B66969  44.167   6.073   7.116
 5120POPC   C4B66970  44.087   6.077   7.557
 5121POPC   NC366971  33.512  33.405   5.512
 5121POPC   PO466972  33.778  34.113   5.488
 5121POPC   GL166973  33.577  34.072   5.895
 5121POPC   GL266974  33.450  33.716   5.923
 5121POPC   C1A66975  33.716  33.921   6.306
 5121POPC   D2A66976  33.730  33.723   6.710
 5121POPC   C3A66977  33.875  33.988   7.062
 5121POPC   C4A66978  33.961  34.197   7.484
 5121POPC   C1B66979  33.620  33.358   6.156
 5121POPC   C2B66980  33.642  33.099   6.515
 5121POPC   C3B66981  33.792  33.247   6.898
 5121POPC   C4B66982  33.730  33.525   7.209
 5122POPC   NC366983  36.107  17.723   5.495
 5122POPC   PO466984  36.325  17.111   5.476
 5122POPC   GL166985  36.058  17.284   5.836
 5122POPC   GL266986  36.052  17.660   5.995
 5122POPC   C1A66987  35.931  17.258   6.254
 5122POPC   D2A66988  36.069  17.524   6.594
 5122POPC   C3A66989  36.152  17.296   6.970
 5122POPC   C4A66990  35.998  17.487   7.331
 5122POPC   C1B66991  36.394  17.831   6.269
 5122POPC   C2B66992  36.469  17.984   6.683
 5122POPC   C3B66993  36.326  17.794   7.047
 5122POPC   C4B66994  36.190  17.961   7.413
 5123POPC   NC366995   1.875  34.114   5.657
 5123POPC   PO466996   2.281  34.516   5.726
 5123POPC   GL166997   2.199  34.242   6.039
 5123POPC   GL266998   1.887  34.223   6.168
 5123POPC   C1A66999   2.398  34.136   6.419
 5123POPC   D2A67000   2.400  34.417   6.794
 5123POPC   C3A67001   2.108  34.436   7.117
 5123POPC   C4A67002   1.866  34.401   7.510
 5123POPC   C1B67003   2.090  34.574   6.409
 5123POPC   C2B67004   2.092  34.839   6.782
 5123POPC   C3B67005   2.030  34.970   7.207
 5123POPC   C4B67006   2.305  35.191   7.486
 5124POPC   NC367007  22.288  30.847   5.437
 5124POPC   PO467008  22.366  31.535   5.315
 5124POPC   GL167009  22.246  31.318   5.692
 5124POPC   GL267010  22.219  31.614   5.847
 5124POPC   C1A67011  22.313  31.210   6.142
 5124POPC   D2A67012  22.104  31.002   6.479
 5124POPC   C3A67013  22.201  31.212   6.880
 5124POPC   C4A67014  22.355  31.495   7.194
 5124POPC   C1B67015  22.095  31.729   6.247
 5124POPC   C2B67016  22.085  31.681   6.644
 5124POPC   C3B67017  21.911  31.667   7.006
 5124POPC   C4B67018  22.046  31.901   7.310
 5125POPC   NC367019   4.463  10.187   5.347
 5125POPC   PO467020   3.759  10.262   5.486
 5125POPC   GL167021   4.111  10.363   5.768
 5125POPC   GL267022   4.447  10.524   5.724
 5125POPC   C1A67023   4.080  10.413   6.224
 5125POPC   D2A67024   4.050  10.717   6.529
 5125POPC   C3A67025   4.017  10.648   6.987
 5125POPC   C4A67026   4.019  10.493   7.430
 5125POPC   C1B67027   4.545  10.254   6.019
 5125POPC   C2B67028   4.531  10.220   6.435
 5125POPC   C3B67029   4.459  10.476   6.788
 5125POPC   C4B67030   4.490  10.412   7.223
 5126POPC   NC367031  35.555  35.755   5.399
 5126POPC   PO467032  35.517  36.438   5.366
 5126POPC   GL167033  35.348  36.175   5.720
 5126POPC   GL267034  35.613  35.985   5.853
 5126POPC   C1A67035  35.230  36.034   6.179
 5126POPC   D2A67036  35.137  35.853   6.595
 5126POPC   C3A67037  35.204  36.117   6.974
 5126POPC   C4A67038  35.418  36.439   7.256
 5126POPC   C1B67039  35.763  36.023   6.255
 5126POPC   C2B67040  35.590  36.141   6.632
 5126POPC   C3B67041  35.723  36.085   7.066
 5126POPC   C4B67042  35.737  36.012   7.511
 5127POPC   NC367043  10.901  26.866   5.367
 5127POPC   PO467044  11.572  27.085   5.048
 5127POPC   GL167045  11.362  27.068   5.502
 5127POPC   GL267046  11.478  26.766   5.662
 5127POPC   C1A67047  11.276  27.067   6.004
 5127POPC   D2A67048  11.505  27.030   6.414
 5127POPC   C3A67049  11.347  26.954   6.847
 5127POPC   C4A67050  11.485  26.963   7.293
 5127POPC   C1B67051  11.512  26.602   6.105
 5127POPC   C2B67052  11.242  26.587   6.503
 5127POPC   C3B67053  11.186  26.450   6.957
 5127POPC   C4B67054  11.449  26.444   7.372
 5128POPC   NC367055  41.971  21.794   5.088
 5128POPC   PO467056  42.537  21.501   5.407
 5128POPC   GL167057  42.418  21.351   5.830
 5128POPC   GL267058  42.641  21.072   5.870
 5128POPC   C1A67059  42.259  21.433   6.266
 5128POPC   D2A67060  42.252  21.631   6.703
 5128POPC   C3A67061  42.157  21.550   7.155
 5128POPC   C4A67062  42.477  21.435   7.470
 5128POPC   C1B67063  42.454  20.966   6.280
 5128POPC   C2B67064  42.251  21.092   6.675
 5128POPC   C3B67065  42.497  21.140   7.048
 5128POPC   C4B67066  42.459  20.934   7.480
 5129POPC   NC367067   1.993  39.662   5.450
 5129POPC   PO467068   2.270  40.290   5.365
 5129POPC   GL167069   2.145  40.318   5.782
 5129POPC   GL267070   1.934  40.024   5.850
 5129POPC   C1A67071   2.262  40.183   6.202
 5129POPC   D2A67072   2.062  40.201   6.584
 5129POPC   C3A67073   2.138  40.166   6.995
 5129POPC   C4A67074   2.004  40.220   7.404
 5129POPC   C1B67075   1.825  39.835   6.280
 5129POPC   C2B67076   1.781  39.832   6.765
 5129POPC   C3B67077   1.827  39.758   7.218
 5129POPC   C4B67078   2.015  39.425   7.495
 5130POPC   NC367079  10.131  31.843   5.483
 5130POPC   PO467080  10.566  31.350   5.268
 5130POPC   GL167081  10.525  31.638   5.694
 5130POPC   GL267082  10.788  31.700   5.900
 5130POPC   C1A67083  10.337  31.569   6.156
 5130POPC   D2A67084  10.244  31.237   6.512
 5130POPC   C3A67085  10.171  31.409   6.944
 5130POPC   C4A67086  10.382  31.668   7.274
 5130POPC   C1B67087  10.818  31.502   6.330
 5130POPC   C2B67088  10.681  31.400   6.741
 5130POPC   C3B67089  10.848  31.561   7.093
 5130POPC   C4B67090  10.842  31.475   7.534
 5131POPC   NC367091  12.013  36.058   5.399
 5131POPC   PO467092  12.501  36.500   5.492
 5131POPC   GL167093  12.210  36.284   5.814
 5131POPC   GL267094  12.234  35.915   5.867
 5131POPC   C1A67095  11.937  36.100   6.201
 5131POPC   D2A67096  12.068  35.837   6.535
 5131POPC   C3A67097  11.879  36.000   6.906
 5131POPC   C4A67098  11.997  36.006   7.321
 5131POPC   C1B67099  12.431  36.152   6.250
 5131POPC   C2B67100  12.199  36.332   6.597
 5131POPC   C3B67101  12.177  36.440   7.024
 5131POPC   C4B67102  12.553  36.659   7.207
 5132POPC   NC367103  12.705  10.239   5.401
 5132POPC   PO467104  13.173  10.692   5.266
 5132POPC   GL167105  12.945  10.496   5.733
 5132POPC   GL267106  12.967  10.134   5.865
 5132POPC   C1A67107  12.617  10.529   6.073
 5132POPC   D2A67108  12.444  10.724   6.478
 5132POPC   C3A67109  12.659  10.624   6.854
 5132POPC   C4A67110  12.653  10.364   7.193
 5132POPC   C1B67111  13.054  10.321   6.285
 5132POPC   C2B67112  13.071  10.318   6.778
 5132POPC   C3B67113  13.065  10.084   7.179
 5132POPC   C4B67114  13.252  10.046   7.620
 5133POPC   NC367115   1.034   5.038   5.254
 5133POPC   PO467116   1.554   4.947   5.660
 5133POPC   GL167117   1.126   5.039   5.781
 5133POPC   GL267118   0.849   4.777   5.687
 5133POPC   C1A67119   1.191   5.207   6.199
 5133POPC   D2A67120   1.453   5.090   6.590
 5133POPC   C3A67121   1.218   5.177   6.974
 5133POPC   C4A67122   0.856   5.462   7.087
 5133POPC   C1B67123   0.783   4.901   6.130
 5133POPC   C2B67124   0.913   5.004   6.578
 5133POPC   C3B67125   0.924   4.780   6.937
 5133POPC   C4B67126   0.881   4.978   7.304
 5134POPC   NC367127   3.532  29.972   5.398
 5134POPC   PO467128   3.969  29.456   5.520
 5134POPC   GL167129   3.720  29.738   5.851
 5134POPC   GL267130   3.562  30.107   5.876
 5134POPC   C1A67131   3.827  29.924   6.281
 5134POPC   D2A67132   3.801  29.707   6.643
 5134POPC   C3A67133   3.825  29.906   7.031
 5134POPC   C4A67134   3.484  29.678   7.216
 5134POPC   C1B67135   3.331  29.948   6.253
 5134POPC   C2B67136   3.400  30.022   6.699
 5134POPC   C3B67137   3.469  30.276   7.053
 5134POPC   C4B67138   3.475  30.152   7.453
 5135POPC   NC367139   6.059  36.383   5.502
 5135POPC   PO467140   5.403  36.168   5.451
 5135POPC   GL167141   5.732  36.044   5.782
 5135POPC   GL267142   5.744  36.370   5.938
 5135POPC   C1A67143   6.103  36.033   6.131
 5135POPC   D2A67144   6.284  36.172   6.566
 5135POPC   C3A67145   6.067  36.211   7.001
 5135POPC   C4A67146   6.044  36.332   7.481
 5135POPC   C1B67147   5.738  36.277   6.383
 5135POPC   C2B67148   5.473  36.048   6.670
 5135POPC   C3B67149   5.604  35.958   7.076
 5135POPC   C4B67150   5.426  35.769   7.449
 5136POPC   NC367151   8.593  11.213   5.416
 5136POPC   PO467152   7.984  10.940   5.505
 5136POPC   GL167153   8.206  11.146   5.822
 5136POPC   GL267154   8.537  11.029   5.891
 5136POPC   C1A67155   8.270  11.393   6.184
 5136POPC   D2A67156   8.271  11.617   6.575
 5136POPC   C3A67157   8.191  11.419   6.947
 5136POPC   C4A67158   8.088  11.231   7.341
 5136POPC   C1B67159   8.458  10.911   6.305
 5136POPC   C2B67160   8.475  11.068   6.705
 5136POPC   C3B67161   8.414  10.904   7.122
 5136POPC   C4B67162   8.486  10.967   7.585
 5137POPC   NC367163  42.004  42.216   5.304
 5137POPC   PO467164  41.312  42.413   5.296
 5137POPC   GL167165  41.567  42.507   5.673
 5137POPC   GL267166  41.496  42.215   5.772
 5137POPC   C1A67167  41.718  42.522   6.133
 5137POPC   D2A67168  41.689  42.241   6.514
 5137POPC   C3A67169  41.660  42.388   6.975
 5137POPC   C4A67170  41.571  42.327   7.456
 5137POPC   C1B67171  41.350  42.135   6.153
 5137POPC   C2B67172  41.178  42.177   6.564
 5137POPC   C3B67173  41.213  42.160   7.012
 5137POPC   C4B67174  41.073  42.364   7.371
 5138POPC   NC367175  37.237  36.173   5.672
 5138POPC   PO467176  36.652  36.086   5.374
 5138POPC   GL167177  36.746  36.019   5.802
 5138POPC   GL267178  36.841  36.371   5.922
 5138POPC   C1A67179  36.782  36.016   6.261
 5138POPC   D2A67180  36.651  36.346   6.537
 5138POPC   C3A67181  36.760  36.186   6.922
 5138POPC   C4A67182  37.031  35.826   6.984
 5138POPC   C1B67183  37.181  36.327   6.296
 5138POPC   C2B67184  37.316  36.220   6.721
 5138POPC   C3B67185  37.189  36.374   7.135
 5138POPC   C4B67186  37.099  36.088   7.494
 5139POPC   NC367187  42.411   4.051   5.467
 5139POPC   PO467188  41.890   4.440   5.341
 5139POPC   GL167189  42.074   4.358   5.779
 5139POPC   GL267190  42.467   4.360   5.864
 5139POPC   C1A67191  42.100   4.525   6.220
 5139POPC   D2A67192  42.053   4.634   6.670
 5139POPC   C3A67193  42.335   4.401   6.856
 5139POPC   C4A67194  42.376   4.317   7.247
 5139POPC   C1B67195  42.683   4.032   6.121
 5139POPC   C2B67196  42.582   4.075   6.526
 5139POPC   C3B67197  42.603   3.962   6.920
 5139POPC   C4B67198  42.681   3.906   7.337
 5140POPC   NC367199  34.208  25.999   5.409
 5140POPC   PO467200  34.653  26.503   5.410
 5140POPC   GL167201  34.661  26.105   5.733
 5140POPC   GL267202  34.370  25.895   5.865
 5140POPC   C1A67203  34.792  25.877   6.155
 5140POPC   D2A67204  34.720  26.106   6.579
 5140POPC   C3A67205  34.843  25.991   7.021
 5140POPC   C4A67206  34.637  26.141   7.415
 5140POPC   C1B67207  34.360  26.143   6.183
 5140POPC   C2B67208  34.223  26.230   6.588
 5140POPC   C3B67209  34.341  26.120   6.971
 5140POPC   C4B67210  34.398  25.748   7.225
 5141POPC   NC367211  28.675  16.783   5.302
 5141POPC   PO467212  28.057  16.614   5.422
 5141POPC   GL167213  28.248  16.754   5.792
 5141POPC   GL267214  28.575  16.570   5.784
 5141POPC   C1A67215  28.240  16.921   6.239
 5141POPC   D2A67216  28.510  16.965   6.598
 5141POPC   C3A67217  28.361  16.949   7.008
 5141POPC   C4A67218  28.097  16.681   7.232
 5141POPC   C1B67219  28.791  16.430   6.163
 5141POPC   C2B67220  28.648  16.435   6.574
 5141POPC   C3B67221  28.503  16.455   6.997
 5141POPC   C4B67222  28.454  16.196   7.374
 5142POPC   NC367223  13.225  12.830   5.414
 5142POPC   PO467224  13.872  13.096   5.418
 5142POPC   GL167225  13.684  13.134   5.784
 5142POPC   GL267226  13.520  12.826   5.811
 5142POPC   C1A67227  13.797  12.979   6.192
 5142POPC   D2A67228  13.574  12.861   6.526
 5142POPC   C3A67229  13.782  13.042   6.866
 5142POPC   C4A67230  13.716  12.994   7.282
 5142POPC   C1B67231  13.251  12.644   6.113
 5142POPC   C2B67232  13.165  12.541   6.518
 5142POPC   C3B67233  13.306  12.672   6.941
 5142POPC   C4B67234  13.466  12.549   7.317
 5143POPC   NC367235  20.535  31.483   5.575
 5143POPC   PO467236  20.892  31.096   5.158
 5143POPC   GL167237  20.634  30.937   5.625
 5143POPC   GL267238  20.325  31.051   5.757
 5143POPC   C1A67239  20.625  30.928   6.154
 5143POPC   D2A67240  20.749  31.191   6.537
 5143POPC   C3A67241  20.797  31.301   7.009
 5143POPC   C4A67242  20.896  31.660   7.289
 5143POPC   C1B67243  20.331  31.327   6.164
 5143POPC   C2B67244  20.274  31.394   6.613
 5143POPC   C3B67245  20.398  31.673   6.956
 5143POPC   C4B67246  20.391  31.666   7.397
 5144POPC   NC367247  38.162   4.072   5.527
 5144POPC   PO467248  38.482   3.566   5.429
 5144POPC   GL167249  38.390   3.683   5.812
 5144POPC   GL267250  38.698   3.549   5.919
 5144POPC   C1A67251  38.300   3.507   6.224
 5144POPC   D2A67252  38.633   3.292   6.432
 5144POPC   C3A67253  38.590   3.263   6.875
 5144POPC   C4A67254  38.475   3.500   7.233
 5144POPC   C1B67255  38.875   3.749   6.289
 5144POPC   C2B67256  38.936   3.639   6.729
 5144POPC   C3B67257  38.925   3.739   7.160
 5144POPC   C4B67258  38.862   3.612   7.597
 5145POPC   NC367259  20.348  24.293   5.645
 5145POPC   PO467260  20.218  24.864   5.341
 5145POPC   GL167261  20.243  24.914   5.827
 5145POPC   GL267262  20.460  24.649   5.996
 5145POPC   C1A67263  20.234  24.973   6.316
 5145POPC   D2A67264  20.182  24.713   6.708
 5145POPC   C3A67265  20.319  24.603   7.155
 5145POPC   C4A67266  20.556  24.198   7.258
 5145POPC   C1B67267  20.437  24.390   6.389
 5145POPC   C2B67268  20.313  24.189   6.794
 5145POPC   C3B67269  20.041  24.168   7.160
 5145POPC   C4B67270  20.157  24.256   7.589
 5146POPC   NC367271  19.360   7.598   5.568
 5146POPC   PO467272  19.154   6.974   5.497
 5146POPC   GL167273  19.012   7.287   5.799
 5146POPC   GL267274  18.838   7.608   5.652
 5146POPC   C1A67275  19.161   7.401   6.212
 5146POPC   D2A67276  18.910   7.359   6.553
 5146POPC   C3A67277  19.028   7.157   6.918
 5146POPC   C4A67278  18.755   7.272   7.222
 5146POPC   C1B67279  18.883   7.811   6.057
 5146POPC   C2B67280  19.014   7.876   6.500
 5146POPC   C3B67281  19.088   7.689   6.918
 5146POPC   C4B67282  18.879   7.750   7.322
 5147POPC   NC367283  27.994  26.836   5.373
 5147POPC   PO467284  27.277  26.987   5.307
 5147POPC   GL167285  27.490  26.886   5.697
 5147POPC   GL267286  27.822  26.755   5.840
 5147POPC   C1A67287  27.442  26.940   6.131
 5147POPC   D2A67288  27.544  27.071   6.534
 5147POPC   C3A67289  27.476  26.873   6.932
 5147POPC   C4A67290  27.550  26.990   7.370
 5147POPC   C1B67291  27.963  26.962   6.233
 5147POPC   C2B67292  27.948  26.820   6.665
 5147POPC   C3B67293  28.002  26.854   7.087
 5147POPC   C4B67294  28.158  26.461   7.219
 5148POPC   NC367295   1.624  30.618   5.435
 5148POPC   PO467296   2.326  30.638   5.309
 5148POPC   GL167297   2.240  30.548   5.768
 5148POPC   GL267298   1.872  30.584   5.901
 5148POPC   C1A67299   2.311  30.778   6.163
 5148POPC   D2A67300   2.286  30.948   6.568
 5148POPC   C3A67301   2.209  30.669   6.926
 5148POPC   C4A67302   1.782  30.508   6.973
 5148POPC   C1B67303   1.872  30.629   6.395
 5148POPC   C2B67304   1.790  30.957   6.734
 5148POPC   C3B67305   1.737  31.012   7.192
 5148POPC   C4B67306   1.707  31.010   7.639
 5149POPC   NC367307  26.211  17.264   5.372
 5149POPC   PO467308  25.775  16.712   5.339
 5149POPC   GL167309  25.895  16.814   5.750
 5149POPC   GL267310  25.841  17.158   5.707
 5149POPC   C1A67311  26.169  16.820   6.138
 5149POPC   D2A67312  26.285  16.647   6.540
 5149POPC   C3A67313  26.069  16.731   6.912
 5149POPC   C4A67314  26.160  16.567   7.315
 5149POPC   C1B67315  25.845  17.203   6.146
 5149POPC   C2B67316  25.818  17.007   6.537
 5149POPC   C3B67317  25.850  17.198   6.941
 5149POPC   C4B67318  25.938  17.019   7.315
 5150POPC   NC367319   5.207  39.824   5.383
 5150POPC   PO467320   5.125  40.474   5.412
 5150POPC   GL167321   5.255  40.172   5.761
 5150POPC   GL267322   4.964  39.957   5.872
 5150POPC   C1A67323   5.258  40.168   6.223
 5150POPC   D2A67324   4.863  40.260   6.444
 5150POPC   C3A67325   4.932  40.354   6.866
 5150POPC   C4A67326   5.078  40.034   7.098
 5150POPC   C1B67327   5.040  39.700   6.249
 5150POPC   C2B67328   5.062  39.637   6.710
 5150POPC   C3B67329   5.138  39.523   7.144
 5150POPC   C4B67330   5.093  39.543   7.594
 5151POPC   NC367331  18.820  27.489   5.539
 5151POPC   PO467332  18.231  27.897   5.472
 5151POPC   GL167333  18.335  27.748   5.855
 5151POPC   GL267334  18.645  27.777   5.911
 5151POPC   C1A67335  18.146  27.693   6.245
 5151POPC   D2A67336  18.072  27.488   6.613
 5151POPC   C3A67337  18.262  27.645   6.956
 5151POPC   C4A67338  18.211  27.479   7.338
 5151POPC   C1B67339  18.757  27.940   6.267
 5151POPC   C2B67340  18.513  27.973   6.606
 5151POPC   C3B67341  18.733  27.879   6.979
 5151POPC   C4B67342  18.612  27.763   7.363
 5152POPC   NC367343  36.370  20.263   5.492
 5152POPC   PO467344  36.095  20.851   5.571
 5152POPC   GL167345  36.089  20.527   5.857
 5152POPC   GL267346  35.850  20.771   5.992
 5152POPC   C1A67347  36.387  20.455   6.202
 5152POPC   D2A67348  36.597  20.408   6.598
 5152POPC   C3A67349  36.340  20.139   6.850
 5152POPC   C4A67350  35.987  20.227   7.099
 5152POPC   C1B67351  35.815  20.498   6.301
 5152POPC   C2B67352  36.076  20.537   6.642
 5152POPC   C3B67353  36.244  20.669   7.013
 5152POPC   C4B67354  35.937  20.690   7.333
 5153POPC   NC367355  22.628  12.111   5.343
 5153POPC   PO467356  23.175  12.077   5.475
 5153POPC   GL167357  22.981  12.095   5.896
 5153POPC   GL267358  22.622  12.052   5.861
 5153POPC   C1A67359  22.884  12.325   6.329
 5153POPC   D2A67360  22.639  12.312   6.745
 5153POPC   C3A67361  22.861  12.216   7.131
 5153POPC   C4A67362  23.252  12.430   7.349
 5153POPC   C1B67363  22.664  11.873   6.288
 5153POPC   C2B67364  22.616  11.802   6.734
 5153POPC   C3B67365  22.542  11.785   7.166
 5153POPC   C4B67366  22.529  12.058   7.498
 5154POPC   NC367367  36.603   9.757   5.300
 5154POPC   PO467368  37.159   9.485   5.624
 5154POPC   GL167369  36.761   9.614   5.772
 5154POPC   GL267370  36.858   9.964   5.702
 5154POPC   C1A67371  36.667   9.426   6.161
 5154POPC   D2A67372  36.879   9.621   6.485
 5154POPC   C3A67373  36.996   9.449   6.876
 5154POPC   C4A67374  36.827   9.385   7.252
 5154POPC   C1B67375  37.086   9.985   6.105
 5154POPC   C2B67376  36.997  10.136   6.528
 5154POPC   C3B67377  36.775   9.952   6.864
 5154POPC   C4B67378  36.996   9.862   7.217
 5155POPC   NC367379  32.307   7.828   5.417
 5155POPC   PO467380  31.975   7.201   5.374
 5155POPC   GL167381  32.216   7.406   5.744
 5155POPC   GL267382  32.505   7.648   5.843
 5155POPC   C1A67383  32.106   7.493   6.191
 5155POPC   D2A67384  32.148   7.323   6.625
 5155POPC   C3A67385  31.881   7.512   6.949
 5155POPC   C4A67386  31.877   7.293   7.347
 5155POPC   C1B67387  32.665   7.407   6.171
 5155POPC   C2B67388  32.774   7.232   6.568
 5155POPC   C3B67389  32.559   7.245   6.961
 5155POPC   C4B67390  32.323   7.564   7.199
 5156POPC   NC367391  10.477  39.727   4.964
 5156POPC   PO467392  10.002  39.938   5.349
 5156POPC   GL167393  10.156  39.872   5.763
 5156POPC   GL267394  10.295  40.192   5.770
 5156POPC   C1A67395  10.160  39.699   6.198
 5156POPC   D2A67396  10.382  39.800   6.568
 5156POPC   C3A67397  10.217  39.942   6.970
 5156POPC   C4A67398  10.270  39.681   7.344
 5156POPC   C1B67399  10.500  40.073   6.133
 5156POPC   C2B67400  10.482  40.287   6.504
 5156POPC   C3B67401  10.669  40.207   6.884
 5156POPC   C4B67402  10.612  40.084   7.300
 5157POPC   NC367403  34.990   1.255   5.171
 5157POPC   PO467404  35.562   1.423   5.539
 5157POPC   GL167405  35.434   1.170   5.829
 5157POPC   GL267406  35.287   1.413   6.073
 5157POPC   C1A67407  35.539   0.982   6.200
 5157POPC   D2A67408  35.596   1.259   6.519
 5157POPC   C3A67409  35.548   1.070   6.899
 5157POPC   C4A67410  35.714   1.177   7.268
 5157POPC   C1B67411  34.996   1.067   6.166
 5157POPC   C2B67412  34.806   0.861   6.543
 5157POPC   C3B67413  34.863   0.948   6.985
 5157POPC   C4B67414  35.115   1.351   7.094
 5158POPC   NC367415  11.057  18.782   5.696
 5158POPC   PO467416  11.595  18.997   5.400
 5158POPC   GL167417  11.490  19.063   5.838
 5158POPC   GL267418  11.264  19.304   5.806
 5158POPC   C1A67419  11.558  19.004   6.299
 5158POPC   D2A67420  11.600  18.957   6.777
 5158POPC   C3A67421  11.260  18.773   7.055
 5158POPC   C4A67422  11.226  18.683   7.546
 5158POPC   C1B67423  11.084  19.186   6.199
 5158POPC   C2B67424  11.212  19.264   6.615
 5158POPC   C3B67425  11.120  19.291   7.051
 5158POPC   C4B67426  11.346  19.154   7.384
 5159POPC   NC367427  11.254   1.867   5.378
 5159POPC   PO467428  11.360   2.444   5.469
 5159POPC   GL167429  11.192   2.151   5.811
 5159POPC   GL267430  11.117   1.766   5.849
 5159POPC   C1A67431  11.018   2.135   6.221
 5159POPC   D2A67432  10.889   2.319   6.606
 5159POPC   C3A67433  11.158   2.205   6.930
 5159POPC   C4A67434  11.515   2.204   7.222
 5159POPC   C1B67435  11.415   1.789   6.194
 5159POPC   C2B67436  11.454   1.932   6.609
 5159POPC   C3B67437  11.390   1.734   7.010
 5159POPC   C4B67438  11.621   1.722   7.372
 5160POPC   NC367439   5.203  17.624   5.397
 5160POPC   PO467440   5.172  16.939   5.442
 5160POPC   GL167441   5.098  17.295   5.793
 5160POPC   GL267442   4.935  17.668   5.815
 5160POPC   C1A67443   5.160  17.487   6.223
 5160POPC   D2A67444   5.145  17.744   6.608
 5160POPC   C3A67445   5.086  17.420   6.940
 5160POPC   C4A67446   4.917  17.091   7.234
 5160POPC   C1B67447   4.795  17.902   6.182
 5160POPC   C2B67448   4.653  17.967   6.620
 5160POPC   C3B67449   4.660  17.703   6.953
 5160POPC   C4B67450   4.818  17.582   7.360
 5161POPC   NC367451  41.804  25.642   5.385
 5161POPC   PO467452  41.509  25.031   5.533
 5161POPC   GL167453  41.533  25.229   5.888
 5161POPC   GL267454  41.815  25.414   5.839
 5161POPC   C1A67455  41.494  25.064   6.295
 5161POPC   D2A67456  41.262  24.946   6.655
 5161POPC   C3A67457  41.562  24.922   6.966
 5161POPC   C4A67458  41.592  25.090   7.339
 5161POPC   C1B67459  41.864  25.416   6.276
 5161POPC   C2B67460  41.937  25.588   6.683
 5161POPC   C3B67461  41.612  25.446   6.948
 5161POPC   C4B67462  41.417  25.561   7.319
 5162POPC   NC367463  23.271  30.538   5.383
 5162POPC   PO467464  22.674  30.812   5.139
 5162POPC   GL167465  22.761  30.696   5.591
 5162POPC   GL267466  22.669  31.004   5.760
 5162POPC   C1A67467  22.931  30.637   6.044
 5162POPC   D2A67468  23.124  30.844   6.460
 5162POPC   C3A67469  22.998  30.749   6.904
 5162POPC   C4A67470  23.199  30.561   7.285
 5162POPC   C1B67471  22.811  31.128   6.174
 5162POPC   C2B67472  22.652  31.050   6.614
 5162POPC   C3B67473  22.683  31.132   7.060
 5162POPC   C4B67474  22.507  31.073   7.494
 5163POPC   NC367475  12.973  31.136   5.375
 5163POPC   PO467476  13.144  31.785   5.511
 5163POPC   GL167477  13.001  31.512   5.810
 5163POPC   GL267478  13.288  31.326   5.746
 5163POPC   C1A67479  12.791  31.615   6.193
 5163POPC   D2A67480  12.806  31.950   6.511
 5163POPC   C3A67481  12.932  31.734   6.865
 5163POPC   C4A67482  12.659  31.663   7.180
 5163POPC   C1B67483  13.350  31.138   6.159
 5163POPC   C2B67484  13.171  31.194   6.585
 5163POPC   C3B67485  13.204  31.120   7.030
 5163POPC   C4B67486  13.099  31.438   7.303
 5164POPC   NC367487  15.551  22.089   5.392
 5164POPC   PO467488  16.118  21.910   5.522
 5164POPC   GL167489  16.055  22.214   5.843
 5164POPC   GL267490  15.727  22.141   5.878
 5164POPC   C1A67491  16.025  22.306   6.297
 5164POPC   D2A67492  15.699  22.129   6.569
 5164POPC   C3A67493  15.887  22.058   6.971
 5164POPC   C4A67494  16.248  22.368   7.098
 5164POPC   C1B67495  15.587  22.482   6.145
 5164POPC   C2B67496  15.615  22.669   6.548
 5164POPC   C3B67497  15.803  22.572   6.931
 5164POPC   C4B67498  15.772  22.387   7.340
 5165POPC   NC367499  20.103  26.391   5.680
 5165POPC   PO467500  19.917  25.775   5.370
 5165POPC   GL167501  19.766  25.971   5.761
 5165POPC   GL267502  19.504  26.237   5.755
 5165POPC   C1A67503  19.732  26.110   6.207
 5165POPC   D2A67504  19.700  25.991   6.650
 5165POPC   C3A67505  20.073  26.035   6.900
 5165POPC   C4A67506  20.070  26.071   7.310
 5165POPC   C1B67507  19.292  26.366   6.154
 5165POPC   C2B67508  19.347  26.372   6.640
 5165POPC   C3B67509  19.349  26.228   7.115
 5165POPC   C4B67510  19.628  26.351   7.477
 5166POPC   NC367511  14.446  20.197   5.389
 5166POPC   PO467512  14.641  20.898   5.260
 5166POPC   GL167513  14.597  20.833   5.740
 5166POPC   GL267514  14.625  20.483   5.822
 5166POPC   C1A67515  14.345  20.847   6.161
 5166POPC   D2A67516  14.046  20.828   6.544
 5166POPC   C3A67517  14.187  20.892   6.988
 5166POPC   C4A67518  14.290  20.762   7.425
 5166POPC   C1B67519  14.764  20.515   6.248
 5166POPC   C2B67520  14.548  20.662   6.622
 5166POPC   C3B67521  14.531  20.502   7.024
 5166POPC   C4B67522  14.554  20.327   7.395
 5167POPC   NC367523  22.635  28.387   5.193
 5167POPC   PO467524  22.011  28.327   5.265
 5167POPC   GL167525  22.106  28.384   5.699
 5167POPC   GL267526  21.754  28.490   5.768
 5167POPC   C1A67527  22.337  28.271   6.093
 5167POPC   D2A67528  22.404  28.468   6.477
 5167POPC   C3A67529  22.231  28.321   6.822
 5167POPC   C4A67530  22.340  28.412   7.216
 5167POPC   C1B67531  21.835  28.249   6.161
 5167POPC   C2B67532  21.751  28.328   6.600
 5167POPC   C3B67533  21.794  28.389   7.066
 5167POPC   C4B67534  21.998  28.038   7.279
 5168POPC   NC367535  41.846  13.881   5.450
 5168POPC   PO467536  41.237  13.523   5.468
 5168POPC   GL167537  41.613  13.519   5.727
 5168POPC   GL267538  41.698  13.846   5.925
 5168POPC   C1A67539  41.681  13.361   6.121
 5168POPC   D2A67540  41.522  13.386   6.523
 5168POPC   C3A67541  41.687  13.575   6.907
 5168POPC   C4A67542  41.682  13.534   7.367
 5168POPC   C1B67543  41.424  13.953   6.265
 5168POPC   C2B67544  41.222  13.866   6.659
 5168POPC   C3B67545  41.322  13.933   7.075
 5168POPC   C4B67546  41.709  14.008   7.203
 5169POPC   NC367547   4.707  40.287   5.552
 5169POPC   PO467548   4.198  40.771   5.425
 5169POPC   GL167549   4.505  40.714   5.757
 5169POPC   GL267550   4.689  41.005   5.814
 5169POPC   C1A67551   4.531  40.583   6.193
 5169POPC   D2A67552   4.533  40.617   6.671
 5169POPC   C3A67553   4.184  40.742   6.929
 5169POPC   C4A67554   4.119  40.530   7.310
 5169POPC   C1B67555   4.550  41.116   6.216
 5169POPC   C2B67556   4.395  41.251   6.610
 5169POPC   C3B67557   4.608  41.063   6.940
 5169POPC   C4B67558   4.490  40.871   7.333
 5170POPC   NC367559  21.168  41.496   5.400
 5170POPC   PO467560  21.874  41.364   5.429
 5170POPC   GL167561  21.540  41.521   5.740
 5170POPC   GL267562  21.267  41.791   5.812
 5170POPC   C1A67563  21.354  41.387   6.138
 5170POPC   D2A67564  21.327  41.230   6.573
 5170POPC   C3A67565  21.300  41.375   6.984
 5170POPC   C4A67566  21.442  41.589   7.323
 5170POPC   C1B67567  21.387  41.894   6.240
 5170POPC   C2B67568  21.273  41.826   6.697
 5170POPC   C3B67569  21.259  42.026   7.121
 5170POPC   C4B67570  21.026  41.889   7.503
 5171POPC   NC367571   8.597  19.199   5.610
 5171POPC   PO467572   8.000  18.867   5.372
 5171POPC   GL167573   8.104  19.087   5.766
 5171POPC   GL267574   7.897  18.862   5.913
 5171POPC   C1A67575   8.276  19.368   6.135
 5171POPC   D2A67576   8.492  19.396   6.532
 5171POPC   C3A67577   8.246  19.209   6.860
 5171POPC   C4A67578   8.433  19.111   7.264
 5171POPC   C1B67579   8.007  18.976   6.328
 5171POPC   C2B67580   7.827  18.889   6.718
 5171POPC   C3B67581   8.119  18.745   7.018
 5171POPC   C4B67582   8.021  18.816   7.396
 5172POPC   NC367583  14.697  41.122   5.574
 5172POPC   PO467584  14.319  41.515   5.554
 5172POPC   GL167585  14.080  41.322   5.876
 5172POPC   GL267586  14.326  41.062   5.949
 5172POPC   C1A67587  14.132  41.326   6.344
 5172POPC   D2A67588  14.133  41.659   6.651
 5172POPC   C3A67589  14.134  41.571   7.083
 5172POPC   C4A67590  14.442  41.778   7.332
 5172POPC   C1B67591  14.623  41.318   6.235
 5172POPC   C2B67592  14.650  41.519   6.665
 5172POPC   C3B67593  14.579  41.338   7.082
 5172POPC   C4B67594  14.211  41.063   7.159
 5173POPC   NC367595  17.015  33.252   5.439
 5173POPC   PO467596  16.389  33.624   5.506
 5173POPC   GL167597  16.657  33.836   5.793
 5173POPC   GL267598  16.939  33.625   5.829
 5173POPC   C1A67599  16.582  34.137   6.133
 5173POPC   D2A67600  16.389  34.133   6.544
 5173POPC   C3A67601  16.628  33.889   6.837
 5173POPC   C4A67602  16.760  33.983   7.231
 5173POPC   C1B67603  17.100  33.341   6.106
 5173POPC   C2B67604  17.100  33.364   6.534
 5173POPC   C3B67605  17.024  33.225   6.947
 5173POPC   C4B67606  17.092  33.591   7.193
 5174POPC   NC367607  33.304  44.363   5.501
 5174POPC   PO467608  33.941  44.683   5.397
 5174POPC   GL167609  33.713  44.601   5.750
 5174POPC   GL267610  33.781  44.924   5.882
 5174POPC   C1A67611  33.820  44.540   6.185
 5174POPC   D2A67612  33.593  44.659   6.517
 5174POPC   C3A67613  33.759  44.592   6.889
 5174POPC   C4A67614  33.596  44.710   7.244
 5174POPC   C1B67615  33.795   0.058   6.269
 5174POPC   C2B67616  34.031  44.920   6.620
 5174POPC   C3B67617  34.081  44.951   7.081
 5174POPC   C4B67618  33.902   0.058   7.494
 5175POPC   NC367619   0.554  24.387   5.451
 5175POPC   PO467620  44.918  24.778   5.440
 5175POPC   GL167621   0.225  24.593   5.810
 5175POPC   GL267622   0.417  24.262   5.920
 5175POPC   C1A67623   0.390  24.664   6.255
 5175POPC   D2A67624   0.268  24.457   6.667
 5175POPC   C3A67625   0.357  24.738   7.032
 5175POPC   C4A67626   0.182  24.916   7.427
 5175POPC   C1B67627   0.770  24.316   6.259
 5175POPC   C2B67628   0.770  24.377   6.736
 5175POPC   C3B67629   0.701  24.400   7.186
 5175POPC   C4B67630   0.794  24.320   7.641
 5176POPC   NC367631  25.609  33.532   5.252
 5176POPC   PO467632  26.244  33.873   5.225
 5176POPC   GL167633  26.282  33.849   5.686
 5176POPC   GL267634  26.304  34.197   5.776
 5176POPC   C1A67635  26.029  33.563   6.032
 5176POPC   D2A67636  25.869  33.416   6.469
 5176POPC   C3A67637  26.000  33.564   6.887
 5176POPC   C4A67638  25.739  33.708   7.247
 5176POPC   C1B67639  26.182  34.028   6.187
 5176POPC   C2B67640  25.818  33.929   6.459
 5176POPC   C3B67641  25.852  34.054   6.898
 5176POPC   C4B67642  26.171  34.144   7.227
 5177POPC   NC367643  34.780  31.007   5.031
 5177POPC   PO467644  34.532  31.570   5.179
 5177POPC   GL167645  34.401  31.272   5.621
 5177POPC   GL267646  34.692  31.166   5.859
 5177POPC   C1A67647  34.333  31.383   6.135
 5177POPC   D2A67648  34.308  31.375   6.667
 5177POPC   C3A67649  34.501  31.705   7.027
 5177POPC   C4A67650  34.806  31.785   7.425
 5177POPC   C1B67651  34.928  31.079   6.205
 5177POPC   C2B67652  34.966  31.308   6.564
 5177POPC   C3B67653  34.757  31.259   6.947
 5177POPC   C4B67654  34.772  30.964   7.248
 5178POPC   NC367655   4.200  22.307   5.122
 5178POPC   PO467656   4.644  22.202   5.564
 5178POPC   GL167657   4.203  22.293   5.802
 5178POPC   GL267658   4.093  21.959   6.006
 5178POPC   C1A67659   4.054  22.396   6.220
 5178POPC   D2A67660   4.174  22.113   6.543
 5178POPC   C3A67661   4.086  22.218   6.941
 5178POPC   C4A67662   4.400  22.310   7.255
 5178POPC   C1B67663   4.245  21.666   6.330
 5178POPC   C2B67664   4.596  21.682   6.586
 5178POPC   C3B67665   4.639  21.911   6.934
 5178POPC   C4B67666   4.728  21.808   7.323
 5179POPC   NC367667   9.785  33.487   5.453
 5179POPC   PO467668  10.269  33.834   5.772
 5179POPC   GL167669   9.914  33.678   5.946
 5179POPC   GL267670   9.871  33.319   5.943
 5179POPC   C1A67671   9.934  33.656   6.399
 5179POPC   D2A67672   9.674  33.905   6.673
 5179POPC   C3A67673   9.870  33.834   7.046
 5179POPC   C4A67674   9.905  33.729   7.458
 5179POPC   C1B67675   9.541  33.380   6.263
 5179POPC   C2B67676   9.623  33.403   6.735
 5179POPC   C3B67677   9.540  33.473   7.193
 5179POPC   C4B67678   9.504  33.451   7.644
 5180POPC   NC367679   3.272  28.277   5.467
 5180POPC   PO467680   3.737  28.607   5.411
 5180POPC   GL167681   3.554  28.526   5.833
 5180POPC   GL267682   3.705  28.374   6.129
 5180POPC   C1A67683   3.218  28.586   6.148
 5180POPC   D2A67684   3.126  28.724   6.590
 5180POPC   C3A67685   3.268  28.491   7.000
 5180POPC   C4A67686   3.343  28.129   7.317
 5180POPC   C1B67687   3.627  28.728   6.441
 5180POPC   C2B67688   3.509  28.987   6.816
 5180POPC   C3B67689   3.471  28.904   7.260
 5180POPC   C4B67690   3.764  28.792   7.609
 5181POPC   NC367691  39.156  32.009   5.600
 5181POPC   PO467692  39.490  32.498   5.216
 5181POPC   GL167693  39.341  32.471   5.693
 5181POPC   GL267694  39.470  32.260   5.966
 5181POPC   C1A67695  39.053  32.500   6.107
 5181POPC   D2A67696  38.831  32.393   6.554
 5181POPC   C3A67697  38.959  32.358   7.047
 5181POPC   C4A67698  38.796  32.432   7.528
 5181POPC   C1B67699  39.183  32.021   6.273
 5181POPC   C2B67700  39.190  31.735   6.642
 5181POPC   C3B67701  39.257  31.883   7.064
 5181POPC   C4B67702  39.411  31.887   7.491
 5182POPC   NC367703   0.856  42.081   5.507
 5182POPC   PO467704   1.302  42.615   5.452
 5182POPC   GL167705   1.347  42.427   5.867
 5182POPC   GL267706   1.312  42.091   5.787
 5182POPC   C1A67707   1.082  42.267   6.236
 5182POPC   D2A67708   0.764  42.121   6.568
 5182POPC   C3A67709   0.920  42.208   7.026
 5182POPC   C4A67710   1.305  42.423   7.141
 5182POPC   C1B67711   1.523  41.962   6.159
 5182POPC   C2B67712   1.339  41.932   6.561
 5182POPC   C3B67713   1.436  41.943   6.993
 5182POPC   C4B67714   1.302  41.988   7.413
 5183POPC   NC367715  34.225  27.801   5.019
 5183POPC   PO467716  34.702  28.210   5.306
 5183POPC   GL167717  34.648  28.280   5.737
 5183POPC   GL267718  34.301  28.346   5.724
 5183POPC   C1A67719  34.570  28.495   6.146
 5183POPC   D2A67720  34.647  28.793   6.481
 5183POPC   C3A67721  34.608  28.619   6.884
 5183POPC   C4A67722  34.646  28.480   7.297
 5183POPC   C1B67723  34.332  28.034   6.095
 5183POPC   C2B67724  34.163  27.896   6.504
 5183POPC   C3B67725  34.201  28.078   6.926
 5183POPC   C4B67726  34.401  28.002   7.318
 5184POPC   NC367727  41.481  18.771   5.207
 5184POPC   PO467728  41.462  19.411   5.291
 5184POPC   GL167729  41.520  19.139   5.694
 5184POPC   GL267730  41.506  18.775   5.721
 5184POPC   C1A67731  41.432  19.250   6.157
 5184POPC   D2A67732  41.522  19.404   6.586
 5184POPC   C3A67733  41.387  19.232   6.978
 5184POPC   C4A67734  41.756  19.101   7.117
 5184POPC   C1B67735  41.488  18.733   6.160
 5184POPC   C2B67736  41.420  18.879   6.588
 5184POPC   C3B67737  41.274  18.715   6.990
 5184POPC   C4B67738  41.477  18.800   7.418
 5185POPC   NC367739   8.113  34.982   5.405
 5185POPC   PO467740   8.562  34.510   5.571
 5185POPC   GL167741   8.172  34.580   5.761
 5185POPC   GL267742   8.176  34.266   5.924
 5185POPC   C1A67743   7.958  34.666   6.153
 5185POPC   D2A67744   8.145  34.624   6.574
 5185POPC   C3A67745   7.956  34.672   6.984
 5185POPC   C4A67746   7.983  35.008   7.289
 5185POPC   C1B67747   8.463  34.601   6.175
 5185POPC   C2B67748   8.666  34.495   6.499
 5185POPC   C3B67749   8.450  34.329   6.850
 5185POPC   C4B67750   8.285  34.360   7.239
 5186POPC   NC367751  11.064   7.616   5.158
 5186POPC   PO467752  11.512   7.291   5.423
 5186POPC   GL167753  11.414   7.312   5.863
 5186POPC   GL267754  11.110   7.150   6.005
 5186POPC   C1A67755  11.631   7.440   6.222
 5186POPC   D2A67756  11.516   7.673   6.572
 5186POPC   C3A67757  11.554   7.513   6.965
 5186POPC   C4A67758  11.362   7.674   7.346
 5186POPC   C1B67759  11.057   7.460   6.348
 5186POPC   C2B67760  11.061   7.535   6.807
 5186POPC   C3B67761  11.150   7.263   7.168
 5186POPC   C4B67762  11.012   7.062   7.532
 5187POPC   NC367763  29.708  35.609   5.241
 5187POPC   PO467764  30.254  35.157   5.363
 5187POPC   GL167765  30.068  35.119   5.759
 5187POPC   GL267766  29.700  35.225   5.708
 5187POPC   C1A67767  30.232  35.185   6.202
 5187POPC   D2A67768  30.048  35.368   6.567
 5187POPC   C3A67769  30.171  35.267   6.954
 5187POPC   C4A67770  30.317  35.558   7.255
 5187POPC   C1B67771  29.831  35.482   6.045
 5187POPC   C2B67772  29.627  35.601   6.419
 5187POPC   C3B67773  29.709  35.700   6.832
 5187POPC   C4B67774  29.573  35.614   7.238
 5188POPC   NC367775  15.451   7.899   5.581
 5188POPC   PO467776  15.153   7.283   5.386
 5188POPC   GL167777  15.128   7.201   5.811
 5188POPC   GL267778  15.257   7.530   5.881
 5188POPC   C1A67779  15.275   7.131   6.233
 5188POPC   D2A67780  15.384   7.423   6.561
 5188POPC   C3A67781  15.164   7.318   6.930
 5188POPC   C4A67782  15.328   7.369   7.321
 5188POPC   C1B67783  15.098   7.749   6.251
 5188POPC   C2B67784  15.371   7.950   6.582
 5188POPC   C3B67785  15.518   7.748   6.986
 5188POPC   C4B67786  15.453   7.867   7.432
 5189POPC   NC367787  22.314  44.961   5.531
 5189POPC   PO467788  22.085  44.284   5.585
 5189POPC   GL167789  22.185  44.593   5.891
 5189POPC   GL267790  21.907  44.847   5.839
 5189POPC   C1A67791  22.359  44.608   6.320
 5189POPC   D2A67792  22.250  44.537   6.757
 5189POPC   C3A67793  22.338  44.898   6.984
 5189POPC   C4A67794  22.456  44.954   7.373
 5189POPC   C1B67795  21.943   0.073   6.213
 5189POPC   C2B67796  21.951  44.921   6.605
 5189POPC   C3B67797  21.842  44.828   6.994
 5189POPC   C4B67798  21.970   0.090   7.308
 5190POPC   NC367799   2.220  29.417   5.704
 5190POPC   PO467800   1.587  29.463   5.350
 5190POPC   GL167801   1.712  29.323   5.802
 5190POPC   GL267802   1.821  28.976   5.781
 5190POPC   C1A67803   1.919  29.312   6.266
 5190POPC   D2A67804   2.042  29.364   6.728
 5190POPC   C3A67805   1.715  29.371   7.064
 5190POPC   C4A67806   1.746  29.146   7.477
 5190POPC   C1B67807   1.878  28.802   6.215
 5190POPC   C2B67808   1.907  28.707   6.677
 5190POPC   C3B67809   2.015  28.955   7.070
 5190POPC   C4B67810   2.238  29.038   7.488
 5191POPC   NC367811  38.207   8.503   5.392
 5191POPC   PO467812  37.652   8.863   5.308
 5191POPC   GL167813  37.738   8.659   5.741
 5191POPC   GL267814  37.505   8.395   5.873
 5191POPC   C1A67815  37.853   8.834   6.159
 5191POPC   D2A67816  37.764   9.245   6.405
 5191POPC   C3A67817  37.656   9.237   6.841
 5191POPC   C4A67818  37.821   9.363   7.253
 5191POPC   C1B67819  37.343   8.581   6.229
 5191POPC   C2B67820  37.549   8.762   6.561
 5191POPC   C3B67821  37.872   8.743   6.842
 5191POPC   C4B67822  37.719   8.869   7.228
 5192POPC   NC367823  26.905  20.130   5.517
 5192POPC   PO467824  26.895  19.476   5.718
 5192POPC   GL167825  26.798  19.794   5.927
 5192POPC   GL267826  27.111  19.927   5.906
 5192POPC   C1A67827  26.901  19.777   6.350
 5192POPC   D2A67828  26.876  20.080   6.610
 5192POPC   C3A67829  26.664  19.898   6.885
 5192POPC   C4A67830  26.666  19.961   7.302
 5192POPC   C1B67831  27.269  20.113   6.232
 5192POPC   C2B67832  27.362  19.944   6.585
 5192POPC   C3B67833  27.148  19.862   6.999
 5192POPC   C4B67834  27.111  19.811   7.442
 5193POPC   NC367835  38.545  29.622   5.489
 5193POPC   PO467836  38.644  28.948   5.417
 5193POPC   GL167837  38.777  29.147   5.825
 5193POPC   GL267838  38.873  28.865   6.034
 5193POPC   C1A67839  38.634  29.373   6.215
 5193POPC   D2A67840  38.255  29.342   6.475
 5193POPC   C3A67841  38.402  29.386   6.872
 5193POPC   C4A67842  38.337  29.301   7.283
 5193POPC   C1B67843  38.524  28.868   6.341
 5193POPC   C2B67844  38.403  28.864   6.791
 5193POPC   C3B67845  38.458  28.808   7.257
 5193POPC   C4B67846  38.578  28.872   7.709
 5194POPC   NC367847  37.675   4.463   5.125
 5194POPC   PO467848  37.737   3.902   5.486
 5194POPC   GL167849  37.762   4.265   5.745
 5194POPC   GL267850  37.502   4.155   5.868
 5194POPC   C1A67851  37.951   4.284   6.159
 5194POPC   D2A67852  38.005   3.970   6.511
 5194POPC   C3A67853  37.983   4.175   6.931
 5194POPC   C4A67854  37.844   4.571   7.164
 5194POPC   C1B67855  37.410   4.353   6.206
 5194POPC   C2B67856  37.619   4.305   6.569
 5194POPC   C3B67857  37.475   4.250   6.954
 5194POPC   C4B67858  37.387   4.360   7.348
 5195POPC   NC367859  13.145  26.557   5.639
 5195POPC   PO467860  13.787  26.820   5.387
 5195POPC   GL167861  13.710  26.967   5.825
 5195POPC   GL267862  13.901  27.304   5.911
 5195POPC   C1A67863  13.522  26.784   6.232
 5195POPC   D2A67864  13.303  26.933   6.617
 5195POPC   C3A67865  13.521  26.869   6.984
 5195POPC   C4A67866  13.642  26.479   7.148
 5195POPC   C1B67867  13.964  27.046   6.259
 5195POPC   C2B67868  14.018  26.727   6.519
 5195POPC   C3B67869  14.024  26.775   6.932
 5195POPC   C4B67870  13.944  27.166   7.133
 5196POPC   NC367871  10.058   8.774   5.396
 5196POPC   PO467872   9.483   9.083   5.300
 5196POPC   GL167873   9.714   9.026   5.722
 5196POPC   GL267874  10.107   9.120   5.763
 5196POPC   C1A67875   9.522   8.909   6.144
 5196POPC   D2A67876   9.507   8.685   6.556
 5196POPC   C3A67877   9.477   8.918   6.951
 5196POPC   C4A67878   9.671   8.882   7.348
 5196POPC   C1B67879   9.996   9.116   6.190
 5196POPC   C2B67880   9.763   9.150   6.582
 5196POPC   C3B67881   9.974   8.925   6.905
 5196POPC   C4B67882  10.225   8.957   7.246
 5197POPC   NC367883  23.617  32.758   5.541
 5197POPC   PO467884  23.384  33.399   5.341
 5197POPC   GL167885  23.387  33.127   5.854
 5197POPC   GL267886  23.662  32.887   6.030
 5197POPC   C1A67887  23.395  33.029   6.405
 5197POPC   D2A67888  23.766  33.194   6.693
 5197POPC   C3A67889  23.735  33.240   7.139
 5197POPC   C4A67890  23.543  32.911   7.308
 5197POPC   C1B67891  24.026  32.983   6.310
 5197POPC   C2B67892  24.211  32.884   6.689
 5197POPC   C3B67893  23.959  32.768   7.013
 5197POPC   C4B67894  24.015  32.647   7.425
 5198POPC   NC367895   7.862  11.452   5.539
 5198POPC   PO467896   7.199  11.188   5.385
 5198POPC   GL167897   7.379  11.339   5.756
 5198POPC   GL267898   7.667  11.140   5.891
 5198POPC   C1A67899   7.252  11.216   6.182
 5198POPC   D2A67900   7.475  11.212   6.559
 5198POPC   C3A67901   7.316  11.471   6.862
 5198POPC   C4A67902   7.285  11.179   7.157
 5198POPC   C1B67903   7.751  11.491   6.216
 5198POPC   C2B67904   7.771  11.641   6.678
 5198POPC   C3B67905   7.731  11.549   7.155
 5198POPC   C4B67906   7.850  11.628   7.607
 5199POPC   NC367907  19.431   5.930   5.401
 5199POPC   PO467908  18.771   5.765   5.525
 5199POPC   GL167909  19.050   6.011   5.795
 5199POPC   GL267910  19.390   6.220   5.809
 5199POPC   C1A67911  18.967   6.075   6.212
 5199POPC   D2A67912  18.982   6.317   6.573
 5199POPC   C3A67913  18.916   6.028   6.861
 5199POPC   C4A67914  18.940   5.920   7.264
 5199POPC   C1B67915  19.494   6.103   6.193
 5199POPC   C2B67916  19.513   6.314   6.551
 5199POPC   C3B67917  19.432   6.074   6.875
 5199POPC   C4B67918  19.468   5.882   7.254
 5200POPC   NC367919  30.770  30.091   5.355
 5200POPC   PO467920  30.212  29.880   5.733
 5200POPC   GL167921  30.593  29.971   5.962
 5200POPC   GL267922  30.713  30.270   5.843
 5200POPC   C1A67923  30.881  29.786   6.281
 5200POPC   D2A67924  30.737  29.589   6.678
 5200POPC   C3A67925  30.851  29.768   7.056
 5200POPC   C4A67926  30.632  29.839   7.448
 5200POPC   C1B67927  30.865  30.306   6.262
 5200POPC   C2B67928  30.836  30.122   6.678
 5200POPC   C3B67929  30.816  30.271   7.105
 5200POPC   C4B67930  30.875  30.272   7.554
 5201POPC   NC367931  10.794  14.400   5.589
 5201POPC   PO467932  10.234  14.199   5.489
 5201POPC   GL167933  10.400  14.263   5.863
 5201POPC   GL267934  10.419  14.640   5.862
 5201POPC   C1A67935  10.602  14.363   6.263
 5201POPC   D2A67936  10.385  14.383   6.646
 5201POPC   C3A67937  10.383  14.646   6.974
 5201POPC   C4A67938  10.412  14.328   7.293
 5201POPC   C1B67939  10.751  14.828   6.143
 5201POPC   C2B67940  10.786  14.746   6.581
 5201POPC   C3B67941  10.877  14.542   6.967
 5201POPC   C4B67942  10.760  14.708   7.347
 5202POPC   NC367943  16.272   4.801   5.341
 5202POPC   PO467944  16.936   5.080   5.316
 5202POPC   GL167945  16.685   4.974   5.664
 5202POPC   GL267946  16.478   5.259   5.774
 5202POPC   C1A67947  16.785   4.986   6.097
 5202POPC   D2A67948  16.712   4.889   6.521
 5202POPC   C3A67949  16.881   4.945   6.920
 5202POPC   C4A67950  16.692   4.707   7.273
 5202POPC   C1B67951  16.714   5.466   6.155
 5202POPC   C2B67952  16.793   5.421   6.602
 5202POPC   C3B67953  16.629   5.405   7.033
 5202POPC   C4B67954  16.531   5.183   7.433
 5203POPC   NC367955  33.313  34.631   4.964
 5203POPC   PO467956  32.845  34.450   5.360
 5203POPC   GL167957  32.967  34.777   5.649
 5203POPC   GL267958  33.303  34.739   5.741
 5203POPC   C1A67959  32.959  34.844   6.117
 5203POPC   D2A67960  33.202  34.845   6.520
 5203POPC   C3A67961  32.946  34.753   6.915
 5203POPC   C4A67962  33.043  34.591   7.328
 5203POPC   C1B67963  33.382  34.512   6.132
 5203POPC   C2B67964  33.530  34.363   6.525
 5203POPC   C3B67965  33.402  34.434   6.915
 5203POPC   C4B67966  33.500  34.345   7.314
 5204POPC   NC367967  34.372  19.565   5.557
 5204POPC   PO467968  34.724  18.943   5.450
 5204POPC   GL167969  34.695  19.229   5.788
 5204POPC   GL267970  34.357  19.203   5.929
 5204POPC   C1A67971  34.800  19.357   6.192
 5204POPC   D2A67972  34.596  19.136   6.517
 5204POPC   C3A67973  34.651  19.271   6.939
 5204POPC   C4A67974  34.418  19.225   7.306
 5204POPC   C1B67975  34.273  18.815   6.166
 5204POPC   C2B67976  34.463  18.576   6.494
 5204POPC   C3B67977  34.270  18.544   6.920
 5204POPC   C4B67978  34.143  18.786   7.242
 5205POPC   NC367979   0.165   7.274   5.462
 5205POPC   PO467980  44.518   7.350   5.345
 5205POPC   GL167981  44.713   7.317   5.744
 5205POPC   GL267982   0.010   7.499   5.887
 5205POPC   C1A67983  44.595   7.338   6.166
 5205POPC   D2A67984  44.785   7.263   6.558
 5205POPC   C3A67985  44.587   7.349   6.969
 5205POPC   C4A67986  44.586   7.460   7.405
 5205POPC   C1B67987  44.912   7.712   6.297
 5205POPC   C2B67988  44.922   7.717   6.760
 5205POPC   C3B67989  44.822   7.860   7.176
 5205POPC   C4B67990  44.962   7.726   7.623
 5206POPC   NC367991  35.133  16.252   5.478
 5206POPC   PO467992  35.610  15.854   5.122
 5206POPC   GL167993  35.549  15.911   5.602
 5206POPC   GL267994  35.679  16.226   5.713
 5206POPC   C1A67995  35.591  15.836   6.080
 5206POPC   D2A67996  35.633  16.035   6.507
 5206POPC   C3A67997  35.784  15.785   6.857
 5206POPC   C4A67998  35.433  15.685   7.071
 5206POPC   C1B67999  35.439  16.349   6.110
 5206POPC   C2B68000  35.153  16.273   6.462
 5206POPC   C3B68001  35.174  16.197   6.897
 5206POPC   C4B68002  35.092  16.044   7.309
 5207POPC   NC368003  32.750  19.395   5.320
 5207POPC   PO468004  32.081  19.232   5.340
 5207POPC   GL168005  32.067  19.067   5.751
 5207POPC   GL268006  31.898  18.749   5.678
 5207POPC   C1A68007  32.365  19.079   6.125
 5207POPC   D2A68008  32.462  18.958   6.562
 5207POPC   C3A68009  32.337  19.272   6.885
 5207POPC   C4A68010  32.515  19.212   7.316
 5207POPC   C1B68011  32.040  18.670   6.091
 5207POPC   C2B68012  32.060  18.586   6.532
 5207POPC   C3B68013  31.853  18.657   6.945
 5207POPC   C4B68014  31.917  19.012   7.231
 5208POPC   NC368015  26.695  33.843   5.220
 5208POPC   PO468016  27.283  33.515   5.369
 5208POPC   GL168017  27.140  33.784   5.762
 5208POPC   GL268018  26.829  33.988   5.722
 5208POPC   C1A68019  26.986  33.786   6.226
 5208POPC   D2A68020  27.050  34.012   6.643
 5208POPC   C3A68021  27.039  33.743   6.995
 5208POPC   C4A68022  26.656  33.572   7.171
 5208POPC   C1B68023  26.687  34.174   6.119
 5208POPC   C2B68024  26.515  34.255   6.531
 5208POPC   C3B68025  26.580  34.043   6.925
 5208POPC   C4B68026  26.806  34.071   7.301
 5209POPC   NC368027  31.746  18.012   5.380
 5209POPC   PO468028  31.144  17.779   5.474
 5209POPC   GL168029  31.402  18.108   5.786
 5209POPC   GL268030  31.762  18.262   5.831
 5209POPC   C1A68031  31.416  18.340   6.215
 5209POPC   D2A68032  31.305  18.236   6.665
 5209POPC   C3A68033  31.370  18.475   7.058
 5209POPC   C4A68034  31.286  18.317   7.471
 5209POPC   C1B68035  31.761  17.936   6.159
 5209POPC   C2B68036  31.756  17.953   6.613
 5209POPC   C3B68037  31.675  18.042   7.043
 5209POPC   C4B68038  31.832  18.048   7.452
 5210POPC   NC368039   9.668  37.871   5.422
 5210POPC   PO468040   9.469  37.375   5.837
 5210POPC   GL168041   9.544  37.767   5.970
 5210POPC   GL268042   9.883  37.810   5.992
 5210POPC   C1A68043   9.654  37.832   6.427
 5210POPC   D2A68044   9.983  38.006   6.667
 5210POPC   C3A68045   9.838  37.790   7.014
 5210POPC   C4A68046   9.786  37.590   7.390
 5210POPC   C1B68047  10.115  37.575   6.313
 5210POPC   C2B68048  10.143  37.469   6.752
 5210POPC   C3B68049  10.191  37.398   7.184
 5210POPC   C4B68050  10.172  37.357   7.652
 5211POPC   NC368051   9.751  20.730   5.436
 5211POPC   PO468052   9.781  20.150   5.255
 5211POPC   GL168053   9.690  20.302   5.720
 5211POPC   GL268054   9.994  20.496   5.849
 5211POPC   C1A68055   9.592  20.471   6.163
 5211POPC   D2A68056   9.374  20.594   6.574
 5211POPC   C3A68057   9.505  20.740   6.963
 5211POPC   C4A68058   9.653  20.441   7.225
 5211POPC   C1B68059  10.075  20.716   6.243
 5211POPC   C2B68060   9.929  20.652   6.681
 5211POPC   C3B68061   9.994  20.820   7.135
 5211POPC   C4B68062  10.151  20.754   7.588
 5212POPC   NC368063  17.934  32.730   5.319
 5212POPC   PO468064  17.310  32.871   5.484
 5212POPC   GL168065  17.437  32.843   5.889
 5212POPC   GL268066  17.565  33.158   5.899
 5212POPC   C1A68067  17.357  32.951   6.316
 5212POPC   D2A68068  17.516  33.103   6.696
 5212POPC   C3A68069  17.557  32.772   6.982
 5212POPC   C4A68070  17.215  32.740   7.274
 5212POPC   C1B68071  17.603  33.426   6.276
 5212POPC   C2B68072  17.512  33.659   6.656
 5212POPC   C3B68073  17.704  33.521   7.022
 5212POPC   C4B68074  17.460  33.216   7.209
 5213POPC   NC368075  20.901  12.439   5.568
 5213POPC   PO468076  21.231  12.931   5.299
 5213POPC   GL168077  21.251  12.826   5.786
 5213POPC   GL268078  21.545  12.883   5.979
 5213POPC   C1A68079  21.231  12.629   6.278
 5213POPC   D2A68080  20.983  12.601   6.663
 5213POPC   C3A68081  21.183  12.846   7.031
 5213POPC   C4A68082  21.429  12.662   7.376
 5213POPC   C1B68083  21.742  12.669   6.315
 5213POPC   C2B68084  21.577  12.687   6.726
 5213POPC   C3B68085  21.703  12.962   7.071
 5213POPC   C4B68086  21.699  13.087   7.500
 5214POPC   NC368087   5.756  35.539   5.448
 5214POPC   PO468088   6.251  35.048   5.514
 5214POPC   GL168089   6.015  35.315   5.834
 5214POPC   GL268090   5.643  35.419   5.931
 5214POPC   C1A68091   6.080  35.483   6.228
 5214POPC   D2A68092   5.891  35.301   6.576
 5214POPC   C3A68093   6.177  35.409   6.908
 5214POPC   C4A68094   6.101  35.185   7.300
 5214POPC   C1B68095   5.676  35.785   6.237
 5214POPC   C2B68096   5.894  35.785   6.677
 5214POPC   C3B68097   5.709  35.471   7.053
 5214POPC   C4B68098   5.688  35.347   7.510
 5215POPC   NC368099  17.576   2.989   5.288
 5215POPC   PO468100  17.402   2.488   5.515
 5215POPC   GL168101  17.434   2.772   5.816
 5215POPC   GL268102  17.750   2.956   5.770
 5215POPC   C1A68103  17.430   2.613   6.218
 5215POPC   D2A68104  17.688   2.443   6.513
 5215POPC   C3A68105  17.527   2.473   6.909
 5215POPC   C4A68106  17.182   2.655   7.147
 5215POPC   C1B68107  17.778   2.981   6.226
 5215POPC   C2B68108  17.598   2.942   6.663
 5215POPC   C3B68109  17.680   2.911   7.122
 5215POPC   C4B68110  17.688   3.019   7.590
 5216POPC   NC368111   7.700  37.368   5.543
 5216POPC   PO468112   7.183  37.815   5.274
 5216POPC   GL168113   7.387  37.781   5.689
 5216POPC   GL268114   7.745  37.917   5.652
 5216POPC   C1A68115   7.400  37.503   6.093
 5216POPC   D2A68116   7.231  37.329   6.481
 5216POPC   C3A68117   7.476  37.555   6.775
 5216POPC   C4A68118   7.545  37.560   7.222
 5216POPC   C1B68119   7.602  38.005   6.097
 5216POPC   C2B68120   7.695  38.032   6.545
 5216POPC   C3B68121   7.804  37.913   6.945
 5216POPC   C4B68122   7.667  38.077   7.294
 5217POPC   NC368123  38.163  26.818   5.409
 5217POPC   PO468124  37.528  26.634   5.367
 5217POPC   GL168125  37.560  26.915   5.733
 5217POPC   GL268126  37.888  27.017   5.793
 5217POPC   C1A68127  37.375  27.053   6.139
 5217POPC   D2A68128  37.500  26.950   6.566
 5217POPC   C3A68129  37.597  27.226   6.903
 5217POPC   C4A68130  37.553  26.972   7.265
 5217POPC   C1B68131  37.881  27.120   6.229
 5217POPC   C2B68132  38.096  26.966   6.604
 5217POPC   C3B68133  37.997  26.812   7.028
 5217POPC   C4B68134  37.971  26.795   7.495
 5218POPC   NC368135  25.520  17.778   5.593
 5218POPC   PO468136  25.031  17.242   5.469
 5218POPC   GL168137  25.097  17.501   5.846
 5218POPC   GL268138  25.445  17.421   5.938
 5218POPC   C1A68139  25.104  17.394   6.307
 5218POPC   D2A68140  25.154  17.593   6.694
 5218POPC   C3A68141  25.357  17.389   7.033
 5218POPC   C4A68142  25.046  17.167   7.224
 5218POPC   C1B68143  25.422  17.778   6.235
 5218POPC   C2B68144  25.497  17.958   6.648
 5218POPC   C3B68145  25.354  17.882   7.075
 5218POPC   C4B68146  24.928  17.904   7.206
 5219POPC   NC368147   0.737   0.932   4.982
 5219POPC   PO468148   0.679   1.522   5.389
 5219POPC   GL168149   0.338   1.435   5.670
 5219POPC   GL268150   0.196   1.740   5.822
 5219POPC   C1A68151   0.161   1.173   6.015
 5219POPC   D2A68152   0.260   1.075   6.445
 5219POPC   C3A68153   0.055   1.055   6.862
 5219POPC   C4A68154   0.262   0.826   7.202
 5219POPC   C1B68155   0.389   1.598   6.192
 5219POPC   C2B68156   0.314   1.560   6.615
 5219POPC   C3B68157   0.263   1.649   7.019
 5219POPC   C4B68158   0.258   1.327   7.259
 5220POPC   NC368159  17.960  22.420   5.385
 5220POPC   PO468160  18.534  21.993   5.269
 5220POPC   GL168161  18.553  22.148   5.708
 5220POPC   GL268162  18.274  22.381   5.789
 5220POPC   C1A68163  18.419  22.022   6.138
 5220POPC   D2A68164  18.192  22.093   6.531
 5220POPC   C3A68165  18.401  22.324   6.869
 5220POPC   C4A68166  18.465  21.971   7.128
 5220POPC   C1B68167  18.318  22.527   6.207
 5220POPC   C2B68168  18.070  22.584   6.555
 5220POPC   C3B68169  17.759  22.595   6.834
 5220POPC   C4B68170  18.003  22.460   7.200
 5221POPC   NC368171  43.580   2.938   5.377
 5221POPC   PO468172  44.150   2.568   5.464
 5221POPC   GL168173  43.917   2.608   5.856
 5221POPC   GL268174  43.666   2.860   5.853
 5221POPC   C1A68175  43.932   2.837   6.276
 5221POPC   D2A68176  44.013   2.942   6.704
 5221POPC   C3A68177  43.882   2.652   6.983
 5221POPC   C4A68178  44.197   2.656   7.248
 5221POPC   C1B68179  43.447   3.094   6.158
 5221POPC   C2B68180  43.533   3.166   6.586
 5221POPC   C3B68181  43.779   3.366   6.906
 5221POPC   C4B68182  43.859   3.101   7.236
 5222POPC   NC368183  30.150  36.637   5.535
 5222POPC   PO468184  29.867  36.040   5.289
 5222POPC   GL168185  29.731  36.091   5.724
 5222POPC   GL268186  29.798  36.415   5.787
 5222POPC   C1A68187  29.843  35.979   6.140
 5222POPC   D2A68188  30.197  35.821   6.398
 5222POPC   C3A68189  30.189  35.868   6.861
 5222POPC   C4A68190  29.981  35.943   7.272
 5222POPC   C1B68191  29.964  36.462   6.218
 5222POPC   C2B68192  29.864  36.217   6.594
 5222POPC   C3B68193  29.974  36.334   6.979
 5222POPC   C4B68194  29.771  36.434   7.350
 5223POPC   NC368195  39.633   1.302   5.723
 5223POPC   PO468196  38.973   1.163   5.475
 5223POPC   GL168197  39.170   1.071   5.864
 5223POPC   GL268198  39.271   1.296   6.116
 5223POPC   C1A68199  39.055   0.862   6.251
 5223POPC   D2A68200  39.297   0.849   6.608
 5223POPC   C3A68201  39.465   1.217   6.829
 5223POPC   C4A68202  39.425   1.365   7.254
 5223POPC   C1B68203  38.825   1.346   6.175
 5223POPC   C2B68204  38.705   1.432   6.586
 5223POPC   C3B68205  38.652   1.377   7.030
 5223POPC   C4B68206  38.983   1.142   7.166
 5224POPC   NC368207  44.129  31.945   5.469
 5224POPC   PO468208  43.621  32.364   5.396
 5224POPC   GL168209  43.725  32.105   5.750
 5224POPC   GL268210  44.007  32.294   5.824
 5224POPC   C1A68211  43.888  31.920   6.152
 5224POPC   D2A68212  43.865  31.797   6.586
 5224POPC   C3A68213  43.982  32.071   6.926
 5224POPC   C4A68214  43.786  32.125   7.301
 5224POPC   C1B68215  43.920  32.435   6.209
 5224POPC   C2B68216  43.820  32.423   6.621
 5224POPC   C3B68217  43.920  32.576   7.077
 5224POPC   C4B68218  44.252  32.764   7.354
 5225POPC   NC368219  28.614  43.732   5.418
 5225POPC   PO468220  27.937  43.742   5.285
 5225POPC   GL168221  28.178  43.692   5.717
 5225POPC   GL268222  27.970  43.461   5.942
 5225POPC   C1A68223  28.542  43.708   6.089
 5225POPC   D2A68224  28.445  43.646   6.586
 5225POPC   C3A68225  28.416  43.859   7.020
 5225POPC   C4A68226  28.379  43.729   7.493
 5225POPC   C1B68227  28.075  43.828   6.219
 5225POPC   C2B68228  28.124  44.060   6.622
 5225POPC   C3B68229  27.970  44.235   6.982
 5225POPC   C4B68230  28.156  44.156   7.377
 5226POPC   NC368231  21.911   1.622   5.642
 5226POPC   PO468232  22.307   2.024   5.292
 5226POPC   GL168233  22.145   2.081   5.754
 5226POPC   GL268234  21.861   2.295   5.837
 5226POPC   C1A68235  22.129   1.934   6.209
 5226POPC   D2A68236  22.298   1.744   6.588
 5226POPC   C3A68237  22.124   1.866   7.002
 5226POPC   C4A68238  22.263   2.249   7.218
 5226POPC   C1B68239  21.733   2.266   6.241
 5226POPC   C2B68240  21.791   2.030   6.603
 5226POPC   C3B68241  21.849   2.286   6.929
 5226POPC   C4B68242  21.784   2.173   7.326
 5227POPC   NC368243   1.972  20.118   5.686
 5227POPC   PO468244   2.237  19.544   5.451
 5227POPC   GL168245   2.059  19.650   5.866
 5227POPC   GL268246   1.734  19.558   5.929
 5227POPC   C1A68247   2.021  19.887   6.282
 5227POPC   D2A68248   1.852  19.852   6.725
 5227POPC   C3A68249   2.121  19.874   7.083
 5227POPC   C4A68250   2.290  20.201   7.329
 5227POPC   C1B68251   1.574  19.652   6.322
 5227POPC   C2B68252   1.559  19.406   6.690
 5227POPC   C3B68253   1.619  19.482   7.127
 5227POPC   C4B68254   1.899  19.566   7.442
 5228POPC   NC368255  26.259  36.311   5.366
 5228POPC   PO468256  26.682  35.956   5.423
 5228POPC   GL168257  26.356  35.882   5.785
 5228POPC   GL268258  26.065  36.137   5.835
 5228POPC   C1A68259  26.199  35.863   6.264
 5228POPC   D2A68260  26.127  36.099   6.683
 5228POPC   C3A68261  25.926  35.888   7.041
 5228POPC   C4A68262  26.096  35.552   7.294
 5228POPC   C1B68263  25.834  36.237   6.257
 5228POPC   C2B68264  25.782  36.479   6.662
 5228POPC   C3B68265  25.783  36.381   7.128
 5228POPC   C4B68266  25.685  36.265   7.584
 5229POPC   NC368267  15.824  13.238   5.404
 5229POPC   PO468268  16.240  13.752   5.463
 5229POPC   GL168269  16.049  13.498   5.776
 5229POPC   GL268270  16.295  13.298   5.974
 5229POPC   C1A68271  15.707  13.643   6.046
 5229POPC   D2A68272  15.568  13.488   6.439
 5229POPC   C3A68273  15.851  13.392   6.746
 5229POPC   C4A68274  15.785  13.480   7.177
 5229POPC   C1B68275  16.212  13.728   6.179
 5229POPC   C2B68276  15.965  13.889   6.517
 5229POPC   C3B68277  16.089  13.798   6.928
 5229POPC   C4B68278  16.243  13.319   7.067
 5230POPC   NC368279  18.009  27.479   5.554
 5230POPC   PO468280  17.354  27.407   5.453
 5230POPC   GL168281  17.569  27.589   5.836
 5230POPC   GL268282  17.821  27.884   5.867
 5230POPC   C1A68283  17.728  27.399   6.221
 5230POPC   D2A68284  17.581  27.227   6.605
 5230POPC   C3A68285  17.535  27.392   7.006
 5230POPC   C4A68286  17.798  27.712   7.168
 5230POPC   C1B68287  17.558  27.870   6.270
 5230POPC   C2B68288  17.618  27.786   6.686
 5230POPC   C3B68289  17.330  27.880   7.041
 5230POPC   C4B68290  17.189  28.158   7.344
 5231POPC   NC368291  16.424  10.577   5.117
 5231POPC   PO468292  15.847  10.491   5.463
 5231POPC   GL168293  15.798  10.540   5.857
 5231POPC   GL268294  15.660  10.221   5.916
 5231POPC   C1A68295  15.763  10.649   6.271
 5231POPC   D2A68296  16.022  10.554   6.615
 5231POPC   C3A68297  15.766  10.620   6.955
 5231POPC   C4A68298  15.784  10.584   7.368
 5231POPC   C1B68299  16.031  10.205   6.189
 5231POPC   C2B68300  16.125  10.029   6.570
 5231POPC   C3B68301  16.006  10.146   6.950
 5231POPC   C4B68302  16.168  10.199   7.335
 5232POPC   NC368303  20.749   3.662   5.386
 5232POPC   PO468304  20.365   3.197   5.584
 5232POPC   GL168305  20.672   3.392   5.828
 5232POPC   GL268306  20.502   3.710   5.865
 5232POPC   C1A68307  20.639   3.411   6.277
 5232POPC   D2A68308  20.272   3.362   6.538
 5232POPC   C3A68309  20.423   3.487   6.933
 5232POPC   C4A68310  20.422   3.820   7.205
 5232POPC   C1B68311  20.912   3.819   6.090
 5232POPC   C2B68312  21.056   3.783   6.539
 5232POPC   C3B68313  20.873   3.843   6.953
 5232POPC   C4B68314  20.858   3.823   7.443
 5233POPC   NC368315  22.732   6.999   5.399
 5233POPC   PO468316  23.033   6.333   5.480
 5233POPC   GL168317  22.874   6.608   5.757
 5233POPC   GL268318  23.201   6.616   5.953
 5233POPC   C1A68319  22.747   6.723   6.170
 5233POPC   D2A68320  23.110   6.770   6.453
 5233POPC   C3A68321  23.030   6.772   6.896
 5233POPC   C4A68322  22.604   6.810   7.037
 5233POPC   C1B68323  23.251   6.297   6.308
 5233POPC   C2B68324  23.258   6.303   6.774
 5233POPC   C3B68325  23.375   6.131   7.194
 5233POPC   C4B68326  23.304   6.297   7.635
 5234POPC   NC368327  10.082  15.787   5.345
 5234POPC   PO468328   9.495  16.006   5.366
 5234POPC   GL168329   9.752  16.014   5.721
 5234POPC   GL268330   9.838  15.674   5.785
 5234POPC   C1A68331   9.796  16.048   6.172
 5234POPC   D2A68332   9.760  15.882   6.606
 5234POPC   C3A68333   9.865  16.231   6.901
 5234POPC   C4A68334  10.059  16.136   7.303
 5234POPC   C1B68335  10.069  15.581   6.156
 5234POPC   C2B68336  10.248  15.602   6.544
 5234POPC   C3B68337  10.210  15.824   6.923
 5234POPC   C4B68338  10.192  15.607   7.311
 5235POPC   NC368339   9.590   2.265   5.351
 5235POPC   PO468340  10.125   1.895   5.414
 5235POPC   GL168341   9.944   1.959   5.801
 5235POPC   GL268342   9.599   1.963   5.799
 5235POPC   C1A68343   9.913   1.866   6.246
 5235POPC   D2A68344   9.709   1.803   6.663
 5235POPC   C3A68345   9.864   2.028   7.035
 5235POPC   C4A68346  10.132   1.898   7.426
 5235POPC   C1B68347   9.508   2.219   6.199
 5235POPC   C2B68348   9.203   2.166   6.550
 5235POPC   C3B68349   9.338   2.053   6.953
 5235POPC   C4B68350   9.482   1.701   7.148
 5236POPC   NC368351   4.630  20.310   5.434
 5236POPC   PO468352   5.324  20.272   5.382
 5236POPC   GL168353   5.298  20.500   5.796
 5236POPC   GL268354   4.956  20.581   5.773
 5236POPC   C1A68355   5.209  20.620   6.252
 5236POPC   D2A68356   5.127  20.825   6.653
 5236POPC   C3A68357   5.322  20.641   7.021
 5236POPC   C4A68358   5.346  20.731   7.465
 5236POPC   C1B68359   4.825  20.319   6.126
 5236POPC   C2B68360   4.917  20.284   6.577
 5236POPC   C3B68361   4.806  20.460   6.985
 5236POPC   C4B68362   4.660  20.464   7.417
 5237POPC   NC368363   4.905   5.526   5.114
 5237POPC   PO468364   4.981   4.877   5.159
 5237POPC   GL168365   5.151   5.095   5.580
 5237POPC   GL268366   4.992   5.393   5.656
 5237POPC   C1A68367   5.130   4.952   6.068
 5237POPC   D2A68368   4.947   4.714   6.453
 5237POPC   C3A68369   5.072   4.885   6.846
 5237POPC   C4A68370   5.142   4.774   7.273
 5237POPC   C1B68371   4.824   5.359   6.100
 5237POPC   C2B68372   5.006   5.403   6.552
 5237POPC   C3B68373   4.852   5.352   6.993
 5237POPC   C4B68374   4.622   5.448   7.382
 5238POPC   NC368375  20.001  37.424   5.629
 5238POPC   PO468376  19.586  37.796   5.185
 5238POPC   GL168377  19.691  37.825   5.683
 5238POPC   GL268378  20.073  37.937   5.761
 5238POPC   C1A68379  19.680  37.671   6.160
 5238POPC   D2A68380  19.744  37.327   6.524
 5238POPC   C3A68381  19.693  37.451   6.970
 5238POPC   C4A68382  19.410  37.374   7.301
 5238POPC   C1B68383  20.145  37.863   6.231
 5238POPC   C2B68384  19.948  37.788   6.652
 5238POPC   C3B68385  19.752  37.953   7.060
 5238POPC   C4B68386  19.733  37.726   7.462
 5239POPC   NC368387  28.619   8.747   5.321
 5239POPC   PO468388  28.779   9.375   5.331
 5239POPC   GL168389  28.761   9.032   5.733
 5239POPC   GL268390  28.419   8.848   5.772
 5239POPC   C1A68391  28.652   8.891   6.212
 5239POPC   D2A68392  28.424   8.754   6.598
 5239POPC   C3A68393  28.445   8.892   7.068
 5239POPC   C4A68394  28.075   8.966   7.384
 5239POPC   C1B68395  28.122   8.856   6.140
 5239POPC   C2B68396  27.898   8.828   6.534
 5239POPC   C3B68397  27.994   8.696   6.948
 5239POPC   C4B68398  28.069   8.454   7.325
 5240POPC   NC368399  15.504  19.021   5.372
 5240POPC   PO468400  14.861  19.010   5.452
 5240POPC   GL168401  15.153  19.201   5.752
 5240POPC   GL268402  15.366  18.946   5.854
 5240POPC   C1A68403  15.193  19.282   6.212
 5240POPC   D2A68404  15.022  19.165   6.643
 5240POPC   C3A68405  15.191  19.335   7.069
 5240POPC   C4A68406  15.066  19.202   7.520
 5240POPC   C1B68407  15.588  18.968   6.252
 5240POPC   C2B68408  15.528  19.091   6.676
 5240POPC   C3B68409  15.479  18.906   7.100
 5240POPC   C4B68410  15.368  18.769   7.546
 5241POPC   NC368411  10.556  30.805   5.257
 5241POPC   PO468412  10.679  31.191   5.797
 5241POPC   GL168413  10.621  30.752   5.777
 5241POPC   GL268414  10.310  30.579   5.845
 5241POPC   C1A68415  10.795  30.640   6.177
 5241POPC   D2A68416  10.789  30.878   6.596
 5241POPC   C3A68417  10.763  30.619   6.981
 5241POPC   C4A68418  10.552  30.625   7.399
 5241POPC   C1B68419  10.279  30.804   6.197
 5241POPC   C2B68420  10.245  30.716   6.613
 5241POPC   C3B68421  10.347  30.922   6.981
 5241POPC   C4B68422  10.305  31.112   7.363
 5242POPC   NC368423  24.844   0.113   5.433
 5242POPC   PO468424  24.313   0.540   5.345
 5242POPC   GL168425  24.609   0.486   5.732
 5242POPC   GL268426  24.622   0.124   5.885
 5242POPC   C1A68427  24.664   0.644   6.166
 5242POPC   D2A68428  24.807   0.752   6.605
 5242POPC   C3A68429  24.556   0.627   6.985
 5242POPC   C4A68430  24.638   0.612   7.435
 5242POPC   C1B68431  24.778   0.142   6.303
 5242POPC   C2B68432  24.626   0.147   6.740
 5242POPC   C3B68433  24.799   0.208   7.148
 5242POPC   C4B68434  24.765   0.137   7.598
 5243POPC   NC368435  28.800  17.571   5.307
 5243POPC   PO468436  28.158  17.462   4.959
 5243POPC   GL168437  28.119  17.492   5.475
 5243POPC   GL268438  28.420  17.568   5.651
 5243POPC   C1A68439  28.119  17.358   5.986
 5243POPC   D2A68440  28.232  17.430   6.462
 5243POPC   C3A68441  28.173  17.433   6.946
 5243POPC   C4A68442  28.133  17.578   7.396
 5243POPC   C1B68443  28.567  17.613   6.085
 5243POPC   C2B68444  28.749  17.414   6.460
 5243POPC   C3B68445  28.660  17.559   6.888
 5243POPC   C4B68446  28.663  17.296   7.260
 5244POPC   NC368447  10.207   4.271   5.343
 5244POPC   PO468448  10.972   4.162   5.551
 5244POPC   GL168449  10.732   4.246   5.922
 5244POPC   GL268450  10.437   4.437   5.797
 5244POPC   C1A68451  10.488   4.095   6.282
 5244POPC   D2A68452  10.539   3.830   6.653
 5244POPC   C3A68453  10.404   4.082   7.015
 5244POPC   C4A68454  10.716   4.287   7.313
 5244POPC   C1B68455  10.491   4.604   6.224
 5244POPC   C2B68456  10.320   4.470   6.649
 5244POPC   C3B68457  10.377   4.622   7.110
 5244POPC   C4B68458  10.356   4.525   7.603
 5245POPC   NC368459   9.403  37.120   5.455
 5245POPC   PO468460   8.849  36.706   5.427
 5245POPC   GL168461   8.781  36.835   5.848
 5245POPC   GL268462   8.977  37.143   5.820
 5245POPC   C1A68463   8.769  37.052   6.295
 5245POPC   D2A68464   8.686  37.015   6.744
 5245POPC   C3A68465   8.920  36.647   6.889
 5245POPC   C4A68466   8.875  36.539   7.311
 5245POPC   C1B68467   9.226  36.851   6.123
 5245POPC   C2B68468   9.367  36.978   6.556
 5245POPC   C3B68469   9.164  37.206   6.881
 5245POPC   C4B68470   9.000  37.014   7.230
 5246POPC   NC368471  18.547  34.003   5.317
 5246POPC   PO468472  18.083  33.501   5.415
 5246POPC   GL168473  18.149  33.744   5.766
 5246POPC   GL268474  18.025  33.448   5.940
 5246POPC   C1A68475  18.365  33.872   6.166
 5246POPC   D2A68476  18.341  34.105   6.572
 5246POPC   C3A68477  18.430  33.876   6.954
 5246POPC   C4A68478  18.545  33.988   7.341
 5246POPC   C1B68479  18.252  33.364   6.260
 5246POPC   C2B68480  18.432  33.513   6.604
 5246POPC   C3B68481  18.384  33.355   7.017
 5246POPC   C4B68482  18.323  33.511   7.400
 5247POPC   NC368483   9.408  31.997   5.511
 5247POPC   PO468484  10.002  32.276   5.592
 5247POPC   GL168485   9.753  32.086   5.872
 5247POPC   GL268486   9.501  32.352   5.887
 5247POPC   C1A68487   9.713  32.042   6.291
 5247POPC   D2A68488   9.828  32.300   6.619
 5247POPC   C3A68489   9.706  32.223   7.039
 5247POPC   C4A68490   9.865  32.610   7.143
 5247POPC   C1B68491   9.391  32.454   6.319
 5247POPC   C2B68492   9.407  32.574   6.767
 5247POPC   C3B68493   9.356  32.574   7.219
 5247POPC   C4B68494   9.211  32.310   7.563
 5248POPC   NC368495  22.940  35.304   5.356
 5248POPC   PO468496  22.487  35.799   5.469
 5248POPC   GL168497  22.829  35.624   5.771
 5248POPC   GL268498  22.947  35.280   5.858
 5248POPC   C1A68499  23.031  35.635   6.211
 5248POPC   D2A68500  23.155  35.377   6.606
 5248POPC   C3A68501  22.968  35.503   7.007
 5248POPC   C4A68502  22.892  35.878   7.275
 5248POPC   C1B68503  22.763  35.216   6.279
 5248POPC   C2B68504  22.703  35.140   6.709
 5248POPC   C3B68505  22.870  34.996   7.099
 5248POPC   C4B68506  23.153  35.035   7.433
 5249POPC   NC368507  32.512  34.972   5.380
 5249POPC   PO468508  32.077  34.414   5.528
 5249POPC   GL168509  32.291  34.350   5.889
 5249POPC   GL268510  32.506  34.605   5.771
 5249POPC   C1A68511  32.223  34.252   6.332
 5249POPC   D2A68512  32.111  34.093   6.763
 5249POPC   C3A68513  32.347  34.373   7.038
 5249POPC   C4A68514  32.224  34.522   7.466
 5249POPC   C1B68515  32.447  34.736   6.198
 5249POPC   C2B68516  32.447  34.654   6.627
 5249POPC   C3B68517  32.296  34.860   7.026
 5249POPC   C4B68518  32.603  34.829   7.342
 5250POPC   NC368519  31.715  13.835   5.465
 5250POPC   PO468520  31.242  13.345   5.237
 5250POPC   GL168521  31.441  13.412   5.696
 5250POPC   GL268522  31.338  13.742   5.798
 5250POPC   C1A68523  31.472  13.458   6.206
 5250POPC   D2A68524  31.320  13.394   6.667
 5250POPC   C3A68525  31.558  13.373   7.065
 5250POPC   C4A68526  31.554  13.364   7.535
 5250POPC   C1B68527  31.465  13.996   6.162
 5250POPC   C2B68528  31.490  13.891   6.605
 5250POPC   C3B68529  31.273  14.082   6.951
 5250POPC   C4B68530  30.995  14.022   7.312
 5251POPC   NC368531  30.936  16.609   5.151
 5251POPC   PO468532  31.588  16.604   5.106
 5251POPC   GL168533  31.277  16.818   5.536
 5251POPC   GL268534  31.518  17.033   5.792
 5251POPC   C1A68535  31.234  16.690   6.069
 5251POPC   D2A68536  31.419  16.611   6.533
 5251POPC   C3A68537  31.207  16.744   6.943
 5251POPC   C4A68538  31.404  16.790   7.388
 5251POPC   C1B68539  31.686  16.903   6.194
 5251POPC   C2B68540  31.739  17.087   6.562
 5251POPC   C3B68541  31.690  16.955   6.966
 5251POPC   C4B68542  31.812  17.182   7.311
 5252POPC   NC368543   5.133  36.376   5.124
 5252POPC   PO468544   4.887  36.992   5.394
 5252POPC   GL168545   4.905  36.899   5.833
 5252POPC   GL268546   4.681  36.618   5.820
 5252POPC   C1A68547   5.177  36.913   6.217
 5252POPC   D2A68548   5.352  37.204   6.517
 5252POPC   C3A68549   5.227  37.120   6.942
 5252POPC   C4A68550   5.346  36.734   7.112
 5252POPC   C1B68551   4.833  36.537   6.246
 5252POPC   C2B68552   4.927  36.782   6.658
 5252POPC   C3B68553   4.808  36.707   7.083
 5252POPC   C4B68554   4.719  37.004   7.415
 5253POPC   NC368555   5.281  36.581   5.636
 5253POPC   PO468556   4.742  36.404   5.362
 5253POPC   GL168557   4.957  36.158   5.727
 5253POPC   GL268558   4.796  35.812   5.776
 5253POPC   C1A68559   5.264  36.165   6.131
 5253POPC   D2A68560   5.276  36.467   6.486
 5253POPC   C3A68561   5.092  36.315   6.894
 5253POPC   C4A68562   5.308  36.274   7.308
 5253POPC   C1B68563   4.777  36.017   6.186
 5253POPC   C2B68564   4.966  35.888   6.577
 5253POPC   C3B68565   4.786  35.873   6.986
 5253POPC   C4B68566   4.824  36.165   7.337
 5254POPC   NC368567   7.922  23.035   5.523
 5254POPC   PO468568   8.504  22.671   5.459
 5254POPC   GL168569   8.264  22.762   5.813
 5254POPC   GL268570   7.996  22.570   5.708
 5254POPC   C1A68571   8.072  22.936   6.201
 5254POPC   D2A68572   7.914  22.977   6.637
 5254POPC   C3A68573   8.278  23.037   6.940
 5254POPC   C4A68574   8.275  23.133   7.418
 5254POPC   C1B68575   7.878  22.468   6.102
 5254POPC   C2B68576   7.834  22.421   6.524
 5254POPC   C3B68577   7.806  22.567   6.917
 5254POPC   C4B68578   8.009  22.722   7.209
 5255POPC   NC368579  11.658  13.024   5.296
 5255POPC   PO468580  12.279  13.007   5.541
 5255POPC   GL168581  11.980  12.842   5.839
 5255POPC   GL268582  11.787  12.610   5.636
 5255POPC   C1A68583  11.822  12.916   6.284
 5255POPC   D2A68584  11.820  13.179   6.672
 5255POPC   C3A68585  12.130  13.081   7.009
 5255POPC   C4A68586  12.331  12.913   7.407
 5255POPC   C1B68587  11.680  12.482   6.064
 5255POPC   C2B68588  11.959  12.454   6.431
 5255POPC   C3B68589  11.853  12.668   6.803
 5255POPC   C4B68590  11.907  12.663   7.231
 5256POPC   NC368591   0.060  18.284   5.570
 5256POPC   PO468592  44.407  18.036   5.556
 5256POPC   GL168593  44.612  18.263   5.854
 5256POPC   GL268594  44.763  17.989   5.966
 5256POPC   C1A68595  44.668  18.376   6.310
 5256POPC   D2A68596  44.860  18.428   6.700
 5256POPC   C3A68597  44.505  18.546   6.938
 5256POPC   C4A68598  44.422  18.368   7.305
 5256POPC   C1B68599  44.375  17.976   6.242
 5256POPC   C2B68600  44.417  18.095   6.684
 5256POPC   C3B68601  44.669  18.009   7.032
 5256POPC   C4B68602  44.976  17.733   7.224
 5257POPC   NC368603   9.339  12.568   5.540
 5257POPC   PO468604   8.830  12.982   5.461
 5257POPC   GL168605   9.122  12.959   5.775
 5257POPC   GL268606   9.411  13.131   5.758
 5257POPC   C1A68607   9.150  12.784   6.185
 5257POPC   D2A68608   9.140  12.573   6.577
 5257POPC   C3A68609   8.806  12.707   6.857
 5257POPC   C4A68610   8.991  12.555   7.202
 5257POPC   C1B68611   9.118  13.321   6.116
 5257POPC   C2B68612   8.936  13.133   6.494
 5257POPC   C3B68613   8.876  13.292   6.888
 5257POPC   C4B68614   8.939  13.119   7.276
 5258POPC   NC368615  32.904   0.129   5.343
 5258POPC   PO468616  33.501   0.451   5.455
 5258POPC   GL168617  33.158   0.552   5.713
 5258POPC   GL268618  32.853   0.368   5.772
 5258POPC   C1A68619  33.069   0.601   6.151
 5258POPC   D2A68620  33.039   0.393   6.517
 5258POPC   C3A68621  33.193   0.635   6.842
 5258POPC   C4A68622  33.093   0.579   7.275
 5258POPC   C1B68623  32.752   0.101   6.123
 5258POPC   C2B68624  32.609   0.136   6.553
 5258POPC   C3B68625  32.726   0.366   6.913
 5258POPC   C4B68626  32.712   0.236   7.269
 5259POPC   NC368627  27.592  33.135   5.181
 5259POPC   PO468628  27.208  32.630   5.496
 5259POPC   GL168629  27.565  32.902   5.683
 5259POPC   GL268630  27.290  32.942   5.919
 5259POPC   C1A68631  27.752  32.974   6.104
 5259POPC   D2A68632  27.583  33.050   6.545
 5259POPC   C3A68633  27.803  32.991   6.941
 5259POPC   C4A68634  27.682  33.143   7.356
 5259POPC   C1B68635  27.267  32.752   6.267
 5259POPC   C2B68636  27.357  32.591   6.656
 5259POPC   C3B68637  27.331  32.823   7.020
 5259POPC   C4B68638  27.262  32.662   7.394
 5260POPC   NC368639  23.034  28.211   5.572
 5260POPC   PO468640  23.348  28.714   5.643
 5260POPC   GL168641  22.977  28.562   5.919
 5260POPC   GL268642  22.624  28.535   5.732
 5260POPC   C1A68643  22.842  28.314   6.216
 5260POPC   D2A68644  23.055  28.282   6.583
 5260POPC   C3A68645  22.753  28.265   6.872
 5260POPC   C4A68646  22.836  28.145   7.255
 5260POPC   C1B68647  22.563  28.766   6.103
 5260POPC   C2B68648  22.814  28.754   6.490
 5260POPC   C3B68649  22.584  28.742   6.886
 5260POPC   C4B68650  22.825  28.659   7.221
 5261POPC   NC368651  27.883   8.089   5.481
 5261POPC   PO468652  27.301   8.410   5.416
 5261POPC   GL168653  27.291   8.159   5.797
 5261POPC   GL268654  27.342   8.399   6.003
 5261POPC   C1A68655  27.524   7.976   6.210
 5261POPC   D2A68656  27.773   7.890   6.606
 5261POPC   C3A68657  27.556   7.992   7.002
 5261POPC   C4A68658  27.655   8.138   7.427
 5261POPC   C1B68659  27.697   8.440   6.275
 5261POPC   C2B68660  27.676   8.388   6.712
 5261POPC   C3B68661  27.551   8.507   7.116
 5261POPC   C4B68662  27.582   8.681   7.520
 5262POPC   NC368663  17.805  31.976   5.529
 5262POPC   PO468664  17.441  32.333   5.043
 5262POPC   GL168665  17.543  32.420   5.564
 5262POPC   GL268666  17.406  32.227   5.862
 5262POPC   C1A68667  17.788  32.508   6.018
 5262POPC   D2A68668  17.669  32.577   6.476
 5262POPC   C3A68669  17.447  32.305   6.775
 5262POPC   C4A68670  17.478  32.322   7.226
 5262POPC   C1B68671  17.476  32.015   6.284
 5262POPC   C2B68672  17.506  31.793   6.701
 5262POPC   C3B68673  17.749  31.923   7.046
 5262POPC   C4B68674  18.164  31.923   7.142
 5263POPC   NC368675  29.679  26.993   5.397
 5263POPC   PO468676  29.646  26.303   5.332
 5263POPC   GL168677  29.622  26.591   5.697
 5263POPC   GL268678  29.968  26.673   5.759
 5263POPC   C1A68679  29.635  26.824   6.116
 5263POPC   D2A68680  29.807  26.812   6.581
 5263POPC   C3A68681  29.710  26.990   7.021
 5263POPC   C4A68682  29.737  26.797   7.453
 5263POPC   C1B68683  30.025  26.484   6.209
 5263POPC   C2B68684  30.052  26.377   6.680
 5263POPC   C3B68685  30.153  26.718   6.993
 5263POPC   C4B68686  30.224  26.950   7.410
 5264POPC   NC368687  13.072  32.866   5.408
 5264POPC   PO468688  12.533  33.283   5.509
 5264POPC   GL168689  12.747  32.996   5.849
 5264POPC   GL268690  13.050  32.760   5.896
 5264POPC   C1A68691  12.762  33.005   6.307
 5264POPC   D2A68692  12.947  33.258   6.620
 5264POPC   C3A68693  12.971  33.095   7.062
 5264POPC   C4A68694  13.129  33.135   7.504
 5264POPC   C1B68695  12.921  32.520   6.232
 5264POPC   C2B68696  12.664  32.482   6.569
 5264POPC   C3B68697  12.634  32.692   6.933
 5264POPC   C4B68698  12.528  32.910   7.294
 5265POPC   NC368699  11.030  13.190   5.563
 5265POPC   PO468700  11.370  12.641   5.340
 5265POPC   GL168701  11.309  12.786   5.744
 5265POPC   GL268702  11.520  13.069   5.789
 5265POPC   C1A68703  11.217  12.726   6.177
 5265POPC   D2A68704  11.387  12.845   6.570
 5265POPC   C3A68705  11.133  12.834   6.937
 5265POPC   C4A68706  11.407  12.921   7.276
 5265POPC   C1B68707  11.411  13.218   6.193
 5265POPC   C2B68708  11.008  13.196   6.431
 5265POPC   C3B68709  10.858  13.319   6.843
 5265POPC   C4B68710  10.925  13.183   7.276
 5266POPC   NC368711  43.102  29.376   4.997
 5266POPC   PO468712  42.881  28.932   5.432
 5266POPC   GL168713  42.920  28.931   5.842
 5266POPC   GL268714  43.265  29.008   5.773
 5266POPC   C1A68715  43.059  29.216   6.178
 5266POPC   D2A68716  43.192  29.398   6.537
 5266POPC   C3A68717  43.128  29.259   6.936
 5266POPC   C4A68718  43.155  29.424   7.342
 5266POPC   C1B68719  43.307  28.754   6.149
 5266POPC   C2B68720  43.183  28.873   6.568
 5266POPC   C3B68721  43.383  28.801   6.968
 5266POPC   C4B68722  43.244  28.928   7.337
 5267POPC   NC368723  33.971  30.926   5.295
 5267POPC   PO468724  33.448  30.497   5.318
 5267POPC   GL168725  33.467  30.601   5.751
 5267POPC   GL268726  33.759  30.813   5.772
 5267POPC   C1A68727  33.654  30.432   6.139
 5267POPC   D2A68728  33.739  30.520   6.553
 5267POPC   C3A68729  33.477  30.724   6.848
 5267POPC   C4A68730  33.526  30.441   7.181
 5267POPC   C1B68731  33.857  30.921   6.210
 5267POPC   C2B68732  33.937  30.978   6.650
 5267POPC   C3B68733  33.959  30.681   7.010
 5267POPC   C4B68734  33.793  31.007   7.228
 5268POPC   NC368735   6.872  10.868   5.465
 5268POPC   PO468736   6.612  10.258   5.368
 5268POPC   GL168737   6.625  10.395   5.765
 5268POPC   GL268738   6.563  10.724   5.832
 5268POPC   C1A68739   6.885  10.457   6.133
 5268POPC   D2A68740   6.950  10.709   6.486
 5268POPC   C3A68741   6.649  10.706   6.836
 5268POPC   C4A68742   6.632  10.521   7.246
 5268POPC   C1B68743   6.437  10.710   6.242
 5268POPC   C2B68744   6.285  10.973   6.555
 5268POPC   C3B68745   6.358  11.149   6.896
 5268POPC   C4B68746   6.328  10.942   7.252
 5269POPC   NC368747  36.899  40.746   5.178
 5269POPC   PO468748  37.343  40.437   5.208
 5269POPC   GL168749  37.238  40.642   5.649
 5269POPC   GL268750  36.915  40.833   5.741
 5269POPC   C1A68751  37.181  40.643   6.152
 5269POPC   D2A68752  37.094  40.778   6.626
 5269POPC   C3A68753  36.924  40.544   7.007
 5269POPC   C4A68754  37.084  40.381   7.425
 5269POPC   C1B68755  36.874  41.060   6.185
 5269POPC   C2B68756  36.905  41.257   6.627
 5269POPC   C3B68757  36.898  41.085   7.067
 5269POPC   C4B68758  36.777  40.798   7.429
 5270POPC   NC368759   2.949  41.143   5.492
 5270POPC   PO468760   3.170  40.432   5.484
 5270POPC   GL168761   2.910  40.704   5.761
 5270POPC   GL268762   3.051  40.933   5.955
 5270POPC   C1A68763   2.603  40.771   6.101
 5270POPC   D2A68764   2.362  41.065   6.384
 5270POPC   C3A68765   2.447  41.009   6.856
 5270POPC   C4A68766   2.427  40.607   7.127
 5270POPC   C1B68767   3.081  40.565   6.234
 5270POPC   C2B68768   2.916  40.430   6.649
 5270POPC   C3B68769   2.926  40.569   7.066
 5270POPC   C4B68770   2.784  40.436   7.477
 5271POPC   NC368771   4.616  42.001   5.165
 5271POPC   PO468772   4.429  42.411   5.669
 5271POPC   GL168773   4.305  42.692   5.928
 5271POPC   GL268774   3.978  42.834   5.772
 5271POPC   C1A68775   4.305  42.551   6.377
 5271POPC   D2A68776   4.255  42.211   6.670
 5271POPC   C3A68777   4.542  42.120   6.983
 5271POPC   C4A68778   4.473  42.118   7.428
 5271POPC   C1B68779   3.863  42.684   6.182
 5271POPC   C2B68780   3.845  42.691   6.635
 5271POPC   C3B68781   4.160  42.632   6.961
 5271POPC   C4B68782   4.166  42.532   7.411
 5272POPC   NC368783  39.269  43.998   5.201
 5272POPC   PO468784  39.025  43.484   5.537
 5272POPC   GL168785  39.025  43.815   5.814
 5272POPC   GL268786  39.247  44.078   5.708
 5272POPC   C1A68787  39.038  43.797   6.270
 5272POPC   D2A68788  39.264  43.599   6.594
 5272POPC   C3A68789  39.185  43.776   6.996
 5272POPC   C4A68790  38.797  43.644   7.212
 5272POPC   C1B68791  39.401  44.132   6.109
 5272POPC   C2B68792  39.533  44.023   6.532
 5272POPC   C3B68793  39.707  44.103   6.898
 5272POPC   C4B68794  39.508  44.098   7.245
 5273POPC   NC368795  41.791  23.858   5.437
 5273POPC   PO468796  41.144  23.571   5.487
 5273POPC   GL168797  41.407  23.642   5.838
 5273POPC   GL268798  41.731  23.476   5.795
 5273POPC   C1A68799  41.514  23.529   6.271
 5273POPC   D2A68800  41.517  23.361   6.692
 5273POPC   C3A68801  41.490  23.684   7.021
 5273POPC   C4A68802  41.438  23.686   7.470
 5273POPC   C1B68803  41.935  23.767   6.081
 5273POPC   C2B68804  41.904  23.912   6.501
 5273POPC   C3B68805  41.990  23.819   6.932
 5273POPC   C4B68806  41.790  24.024   7.298
 5274POPC   NC368807  11.502  16.929   5.237
 5274POPC   PO468808  10.917  16.582   5.483
 5274POPC   GL168809  11.136  16.686   5.849
 5274POPC   GL268810  11.234  16.972   5.688
 5274POPC   C1A68811  11.212  16.619   6.295
 5274POPC   D2A68812  11.457  16.625   6.654
 5274POPC   C3A68813  11.238  16.483   7.000
 5274POPC   C4A68814  10.970  16.555   7.335
 5274POPC   C1B68815  11.182  17.111   6.118
 5274POPC   C2B68816  11.156  17.166   6.578
 5274POPC   C3B68817  11.330  16.988   6.975
 5274POPC   C4B68818  11.324  16.894   7.441
 5275POPC   NC368819  12.688  31.885   5.455
 5275POPC   PO468820  13.190  32.348   5.272
 5275POPC   GL168821  12.967  32.268   5.690
 5275POPC   GL268822  12.657  32.450   5.773
 5275POPC   C1A68823  13.088  32.063   6.104
 5275POPC   D2A68824  13.301  32.115   6.535
 5275POPC   C3A68825  13.052  32.259   6.888
 5275POPC   C4A68826  12.935  32.072   7.265
 5275POPC   C1B68827  12.490  32.226   6.144
 5275POPC   C2B68828  12.311  32.105   6.566
 5275POPC   C3B68829  12.521  32.113   6.952
 5275POPC   C4B68830  12.551  32.382   7.318
 5276POPC   NC368831   6.566  31.411   5.523
 5276POPC   PO468832   6.597  31.979   5.270
 5276POPC   GL168833   6.562  31.879   5.793
 5276POPC   GL268834   6.488  31.603   6.043
 5276POPC   C1A68835   6.886  31.849   6.201
 5276POPC   D2A68836   6.943  31.526   6.559
 5276POPC   C3A68837   6.672  31.566   6.933
 5276POPC   C4A68838   6.780  31.797   7.285
 5276POPC   C1B68839   6.549  31.266   6.375
 5276POPC   C2B68840   6.613  31.075   6.810
 5276POPC   C3B68841   6.682  31.141   7.266
 5276POPC   C4B68842   6.635  31.107   7.736
 5277POPC   NC368843  28.924   4.136   5.348
 5277POPC   PO468844  29.317   4.568   5.543
 5277POPC   GL168845  29.278   4.459   5.908
 5277POPC   GL268846  29.029   4.207   5.845
 5277POPC   C1A68847  29.183   4.377   6.300
 5277POPC   D2A68848  29.367   4.158   6.616
 5277POPC   C3A68849  29.236   4.305   6.997
 5277POPC   C4A68850  29.052   4.682   7.196
 5277POPC   C1B68851  29.044   3.893   6.198
 5277POPC   C2B68852  28.938   3.872   6.656
 5277POPC   C3B68853  28.828   3.999   7.081
 5277POPC   C4B68854  28.845   3.950   7.552
 5278POPC   NC368855  30.285  13.156   5.230
 5278POPC   PO468856  29.778  13.632   5.376
 5278POPC   GL168857  30.007  13.502   5.721
 5278POPC   GL268858  30.029  13.826   5.813
 5278POPC   C1A68859  29.909  13.435   6.162
 5278POPC   D2A68860  29.775  13.587   6.579
 5278POPC   C3A68861  29.906  13.322   6.936
 5278POPC   C4A68862  30.070  13.470   7.317
 5278POPC   C1B68863  29.919  13.969   6.214
 5278POPC   C2B68864  30.060  14.032   6.602
 5278POPC   C3B68865  29.959  13.837   6.979
 5278POPC   C4B68866  29.960  14.006   7.369
 5279POPC   NC368867   4.850  35.555   5.283
 5279POPC   PO468868   5.413  35.174   5.409
 5279POPC   GL168869   5.134  35.388   5.695
 5279POPC   GL268870   5.293  35.729   5.708
 5279POPC   C1A68871   4.925  35.220   6.080
 5279POPC   D2A68872   4.911  35.343   6.540
 5279POPC   C3A68873   5.242  35.107   6.809
 5279POPC   C4A68874   5.115  34.850   7.168
 5279POPC   C1B68875   5.182  35.656   6.154
 5279POPC   C2B68876   5.378  35.556   6.572
 5279POPC   C3B68877   5.224  35.615   6.977
 5279POPC   C4B68878   5.255  35.316   7.300
 5280POPC   NC368879  24.779  17.661   5.450
 5280POPC   PO468880  24.226  17.258   5.478
 5280POPC   GL168881  24.461  17.433   5.762
 5280POPC   GL268882  24.279  17.705   5.884
 5280POPC   C1A68883  24.637  17.442   6.146
 5280POPC   D2A68884  24.508  17.405   6.572
 5280POPC   C3A68885  24.716  17.493   6.983
 5280POPC   C4A68886  24.687  17.470   7.456
 5280POPC   C1B68887  24.114  17.342   6.119
 5280POPC   C2B68888  24.065  17.126   6.469
 5280POPC   C3B68889  24.174  17.158   6.860
 5280POPC   C4B68890  24.230  17.453   7.193
 5281POPC   NC368891  12.821  18.884   5.489
 5281POPC   PO468892  13.067  19.485   5.237
 5281POPC   GL168893  13.014  19.362   5.674
 5281POPC   GL268894  12.671  19.314   5.760
 5281POPC   C1A68895  13.052  19.311   6.132
 5281POPC   D2A68896  13.047  18.962   6.450
 5281POPC   C3A68897  13.010  19.099   6.857
 5281POPC   C4A68898  12.928  19.172   7.272
 5281POPC   C1B68899  12.633  19.020   6.124
 5281POPC   C2B68900  12.531  19.128   6.549
 5281POPC   C3B68901  12.529  18.920   6.922
 5281POPC   C4B68902  12.454  19.033   7.313
 5282POPC   NC368903  13.178  16.873   5.624
 5282POPC   PO468904  12.578  16.544   5.540
 5282POPC   GL168905  12.836  16.572   5.892
 5282POPC   GL268906  13.165  16.429   5.966
 5282POPC   C1A68907  12.642  16.707   6.250
 5282POPC   D2A68908  12.475  16.496   6.582
 5282POPC   C3A68909  12.732  16.631   6.883
 5282POPC   C4A68910  12.686  16.999   7.131
 5282POPC   C1B68911  13.158  16.822   6.267
 5282POPC   C2B68912  13.071  17.052   6.681
 5282POPC   C3B68913  13.184  16.835   7.062
 5282POPC   C4B68914  13.113  16.376   7.129
 5283POPC   NC368915  21.203  13.383   5.430
 5283POPC   PO468916  21.820  13.036   5.590
 5283POPC   GL168917  21.548  13.360   5.806
 5283POPC   GL268918  21.554  13.711   5.873
 5283POPC   C1A68919  21.380  13.381   6.248
 5283POPC   D2A68920  21.424  13.200   6.683
 5283POPC   C3A68921  21.202  13.439   7.019
 5283POPC   C4A68922  21.197  13.886   7.176
 5283POPC   C1B68923  21.758  13.740   6.255
 5283POPC   C2B68924  21.577  13.709   6.664
 5283POPC   C3B68925  21.675  13.681   7.107
 5283POPC   C4B68926  21.642  13.979   7.468
 5284POPC   NC368927   8.706  16.870   5.362
 5284POPC   PO468928   9.286  16.612   5.291
 5284POPC   GL168929   9.007  16.578   5.703
 5284POPC   GL268930   8.740  16.833   5.868
 5284POPC   C1A68931   8.975  16.471   6.143
 5284POPC   D2A68932   8.805  16.702   6.490
 5284POPC   C3A68933   8.813  16.522   6.889
 5284POPC   C4A68934   9.018  16.534   7.266
 5284POPC   C1B68935   9.042  17.007   6.165
 5284POPC   C2B68936   9.251  16.957   6.603
 5284POPC   C3B68937   9.077  17.006   7.039
 5284POPC   C4B68938   9.047  16.979   7.534
 5285POPC   NC368939  37.795  33.331   5.398
 5285POPC   PO468940  37.303  32.799   5.526
 5285POPC   GL168941  37.621  32.993   5.782
 5285POPC   GL268942  37.464  33.277   5.779
 5285POPC   C1A68943  37.788  33.192   6.185
 5285POPC   D2A68944  37.939  33.295   6.620
 5285POPC   C3A68945  37.859  32.979   6.964
 5285POPC   C4A68946  37.954  32.912   7.414
 5285POPC   C1B68947  37.381  33.478   6.135
 5285POPC   C2B68948  37.419  33.473   6.563
 5285POPC   C3B68949  37.541  33.397   6.998
 5285POPC   C4B68950  37.503  33.136   7.374
 5286POPC   NC368951  25.714   3.864   5.259
 5286POPC   PO468952  25.152   3.548   5.512
 5286POPC   GL168953  25.493   3.577   5.777
 5286POPC   GL268954  25.587   3.946   5.760
 5286POPC   C1A68955  25.456   3.337   6.184
 5286POPC   D2A68956  25.031   3.388   6.418
 5286POPC   C3A68957  24.936   3.616   6.815
 5286POPC   C4A68958  25.018   3.482   7.253
 5286POPC   C1B68959  25.373   3.865   6.163
 5286POPC   C2B68960  25.460   3.671   6.578
 5286POPC   C3B68961  25.378   3.758   7.025
 5286POPC   C4B68962  25.327   3.785   7.507
 5287POPC   NC368963  36.125  12.433   5.394
 5287POPC   PO468964  36.801  12.364   5.413
 5287POPC   GL168965  36.442  12.079   5.652
 5287POPC   GL268966  36.177  11.762   5.693
 5287POPC   C1A68967  36.203  12.145   6.031
 5287POPC   D2A68968  36.211  12.075   6.472
 5287POPC   C3A68969  35.938  12.282   6.728
 5287POPC   C4A68970  36.130  12.381   7.085
 5287POPC   C1B68971  35.907  11.735   6.116
 5287POPC   C2B68972  35.755  11.765   6.577
 5287POPC   C3B68973  35.975  11.816   6.972
 5287POPC   C4B68974  35.933  11.979   7.395
 5288POPC   NC368975  24.553  33.104   5.482
 5288POPC   PO468976  23.936  33.075   5.663
 5288POPC   GL168977  24.325  33.052   5.925
 5288POPC   GL268978  24.641  32.848   5.905
 5288POPC   C1A68979  24.535  33.136   6.307
 5288POPC   D2A68980  24.717  32.957   6.675
 5288POPC   C3A68981  24.548  33.198   7.010
 5288POPC   C4A68982  24.217  33.124   7.293
 5288POPC   C1B68983  24.506  32.625   6.266
 5288POPC   C2B68984  24.765  32.431   6.566
 5288POPC   C3B68985  24.863  32.570   6.962
 5288POPC   C4B68986  24.488  32.714   7.179
 5289POPC   NC368987  27.159  28.112   5.580
 5289POPC   PO468988  26.854  27.568   5.303
 5289POPC   GL168989  26.835  27.763   5.749
 5289POPC   GL268990  26.843  27.546   5.999
 5289POPC   C1A68991  27.017  27.944   6.206
 5289POPC   D2A68992  26.913  27.730   6.612
 5289POPC   C3A68993  27.028  27.760   7.058
 5289POPC   C4A68994  26.685  27.859   7.354
 5289POPC   C1B68995  26.749  27.318   6.351
 5289POPC   C2B68996  26.636  27.152   6.713
 5289POPC   C3B68997  26.605  27.408   7.061
 5289POPC   C4B68998  26.780  27.375   7.457
 5290POPC   NC368999   1.817   2.367   5.568
 5290POPC   PO469000   2.204   1.802   5.424
 5290POPC   GL169001   2.145   2.031   5.824
 5290POPC   GL269002   1.769   2.022   5.932
 5290POPC   C1A69003   2.127   2.258   6.219
 5290POPC   D2A69004   2.218   2.241   6.645
 5290POPC   C3A69005   1.940   2.022   6.912
 5290POPC   C4A69006   2.147   1.986   7.270
 5290POPC   C1B69007   1.971   1.765   6.247
 5290POPC   C2B69008   1.792   1.616   6.612
 5290POPC   C3B69009   1.941   1.453   6.949
 5290POPC   C4B69010   1.975   1.485   7.370
 5291POPC   NC369011  11.471  21.965   5.222
 5291POPC   PO469012  10.861  21.677   5.272
 5291POPC   GL169013  11.149  21.986   5.630
 5291POPC   GL269014  11.504  21.880   5.731
 5291POPC   C1A69015  11.250  22.200   6.065
 5291POPC   D2A69016  11.446  22.191   6.510
 5291POPC   C3A69017  11.241  22.401   6.892
 5291POPC   C4A69018  11.361  22.365   7.331
 5291POPC   C1B69019  11.729  21.983   6.121
 5291POPC   C2B69020  11.897  21.843   6.524
 5291POPC   C3B69021  11.739  21.825   6.965
 5291POPC   C4B69022  11.679  21.967   7.415
 5292POPC   NC369023  36.297  13.330   5.430
 5292POPC   PO469024  35.889  13.857   5.228
 5292POPC   GL169025  35.772  13.729   5.638
 5292POPC   GL269026  35.809  14.047   5.785
 5292POPC   C1A69027  35.921  13.497   6.027
 5292POPC   D2A69028  35.952  13.713   6.461
 5292POPC   C3A69029  35.835  13.535   6.859
 5292POPC   C4A69030  36.051  13.326   7.177
 5292POPC   C1B69031  36.173  13.981   6.058
 5292POPC   C2B69032  36.327  14.109   6.467
 5292POPC   C3B69033  36.173  14.018   6.869
 5292POPC   C4B69034  35.981  13.895   7.230
 5293POPC   NC369035   9.724  39.578   5.406
 5293POPC   PO469036   9.806  38.957   5.369
 5293POPC   GL169037   9.761  39.096   5.776
 5293POPC   GL269038   9.898  39.428   5.851
 5293POPC   C1A69039   9.588  39.170   6.180
 5293POPC   D2A69040   9.638  39.433   6.539
 5293POPC   C3A69041   9.659  39.214   6.902
 5293POPC   C4A69042   9.615  39.043   7.284
 5293POPC   C1B69043  10.118  39.176   6.139
 5293POPC   C2B69044  10.062  39.102   6.555
 5293POPC   C3B69045  10.118  39.420   6.867
 5293POPC   C4B69046  10.106  39.206   7.241
 5294POPC   NC369047   4.163   3.733   5.502
 5294POPC   PO469048   4.501   3.231   5.319
 5294POPC   GL169049   4.432   3.361   5.754
 5294POPC   GL269050   4.143   3.170   5.909
 5294POPC   C1A69051   4.446   3.614   6.155
 5294POPC   D2A69052   4.526   3.529   6.608
 5294POPC   C3A69053   4.496   3.846   6.941
 5294POPC   C4A69054   4.755   3.990   7.256
 5294POPC   C1B69055   4.158   3.212   6.376
 5294POPC   C2B69056   4.026   3.513   6.726
 5294POPC   C3B69057   4.118   3.521   7.187
 5294POPC   C4B69058   4.087   3.503   7.652
 5295POPC   NC369059   9.712   6.748   5.414
 5295POPC   PO469060   9.598   6.082   5.518
 5295POPC   GL169061   9.548   6.399   5.783
 5295POPC   GL269062   9.840   6.569   5.863
 5295POPC   C1A69063   9.397   6.661   6.118
 5295POPC   D2A69064   9.355   6.746   6.553
 5295POPC   C3A69065   9.624   6.517   6.801
 5295POPC   C4A69066   9.640   6.503   7.239
 5295POPC   C1B69067   9.841   6.362   6.234
 5295POPC   C2B69068  10.088   6.517   6.521
 5295POPC   C3B69069  10.065   6.773   6.863
 5295POPC   C4B69070  10.116   6.667   7.272
 5296POPC   NC369071   8.677  29.165   5.495
 5296POPC   PO469072   9.364  29.337   5.433
 5296POPC   GL169073   9.170  29.161   5.776
 5296POPC   GL269074   8.861  29.287   5.931
 5296POPC   C1A69075   9.147  28.988   6.188
 5296POPC   D2A69076   9.360  29.059   6.508
 5296POPC   C3A69077   9.185  29.055   6.887
 5296POPC   C4A69078   9.209  29.431   7.101
 5296POPC   C1B69079   8.772  29.496   6.313
 5296POPC   C2B69080   8.817  29.386   6.753
 5296POPC   C3B69081   8.702  29.096   7.095
 5296POPC   C4B69082   8.619  28.958   7.545
 5297POPC   NC369083  44.670  24.372   5.328
 5297POPC   PO469084  44.081  24.762   5.104
 5297POPC   GL169085  44.236  24.476   5.544
 5297POPC   GL269086  44.385  24.169   5.721
 5297POPC   C1A69087  44.362  24.554   6.041
 5297POPC   D2A69088  44.681  24.531   6.424
 5297POPC   C3A69089  44.543  24.515   6.863
 5297POPC   C4A69090  44.901  24.530   7.172
 5297POPC   C1B69091  44.695  24.163   6.078
 5297POPC   C2B69092  44.624  24.014   6.538
 5297POPC   C3B69093  44.717  24.069   6.993
 5297POPC   C4B69094  44.555  24.222   7.402
 5298POPC   NC369095  36.740  43.218   5.404
 5298POPC   PO469096  37.302  43.267   5.200
 5298POPC   GL169097  37.146  43.304   5.694
 5298POPC   GL269098  37.015  43.003   5.781
 5298POPC   C1A69099  37.108  43.222   6.205
 5298POPC   D2A69100  36.918  43.190   6.611
 5298POPC   C3A69101  37.107  43.121   6.990
 5298POPC   C4A69102  36.918  43.222   7.391
 5298POPC   C1B69103  36.780  42.838   6.147
 5298POPC   C2B69104  36.537  42.871   6.531
 5298POPC   C3B69105  36.740  42.756   6.907
 5298POPC   C4B69106  36.776  42.740   7.324
 5299POPC   NC369107  44.185   2.989   5.632
 5299POPC   PO469108  44.708   2.735   5.293
 5299POPC   GL169109  44.616   2.704   5.734
 5299POPC   GL269110  44.646   3.047   5.841
 5299POPC   C1A69111  44.780   2.683   6.172
 5299POPC   D2A69112  44.746   2.380   6.494
 5299POPC   C3A69113  44.631   2.472   6.960
 5299POPC   C4A69114  44.664   2.606   7.425
 5299POPC   C1B69115  44.411   3.026   6.255
 5299POPC   C2B69116  44.553   2.893   6.651
 5299POPC   C3B69117  44.524   3.000   7.088
 5299POPC   C4B69118  44.280   3.108   7.501
 5300POPC   NC369119  12.373   3.668   5.602
 5300POPC   PO469120  13.087   3.648   5.541
 5300POPC   GL169121  12.838   3.704   5.855
 5300POPC   GL269122  12.682   3.992   5.821
 5300POPC   C1A69123  12.839   3.507   6.244
 5300POPC   D2A69124  13.039   3.411   6.618
 5300POPC   C3A69125  12.847   3.509   6.982
 5300POPC   C4A69126  13.038   3.595   7.373
 5300POPC   C1B69127  12.493   3.880   6.215
 5300POPC   C2B69128  12.498   3.707   6.622
 5300POPC   C3B69129  12.565   3.931   6.998
 5300POPC   C4B69130  12.578   3.797   7.403
 5301POPC   NC369131   3.319  30.948   5.444
 5301POPC   PO469132   3.707  30.414   5.411
 5301POPC   GL169133   3.537  30.639   5.824
 5301POPC   GL269134   3.810  30.770   6.051
 5301POPC   C1A69135   3.354  30.837   6.255
 5301POPC   D2A69136   3.505  30.704   6.695
 5301POPC   C3A69137   3.414  30.939   7.067
 5301POPC   C4A69138   3.496  31.254   7.376
 5301POPC   C1B69139   3.623  30.401   6.293
 5301POPC   C2B69140   3.830  30.294   6.677
 5301POPC   C3B69141   3.880  30.566   7.046
 5301POPC   C4B69142   3.634  30.627   7.431
 5302POPC   NC369143  28.422   7.218   5.338
 5302POPC   PO469144  28.116   7.755   5.251
 5302POPC   GL169145  28.320   7.546   5.683
 5302POPC   GL269146  28.596   7.622   5.856
 5302POPC   C1A69147  28.265   7.215   6.030
 5302POPC   D2A69148  28.098   6.961   6.398
 5302POPC   C3A69149  28.199   6.997   6.867
 5302POPC   C4A69150  28.446   7.128   7.251
 5302POPC   C1B69151  28.412   7.629   6.303
 5302POPC   C2B69152  28.517   7.410   6.725
 5302POPC   C3B69153  28.629   7.594   7.141
 5302POPC   C4B69154  28.505   7.759   7.578
 5303POPC   NC369155  42.633  41.607   5.720
 5303POPC   PO469156  43.119  41.634   5.185
 5303POPC   GL169157  43.116  41.735   5.732
 5303POPC   GL269158  43.251  41.520   6.005
 5303POPC   C1A69159  42.917  41.794   6.228
 5303POPC   D2A69160  42.892  41.486   6.559
 5303POPC   C3A69161  42.811  41.624   6.963
 5303POPC   C4A69162  42.881  41.910   7.250
 5303POPC   C1B69163  43.395  41.809   6.373
 5303POPC   C2B69164  43.274  41.812   6.822
 5303POPC   C3B69165  43.261  41.520   7.186
 5303POPC   C4B69166  43.286  41.333   7.609
 5304POPC   NC369167  26.196  34.341   5.284
 5304POPC   PO469168  25.708  34.717   5.230
 5304POPC   GL169169  25.899  34.552   5.651
 5304POPC   GL269170  26.212  34.713   5.793
 5304POPC   C1A69171  25.849  34.400   6.098
 5304POPC   D2A69172  26.006  34.405   6.552
 5304POPC   C3A69173  25.879  34.556   6.981
 5304POPC   C4A69174  26.080  34.677   7.383
 5304POPC   C1B69175  26.130  34.811   6.262
 5304POPC   C2B69176  26.016  34.965   6.700
 5304POPC   C3B69177  25.885  35.088   7.142
 5304POPC   C4B69178  25.997  35.141   7.609
 5305POPC   NC369179  42.494  44.190   5.193
 5305POPC   PO469180  42.699  43.627   5.488
 5305POPC   GL169181  42.392  43.734   5.786
 5305POPC   GL269182  42.405  43.436   5.911
 5305POPC   C1A69183  42.251  43.878   6.215
 5305POPC   D2A69184  42.005  44.202   6.435
 5305POPC   C3A69185  42.090  44.239   6.857
 5305POPC   C4A69186  42.306  44.142   7.226
 5305POPC   C1B69187  42.128  43.361   6.206
 5305POPC   C2B69188  42.304  43.482   6.577
 5305POPC   C3B69189  42.469  43.857   6.742
 5305POPC   C4B69190  42.630  43.778   7.129
 5306POPC   NC369191   4.408  30.453   5.357
 5306POPC   PO469192   4.467  31.063   5.366
 5306POPC   GL169193   4.258  30.805   5.743
 5306POPC   GL269194   4.088  30.443   5.774
 5306POPC   C1A69195   4.395  30.777   6.187
 5306POPC   D2A69196   4.516  31.056   6.545
 5306POPC   C3A69197   4.398  30.901   6.968
 5306POPC   C4A69198   4.392  30.745   7.389
 5306POPC   C1B69199   4.121  30.356   6.230
 5306POPC   C2B69200   4.299  30.496   6.637
 5306POPC   C3B69201   4.304  30.304   7.062
 5306POPC   C4B69202   3.998  30.223   7.409
 5307POPC   NC369203  35.473  12.806   5.215
 5307POPC   PO469204  36.105  12.898   5.402
 5307POPC   GL169205  35.919  12.940   5.814
 5307POPC   GL269206  35.899  12.590   5.848
 5307POPC   C1A69207  35.943  13.002   6.286
 5307POPC   D2A69208  36.083  13.077   6.722
 5307POPC   C3A69209  35.909  12.849   7.114
 5307POPC   C4A69210  35.894  13.030   7.569
 5307POPC   C1B69211  36.278  12.653   6.085
 5307POPC   C2B69212  36.333  12.651   6.534
 5307POPC   C3B69213  36.461  12.792   6.950
 5307POPC   C4B69214  36.351  12.736   7.382
 5308POPC   NC369215  14.170   6.133   5.274
 5308POPC   PO469216  13.477   5.906   5.248
 5308POPC   GL169217  13.527   5.902   5.682
 5308POPC   GL269218  13.862   6.019   5.736
 5308POPC   C1A69219  13.592   5.679   6.079
 5308POPC   D2A69220  13.427   5.801   6.501
 5308POPC   C3A69221  13.720   5.669   6.821
 5308POPC   C4A69222  13.927   5.531   7.224
 5308POPC   C1B69223  13.602   6.176   6.117
 5308POPC   C2B69224  13.558   6.322   6.540
 5308POPC   C3B69225  13.602   6.138   6.946
 5308POPC   C4B69226  13.516   5.835   7.261
 5309POPC   NC369227  41.554  32.622   5.289
 5309POPC   PO469228  41.352  33.246   5.312
 5309POPC   GL169229  41.218  33.065   5.710
 5309POPC   GL269230  41.120  32.747   5.875
 5309POPC   C1A69231  41.394  33.091   6.113
 5309POPC   D2A69232  41.569  33.044   6.528
 5309POPC   C3A69233  41.510  33.220   6.962
 5309POPC   C4A69234  41.714  33.094   7.398
 5309POPC   C1B69235  41.233  32.664   6.350
 5309POPC   C2B69236  41.241  32.801   6.820
 5309POPC   C3B69237  41.289  32.778   7.287
 5309POPC   C4B69238  41.144  32.403   7.542
 5310POPC   NC369239  33.842  25.278   5.258
 5310POPC   PO469240  34.179  24.753   5.397
 5310POPC   GL169241  34.034  25.032   5.771
 5310POPC   GL269242  33.874  25.375   5.810
 5310POPC   C1A69243  34.058  25.143   6.238
 5310POPC   D2A69244  34.155  25.497   6.543
 5310POPC   C3A69245  34.156  25.360   6.993
 5310POPC   C4A69246  34.057  25.423   7.429
 5310POPC   C1B69247  33.681  25.479   6.267
 5310POPC   C2B69248  33.682  25.472   6.763
 5310POPC   C3B69249  33.576  25.467   7.238
 5310POPC   C4B69250  33.403  25.524   7.677
 5311POPC   NC369251  44.795  13.248   5.509
 5311POPC   PO469252  44.685  13.803   5.411
 5311POPC   GL169253  44.634  13.634   5.836
 5311POPC   GL269254  44.966  13.523   5.948
 5311POPC   C1A69255  44.663  13.724   6.324
 5311POPC   D2A69256  44.733  13.600   6.793
 5311POPC   C3A69257  44.600  13.810   7.197
 5311POPC   C4A69258  44.333  13.900   7.565
 5311POPC   C1B69259   0.201  13.760   6.288
 5311POPC   C2B69260   0.425  13.671   6.689
 5311POPC   C3B69261   0.174  13.417   6.962
 5311POPC   C4B69262   0.017  13.551   7.332
 5312POPC   NC369263  16.191  17.704   5.356
 5312POPC   PO469264  15.637  17.725   5.460
 5312POPC   GL169265  15.734  17.443   5.782
 5312POPC   GL269266  16.110  17.386   5.777
 5312POPC   C1A69267  15.608  17.292   6.209
 5312POPC   D2A69268  15.787  17.284   6.639
 5312POPC   C3A69269  15.645  17.331   7.074
 5312POPC   C4A69270  15.697  17.495   7.508
 5312POPC   C1B69271  16.127  17.445   6.267
 5312POPC   C2B69272  16.265  17.373   6.744
 5312POPC   C3B69273  16.150  17.452   7.204
 5312POPC   C4B69274  16.382  17.481   7.626
 5313POPC   NC369275   7.170  44.072   5.480
 5313POPC   PO469276   7.622  43.693   5.212
 5313POPC   GL169277   7.617  43.866   5.668
 5313POPC   GL269278   7.280  43.719   5.838
 5313POPC   C1A69279   7.562  44.168   6.020
 5313POPC   D2A69280   7.587  44.055   6.434
 5313POPC   C3A69281   7.667  44.217   6.813
 5313POPC   C4A69282   7.699  43.943   7.152
 5313POPC   C1B69283   7.135  43.938   6.235
 5313POPC   C2B69284   7.150  44.150   6.677
 5313POPC   C3B69285   7.176  44.088   7.131
 5313POPC   C4B69286   6.953  43.961   7.505
 5314POPC   NC369287  10.516  21.367   5.301
 5314POPC   PO469288  10.164  20.877   5.562
 5314POPC   GL169289  10.367  21.130   5.873
 5314POPC   GL269290  10.697  21.205   5.782
 5314POPC   C1A69291  10.296  21.183   6.298
 5314POPC   D2A69292  10.537  21.229   6.621
 5314POPC   C3A69293  10.317  21.199   6.987
 5314POPC   C4A69294  10.310  21.575   7.222
 5314POPC   C1B69295  10.779  21.410   6.176
 5314POPC   C2B69296  10.892  21.593   6.571
 5314POPC   C3B69297  10.769  21.522   7.000
 5314POPC   C4B69298  10.773  21.592   7.446
 5315POPC   NC369299  12.837  26.485   5.206
 5315POPC   PO469300  13.028  25.924   5.204
 5315POPC   GL169301  12.726  26.005   5.671
 5315POPC   GL269302  12.654  26.367   5.704
 5315POPC   C1A69303  12.867  25.935   6.158
 5315POPC   D2A69304  12.984  25.627   6.480
 5315POPC   C3A69305  12.889  25.769   6.893
 5315POPC   C4A69306  12.929  25.990   7.284
 5315POPC   C1B69307  12.550  26.356   6.139
 5315POPC   C2B69308  12.621  26.155   6.545
 5315POPC   C3B69309  12.588  26.206   6.957
 5315POPC   C4B69310  12.759  26.462   7.233
 5316POPC   NC369311   2.311  28.522   5.599
 5316POPC   PO469312   2.850  28.122   5.433
 5316POPC   GL169313   2.725  28.300   5.849
 5316POPC   GL269314   2.709  28.668   5.926
 5316POPC   C1A69315   2.771  28.348   6.316
 5316POPC   D2A69316   2.672  28.540   6.707
 5316POPC   C3A69317   2.643  28.291   7.074
 5316POPC   C4A69318   2.886  28.305   7.452
 5316POPC   C1B69319   2.395  28.723   6.288
 5316POPC   C2B69320   2.368  28.942   6.701
 5316POPC   C3B69321   2.502  28.786   7.126
 5316POPC   C4B69322   2.416  28.511   7.495
 5317POPC   NC369323  42.221  21.033   5.462
 5317POPC   PO469324  42.708  20.531   5.530
 5317POPC   GL169325  42.409  20.617   5.873
 5317POPC   GL269326  42.126  20.872   5.915
 5317POPC   C1A69327  42.248  20.490   6.246
 5317POPC   D2A69328  42.464  20.404   6.607
 5317POPC   C3A69329  42.338  20.662   6.930
 5317POPC   C4A69330  42.221  20.529   7.320
 5317POPC   C1B69331  41.939  20.905   6.301
 5317POPC   C2B69332  41.898  20.615   6.616
 5317POPC   C3B69333  41.841  20.740   7.009
 5317POPC   C4B69334  42.039  21.039   7.224
 5318POPC   NC369335   7.517  15.756   5.330
 5318POPC   PO469336   7.101  16.305   5.372
 5318POPC   GL169337   7.231  16.148   5.813
 5318POPC   GL269338   7.445  15.840   5.834
 5318POPC   C1A69339   7.293  16.026   6.290
 5318POPC   D2A69340   7.207  15.818   6.721
 5318POPC   C3A69341   7.428  16.053   7.047
 5318POPC   C4A69342   7.828  16.036   7.228
 5318POPC   C1B69343   7.684  15.703   6.208
 5318POPC   C2B69344   7.691  15.571   6.642
 5318POPC   C3B69345   7.542  15.546   7.065
 5318POPC   C4B69346   7.171  15.682   7.262
 5319POPC   NC369347  38.006  22.869   5.147
 5319POPC   PO469348  37.562  22.552   5.576
 5319POPC   GL169349  37.707  22.762   5.898
 5319POPC   GL269350  37.915  23.007   5.763
 5319POPC   C1A69351  37.934  22.770   6.272
 5319POPC   D2A69352  37.977  22.555   6.662
 5319POPC   C3A69353  37.847  22.867   6.940
 5319POPC   C4A69354  37.445  22.885   7.077
 5319POPC   C1B69355  37.680  23.215   6.140
 5319POPC   C2B69356  37.856  23.244   6.559
 5319POPC   C3B69357  37.938  23.378   6.959
 5319POPC   C4B69358  37.766  23.238   7.335
 5320POPC   NC369359  25.769  28.192   5.543
 5320POPC   PO469360  25.070  28.211   5.444
 5320POPC   GL169361  25.096  28.360   5.846
 5320POPC   GL269362  25.449  28.386   5.872
 5320POPC   C1A69363  25.174  28.297   6.284
 5320POPC   D2A69364  25.292  28.375   6.693
 5320POPC   C3A69365  25.048  28.211   7.004
 5320POPC   C4A69366  24.963  28.341   7.418
 5320POPC   C1B69367  25.579  28.693   6.145
 5320POPC   C2B69368  25.701  28.670   6.538
 5320POPC   C3B69369  25.685  28.575   6.948
 5320POPC   C4B69370  25.372  28.559   7.222
 5321POPC   NC369371  31.484  42.929   5.306
 5321POPC   PO469372  31.161  43.447   5.329
 5321POPC   GL169373  31.372  43.390   5.688
 5321POPC   GL269374  31.421  43.077   5.821
 5321POPC   C1A69375  31.484  43.553   6.089
 5321POPC   D2A69376  31.520  43.355   6.456
 5321POPC   C3A69377  31.571  43.466   6.847
 5321POPC   C4A69378  31.515  43.205   7.200
 5321POPC   C1B69379  31.486  42.892   6.259
 5321POPC   C2B69380  31.585  42.935   6.743
 5321POPC   C3B69381  31.671  42.728   7.175
 5321POPC   C4B69382  31.779  42.625   7.624
 5322POPC   NC369383   7.679  39.425   5.403
 5322POPC   PO469384   8.337  39.254   5.370
 5322POPC   GL169385   8.078  39.264   5.732
 5322POPC   GL269386   7.951  38.912   5.663
 5322POPC   C1A69387   8.162  39.450   6.192
 5322POPC   D2A69388   8.411  39.457   6.618
 5322POPC   C3A69389   8.266  39.223   7.029
 5322POPC   C4A69390   8.342  39.179   7.506
 5322POPC   C1B69391   8.087  38.927   6.101
 5322POPC   C2B69392   8.153  38.971   6.553
 5322POPC   C3B69393   7.868  38.879   6.902
 5322POPC   C4B69394   7.957  38.884   7.325
 5323POPC   NC369395   0.499   9.230   5.433
 5323POPC   PO469396   0.641   8.563   5.495
 5323POPC   GL169397   0.466   8.847   5.784
 5323POPC   GL269398   0.712   9.109   5.890
 5323POPC   C1A69399   0.250   8.847   6.197
 5323POPC   D2A69400   0.081   8.563   6.533
 5323POPC   C3A69401   0.228   8.663   6.956
 5323POPC   C4A69402   0.590   8.442   7.034
 5323POPC   C1B69403   0.787   8.797   6.189
 5323POPC   C2B69404   0.608   8.688   6.584
 5323POPC   C3B69405   0.722   8.938   6.975
 5323POPC   C4B69406   0.653   9.327   7.229
 5324POPC   NC369407  26.386   7.309   5.461
 5324POPC   PO469408  27.043   7.461   5.236
 5324POPC   GL169409  26.860   7.343   5.705
 5324POPC   GL269410  26.541   7.484   5.905
 5324POPC   C1A69411  26.847   7.243   6.180
 5324POPC   D2A69412  26.801   7.569   6.433
 5324POPC   C3A69413  26.878   7.500   6.848
 5324POPC   C4A69414  26.844   7.110   7.086
 5324POPC   C1B69415  26.322   7.515   6.264
 5324POPC   C2B69416  26.343   7.626   6.698
 5324POPC   C3B69417  26.442   7.443   7.092
 5324POPC   C4B69418  26.796   7.538   7.368
 5325POPC   NC369419   9.613  24.618   5.416
 5325POPC   PO469420  10.107  24.224   5.436
 5325POPC   GL169421   9.823  24.211   5.813
 5325POPC   GL269422   9.736  24.557   5.897
 5325POPC   C1A69423   9.935  24.323   6.288
 5325POPC   D2A69424   9.966  24.538   6.696
 5325POPC   C3A69425   9.753  24.339   7.056
 5325POPC   C4A69426   9.502  24.448   7.422
 5325POPC   C1B69427   9.587  24.850   6.217
 5325POPC   C2B69428   9.656  25.041   6.649
 5325POPC   C3B69429   9.570  24.852   7.065
 5325POPC   C4B69430   9.340  24.933   7.445
 5326POPC   NC369431  12.225  35.083   5.385
 5326POPC   PO469432  12.127  34.476   5.401
 5326POPC   GL169433  12.208  34.712   5.768
 5326POPC   GL269434  11.873  34.761   5.828
 5326POPC   C1A69435  12.413  34.639   6.164
 5326POPC   D2A69436  12.358  34.744   6.579
 5326POPC   C3A69437  12.288  34.468   6.923
 5326POPC   C4A69438  12.436  34.693   7.267
 5326POPC   C1B69439  11.943  34.840   6.271
 5326POPC   C2B69440  11.873  34.729   6.720
 5326POPC   C3B69441  11.850  34.661   7.161
 5326POPC   C4B69442  11.569  34.375   7.315
 5327POPC   NC369443  25.550   0.234   5.482
 5327POPC   PO469444  26.083   0.566   5.199
 5327POPC   GL169445  25.973   0.529   5.658
 5327POPC   GL269446  25.674   0.744   5.628
 5327POPC   C1A69447  26.056   0.592   6.131
 5327POPC   D2A69448  26.236   0.874   6.476
 5327POPC   C3A69449  26.199   0.713   6.898
 5327POPC   C4A69450  25.971   0.448   7.193
 5327POPC   C1B69451  25.540   0.698   6.048
 5327POPC   C2B69452  25.625   0.501   6.447
 5327POPC   C3B69453  25.666   0.687   6.848
 5327POPC   C4B69454  25.557   0.755   7.275
 5328POPC   NC369455  10.448   0.297   5.669
 5328POPC   PO469456  10.516   1.006   5.568
 5328POPC   GL169457  10.352   0.764   5.900
 5328POPC   GL269458  10.675   0.661   5.939
 5328POPC   C1A69459  10.374   0.481   6.294
 5328POPC   D2A69460  10.436   0.314   6.678
 5328POPC   C3A69461  10.337   0.515   7.065
 5328POPC   C4A69462  10.604   0.198   7.236
 5328POPC   C1B69463  10.630   0.953   6.286
 5328POPC   C2B69464  10.576   0.815   6.686
 5328POPC   C3B69465  10.825   0.599   6.996
 5328POPC   C4B69466  10.760   0.656   7.435
 5329POPC   NC369467  32.497  13.769   5.419
 5329POPC   PO469468  31.937  13.339   5.485
 5329POPC   GL169469  32.106  13.669   5.745
 5329POPC   GL269470  32.399  13.504   5.845
 5329POPC   C1A69471  31.959  13.846   6.128
 5329POPC   D2A69472  31.954  13.620   6.511
 5329POPC   C3A69473  31.877  13.754   6.928
 5329POPC   C4A69474  31.983  13.647   7.356
 5329POPC   C1B69475  32.445  13.713   6.219
 5329POPC   C2B69476  32.467  13.722   6.650
 5329POPC   C3B69477  32.385  13.588   7.050
 5329POPC   C4B69478  32.565  13.690   7.434
 5330POPC   NC369479  29.605  33.902   5.445
 5330POPC   PO469480  30.196  33.625   5.462
 5330POPC   GL169481  30.000  33.842   5.824
 5330POPC   GL269482  29.852  34.186   5.816
 5330POPC   C1A69483  30.126  34.025   6.220
 5330POPC   D2A69484  30.454  34.150   6.488
 5330POPC   C3A69485  30.260  34.181   6.885
 5330POPC   C4A69486  29.949  33.889   6.985
 5330POPC   C1B69487  29.560  34.046   6.145
 5330POPC   C2B69488  29.621  34.093   6.603
 5330POPC   C3B69489  29.454  33.891   6.980
 5330POPC   C4B69490  29.548  33.991   7.391
 5331POPC   NC369491  44.830  43.311   5.419
 5331POPC   PO469492  44.542  42.669   5.491
 5331POPC   GL169493  44.607  43.029   5.792
 5331POPC   GL269494  44.943  43.214   5.891
 5331POPC   C1A69495  44.513  43.186   6.198
 5331POPC   D2A69496  44.604  43.345   6.584
 5331POPC   C3A69497  44.339  43.186   6.911
 5331POPC   C4A69498  44.440  42.931   7.243
 5331POPC   C1B69499   0.174  43.333   6.261
 5331POPC   C2B69500   0.104  43.422   6.696
 5331POPC   C3B69501  44.868  43.216   7.037
 5331POPC   C4B69502  44.831  43.157   7.492
 5332POPC   NC369503  25.524  31.255   5.339
 5332POPC   PO469504  25.363  31.800   5.665
 5332POPC   GL169505  25.340  31.486   5.951
 5332POPC   GL269506  24.982  31.337   6.000
 5332POPC   C1A69507  25.303  31.499   6.381
 5332POPC   D2A69508  25.235  31.203   6.659
 5332POPC   C3A69509  25.453  31.407   6.953
 5332POPC   C4A69510  25.289  31.487   7.317
 5332POPC   C1B69511  24.940  31.788   6.146
 5332POPC   C2B69512  25.000  31.981   6.547
 5332POPC   C3B69513  25.089  31.794   6.933
 5332POPC   C4B69514  24.898  31.824   7.310
 5333POPC   NC369515  15.021   1.686   5.478
 5333POPC   PO469516  15.278   2.384   5.483
 5333POPC   GL169517  15.325   2.037   5.752
 5333POPC   GL269518  14.975   2.023   5.842
 5333POPC   C1A69519  15.471   1.801   6.114
 5333POPC   D2A69520  15.508   1.990   6.539
 5333POPC   C3A69521  15.568   1.778   6.914
 5333POPC   C4A69522  15.249   1.841   7.231
 5333POPC   C1B69523  15.098   2.135   6.232
 5333POPC   C2B69524  14.987   2.225   6.618
 5333POPC   C3B69525  14.827   2.015   6.965
 5333POPC   C4B69526  14.833   2.133   7.368
 5334POPC   NC369527  42.976   7.706   5.367
 5334POPC   PO469528  43.489   7.405   4.964
 5334POPC   GL169529  43.343   7.369   5.487
 5334POPC   GL269530  43.494   7.578   5.761
 5334POPC   C1A69531  43.066   7.414   5.960
 5334POPC   D2A69532  42.963   7.265   6.419
 5334POPC   C3A69533  42.926   7.494   6.841
 5334POPC   C4A69534  43.104   7.515   7.268
 5334POPC   C1B69535  43.419   7.761   6.179
 5334POPC   C2B69536  43.390   7.520   6.566
 5334POPC   C3B69537  43.406   7.283   6.920
 5334POPC   C4B69538  43.600   7.405   7.291
 5335POPC   NC369539  31.701  28.256   5.297
 5335POPC   PO469540  31.125  28.495   5.054
 5335POPC   GL169541  31.403  28.600   5.542
 5335POPC   GL269542  31.754  28.455   5.771
 5335POPC   C1A69543  31.360  28.671   6.026
 5335POPC   D2A69544  31.564  28.469   6.415
 5335POPC   C3A69545  31.344  28.491   6.820
 5335POPC   C4A69546  31.330  28.537   7.258
 5335POPC   C1B69547  31.801  28.086   6.134
 5335POPC   C2B69548  31.744  28.019   6.625
 5335POPC   C3B69549  31.558  28.082   7.063
 5335POPC   C4B69550  31.416  27.815   7.407
 5336POPC   NC369551  18.115   1.660   5.397
 5336POPC   PO469552  17.858   1.120   5.071
 5336POPC   GL169553  18.052   1.220   5.652
 5336POPC   GL269554  18.378   1.382   5.749
 5336POPC   C1A69555  18.110   1.147   6.118
 5336POPC   D2A69556  18.324   1.229   6.503
 5336POPC   C3A69557  18.122   1.192   6.911
 5336POPC   C4A69558  18.214   1.381   7.310
 5336POPC   C1B69559  18.698   1.338   6.092
 5336POPC   C2B69560  18.826   1.330   6.533
 5336POPC   C3B69561  18.638   1.142   6.925
 5336POPC   C4B69562  18.564   1.006   7.391
 5337POPC   NC369563   3.757  40.561   5.404
 5337POPC   PO469564   3.435  41.226   5.293
 5337POPC   GL169565   3.490  41.046   5.737
 5337POPC   GL269566   3.468  40.674   5.811
 5337POPC   C1A69567   3.489  40.933   6.235
 5337POPC   D2A69568   3.713  40.727   6.631
 5337POPC   C3A69569   3.685  40.861   7.099
 5337POPC   C4A69570   3.490  41.089   7.467
 5337POPC   C1B69571   3.604  40.428   6.184
 5337POPC   C2B69572   3.410  40.310   6.560
 5337POPC   C3B69573   3.407  40.446   6.954
 5337POPC   C4B69574   3.286  40.382   7.365
 5338POPC   NC369575   3.400  26.758   5.476
 5338POPC   PO469576   3.894  26.832   5.729
 5338POPC   GL169577   3.479  26.866   5.979
 5338POPC   GL269578   3.260  26.581   5.943
 5338POPC   C1A69579   3.356  26.869   6.433
 5338POPC   D2A69580   3.510  26.827   6.883
 5338POPC   C3A69581   3.363  27.097   7.227
 5338POPC   C4A69582   3.061  27.222   7.579
 5338POPC   C1B69583   3.574  26.431   6.255
 5338POPC   C2B69584   3.705  26.385   6.713
 5338POPC   C3B69585   3.997  26.578   7.036
 5338POPC   C4B69586   3.947  26.715   7.461
 5339POPC   NC369587  40.378  39.718   5.627
 5339POPC   PO469588  39.952  40.259   5.599
 5339POPC   GL169589  40.006  39.934   5.920
 5339POPC   GL269590  39.675  39.761   5.876
 5339POPC   C1A69591  40.187  39.957   6.360
 5339POPC   D2A69592  40.000  39.807   6.760
 5339POPC   C3A69593  40.225  39.940   7.164
 5339POPC   C4A69594  40.379  40.179   7.528
 5339POPC   C1B69595  39.689  39.914   6.317
 5339POPC   C2B69596  39.454  39.988   6.684
 5339POPC   C3B69597  39.515  39.723   7.024
 5339POPC   C4B69598  39.802  39.750   7.345
 5340POPC   NC369599  14.725  24.628   5.445
 5340POPC   PO469600  14.139  24.297   5.385
 5340POPC   GL169601  14.357  24.264   5.822
 5340POPC   GL269602  14.718  24.291   5.873
 5340POPC   C1A69603  14.453  24.530   6.243
 5340POPC   D2A69604  14.602  24.726   6.653
 5340POPC   C3A69605  14.408  24.622   7.060
 5340POPC   C4A69606  14.232  24.218   7.141
 5340POPC   C1B69607  14.663  24.058   6.287
 5340POPC   C2B69608  14.567  24.101   6.743
 5340POPC   C3B69609  14.762  24.273   7.120
 5340POPC   C4B69610  14.705  24.199   7.563
 5341POPC   NC369611  43.323  15.445   5.429
 5341POPC   PO469612  42.785  15.085   5.494
 5341POPC   GL169613  42.950  15.339   5.862
 5341POPC   GL269614  43.288  15.286   5.895
 5341POPC   C1A69615  43.061  15.287   6.338
 5341POPC   D2A69616  42.978  15.309   6.755
 5341POPC   C3A69617  43.074  15.119   7.104
 5341POPC   C4A69618  43.122  15.418   7.455
 5341POPC   C1B69619  43.553  15.381   6.245
 5341POPC   C2B69620  43.458  15.497   6.670
 5341POPC   C3B69621  43.512  15.384   7.108
 5341POPC   C4B69622  43.467  15.049   7.434
 5342POPC   NC369623  27.001   1.942   5.326
 5342POPC   PO469624  26.491   2.076   5.679
 5342POPC   GL169625  26.940   2.075   5.809
 5342POPC   GL269626  27.104   1.752   5.834
 5342POPC   C1A69627  27.041   2.139   6.223
 5342POPC   D2A69628  26.769   2.062   6.576
 5342POPC   C3A69629  26.995   2.057   6.951
 5342POPC   C4A69630  27.027   2.339   7.294
 5342POPC   C1B69631  26.788   1.688   6.156
 5342POPC   C2B69632  26.771   1.533   6.576
 5342POPC   C3B69633  26.770   1.568   7.004
 5342POPC   C4B69634  26.558   1.908   7.189
 5343POPC   NC369635  20.058  13.465   5.444
 5343POPC   PO469636  20.729  13.270   5.358
 5343POPC   GL169637  20.728  13.267   5.827
 5343POPC   GL269638  20.355  13.261   5.851
 5343POPC   C1A69639  20.855  13.482   6.254
 5343POPC   D2A69640  20.983  13.734   6.652
 5343POPC   C3A69641  20.699  13.802   7.030
 5343POPC   C4A69642  20.490  13.953   7.438
 5343POPC   C1B69643  20.341  13.440   6.272
 5343POPC   C2B69644  20.533  13.457   6.690
 5343POPC   C3B69645  20.698  13.269   7.087
 5343POPC   C4B69646  20.715  13.122   7.536
 5344POPC   NC369647  36.855   9.158   5.536
 5344POPC   PO469648  36.994   8.520   5.417
 5344POPC   GL169649  37.054   8.673   5.813
 5344POPC   GL269650  37.286   8.903   5.684
 5344POPC   C1A69651  36.893   8.932   6.191
 5344POPC   D2A69652  36.698   9.114   6.600
 5344POPC   C3A69653  36.725   8.861   7.004
 5344POPC   C4A69654  36.848   8.907   7.444
 5344POPC   C1B69655  37.390   9.071   6.087
 5344POPC   C2B69656  37.237   9.186   6.495
 5344POPC   C3B69657  37.211   8.970   6.890
 5344POPC   C4B69658  37.296   9.174   7.244
 5345POPC   NC369659  28.060  42.078   5.553
 5345POPC   PO469660  28.693  42.164   5.195
 5345POPC   GL169661  28.591  42.423   5.713
 5345POPC   GL269662  28.293  42.406   5.877
 5345POPC   C1A69663  28.702  42.328   6.176
 5345POPC   D2A69664  28.493  42.230   6.573
 5345POPC   C3A69665  28.588  42.332   7.018
 5345POPC   C4A69666  28.382  42.100   7.370
 5345POPC   C1B69667  28.106  42.434   6.293
 5345POPC   C2B69668  28.186  42.637   6.700
 5345POPC   C3B69669  28.083  42.424   7.082
 5345POPC   C4B69670  28.006  42.459   7.510
 5346POPC   NC369671  12.662   6.915   5.505
 5346POPC   PO469672  12.771   7.559   5.554
 5346POPC   GL169673  12.628   7.434   5.926
 5346POPC   GL269674  12.415   7.148   5.875
 5346POPC   C1A69675  12.860   7.424   6.304
 5346POPC   D2A69676  12.976   7.212   6.653
 5346POPC   C3A69677  13.003   7.446   7.020
 5346POPC   C4A69678  12.925   7.310   7.428
 5346POPC   C1B69679  12.433   7.153   6.316
 5346POPC   C2B69680  12.463   7.336   6.684
 5346POPC   C3B69681  12.507   7.341   7.128
 5346POPC   C4B69682  12.412   7.235   7.560
 5347POPC   NC369683  38.350  18.249   5.409
 5347POPC   PO469684  37.927  18.771   5.687
 5347POPC   GL169685  38.173  18.406   5.883
 5347POPC   GL269686  38.541  18.345   5.908
 5347POPC   C1A69687  38.254  18.320   6.322
 5347POPC   D2A69688  38.413  18.493   6.691
 5347POPC   C3A69689  38.386  18.319   7.105
 5347POPC   C4A69690  38.724  18.394   7.383
 5347POPC   C1B69691  38.532  17.952   6.110
 5347POPC   C2B69692  38.374  17.854   6.471
 5347POPC   C3B69693  38.536  17.896   6.827
 5347POPC   C4B69694  38.717  17.916   7.215
 5348POPC   NC369695  32.792   3.533   5.228
 5348POPC   PO469696  33.342   3.807   5.529
 5348POPC   GL169697  33.194   3.592   5.838
 5348POPC   GL269698  32.886   3.439   5.775
 5348POPC   C1A69699  33.330   3.449   6.204
 5348POPC   D2A69700  33.188   3.259   6.585
 5348POPC   C3A69701  33.201   3.423   6.977
 5348POPC   C4A69702  33.361   3.583   7.328
 5348POPC   C1B69703  32.841   3.354   6.228
 5348POPC   C2B69704  32.789   3.679   6.612
 5348POPC   C3B69705  32.703   3.588   7.024
 5348POPC   C4B69706  32.778   3.202   7.226
 5349POPC   NC369707  11.866  10.593   5.172
 5349POPC   PO469708  11.392  10.891   5.479
 5349POPC   GL169709  11.610  10.682   5.795
 5349POPC   GL269710  11.286  10.573   5.865
 5349POPC   C1A69711  11.658  10.537   6.231
 5349POPC   D2A69712  11.475  10.583   6.647
 5349POPC   C3A69713  11.606  10.319   6.970
 5349POPC   C4A69714  11.889  10.279   7.287
 5349POPC   C1B69715  11.255  10.884   6.146
 5349POPC   C2B69716  11.058  10.958   6.527
 5349POPC   C3B69717  11.057  10.777   6.896
 5349POPC   C4B69718  11.295  10.638   7.241
 5350POPC   NC369719   1.406  31.131   5.695
 5350POPC   PO469720   1.047  31.695   5.528
 5350POPC   GL169721   1.263  31.592   5.863
 5350POPC   GL269722   0.964  31.317   5.872
 5350POPC   C1A69723   1.319  31.433   6.279
 5350POPC   D2A69724   1.313  31.159   6.633
 5350POPC   C3A69725   1.545  31.390   6.908
 5350POPC   C4A69726   1.462  31.563   7.281
 5350POPC   C1B69727   0.864  31.643   6.159
 5350POPC   C2B69728   0.893  31.495   6.587
 5350POPC   C3B69729   1.064  31.652   6.954
 5350POPC   C4B69730   0.958  31.734   7.375
 5351POPC   NC369731  40.631  20.781   5.451
 5351POPC   PO469732  41.080  20.243   5.373
 5351POPC   GL169733  40.960  20.486   5.764
 5351POPC   GL269734  40.616  20.428   5.871
 5351POPC   C1A69735  40.970  20.648   6.220
 5351POPC   D2A69736  40.969  20.435   6.599
 5351POPC   C3A69737  41.028  20.613   6.953
 5351POPC   C4A69738  41.239  20.483   7.295
 5351POPC   C1B69739  40.541  20.378   6.325
 5351POPC   C2B69740  40.550  20.717   6.656
 5351POPC   C3B69741  40.554  20.771   7.090
 5351POPC   C4B69742  40.686  20.431   7.328
 5352POPC   NC369743  12.374  27.016   5.109
 5352POPC   PO469744  12.972  26.909   5.370
 5352POPC   GL169745  13.026  27.031   5.785
 5352POPC   GL269746  12.687  26.915   5.798
 5352POPC   C1A69747  13.003  26.838   6.204
 5352POPC   D2A69748  12.911  26.585   6.559
 5352POPC   C3A69749  12.861  26.827   6.917
 5352POPC   C4A69750  13.106  26.836   7.272
 5352POPC   C1B69751  12.495  26.984   6.176
 5352POPC   C2B69752  12.416  26.688   6.507
 5352POPC   C3B69753  12.313  26.645   6.929
 5352POPC   C4B69754  12.389  26.917   7.248
 5353POPC   NC369755  14.377  11.699   5.393
 5353POPC   PO469756  14.044  11.095   5.564
 5353POPC   GL169757  14.346  11.326   5.827
 5353POPC   GL269758  14.160  11.537   6.047
 5353POPC   C1A69759  14.598  11.317   6.228
 5353POPC   D2A69760  14.584  11.331   6.685
 5353POPC   C3A69761  14.575  11.269   7.132
 5353POPC   C4A69762  14.744  11.589   7.395
 5353POPC   C1B69763  14.129  11.112   6.263
 5353POPC   C2B69764  14.156  11.056   6.733
 5353POPC   C3B69765  14.126  11.470   6.966
 5353POPC   C4B69766  14.253  11.795   7.260
 5354POPC   NC369767  44.789  17.952   5.286
 5354POPC   PO469768  44.423  17.381   5.275
 5354POPC   GL169769  44.582  17.563   5.658
 5354POPC   GL269770  44.293  17.640   5.865
 5354POPC   C1A69771  44.722  17.500   6.093
 5354POPC   D2A69772  44.743  17.733   6.475
 5354POPC   C3A69773  44.745  17.511   6.843
 5354POPC   C4A69774  44.884  17.195   7.122
 5354POPC   C1B69775  44.240  17.490   6.277
 5354POPC   C2B69776  44.267  17.604   6.687
 5354POPC   C3B69777  44.280  17.696   7.095
 5354POPC   C4B69778  44.553  17.513   7.368
 5355POPC   NC369779   3.409  34.866   5.450
 5355POPC   PO469780   3.533  35.464   5.245
 5355POPC   GL169781   3.659  35.423   5.733
 5355POPC   GL269782   3.489  35.152   5.894
 5355POPC   C1A69783   3.577  35.609   6.154
 5355POPC   D2A69784   3.355  35.702   6.550
 5355POPC   C3A69785   3.447  35.426   6.919
 5355POPC   C4A69786   3.251  35.444   7.325
 5355POPC   C1B69787   3.744  35.052   6.235
 5355POPC   C2B69788   3.686  35.017   6.652
 5355POPC   C3B69789   3.671  34.891   7.033
 5355POPC   C4B69790   3.661  35.151   7.351
 5356POPC   NC369791  15.820  23.198   5.320
 5356POPC   PO469792  15.712  22.533   5.404
 5356POPC   GL169793  15.705  22.796   5.780
 5356POPC   GL269794  15.795  23.159   5.813
 5356POPC   C1A69795  16.016  22.805   6.178
 5356POPC   D2A69796  16.226  22.734   6.610
 5356POPC   C3A69797  16.164  22.932   7.029
 5356POPC   C4A69798  16.042  22.792   7.438
 5356POPC   C1B69799  15.608  23.089   6.188
 5356POPC   C2B69800  15.843  23.123   6.569
 5356POPC   C3B69801  15.674  23.076   6.963
 5356POPC   C4B69802  15.743  23.192   7.361
 5357POPC   NC369803  43.554  29.781   5.421
 5357POPC   PO469804  44.139  29.974   5.529
 5357POPC   GL169805  43.826  29.856   5.855
 5357POPC   GL269806  43.490  30.054   5.823
 5357POPC   C1A69807  43.943  29.675   6.265
 5357POPC   D2A69808  44.081  29.362   6.588
 5357POPC   C3A69809  44.061  29.515   7.018
 5357POPC   C4A69810  43.935  29.871   7.300
 5357POPC   C1B69811  43.676  30.213   6.180
 5357POPC   C2B69812  43.553  30.150   6.586
 5357POPC   C3B69813  43.724  30.198   6.971
 5357POPC   C4B69814  43.553  30.183   7.377
 5358POPC   NC369815  20.389  11.966   5.357
 5358POPC   PO469816  20.976  12.089   5.279
 5358POPC   GL169817  20.864  11.976   5.750
 5358POPC   GL269818  20.545  12.125   5.858
 5358POPC   C1A69819  20.911  12.116   6.212
 5358POPC   D2A69820  20.710  11.978   6.597
 5358POPC   C3A69821  20.752  12.156   7.023
 5358POPC   C4A69822  20.743  11.981   7.470
 5358POPC   C1B69823  20.311  12.039   6.265
 5358POPC   C2B69824  20.215  11.997   6.740
 5358POPC   C3B69825  20.280  11.954   7.208
 5358POPC   C4B69826  20.288  12.024   7.675
 5359POPC   NC369827  29.886  16.374   5.560
 5359POPC   PO469828  29.833  16.966   5.425
 5359POPC   GL169829  30.089  17.010   5.796
 5359POPC   GL269830  30.193  16.637   5.909
 5359POPC   C1A69831  30.212  17.009   6.224
 5359POPC   D2A69832  30.301  16.631   6.449
 5359POPC   C3A69833  30.097  16.694   6.831
 5359POPC   C4A69834  30.204  16.970   7.184
 5359POPC   C1B69835  29.823  16.604   6.156
 5359POPC   C2B69836  29.658  16.297   6.435
 5359POPC   C3B69837  29.814  16.222   6.845
 5359POPC   C4B69838  29.866  16.475   7.223
 5360POPC   NC369839  16.236  32.254   5.460
 5360POPC   PO469840  15.613  32.041   5.461
 5360POPC   GL169841  15.829  32.314   5.851
 5360POPC   GL269842  16.181  32.532   5.875
 5360POPC   C1A69843  15.946  32.341   6.306
 5360POPC   D2A69844  15.971  32.145   6.739
 5360POPC   C3A69845  15.659  31.991   7.009
 5360POPC   C4A69846  15.819  32.160   7.382
 5360POPC   C1B69847  16.264  32.760   6.268
 5360POPC   C2B69848  16.138  32.652   6.695
 5360POPC   C3B69849  16.016  32.551   7.109
 5360POPC   C4B69850  16.213  32.493   7.481
 5361POPC   NC369851  39.828  31.370   5.378
 5361POPC   PO469852  40.421  31.668   5.292
 5361POPC   GL169853  40.205  31.591   5.667
 5361POPC   GL269854  40.313  31.866   5.810
 5361POPC   C1A69855  39.988  31.390   6.034
 5361POPC   D2A69856  40.164  31.231   6.420
 5361POPC   C3A69857  40.000  31.200   6.826
 5361POPC   C4A69858  40.101  31.336   7.244
 5361POPC   C1B69859  40.094  31.852   6.208
 5361POPC   C2B69860  40.059  31.698   6.622
 5361POPC   C3B69861  40.072  31.815   7.035
 5361POPC   C4B69862  40.430  31.745   7.295
 5362POPC   NC369863  35.997  44.503   5.777
 5362POPC   PO469864  36.509  44.882   5.473
 5362POPC   GL169865  36.315  44.909   5.916
 5362POPC   GL269866  35.938  44.921   6.037
 5362POPC   C1A69867  36.326  44.899   6.386
 5362POPC   D2A69868  36.474  44.874   6.814
 5362POPC   C3A69869  36.160  44.753   7.082
 5362POPC   C4A69870  35.940  44.376   7.185
 5362POPC   C1B69871  35.717  44.644   6.366
 5362POPC   C2B69872  35.620  44.581   6.813
 5362POPC   C3B69873  35.650  44.878   7.094
 5362POPC   C4B69874  35.936   0.135   7.328
 5363POPC   NC369875   6.801   4.656   5.238
 5363POPC   PO469876   6.351   4.169   5.498
 5363POPC   GL169877   6.663   4.269   5.895
 5363POPC   GL269878   6.968   4.048   5.942
 5363POPC   C1A69879   6.870   4.499   6.285
 5363POPC   D2A69880   6.897   4.605   6.760
 5363POPC   C3A69881   6.509   4.561   7.039
 5363POPC   C4A69882   6.520   4.242   7.404
 5363POPC   C1B69883   6.810   3.979   6.295
 5363POPC   C2B69884   6.970   4.113   6.634
 5363POPC   C3B69885   6.821   4.161   7.006
 5363POPC   C4B69886   6.956   4.449   7.284
 5364POPC   NC369887  38.109  41.060   5.481
 5364POPC   PO469888  38.694  40.711   5.435
 5364POPC   GL169889  38.625  40.936   5.784
 5364POPC   GL269890  38.317  40.815   5.896
 5364POPC   C1A69891  38.791  40.810   6.188
 5364POPC   D2A69892  38.662  40.676   6.611
 5364POPC   C3A69893  38.430  40.921   6.876
 5364POPC   C4A69894  38.524  41.036   7.280
 5364POPC   C1B69895  38.286  41.149   6.198
 5364POPC   C2B69896  38.214  41.392   6.601
 5364POPC   C3B69897  38.134  41.296   7.070
 5364POPC   C4B69898  38.047  40.826   7.226
 5365POPC   NC369899   6.289  10.674   5.377
 5365POPC   PO469900   5.789  10.238   5.337
 5365POPC   GL169901   5.797  10.393   5.739
 5365POPC   GL269902   6.080  10.585   5.832
 5365POPC   C1A69903   5.893  10.272   6.168
 5365POPC   D2A69904   6.015  10.536   6.479
 5365POPC   C3A69905   5.936  10.385   6.851
 5365POPC   C4A69906   6.105  10.487   7.232
 5365POPC   C1B69907   5.769  10.785   6.101
 5365POPC   C2B69908   5.770  10.985   6.524
 5365POPC   C3B69909   5.911  10.887   6.928
 5365POPC   C4B69910   5.805  10.939   7.350
 5366POPC   NC369911  15.212  17.559   5.420
 5366POPC   PO469912  14.684  18.026   5.485
 5366POPC   GL169913  14.926  17.727   5.807
 5366POPC   GL269914  15.307  17.779   5.870
 5366POPC   C1A69915  15.080  17.440   6.185
 5366POPC   D2A69916  14.921  17.486   6.617
 5366POPC   C3A69917  15.005  17.278   7.019
 5366POPC   C4A69918  14.844  17.463   7.402
 5366POPC   C1B69919  15.484  17.772   6.304
 5366POPC   C2B69920  15.412  17.632   6.733
 5366POPC   C3B69921  15.287  17.673   7.184
 5366POPC   C4B69922  15.265  17.767   7.629
 5367POPC   NC369923  17.905  19.996   5.520
 5367POPC   PO469924  18.372  19.539   5.457
 5367POPC   GL169925  18.254  19.797   5.858
 5367POPC   GL269926  18.506  20.029   6.008
 5367POPC   C1A69927  18.007  19.865   6.236
 5367POPC   D2A69928  18.082  19.576   6.584
 5367POPC   C3A69929  18.042  19.668   7.010
 5367POPC   C4A69930  18.053  20.030   7.215
 5367POPC   C1B69931  18.473  19.864   6.395
 5367POPC   C2B69932  18.336  20.023   6.779
 5367POPC   C3B69933  18.547  19.891   7.147
 5367POPC   C4B69934  18.767  19.687   7.520
 5368POPC   NC369935  21.195  27.281   5.505
 5368POPC   PO469936  21.628  27.785   5.510
 5368POPC   GL169937  21.354  27.670   5.812
 5368POPC   GL269938  21.005  27.732   5.709
 5368POPC   C1A69939  21.381  27.456   6.191
 5368POPC   D2A69940  21.174  27.498   6.543
 5368POPC   C3A69941  21.411  27.505   6.857
 5368POPC   C4A69942  21.340  27.448   7.251
 5368POPC   C1B69943  20.982  27.770   6.154
 5368POPC   C2B69944  21.066  27.993   6.578
 5368POPC   C3B69945  21.070  27.838   7.020
 5368POPC   C4B69946  21.057  27.779   7.495
 5369POPC   NC369947  23.958   1.287   5.296
 5369POPC   PO469948  23.611   0.735   5.401
 5369POPC   GL169949  23.688   1.098   5.706
 5369POPC   GL269950  23.441   1.382   5.730
 5369POPC   C1A69951  23.848   1.340   6.071
 5369POPC   D2A69952  23.885   1.142   6.486
 5369POPC   C3A69953  23.864   1.354   6.879
 5369POPC   C4A69954  23.921   1.169   7.256
 5369POPC   C1B69955  23.351   1.230   6.176
 5369POPC   C2B69956  23.382   1.325   6.638
 5369POPC   C3B69957  23.420   1.212   7.094
 5369POPC   C4B69958  23.169   1.133   7.445
 5370POPC   NC369959  12.718  24.098   5.498
 5370POPC   PO469960  13.079  23.544   5.352
 5370POPC   GL169961  13.066  23.802   5.744
 5370POPC   GL269962  12.775  23.711   5.830
 5370POPC   C1A69963  13.090  23.863   6.231
 5370POPC   D2A69964  13.010  23.723   6.690
 5370POPC   C3A69965  13.043  24.042   7.065
 5370POPC   C4A69966  13.013  24.081   7.511
 5370POPC   C1B69967  12.576  23.901   6.185
 5370POPC   C2B69968  12.453  23.821   6.603
 5370POPC   C3B69969  12.540  23.654   6.997
 5370POPC   C4B69970  12.698  23.713   7.405
 5371POPC   NC369971  37.196   7.328   5.324
 5371POPC   PO469972  36.591   7.735   5.317
 5371POPC   GL169973  36.890   7.607   5.641
 5371POPC   GL269974  36.895   7.264   5.774
 5371POPC   C1A69975  36.875   7.670   6.092
 5371POPC   D2A69976  36.908   7.381   6.423
 5371POPC   C3A69977  36.822   7.439   6.878
 5371POPC   C4A69978  36.774   7.704   7.243
 5371POPC   C1B69979  37.291   7.400   6.024
 5371POPC   C2B69980  37.428   7.329   6.464
 5371POPC   C3B69981  37.323   7.278   6.885
 5371POPC   C4B69982  37.139   7.077   7.252
 5372POPC   NC369983   4.086  31.365   5.339
 5372POPC   PO469984   4.534  31.746   5.358
 5372POPC   GL169985   4.489  31.646   5.766
 5372POPC   GL269986   4.376  31.319   5.808
 5372POPC   C1A69987   4.201  31.711   6.133
 5372POPC   D2A69988   3.997  31.545   6.526
 5372POPC   C3A69989   4.267  31.394   6.847
 5372POPC   C4A69990   4.301  31.327   7.289
 5372POPC   C1B69991   4.116  31.192   6.176
 5372POPC   C2B69992   4.005  30.964   6.583
 5372POPC   C3B69993   3.918  31.058   7.034
 5372POPC   C4B69994   3.950  31.026   7.480
 5373POPC   NC369995  35.806   5.379   5.520
 5373POPC   PO469996  35.347   4.943   5.387
 5373POPC   GL169997  35.412   5.071   5.775
 5373POPC   GL269998  35.696   4.854   5.811
 5373POPC   C1A69999  35.180   5.301   6.120
 5373POPC   D2A70000  34.906   5.284   6.493
 5373POPC   C3A70001  35.152   5.422   6.842
 5373POPC   C4A70002  35.516   5.269   7.078
 5373POPC   C1B70003  35.559   4.922   6.238
 5373POPC   C2B70004  35.674   5.069   6.615
 5373POPC   C3B70005  35.839   4.895   6.967
 5373POPC   C4B70006  35.579   4.807   7.311
 5374POPC   NC370007  14.340  14.309   5.426
 5374POPC   PO470008  14.949  14.263   5.624
 5374POPC   GL170009  14.635  14.412   5.961
 5374POPC   GL270010  14.281  14.477   5.905
 5374POPC   C1A70011  14.464  14.538   6.410
 5374POPC   D2A70012  14.422  14.675   6.860
 5374POPC   C3A70013  14.788  14.489   7.090
 5374POPC   C4A70014  14.824  14.023   7.212
 5374POPC   C1B70015  14.011  14.360   6.241
 5374POPC   C2B70016  13.980  14.452   6.670
 5374POPC   C3B70017  14.053  14.202   7.012
 5374POPC   C4B70018  14.385  14.257   7.290
 5375POPC   NC370019  19.329  32.399   4.949
 5375POPC   PO470020  18.865  31.949   5.284
 5375POPC   GL170021  19.033  32.125   5.694
 5375POPC   GL270022  19.069  32.511   5.794
 5375POPC   C1A70023  19.079  32.091   6.138
 5375POPC   D2A70024  19.093  32.309   6.510
 5375POPC   C3A70025  19.070  32.102   6.871
 5375POPC   C4A70026  19.081  32.118   7.270
 5375POPC   C1B70027  18.849  32.636   6.183
 5375POPC   C2B70028  18.634  32.531   6.567
 5375POPC   C3B70029  18.865  32.573   6.943
 5375POPC   C4B70030  19.163  32.658   7.268
 5376POPC   NC370031  33.848   0.138   5.442
 5376POPC   PO470032  34.220   0.615   5.630
 5376POPC   GL170033  33.964   0.412   5.911
 5376POPC   GL270034  33.613   0.449   5.945
 5376POPC   C1A70035  34.009   0.554   6.317
 5376POPC   D2A70036  33.909   0.396   6.711
 5376POPC   C3A70037  33.815   0.409   7.128
 5376POPC   C4A70038  34.106   0.523   7.483
 5376POPC   C1B70039  33.516   0.461   6.379
 5376POPC   C2B70040  33.472   0.138   6.655
 5376POPC   C3B70041  33.282   0.151   6.990
 5376POPC   C4B70042  33.430   0.186   7.372
 5377POPC   NC370043  10.821   0.880   5.247
 5377POPC   PO470044  11.252   1.398   5.339
 5377POPC   GL170045  11.186   1.249   5.749
 5377POPC   GL270046  11.031   0.944   5.715
 5377POPC   C1A70047  11.104   1.329   6.187
 5377POPC   D2A70048  11.257   1.458   6.583
 5377POPC   C3A70049  11.482   1.221   6.861
 5377POPC   C4A70050  11.440   1.251   7.269
 5377POPC   C1B70051  11.113   0.823   6.170
 5377POPC   C2B70052  11.089   0.953   6.636
 5377POPC   C3B70053  11.023   1.046   7.097
 5377POPC   C4B70054  11.108   1.005   7.587
 5378POPC   NC370055  39.822   0.923   5.274
 5378POPC   PO470056  39.880   1.581   5.435
 5378POPC   GL170057  40.023   1.561   5.886
 5378POPC   GL270058  40.175   1.238   5.833
 5378POPC   C1A70059  40.155   1.414   6.304
 5378POPC   D2A70060  39.989   1.194   6.617
 5378POPC   C3A70061  39.907   1.504   6.889
 5378POPC   C4A70062  39.833   1.626   7.313
 5378POPC   C1B70063  40.210   0.903   6.174
 5378POPC   C2B70064  40.235   0.737   6.591
 5378POPC   C3B70065  40.239   0.918   6.994
 5378POPC   C4B70066  39.864   1.106   7.173
 5379POPC   NC370067  28.960  42.016   5.550
 5379POPC   PO470068  29.074  41.343   5.220
 5379POPC   GL170069  29.260  41.348   5.694
 5379POPC   GL270070  29.216  41.685   5.803
 5379POPC   C1A70071  29.314  41.432   6.212
 5379POPC   D2A70072  29.285  41.708   6.607
 5379POPC   C3A70073  29.279  41.519   7.031
 5379POPC   C4A70074  29.263  41.392   7.483
 5379POPC   C1B70075  29.048  41.911   6.183
 5379POPC   C2B70076  28.793  41.818   6.562
 5379POPC   C3B70077  28.884  41.913   6.953
 5379POPC   C4B70078  28.913  41.735   7.329
 5380POPC   NC370079   2.513   2.157   5.436
 5380POPC   PO470080   3.014   1.699   5.498
 5380POPC   GL170081   3.082   2.027   5.821
 5380POPC   GL270082   2.724   1.992   5.883
 5380POPC   C1A70083   3.062   2.144   6.277
 5380POPC   D2A70084   2.892   1.908   6.640
 5380POPC   C3A70085   2.611   2.072   6.965
 5380POPC   C4A70086   2.629   2.077   7.415
 5380POPC   C1B70087   2.507   1.898   6.278
 5380POPC   C2B70088   2.316   1.724   6.665
 5380POPC   C3B70089   2.424   1.566   7.080
 5380POPC   C4B70090   2.419   1.640   7.530
 5381POPC   NC370091  43.820   9.309   5.253
 5381POPC   PO470092  43.670   8.732   5.529
 5381POPC   GL170093  43.985   8.954   5.735
 5381POPC   GL270094  44.157   8.682   5.837
 5381POPC   C1A70095  43.980   8.999   6.201
 5381POPC   D2A70096  43.809   9.236   6.544
 5381POPC   C3A70097  43.615   9.246   6.938
 5381POPC   C4A70098  43.861   9.257   7.281
 5381POPC   C1B70099  43.819   8.528   6.147
 5381POPC   C2B70100  43.762   8.673   6.570
 5381POPC   C3B70101  43.926   8.855   6.944
 5381POPC   C4B70102  43.644   8.798   7.296
 5382POPC   NC370103  30.433   6.819   5.190
 5382POPC   PO470104  30.667   6.220   5.312
 5382POPC   GL170105  30.764   6.527   5.663
 5382POPC   GL270106  30.598   6.869   5.692
 5382POPC   C1A70107  30.884   6.533   6.105
 5382POPC   D2A70108  30.595   6.473   6.471
 5382POPC   C3A70109  30.788   6.591   6.866
 5382POPC   C4A70110  30.674   6.628   7.285
 5382POPC   C1B70111  30.517   6.890   6.156
 5382POPC   C2B70112  30.617   7.009   6.577
 5382POPC   C3B70113  30.462   6.975   6.980
 5382POPC   C4B70114  30.545   7.158   7.370
 5383POPC   NC370115  36.863  11.896   5.422
 5383POPC   PO470116  37.409  12.255   5.464
 5383POPC   GL170117  37.104  12.169   5.822
 5383POPC   GL270118  36.895  11.875   5.910
 5383POPC   C1A70119  36.814  12.264   6.206
 5383POPC   D2A70120  36.751  12.381   6.639
 5383POPC   C3A70121  37.062  12.168   6.884
 5383POPC   C4A70122  36.926  11.842   7.109
 5383POPC   C1B70123  36.584  11.800   6.214
 5383POPC   C2B70124  36.666  11.862   6.636
 5383POPC   C3B70125  36.450  11.968   6.980
 5383POPC   C4B70126  36.464  11.702   7.329
 5384POPC   NC370127   5.190   8.448   5.459
 5384POPC   PO470128   4.645   8.028   5.407
 5384POPC   GL170129   4.825   8.258   5.763
 5384POPC   GL270130   5.157   8.135   5.867
 5384POPC   C1A70131   4.797   8.144   6.215
 5384POPC   D2A70132   5.129   8.120   6.532
 5384POPC   C3A70133   4.980   8.234   6.937
 5384POPC   C4A70134   5.145   8.016   7.271
 5384POPC   C1B70135   5.212   8.485   6.177
 5384POPC   C2B70136   5.259   8.609   6.642
 5384POPC   C3B70137   5.415   8.505   7.051
 5384POPC   C4B70138   5.606   8.611   7.467
 5385POPC   NC370139   9.401  14.922   5.156
 5385POPC   PO470140   8.890  15.360   5.099
 5385POPC   GL170141   8.794  15.295   5.678
 5385POPC   GL270142   8.840  15.533   5.914
 5385POPC   C1A70143   9.010  15.046   6.110
 5385POPC   D2A70144   8.872  14.867   6.504
 5385POPC   C3A70145   9.043  15.062   6.855
 5385POPC   C4A70146   8.810  15.087   7.219
 5385POPC   C1B70147   9.006  15.499   6.324
 5385POPC   C2B70148   9.393  15.431   6.529
 5385POPC   C3B70149   9.377  15.518   6.930
 5385POPC   C4B70150   9.267  15.289   7.256
 5386POPC   NC370151  34.646  20.315   5.406
 5386POPC   PO470152  34.850  19.696   5.543
 5386POPC   GL170153  34.773  20.001   5.869
 5386POPC   GL270154  34.463  19.914   5.943
 5386POPC   C1A70155  34.758  19.988   6.336
 5386POPC   D2A70156  34.792  19.699   6.690
 5386POPC   C3A70157  34.682  19.934   7.056
 5386POPC   C4A70158  34.396  20.087   7.353
 5386POPC   C1B70159  34.356  19.627   6.267
 5386POPC   C2B70160  34.240  19.518   6.687
 5386POPC   C3B70161  34.263  19.658   7.091
 5386POPC   C4B70162  34.077  19.691   7.497
 5387POPC   NC370163  28.038  18.362   5.517
 5387POPC   PO470164  28.597  17.981   5.409
 5387POPC   GL170165  28.403  18.079   5.806
 5387POPC   GL270166  28.082  17.908   5.847
 5387POPC   C1A70167  28.400  18.412   6.133
 5387POPC   D2A70168  28.186  18.461   6.541
 5387POPC   C3A70169  28.346  18.467   6.938
 5387POPC   C4A70170  28.128  18.476   7.322
 5387POPC   C1B70171  28.259  17.948   6.290
 5387POPC   C2B70172  28.304  17.894   6.724
 5387POPC   C3B70173  28.210  17.996   7.131
 5387POPC   C4B70174  27.840  18.036   7.442
 5388POPC   NC370175  36.157  22.970   5.568
 5388POPC   PO470176  36.086  22.300   5.287
 5388POPC   GL170177  36.237  22.502   5.733
 5388POPC   GL270178  36.555  22.679   5.772
 5388POPC   C1A70179  36.112  22.652   6.159
 5388POPC   D2A70180  36.221  22.502   6.567
 5388POPC   C3A70181  36.142  22.699   6.915
 5388POPC   C4A70182  35.946  22.836   7.294
 5388POPC   C1B70183  36.505  22.979   6.173
 5388POPC   C2B70184  36.184  23.067   6.530
 5388POPC   C3B70185  36.275  23.170   6.991
 5388POPC   C4B70186  36.220  23.240   7.433
 5389POPC   NC370187   9.123  19.049   5.417
 5389POPC   PO470188   8.503  18.753   5.585
 5389POPC   GL170189   8.872  18.855   5.870
 5389POPC   GL270190   9.026  19.205   5.890
 5389POPC   C1A70191   8.767  18.983   6.289
 5389POPC   D2A70192   8.512  18.829   6.626
 5389POPC   C3A70193   8.784  18.814   6.960
 5389POPC   C4A70194   8.949  18.950   7.306
 5389POPC   C1B70195   9.018  19.427   6.269
 5389POPC   C2B70196   8.979  19.515   6.687
 5389POPC   C3B70197   8.821  19.361   7.041
 5389POPC   C4B70198   8.817  19.457   7.483
 5390POPC   NC370199  41.524  43.947   5.227
 5390POPC   PO470200  40.840  43.930   5.434
 5390POPC   GL170201  40.768  43.846   5.864
 5390POPC   GL270202  40.982  44.129   6.003
 5390POPC   C1A70203  40.650  43.850   6.307
 5390POPC   D2A70204  40.850  44.058   6.653
 5390POPC   C3A70205  40.721  43.930   7.063
 5390POPC   C4A70206  40.553  44.013   7.469
 5390POPC   C1B70207  41.145  43.766   6.214
 5390POPC   C2B70208  41.321  43.675   6.607
 5390POPC   C3B70209  41.168  43.666   7.022
 5390POPC   C4B70210  40.939  43.646   7.431
 5391POPC   NC370211   7.606  41.683   5.232
 5391POPC   PO470212   6.957  41.587   5.395
 5391POPC   GL170213   7.193  41.559   5.796
 5391POPC   GL270214   7.561  41.635   5.768
 5391POPC   C1A70215   7.174  41.665   6.246
 5391POPC   D2A70216   7.090  41.447   6.633
 5391POPC   C3A70217   7.109  41.678   7.013
 5391POPC   C4A70218   7.320  41.739   7.393
 5391POPC   C1B70219   7.682  41.495   6.190
 5391POPC   C2B70220   7.620  41.303   6.619
 5391POPC   C3B70221   7.636  41.529   7.031
 5391POPC   C4B70222   7.782  41.465   7.475
 5392POPC   NC370223  29.258  37.060   5.225
 5392POPC   PO470224  29.513  36.456   5.280
 5392POPC   GL170225  29.353  36.666   5.658
 5392POPC   GL270226  29.288  36.358   5.786
 5392POPC   C1A70227  29.159  36.727   6.145
 5392POPC   D2A70228  29.062  36.581   6.636
 5392POPC   C3A70229  29.184  36.865   7.046
 5392POPC   C4A70230  29.096  37.159   7.435
 5392POPC   C1B70231  29.479  36.346   6.154
 5392POPC   C2B70232  29.553  36.616   6.497
 5392POPC   C3B70233  29.502  36.486   6.909
 5392POPC   C4B70234  29.272  36.397   7.281
 5393POPC   NC370235  30.754   7.873   5.443
 5393POPC   PO470236  30.596   7.226   5.293
 5393POPC   GL170237  30.784   7.370   5.738
 5393POPC   GL270238  30.894   7.720   5.891
 5393POPC   C1A70239  30.634   7.386   6.199
 5393POPC   D2A70240  30.345   7.636   6.450
 5393POPC   C3A70241  30.515   7.499   6.840
 5393POPC   C4A70242  30.735   7.607   7.201
 5393POPC   C1B70243  31.129   7.531   6.200
 5393POPC   C2B70244  31.007   7.384   6.610
 5393POPC   C3B70245  30.928   7.195   7.004
 5393POPC   C4B70246  31.027   7.282   7.454
 5394POPC   NC370247   0.314  40.659   5.400
 5394POPC   PO470248   0.911  40.980   5.469
 5394POPC   GL170249   0.656  40.842   5.829
 5394POPC   GL270250   0.299  40.978   5.879
 5394POPC   C1A70251   0.621  40.751   6.293
 5394POPC   D2A70252   0.671  40.724   6.775
 5394POPC   C3A70253   0.386  40.543   7.093
 5394POPC   C4A70254   0.502  40.565   7.533
 5394POPC   C1B70255   0.213  41.107   6.327
 5394POPC   C2B70256   0.218  40.974   6.789
 5394POPC   C3B70257   0.447  41.033   7.194
 5394POPC   C4B70258   0.576  41.233   7.603
 5395POPC   NC370259  37.462  11.801   5.450
 5395POPC   PO470260  38.037  11.354   5.470
 5395POPC   GL170261  37.900  11.740   5.792
 5395POPC   GL270262  37.846  12.105   5.712
 5395POPC   C1A70263  37.547  11.936   6.111
 5395POPC   D2A70264  37.365  11.799   6.553
 5395POPC   C3A70265  37.565  11.914   6.987
 5395POPC   C4A70266  37.635  12.225   7.343
 5395POPC   C1B70267  38.027  12.154   6.140
 5395POPC   C2B70268  38.049  12.360   6.542
 5395POPC   C3B70269  37.971  12.251   6.952
 5395POPC   C4B70270  38.085  12.026   7.307
 5396POPC   NC370271  34.975  14.654   5.031
 5396POPC   PO470272  34.550  14.282   5.444
 5396POPC   GL170273  34.581  14.419   5.842
 5396POPC   GL270274  34.876  14.207   5.851
 5396POPC   C1A70275  34.541  14.331   6.274
 5396POPC   D2A70276  34.362  14.453   6.648
 5396POPC   C3A70277  34.641  14.332   6.962
 5396POPC   C4A70278  34.489  14.325   7.342
 5396POPC   C1B70279  35.006  14.531   6.174
 5396POPC   C2B70280  34.897  14.598   6.587
 5396POPC   C3B70281  34.991  14.787   6.972
 5396POPC   C4B70282  34.903  14.592   7.342
 5397POPC   NC370283  21.616   5.041   5.230
 5397POPC   PO470284  21.133   5.474   5.337
 5397POPC   GL170285  21.136   5.214   5.799
 5397POPC   GL270286  20.912   4.942   5.901
 5397POPC   C1A70287  21.333   5.211   6.216
 5397POPC   D2A70288  21.508   5.012   6.572
 5397POPC   C3A70289  21.749   5.210   6.887
 5397POPC   C4A70290  21.881   4.866   7.115
 5397POPC   C1B70291  21.026   4.832   6.355
 5397POPC   C2B70292  21.114   4.757   6.785
 5397POPC   C3B70293  21.306   5.004   7.072
 5397POPC   C4B70294  21.412   5.383   7.256
 5398POPC   NC370295  29.752   1.174   5.392
 5398POPC   PO470296  29.080   1.387   5.433
 5398POPC   GL170297  29.346   1.398   5.751
 5398POPC   GL270298  29.099   1.318   5.967
 5398POPC   C1A70299  29.456   1.577   6.175
 5398POPC   D2A70300  29.169   1.380   6.490
 5398POPC   C3A70301  29.361   1.437   6.877
 5398POPC   C4A70302  29.360   1.299   7.277
 5398POPC   C1B70303  28.731   1.446   6.154
 5398POPC   C2B70304  28.654   1.580   6.563
 5398POPC   C3B70305  28.849   1.419   6.914
 5398POPC   C4B70306  28.770   1.254   7.293
 5399POPC   NC370307  12.328  16.128   5.550
 5399POPC   PO470308  12.971  15.795   5.470
 5399POPC   GL170309  12.763  16.020   5.815
 5399POPC   GL270310  12.430  15.846   5.955
 5399POPC   C1A70311  12.710  16.182   6.229
 5399POPC   D2A70312  12.549  15.981   6.599
 5399POPC   C3A70313  12.694  16.026   7.030
 5399POPC   C4A70314  13.071  15.865   7.210
 5399POPC   C1B70315  12.568  15.551   6.263
 5399POPC   C2B70316  12.813  15.478   6.628
 5399POPC   C3B70317  12.740  15.486   7.075
 5399POPC   C4B70318  12.645  15.708   7.468
 5400POPC   NC370319   3.794  32.596   5.398
 5400POPC   PO470320   3.366  33.026   5.510
 5400POPC   GL170321   3.719  33.033   5.759
 5400POPC   GL270322   3.803  33.402   5.682
 5400POPC   C1A70323   3.608  32.891   6.191
 5400POPC   D2A70324   3.276  32.898   6.506
 5400POPC   C3A70325   3.310  32.720   6.912
 5400POPC   C4A70326   3.405  32.905   7.325
 5400POPC   C1B70327   3.515  33.399   6.041
 5400POPC   C2B70328   3.561  33.343   6.466
 5400POPC   C3B70329   3.495  33.208   6.883
 5400POPC   C4B70330   3.365  33.424   7.233
 5401POPC   NC370331   4.458  37.131   5.493
 5401POPC   PO470332   3.999  36.737   5.353
 5401POPC   GL170333   4.160  36.781   5.773
 5401POPC   GL270334   4.136  37.127   5.871
 5401POPC   C1A70335   4.363  36.741   6.199
 5401POPC   D2A70336   4.467  36.585   6.629
 5401POPC   C3A70337   4.277  36.746   7.017
 5401POPC   C4A70338   4.225  37.063   7.324
 5401POPC   C1B70339   3.999  37.078   6.268
 5401POPC   C2B70340   4.291  37.064   6.605
 5401POPC   C3B70341   4.599  37.142   6.911
 5401POPC   C4B70342   4.611  37.462   7.212
 5402POPC   NC370343  27.466  21.457   5.432
 5402POPC   PO470344  27.976  21.659   5.685
 5402POPC   GL170345  27.784  21.287   5.865
 5402POPC   GL270346  27.423  21.194   5.896
 5402POPC   C1A70347  27.847  21.222   6.309
 5402POPC   D2A70348  27.935  21.063   6.712
 5402POPC   C3A70349  27.762  21.271   7.095
 5402POPC   C4A70350  27.613  21.623   7.385
 5402POPC   C1B70351  27.395  21.026   6.326
 5402POPC   C2B70352  27.408  21.260   6.714
 5402POPC   C3B70353  27.248  21.292   7.144
 5402POPC   C4B70354  27.452  21.156   7.502
 5403POPC   NC370355  30.272  18.611   5.325
 5403POPC   PO470356  29.914  19.184   5.352
 5403POPC   GL170357  29.880  18.999   5.793
 5403POPC   GL270358  30.028  18.695   5.782
 5403POPC   C1A70359  30.007  18.897   6.251
 5403POPC   D2A70360  29.847  18.877   6.685
 5403POPC   C3A70361  29.676  19.225   6.937
 5403POPC   C4A70362  29.817  19.498   7.308
 5403POPC   C1B70363  30.255  18.450   6.085
 5403POPC   C2B70364  30.441  18.381   6.511
 5403POPC   C3B70365  30.334  18.528   6.937
 5403POPC   C4B70366  30.123  18.915   7.100
 5404POPC   NC370367  16.585   2.931   5.412
 5404POPC   PO470368  16.891   2.411   5.255
 5404POPC   GL170369  16.911   2.617   5.691
 5404POPC   GL270370  16.558   2.631   5.816
 5404POPC   C1A70371  16.931   2.750   6.156
 5404POPC   D2A70372  17.102   2.713   6.608
 5404POPC   C3A70373  16.995   3.062   6.888
 5404POPC   C4A70374  16.817   2.990   7.310
 5404POPC   C1B70375  16.391   2.833   6.178
 5404POPC   C2B70376  16.605   2.936   6.557
 5404POPC   C3B70377  16.634   2.683   6.939
 5404POPC   C4B70378  16.353   2.799   7.265
 5405POPC   NC370379  27.504  42.633   5.521
 5405POPC   PO470380  27.590  41.996   5.489
 5405POPC   GL170381  27.506  42.239   5.863
 5405POPC   GL270382  27.784  42.449   5.898
 5405POPC   C1A70383  27.617  42.167   6.300
 5405POPC   D2A70384  27.791  42.274   6.689
 5405POPC   C3A70385  27.602  42.113   7.046
 5405POPC   C4A70386  27.887  41.997   7.344
 5405POPC   C1B70387  27.553  42.679   6.237
 5405POPC   C2B70388  27.688  42.760   6.668
 5405POPC   C3B70389  27.616  42.617   7.119
 5405POPC   C4B70390  27.485  42.370   7.509
 5406POPC   NC370391  40.113  21.304   5.364
 5406POPC   PO470392  39.635  21.743   5.645
 5406POPC   GL170393  39.960  21.480   5.837
 5406POPC   GL270394  40.327  21.553   5.746
 5406POPC   C1A70395  39.951  21.189   6.197
 5406POPC   D2A70396  40.204  21.099   6.567
 5406POPC   C3A70397  40.031  21.195   6.963
 5406POPC   C4A70398  40.234  21.118   7.354
 5406POPC   C1B70399  40.364  21.458   6.175
 5406POPC   C2B70400  40.409  21.598   6.593
 5406POPC   C3B70401  40.452  21.474   7.022
 5406POPC   C4B70402  40.113  21.636   7.291
 5407POPC   NC370403   8.960  24.945   5.429
 5407POPC   PO470404   9.218  24.422   5.269
 5407POPC   GL170405   9.298  24.355   5.738
 5407POPC   GL270406   9.231  24.679   5.867
 5407POPC   C1A70407   9.410  24.335   6.214
 5407POPC   D2A70408   9.461  24.552   6.634
 5407POPC   C3A70409   9.214  24.461   7.010
 5407POPC   C4A70410   8.948  24.347   7.380
 5407POPC   C1B70411   9.094  24.749   6.314
 5407POPC   C2B70412   8.929  24.791   6.750
 5407POPC   C3B70413   8.881  24.837   7.225
 5407POPC   C4B70414   8.873  24.976   7.674
 5408POPC   NC370415   1.193  21.013   5.330
 5408POPC   PO470416   1.434  21.656   5.355
 5408POPC   GL170417   1.232  21.383   5.694
 5408POPC   GL270418   1.412  21.074   5.771
 5408POPC   C1A70419   1.074  21.340   6.128
 5408POPC   D2A70420   1.177  21.137   6.521
 5408POPC   C3A70421   1.045  21.374   6.905
 5408POPC   C4A70422   1.098  21.685   7.227
 5408POPC   C1B70423   1.558  21.188   6.175
 5408POPC   C2B70424   1.659  21.299   6.587
 5408POPC   C3B70425   1.499  21.133   6.979
 5408POPC   C4B70426   1.177  21.114   7.336
 5409POPC   NC370427  19.124   5.448   5.556
 5409POPC   PO470428  18.744   4.937   5.398
 5409POPC   GL170429  18.910   4.935   5.816
 5409POPC   GL270430  18.947   5.258   5.982
 5409POPC   C1A70431  18.858   4.832   6.247
 5409POPC   D2A70432  19.003   5.045   6.577
 5409POPC   C3A70433  18.886   4.828   6.950
 5409POPC   C4A70434  19.006   4.978   7.325
 5409POPC   C1B70435  19.154   5.514   6.309
 5409POPC   C2B70436  19.236   5.592   6.765
 5409POPC   C3B70437  19.187   5.461   7.201
 5409POPC   C4B70438  18.842   5.441   7.477
 5410POPC   NC370439  24.539  16.881   5.472
 5410POPC   PO470440  23.858  16.662   5.275
 5410POPC   GL170441  24.088  16.598   5.684
 5410POPC   GL270442  24.153  16.916   5.819
 5410POPC   C1A70443  24.368  16.463   6.047
 5410POPC   D2A70444  24.689  16.428   6.364
 5410POPC   C3A70445  24.590  16.420   6.815
 5410POPC   C4A70446  24.794  16.618   7.155
 5410POPC   C1B70447  24.456  16.960   6.137
 5410POPC   C2B70448  24.496  16.865   6.543
 5410POPC   C3B70449  24.763  16.998   6.819
 5410POPC   C4B70450  24.542  17.054   7.191
 5411POPC   NC370451  44.265  34.991   5.465
 5411POPC   PO470452  44.461  34.477   5.453
 5411POPC   GL170453  44.603  34.629   5.819
 5411POPC   GL270454  44.539  34.319   5.966
 5411POPC   C1A70455  44.549  34.751   6.274
 5411POPC   D2A70456  44.608  34.565   6.681
 5411POPC   C3A70457  44.583  34.805   7.065
 5411POPC   C4A70458  44.682  35.092   7.402
 5411POPC   C1B70459  44.876  34.326   6.266
 5411POPC   C2B70460  44.985  34.196   6.691
 5411POPC   C3B70461  44.840  34.336   7.091
 5411POPC   C4B70462  44.914  34.587   7.458
 5412POPC   NC370463  13.006   2.931   5.367
 5412POPC   PO470464  12.578   3.458   5.255
 5412POPC   GL170465  12.683   3.249   5.677
 5412POPC   GL270466  13.038   3.222   5.785
 5412POPC   C1A70467  12.690   3.015   6.099
 5412POPC   D2A70468  12.475   2.702   6.379
 5412POPC   C3A70469  12.590   2.631   6.820
 5412POPC   C4A70470  12.526   2.777   7.261
 5412POPC   C1B70471  13.184   3.124   6.181
 5412POPC   C2B70472  12.983   2.920   6.527
 5412POPC   C3B70473  12.916   2.998   6.959
 5412POPC   C4B70474  13.059   2.735   7.285
 5413POPC   NC370475  15.461  10.271   5.342
 5413POPC   PO470476  14.958  10.711   5.429
 5413POPC   GL170477  14.922  10.619   5.834
 5413POPC   GL270478  15.275  10.556   5.838
 5413POPC   C1A70479  15.022  10.743   6.244
 5413POPC   D2A70480  15.333  10.678   6.606
 5413POPC   C3A70481  15.217  10.669   7.054
 5413POPC   C4A70482  15.295  10.462   7.452
 5413POPC   C1B70483  15.271  10.300   6.232
 5413POPC   C2B70484  15.580  10.234   6.553
 5413POPC   C3B70485  15.475  10.212   6.983
 5413POPC   C4B70486  15.668  10.101   7.332
 5414POPC   NC370487   7.144   6.014   5.544
 5414POPC   PO470488   7.757   5.666   5.567
 5414POPC   GL170489   7.438   5.711   5.892
 5414POPC   GL270490   7.431   6.087   5.974
 5414POPC   C1A70491   7.459   5.757   6.340
 5414POPC   D2A70492   7.728   5.871   6.642
 5414POPC   C3A70493   7.496   5.983   7.001
 5414POPC   C4A70494   7.657   6.024   7.391
 5414POPC   C1B70495   7.030   6.016   6.247
 5414POPC   C2B70496   6.945   6.003   6.691
 5414POPC   C3B70497   7.044   6.253   7.091
 5414POPC   C4B70498   7.160   6.044   7.492
 5415POPC   NC370499  30.422  38.335   5.268
 5415POPC   PO470500  30.912  38.584   5.308
 5415POPC   GL170501  30.645  38.537   5.707
 5415POPC   GL270502  30.470  38.215   5.800
 5415POPC   C1A70503  30.525  38.626   6.170
 5415POPC   D2A70504  30.354  38.670   6.631
 5415POPC   C3A70505  30.575  38.503   7.030
 5415POPC   C4A70506  30.530  38.531   7.492
 5415POPC   C1B70507  30.272  38.183   6.248
 5415POPC   C2B70508  30.267  38.158   6.728
 5415POPC   C3B70509  30.365  38.029   7.161
 5415POPC   C4B70510  30.775  38.088   7.359
 5416POPC   NC370511  26.341  28.620   5.506
 5416POPC   PO470512  26.064  28.093   5.208
 5416POPC   GL170513  26.232  28.158   5.706
 5416POPC   GL270514  26.019  28.027   5.934
 5416POPC   C1A70515  26.180  28.432   6.150
 5416POPC   D2A70516  26.286  28.234   6.561
 5416POPC   C3A70517  26.156  28.356   6.987
 5416POPC   C4A70518  26.067  28.705   7.236
 5416POPC   C1B70519  25.713  28.151   6.242
 5416POPC   C2B70520  25.772  28.163   6.661
 5416POPC   C3B70521  25.559  28.086   7.038
 5416POPC   C4B70522  25.787  28.255   7.368
 5417POPC   NC370523  10.319  20.384   5.445
 5417POPC   PO470524  10.667  20.934   5.297
 5417POPC   GL170525  10.607  20.706   5.716
 5417POPC   GL270526  10.718  20.376   5.762
 5417POPC   C1A70527  10.664  20.861   6.169
 5417POPC   D2A70528  10.526  20.716   6.565
 5417POPC   C3A70529  10.750  20.887   6.930
 5417POPC   C4A70530  10.498  20.702   7.226
 5417POPC   C1B70531  10.458  20.408   6.122
 5417POPC   C2B70532  10.236  20.267   6.478
 5417POPC   C3B70533  10.279  20.372   6.903
 5417POPC   C4B70534  10.136  20.338   7.298
 5418POPC   NC370535  14.021  15.223   5.679
 5418POPC   PO470536  13.488  15.150   5.240
 5418POPC   GL170537  13.500  15.273   5.684
 5418POPC   GL270538  13.382  15.609   5.763
 5418POPC   C1A70539  13.521  15.022   6.086
 5418POPC   D2A70540  13.851  14.847   6.371
 5418POPC   C3A70541  13.869  14.942   6.826
 5418POPC   C4A70542  13.556  14.989   7.133
 5418POPC   C1B70543  13.640  15.524   6.130
 5418POPC   C2B70544  13.606  15.304   6.514
 5418POPC   C3B70545  13.672  15.447   6.895
 5418POPC   C4B70546  13.855  15.387   7.267
 5419POPC   NC370547  44.340  44.891   5.106
 5419POPC   PO470548  44.733  44.449   5.369
 5419POPC   GL170549  44.866  44.624   5.775
 5419POPC   GL270550  44.698  44.959   5.800
 5419POPC   C1A70551  44.821  44.726   6.241
 5419POPC   D2A70552  44.536  44.696   6.601
 5419POPC   C3A70553  44.756  44.636   7.009
 5419POPC   C4A70554  44.588  44.503   7.380
 5419POPC   C1B70555  44.374  44.985   6.156
 5419POPC   C2B70556  44.242   0.179   6.536
 5419POPC   C3B70557  44.237   0.067   6.957
 5419POPC   C4B70558  44.559   0.073   7.252
 5420POPC   NC370559  10.784  27.808   5.635
 5420POPC   PO470560  11.403  27.927   5.347
 5420POPC   GL170561  11.361  27.568   5.658
 5420POPC   GL270562  11.111  27.546   5.926
 5420POPC   C1A70563  11.603  27.454   6.057
 5420POPC   D2A70564  11.354  27.509   6.432
 5420POPC   C3A70565  11.495  27.449   6.832
 5420POPC   C4A70566  11.210  27.370   7.133
 5420POPC   C1B70567  11.293  27.914   6.146
 5420POPC   C2B70568  11.200  28.003   6.588
 5420POPC   C3B70569  11.320  27.888   7.029
 5420POPC   C4B70570  11.623  28.011   7.403
 5421POPC   NC370571  18.285   4.855   5.461
 5421POPC   PO470572  18.086   4.234   5.361
 5421POPC   GL170573  18.259   4.357   5.742
 5421POPC   GL270574  18.595   4.522   5.727
 5421POPC   C1A70575  18.110   4.314   6.167
 5421POPC   D2A70576  18.189   4.217   6.586
 5421POPC   C3A70577  17.970   4.410   6.924
 5421POPC   C4A70578  18.243   4.166   7.153
 5421POPC   C1B70579  18.379   4.741   6.092
 5421POPC   C2B70580  18.170   4.719   6.504
 5421POPC   C3B70581  18.414   4.623   6.889
 5421POPC   C4B70582  18.289   4.646   7.308
 5422W        W70583  35.244   5.445  14.474
 5423W        W70584  12.387   1.826   2.683
 5424W        W70585   1.723  13.234   4.081
 5425W        W70586  29.608   2.839   3.379
 5426W        W70587   2.541   6.425   2.865
 5427W        W70588  28.426  42.362  13.370
 5428W        W70589  18.175  28.512   0.398
 5429W        W70590  24.256  17.545   3.266
 5430W        W70591  21.314  36.160   5.002
 5431W        W70592  40.967  10.107  12.314
 5432W        W70593   5.911  18.304   3.554
 5433W        W70594  37.056  11.903  14.497
 5434W        W70595  10.344  16.895   3.123
 5435W        W70596  13.431  20.024  13.101
 5436W        W70597  29.483  10.243  10.315
 5437W        W70598  36.394  15.194  13.033
 5438W        W70599  26.196  11.304  12.511
 5439W        W70600  10.393  17.535   4.955
 5440W        W70601   0.240  16.383   0.876
 5441W        W70602  27.427  19.589  13.726
 5442W        W70603  30.552  15.727  14.466
 5443W        W70604   1.087  38.443   1.972
 5444W        W70605  17.602   7.377  11.633
 5445W        W70606  33.852   9.445   1.376
 5446W        W70607  36.853  25.103  11.116
 5447W        W70608  21.179  37.299  12.673
 5448W        W70609  33.802  26.588  12.424
 5449W        W70610  33.002  19.707   0.761
 5450W        W70611  14.458  40.832   1.938
 5451W        W70612   8.737  39.369   4.663
 5452W        W70613  27.046  34.963  11.079
 5453W        W70614  39.468  11.626   2.584
 5454W        W70615  16.777  40.471   0.192
 5455W        W70616  44.841  13.452  14.898
 5456W        W70617  18.173  27.706   3.777
 5457W        W70618  34.280  23.686   0.700
 5458W        W70619   9.851  15.991  10.356
 5459W        W70620  24.181   0.546  13.570
 5460W        W70621  44.487  36.841   3.225
 5461W        W70622  16.756  40.548  12.475
 5462W        W70623  32.186  24.008   1.305
 5463W        W70624  28.178   9.016   5.320
 5464W        W70625  11.737   8.655   1.440
 5465W        W70626  19.087  24.766   4.247
 5466W        W70627  34.902  17.105  11.686
 5467W        W70628  19.984  21.416   3.663
 5468W        W70629  35.884   0.889  11.317
 5469W        W70630  11.784   7.536   4.874
 5470W        W70631  28.447  38.040   3.479
 5471W        W70632  28.608  15.642  14.386
 5472W        W70633  33.871  27.259   3.787
 5473W        W70634  29.619  14.397   2.664
 5474W        W70635  34.001  24.806  10.653
 5475W        W70636  38.340  27.042  12.804
 5476W        W70637   3.214  37.751  11.480
 5477W        W70638  32.953  21.543   1.223
 5478W        W70639   2.004  38.245  11.220
 5479W        W70640  39.633  34.524  11.646
 5480W        W70641  13.878  33.656   4.117
 5481W        W70642  28.228  40.550  14.943
 5482W        W70643  14.619  15.750  11.942
 5483W        W70644  25.907  15.101   0.013
 5484W        W70645   9.425   6.337  14.536
 5485W        W70646  10.225   9.179   4.583
 5486W        W70647  40.328  34.493  12.615
 5487W        W70648  34.269  34.005   0.519
 5488W        W70649  28.624  24.703  10.635
 5489W        W70650  18.460  18.387   1.714
 5490W        W70651  29.920  39.250   3.901
 5491W        W70652  17.268  22.125   1.426
 5492W        W70653  38.996   1.571   4.901
 5493W        W70654  21.800   6.023  14.258
 5494W        W70655  44.867   1.450   1.574
 5495W        W70656  17.452  28.428  12.807
 5496W        W70657  42.495  18.983  13.387
 5497W        W70658  26.162  35.928   3.139
 5498W        W70659   5.520  20.687  12.269
 5499W        W70660   8.836  36.450   1.740
 5500W        W70661  25.629   4.785   0.973
 5501W        W70662   4.859  11.734  10.611
 5502W        W70663   7.207  32.016   4.656
 5503W        W70664   0.409  20.138  10.902
 5504W        W70665  34.188   6.372  11.754
 5505W        W70666  25.558  42.368   2.223
 5506W        W70667  28.149   2.934   1.487
 5507W        W70668  30.294  21.421  10.321
 5508W        W70669  14.587  39.150   0.654
 5509W        W70670   3.498  22.577   4.650
 5510W        W70671  33.996  14.555  12.243
 5511W        W70672  18.447  16.994  13.091
 5512W        W70673  24.569   1.360  13.499
 5513W        W70674  42.165  25.233  14.697
 5514W        W70675   0.807  36.635   0.846
 5515W        W70676   0.503  25.804   2.381
 5516W        W70677  10.817   5.483  11.091
 5517W        W70678   5.498  19.526  13.344
 5518W        W70679  35.880  21.169   2.955
 5519W        W70680  28.356  32.867   2.041
 5520W        W70681  17.987  11.668   3.635
 5521W        W70682  19.552  21.608  10.467
 5522W        W70683  30.374  42.302  14.852
 5523W        W70684  32.588  37.099  13.310
 5524W        W70685   4.967  11.104   4.294
 5525W        W70686  21.053  38.025   3.581
 5526W        W70687  33.735  27.786   3.140
 5527W        W70688  20.571  28.601  11.753
 5528W        W70689   7.904   2.868   2.663
 5529W        W70690  14.095  42.522  11.162
 5530W        W70691  22.058   0.950   3.099
 5531W        W70692  25.599  30.411  11.522
 5532W        W70693  38.353  31.613  10.976
 5533W        W70694  20.537  15.778  12.656
 5534W        W70695   2.266  40.002  13.944
 5535W        W70696  39.521   1.231   4.103
 5536W        W70697  24.670  44.986  13.901
 5537W        W70698   0.053  28.669   4.119
 5538W        W70699  11.648  40.248  11.544
 5539W        W70700  17.346  32.145   0.766
 5540W        W70701  43.331  42.381  14.124
 5541W        W70702  33.054  32.263   2.350
 5542W        W70703   5.982   0.424   2.831
 5543W        W70704   3.918  37.931   1.643
 5544W        W70705  12.336  32.366   0.515
 5545W        W70706  10.407   2.217   4.900
 5546W        W70707   2.960   8.980  11.588
 5547W        W70708  36.427   8.293  12.473
 5548W        W70709   7.203  11.056  14.915
 5549W        W70710  14.686   4.748  13.366
 5550W        W70711  31.950  37.557  13.020
 5551W        W70712   1.926  15.808  11.459
 5552W        W70713  42.704  42.035   3.810
 5553W        W70714  26.474  17.789  12.897
 5554W        W70715   2.631  26.634   4.981
 5555W        W70716  42.210  28.189   0.773
 5556W        W70717   7.203  18.629   3.197
 5557W        W70718  44.947  10.418  12.907
 5558W        W70719  32.339  35.926  10.996
 5559W        W70720   2.140  42.474  14.789
 5560W        W70721  43.973  15.098  12.490
 5561W        W70722  18.739   8.535   5.009
 5562W        W70723   7.443   1.270   2.958
 5563W        W70724  15.346  17.061  14.912
 5564W        W70725  40.816   4.349   2.704
 5565W        W70726  40.385  23.692  13.008
 5566W        W70727   2.427  35.304   4.108
 5567W        W70728   4.225  41.510  12.467
 5568W        W70729  38.465   7.091  12.535
 5569W        W70730   4.884   3.801   3.695
 5570W        W70731   2.402  44.755   1.905
 5571W        W70732   4.175  30.671   1.051
 5572W        W70733  10.926  12.874   3.572
 5573W        W70734  10.433  35.870  11.694
 5574W        W70735  38.014  39.874   1.286
 5575W        W70736  10.165  33.054   3.669
 5576W        W70737  26.662  41.456   3.577
 5577W        W70738  11.110   6.751  10.505
 5578W        W70739  35.870  23.376  14.384
 5579W        W70740  19.742  24.276   2.832
 5580W        W70741  18.790  42.411   0.899
 5581W        W70742  13.306  14.702  13.947
 5582W        W70743   1.806  32.176   0.849
 5583W        W70744  40.095  24.075   2.037
 5584W        W70745  16.251   0.030   4.922
 5585W        W70746  12.976   2.561   4.881
 5586W        W70747  14.090  16.750   3.131
 5587W        W70748  23.312  15.246   3.135
 5588W        W70749   8.274  11.307   4.388
 5589W        W70750   7.947  15.646   2.060
 5590W        W70751  27.667  25.991  13.934
 5591W        W70752  17.282   0.952   2.314
 5592W        W70753  42.652  12.321  12.461
 5593W        W70754  10.325  43.471  10.174
 5594W        W70755  42.564  40.817  10.682
 5595W        W70756  40.865   7.006  12.472
 5596W        W70757  29.572  31.197  14.431
 5597W        W70758  22.264  10.922   0.766
 5598W        W70759  31.677  20.176   4.027
 5599W        W70760  27.159  31.707   2.197
 5600W        W70761  24.226   9.043  10.638
 5601W        W70762  14.508  14.402  11.112
 5602W        W70763  35.928   7.229  12.310
 5603W        W70764   7.329   5.863   4.146
 5604W        W70765  29.499   6.828  11.240
 5605W        W70766  21.040  17.949  13.029
 5606W        W70767  12.118  36.841  12.208
 5607W        W70768  36.848  40.224  14.355
 5608W        W70769   9.986   8.953  13.276
 5609W        W70770  13.686  13.805   1.363
 5610W        W70771  29.429   9.130  14.651
 5611W        W70772  27.344  40.961  11.205
 5612W        W70773  16.154  20.209  14.802
 5613W        W70774  27.969   8.043  13.728
 5614W        W70775   7.255  28.407   2.083
 5615W        W70776   2.161  33.492   3.185
 5616W        W70777  27.696   4.981   3.182
 5617W        W70778  29.535  28.584   4.638
 5618W        W70779  24.781  19.777   3.643
 5619W        W70780  15.034  23.589   1.409
 5620W        W70781   0.570  44.350  13.804
 5621W        W70782  19.575  28.630  13.841
 5622W        W70783   8.342  14.253   2.092
 5623W        W70784  44.887  41.384  13.770
 5624W        W70785  12.298  24.659   2.811
 5625W        W70786  34.202   5.756   4.508
 5626W        W70787  16.849  33.832  10.968
 5627W        W70788  25.126  38.584  14.020
 5628W        W70789   5.185  13.849   2.394
 5629W        W70790  25.014  35.884   3.565
 5630W        W70791   4.512  24.213   5.433
 5631W        W70792  23.295  20.455  11.523
 5632W        W70793  39.884  22.161  13.570
 5633W        W70794  43.586  21.057   3.330
 5634W        W70795  27.127  23.876  14.376
 5635W        W70796  41.824  36.411  13.649
 5636W        W70797  35.940  30.028   2.244
 5637W        W70798  13.530  22.533  12.423
 5638W        W70799  38.887  16.580  11.568
 5639W        W70800  35.113  44.331  10.781
 5640W        W70801   8.182   7.245  14.962
 5641W        W70802  36.467  37.418  12.922
 5642W        W70803  11.304  34.054  10.872
 5643W        W70804  10.812  35.645  11.006
 5644W        W70805  14.608  25.881  12.466
 5645W        W70806  40.811  16.528  12.032
 5646W        W70807  14.263  25.606   0.302
 5647W        W70808  24.436  28.491  14.432
 5648W        W70809  19.645  20.566  11.124
 5649W        W70810  13.096  11.160   1.210
 5650W        W70811  29.082   9.292  11.439
 5651W        W70812  33.888   8.322   3.862
 5652W        W70813  29.403   8.823  11.892
 5653W        W70814  31.406  17.689  11.709
 5654W        W70815  14.738  44.381  14.763
 5655W        W70816   8.466  19.717   5.108
 5656W        W70817  16.541  27.739  12.146
 5657W        W70818  31.853   9.986  14.868
 5658W        W70819  19.990  22.305  13.368
 5659W        W70820  13.777  42.435   3.807
 5660W        W70821  39.018   1.094   1.080
 5661W        W70822  44.206  23.239  11.499
 5662W        W70823   6.860  12.593   2.112
 5663W        W70824  43.920  21.076   4.237
 5664W        W70825  20.165  43.840  10.652
 5665W        W70826  38.448  28.698   4.175
 5666W        W70827  29.126  17.182  11.202
 5667W        W70828  27.131  14.662   2.803
 5668W        W70829  15.866  44.486   1.821
 5669W        W70830   9.316   1.747  12.056
 5670W        W70831  30.491  12.113   1.253
 5671W        W70832  35.365  16.558   0.711
 5672W        W70833   5.535  20.106   4.102
 5673W        W70834  35.944   0.332  14.182
 5674W        W70835  29.525  27.770   2.832
 5675W        W70836  33.999  23.002  11.101
 5676W        W70837  17.855   0.353  11.539
 5677W        W70838  39.342  41.269   0.768
 5678W        W70839  16.803   6.222  14.368
 5679W        W70840  41.385  20.021   0.334
 5680W        W70841  11.350  44.245  12.316
 5681W        W70842   3.994  31.689  14.411
 5682W        W70843  11.598  15.400   1.490
 5683W        W70844  33.998  33.012  14.466
 5684W        W70845  26.627  15.681  12.836
 5685W        W70846  21.973  28.158   2.675
 5686W        W70847   5.765   1.976   2.528
 5687W        W70848  29.941  42.721  13.039
 5688W        W70849   1.384   3.886  12.508
 5689W        W70850  13.804  30.726   4.050
 5690W        W70851   5.865  44.286   1.912
 5691W        W70852  34.927   3.206   2.188
 5692W        W70853  28.533  22.741  14.996
 5693W        W70854  21.101  43.986   4.155
 5694W        W70855  44.414  24.628  10.887
 5695W        W70856  23.970  44.604  10.202
 5696W        W70857  20.249  18.730   1.427
 5697W        W70858  42.271  38.945  14.771
 5698W        W70859  34.362  28.463  12.595
 5699W        W70860  44.134   0.399   1.792
 5700W        W70861   4.735  24.616  11.599
 5701W        W70862  29.419   5.899  11.098
 5702W        W70863   7.778  25.396  13.802
 5703W        W70864  31.373  20.262  11.509
 5704W        W70865   8.038   2.887  14.826
 5705W        W70866  28.853  44.954   1.255
 5706W        W70867  39.431  21.988   1.447
 5707W        W70868   9.548  39.921  12.563
 5708W        W70869   6.535  17.727   0.134
 5709W        W70870  16.159  39.387  13.021
 5710W        W70871  44.863   8.717   1.779
 5711W        W70872  16.153   9.639  11.227
 5712W        W70873  20.184  42.775  10.616
 5713W        W70874  23.067  44.796  11.092
 5714W        W70875  43.013  10.677   3.755
 5715W        W70876  23.163  16.786  14.240
 5716W        W70877  30.093  18.340  13.831
 5717W        W70878  42.915  19.479  10.705
 5718W        W70879   1.321   9.701   1.319
 5719W        W70880  14.356  16.816   3.582
 5720W        W70881  16.311  21.548  12.942
 5721W        W70882  20.805  42.842  11.869
 5722W        W70883  18.311  20.737   1.177
 5723W        W70884  44.016  38.796   1.750
 5724W        W70885  29.731  42.229  13.111
 5725W        W70886  44.426  11.188   3.176
 5726W        W70887  20.831  41.503   1.085
 5727W        W70888  30.329  30.627  11.543
 5728W        W70889  31.181   7.266   4.154
 5729W        W70890  27.963  28.712  12.056
 5730W        W70891  44.259  35.604   4.143
 5731W        W70892  26.308  23.405   5.390
 5732W        W70893  40.637   9.569   2.623
 5733W        W70894   1.774  34.059   4.500
 5734W        W70895  28.180  27.447  11.605
 5735W        W70896  34.266   2.328  14.382
 5736W        W70897  36.583  13.168  12.404
 5737W        W70898  32.431   9.613   2.104
 5738W        W70899  31.638  42.843   2.284
 5739W        W70900  32.342  10.721  10.712
 5740W        W70901  32.619  42.524  11.035
 5741W        W70902  21.036  18.043   1.450
 5742W        W70903  17.253  31.995  10.212
 5743W        W70904  37.038   6.721   3.424
 5744W        W70905   4.178  16.915   3.686
 5745W        W70906   4.431   6.617  12.677
 5746W        W70907  41.526  30.118   1.355
 5747W        W70908  42.874  30.129   0.868
 5748W        W70909  29.660  24.412  12.364
 5749W        W70910  41.472  22.299   1.672
 5750W        W70911  12.145  23.805  14.965
 5751W        W70912  39.591  15.448   1.467
 5752W        W70913  34.139  29.429   2.262
 5753W        W70914  37.815   4.376  12.380
 5754W        W70915  15.634   3.726  12.987
 5755W        W70916  17.647  38.432  11.128
 5756W        W70917  35.184  38.421   0.409
 5757W        W70918  12.201  23.304  13.239
 5758W        W70919  28.228  29.669  13.885
 5759W        W70920   0.770  17.366  11.127
 5760W        W70921  44.425  18.088  12.018
 5761W        W70922   0.253  13.086  11.986
 5762W        W70923  24.150  12.268   2.778
 5763W        W70924  40.062  11.079   0.447
 5764W        W70925   3.098  27.066   0.367
 5765W        W70926   4.072  11.837  12.360
 5766W        W70927  23.545  43.319   4.530
 5767W        W70928   1.414  32.543  11.489
 5768W        W70929   5.867  33.943  11.658
 5769W        W70930  22.190  34.581  12.950
 5770W        W70931  31.893  23.818  11.631
 5771W        W70932  26.641   8.658  11.944
 5772W        W70933  26.483  40.824  14.783
 5773W        W70934   7.198  28.482   4.310
 5774W        W70935   0.733  44.503  14.927
 5775W        W70936  34.130  42.784   0.921
 5776W        W70937   7.405   3.700   0.648
 5777W        W70938   6.320   0.791  13.830
 5778W        W70939  11.658  32.292   1.175
 5779W        W70940   7.376  29.102  11.616
 5780W        W70941  30.422  19.572  12.128
 5781W        W70942  38.927  13.089   3.348
 5782W        W70943  34.982  31.426  14.416
 5783W        W70944  20.752  35.620   4.362
 5784W        W70945  43.485  32.078   4.404
 5785W        W70946  11.205   8.661   3.666
 5786W        W70947  39.299  28.708  11.965
 5787W        W70948  42.101  27.281   3.289
 5788W        W70949  26.050   2.211   3.318
 5789W        W70950   6.585   7.394   4.802
 5790W        W70951  31.362  40.378  13.829
 5791W        W70952  44.262  44.908   0.536
 5792W        W70953  30.082  16.108   2.141
 5793W        W70954  44.486  15.601   2.506
 5794W        W70955  22.275  18.527  11.464
 5795W        W70956   5.304  17.556  12.591
 5796W        W70957  30.135  16.183   1.227
 5797W        W70958  32.069  30.721   2.268
 5798W        W70959  26.891  37.416  13.963
 5799W        W70960  23.271  36.788  12.186
 5800W        W70961   1.489  31.157   3.683
 5801W        W70962  20.280  13.736   3.359
 5802W        W70963  33.073   1.213  13.907
 5803W        W70964   0.826  32.871   0.331
 5804W        W70965  31.360  40.644   1.493
 5805W        W70966  11.256  41.774   1.815
 5806W        W70967   1.261   3.446   3.608
 5807W        W70968  27.932  40.409   4.588
 5808W        W70969  22.448   6.832   1.650
 5809W        W70970  41.360   5.589   3.563
 5810W        W70971  23.584  34.956  13.411
 5811W        W70972   2.471  29.966  11.319
 5812W        W70973   2.868   7.091  11.197
 5813W        W70974  15.590  33.942   4.306
 5814W        W70975  25.497  17.083   2.078
 5815W        W70976  13.568  20.565   2.945
 5816W        W70977   4.429  35.945   3.298
 5817W        W70978  25.130  13.133  14.774
 5818W        W70979   2.044   9.439   3.347
 5819W        W70980   0.747  24.564  10.491
 5820W        W70981  39.893   4.348  13.992
 5821W        W70982   6.277  23.309   1.573
 5822W        W70983  43.570  28.183  13.910
 5823W        W70984  22.558  13.088   4.407
 5824W        W70985  42.343  20.638  10.800
 5825W        W70986  43.085  28.071  14.010
 5826W        W70987  42.821   3.411   1.283
 5827W        W70988   3.782  19.705   2.936
 5828W        W70989  44.102  40.615   4.582
 5829W        W70990   0.206  24.124  13.475
 5830W        W70991  36.038  24.668   0.057
 5831W        W70992  22.089  42.739   3.977
 5832W        W70993   3.452  29.218  11.183
 5833W        W70994   6.381   3.772  13.603
 5834W        W70995  31.418  38.897   9.760
 5835W        W70996  27.514   6.697  12.935
 5836W        W70997  39.540  35.679  10.767
 5837W        W70998  12.672  22.691   4.481
 5838W        W70999  43.070  20.065   1.752
 5839W        W71000  36.613  43.483  12.567
 5840W        W71001   0.450  19.880   1.480
 5841W        W71002  39.864  20.805   4.559
 5842W        W71003  26.621  27.019   1.255
 5843W        W71004  27.428   4.837  12.100
 5844W        W71005   2.302  21.996   4.121
 5845W        W71006  27.016  21.947  13.874
 5846W        W71007  40.991  21.740  14.381
 5847W        W71008   0.365  30.646  13.106
 5848W        W71009  23.163   8.833   4.177
 5849W        W71010   3.442  29.164  14.857
 5850W        W71011  31.376  38.608   4.995
 5851W        W71012  31.556  18.271  12.815
 5852W        W71013  11.229  38.293   3.560
 5853W        W71014  14.573  39.034   3.972
 5854W        W71015  37.259  42.227   0.738
 5855W        W71016  25.305   1.489  11.579
 5856W        W71017  11.158   4.675  14.623
 5857W        W71018  41.869  20.727  12.088
 5858W        W71019  11.069   3.910   4.418
 5859W        W71020  29.407  32.105   1.900
 5860W        W71021  15.586  24.344  13.546
 5861W        W71022  20.476   3.462  13.951
 5862W        W71023  24.730  41.981   2.342
 5863W        W71024  17.306  21.831   3.273
 5864W        W71025  10.359  42.070  14.261
 5865W        W71026  14.037  33.828  12.968
 5866W        W71027   8.172  31.686   2.300
 5867W        W71028  12.591  21.965  14.926
 5868W        W71029  12.172  13.116   4.073
 5869W        W71030   2.386  26.336  10.514
 5870W        W71031  22.488  37.250  12.556
 5871W        W71032  23.844  12.596  12.996
 5872W        W71033  18.775   3.199   2.834
 5873W        W71034   9.018  14.892   3.722
 5874W        W71035   3.608  16.077  14.911
 5875W        W71036   8.446  42.860   3.020
 5876W        W71037  22.403   0.951  11.699
 5877W        W71038  24.592  32.920  12.075
 5878W        W71039  41.502  30.888   0.851
 5879W        W71040  21.579   3.306  12.173
 5880W        W71041  29.574  39.345  10.746
 5881W        W71042  19.131  28.094   2.748
 5882W        W71043  32.157  18.859   2.371
 5883W        W71044  14.714  38.885   2.135
 5884W        W71045  41.514  13.120  11.670
 5885W        W71046  14.316  18.123  11.659
 5886W        W71047  15.228  35.729  14.866
 5887W        W71048  35.593  15.096  11.671
 5888W        W71049  40.031  38.378  13.085
 5889W        W71050  25.063  11.461   1.946
 5890W        W71051  22.598  17.292  11.078
 5891W        W71052  34.521  27.550   2.599
 5892W        W71053  23.951  16.917   0.188
 5893W        W71054  17.399  16.133  12.811
 5894W        W71055   1.399  21.077  11.078
 5895W        W71056  13.600   1.405   2.536
 5896W        W71057  24.740  11.396  13.593
 5897W        W71058  36.312   4.887  13.863
 5898W        W71059  29.619  18.186   4.743
 5899W        W71060   2.878  13.879   0.372
 5900W        W71061   8.657  35.447   0.966
 5901W        W71062  32.609  33.277  14.461
 5902W        W71063   5.263  37.397  13.924
 5903W        W71064  22.530  12.350  14.396
 5904W        W71065  22.480  23.578   3.507
 5905W        W71066  12.679  28.514  14.588
 5906W        W71067  23.533  26.750  12.037
 5907W        W71068  44.831  14.671   3.074
 5908W        W71069  11.660  10.466   3.649
 5909W        W71070  23.415  20.066   0.688
 5910W        W71071  43.767   2.576  11.938
 5911W        W71072  35.881  14.396  12.091
 5912W        W71073  28.226  41.613  13.924
 5913W        W71074   8.597   8.305   4.620
 5914W        W71075  29.597  22.727  12.918
 5915W        W71076   7.633  38.133  14.376
 5916W        W71077  14.738   8.644   0.385
 5917W        W71078  37.570  18.029   1.347
 5918W        W71079  19.371   9.291   0.972
 5919W        W71080  17.277   4.854   2.764
 5920W        W71081  38.310  18.979  11.174
 5921W        W71082  19.833  42.768   0.865
 5922W        W71083  34.642  27.310  10.805
 5923W        W71084  13.061   7.686  12.109
 5924W        W71085  22.657  18.045  14.786
 5925W        W71086  28.649  22.028   4.290
 5926W        W71087  13.146   1.816   0.579
 5927W        W71088  14.678  43.813   1.474
 5928W        W71089  34.294  13.183   3.163
 5929W        W71090  35.051  12.190   0.721
 5930W        W71091  21.586  34.444   3.264
 5931W        W71092   0.602  16.112   4.132
 5932W        W71093   5.154  36.989  13.630
 5933W        W71094  39.870  39.518   3.069
 5934W        W71095  36.269  10.324  11.824
 5935W        W71096   2.069  39.490  10.473
 5936W        W71097  14.214  26.048   4.839
 5937W        W71098  33.279  32.110   2.806
 5938W        W71099   8.265  41.044  13.571
 5939W        W71100  27.534  19.086   3.029
 5940W        W71101  35.363  16.869  11.640
 5941W        W71102   2.215   2.137  10.435
 5942W        W71103   4.932  39.042   5.030
 5943W        W71104  37.015  44.576  12.368
 5944W        W71105  23.843  16.416  12.377
 5945W        W71106  32.584  35.127  14.830
 5946W        W71107  19.079  29.658  11.538
 5947W        W71108  37.319  23.069  13.878
 5948W        W71109  41.260  42.944   2.724
 5949W        W71110  12.861   6.283   0.029
 5950W        W71111   5.783   5.053   9.905
 5951W        W71112  25.219  29.308   3.652
 5952W        W71113  28.474  25.005   3.556
 5953W        W71114  41.498   9.171   4.113
 5954W        W71115  42.743   3.338  12.507
 5955W        W71116   5.441  10.369   2.100
 5956W        W71117   1.131  37.213  12.090
 5957W        W71118  17.343   2.887   0.429
 5958W        W71119  37.876  35.778  11.555
 5959W        W71120   9.364   3.493  11.591
 5960W        W71121  30.074  23.056  12.634
 5961W        W71122  14.230  35.447  14.872
 5962W        W71123  36.264  14.018   4.382
 5963W        W71124  25.106  29.434   1.703
 5964W        W71125  43.446   3.823  11.861
 5965W        W71126  17.849  13.746   3.408
 5966W        W71127   2.346  18.223   3.415
 5967W        W71128  37.500  30.887   2.470
 5968W        W71129  19.232   1.529   0.070
 5969W        W71130  28.620  38.256   3.040
 5970W        W71131  15.385  37.635  13.493
 5971W        W71132  17.850  36.209  11.955
 5972W        W71133  15.793  36.976  12.359
 5973W        W71134  15.743  37.053   1.253
 5974W        W71135  32.023   7.730  11.480
 5975W        W71136   9.703  34.362  11.522
 5976W        W71137  41.904  34.780   2.782
 5977W        W71138   0.421  40.853   4.595
 5978W        W71139  21.963   7.858  14.122
 5979W        W71140   3.537  23.630  14.794
 5980W        W71141  38.562  36.284  14.789
 5981W        W71142  41.605  13.315  13.968
 5982W        W71143  27.916  43.021   4.528
 5983W        W71144  33.019  12.390  14.882
 5984W        W71145  40.009   2.390  12.137
 5985W        W71146  32.170  26.730   2.569
 5986W        W71147  18.254  33.591  12.938
 5987W        W71148  25.711  36.883   5.165
 5988W        W71149  40.421  44.398  12.186
 5989W        W71150  39.308  38.053   3.015
 5990W        W71151  28.489  41.983   0.541
 5991W        W71152  39.789  27.045  11.189
 5992W        W71153  30.935  17.236   3.217
 5993W        W71154   2.140   7.564   4.507
 5994W        W71155   2.292  26.266  13.106
 5995W        W71156  10.632  35.484  13.522
 5996W        W71157  18.602  27.258   2.560
 5997W        W71158  17.593  18.600  13.359
 5998W        W71159   4.642   3.169  12.574
 5999W        W71160  33.064  11.713   4.344
 6000W        W71161  43.414  19.928  11.161
 6001W        W71162  34.578  41.578  13.184
 6002W        W71163  15.850   1.575   4.298
 6003W        W71164  16.058  30.040  12.573
 6004W        W71165  35.048   4.093   2.306
 6005W        W71166  21.214  44.261  14.790
 6006W        W71167  26.420  17.652  13.953
 6007W        W71168   6.174  25.078   0.770
 6008W        W71169   3.844  30.541   4.161
 6009W        W71170  22.175   0.511  11.562
 6010W        W71171   1.091  19.563  11.605
 6011W        W71172   7.230  12.286  11.625
 6012W        W71173  43.961  34.429  10.540
 6013W        W71174  42.516  42.885  10.974
 6014W        W71175  31.514   9.343   2.308
 6015W        W71176  23.420  39.628  11.655
 6016W        W71177  14.673  29.423   0.931
 6017W        W71178  35.867   1.913  14.371
 6018W        W71179  11.069   4.332  12.322
 6019W        W71180  26.025   9.820   3.582
 6020W        W71181   5.457  29.710  14.416
 6021W        W71182  44.138  20.076   0.538
 6022W        W71183  37.457  12.919  12.410
 6023W        W71184  26.502  14.066  11.595
 6024W        W71185  11.940  23.165   1.107
 6025W        W71186  22.581  41.945  10.252
 6026W        W71187  23.091  24.498   4.087
 6027W        W71188  40.850  35.845   2.396
 6028W        W71189  27.123  31.469   1.658
 6029W        W71190  27.994   8.914  12.878
 6030W        W71191  13.310  37.822   4.196
 6031W        W71192   4.833  41.031  10.486
 6032W        W71193   9.946  32.988  12.658
 6033W        W71194  39.906  14.623  10.617
 6034W        W71195  30.154  21.698   1.270
 6035W        W71196  19.011  31.922   1.948
 6036W        W71197  26.090   6.437  13.971
 6037W        W71198   5.871  12.372   3.673
 6038W        W71199  37.643   8.756   1.369
 6039W        W71200  18.725   1.215   3.150
 6040W        W71201  15.853  23.606  11.064
 6041W        W71202  16.771   4.417  12.240
 6042W        W71203  40.475  22.689  14.820
 6043W        W71204  41.048  17.622  14.250
 6044W        W71205  19.418  42.346   2.572
 6045W        W71206  36.354   2.165   1.128
 6046W        W71207  11.936  22.025   3.709
 6047W        W71208  39.554  35.512  13.355
 6048W        W71209  43.261  23.781   1.794
 6049W        W71210  26.030   1.392   3.794
 6050W        W71211  27.845  33.082   3.723
 6051W        W71212  32.417  42.927   4.995
 6052W        W71213  31.455  28.146   4.452
 6053W        W71214  10.720   4.281  11.720
 6054W        W71215   9.852  12.893   0.801
 6055W        W71216   2.248   6.423  14.897
 6056W        W71217  23.471  19.932  13.510
 6057W        W71218  29.873  11.751  10.406
 6058W        W71219  28.592  44.396  14.927
 6059W        W71220  17.199  12.412  11.185
 6060W        W71221  21.966  43.835  13.964
 6061W        W71222   6.696  34.665   0.464
 6062W        W71223   0.002   5.451  12.543
 6063W        W71224  38.895  22.590  11.977
 6064W        W71225  26.533  24.954   2.701
 6065W        W71226  21.512  44.561  12.046
 6066W        W71227   3.481  25.066   1.833
 6067W        W71228  29.189  40.860   1.909
 6068W        W71229  28.015  31.917   3.234
 6069W        W71230  10.823   6.134  12.824
 6070W        W71231  35.469  36.477  10.416
 6071W        W71232  13.466  13.832   4.598
 6072W        W71233  34.494  31.461   1.242
 6073W        W71234  27.492  14.152  14.979
 6074W        W71235  40.898   0.750   4.120
 6075W        W71236  23.127  31.784   3.938
 6076W        W71237  30.972  38.664   9.850
 6077W        W71238  18.533  27.411  13.379
 6078W        W71239  30.895  37.968  11.613
 6079W        W71240  19.268  23.773   1.829
 6080W        W71241  12.679  33.670  13.970
 6081W        W71242  33.072  22.640  13.577
 6082W        W71243  17.672  40.172  14.094
 6083W        W71244   9.390  40.092   3.380
 6084W        W71245   0.896  33.646  13.378
 6085W        W71246   6.279  34.392  13.316
 6086W        W71247  31.944  26.696   1.572
 6087W        W71248  17.324  19.609  11.464
 6088W        W71249  43.487  13.846  13.557
 6089W        W71250  30.029  42.830  10.620
 6090W        W71251  41.729  14.588  11.690
 6091W        W71252   8.924  44.349  14.341
 6092W        W71253  40.518  39.297  12.918
 6093W        W71254  37.541  27.537   3.151
 6094W        W71255  13.970   6.312  12.958
 6095W        W71256   8.141  37.343   0.438
 6096W        W71257   5.141  44.397   4.419
 6097W        W71258   5.244  22.648   1.967
 6098W        W71259   6.457  13.233   2.102
 6099W        W71260   5.229  17.039  13.452
 6100W        W71261  17.087  24.955  14.443
 6101W        W71262  41.917  21.576   4.558
 6102W        W71263  10.115  32.239   5.082
 6103W        W71264  34.596  26.802  11.010
 6104W        W71265  27.509  33.629  14.889
 6105W        W71266  16.698   4.553   0.043
 6106W        W71267  17.162  13.600   2.874
 6107W        W71268  33.578   1.701  10.620
 6108W        W71269  28.060  10.145   0.869
 6109W        W71270   6.676  19.139   2.230
 6110W        W71271   8.412   3.213   3.316
 6111W        W71272   8.121  35.082  12.423
 6112W        W71273   5.417  17.520   3.012
 6113W        W71274  17.710  17.660   2.436
 6114W        W71275  28.926  12.347  11.167
 6115W        W71276  25.284  38.320  13.132
 6116W        W71277  29.105  43.469   1.236
 6117W        W71278  35.460  37.247   0.760
 6118W        W71279  42.123  44.808  14.212
 6119W        W71280  33.504  38.475   3.536
 6120W        W71281  25.494  42.033  13.646
 6121W        W71282  18.752  26.418  12.093
 6122W        W71283  13.343  42.454   1.618
 6123W        W71284  18.771   5.163   0.296
 6124W        W71285   0.168   3.904   2.152
 6125W        W71286   3.881  27.231   2.246
 6126W        W71287   2.983  20.659  13.491
 6127W        W71288  44.177  23.302  14.603
 6128W        W71289  15.181  37.609   4.537
 6129W        W71290  18.799   7.641   1.852
 6130W        W71291  41.281  24.504  12.180
 6131W        W71292  32.582   1.041  13.743
 6132W        W71293  26.446  22.225  10.324
 6133W        W71294  27.943  43.215   2.774
 6134W        W71295  10.729  24.158  10.716
 6135W        W71296  19.649  21.487   3.174
 6136W        W71297  35.643  26.700   4.016
 6137W        W71298  38.933  33.674  14.976
 6138W        W71299  37.283  17.329   5.144
 6139W        W71300  40.272  34.957  14.318
 6140W        W71301  20.754  41.112  12.567
 6141W        W71302   4.388   7.673   0.915
 6142W        W71303  21.631  40.439   4.519
 6143W        W71304  36.868  10.487  12.958
 6144W        W71305   4.538  18.742  13.216
 6145W        W71306  17.730   7.425   3.896
 6146W        W71307  41.899  33.489   4.140
 6147W        W71308  28.946  29.569   2.324
 6148W        W71309  27.670   8.178   2.325
 6149W        W71310  14.934  39.389  10.465
 6150W        W71311  33.988  27.006   2.789
 6151W        W71312  17.391  13.739  14.222
 6152W        W71313  27.196  15.807   3.674
 6153W        W71314  17.947  35.246   3.681
 6154W        W71315  22.707  16.118  13.513
 6155W        W71316  44.463  40.221  14.469
 6156W        W71317  18.159  21.254   2.349
 6157W        W71318  29.424  37.126  12.069
 6158W        W71319  37.528  44.982  14.445
 6159W        W71320  26.197   9.304  11.491
 6160W        W71321   7.368  28.404  13.052
 6161W        W71322  10.441  12.655  13.599
 6162W        W71323  22.639  17.766  12.340
 6163W        W71324  25.660   0.474  10.612
 6164W        W71325  44.010  38.486  14.755
 6165W        W71326  18.652   9.559   4.623
 6166W        W71327  22.281  10.235  12.085
 6167W        W71328  14.898   3.218   4.150
 6168W        W71329  18.034  20.730  13.930
 6169W        W71330  28.206  40.488   4.156
 6170W        W71331   5.307  28.077   2.240
 6171W        W71332  12.391  27.966  12.473
 6172W        W71333  11.769  21.042   2.099
 6173W        W71334  29.945   6.286   3.806
 6174W        W71335   3.291  40.510   3.386
 6175W        W71336   6.582  16.718   3.373
 6176W        W71337  41.249  43.965  14.109
 6177W        W71338  26.157  39.769   3.433
 6178W        W71339  22.404  21.041   2.279
 6179W        W71340   2.318  38.029   2.758
 6180W        W71341  12.949  43.220  11.207
 6181W        W71342  36.817  15.147  11.179
 6182W        W71343  17.814   5.176  12.155
 6183W        W71344  30.855   3.186  14.308
 6184W        W71345   4.154   4.421   2.650
 6185W        W71346  10.758  21.224  12.637
 6186W        W71347   1.035  42.847   3.306
 6187W        W71348  11.693  36.873  11.399
 6188W        W71349  40.585  36.559  13.813
 6189W        W71350  21.084  36.961   4.449
 6190W        W71351  29.165  11.905  12.030
 6191W        W71352  17.564  11.212  11.615
 6192W        W71353  20.992  13.461   3.639
 6193W        W71354  30.265  36.584   2.929
 6194W        W71355  12.200  28.502  14.333
 6195W        W71356  42.041  23.701   4.174
 6196W        W71357  13.603  13.190   0.350
 6197W        W71358  32.162  40.515  13.447
 6198W        W71359  23.744  26.843   0.864
 6199W        W71360   3.497  12.488  14.437
 6200W        W71361  34.018  18.557   3.631
 6201W        W71362  16.096   6.411  13.774
 6202W        W71363  34.627  41.415   1.653
 6203W        W71364   8.353  31.410  11.108
 6204W        W71365  11.305  37.095  13.601
 6205W        W71366  44.703   6.226   4.039
 6206W        W71367  35.623  20.626  14.318
 6207W        W71368  15.646  42.933  13.804
 6208W        W71369  36.544  40.912  14.781
 6209W        W71370  27.218  15.806   2.149
 6210W        W71371  20.276  42.972   2.814
 6211W        W71372  37.594  18.267   0.364
 6212W        W71373   3.178  29.532  10.717
 6213W        W71374   7.688  26.202  13.884
 6214W        W71375   4.833   0.924  14.755
 6215W        W71376   0.258   3.466  11.982
 6216W        W71377  10.613  42.011  10.428
 6217W        W71378  41.263  41.370  10.609
 6218W        W71379  38.309  24.189   1.927
 6219W        W71380  16.227  43.742   4.136
 6220W        W71381  24.208  42.541  12.515
 6221W        W71382  40.034  22.114  12.467
 6222W        W71383  36.866  12.226  12.603
 6223W        W71384  23.628  24.444   4.606
 6224W        W71385  43.516   7.839   2.669
 6225W        W71386  30.144  29.527   2.798
 6226W        W71387  30.433  36.024   1.701
 6227W        W71388  25.278  17.283  13.404
 6228W        W71389  31.548  24.902  13.648
 6229W        W71390   4.220  31.985  10.729
 6230W        W71391  43.115  14.110   0.953
 6231W        W71392  41.019  11.125   1.767
 6232W        W71393  18.674  20.461  11.237
 6233W        W71394  23.060  26.499   1.387
 6234W        W71395  41.982  12.225   4.838
 6235W        W71396  21.535  40.253  14.829
 6236W        W71397  44.232  24.511   4.589
 6237W        W71398   0.325   5.722   4.597
 6238W        W71399  12.981  13.447  13.664
 6239W        W71400  23.528  37.140   1.362
 6240W        W71401   2.629  40.460  14.708
 6241W        W71402  13.233  31.129  11.658
 6242W        W71403  44.256   2.788   3.924
 6243W        W71404  12.972  23.458  11.615
 6244W        W71405   7.250  25.478  12.130
 6245W        W71406  32.740  38.505  13.620
 6246W        W71407  40.023  12.626  11.146
 6247W        W71408   3.372  40.328   2.436
 6248W        W71409  29.543  14.393   5.138
 6249W        W71410  20.855   9.451   3.210
 6250W        W71411  35.489  22.207  11.194
 6251W        W71412  14.144  31.715  12.621
 6252W        W71413  16.884  30.700  10.637
 6253W        W71414  26.117  13.347   5.001
 6254W        W71415  22.528   0.050   3.215
 6255W        W71416  32.168  22.004  10.982
 6256W        W71417   7.388  30.331   1.355
 6257W        W71418  17.607   9.196  13.460
 6258W        W71419  10.725  43.907   1.432
 6259W        W71420  16.560  25.683   0.819
 6260W        W71421   8.186  15.098   1.480
 6261W        W71422  17.921  18.179  13.351
 6262W        W71423  27.505  28.008   0.567
 6263W        W71424  21.955  18.005   3.156
 6264W        W71425   9.719  29.538   4.876
 6265W        W71426  31.360  38.197  10.308
 6266W        W71427   0.378  31.489  12.463
 6267W        W71428   1.348   8.619  13.719
 6268W        W71429  33.702  38.433  11.679
 6269W        W71430  20.537  33.054   2.449
 6270W        W71431  21.857   8.793  11.632
 6271W        W71432  28.597  26.677  11.534
 6272W        W71433   5.723  29.412  14.859
 6273W        W71434  17.467  11.370   3.270
 6274W        W71435   5.229  41.502   4.041
 6275W        W71436  37.888  34.273  14.789
 6276W        W71437  22.707  11.242  10.820
 6277W        W71438  36.493   1.025   1.877
 6278W        W71439  21.583  43.735   2.163
 6279W        W71440  29.599  17.335   2.569
 6280W        W71441  16.074  33.895   4.579
 6281W        W71442   6.827   2.687   1.444
 6282W        W71443  38.746  37.525   0.913
 6283W        W71444   5.293  39.910   2.610
 6284W        W71445  22.601  20.798   4.074
 6285W        W71446  32.601  10.280  11.427
 6286W        W71447  26.548  42.749   3.896
 6287W        W71448  12.171   1.902  11.651
 6288W        W71449  29.965  36.487   4.165
 6289W        W71450   8.766  21.994  11.468
 6290W        W71451  39.389  36.346  12.946
 6291W        W71452  44.290   6.698   1.411
 6292W        W71453  11.001  17.767   2.210
 6293W        W71454  43.352  11.856   4.075
 6294W        W71455  28.944  13.503   0.033
 6295W        W71456  22.240  44.597  12.296
 6296W        W71457  26.677  24.458  12.110
 6297W        W71458  44.946  27.478   3.693
 6298W        W71459  30.682  36.079   4.131
 6299W        W71460   7.925  24.603  10.664
 6300W        W71461  10.765  41.840  12.524
 6301W        W71462  40.618   6.433  11.468
 6302W        W71463  34.151  38.528  13.872
 6303W        W71464  19.805  29.966  13.571
 6304W        W71465  35.817  38.536  14.387
 6305W        W71466  35.492  17.753  10.649
 6306W        W71467  39.540  21.662  12.120
 6307W        W71468  44.067  39.955  13.827
 6308W        W71469   4.753  21.178  12.465
 6309W        W71470  32.008   1.495  14.498
 6310W        W71471   3.503  26.433  12.916
 6311W        W71472  22.017   9.360   3.737
 6312W        W71473  32.025  16.550   3.271
 6313W        W71474  19.714  27.463  11.999
 6314W        W71475  26.736   0.486  14.530
 6315W        W71476   0.101  32.089  11.071
 6316W        W71477  41.396  37.984  12.090
 6317W        W71478  33.161  30.963   3.874
 6318W        W71479  17.452  32.613  14.200
 6319W        W71480  34.503  36.775   4.815
 6320W        W71481  14.289  24.618   1.151
 6321W        W71482  16.539  37.001   2.815
 6322W        W71483  13.555  10.269  14.556
 6323W        W71484  28.155   0.084   3.826
 6324W        W71485  10.498  29.185   4.806
 6325W        W71486  23.124  20.341  13.248
 6326W        W71487  41.766  15.807   2.625
 6327W        W71488  17.137  39.008  14.938
 6328W        W71489  15.820  42.490  12.566
 6329W        W71490  26.728   7.791   1.764
 6330W        W71491  22.525   3.121   1.118
 6331W        W71492   7.129  29.696   1.027
 6332W        W71493  44.942  34.965   1.433
 6333W        W71494  38.008  42.445   2.415
 6334W        W71495   0.550   5.482  14.925
 6335W        W71496  26.397  26.738   2.602
 6336W        W71497   1.215  41.579  13.634
 6337W        W71498  31.825   6.083   5.189
 6338W        W71499  33.328  24.750  11.638
 6339W        W71500   1.416  32.697   4.528
 6340W        W71501  14.048  35.572  13.327
 6341W        W71502  38.930  27.121   1.356
 6342W        W71503  17.142   0.390  10.236
 6343W        W71504   2.786  25.409   1.885
 6344W        W71505  36.530  17.796   3.246
 6345W        W71506  32.520   3.907  13.409
 6346W        W71507  24.221  11.247  14.482
 6347W        W71508  35.167  44.937   9.912
 6348W        W71509  19.943  35.563  11.337
 6349W        W71510   1.054  11.753   9.864
 6350W        W71511  33.884   6.261  10.811
 6351W        W71512  21.798  17.126   2.959
 6352W        W71513  14.530  36.924   0.965
 6353W        W71514  17.097   7.930   3.621
 6354W        W71515  13.148  16.801   2.988
 6355W        W71516  22.541   9.178   4.621
 6356W        W71517  42.281  20.176   3.770
 6357W        W71518   6.374  10.124  13.603
 6358W        W71519  42.249  30.117  14.405
 6359W        W71520  32.630  43.500  14.407
 6360W        W71521  14.638  32.123   0.860
 6361W        W71522  18.198  25.900  10.901
 6362W        W71523  25.724  30.501   2.696
 6363W        W71524   3.225  20.813   3.223
 6364W        W71525  13.360   8.620   2.170
 6365W        W71526  37.530  15.652   1.945
 6366W        W71527  33.998  17.359   0.081
 6367W        W71528  30.016  15.873   1.683
 6368W        W71529  38.306   7.596  12.477
 6369W        W71530  26.510   6.147   2.903
 6370W        W71531  26.762   4.190   1.826
 6371W        W71532  28.161  11.805  12.839
 6372W        W71533  29.761  40.749   1.065
 6373W        W71534  18.077  14.158   0.043
 6374W        W71535   1.186  41.498  13.124
 6375W        W71536  39.796  29.499   3.350
 6376W        W71537  44.337   2.040  12.510
 6377W        W71538  22.125  12.751  12.062
 6378W        W71539  25.123  37.378  10.289
 6379W        W71540  25.956  37.323   1.772
 6380W        W71541  19.047  15.043  10.234
 6381W        W71542  38.154  28.903  10.765
 6382W        W71543  44.374   1.669   1.694
 6383W        W71544  25.621  37.531  13.093
 6384W        W71545  20.015   2.836   3.122
 6385W        W71546  27.713  33.571   2.096
 6386W        W71547  19.144  30.214  10.529
 6387W        W71548  25.607  11.585  11.627
 6388W        W71549  37.884  39.290   3.499
 6389W        W71550  42.825  26.754  12.088
 6390W        W71551   1.175  16.177  11.531
 6391W        W71552  31.074   5.881   1.202
 6392W        W71553  42.485  29.775   1.862
 6393W        W71554   7.586   7.034   4.031
 6394W        W71555  15.760  25.689  11.559
 6395W        W71556   1.351  10.287  11.495
 6396W        W71557   0.197  28.421  11.370
 6397W        W71558   5.932  25.114  10.629
 6398W        W71559  15.525  42.006   0.486
 6399W        W71560  11.059  12.121  14.898
 6400W        W71561  29.364  29.710   1.401
 6401W        W71562   3.175   2.280  10.866
 6402W        W71563  26.413  34.144  13.291
 6403W        W71564  42.639  20.541  11.212
 6404W        W71565  26.593   4.637   4.944
 6405W        W71566  42.070  30.176   2.893
 6406W        W71567  25.192   4.601  11.254
 6407W        W71568  25.925   8.690  14.145
 6408W        W71569  23.596  29.140   3.402
 6409W        W71570  31.571  22.737  13.935
 6410W        W71571  16.640  23.027   3.868
 6411W        W71572  42.134  38.348   4.193
 6412W        W71573  38.439  27.986   2.164
 6413W        W71574  42.861  24.654  12.847
 6414W        W71575  26.044   2.750  13.160
 6415W        W71576  25.014  36.672  12.681
 6416W        W71577   6.265  42.804   0.834
 6417W        W71578   3.283  17.531  14.102
 6418W        W71579  31.193  16.718  10.601
 6419W        W71580  14.700  25.164  14.242
 6420W        W71581  31.105   2.198   4.471
 6421W        W71582   6.214  37.158   2.253
 6422W        W71583  25.569  32.312   2.763
 6423W        W71584   1.798  17.079   2.681
 6424W        W71585   4.706  26.690  14.741
 6425W        W71586  29.959  31.638  12.058
 6426W        W71587  40.789  42.429   4.114
 6427W        W71588  19.749  26.182  14.023
 6428W        W71589   3.912   5.129   3.705
 6429W        W71590  11.232  25.508  13.412
 6430W        W71591   2.738  16.185  12.988
 6431W        W71592  37.375   4.798  10.679
 6432W        W71593  38.779  23.617   4.672
 6433W        W71594  17.232  44.025  14.440
 6434W        W71595  37.904  32.311   0.358
 6435W        W71596  39.716   0.105  14.918
 6436W        W71597  44.488  20.230  10.887
 6437W        W71598  19.155  35.454   0.044
 6438W        W71599  27.678  39.497   3.696
 6439W        W71600  26.545  38.359  13.622
 6440W        W71601  13.053   5.124  12.372
 6441W        W71602  28.380  26.284  10.767
 6442W        W71603  23.676  18.659  13.537
 6443W        W71604  24.061  19.803  14.951
 6444W        W71605  25.585  10.682  12.132
 6445W        W71606   7.829  26.070   1.693
 6446W        W71607  12.657  41.965  14.694
 6447W        W71608  23.567   1.236  12.059
 6448W        W71609  41.973  21.693  11.140
 6449W        W71610  23.488  41.313  12.845
 6450W        W71611   5.792  43.833  13.611
 6451W        W71612   2.627   5.121   5.058
 6452W        W71613  43.970   2.019  10.762
 6453W        W71614  23.505  16.679   4.752
 6454W        W71615  41.529   9.326   3.070
 6455W        W71616   1.488   2.408  13.539
 6456W        W71617  20.884  32.531   1.806
 6457W        W71618  25.566  26.946   4.184
 6458W        W71619  30.941  41.503   4.069
 6459W        W71620  38.359  44.176   3.369
 6460W        W71621  44.983  38.579  11.862
 6461W        W71622   3.845  23.033  12.098
 6462W        W71623  20.770   8.507   2.322
 6463W        W71624  30.570  39.924  12.165
 6464W        W71625  24.684  27.468   3.149
 6465W        W71626  40.371   6.682  10.333
 6466W        W71627  19.950  23.382  10.142
 6467W        W71628  15.919  18.094   1.311
 6468W        W71629   0.904   3.799   3.696
 6469W        W71630  15.149  33.901   0.175
 6470W        W71631  19.600  38.779   3.162
 6471W        W71632  14.512  25.515   0.776
 6472W        W71633  24.373   9.759  12.120
 6473W        W71634  42.434  24.090   4.147
 6474W        W71635  11.235  21.227   0.727
 6475W        W71636  43.937  39.809   1.433
 6476W        W71637  18.615  32.662  11.167
 6477W        W71638  11.566  19.523   3.579
 6478W        W71639  34.917  36.978  11.528
 6479W        W71640   5.760  12.669  14.897
 6480W        W71641  39.924   2.734   1.341
 6481W        W71642  25.502  16.768   1.672
 6482W        W71643  33.468  43.279  11.916
 6483W        W71644  34.950   2.384   0.028
 6484W        W71645  15.615  25.928  11.118
 6485W        W71646   0.314  36.728   0.708
 6486W        W71647  36.557  19.528   1.657
 6487W        W71648  11.679  34.939   1.931
 6488W        W71649  34.956  34.649   0.928
 6489W        W71650  26.656  41.486   3.066
 6490W        W71651   7.123  16.161   2.183
 6491W        W71652  31.370  43.730   3.643
 6492W        W71653  36.393   2.690  10.774
 6493W        W71654  15.832  42.409  13.461
 6494W        W71655  36.672  38.868   3.268
 6495W        W71656  42.792  12.635  10.745
 6496W        W71657  28.154  44.788  10.587
 6497W        W71658  15.268  23.055  13.620
 6498W        W71659  35.977   7.207   2.941
 6499W        W71660  27.023  39.966  11.623
 6500W        W71661  12.552   0.368   4.616
 6501W        W71662  34.918  28.289   0.916
 6502W        W71663  35.153  11.946   3.175
 6503W        W71664   3.425  39.321   0.885
 6504W        W71665  34.540  30.931   2.610
 6505W        W71666  29.624  32.307  14.926
 6506W        W71667  25.002  26.416  11.186
 6507W        W71668  29.398  33.035   2.835
 6508W        W71669  38.909  16.045  12.460
 6509W        W71670  29.868   6.855   4.560
 6510W        W71671   9.040  42.373  12.431
 6511W        W71672  15.683  19.215   0.821
 6512W        W71673  44.029  20.263   4.885
 6513W        W71674  32.143  34.715   5.118
 6514W        W71675   0.352  25.062   0.538
 6515W        W71676  41.926  32.449   2.144
 6516W        W71677  19.619  24.691   3.791
 6517W        W71678  29.726  29.088   2.307
 6518W        W71679  19.228  26.697  12.069
 6519W        W71680  12.881  24.465   4.597
 6520W        W71681  19.214  28.230   3.249
 6521W        W71682  11.817  20.598   4.485
 6522W        W71683   1.969  31.494   2.935
 6523W        W71684  23.960  43.913   4.480
 6524W        W71685  28.297   7.117   1.402
 6525W        W71686  44.934  43.632  13.493
 6526W        W71687  35.752  26.209   4.233
 6527W        W71688  37.318  13.917   2.312
 6528W        W71689  42.816  24.603  10.706
 6529W        W71690  25.080  33.620   3.071
 6530W        W71691  28.721  34.867   3.651
 6531W        W71692   4.772  30.348  11.601
 6532W        W71693  21.014   5.860  12.466
 6533W        W71694  41.351  35.380   0.409
 6534W        W71695  22.193  44.486  12.784
 6535W        W71696  26.825  43.883   3.175
 6536W        W71697  15.759  15.046   4.077
 6537W        W71698  29.210   3.720   4.760
 6538W        W71699  27.570  19.973   4.812
 6539W        W71700  21.162  27.017  13.783
 6540W        W71701  34.656  31.662   2.435
 6541W        W71702   4.109   5.223  14.323
 6542W        W71703  38.510  42.235  14.880
 6543W        W71704  12.139  15.105  12.486
 6544W        W71705   8.817  16.084  11.362
 6545W        W71706   6.326  13.342  11.630
 6546W        W71707  23.637   1.306  11.104
 6547W        W71708  28.613  16.402  11.136
 6548W        W71709  44.792  12.268  11.914
 6549W        W71710   7.871  10.148   0.685
 6550W        W71711  17.637  43.865   1.221
 6551W        W71712   2.483  35.944  10.284
 6552W        W71713  20.045  21.656  14.437
 6553W        W71714  11.304  27.142  11.063
 6554W        W71715  25.896  38.744   1.251
 6555W        W71716  31.050  35.976  14.255
 6556W        W71717  40.841  15.926  14.544
 6557W        W71718   5.044  26.720   1.534
 6558W        W71719  17.160   2.210   0.813
 6559W        W71720  18.769  22.542  14.103
 6560W        W71721  29.577  30.775   1.922
 6561W        W71722   7.275  35.129  12.539
 6562W        W71723  38.102  14.125   2.253
 6563W        W71724   3.137  41.792  11.118
 6564W        W71725  17.553   1.169  11.412
 6565W        W71726  24.129  24.117  13.096
 6566W        W71727   0.394   6.432  11.181
 6567W        W71728  41.871  28.510  14.933
 6568W        W71729  26.175   0.235   0.341
 6569W        W71730  20.604  44.792   4.627
 6570W        W71731  32.929  43.068   1.814
 6571W        W71732  41.119   1.536   0.474
 6572W        W71733  11.621  34.548  11.640
 6573W        W71734  28.568  26.265   4.091
 6574W        W71735   8.649  24.557  13.393
 6575W        W71736  32.907  12.596  14.358
 6576W        W71737   0.526  31.147  11.162
 6577W        W71738  37.748  37.161  12.053
 6578W        W71739   3.535   7.227   3.160
 6579W        W71740  15.146   3.897  13.035
 6580W        W71741  26.764  42.083  12.119
 6581W        W71742  10.193   4.849   4.111
 6582W        W71743  18.927   1.977  13.866
 6583W        W71744   6.120  41.483  10.650
 6584W        W71745   8.466  25.133   1.398
 6585W        W71746   4.881   8.767   4.695
 6586W        W71747  18.133  28.110  14.569
 6587W        W71748  36.762  22.216   0.431
 6588W        W71749   4.415   4.442  10.990
 6589W        W71750   1.054   1.862  10.643
 6590W        W71751  38.341   3.248   2.364
 6591W        W71752  21.357  24.027  12.941
 6592W        W71753  26.555  36.907   0.012
 6593W        W71754  31.937   0.794   3.286
 6594W        W71755  37.545   6.097  11.072
 6595W        W71756  30.180  15.026   2.264
 6596W        W71757   2.644  35.589  13.088
 6597W        W71758  26.604   7.369  11.618
 6598W        W71759  34.000   8.880   0.806
 6599W        W71760  37.822  26.198   0.863
 6600W        W71761  39.695  39.915   3.356
 6601W        W71762  15.124  36.295   3.854
 6602W        W71763  21.655  41.671  10.647
 6603W        W71764  28.656  37.359  10.274
 6604W        W71765  33.172   1.841   2.175
 6605W        W71766  38.954  25.302   0.696
 6606W        W71767  13.092  34.445   3.605
 6607W        W71768   0.290   0.874   3.132
 6608W        W71769  39.861   2.214  13.327
 6609W        W71770  44.454  29.670   2.883
 6610W        W71771  31.623  19.104   4.019
 6611W        W71772  39.737  16.370   4.085
 6612W        W71773  27.798  15.909  10.224
 6613W        W71774  36.558  37.998   3.683
 6614W        W71775  32.897  43.047   2.713
 6615W        W71776  43.581  40.575  13.429
 6616W        W71777  16.595  42.892   4.959
 6617W        W71778  28.408   8.296  13.599
 6618W        W71779  14.585   3.394   0.838
 6619W        W71780  13.354  10.239  12.915
 6620W        W71781  22.074  38.258  10.607
 6621W        W71782  31.407  14.053  12.324
 6622W        W71783   0.873   8.111   4.588
 6623W        W71784  11.581  21.721  14.570
 6624W        W71785  33.035  43.917   0.013
 6625W        W71786  22.458   1.363  11.999
 6626W        W71787  31.572  37.312  13.829
 6627W        W71788  28.652   4.269   4.106
 6628W        W71789  22.782  18.422   3.562
 6629W        W71790  20.366   8.238  10.776
 6630W        W71791  38.289  43.875  11.028
 6631W        W71792  24.404  24.216  11.179
 6632W        W71793  25.069  33.092   4.143
 6633W        W71794  44.502  44.021   0.464
 6634W        W71795  33.373  41.250   2.821
 6635W        W71796   9.856   0.837   3.429
 6636W        W71797  15.650  26.730  11.486
 6637W        W71798  10.206  36.612   0.495
 6638W        W71799  41.879   3.201   3.129
 6639W        W71800  10.200  31.713  13.445
 6640W        W71801  15.392  17.656   1.859
 6641W        W71802  14.083  30.044  14.422
 6642W        W71803  19.805  19.527  14.070
 6643W        W71804  29.054  41.250  14.946
 6644W        W71805  42.554  27.533  12.485
 6645W        W71806  25.133  36.295   0.862
 6646W        W71807   6.925   4.781   3.483
 6647W        W71808  38.481  43.770  14.836
 6648W        W71809   9.081  27.478   2.816
 6649W        W71810   7.780  17.501  10.776
 6650W        W71811   3.913   7.253  11.649
 6651W        W71812  43.751  25.716  11.656
 6652W        W71813  25.222  10.917  14.044
 6653W        W71814   2.491   5.920   2.826
 6654W        W71815  19.302   0.312   0.312
 6655W        W71816  20.589   6.857  10.776
 6656W        W71817  40.457   9.636  14.450
 6657W        W71818  20.581  34.377  13.361
 6658W        W71819   9.269  17.384  14.482
 6659W        W71820  41.940  21.528  12.534
 6660W        W71821  34.317   9.852  12.940
 6661W        W71822  28.888  28.193   1.761
 6662W        W71823  44.440  39.759   4.733
 6663W        W71824  16.800  39.840   3.561
 6664W        W71825   5.243  31.913  11.567
 6665W        W71826  26.220  22.742   3.693
 6666W        W71827  20.140   1.001  13.938
 6667W        W71828  14.422   3.752   2.143
 6668W        W71829  42.890  41.268  11.922
 6669W        W71830   1.195   4.381  12.601
 6670W        W71831  32.177  24.769  14.502
 6671W        W71832  38.408  28.431   2.410
 6672W        W71833   1.373  12.044   2.309
 6673W        W71834   0.417  31.163   1.631
 6674W        W71835  29.270  10.097   0.378
 6675W        W71836   3.914  10.049   3.658
 6676W        W71837  25.066  25.370  12.121
 6677W        W71838  26.506  36.334   4.195
 6678W        W71839  34.927  36.510   2.173
 6679W        W71840  40.904  35.669   0.381
 6680W        W71841  31.917  38.771   3.277
 6681W        W71842  22.997  40.268  12.371
 6682W        W71843  30.889  22.310  10.712
 6683W        W71844  24.226  30.427  11.237
 6684W        W71845   9.863  20.101   4.775
 6685W        W71846  43.599  26.169   4.710
 6686W        W71847   7.187  18.658   4.103
 6687W        W71848  29.804  18.881  12.053
 6688W        W71849  36.278   1.273   2.281
 6689W        W71850  22.976  12.135  11.161
 6690W        W71851   0.721  24.228  14.749
 6691W        W71852   1.464  35.806  12.859
 6692W        W71853   0.936  37.255  12.915
 6693W        W71854  16.837  10.656   3.275
 6694W        W71855  16.781   7.210   0.419
 6695W        W71856  29.430  18.536  13.316
 6696W        W71857   1.358  32.636  12.693
 6697W        W71858   2.164   1.458   0.821
 6698W        W71859  28.214  21.108   3.486
 6699W        W71860   0.392  18.083  12.290
 6700W        W71861  25.954   1.360   4.338
 6701W        W71862  35.023  43.886  11.012
 6702W        W71863  19.937   0.751  11.401
 6703W        W71864  10.906  37.913  11.105
 6704W        W71865  24.816  29.753  12.963
 6705W        W71866   4.929   1.559   4.101
 6706W        W71867  25.542   6.405  10.631
 6707W        W71868  40.558   6.167  12.532
 6708W        W71869  13.697  39.267  11.116
 6709W        W71870   7.826  20.448   3.439
 6710W        W71871  16.659  22.037  12.087
 6711W        W71872  37.943   7.425  13.397
 6712W        W71873   8.238   1.939   2.723
 6713W        W71874  18.876  14.633   9.963
 6714W        W71875  24.397  34.949  10.995
 6715W        W71876  30.762  17.593  13.009
 6716W        W71877  38.470  11.143  12.301
 6717W        W71878   0.082   1.552   4.967
 6718W        W71879  25.903  33.411   1.365
 6719W        W71880  23.990  10.093   0.853
 6720W        W71881  12.138  20.265   0.994
 6721W        W71882  28.913  17.080   1.282
 6722W        W71883  40.495  27.566  12.449
 6723W        W71884  27.714  39.486  14.306
 6724W        W71885   6.239  12.692  12.438
 6725W        W71886  39.099  43.501   2.128
 6726W        W71887  22.173  15.542  13.773
 6727W        W71888  18.436  23.225   4.532
 6728W        W71889  29.855  26.816  14.434
 6729W        W71890  18.337   3.221   2.122
 6730W        W71891  20.704  30.161   3.701
 6731W        W71892  40.721   7.064  10.299
 6732W        W71893  41.806  40.972  13.617
 6733W        W71894  34.844  24.999   1.149
 6734W        W71895  39.552  44.925   1.289
 6735W        W71896   4.217  37.084  11.139
 6736W        W71897  43.967  39.304   1.564
 6737W        W71898  31.056  22.608  14.011
 6738W        W71899  39.354  30.429  14.935
 6739W        W71900  29.775  28.087   2.512
 6740W        W71901  28.336  12.808  14.518
 6741W        W71902   9.807  34.343  11.013
 6742W        W71903  25.989   3.133  10.611
 6743W        W71904   3.311   9.362   3.028
 6744W        W71905  38.749   3.932   0.835
 6745W        W71906  41.061  23.425   3.251
 6746W        W71907   5.749  32.295  12.896
 6747W        W71908  19.181  33.863  12.885
 6748W        W71909   8.580  26.475   4.185
 6749W        W71910  21.093  29.508  11.126
 6750W        W71911   6.477   4.743  12.572
 6751W        W71912  36.557  39.938   4.785
 6752W        W71913   7.421  24.520  14.746
 6753W        W71914  41.687   3.611  12.701
 6754W        W71915   2.949  30.254   4.033
 6755W        W71916  42.304  24.102  12.272
 6756W        W71917   0.254  18.580  10.978
 6757W        W71918  18.787  34.498  11.726
 6758W        W71919   5.341  41.371   0.442
 6759W        W71920  38.515   0.667  12.559
 6760W        W71921  28.146  19.765  11.133
 6761W        W71922   1.213  37.570  14.036
 6762W        W71923   9.374   1.357   4.583
 6763W        W71924  33.681   1.940   2.277
 6764W        W71925  30.667   2.094   1.863
 6765W        W71926  18.248  15.233  10.820
 6766W        W71927  38.507   6.189   3.402
 6767W        W71928  15.124  25.174  10.725
 6768W        W71929   8.807  18.409  11.687
 6769W        W71930  42.823  19.775   2.652
 6770W        W71931  30.586  34.449  12.378
 6771W        W71932  39.978  30.652  14.279
 6772W        W71933  10.594  15.628   0.351
 6773W        W71934  40.423   5.388  10.271
 6774W        W71935  27.671   1.494  12.872
 6775W        W71936  19.581  33.102   1.368
 6776W        W71937   3.877   4.305  11.309
 6777W        W71938  22.926  35.909  13.059
 6778W        W71939  29.346  37.941  14.888
 6779W        W71940  10.539  34.582   3.819
 6780W        W71941  23.980  30.040   3.357
 6781W        W71942  29.278  29.601  13.815
 6782W        W71943  31.158   1.398   1.423
 6783W        W71944  32.914  26.981   3.698
 6784W        W71945  43.036  31.397   2.861
 6785W        W71946  25.195  11.598   0.890
 6786W        W71947  20.577  21.537  14.309
 6787W        W71948  35.100  35.021   1.270
 6788W        W71949  20.069  25.311   2.273
 6789W        W71950   5.872  27.255  12.484
 6790W        W71951  39.957   1.765  10.841
 6791W        W71952  27.202  43.661  14.798
 6792W        W71953   3.018   9.885  14.244
 6793W        W71954  33.430  22.481  12.040
 6794W        W71955  12.566   5.304   3.777
 6795W        W71956  17.801   8.319   2.279
 6796W        W71957  39.802  37.442  14.925
 6797W        W71958   8.339  29.087   4.033
 6798W        W71959  12.324   5.060   1.889
 6799W        W71960  24.689  26.004  13.438
 6800W        W71961  16.686  29.989   3.829
 6801W        W71962  17.836  28.050   0.988
 6802W        W71963  25.624  13.381   1.317
 6803W        W71964  36.016  35.354   4.722
 6804W        W71965  40.749  43.705   0.446
 6805W        W71966  18.963  36.972   1.430
 6806W        W71967   6.457  32.969   4.099
 6807W        W71968  26.545  29.457   2.517
 6808W        W71969  35.611  16.713   4.163
 6809W        W71970  13.227  38.756  14.998
 6810W        W71971   3.353  28.721  11.189
 6811W        W71972  40.011  31.088   3.967
 6812W        W71973  35.451  35.653  14.289
 6813W        W71974  29.202  35.336  11.556
 6814W        W71975  30.888  29.594   1.275
 6815W        W71976   9.891  31.330   3.559
 6816W        W71977  15.190   6.322   3.183
 6817W        W71978  11.342  44.108  13.969
 6818W        W71979  12.662  13.148  13.977
 6819W        W71980  36.854  19.621  12.908
 6820W        W71981  40.496  34.655  13.525
 6821W        W71982  22.525  39.830   4.037
 6822W        W71983  31.650  37.948  12.909
 6823W        W71984   1.500   5.006  14.392
 6824W        W71985   6.185  12.047  11.176
 6825W        W71986  40.051  28.854   1.090
 6826W        W71987  44.228  17.113  12.196
 6827W        W71988  26.553   5.356   1.892
 6828W        W71989  12.641   2.251  12.528
 6829W        W71990  41.418  21.096   3.856
 6830W        W71991   0.998  26.516   4.609
 6831W        W71992  14.542  34.384  13.597
 6832W        W71993   1.839   9.790   0.508
 6833W        W71994  11.605  39.465  10.354
 6834W        W71995   5.240   5.919  14.851
 6835W        W71996  13.339  32.920   4.527
 6836W        W71997  19.781   1.308   1.178
 6837W        W71998   8.620  32.046   3.599
 6838W        W71999   6.358  44.572   0.435
 6839W        W72000  37.385  30.013   0.381
 6840W        W72001  12.326   2.715  10.780
 6841W        W72002  37.992  26.191   2.600
 6842W        W72003  35.219   1.070  12.888
 6843W        W72004   2.487  44.562  12.776
 6844W        W72005  22.639  32.461   0.391
 6845W        W72006  19.228  41.982  14.812
 6846W        W72007  17.957  23.465  11.114
 6847W        W72008  43.487   1.909  14.965
 6848W        W72009  24.281  27.875  11.914
 6849W        W72010   7.384  42.979  10.755
 6850W        W72011  43.239  24.732  14.429
 6851W        W72012  27.624   3.153   3.717
 6852W        W72013   2.669   9.416  11.509
 6853W        W72014  36.960  30.541  12.509
 6854W        W72015   3.891   6.833  12.394
 6855W        W72016  34.592  27.160   1.528
 6856W        W72017  39.945   3.308  12.012
 6857W        W72018   3.412  27.515   2.166
 6858W        W72019  17.564  32.032   1.716
 6859W        W72020  19.956  13.861   2.937
 6860W        W72021  35.833   8.172  11.143
 6861W        W72022  24.727  12.750  10.795
 6862W        W72023  44.950  15.720  14.281
 6863W        W72024   5.033  41.824   3.544
 6864W        W72025   8.749  33.647  14.432
 6865W        W72026  40.082  35.082  13.839
 6866W        W72027   7.861  30.176  10.694
 6867W        W72028  29.910   6.336  13.861
 6868W        W72029  44.075  10.681   1.442
 6869W        W72030   5.067  44.551  12.492
 6870W        W72031  33.248  17.078   0.718
 6871W        W72032  23.865  14.857   0.838
 6872W        W72033  39.261   0.812  11.126
 6873W        W72034  17.283  16.663   1.852
 6874W        W72035  35.057   5.767   3.215
 6875W        W72036  37.628  20.955   2.910
 6876W        W72037   4.169   1.904  14.695
 6877W        W72038  22.227  42.534  13.328
 6878W        W72039  36.949  24.267  14.533
 6879W        W72040  28.944   4.439   1.406
 6880W        W72041  19.459  29.690   3.227
 6881W        W72042   8.072  24.754  12.468
 6882W        W72043  44.283   1.292  13.762
 6883W        W72044  37.067  34.608   0.319
 6884W        W72045   2.236  30.057  11.893
 6885W        W72046  10.390  11.623  13.899
 6886W        W72047  44.862  15.687   0.310
 6887W        W72048  31.603  33.400   2.232
 6888W        W72049  26.015   0.079  11.438
 6889W        W72050  25.960  40.971   3.452
 6890W        W72051  35.443  42.299  14.032
 6891W        W72052   0.850  42.838  13.619
 6892W        W72053   0.264  20.779   1.762
 6893W        W72054  23.401  18.244   3.406
 6894W        W72055  38.035  30.725   3.631
 6895W        W72056  28.416  44.924   0.296
 6896W        W72057  15.789  13.360  10.706
 6897W        W72058  40.051  34.494  10.675
 6898W        W72059  17.064  32.058   1.861
 6899W        W72060  42.154  15.749  14.491
 6900W        W72061  13.265   4.478  14.977
 6901W        W72062  10.639  14.071   2.290
 6902W        W72063  33.819  24.114  12.982
 6903W        W72064  43.624  23.914  12.053
 6904W        W72065  23.163   1.552   4.343
 6905W        W72066  33.839  15.629   4.582
 6906W        W72067  19.011   2.422  13.510
 6907W        W72068   1.957  29.633  12.082
 6908W        W72069  38.783  31.818  14.599
 6909W        W72070  16.119   7.633   0.891
 6910W        W72071  17.252  30.430   5.110
 6911W        W72072   7.220  20.819  12.034
 6912W        W72073   9.273   6.931   4.752
 6913W        W72074  24.136  14.851   1.839
 6914W        W72075   0.470  35.639  14.325
 6915W        W72076  40.484  30.118  12.461
 6916W        W72077   8.439  29.522  14.836
 6917W        W72078  41.884   4.244  12.085
 6918W        W72079  41.558   8.901  11.632
 6919W        W72080  18.145  27.104  11.508
 6920W        W72081   4.214  28.389  11.162
 6921W        W72082  41.856  24.243  12.999
 6922W        W72083   8.455   7.848   3.739
 6923W        W72084  24.469  29.210  13.800
 6924W        W72085  34.833  12.337   1.382
 6925W        W72086  23.333  36.906  11.250
 6926W        W72087  17.131  22.040  10.828
 6927W        W72088  24.359  19.192  10.153
 6928W        W72089   7.407  15.808  14.348
 6929W        W72090  30.994  12.702   2.420
 6930W        W72091  16.234  42.873   4.061
 6931W        W72092  24.106  19.788  13.975
 6932W        W72093  28.991   3.175   2.770
 6933W        W72094  10.361  43.786  13.415
 6934W        W72095  25.486  29.867  12.415
 6935W        W72096  43.303  10.606  10.218
 6936W        W72097   3.316  42.803  11.178
 6937W        W72098  21.191  34.554   1.763
 6938W        W72099   4.250   8.298   2.157
 6939W        W72100  39.106  32.461   1.871
 6940W        W72101  23.640   1.533   1.827
 6941W        W72102  38.460   5.419   0.822
 6942W        W72103   7.340  31.327   0.427
 6943W        W72104   7.843  16.689  14.577
 6944W        W72105  11.940  44.006  14.998
 6945W        W72106   9.439  15.887  14.584
 6946W        W72107   2.279  44.066   0.712
 6947W        W72108  19.351  26.758   1.839
 6948W        W72109   4.707  36.023   2.236
 6949W        W72110   2.421  17.865   4.926
 6950W        W72111  35.107   2.959  14.324
 6951W        W72112   0.328  44.434   3.769
 6952W        W72113  29.172   0.372   0.310
 6953W        W72114  36.867   4.518   2.276
 6954W        W72115  37.926  16.796   2.420
 6955W        W72116  21.178   9.544   1.127
 6956W        W72117  15.884   6.878   2.958
 6957W        W72118  15.582  41.010  12.610
 6958W        W72119   2.679  42.919   4.752
 6959W        W72120   5.888  37.390  13.574
 6960W        W72121  23.542  11.290  10.193
 6961W        W72122  38.347   2.582  14.520
 6962W        W72123  22.467  16.562  13.419
 6963W        W72124  37.573  13.231  13.331
 6964W        W72125  10.763   8.887   3.789
 6965W        W72126   0.022  40.723  12.307
 6966W        W72127  17.583  31.120   1.311
 6967W        W72128   5.756  13.422  11.281
 6968W        W72129  40.281  14.642   3.870
 6969W        W72130  20.214  37.451  13.261
 6970W        W72131  17.283   7.708  12.017
 6971W        W72132  43.364  22.732   3.642
 6972W        W72133   0.972   6.615  14.680
 6973W        W72134  42.978   1.767   4.639
 6974W        W72135  13.416  42.456   2.147
 6975W        W72136  37.555  21.131  11.158
 6976W        W72137  13.566   4.940  12.012
 6977W        W72138   9.300  19.537   4.673
 6978W        W72139  12.388   5.405   2.377
 6979W        W72140  43.483  14.319   0.569
 6980W        W72141   4.263  10.335  13.288
 6981W        W72142  26.178  31.747  14.376
 6982W        W72143  12.254  25.683   3.676
 6983W        W72144   6.473  43.037   1.352
 6984W        W72145   7.317  44.479   2.443
 6985W        W72146  12.551  34.886  12.501
 6986W        W72147   2.791  28.078   3.818
 6987W        W72148   5.264  27.866   5.133
 6988W        W72149  42.032  24.796  11.618
 6989W        W72150   3.241  26.725  12.008
 6990W        W72151  38.666   3.363  11.614
 6991W        W72152   6.758  17.014   4.109
 6992W        W72153  17.846   7.688   1.571
 6993W        W72154  23.856  43.423  11.676
 6994W        W72155  35.994  42.955   3.476
 6995W        W72156  10.473   4.745  13.505
 6996W        W72157  44.409  43.083   2.393
 6997W        W72158  21.592  23.983   1.229
 6998W        W72159  24.330  12.559  13.970
 6999W        W72160   3.840  13.955   4.537
 7000W        W72161  12.889   2.691  12.418
 7001W        W72162  31.017  17.080   1.832
 7002W        W72163   1.821  43.885  11.565
 7003W        W72164  38.589   2.879  11.433
 7004W        W72165  34.364  21.985  13.444
 7005W        W72166   8.758  10.247  12.329
 7006W        W72167  20.582  41.921   4.877
 7007W        W72168   6.097   6.957   2.364
 7008W        W72169  41.962   9.211   0.554
 7009W        W72170  31.647   7.840  14.044
 7010W        W72171  14.419  31.351   3.973
 7011W        W72172  33.223  11.890  11.317
 7012W        W72173  21.163   4.425   4.271
 7013W        W72174  31.540   2.412   2.919
 7014W        W72175   8.602  40.003   0.257
 7015W        W72176  17.662  36.607   3.335
 7016W        W72177  19.831  17.769  13.601
 7017W        W72178   9.290   8.752   1.977
 7018W        W72179   6.235   3.842  12.160
 7019W        W72180  44.845  34.615  13.896
 7020W        W72181  21.472  34.023   2.498
 7021W        W72182   7.725   7.841  12.559
 7022W        W72183  19.720   2.778   2.249
 7023W        W72184  30.948  39.672   2.257
 7024W        W72185  12.814  39.620  10.272
 7025W        W72186   2.789   5.631   5.051
 7026W        W72187   4.305  43.014   0.870
 7027W        W72188  13.271  38.581  10.726
 7028W        W72189  25.524  30.869  12.505
 7029W        W72190  19.530   3.282   1.710
 7030W        W72191   1.363  21.792   4.149
 7031W        W72192   3.159  27.486   0.852
 7032W        W72193  44.459   6.115  14.044
 7033W        W72194  42.953  35.987  12.222
 7034W        W72195  13.425   9.844   0.850
 7035W        W72196  30.106  39.309  11.918
 7036W        W72197  22.314  39.969   3.595
 7037W        W72198  33.962  23.803  13.414
 7038W        W72199   0.730  14.360   3.202
 7039W        W72200  19.792  25.715   4.004
 7040W        W72201  38.536  22.269  12.502
 7041W        W72202  41.396  31.708   1.190
 7042W        W72203  33.160  29.666  12.164
 7043W        W72204  35.899  38.601   1.124
 7044W        W72205  30.338  15.611   4.217
 7045W        W72206  32.018  30.311  14.632
 7046W        W72207  37.055  21.668  11.943
 7047W        W72208  26.535   1.268   2.609
 7048W        W72209  12.632  18.238  12.552
 7049W        W72210  30.081  24.222  12.123
 7050W        W72211  30.722  41.476   3.605
 7051W        W72212  26.343   4.117   0.901
 7052W        W72213  33.996   9.828   2.475
 7053W        W72214  25.430  33.457   3.898
 7054W        W72215   2.144  44.010   4.211
 7055W        W72216  42.466   8.267   3.249
 7056W        W72217  42.472  19.713  10.725
 7057W        W72218  28.707  11.826   3.132
 7058W        W72219  31.645  23.948   1.940
 7059W        W72220   1.977  34.341   3.660
 7060W        W72221  13.092  12.256   0.673
 7061W        W72222   4.331  13.646   0.190
 7062W        W72223  42.117  26.786   4.126
 7063W        W72224  24.664  26.122  11.492
 7064W        W72225  44.543  36.330   3.182
 7065W        W72226  35.684   9.686  13.884
 7066W        W72227  29.531   9.064   5.016
 7067W        W72228   0.212   5.296  13.509
 7068W        W72229  23.079  24.536   1.894
 7069W        W72230   8.499   8.376   3.731
 7070W        W72231  39.493  32.966  14.265
 7071W        W72232  28.006  28.587  14.490
 7072W        W72233  28.066   5.923  12.172
 7073W        W72234   8.826   3.718   3.705
 7074W        W72235  31.423   3.715  11.485
 7075W        W72236  18.313  40.487  14.551
 7076W        W72237  41.949  11.142  12.531
 7077W        W72238  36.324  40.227   1.006
 7078W        W72239  40.556   5.372   2.298
 7079W        W72240  16.172  42.129  11.140
 7080W        W72241   7.630   6.304   1.732
 7081W        W72242  21.989   3.235   0.399
 7082W        W72243  21.548  39.398  11.933
 7083W        W72244  28.048   4.133   2.310
 7084W        W72245  10.129   3.772   1.888
 7085W        W72246  20.266  26.916  10.715
 7086W        W72247  13.788  11.943   0.753
 7087W        W72248  33.367  32.969   1.270
 7088W        W72249  10.677  26.903   2.755
 7089W        W72250  43.192  38.561   4.273
 7090W        W72251  13.890  24.614  13.832
 7091W        W72252  28.549   8.636  10.737
 7092W        W72253  18.280  15.267  13.422
 7093W        W72254  25.075  21.535   5.615
 7094W        W72255   7.381  30.937  13.455
 7095W        W72256  13.129  43.142  12.888
 7096W        W72257  29.089  34.351   0.018
 7097W        W72258  22.983  12.415  12.577
 7098W        W72259  11.644   0.328  14.492
 7099W        W72260  16.438  27.143   4.187
 7100W        W72261   0.003   3.187   0.440
 7101W        W72262  16.585  38.311  14.803
 7102W        W72263  33.346  29.120  13.155
 7103W        W72264   9.918  39.975  11.217
 7104W        W72265  31.954  13.668   2.328
 7105W        W72266  29.011  22.156  11.595
 7106W        W72267  13.330  14.828   4.491
 7107W        W72268  36.065  22.065   4.293
 7108W        W72269   9.875  42.070  14.104
 7109W        W72270  22.447   3.207  12.451
 7110W        W72271  40.063  24.674  13.489
 7111W        W72272  23.636  18.334   2.394
 7112W        W72273  37.953   0.332  14.194
 7113W        W72274  21.762  25.666  12.014
 7114W        W72275  37.275  17.592   2.210
 7115W        W72276  13.626   6.318  12.575
 7116W        W72277  37.494  28.150  12.815
 7117W        W72278   5.200  24.105   3.273
 7118W        W72279   7.926  41.250   4.994
 7119W        W72280  43.802   4.824  13.959
 7120W        W72281  10.826  36.593  10.615
 7121W        W72282  33.101   9.145  10.813
 7122W        W72283   8.320  23.602   1.278
 7123W        W72284  34.829  26.198   0.742
 7124W        W72285  11.875  30.260   2.275
 7125W        W72286   2.206   7.620   1.818
 7126W        W72287   8.704  41.044  14.790
 7127W        W72288  22.009  12.589   2.367
 7128W        W72289  19.031  16.163  10.829
 7129W        W72290  17.856   4.855  12.969
 7130W        W72291  33.525  19.019  12.500
 7131W        W72292  44.005   7.904  12.533
 7132W        W72293  13.911  35.756  14.087
 7133W        W72294  16.616   3.154   1.805
 7134W        W72295  18.875  41.476  11.742
 7135W        W72296   7.675  20.920   3.217
 7136W        W72297   1.999  13.646  10.953
 7137W        W72298  12.402  18.218   2.743
 7138W        W72299   2.887  43.016   0.038
 7139W        W72300  13.866   4.765  10.601
 7140W        W72301  11.596   9.753   0.358
 7141W        W72302  41.411  19.238   0.586
 7142W        W72303  24.738  40.333  14.255
 7143W        W72304   2.907  15.201   1.900
 7144W        W72305  36.790  28.272   2.861
 7145W        W72306   9.415  42.443  12.836
 7146W        W72307   2.111  11.741  11.548
 7147W        W72308  14.065  32.467   1.694
 7148W        W72309  25.635  41.063   0.185
 7149W        W72310  10.724  24.464  12.113
 7150W        W72311  19.158  39.397   3.142
 7151W        W72312   6.767   4.344  11.735
 7152W        W72313  16.038  26.130  10.920
 7153W        W72314  32.035  35.104  11.593
 7154W        W72315  12.047  14.103  11.998
 7155W        W72316   5.273  36.884   3.725
 7156W        W72317  34.123   7.213  14.953
 7157W        W72318  30.650  35.001  14.412
 7158W        W72319  26.196  22.205  11.196
 7159W        W72320  27.760  33.963  13.819
 7160W        W72321  23.003  12.707  11.481
 7161W        W72322  17.742  29.084  13.294
 7162W        W72323  39.407  32.477  14.490
 7163W        W72324  20.514  28.702   2.830
 7164W        W72325  20.164  11.700  11.855
 7165W        W72326  25.273   6.489  14.082
 7166W        W72327   3.308  37.789   3.184
 7167W        W72328  24.538  23.195   5.138
 7168W        W72329   1.191   2.048   2.542
 7169W        W72330  18.006   8.887   0.827
 7170W        W72331  17.033  35.563   2.806
 7171W        W72332  26.478  34.057   3.654
 7172W        W72333   0.887   7.382  13.499
 7173W        W72334  23.750  41.954  13.566
 7174W        W72335  22.734  33.738   4.538
 7175W        W72336  12.119  30.934  11.191
 7176W        W72337  10.748  13.592  10.654
 7177W        W72338   6.403  29.507   2.678
 7178W        W72339  26.204  18.878  10.848
 7179W        W72340   0.620   3.366   3.834
 7180W        W72341  29.476   5.171   4.482
 7181W        W72342  34.962  25.527   0.991
 7182W        W72343  12.171   7.229  10.675
 7183W        W72344   8.166  19.121   1.281
 7184W        W72345  13.591  19.292   2.895
 7185W        W72346   0.854   3.921   0.802
 7186W        W72347  38.095  26.570  10.765
 7187W        W72348  12.722  16.749   4.281
 7188W        W72349  20.101  41.479   0.341
 7189W        W72350  27.397  44.814   2.242
 7190W        W72351  38.294  11.993   4.095
 7191W        W72352   0.982  20.861  14.252
 7192W        W72353  18.096  25.658   3.415
 7193W        W72354   5.916  39.865   3.220
 7194W        W72355  28.423  43.600  10.965
 7195W        W72356   5.461  27.260   4.326
 7196W        W72357  29.557   4.444  12.888
 7197W        W72358  27.110  38.286   0.348
 7198W        W72359   1.031   2.426  13.745
 7199W        W72360  26.239  13.695   2.564
 7200W        W72361  39.803   5.370  11.638
 7201W        W72362  20.016   1.430  13.427
 7202W        W72363   0.447  22.289   4.551
 7203W        W72364   8.849   8.438  13.444
 7204W        W72365   7.316   4.529   4.723
 7205W        W72366  32.534   7.009  11.537
 7206W        W72367  17.232   9.743  14.610
 7207W        W72368  18.773  39.646   5.268
 7208W        W72369  21.293  34.321  10.767
 7209W        W72370  19.527   6.588   2.287
 7210W        W72371   2.431  43.848  10.754
 7211W        W72372   3.300  40.802  13.922
 7212W        W72373  26.500  30.896  14.497
 7213W        W72374   1.341  13.837   0.788
 7214W        W72375  42.974  42.653   5.008
 7215W        W72376  15.293  15.716   0.514
 7216W        W72377   3.355   8.789   0.673
 7217W        W72378  28.028  12.559  13.800
 7218W        W72379  25.673  13.644  14.418
 7219W        W72380   5.672  18.648  12.465
 7220W        W72381   2.763  31.047   2.799
 7221W        W72382  21.310  25.909  10.158
 7222W        W72383   8.747  41.563   2.103
 7223W        W72384  22.101  30.612   2.843
 7224W        W72385   2.768  28.676   4.139
 7225W        W72386   7.221  26.941  11.712
 7226W        W72387   8.012  35.799  13.439
 7227W        W72388   2.334  32.522   2.617
 7228W        W72389   5.945   3.498  11.907
 7229W        W72390  20.089  33.912   0.924
 7230W        W72391  39.946  11.307  14.986
 7231W        W72392   1.875  13.103   3.589
 7232W        W72393  15.145   0.265   2.630
 7233W        W72394  21.241  18.564   2.340
 7234W        W72395  11.711  18.955   4.355
 7235W        W72396   9.361  43.459  12.943
 7236W        W72397  10.572  11.698   4.107
 7237W        W72398   9.216  26.266   0.674
 7238W        W72399  12.162  34.420   2.708
 7239W        W72400   3.495  25.035   2.339
 7240W        W72401  43.786  26.474   3.235
 7241W        W72402  24.322   0.414   3.317
 7242W        W72403  38.751  16.244   4.837
 7243W        W72404  39.269  30.852   2.784
 7244W        W72405  41.776  30.556  10.717
 7245W        W72406  31.999  12.554  14.767
 7246W        W72407   1.978  28.039  10.700
 7247W        W72408  11.613  19.508   4.467
 7248W        W72409  29.786  14.664  11.169
 7249W        W72410  25.612  12.401  14.915
 7250W        W72411  23.059  41.424   1.707
 7251W        W72412  21.139  43.721   3.730
 7252W        W72413  12.264  16.655   0.248
 7253W        W72414   3.392   7.131  11.709
 7254W        W72415  10.356  17.655  13.781
 7255W        W72416  31.218  34.683  14.021
 7256W        W72417   6.785  26.748  10.963
 7257W        W72418  35.210  17.106   3.286
 7258W        W72419  30.943  24.450  14.183
 7259W        W72420  44.300  32.075   4.999
 7260W        W72421  38.529  26.617  11.468
 7261W        W72422  16.912  41.142   5.323
 7262W        W72423   1.867  17.478   1.852
 7263W        W72424   6.377  18.859  13.479
 7264W        W72425  41.951  30.617  13.590
 7265W        W72426   0.218  28.598  14.613
 7266W        W72427  18.600  39.327   4.547
 7267W        W72428  22.163  26.470   9.788
 7268W        W72429  40.361  40.014  11.328
 7269W        W72430  17.748   1.421   3.666
 7270W        W72431  34.043  13.580   1.413
 7271W        W72432  23.664  11.474   0.765
 7272W        W72433  19.115  41.598   4.629
 7273W        W72434   7.189  35.453  13.416
 7274W        W72435   5.068  42.194  12.304
 7275W        W72436  10.572  26.707  13.695
 7276W        W72437  36.792   0.460  11.030
 7277W        W72438  37.869  30.611   1.779
 7278W        W72439  18.666   6.053   2.333
 7279W        W72440  24.503  21.560  11.793
 7280W        W72441  34.051  34.832  14.529
 7281W        W72442  43.770  25.476  14.735
 7282W        W72443   7.156  32.346   1.283
 7283W        W72444  35.654  10.743   4.952
 7284W        W72445  42.146  19.021  11.209
 7285W        W72446  27.537  31.418   1.991
 7286W        W72447  14.384  32.042   1.749
 7287W        W72448  26.922  19.098  12.909
 7288W        W72449  43.725   6.496   4.210
 7289W        W72450   6.177  10.103  12.401
 7290W        W72451  36.897  17.569  12.047
 7291W        W72452  20.184  36.490  14.249
 7292W        W72453  30.339   9.900   2.184
 7293W        W72454  22.541   2.931  12.001
 7294W        W72455  43.721  41.169   5.211
 7295W        W72456   2.007  17.220   4.324
 7296W        W72457   7.824  14.499  14.934
 7297W        W72458  14.799  11.402   3.729
 7298W        W72459   1.580  40.911   1.873
 7299W        W72460  42.967  39.248  14.039
 7300W        W72461  29.891   1.202  13.146
 7301W        W72462  42.013  16.878  14.973
 7302W        W72463  14.345   6.759  13.788
 7303W        W72464  11.614  18.062  13.360
 7304W        W72465  33.780  37.129   2.733
 7305W        W72466  33.136  30.912  14.023
 7306W        W72467   6.869  16.046   4.529
 7307W        W72468   5.368  43.308  14.854
 7308W        W72469  38.275   9.182  11.650
 7309W        W72470  33.283  39.501  13.564
 7310W        W72471  37.562   9.086   2.700
 7311W        W72472  26.187   3.528   0.355
 7312W        W72473  31.727   9.876   0.459
 7313W        W72474  43.057  29.465   2.208
 7314W        W72475  40.444  43.012  14.737
 7315W        W72476   4.740  13.653  12.956
 7316W        W72477   2.949   0.815  12.992
 7317W        W72478  23.976  34.523  11.584
 7318W        W72479  28.246  16.582   0.659
 7319W        W72480  39.840  28.658   2.379
 7320W        W72481  13.326  26.379   0.885
 7321W        W72482  32.000  23.582   3.538
 7322W        W72483  16.678  23.156  13.395
 7323W        W72484   7.443  42.541  10.484
 7324W        W72485  22.683  41.629  10.654
 7325W        W72486  22.330  21.204  11.895
 7326W        W72487  23.080   4.692   0.242
 7327W        W72488  22.515  20.630   2.638
 7328W        W72489  35.941  24.011  11.077
 7329W        W72490  15.533  30.486   2.479
 7330W        W72491  27.499  31.386   1.025
 7331W        W72492  29.939  27.457   2.705
 7332W        W72493  40.863  20.811   0.063
 7333W        W72494  36.963  11.100   0.823
 7334W        W72495  36.252  21.003  12.182
 7335W        W72496   9.285   4.481  14.957
 7336W        W72497  34.541   4.879  14.864
 7337W        W72498   7.974  23.895  13.508
 7338W        W72499  16.404  44.960  13.441
 7339W        W72500   2.290   4.179   3.469
 7340W        W72501  41.799  36.905   2.163
 7341W        W72502  37.635  15.734  11.983
 7342W        W72503  10.828   1.664   3.319
 7343W        W72504   6.814  29.470   3.289
 7344W        W72505   7.726  13.214  11.934
 7345W        W72506  39.550  43.497  12.448
 7346W        W72507  40.116  19.552  10.721
 7347W        W72508  26.840  23.702  13.524
 7348W        W72509   6.721  19.341  14.258
 7349W        W72510   3.094  44.589   1.140
 7350W        W72511  16.285  20.770  13.371
 7351W        W72512  22.352  37.070  11.229
 7352W        W72513  38.813   1.680   0.449
 7353W        W72514  19.757  19.167  11.037
 7354W        W72515  39.870   7.125   3.697
 7355W        W72516  43.429  20.114   3.148
 7356W        W72517  22.353   9.725  10.490
 7357W        W72518  41.070   5.321  12.024
 7358W        W72519  27.498  25.909  14.815
 7359W        W72520  41.509  44.851   3.587
 7360W        W72521  43.333  23.654  13.561
 7361W        W72522  25.535  23.488  11.397
 7362W        W72523  27.429  16.047  12.170
 7363W        W72524  36.494  35.860   4.383
 7364W        W72525  31.982   5.924   4.331
 7365W        W72526  11.392  29.048  14.382
 7366W        W72527  41.205  27.392  11.945
 7367W        W72528  19.599  34.099  12.025
 7368W        W72529  34.321  31.600   3.314
 7369W        W72530  18.300   2.493   1.392
 7370W        W72531  34.599  19.928   1.024
 7371W        W72532  10.656  35.946  10.459
 7372W        W72533   2.159  17.927   0.694
 7373W        W72534  21.999  16.702   3.759
 7374W        W72535  27.116   2.799  13.031
 7375W        W72536   4.356  14.327  12.049
 7376W        W72537  24.562  39.846  12.963
 7377W        W72538  37.123   5.691  11.863
 7378W        W72539  29.485   9.845   0.890
 7379W        W72540   0.934  25.465  13.903
 7380W        W72541  34.595  11.114   3.122
 7381W        W72542   7.260   9.315  13.047
 7382W        W72543   9.913  20.460  13.121
 7383W        W72544  18.306   1.146   1.372
 7384W        W72545  28.223  37.396   3.911
 7385W        W72546  18.150  21.639  14.937
 7386W        W72547   9.700  40.007   1.716
 7387W        W72548  42.565  20.014  11.988
 7388W        W72549  36.648   9.713  12.504
 7389W        W72550  23.598   2.437  10.659
 7390W        W72551  38.366   0.610  13.906
 7391W        W72552  13.007  40.206   4.127
 7392W        W72553  33.417   4.156  11.655
 7393W        W72554  27.711   0.981  12.832
 7394W        W72555  36.828  21.733   0.056
 7395W        W72556  32.366   2.752   3.111
 7396W        W72557  16.020  37.815   0.859
 7397W        W72558  14.335  34.353  11.973
 7398W        W72559  13.940  43.206  11.461
 7399W        W72560  21.590  36.767   0.358
 7400W        W72561  16.855  13.737  10.458
 7401W        W72562  40.010  15.156   1.272
 7402W        W72563  29.060   4.777  12.281
 7403W        W72564  22.613  27.427   0.396
 7404W        W72565   7.376  29.111  13.957
 7405W        W72566   0.509  31.921   4.973
 7406W        W72567  41.535  29.967  14.986
 7407W        W72568  29.888   8.738  11.757
 7408W        W72569  30.465   7.204   1.810
 7409W        W72570  15.176  13.362   3.451
 7410W        W72571  30.656   6.312  11.470
 7411W        W72572  11.708   1.238  12.587
 7412W        W72573  27.057   4.466   4.688
 7413W        W72574  29.502  39.769  14.345
 7414W        W72575  38.838  13.148  12.516
 7415W        W72576  25.092   1.540  12.058
 7416W        W72577  27.188   4.012   3.772
 7417W        W72578  22.528  17.967  11.878
 7418W        W72579   5.182  34.503   0.059
 7419W        W72580  37.096  18.051   2.123
 7420W        W72581  38.494  42.860  13.365
 7421W        W72582   6.727  23.905   1.867
 7422W        W72583   9.338  29.372   1.736
 7423W        W72584  19.230  16.569  14.522
 7424W        W72585   0.922  15.870  11.193
 7425W        W72586  33.954  44.288   2.886
 7426W        W72587  39.189  37.822   4.461
 7427W        W72588  38.110  17.678  10.741
 7428W        W72589  18.023  22.197  14.113
 7429W        W72590   6.106  41.657  11.707
 7430W        W72591  44.606   4.886   1.313
 7431W        W72592  17.276  33.054  13.934
 7432W        W72593  10.047   7.694   1.647
 7433W        W72594  25.324  21.308   3.127
 7434W        W72595  19.127   6.086  13.547
 7435W        W72596   8.809   4.461   4.116
 7436W        W72597  35.315  25.951  11.086
 7437W        W72598  11.108   3.860  14.712
 7438W        W72599  35.992  28.718   3.306
 7439W        W72600  28.482   4.684   2.682
 7440W        W72601  27.013  20.308  10.771
 7441W        W72602  24.602  21.537  12.299
 7442W        W72603  16.321   2.384   4.085
 7443W        W72604  20.932  10.306  13.033
 7444W        W72605  17.663  11.702   0.677
 7445W        W72606  28.770  44.913  14.297
 7446W        W72607  30.151  14.784   4.534
 7447W        W72608   9.406   4.162  13.949
 7448W        W72609  36.278  28.586   1.649
 7449W        W72610  22.528  20.788   3.147
 7450W        W72611  31.882  40.213   3.792
 7451W        W72612  38.883  21.271   3.122
 7452W        W72613  42.881  37.023  12.960
 7453W        W72614  33.636  32.560  14.803
 7454W        W72615  11.829   1.989   0.730
 7455W        W72616   6.307  16.277  13.777
 7456W        W72617   3.087  37.472   1.774
 7457W        W72618   6.383   1.498  12.934
 7458W        W72619  19.999  31.486   3.264
 7459W        W72620  18.190   0.306   4.642
 7460W        W72621  39.514  12.638  13.784
 7461W        W72622  13.489  44.502  12.745
 7462W        W72623  41.312  35.876  12.890
 7463W        W72624  35.799  18.130   3.738
 7464W        W72625   5.140   8.344  11.016
 7465W        W72626  29.589  21.987  13.350
 7466W        W72627  44.850  37.099   2.335
 7467W        W72628  37.580   7.697  13.885
 7468W        W72629  16.127  24.931   4.590
 7469W        W72630   2.875  37.817  14.919
 7470W        W72631  14.765   7.091   5.085
 7471W        W72632   1.738  42.573  11.202
 7472W        W72633  26.225  16.119   2.824
 7473W        W72634  20.335   0.977   3.250
 7474W        W72635  22.614  18.188  14.287
 7475W        W72636  25.944  30.520   1.662
 7476W        W72637  11.726  35.349   4.492
 7477W        W72638  20.507  25.076   4.112
 7478W        W72639  10.147  35.914   2.777
 7479W        W72640  12.794  18.345  13.934
 7480W        W72641   3.797  35.626  12.503
 7481W        W72642  25.921  13.139   4.557
 7482W        W72643  35.384  11.596   1.936
 7483W        W72644  13.730  42.045  14.561
 7484W        W72645  39.614   5.741  10.742
 7485W        W72646  35.513  37.125  13.473
 7486W        W72647  12.349  27.146  11.431
 7487W        W72648  10.895  40.047  11.119
 7488W        W72649  35.209  29.821   0.733
 7489W        W72650  22.557  17.105   0.041
 7490W        W72651  12.572  15.377  14.956
 7491W        W72652  25.544  24.078  12.130
 7492W        W72653  16.619  10.254  13.071
 7493W        W72654  26.609  37.392  14.838
 7494W        W72655   0.602   6.060   1.824
 7495W        W72656  21.320  23.680   4.050
 7496W        W72657  29.082  11.245  10.680
 7497W        W72658  11.266  26.106   0.721
 7498W        W72659  26.446  11.750  13.229
 7499W        W72660  11.060   3.502   1.510
 7500W        W72661  38.730  27.804  12.054
 7501W        W72662   2.345  27.077  14.850
 7502W        W72663   4.779  19.698  14.313
 7503W        W72664   1.420  17.880  14.893
 7504W        W72665  33.081   3.691   2.005
 7505W        W72666  44.766  44.100  11.014
 7506W        W72667  22.493  14.899   2.238
 7507W        W72668  17.642  11.191   4.342
 7508W        W72669  38.469  34.018  13.081
 7509W        W72670  41.842  22.194  10.620
 7510W        W72671  22.258  34.906   4.971
 7511W        W72672  24.224  40.600  11.518
 7512W        W72673   1.549  23.577  13.110
 7513W        W72674   7.798  14.859  11.330
 7514W        W72675  28.503  36.521  13.324
 7515W        W72676  32.688  20.232  11.139
 7516W        W72677  23.588   5.382   0.715
 7517W        W72678  14.871  17.294  14.943
 7518W        W72679  19.486   0.576  11.687
 7519W        W72680  40.978  32.955   3.585
 7520W        W72681  37.411  32.507   3.682
 7521W        W72682  15.966  43.932  10.587
 7522W        W72683  21.010  35.028  13.890
 7523W        W72684  26.330   4.178  11.822
 7524W        W72685  29.906  15.055  12.473
 7525W        W72686  26.665   1.885  11.590
 7526W        W72687   1.068  24.421  13.465
 7527W        W72688  42.931  14.591   1.834
 7528W        W72689   4.270   2.542   0.347
 7529W        W72690   4.900  43.103  11.362
 7530W        W72691  10.085  37.714  11.500
 7531W        W72692  40.507  32.710  12.076
 7532W        W72693  17.147  33.370  13.461
 7533W        W72694  11.127   4.679   2.219
 7534W        W72695  19.137   5.427   0.015
 7535W        W72696  33.394  30.821  14.941
 7536W        W72697  31.937  33.385   4.007
 7537W        W72698  34.368  26.650   2.788
 7538W        W72699  14.413  22.975   4.214
 7539W        W72700  28.648  19.225  15.000
 7540W        W72701  14.962  41.171   4.062
 7541W        W72702  12.381  18.565  13.509
 7542W        W72703   3.498  28.562  12.902
 7543W        W72704   7.283  23.710  12.579
 7544W        W72705  41.312  16.634   3.094
 7545W        W72706  22.815  44.955   2.145
 7546W        W72707  24.233  41.920   3.243
 7547W        W72708  12.027  24.623   0.988
 7548W        W72709   1.960   1.014  11.169
 7549W        W72710  44.295   1.078   4.759
 7550W        W72711  29.591  40.810   2.276
 7551W        W72712  12.319  37.923   4.237
 7552W        W72713  29.668  30.668  12.766
 7553W        W72714  15.506  17.436  11.734
 7554W        W72715  11.729  10.276  11.183
 7555W        W72716  41.908   6.822  12.762
 7556W        W72717  41.958  28.625   1.491
 7557W        W72718   9.122  26.635  10.542
 7558W        W72719  35.753  15.727  11.518
 7559W        W72720  25.061  42.311  14.793
 7560W        W72721   8.186   9.273   1.771
 7561W        W72722  19.850   1.903  11.008
 7562W        W72723  40.096  22.116   3.172
 7563W        W72724  36.363  34.183  14.725
 7564W        W72725  11.692  30.962  12.109
 7565W        W72726  32.250  40.192   5.201
 7566W        W72727  18.962   6.945   2.228
 7567W        W72728  40.477  31.163   4.709
 7568W        W72729  40.640  28.248   4.507
 7569W        W72730  35.582  18.083  14.386
 7570W        W72731  35.078  22.298   4.579
 7571W        W72732   1.008   1.463  14.028
 7572W        W72733  23.524  16.660  11.578
 7573W        W72734  43.203  12.836   2.251
 7574W        W72735  33.895  39.932   4.103
 7575W        W72736  22.133  22.603  14.710
 7576W        W72737  11.242  29.743   0.773
 7577W        W72738   1.457   4.894  13.510
 7578W        W72739  34.952  13.075   2.372
 7579W        W72740  17.158  24.081  10.753
 7580W        W72741  37.306  27.055  11.128
 7581W        W72742  30.673  15.390   1.324
 7582W        W72743   6.945  37.032   3.258
 7583W        W72744  43.800  40.163   3.269
 7584W        W72745  30.462  29.143   4.086
 7585W        W72746  28.145  42.512   3.187
 7586W        W72747  14.350  39.334  11.670
 7587W        W72748  43.866  36.165   3.678
 7588W        W72749  21.331  18.124  13.935
 7589W        W72750  39.558  14.086  13.824
 7590W        W72751  26.046  16.338  12.202
 7591W        W72752  40.207  37.293  14.609
 7592W        W72753   0.844  17.922  14.469
 7593W        W72754  18.812  12.044  11.897
 7594W        W72755  13.818  11.816  11.249
 7595W        W72756   4.298  37.751  10.332
 7596W        W72757  40.492  32.469  11.091
 7597W        W72758   5.303  16.667  10.793
 7598W        W72759  24.493  26.636  14.877
 7599W        W72760  10.216  19.053  12.554
 7600W        W72761  14.824   5.271  14.363
 7601W        W72762  31.306  35.275  13.858
 7602W        W72763  22.616  37.123   0.309
 7603W        W72764   6.214  12.410   2.192
 7604W        W72765  30.346  37.897  11.638
 7605W        W72766  39.741  14.255  10.945
 7606W        W72767  41.968  31.572  12.023
 7607W        W72768  13.588  35.051   2.339
 7608W        W72769  28.113  33.957   4.183
 7609W        W72770  31.338  11.832   3.205
 7610W        W72771  28.976   1.733  12.025
 7611W        W72772  14.301  28.202  13.369
 7612W        W72773  33.872   6.762   2.761
 7613W        W72774  26.696  44.554   2.714
 7614W        W72775   9.824   8.880  12.417
 7615W        W72776  21.408  15.788   1.596
 7616W        W72777   5.281  42.281  11.006
 7617W        W72778  23.192  23.742   2.350
 7618W        W72779  39.014   7.722   0.868
 7619W        W72780   2.888  23.111  11.250
 7620W        W72781   0.712   4.526  12.475
 7621W        W72782  21.322  40.707  14.798
 7622W        W72783  35.935  33.862  14.985
 7623W        W72784   7.505  21.704  13.268
 7624W        W72785  42.413  33.690  14.836
 7625W        W72786  10.864  18.528   0.706
 7626W        W72787  10.304  41.762  13.847
 7627W        W72788  35.565  16.179   4.592
 7628W        W72789  22.105   5.526   1.934
 7629W        W72790  23.286  17.153  11.516
 7630W        W72791  24.496  36.767   0.438
 7631W        W72792   9.447   9.792  13.881
 7632W        W72793  17.349  27.921   3.030
 7633W        W72794  24.097  27.676  14.520
 7634W        W72795  13.356  38.922   3.052
 7635W        W72796  21.234  17.629  14.020
 7636W        W72797  21.004  18.162   0.319
 7637W        W72798  18.762  36.095   4.210
 7638W        W72799  44.028  29.884   3.694
 7639W        W72800  33.072  15.658   4.914
 7640W        W72801  31.551   7.445   2.317
 7641W        W72802   0.070   1.614  11.882
 7642W        W72803  40.861  16.361  14.820
 7643W        W72804   7.431   1.852  12.102
 7644W        W72805  32.795  26.998  10.754
 7645W        W72806  22.519   9.719  14.377
 7646W        W72807  34.891  20.574  14.080
 7647W        W72808  20.886  22.165   0.376
 7648W        W72809  19.065  41.236   1.371
 7649W        W72810  35.932  37.491  12.117
 7650W        W72811  41.580  27.193   0.355
 7651W        W72812  18.089  14.988  12.106
 7652W        W72813  27.985  13.640  13.984
 7653W        W72814  41.884  23.682  14.957
 7654W        W72815  28.765   3.293   1.965
 7655W        W72816  41.291  18.748   0.752
 7656W        W72817  25.147   7.694   0.355
 7657W        W72818  21.139  36.996   0.556
 7658W        W72819   9.232   8.427  10.889
 7659W        W72820  31.227  40.343  10.676
 7660W        W72821  21.341   9.873   0.370
 7661W        W72822  29.121  20.975  14.711
 7662W        W72823  13.275  12.094   4.353
 7663W        W72824   6.484  40.310  11.569
 7664W        W72825  25.348  41.327   0.951
 7665W        W72826  41.796  40.354   0.294
 7666W        W72827   4.674  27.666   0.775
 7667W        W72828  11.765  21.674  10.915
 7668W        W72829   8.925   8.650   4.404
 7669W        W72830  30.551   6.172   4.171
 7670W        W72831   4.906  11.060  14.007
 7671W        W72832  30.119  12.168   2.778
 7672W        W72833  23.421  27.817  10.919
 7673W        W72834   0.238  35.920   2.091
 7674W        W72835  35.829  29.687  13.907
 7675W        W72836   9.730  41.793   2.867
 7676W        W72837  20.994   6.693   4.477
 7677W        W72838  22.673  30.097  13.462
 7678W        W72839  21.061  36.010   2.755
 7679W        W72840  37.999  18.319   4.687
 7680W        W72841  41.271  26.691   2.385
 7681W        W72842   2.385  10.236   5.182
 7682W        W72843  31.628   1.176   1.318
 7683W        W72844  24.478  37.666  13.742
 7684W        W72845  10.335  39.149   2.418
 7685W        W72846  11.645   3.300  14.775
 7686W        W72847  39.138  30.635  10.540
 7687W        W72848   6.647  18.218   2.675
 7688W        W72849  10.168  14.096  12.523
 7689W        W72850  17.174  18.633  14.779
 7690W        W72851  11.570  37.544  14.312
 7691W        W72852  14.533   8.923   5.126
 7692W        W72853  37.448  44.917  11.627
 7693W        W72854  11.672   4.385  14.376
 7694W        W72855  34.624  35.608  12.429
 7695W        W72856   9.797   0.187  13.734
 7696W        W72857  28.173  40.303  10.924
 7697W        W72858  22.945  30.443  12.505
 7698W        W72859  20.932  41.826  14.289
 7699W        W72860  43.273  27.944   3.139
 7700W        W72861  23.557   8.320  14.716
 7701W        W72862  20.839  44.847   2.306
 7702W        W72863   4.487  37.922   4.407
 7703W        W72864  34.176   3.966   4.131
 7704W        W72865  16.567  19.584   4.556
 7705W        W72866   7.392  25.750   1.756
 7706W        W72867  31.576  27.527   0.773
 7707W        W72868   1.276  31.848  11.384
 7708W        W72869  43.121  27.955   0.838
 7709W        W72870   0.430  28.311   3.124
 7710W        W72871   8.444  41.453  14.480
 7711W        W72872  29.559  39.439   4.549
 7712W        W72873  20.591  13.315  11.012
 7713W        W72874  25.260  27.669   0.599
 7714W        W72875  14.174  12.094  11.503
 7715W        W72876  21.026  43.906  13.682
 7716W        W72877   6.480   8.802  13.059
 7717W        W72878   4.989  31.165   3.386
 7718W        W72879   4.655   3.420   1.754
 7719W        W72880  39.116   5.341  12.343
 7720W        W72881  17.033  21.937   3.693
 7721W        W72882  30.970   1.779  11.944
 7722W        W72883   9.631  36.972   4.916
 7723W        W72884  26.955  34.175  13.252
 7724W        W72885   8.438  19.781   0.657
 7725W        W72886  31.258  13.627  11.998
 7726W        W72887  42.581   5.527  11.884
 7727W        W72888  39.754  23.577  11.858
 7728W        W72889   7.676   5.668   0.427
 7729W        W72890  34.413  36.529  10.442
 7730W        W72891  40.311  43.990   1.780
 7731W        W72892  37.205  18.961   2.053
 7732W        W72893  25.462  37.132   3.012
 7733W        W72894   0.281   8.762  11.543
 7734W        W72895   9.383   0.720  10.706
 7735W        W72896  34.165  10.922  11.198
 7736W        W72897  21.109  23.260  13.990
 7737W        W72898   2.372  27.696   0.547
 7738W        W72899  40.483  24.582   1.213
 7739W        W72900  43.883  33.937  10.715
 7740W        W72901  27.412  19.329   3.743
 7741W        W72902  28.164  15.971  12.450
 7742W        W72903  20.191  10.576  11.031
 7743W        W72904   6.706   8.718  13.511
 7744W        W72905  19.540   3.740   3.388
 7745W        W72906  39.543  12.445  11.184
 7746W        W72907   9.267  35.036  14.949
 7747W        W72908  18.055  37.382  11.165
 7748W        W72909  36.713  24.597   1.785
 7749W        W72910  13.106   7.397  11.182
 7750W        W72911   5.884  22.205  14.263
 7751W        W72912  10.553  25.225   0.362
 7752W        W72913  13.722  36.416  14.577
 7753W        W72914  13.759  44.785   3.220
 7754W        W72915   5.209  20.347  13.624
 7755W        W72916  17.447  20.200  13.931
 7756W        W72917   3.678  35.741   1.424
 7757W        W72918  38.775  34.830   4.554
 7758W        W72919  34.732   4.093   2.768
 7759W        W72920  37.496  19.293   1.792
 7760W        W72921   0.439  11.166  11.361
 7761W        W72922  42.110   8.949  11.105
 7762W        W72923  39.473  39.407  10.814
 7763W        W72924  28.385  26.081   0.864
 7764W        W72925  19.133  43.644   0.850
 7765W        W72926  29.522  40.116   1.164
 7766W        W72927  20.087  31.058  14.744
 7767W        W72928  25.537  43.367   3.203
 7768W        W72929  27.242  10.695   1.880
 7769W        W72930  20.332  22.610   2.389
 7770W        W72931  32.381   7.934  12.251
 7771W        W72932  43.992  20.075  13.068
 7772W        W72933  12.724  12.093   3.163
 7773W        W72934   7.367  26.041   2.611
 7774W        W72935  25.447  36.449  14.761
 7775W        W72936  30.453   5.393  14.864
 7776W        W72937   0.742  12.149   3.130
 7777W        W72938  13.335  42.376  11.671
 7778W        W72939  30.826   9.143  14.748
 7779W        W72940  25.896  22.101  13.105
 7780W        W72941   4.953  24.042  13.289
 7781W        W72942  36.384   1.807  12.623
 7782W        W72943  33.484  43.449   5.278
 7783W        W72944  41.556  42.129   3.023
 7784W        W72945  38.014  21.067  13.481
 7785W        W72946  22.856  23.951  14.452
 7786W        W72947  32.083  42.266   1.794
 7787W        W72948   0.989  40.434  12.913
 7788W        W72949  16.564   5.736   4.064
 7789W        W72950  12.707   9.217  10.752
 7790W        W72951  13.793   5.070   3.340
 7791W        W72952  38.044  12.343  11.428
 7792W        W72953  22.993  12.405   1.805
 7793W        W72954  25.451   1.468   2.172
 7794W        W72955  19.130  41.807   0.340
 7795W        W72956  27.325  33.113   3.671
 7796W        W72957  22.984  34.442   3.262
 7797W        W72958  29.872  34.590  12.003
 7798W        W72959  36.984   9.786  10.761
 7799W        W72960  25.221  42.504   4.512
 7800W        W72961  23.599   6.702   0.439
 7801W        W72962  35.067  17.459  13.374
 7802W        W72963   1.821   7.713  11.707
 7803W        W72964   6.130  33.488  10.047
 7804W        W72965   8.629  37.802   3.850
 7805W        W72966  26.105  15.299  14.445
 7806W        W72967   7.616  32.581   1.357
 7807W        W72968  41.302  19.808  13.397
 7808W        W72969  25.557   9.776   2.692
 7809W        W72970  20.279  37.635  11.907
 7810W        W72971  21.670  15.698  13.044
 7811W        W72972  30.354  12.901   1.210
 7812W        W72973   7.277  17.791  13.307
 7813W        W72974  23.880   7.767  11.994
 7814W        W72975   1.904  43.480   3.095
 7815W        W72976  35.811  15.626   0.391
 7816W        W72977  17.152  43.638   2.354
 7817W        W72978  38.097   1.262  11.947
 7818W        W72979  31.549  39.703   3.115
 7819W        W72980  24.648  36.221   3.179
 7820W        W72981  12.688  44.421   1.631
 7821W        W72982  28.644  11.396  11.384
 7822W        W72983  42.262   4.119  14.740
 7823W        W72984  39.858  38.677  14.778
 7824W        W72985  10.077  15.368  11.923
 7825W        W72986   1.979   3.385   1.858
 7826W        W72987  29.493  12.932   3.096
 7827W        W72988  38.096  21.521  11.920
 7828W        W72989  35.291  15.435   3.672
 7829W        W72990  22.674  44.898   4.569
 7830W        W72991  30.126  10.969   0.316
 7831W        W72992   6.907  26.882   0.259
 7832W        W72993  30.285  14.627   0.687
 7833W        W72994  18.787  27.094   3.558
 7834W        W72995  25.769   0.204  14.465
 7835W        W72996  40.149  30.030   4.065
 7836W        W72997   2.829  18.053   4.124
 7837W        W72998  37.940  19.543   1.844
 7838W        W72999   5.490  18.524  14.403
 7839W        W73000  18.356   2.553   0.361
 7840W        W73001  13.143   4.960   1.523
 7841W        W73002  44.840  25.470   4.832
 7842W        W73003  31.228  13.989   0.577
 7843W        W73004  35.064   8.756   5.339
 7844W        W73005  16.806  24.597  10.850
 7845W        W73006   6.185  32.986   2.712
 7846W        W73007  42.479  42.387   4.144
 7847W        W73008  43.389  25.968   2.359
 7848W        W73009  21.235  24.645  14.981
 7849W        W73010  41.636  42.335   2.114
 7850W        W73011  39.232  16.891  11.334
 7851W        W73012  37.617  35.834   3.530
 7852W        W73013  29.369   0.257   2.677
 7853W        W73014  41.084  20.476  11.248
 7854W        W73015  26.825  26.537  12.004
 7855W        W73016  39.757  32.415  10.648
 7856W        W73017   9.793  36.514   4.703
 7857W        W73018   3.425  29.342   2.903
 7858W        W73019  19.766  33.584   2.961
 7859W        W73020  22.226  17.317   3.159
 7860W        W73021  20.329  14.291   2.291
 7861W        W73022  40.419  44.250   1.297
 7862W        W73023  30.846  38.308   4.326
 7863W        W73024  40.423  36.488   2.867
 7864W        W73025  36.940  22.438  13.023
 7865W        W73026  27.073  31.613   3.598
 7866W        W73027   4.923  16.291   4.486
 7867W        W73028  30.946  21.048   2.074
 7868W        W73029  16.184  28.021   2.352
 7869W        W73030  13.878  34.651   0.079
 7870W        W73031  20.584  19.748   0.839
 7871W        W73032  35.429  23.939   1.931
 7872W        W73033  27.964  44.899   1.501
 7873W        W73034  17.733  31.611  11.432
 7874W        W73035  21.287   5.978  14.297
 7875W        W73036  23.997  42.243  12.862
 7876W        W73037  10.118  39.052   0.436
 7877W        W73038  15.673  37.766  10.699
 7878W        W73039  33.352  17.350  10.328
 7879W        W73040  39.014  35.049  13.858
 7880W        W73041  15.709  21.940   2.247
 7881W        W73042  44.340  19.692  13.191
 7882W        W73043  40.300   7.374  11.646
 7883W        W73044  25.864   4.334  14.973
 7884W        W73045  31.400  25.757  13.990
 7885W        W73046  14.086  31.427  14.443
 7886W        W73047   0.789   3.411  14.600
 7887W        W73048  14.613  23.203   4.631
 7888W        W73049  18.566  31.527  13.806
 7889W        W73050  21.450  43.267   4.318
 7890W        W73051  19.152  43.778  14.513
 7891W        W73052  40.413   4.791  12.340
 7892W        W73053  23.616  21.513  11.990
 7893W        W73054  26.540  39.666  13.388
 7894W        W73055  30.108   0.666   2.813
 7895W        W73056  19.336  43.070   2.214
 7896W        W73057   0.132  29.176   3.172
 7897W        W73058  20.528  22.382  10.123
 7898W        W73059  23.589  21.498  13.401
 7899W        W73060   4.975  40.225   1.893
 7900W        W73061  27.531  31.228  10.766
 7901W        W73062   5.187   2.652  13.103
 7902W        W73063  21.608   7.629  12.148
 7903W        W73064  29.516  15.439   2.722
 7904W        W73065  13.843  31.494   0.509
 7905W        W73066  17.616  32.946  12.622
 7906W        W73067  12.444  22.181  14.442
 7907W        W73068  28.132  28.729   4.733
 7908W        W73069  44.003   0.151   2.258
 7909W        W73070  18.553  29.662  11.524
 7910W        W73071   1.054   8.316  10.696
 7911W        W73072  34.153   3.170  11.096
 7912W        W73073  28.965  16.380   3.666
 7913W        W73074  29.615  33.428   4.065
 7914W        W73075  17.586  22.509  12.041
 7915W        W73076   8.434  42.494   4.494
 7916W        W73077  37.926  18.962  14.325
 7917W        W73078  38.370   3.938   2.787
 7918W        W73079  16.851  35.061   4.166
 7919W        W73080  22.509   9.465   3.265
 7920W        W73081  31.393  26.843  10.799
 7921W        W73082  23.009  15.607   1.818
 7922W        W73083   6.797  24.943   4.444
 7923W        W73084  34.057   2.992   2.895
 7924W        W73085  44.287  17.180  13.801
 7925W        W73086  35.634  22.796   0.368
 7926W        W73087  39.010  11.079  12.119
 7927W        W73088  39.916   8.121   2.346
 7928W        W73089  44.427  36.543  13.546
 7929W        W73090  25.089   7.607  14.441
 7930W        W73091  26.088  26.408  13.559
 7931W        W73092   9.182  32.160   3.131
 7932W        W73093  34.594  18.395   1.183
 7933W        W73094  24.959  44.717   4.191
 7934W        W73095  21.042  21.504  10.620
 7935W        W73096  31.696  24.827   1.140
 7936W        W73097  39.111  28.222  12.044
 7937W        W73098  23.159   8.408  14.373
 7938W        W73099  15.596  11.696  13.788
 7939W        W73100  11.419  11.752  12.489
 7940W        W73101   3.449  34.823   2.206
 7941W        W73102  10.784  40.613   4.675
 7942W        W73103   1.769   1.157  12.543
 7943W        W73104  21.307  21.049  11.561
 7944W        W73105  44.885  26.493  14.457
 7945W        W73106  23.094  42.065  10.118
 7946W        W73107  34.059  25.324  13.517
 7947W        W73108  20.991  29.392   4.101
 7948W        W73109  30.184  22.578  14.421
 7949W        W73110  28.646  41.376  11.548
 7950W        W73111  31.011  16.218   1.524
 7951W        W73112  25.101   7.376   0.763
 7952W        W73113  43.845   1.806   3.831
 7953W        W73114  30.569  37.185  14.891
 7954W        W73115   7.329  44.493  14.464
 7955W        W73116  42.201  19.123  12.934
 7956W        W73117   3.879  29.873  14.759
 7957W        W73118  28.401  44.873  13.334
 7958W        W73119   7.335  35.853   0.461
 7959W        W73120  10.866  42.100   3.048
 7960W        W73121  28.416   5.071  10.674
 7961W        W73122  30.472   6.737   2.705
 7962W        W73123   4.885  20.884   3.279
 7963W        W73124  15.780  29.670   0.400
 7964W        W73125   3.352  12.099  12.830
 7965W        W73126   4.143  38.881  14.397
 7966W        W73127   0.475  13.644   2.766
 7967W        W73128   1.315  42.278   1.654
 7968W        W73129   2.270   1.893   0.531
 7969W        W73130  20.929  11.063   3.107
 7970W        W73131  26.428  35.594   3.678
 7971W        W73132   6.876  37.822   0.792
 7972W        W73133  32.058  19.694  14.825
 7973W        W73134  32.345  44.753   4.297
 7974W        W73135   4.712  21.185  13.421
 7975W        W73136  10.966  38.393  14.315
 7976W        W73137  27.388  26.510   2.050
 7977W        W73138   2.015  34.420   1.765
 7978W        W73139  39.754  16.328   2.295
 7979W        W73140   4.303  37.039   4.623
 7980W        W73141  43.435  41.496  14.557
 7981W        W73142  30.335  26.446  12.459
 7982W        W73143  36.521  22.094  10.967
 7983W        W73144  41.930   1.779   2.290
 7984W        W73145   6.194   6.358   4.025
 7985W        W73146   8.940  27.074  12.452
 7986W        W73147   9.724  16.187  12.863
 7987W        W73148   7.325  10.684   4.143
 7988W        W73149  11.150  14.969   2.946
 7989W        W73150  33.448   6.551  10.807
 7990W        W73151  32.687  30.760  12.922
 7991W        W73152  35.393   5.570   0.370
 7992W        W73153  38.902  25.774   0.542
 7993W        W73154  43.393   0.486   3.802
 7994W        W73155  33.532  28.061   0.267
 7995W        W73156  32.687  44.143   0.806
 7996W        W73157  28.915  13.266   3.738
 7997W        W73158   1.328  14.832   3.439
 7998W        W73159  27.073  18.572   1.236
 7999W        W73160  35.507  13.008   4.104
 8000W        W73161  14.997  23.567   4.626
 8001W        W73162   5.718   5.324   2.335
 8002W        W73163  17.969  27.731  12.612
 8003W        W73164  31.661  41.793   0.831
 8004W        W73165  31.994  14.999   2.225
 8005W        W73166  35.362  33.392   3.114
 8006W        W73167  30.364  29.347   3.232
 8007W        W73168   6.781  16.695   0.383
 8008W        W73169  37.330  38.798  14.096
 8009W        W73170  29.048  17.147  12.108
 8010W        W73171  15.742   5.651   0.063
 8011W        W73172  38.300  35.629   4.590
 8012W        W73173  32.484   5.722  11.215
 8013W        W73174  16.806  21.303  12.515
 8014W        W73175   5.032  33.608   0.777
 8015W        W73176  20.644  13.475   4.717
 8016W        W73177   6.317  20.553   2.668
 8017W        W73178  19.706   7.895   0.799
 8018W        W73179  29.189  33.923   0.692
 8019W        W73180  10.657  40.375   3.311
 8020W        W73181  30.836  36.510   4.899
 8021W        W73182  19.675  14.495  14.716
 8022W        W73183  10.864  34.950  10.607
 8023W        W73184  14.253  12.125   3.517
 8024W        W73185   4.144   2.241   4.217
 8025W        W73186  26.677  40.047  14.773
 8026W        W73187   5.527  35.595  13.749
 8027W        W73188   1.284  11.286   9.875
 8028W        W73189  38.318  12.466   1.259
 8029W        W73190  44.438  39.643  11.725
 8030W        W73191  43.726  21.564   4.593
 8031W        W73192  43.584  34.225  12.982
 8032W        W73193   5.355  24.672   0.902
 8033W        W73194  43.940  22.833   3.355
 8034W        W73195  36.390  36.438  10.622
 8035W        W73196   3.386   0.584   4.587
 8036W        W73197  12.200   1.933   0.393
 8037W        W73198   9.183   6.672   3.587
 8038W        W73199  18.699  33.481   1.967
 8039W        W73200  25.747  14.700   0.311
 8040W        W73201  31.178  19.781  11.758
 8041W        W73202  23.019   3.322   2.716
 8042W        W73203  27.547  27.502  13.952
 8043W        W73204  21.512  17.867  14.378
 8044W        W73205  41.022  16.624  10.741
 8045W        W73206  13.183  16.716   1.272
 8046W        W73207  35.779   6.724   3.966
 8047W        W73208  11.453  33.372   1.087
 8048W        W73209   0.534  37.886  13.640
 8049W        W73210  24.976  28.101  12.553
 8050W        W73211  11.736  40.802   0.297
 8051W        W73212   5.410  33.494   3.683
 8052W        W73213   1.875   1.745   4.089
 8053W        W73214  12.071  16.407  11.678
 8054W        W73215  43.675  16.665  12.882
 8055W        W73216   0.458  12.941   2.225
 8056W        W73217  23.972  10.210  12.470
 8057W        W73218  32.893  33.141   2.165
 8058W        W73219   6.275  24.026  14.318
 8059W        W73220  37.032  43.184   1.362
 8060W        W73221  34.017   1.442   0.293
 8061W        W73222   1.474  38.923   4.071
 8062W        W73223  41.198  44.668   3.189
 8063W        W73224  41.327   7.377   2.897
 8064W        W73225   9.265  25.689   0.705
 8065W        W73226  30.871  11.016  13.436
 8066W        W73227  35.037  14.202   4.696
 8067W        W73228  21.037  30.446  11.239
 8068W        W73229  33.670  22.945   4.460
 8069W        W73230  25.122  23.554   1.863
 8070W        W73231  21.498  21.584   0.426
 8071W        W73232   4.852  33.820   2.031
 8072W        W73233  29.384  23.681   1.726
 8073W        W73234  43.394  22.532   1.684
 8074W        W73235   9.092  44.326  10.173
 8075W        W73236   8.192  41.010   0.466
 8076W        W73237  37.959  27.271   3.330
 8077W        W73238  20.450  18.707  13.939
 8078W        W73239   1.765   7.210  14.942
 8079W        W73240  35.338  19.210   1.943
 8080W        W73241  28.097  33.875   1.934
 8081W        W73242  38.033  29.407  12.011
 8082W        W73243  19.107   6.237   1.820
 8083W        W73244  27.055  27.409  13.793
 8084W        W73245  37.739  30.938  10.853
 8085W        W73246  29.903  12.595  10.721
 8086W        W73247   3.673  24.981  11.137
 8087W        W73248  38.991  11.268   4.713
 8088W        W73249  19.850  37.902   1.438
 8089W        W73250  17.060   2.184  13.827
 8090W        W73251  24.911   7.114  14.364
 8091W        W73252  11.764  17.606   0.409
 8092W        W73253   0.502  28.062  12.504
 8093W        W73254  37.668  20.181  12.022
 8094W        W73255   0.271  10.736  14.988
 8095W        W73256  43.737   6.589   0.786
 8096W        W73257  20.758  10.338  12.131
 8097W        W73258  10.510  13.803   4.108
 8098W        W73259   2.824  42.964  14.490
 8099W        W73260  42.210  32.983  14.188
 8100W        W73261  28.993   6.386   1.287
 8101W        W73262  39.909  25.302  12.795
 8102W        W73263  24.049  28.153  12.525
 8103W        W73264  38.708  17.640  11.330
 8104W        W73265  43.910  39.493  10.519
 8105W        W73266  33.333  34.581  11.061
 8106W        W73267  18.335  40.538   0.427
 8107W        W73268  23.124  28.900   1.156
 8108W        W73269   1.318  22.613  13.578
 8109W        W73270  22.317  28.102  14.329
 8110W        W73271  43.559  34.542  14.799
 8111W        W73272  12.334  24.633  11.773
 8112W        W73273   0.742  42.196   2.873
 8113W        W73274   7.230  12.234   4.129
 8114W        W73275  22.003   0.274   3.582
 8115W        W73276  33.443   3.014   5.089
 8116W        W73277  27.617  14.278   0.865
 8117W        W73278   7.606   2.989  13.436
 8118W        W73279  13.149  38.974  10.399
 8119W        W73280  28.484  43.361  14.190
 8120W        W73281  20.654   5.837   2.738
 8121W        W73282  38.484  27.585   3.440
 8122W        W73283  43.437   0.722  12.310
 8123W        W73284  32.956   8.763   3.703
 8124W        W73285  23.640  11.075  13.632
 8125W        W73286  31.306  30.651  14.434
 8126W        W73287  31.390  40.459   4.717
 8127W        W73288  14.338  16.220  13.081
 8128W        W73289  12.132   2.308  12.582
 8129W        W73290  27.408  13.247  12.921
 8130W        W73291  20.035  37.864   4.960
 8131W        W73292  40.803  28.922   2.844
 8132W        W73293  24.529  39.505  12.064
 8133W        W73294  22.505  10.894   2.837
 8134W        W73295  37.859  29.157  11.118
 8135W        W73296  21.994  44.816  11.037
 8136W        W73297  12.781  10.884  12.508
 8137W        W73298   5.932  13.661  14.911
 8138W        W73299  27.851  34.926  10.476
 8139W        W73300  14.119  34.130   4.336
 8140W        W73301  15.705   3.729  13.920
 8141W        W73302  33.579  23.101   1.508
 8142W        W73303  39.784  20.792   3.213
 8143W        W73304  41.959  40.077  14.329
 8144W        W73305  33.095  35.663   3.274
 8145W        W73306   5.227  41.041  14.077
 8146W        W73307  24.189   8.932  14.172
 8147W        W73308  10.566  33.649  10.903
 8148W        W73309  10.457  17.960   9.937
 8149W        W73310   4.732  25.253   0.918
 8150W        W73311  24.041  42.040  14.963
 8151W        W73312  42.315  31.983  13.495
 8152W        W73313  38.039  23.334  10.739
 8153W        W73314  39.978   9.802   4.891
 8154W        W73315  13.601  31.035  12.333
 8155W        W73316   2.836  10.324  12.391
 8156W        W73317  18.665  11.079   3.835
 8157W        W73318  24.207  44.441  12.687
 8158W        W73319  23.436  33.895  12.012
 8159W        W73320  26.518   1.346   3.158
 8160W        W73321  38.158  13.628   3.431
 8161W        W73322  42.017  14.134   2.493
 8162W        W73323  37.367  20.802   1.623
 8163W        W73324  24.943  29.861   0.880
 8164W        W73325  24.014  40.874   3.995
 8165W        W73326  23.548  42.246  13.099
 8166W        W73327  35.746   8.917  13.052
 8167W        W73328  23.749  22.600   1.400
 8168W        W73329  30.738  38.842  11.578
 8169W        W73330  38.369   4.229  11.748
 8170W        W73331  21.664  27.594   0.973
 8171W        W73332  36.307  40.857  13.332
 8172W        W73333  19.682  13.868   4.182
 8173W        W73334  15.749   6.332  12.445
 8174W        W73335  26.066  29.569  14.802
 8175W        W73336  31.090   7.738   3.376
 8176W        W73337  23.995   9.652  12.475
 8177W        W73338  14.367  21.536   2.768
 8178W        W73339  16.200   3.535  13.819
 8179W        W73340  40.157   2.680  14.854
 8180W        W73341  11.825  24.269   2.253
 8181W        W73342  22.090  13.368   2.635
 8182W        W73343  43.765  34.102  11.208
 8183W        W73344   1.214  17.369   4.483
 8184W        W73345  26.010  43.218   0.351
 8185W        W73346  16.562   5.696   4.592
 8186W        W73347  28.831  22.500   2.871
 8187W        W73348  42.885  17.654   1.898
 8188W        W73349  40.924  44.713   3.651
 8189W        W73350  41.841  13.765  10.675
 8190W        W73351   4.781  20.099   1.252
 8191W        W73352   6.776  20.486   0.950
 8192W        W73353  37.996  43.387   2.382
 8193W        W73354  32.665   1.401  13.381
 8194W        W73355  22.395  38.495  13.602
 8195W        W73356  20.652  19.280  14.829
 8196W        W73357   9.689  38.762  14.016
 8197W        W73358   8.946   9.686  12.953
 8198W        W73359   6.260   4.043   2.693
 8199W        W73360  36.663  42.944   4.095
 8200W        W73361   8.177  31.831  14.339
 8201W        W73362  33.126  30.991   0.912
 8202W        W73363  11.682   7.312  11.889
 8203W        W73364  40.262  11.808   4.391
 8204W        W73365  31.347   6.603   1.730
 8205W        W73366   9.331  33.904   4.704
 8206W        W73367  28.052  18.016   9.918
 8207W        W73368   1.633  17.096   3.577
 8208W        W73369  19.642   2.414  12.122
 8209W        W73370  19.233  34.329  13.496
 8210W        W73371  43.755  10.565  12.567
 8211W        W73372  32.122  34.911  13.310
 8212W        W73373  28.417  12.152   2.106
 8213W        W73374  34.975  20.057  10.931
 8214W        W73375  23.742   2.545  13.079
 8215W        W73376  15.082  44.008   3.685
 8216W        W73377  40.031  29.658   0.883
 8217W        W73378  19.448  39.308   9.839
 8218W        W73379  44.071   7.837   1.232
 8219W        W73380  26.441  23.256  12.993
 8220W        W73381   3.551   9.836  14.284
 8221W        W73382  13.631   6.368   1.811
 8222W        W73383  32.411  44.934  12.996
 8223W        W73384  33.284  20.779  10.724
 8224W        W73385  30.466  43.753  12.847
 8225W        W73386  29.906  20.456  11.081
 8226W        W73387  36.952  11.837   4.255
 8227W        W73388  13.496  23.793  10.366
 8228W        W73389  24.256  11.433  11.820
 8229W        W73390  16.088  34.114   3.576
 8230W        W73391  30.154  42.253  13.942
 8231W        W73392  43.270  16.816  11.634
 8232W        W73393  22.041   5.370   0.746
 8233W        W73394  34.891  30.605   3.503
 8234W        W73395  34.394  17.172  10.576
 8235W        W73396  35.294   3.345   1.193
 8236W        W73397  14.133  41.958  12.964
 8237W        W73398   2.747  37.278   3.721
 8238W        W73399  22.127  20.239  12.369
 8239W        W73400  43.585  42.345   0.830
 8240W        W73401  23.153  24.259   4.541
 8241W        W73402  25.580  36.676  11.940
 8242W        W73403  24.705  43.110  11.426
 8243W        W73404  38.380  36.585  10.703
 8244W        W73405  41.110  27.116  11.507
 8245W        W73406  23.166  36.916  13.116
 8246W        W73407   7.811  31.865  11.639
 8247W        W73408  17.661   6.403   0.534
 8248W        W73409   3.778  15.515   2.759
 8249W        W73410  32.481  11.142   2.796
 8250W        W73411  25.164  33.170   2.737
 8251W        W73412  31.868   5.244  10.655
 8252W        W73413  33.599  25.373  14.198
 8253W        W73414  32.463   9.210  11.611
 8254W        W73415  18.623  43.550   0.280
 8255W        W73416  21.938  10.869   1.787
 8256W        W73417   0.454  21.135   3.141
 8257W        W73418  41.746  17.840  14.726
 8258W        W73419  37.067   3.297   5.254
 8259W        W73420  14.185   3.375  12.010
 8260W        W73421  15.686   1.503  11.836
 8261W        W73422   4.463  17.057   4.351
 8262W        W73423  12.993   9.962  11.586
 8263W        W73424   5.568  31.529   2.805
 8264W        W73425  42.807  36.761   2.418
 8265W        W73426  13.876  43.515   2.740
 8266W        W73427  10.378  37.898   4.486
 8267W        W73428  43.667  23.640   4.582
 8268W        W73429  27.998  19.856   4.060
 8269W        W73430  34.967   9.403  12.455
 8270W        W73431  25.260  22.549   2.698
 8271W        W73432  31.920  43.492  13.844
 8272W        W73433  19.179  31.429   2.101
 8273W        W73434  24.206   7.850   4.254
 8274W        W73435  11.795   9.781   0.852
 8275W        W73436  42.975  37.124   2.755
 8276W        W73437  43.883  24.443   4.216
 8277W        W73438  25.059   3.223   5.084
 8278W        W73439   7.843  27.389  11.637
 8279W        W73440  11.362   4.726  11.499
 8280W        W73441   1.046  33.918  13.912
 8281W        W73442  34.166   3.733   1.964
 8282W        W73443   3.972  13.532   2.826
 8283W        W73444  41.358  28.416   4.821
 8284W        W73445  21.666  29.385   3.642
 8285W        W73446  28.250  28.149  14.353
 8286W        W73447   3.450   2.978  14.085
 8287W        W73448   5.820  37.528   0.252
 8288W        W73449  20.617  14.172  14.987
 8289W        W73450  43.847  27.596  14.382
 8290W        W73451   3.809  27.584  12.535
 8291W        W73452   4.949  37.443  11.153
 8292W        W73453  32.934  42.984   4.645
 8293W        W73454  17.082  23.335  13.113
 8294W        W73455  30.993  16.447  12.462
 8295W        W73456   7.847  41.432  12.461
 8296W        W73457   2.510  28.145   0.324
 8297W        W73458  29.016   6.236  11.952
 8298W        W73459   2.515  13.541   9.860
 8299W        W73460  17.701   7.874   2.568
 8300W        W73461  23.500   6.787   3.028
 8301W        W73462  37.841  21.529  12.363
 8302W        W73463  44.199  16.535   4.116
 8303W        W73464  11.717  40.400   1.892
 8304W        W73465   6.298  23.879  10.232
 8305W        W73466  10.784  30.191   3.261
 8306W        W73467   2.207  22.155  13.742
 8307W        W73468  11.214   8.877   2.141
 8308W        W73469   4.401  17.629  11.237
 8309W        W73470  11.150  44.253  14.802
 8310W        W73471  26.063  23.700  14.341
 8311W        W73472  28.497   3.721   4.189
 8312W        W73473  41.818  15.059  12.130
 8313W        W73474  43.383   8.185  10.826
 8314W        W73475  21.410  26.039   4.354
 8315W        W73476  32.255  34.749  11.994
 8316W        W73477  23.019  23.670   3.633
 8317W        W73478   6.226  37.798   0.427
 8318W        W73479  38.005  35.888   1.377
 8319W        W73480  43.311  40.022  12.400
 8320W        W73481  42.268  33.979  13.325
 8321W        W73482  31.708  27.914   4.893
 8322W        W73483  18.860  25.577  11.664
 8323W        W73484  26.547  13.308   0.004
 8324W        W73485  14.281  29.244  12.635
 8325W        W73486  20.297  38.521  14.254
 8326W        W73487   3.840  15.163  14.747
 8327W        W73488   2.973  34.637   2.096
 8328W        W73489   2.370  31.041   1.254
 8329W        W73490   3.798  34.517   3.771
 8330W        W73491  32.881  12.286  13.936
 8331W        W73492  35.835  24.277  12.467
 8332W        W73493   9.910   0.861  13.062
 8333W        W73494   1.858   4.089   3.722
 8334W        W73495   9.594  21.158   3.546
 8335W        W73496  18.648   6.537  12.737
 8336W        W73497  23.030   5.276   0.982
 8337W        W73498  28.266  40.816  11.053
 8338W        W73499   5.734   1.690   1.621
 8339W        W73500  13.590  23.734  12.111
 8340W        W73501  43.378  37.015   1.771
 8341W        W73502  23.920  35.208  11.173
 8342W        W73503  16.113  38.387  12.144
 8343W        W73504  22.640  31.043   3.785
 8344W        W73505  26.043  27.706  11.054
 8345W        W73506  32.143   3.334  14.907
 8346W        W73507  38.082   6.422  11.174
 8347W        W73508  19.183   2.472  10.883
 8348W        W73509  30.915   0.464   2.746
 8349W        W73510   1.959   7.123  13.259
 8350W        W73511  34.148  19.726  12.541
 8351W        W73512  24.442  44.703   0.199
 8352W        W73513  36.301  19.203   4.789
 8353W        W73514  12.353   0.573   4.174
 8354W        W73515  18.115  21.984   1.781
 8355W        W73516  22.573   9.947   3.194
 8356W        W73517  22.163   4.540   1.760
 8357W        W73518  38.861   8.735  14.768
 8358W        W73519  26.690  22.092   0.266
 8359W        W73520  14.515   0.926  10.274
 8360W        W73521  23.501  10.377  12.473
 8361W        W73522  42.272  36.533   9.800
 8362W        W73523  11.979   1.706  11.084
 8363W        W73524   1.191  21.150   2.389
 8364W        W73525  11.646  20.803  11.458
 8365W        W73526  20.117  34.738  11.147
 8366W        W73527  38.082  23.770   4.007
 8367W        W73528  43.131  19.029   1.886
 8368W        W73529  43.772   3.270   3.614
 8369W        W73530  20.694  24.686  11.263
 8370W        W73531  27.970  25.821   1.794
 8371W        W73532  42.681   1.912  11.323
 8372W        W73533  15.725  14.172   2.239
 8373W        W73534   0.346   6.343  13.504
 8374W        W73535  15.745  14.184   3.184
 8375W        W73536  28.218  19.631   1.780
 8376W        W73537  18.636  22.383   2.785
 8377W        W73538  35.477   4.871  11.016
 8378W        W73539  28.134  14.261   0.887
 8379W        W73540  41.564  17.045   2.838
 8380W        W73541   8.159   6.125  11.980
 8381W        W73542  12.751   8.767   2.210
 8382W        W73543   1.785  31.645   0.865
 8383W        W73544   5.602   9.632  11.456
 8384W        W73545   2.094  10.730   3.265
 8385W        W73546  20.498   9.261   4.687
 8386W        W73547   1.220  21.024   0.881
 8387W        W73548   1.759  10.348   4.096
 8388W        W73549  20.174  19.231   1.297
 8389W        W73550  38.125  15.183  10.782
 8390W        W73551  29.155  15.251  11.305
 8391W        W73552  15.965  40.571   0.047
 8392W        W73553  27.700  15.785  12.535
 8393W        W73554  38.954  24.063   0.193
 8394W        W73555   5.386  30.956  11.005
 8395W        W73556  42.227   5.617   4.598
 8396W        W73557  24.551  19.920  13.374
 8397W        W73558  27.486   7.941   1.012
 8398W        W73559  22.540   9.890   0.839
 8399W        W73560  26.145  21.591   2.750
 8400W        W73561   7.405   0.776   1.765
 8401W        W73562   7.662  16.557   3.256
 8402W        W73563  14.806  24.530  11.632
 8403W        W73564  15.211  21.975  11.999
 8404W        W73565  14.088  36.349   2.743
 8405W        W73566  22.213  15.616  14.716
 8406W        W73567  41.767   5.938  13.465
 8407W        W73568  29.392  29.961   0.944
 8408W        W73569  22.539  27.968  13.057
 8409W        W73570   1.126  20.720  12.092
 8410W        W73571   9.509  37.324   3.704
 8411W        W73572  41.831  20.130  12.531
 8412W        W73573  12.186  35.454   3.760
 8413W        W73574   3.463  32.183  10.319
 8414W        W73575  38.064  19.767  12.966
 8415W        W73576  26.499  18.076  11.534
 8416W        W73577  15.154  17.573  11.298
 8417W        W73578  33.453   2.246   4.543
 8418W        W73579   2.769  33.488  12.537
 8419W        W73580  21.257   1.786  13.648
 8420W        W73581  24.987  15.250   1.022
 8421W        W73582  24.653   4.898   0.259
 8422W        W73583  35.885  31.092  10.550
 8423W        W73584  18.453   0.937   0.814
 8424W        W73585  44.775   5.416   2.609
 8425W        W73586  43.249  20.405  12.045
 8426W        W73587   3.980   3.271   4.578
 8427W        W73588  10.913  18.643   4.853
 8428W        W73589   2.571  26.553  10.080
 8429W        W73590  19.333  10.308  14.927
 8430W        W73591   5.947  40.504   5.236
 8431W        W73592  12.300  28.008   3.130
 8432W        W73593  34.397  38.045  14.773
 8433W        W73594  15.777  15.778   5.034
 8434W        W73595   3.966  11.674  10.509
 8435W        W73596  12.911  19.412  11.198
 8436W        W73597  31.052  25.960   3.447
 8437W        W73598   1.946  23.269  12.978
 8438W        W73599   6.736  20.610   4.170
 8439W        W73600   6.465  22.173   1.789
 8440W        W73601  31.590  11.274   4.647
 8441W        W73602  15.824  41.270  14.296
 8442W        W73603  29.051  34.068  13.411
 8443W        W73604  37.386  18.980   4.542
 8444W        W73605  37.952  42.770  10.742
 8445W        W73606  12.872  12.860   3.608
 8446W        W73607  23.501  41.009  13.338
 8447W        W73608  41.003  40.187  13.929
 8448W        W73609  38.861  27.482   0.396
 8449W        W73610  22.563  38.656   4.536
 8450W        W73611   2.057   5.140   0.616
 8451W        W73612  14.173  42.497   4.376
 8452W        W73613  40.813  29.175  13.535
 8453W        W73614  26.391  15.278  14.886
 8454W        W73615  14.018  11.229   0.467
 8455W        W73616  43.652  29.946  13.464
 8456W        W73617  21.563   1.396  10.793
 8457W        W73618  15.917   2.101   4.254
 8458W        W73619   7.279  32.378   3.518
 8459W        W73620  30.777  29.311  11.068
 8460W        W73621  28.021  35.612  11.579
 8461W        W73622  31.842  13.820  12.519
 8462W        W73623  24.809  38.380   1.900
 8463W        W73624  23.474  24.741  11.117
 8464W        W73625  32.038   6.750   0.918
 8465W        W73626  15.048  30.696  11.203
 8466W        W73627  15.331  34.799  11.640
 8467W        W73628  10.264  26.095   3.118
 8468W        W73629  19.075  39.417   3.645
 8469W        W73630  33.372   4.181  11.071
 8470W        W73631  33.490   8.327  13.716
 8471W        W73632  33.152   2.476  13.520
 8472W        W73633  42.955  42.284  12.024
 8473W        W73634  30.218  26.411  14.478
 8474W        W73635  21.068   5.635  13.957
 8475W        W73636   2.080   0.750   2.618
 8476W        W73637  30.664  11.779   3.718
 8477W        W73638  35.138  25.718  11.534
 8478W        W73639  11.299  36.051  13.394
 8479W        W73640  30.178  36.172  13.830
 8480W        W73641  13.267  32.375  13.876
 8481W        W73642  13.831  20.751  10.772
 8482W        W73643  14.301  38.343  14.144
 8483W        W73644  29.643   4.746  13.654
 8484W        W73645  15.462   3.403   1.368
 8485W        W73646  24.774  35.744   4.998
 8486W        W73647   5.190  23.108   0.401
 8487W        W73648  15.087  12.857  13.155
 8488W        W73649   3.968  13.691   9.889
 8489W        W73650   3.000  44.278  14.818
 8490W        W73651  28.383  35.027   2.273
 8491W        W73652  35.621  30.969  12.024
 8492W        W73653   3.270  26.873   3.341
 8493W        W73654  32.889   7.654   3.707
 8494W        W73655  21.056  15.077   0.837
 8495W        W73656  27.748  18.683   0.752
 8496W        W73657  43.585  34.843   9.887
 8497W        W73658  31.391  23.851  14.020
 8498W        W73659  39.790   3.632   4.997
 8499W        W73660  34.018  29.076  13.789
 8500W        W73661   6.794   2.093   0.022
 8501W        W73662  38.185  22.918  13.494
 8502W        W73663  13.142  26.122  11.570
 8503W        W73664  36.359   8.453   4.599
 8504W        W73665   2.204  38.784   2.255
 8505W        W73666  17.657  41.941  13.530
 8506W        W73667  14.052   0.357  14.079
 8507W        W73668   7.680  39.047  12.612
 8508W        W73669  39.295  16.375   4.707
 8509W        W73670  15.070   9.245   0.641
 8510W        W73671  10.081   0.103   4.045
 8511W        W73672  28.817  17.559   2.427
 8512W        W73673  44.992  34.986   3.154
 8513W        W73674  14.842  30.477   5.063
 8514W        W73675  41.140  39.635   3.638
 8515W        W73676   8.188  44.450  10.804
 8516W        W73677  30.459  41.730   3.260
 8517W        W73678  15.590  40.870   2.631
 8518W        W73679   6.259  23.719   1.235
 8519W        W73680  15.573  12.729  13.046
 8520W        W73681  21.558  20.689   4.194
 8521W        W73682  17.968   9.468  11.500
 8522W        W73683  34.502   1.588   1.293
 8523W        W73684  43.891   5.147   0.821
 8524W        W73685  32.919  19.590  11.131
 8525W        W73686  26.888  35.725  12.484
 8526W        W73687   9.723  40.017  13.562
 8527W        W73688   1.515   0.772  13.383
 8528W        W73689  29.087  33.817  11.488
 8529W        W73690  17.509  17.218  12.528
 8530W        W73691   7.449   9.289   3.855
 8531W        W73692  39.079   9.682  13.631
 8532W        W73693   0.767  42.573   0.968
 8533W        W73694  12.808  10.253  11.210
 8534W        W73695  11.662   9.309   4.144
 8535W        W73696  17.618  13.384  11.423
 8536W        W73697  40.457  44.241  12.701
 8537W        W73698  39.400  21.661  13.075
 8538W        W73699   0.724  10.376   5.402
 8539W        W73700  22.005  20.697  14.907
 8540W        W73701  14.333  40.829  11.498
 8541W        W73702  41.400  38.544  14.943
 8542W        W73703  31.331  22.335   3.573
 8543W        W73704  37.349   7.414  13.528
 8544W        W73705  43.725  11.422   1.885
 8545W        W73706  21.626   6.288   1.296
 8546W        W73707  28.266  20.582  13.419
 8547W        W73708  36.051   7.699  12.129
 8548W        W73709  31.946   9.866  10.453
 8549W        W73710  29.420  12.638  11.574
 8550W        W73711  12.404  26.738  13.346
 8551W        W73712   5.738   9.516   4.075
 8552W        W73713  39.885  32.040   2.163
 8553W        W73714   0.507  41.429   0.700
 8554W        W73715  14.747  28.443   2.772
 8555W        W73716  12.318  34.075  11.523
 8556W        W73717  34.053  10.446  11.063
 8557W        W73718   6.075  42.501   0.039
 8558W        W73719  15.749  41.527   0.262
 8559W        W73720   4.013  33.689   2.711
 8560W        W73721  11.948  17.224  14.694
 8561W        W73722   1.589   8.155   3.574
 8562W        W73723  39.110   7.519   1.361
 8563W        W73724   7.314  33.213   3.167
 8564W        W73725  10.697  28.064  13.602
 8565W        W73726  22.130  37.834  11.571
 8566W        W73727  36.695   8.005  12.103
 8567W        W73728  20.125  18.016   0.855
 8568W        W73729  11.300  29.588  13.354
 8569W        W73730  37.015  37.390  14.689
 8570W        W73731  10.183   8.758   2.958
 8571W        W73732  25.982  10.832   2.801
 8572W        W73733  18.348  15.215   3.979
 8573W        W73734  11.780  30.191  14.034
 8574W        W73735  11.639  15.510  11.180
 8575W        W73736  12.079  12.164  12.065
 8576W        W73737  23.092   0.405  13.979
 8577W        W73738   3.389  43.468   0.895
 8578W        W73739  42.002  23.494  11.517
 8579W        W73740  29.496  34.030  14.790
 8580W        W73741  21.294  44.619  12.725
 8581W        W73742  28.036  35.038  12.939
 8582W        W73743  22.535   6.263  11.432
 8583W        W73744  14.347  26.441  11.544
 8584W        W73745  28.462   0.032   2.822
 8585W        W73746   0.992  22.726   2.263
 8586W        W73747  18.635  30.105  12.674
 8587W        W73748  28.568  37.913   9.412
 8588W        W73749  14.307  26.392  14.316
 8589W        W73750  16.044  11.447  13.015
 8590W        W73751  26.115  42.542  11.611
 8591W        W73752  39.525   5.878   3.821
 8592W        W73753  31.508   0.406  13.515
 8593W        W73754  18.580  37.600  10.453
 8594W        W73755  15.118  11.388   2.333
 8595W        W73756  41.474   2.960  11.987
 8596W        W73757  15.127   4.201   2.472
 8597W        W73758   4.453   7.955  13.968
 8598W        W73759   8.516  30.322  13.349
 8599W        W73760  22.740  34.136  10.655
 8600W        W73761   5.749   9.618  10.688
 8601W        W73762  11.903  34.517  14.023
 8602W        W73763   2.634  29.409   1.892
 8603W        W73764  21.667  20.238  11.617
 8604W        W73765   1.752  11.584  13.493
 8605W        W73766  15.659  33.440   3.227
 8606W        W73767  16.609   5.851   0.717
 8607W        W73768  43.164  14.757   2.271
 8608W        W73769  28.147  13.284  14.332
 8609W        W73770  13.928  30.149  11.111
 8610W        W73771  10.594  18.945   2.555
 8611W        W73772   4.671  10.223  12.989
 8612W        W73773  41.080  35.393   2.323
 8613W        W73774  32.088  27.183  13.175
 8614W        W73775   3.459   1.817  13.614
 8615W        W73776   1.179  44.818   2.224
 8616W        W73777  37.807  30.393   0.738
 8617W        W73778  31.646   0.389  12.500
 8618W        W73779   1.059  16.217   0.303
 8619W        W73780  15.680  39.105   1.322
 8620W        W73781  33.592  30.021   1.016
 8621W        W73782  24.542  33.094   4.671
 8622W        W73783  17.032  28.862   1.473
 8623W        W73784  15.028  14.811   0.261
 8624W        W73785  16.597   0.889   0.671
 8625W        W73786  31.524  24.025   1.452
 8626W        W73787  42.400   1.232   4.018
 8627W        W73788  17.519   8.319   2.738
 8628W        W73789  23.030  35.564  11.451
 8629W        W73790  33.390  37.415  13.544
 8630W        W73791  41.048  14.572   4.136
 8631W        W73792   7.712   7.723   3.247
 8632W        W73793  18.131   6.336   1.383
 8633W        W73794  24.031  23.300   5.276
 8634W        W73795   1.213  33.823   2.776
 8635W        W73796  26.696  23.185   9.554
 8636W        W73797  25.169  19.253  14.953
 8637W        W73798  19.450  38.304   0.633
 8638W        W73799  11.181  43.831  12.582
 8639W        W73800  37.515  35.397   0.708
 8640W        W73801  41.462  38.417   2.888
 8641W        W73802  27.848  12.381  12.033
 8642W        W73803  28.695  11.857   1.752
 8643W        W73804  20.137  22.627   0.244
 8644W        W73805  19.691  41.540   2.725
 8645W        W73806  34.978  14.791  10.676
 8646W        W73807  26.036   6.975  11.113
 8647W        W73808  35.235  21.247   2.223
 8648W        W73809  11.198  15.295   0.701
 8649W        W73810  33.655  26.164  14.513
 8650W        W73811  33.412  43.377  11.397
 8651W        W73812  22.694  15.726  12.460
 8652W        W73813  28.666   4.017  14.978
 8653W        W73814  30.963  35.550  11.253
 8654W        W73815  16.987  24.826   0.425
 8655W        W73816  25.480  15.941   4.326
 8656W        W73817   6.683  41.386  14.276
 8657W        W73818   8.898   2.680  14.415
 8658W        W73819  32.026  31.885   4.571
 8659W        W73820  16.117   4.257  13.324
 8660W        W73821  28.474  43.768   2.200
 8661W        W73822  26.648  37.005  12.890
 8662W        W73823   0.616  37.462   2.672
 8663W        W73824  40.601  12.764  13.331
 8664W        W73825   9.173  39.069  13.759
 8665W        W73826   2.931   5.410   0.435
 8666W        W73827  15.827   4.205   0.499
 8667W        W73828  33.859  24.424   9.817
 8668W        W73829  13.271  21.175  13.938
 8669W        W73830  38.743   4.502  12.609
 8670W        W73831  12.084  32.871  11.130
 8671W        W73832   0.041  10.361  13.457
 8672W        W73833  21.621  16.711  12.999
 8673W        W73834   2.484  11.183   2.222
 8674W        W73835   5.720  12.071  12.535
 8675W        W73836  35.888  39.874  13.123
 8676W        W73837  31.405  26.859  13.445
 8677W        W73838  22.430   8.925  10.943
 8678W        W73839  36.317  44.560  11.150
 8679W        W73840   8.608   2.372  11.127
 8680W        W73841  12.419  43.822   4.733
 8681W        W73842  33.388  20.031   2.715
 8682W        W73843  43.421  34.146  13.840
 8683W        W73844  36.837   2.328   1.200
 8684W        W73845  14.230  40.048  12.838
 8685W        W73846  13.883  32.110   3.965
 8686W        W73847  15.738  41.311  11.356
 8687W        W73848   7.664  40.839  13.304
 8688W        W73849   5.613  35.307   2.813
 8689W        W73850  20.467   6.759  13.569
 8690W        W73851  33.918  36.240  13.387
 8691W        W73852   0.836  36.428  14.476
 8692W        W73853   8.139  35.313  13.272
 8693W        W73854  32.776  20.764  10.767
 8694W        W73855  12.240   7.364   1.434
 8695W        W73856  20.844  10.235  14.965
 8696W        W73857  26.186  13.094   0.380
 8697W        W73858  32.030  16.939   4.607
 8698W        W73859  17.089  25.204   3.282
 8699W        W73860  31.678   8.405   1.467
 8700W        W73861  43.821  25.636   1.664
 8701W        W73862  38.311  31.535  11.505
 8702W        W73863   5.267  26.372   3.928
 8703W        W73864  10.563  44.448   3.599
 8704W        W73865  32.966  28.611   2.026
 8705W        W73866  43.770   3.417  12.507
 8706W        W73867  20.181   4.965   5.030
 8707W        W73868   0.300  38.262   4.214
 8708W        W73869  13.847   3.248  11.625
 8709W        W73870  33.896  10.353  10.562
 8710W        W73871  12.599   0.869  10.685
 8711W        W73872  36.906   3.482  13.315
 8712W        W73873  39.387  23.038  13.637
 8713W        W73874  11.415  29.974   4.097
 8714W        W73875  30.179   8.451  12.034
 8715W        W73876  28.426  42.966   4.422
 8716W        W73877  19.643   5.294  14.509
 8717W        W73878  39.420  12.677   4.109
 8718W        W73879  10.165  25.956   2.252
 8719W        W73880  31.420  16.293  10.795
 8720W        W73881  18.575  21.289   1.980
 8721W        W73882  18.654  27.106   4.069
 8722W        W73883  10.141   5.915   1.998
 8723W        W73884  29.939   8.692   4.072
 8724W        W73885  17.456  33.019  10.577
 8725W        W73886  25.271  31.476  11.551
 8726W        W73887  14.152  11.625   4.709
 8727W        W73888  14.673  26.791  14.283
 8728W        W73889  19.147  26.902   1.386
 8729W        W73890   7.505  22.186  13.041
 8730W        W73891  39.320  33.887   0.252
 8731W        W73892  43.497  17.119  10.169
 8732W        W73893  18.994  25.739  13.007
 8733W        W73894  15.944  11.691  14.875
 8734W        W73895  10.828  31.509   3.715
 8735W        W73896  23.402  22.517  11.190
 8736W        W73897  43.522  33.665   5.410
 8737W        W73898  33.369  11.730  12.912
 8738W        W73899  25.586  21.484   0.958
 8739W        W73900   2.003  15.299  11.322
 8740W        W73901  13.539  44.297  10.757
 8741W        W73902  34.074  19.086  11.681
 8742W        W73903   5.965  23.535   4.140
 8743W        W73904  18.870  40.246   3.156
 8744W        W73905   2.863  44.667   2.145
 8745W        W73906   5.220  29.767   0.667
 8746W        W73907  19.951   2.971   1.801
 8747W        W73908   0.260  33.668  13.023
 8748W        W73909  24.596  15.241  10.511
 8749W        W73910   0.693  40.971   3.380
 8750W        W73911   1.004  33.083  13.046
 8751W        W73912  20.304  19.728  10.556
 8752W        W73913   4.973  12.432  10.010
 8753W        W73914  16.852  29.437   1.472
 8754W        W73915  25.286   4.402   0.834
 8755W        W73916  19.795  19.233  11.972
 8756W        W73917  11.820  26.892   1.358
 8757W        W73918  29.938  10.985  14.458
 8758W        W73919  42.767  15.706   4.778
 8759W        W73920  42.001  11.939  13.958
 8760W        W73921  26.489   7.336  10.268
 8761W        W73922  25.174  43.428  12.169
 8762W        W73923  10.875  33.224   4.449
 8763W        W73924  41.848  35.804  12.959
 8764W        W73925   8.399  38.174  12.258
 8765W        W73926  12.740  40.718  11.149
 8766W        W73927   1.541  31.453   4.108
 8767W        W73928  27.643  42.533  12.961
 8768W        W73929  22.166  33.504  11.158
 8769W        W73930  39.970   8.108   4.693
 8770W        W73931  22.704  37.166  13.814
 8771W        W73932  37.115  30.594  11.581
 8772W        W73933  13.637   4.332   3.628
 8773W        W73934   4.256  39.786   3.721
 8774W        W73935  22.536   9.392  12.940
 8775W        W73936  15.873  26.437   0.356
 8776W        W73937  29.885  41.958   0.187
 8777W        W73938  29.750  24.751   2.195
 8778W        W73939  23.591  13.934   0.436
 8779W        W73940  35.036   6.338   1.493
 8780W        W73941  13.084  44.340  12.226
 8781W        W73942  27.135  30.539   4.553
 8782W        W73943  33.107  16.160  13.691
 8783W        W73944  41.661  42.714  11.670
 8784W        W73945  36.214  36.021   5.107
 8785W        W73946  40.643   2.185  12.961
 8786W        W73947   5.465  25.999  11.601
 8787W        W73948  31.304   2.223   1.943
 8788W        W73949  42.250  33.344   0.801
 8789W        W73950   0.766  32.579   4.874
 8790W        W73951  10.128  16.630   2.703
 8791W        W73952  16.245  34.802   4.213
 8792W        W73953  35.475  14.334   4.458
 8793W        W73954  37.995  31.589   0.949
 8794W        W73955   9.950  36.471  12.691
 8795W        W73956  40.100  35.958   4.048
 8796W        W73957   3.751   6.333   4.473
 8797W        W73958  21.284  34.696   4.756
 8798W        W73959  10.598  23.222  10.461
 8799W        W73960  27.909  20.917  13.575
 8800W        W73961  29.464  15.808  13.529
 8801W        W73962  16.312  28.099  12.526
 8802W        W73963  32.037   3.025   3.946
 8803W        W73964  38.911  14.313  11.165
 8804W        W73965   5.718  41.487   4.387
 8805W        W73966  42.856  26.583  10.392
 8806W        W73967  42.562  23.151   0.836
 8807W        W73968  42.175  26.418   2.797
 8808W        W73969  14.611  13.867   2.777
 8809W        W73970  40.426  23.511   1.235
 8810W        W73971  13.198  22.128   4.659
 8811W        W73972   3.263  43.537  14.488
 8812W        W73973  14.131  29.541  13.070
 8813W        W73974  37.956  16.309   1.335
 8814W        W73975   8.161   6.440  10.470
 8815W        W73976   1.909  27.092  13.529
 8816W        W73977  17.377  19.259  13.559
 8817W        W73978   5.251  21.625   0.288
 8818W        W73979   1.280  28.137  12.952
 8819W        W73980  38.007   7.163  11.476
 8820W        W73981  34.640   7.174  12.870
 8821W        W73982  34.661  41.537  10.878
 8822W        W73983  27.485  18.842   4.780
 8823W        W73984  17.804  20.510  10.954
 8824W        W73985  24.092  16.245   2.805
 8825W        W73986  19.412  18.627  13.945
 8826W        W73987  17.743  12.866  12.492
 8827W        W73988   1.740  19.517   2.205
 8828W        W73989  22.744  18.701  11.645
 8829W        W73990   3.892   8.172  14.580
 8830W        W73991  17.334  34.654  12.928
 8831W        W73992  29.897  11.341   4.028
 8832W        W73993   2.993  22.661   0.474
 8833W        W73994  22.987  31.347  11.075
 8834W        W73995  10.268  26.456  10.763
 8835W        W73996  37.374  43.522   3.119
 8836W        W73997   2.449   5.030  14.844
 8837W        W73998   2.964  12.178   4.973
 8838W        W73999  16.748  43.301  11.933
 8839W        W74000   6.992  39.844   3.325
 8840W        W74001  43.916  25.216  12.984
 8841W        W74002   6.879  20.111   3.180
 8842W        W74003  32.239  19.959  13.847
 8843W        W74004  32.617  32.547   2.306
 8844W        W74005  13.325  20.766   4.744
 8845W        W74006  37.801  43.020   0.672
 8846W        W74007   2.355  41.811   1.281
 8847W        W74008  40.959  40.336  14.425
 8848W        W74009  37.509  32.381  10.577
 8849W        W74010   1.894  39.675   0.099
 8850W        W74011  10.426   9.144   2.248
 8851W        W74012  18.232  26.554   4.980
 8852W        W74013   1.290  31.317  11.530
 8853W        W74014  22.570  24.485  11.941
 8854W        W74015  19.742  19.067   1.925
 8855W        W74016  15.460  24.374  14.838
 8856W        W74017   1.885   1.308  14.822
 8857W        W74018  39.241   9.429  10.760
 8858W        W74019  30.730   4.324   2.224
 8859W        W74020  22.007  16.151   1.776
 8860W        W74021  18.846  34.170   0.857
 8861W        W74022  12.205  44.419   2.359
 8862W        W74023  43.531   1.841   2.337
 8863W        W74024  40.295  24.642   4.911
 8864W        W74025  19.698  29.039   3.396
 8865W        W74026  20.183  39.277   0.675
 8866W        W74027  18.344  21.875   0.378
 8867W        W74028  16.747  21.375   2.245
 8868W        W74029  17.064  17.726  12.024
 8869W        W74030  44.928  24.249   1.380
 8870W        W74031  35.381  31.906  10.712
 8871W        W74032  44.281  29.928  12.854
 8872W        W74033   9.048   6.273   5.055
 8873W        W74034  35.103   3.226  12.180
 8874W        W74035  15.412  23.943   1.254
 8875W        W74036  11.744  27.011  12.107
 8876W        W74037  10.220  38.294   1.617
 8877W        W74038   4.850  36.587   3.733
 8878W        W74039   4.711  22.065   2.662
 8879W        W74040  33.030  17.659   4.904
 8880W        W74041  26.591   2.481  13.857
 8881W        W74042  24.958   3.279   4.562
 8882W        W74043  24.531   0.327  12.604
 8883W        W74044  29.531  15.697   4.808
 8884W        W74045  33.621  42.604   3.704
 8885W        W74046  30.487   7.395   2.293
 8886W        W74047  24.137   5.920   4.504
 8887W        W74048   8.785   1.340   0.188
 8888W        W74049  36.839  18.549   3.680
 8889W        W74050  33.523   8.701  11.615
 8890W        W74051  15.677  26.961   1.048
 8891W        W74052   5.994  21.101   1.327
 8892W        W74053  43.823  11.989   4.258
 8893W        W74054  26.684  28.429   4.246
 8894W        W74055  23.006  14.822  14.780
 8895W        W74056  14.360   7.672  14.597
 8896W        W74057  32.510   4.151  12.114
 8897W        W74058  19.152  10.465  10.318
 8898W        W74059   4.366  22.980  11.183
 8899W        W74060   2.776  12.723  13.861
 8900W        W74061  34.120  43.836  14.445
 8901W        W74062  17.102  28.452   0.699
 8902W        W74063  42.210   2.635  14.709
 8903W        W74064  15.543   2.605   5.077
 8904W        W74065  33.713  13.668   2.751
 8905W        W74066  30.077   3.407   3.849
 8906W        W74067  22.052   1.657   3.899
 8907W        W74068  32.019  17.066  11.885
 8908W        W74069  41.038  39.578   4.489
 8909W        W74070  10.732   9.977   0.359
 8910W        W74071   7.339  34.591   3.681
 8911W        W74072  20.193  31.509  12.708
 8912W        W74073  37.903   0.039  12.973
 8913W        W74074  40.387  44.782   2.219
 8914W        W74075  38.442  36.424   3.603
 8915W        W74076   4.040   2.719   1.322
 8916W        W74077  21.228  44.271   4.556
 8917W        W74078  15.873   2.676   4.202
 8918W        W74079   8.913  21.795   2.281
 8919W        W74080   7.051   3.554  12.277
 8920W        W74081  14.810  25.561  11.472
 8921W        W74082   4.568   4.118  12.567
 8922W        W74083  31.166  34.191   4.923
 8923W        W74084  40.502  26.727   1.961
 8924W        W74085  11.269  14.597   3.303
 8925W        W74086  29.631  27.220  11.534
 8926W        W74087  31.527  17.062   1.898
 8927W        W74088  37.554  33.404   0.679
 8928W        W74089  16.018  31.089  13.450
 8929W        W74090  29.159  13.110  14.263
 8930W        W74091  27.126  10.330  11.043
 8931W        W74092  35.091  42.387  13.132
 8932W        W74093  31.362  28.327  12.565
 8933W        W74094  19.127  44.107   5.415
 8934W        W74095  10.706  13.846   1.177
 8935W        W74096  17.648  27.688  11.102
 8936W        W74097   4.712  34.871   4.741
 8937W        W74098   1.570   0.929   2.599
 8938W        W74099  25.662   4.969   1.478
 8939W        W74100   0.214  11.754  13.562
 8940W        W74101  22.514  14.359   3.743
 8941W        W74102  30.518  44.383   4.979
 8942W        W74103   7.132  22.149  13.452
 8943W        W74104   0.260  17.262  11.117
 8944W        W74105  19.693  23.617   5.004
 8945W        W74106  34.581   5.903   3.067
 8946W        W74107  13.250  32.640   4.096
 8947W        W74108  31.875  41.060  11.297
 8948W        W74109  44.470  37.645   5.691
 8949W        W74110   8.822  41.346  12.943
 8950W        W74111  40.628   2.969   3.686
 8951W        W74112  27.391  22.781  14.056
 8952W        W74113  24.395  25.637   0.921
 8953W        W74114  37.984  19.104  12.100
 8954W        W74115  27.966   5.485   2.796
 8955W        W74116  39.158  15.117   3.248
 8956W        W74117   1.760  43.282  13.800
 8957W        W74118   3.773  31.693   0.313
 8958W        W74119  33.983  37.557   4.555
 8959W        W74120  14.151  41.431   4.562
 8960W        W74121  24.273   2.253  11.853
 8961W        W74122  28.237   7.400   0.973
 8962W        W74123  36.527  21.783   2.691
 8963W        W74124   7.381  23.569  13.069
 8964W        W74125  17.288  33.372   1.660
 8965W        W74126  17.913   3.988  11.190
 8966W        W74127  43.442  28.891   0.701
 8967W        W74128   8.377  21.638  10.664
 8968W        W74129  30.433  38.455  13.887
 8969W        W74130  12.383   3.813   0.841
 8970W        W74131  16.559   6.627  13.695
 8971W        W74132  35.452  19.042  11.173
 8972W        W74133  23.396  44.641   0.864
 8973W        W74134  30.983  11.573   2.967
 8974W        W74135   7.089  14.437   0.494
 8975W        W74136   0.681   5.755  11.618
 8976W        W74137   7.909  18.313  11.142
 8977W        W74138   7.909   2.835   0.734
 8978W        W74139   6.331  16.650   9.892
 8979W        W74140  40.780  39.352  13.389
 8980W        W74141  33.187  20.224   1.380
 8981W        W74142  38.597  43.808   4.680
 8982W        W74143  23.594  35.283   4.572
 8983W        W74144   0.703  16.081  12.975
 8984W        W74145  31.546   8.438   0.521
 8985W        W74146   8.193  41.299   2.153
 8986W        W74147  23.835   4.036   3.541
 8987W        W74148  21.090  31.101   0.755
 8988W        W74149  20.077  36.930  11.542
 8989W        W74150  40.758   8.407   1.402
 8990W        W74151   2.205   8.553   3.690
 8991W        W74152  18.553  42.895   1.806
 8992W        W74153   6.738   4.752   2.547
 8993W        W74154   3.980  11.402   4.599
 8994W        W74155  22.232   9.797   3.581
 8995W        W74156  19.790  44.742  12.296
 8996W        W74157  18.136  19.413   4.094
 8997W        W74158   9.164  20.288   3.646
 8998W        W74159  10.394  40.562   0.277
 8999W        W74160  33.434   8.401   1.353
 9000W        W74161  12.935  39.732  14.875
 9001W        W74162   5.785   4.821  11.199
 9002W        W74163  32.037  15.853   2.524
 9003W        W74164  18.519  21.516   3.193
 9004W        W74165  12.387  37.431  11.621
 9005W        W74166  28.340  29.154   2.584
 9006W        W74167  16.289  29.949   0.458
 9007W        W74168  15.122  25.626  13.557
 9008W        W74169  31.562   4.972   2.257
 9009W        W74170  30.963  17.248  13.822
 9010W        W74171   8.785  38.247  14.931
 9011W        W74172  29.100  31.441   1.344
 9012W        W74173  11.143  12.413  11.186
 9013W        W74174  22.798  31.397  13.074
 9014W        W74175   5.867  29.893  12.108
 9015W        W74176   6.893  18.998   0.255
 9016W        W74177  32.465  36.079   0.879
 9017W        W74178  16.217  44.217  13.924
 9018W        W74179   7.871   3.479   3.309
 9019W        W74180   5.506  24.606   4.149
 9020W        W74181  23.019   8.915   1.634
 9021W        W74182  42.270   1.591  14.010
 9022W        W74183  23.465   0.042   4.075
 9023W        W74184  17.666   4.899   3.588
 9024W        W74185  13.057  24.136   3.321
 9025W        W74186  20.097   4.521  14.343
 9026W        W74187  13.612   6.294  14.092
 9027W        W74188  36.188  42.959   1.115
 9028W        W74189  27.886  41.279   0.859
 9029W        W74190   3.872  31.501  12.114
 9030W        W74191  35.921  36.437  13.111
 9031W        W74192  15.121  27.558  10.537
 9032W        W74193  16.236  23.197  12.619
 9033W        W74194   0.872  16.824   2.440
 9034W        W74195   6.479  43.288   0.878
 9035W        W74196   3.403  11.853   1.196
 9036W        W74197  36.530  35.011   2.476
 9037W        W74198  38.482  18.029   3.263
 9038W        W74199   8.354   4.964   0.836
 9039W        W74200   1.922  23.236   2.350
 9040W        W74201  31.770  14.143   2.350
 9041W        W74202   7.790  44.044   3.655
 9042W        W74203   2.636   5.265  12.585
 9043W        W74204  30.263  12.718   3.007
 9044W        W74205  10.927  15.160   0.286
 9045W        W74206  32.943  40.734  11.226
 9046W        W74207   7.884  16.084  10.912
 9047W        W74208  17.812  14.609   0.789
 9048W        W74209  11.352  18.031   1.592
 9049W        W74210  24.088  11.775   0.763
 9050W        W74211   9.769  44.923   3.297
 9051W        W74212  33.128   0.905  10.817
 9052W        W74213  30.997  14.226  14.062
 9053W        W74214  32.659  39.840   0.225
 9054W        W74215  17.736   9.472   1.681
 9055W        W74216   4.343  28.723  12.151
 9056W        W74217  17.842  10.327   0.804
 9057W        W74218  12.663  35.420   3.588
 9058W        W74219  33.123  30.465  14.671
 9059W        W74220   0.776  20.702   2.568
 9060W        W74221  16.859  42.506  13.350
 9061W        W74222   7.683   5.873  14.427
 9062W        W74223  41.577  21.350  11.167
 9063W        W74224  10.706  17.345   2.305
 9064W        W74225  29.083   4.810   4.571
 9065W        W74226  30.908  19.639  14.790
 9066W        W74227  16.547  33.909  14.061
 9067W        W74228  36.491   2.196   2.091
 9068W        W74229  41.946  17.559   3.859
 9069W        W74230  22.548   4.668  13.550
 9070W        W74231   6.567  12.180  14.359
 9071W        W74232  31.344  31.939  11.702
 9072W        W74233   7.174  44.368  10.551
 9073W        W74234  21.613   8.912  12.959
 9074W        W74235   2.900  33.333  13.019
 9075W        W74236  25.060  27.274  12.895
 9076W        W74237  18.969  31.814  12.636
 9077W        W74238  41.995   6.935   4.325
 9078W        W74239  16.661  26.506   3.069
 9079W        W74240  20.750  23.605   1.242
 9080W        W74241   7.137  35.854  14.274
 9081W        W74242  41.157  27.194   3.454
 9082W        W74243  38.945  21.647   4.847
 9083W        W74244   9.784  21.886  10.804
 9084W        W74245  23.131  43.336  12.965
 9085W        W74246  22.728  44.736  12.498
 9086W        W74247   4.977  22.512   3.422
 9087W        W74248  22.441  34.605  11.539
 9088W        W74249  13.915   5.228  11.768
 9089W        W74250  38.442  18.030   4.683
 9090W        W74251  29.534  24.554   2.603
 9091W        W74252   8.848  24.497   4.365
 9092W        W74253   8.713  18.716  14.386
 9093W        W74254  12.168  36.553  13.793
 9094W        W74255  34.443  29.919   0.426
 9095W        W74256  33.382   9.775   4.160
 9096W        W74257  34.346  22.534  14.425
 9097W        W74258  28.381  12.344  11.171
 9098W        W74259  32.631  44.387  14.934
 9099W        W74260  15.567  11.611   2.236
 9100W        W74261  24.649  24.494   2.778
 9101W        W74262  32.583  25.564  13.159
 9102W        W74263  36.634  40.438   1.380
 9103W        W74264  42.215  21.382   0.250
 9104W        W74265  14.841  21.532   4.166
 9105W        W74266   9.850   5.866  13.918
 9106W        W74267   6.774   4.968  14.847
 9107W        W74268   0.439  10.294  12.884
 9108W        W74269  28.508   8.827   3.621
 9109W        W74270  43.326  31.491  10.799
 9110W        W74271  10.349  36.986  10.609
 9111W        W74272   6.723   4.187  13.589
 9112W        W74273  19.635   7.947  13.302
 9113W        W74274   4.869  30.170   0.572
 9114W        W74275  29.963  14.899  11.594
 9115W        W74276  35.997  20.313  11.157
 9116W        W74277   3.238  16.375   3.629
 9117W        W74278  28.743  13.695   3.498
 9118W        W74279   1.031   8.122  11.517
 9119W        W74280  21.254  13.724   3.148
 9120W        W74281  38.550  28.901   2.848
 9121W        W74282  11.670  14.136  14.295
 9122W        W74283  27.514   8.665   2.288
 9123W        W74284   5.777  27.753   4.958
 9124W        W74285  34.954  20.090   1.877
 9125W        W74286   3.309  25.726  14.821
 9126W        W74287  43.624   3.048  14.285
 9127W        W74288   2.271  19.762  12.054
 9128W        W74289  34.411  25.731   4.420
 9129W        W74290  18.709   1.304  11.444
 9130W        W74291  36.938  29.165  11.594
 9131W        W74292  23.943  36.001   2.806
 9132W        W74293  44.040  21.081  14.514
 9133W        W74294   3.897   2.424  12.036
 9134W        W74295  20.722  29.152  11.158
 9135W        W74296  38.749  41.370   2.747
 9136W        W74297  24.234  30.473   3.533
 9137W        W74298   4.450  14.448   4.141
 9138W        W74299   4.264  41.686   3.257
 9139W        W74300  32.321  11.038   0.864
 9140W        W74301   5.599   7.169   2.446
 9141W        W74302   9.643   2.751   4.471
 9142W        W74303  40.610   2.898  11.761
 9143W        W74304   5.295   3.561  11.546
 9144W        W74305  18.378  14.903  10.324
 9145W        W74306  35.174  24.676  11.915
 9146W        W74307  33.875   1.206   0.812
 9147W        W74308  36.906   6.162  14.772
 9148W        W74309   2.815   2.515   1.421
 9149W        W74310  25.484  12.131   2.429
 9150W        W74311   5.456  19.244  14.744
 9151W        W74312   5.886  36.018  14.854
 9152W        W74313   5.741  35.507   1.530
 9153W        W74314  10.364  26.385  13.046
 9154W        W74315  19.799  26.902   3.764
 9155W        W74316   3.929  18.664  12.439
 9156W        W74317  38.900  17.812  14.548
 9157W        W74318  32.032  29.122  12.652
 9158W        W74319  38.865  38.341   3.633
 9159W        W74320   2.241  32.674   0.899
 9160W        W74321  20.168  30.470   2.680
 9161W        W74322  18.808  43.765   4.206
 9162W        W74323  11.278  34.129   3.662
 9163W        W74324   4.688   8.823   1.656
 9164W        W74325  22.727  29.835   4.317
 9165W        W74326  38.312  40.563  10.653
 9166W        W74327  11.642   8.199  12.957
 9167W        W74328  42.884  14.198  12.308
 9168W        W74329   6.495   0.276   3.815
 9169W        W74330  39.407  33.119  11.685
 9170W        W74331   3.845  44.725   3.719
 9171W        W74332  23.598  34.325   0.165
 9172W        W74333  37.256  20.170   4.164
 9173W        W74334  36.512  38.836   2.327
 9174W        W74335  11.396  17.518   0.780
 9175W        W74336  15.782  21.756  11.653
 9176W        W74337   7.466  41.343   4.085
 9177W        W74338  28.573  10.650   0.174
 9178W        W74339  37.130  13.656  13.501
 9179W        W74340  36.224   1.482   1.805
 9180W        W74341   3.948  24.242  11.598
 9181W        W74342   9.367  42.986  13.667
 9182W        W74343  40.892  22.663  14.205
 9183W        W74344  27.732  10.046  12.790
 9184W        W74345  32.668  24.576   0.767
 9185W        W74346  39.580  30.987  14.354
 9186W        W74347   6.943  36.258  13.476
 9187W        W74348  34.464  18.066  14.723
 9188W        W74349   3.258  18.370   4.045
 9189W        W74350   1.335  28.522   0.330
 9190W        W74351  18.596   1.943   1.994
 9191W        W74352  24.200   2.192  10.559
 9192W        W74353  28.829   5.534   2.679
 9193W        W74354   2.337  18.000  13.402
 9194W        W74355  10.145  31.659  11.668
 9195W        W74356  36.520   6.821   1.418
 9196W        W74357  40.325  37.608  11.498
 9197W        W74358  13.854  25.033  10.992
 9198W        W74359  10.758   3.488  12.006
 9199W        W74360  19.332   9.430   3.805
 9200W        W74361  21.110   1.409  12.836
 9201W        W74362   8.444  16.394   3.645
 9202W        W74363  35.014  11.407   4.249
 9203W        W74364  20.728  38.212   3.944
 9204W        W74365  27.239  29.559   2.017
 9205W        W74366  40.728  11.143   0.084
 9206W        W74367  21.416  43.969  11.064
 9207W        W74368  38.108   1.779  12.100
 9208W        W74369  20.589  44.564   3.305
 9209W        W74370  12.102  35.483  11.533
 9210W        W74371  19.345   3.987   3.803
 9211W        W74372  19.798  33.481  10.859
 9212W        W74373  44.269   0.730  12.507
 9213W        W74374  36.916  37.244  11.354
 9214W        W74375  28.632  11.670   0.848
 9215W        W74376  27.061  36.377   0.655
 9216W        W74377  44.116  23.248  14.093
 9217W        W74378  10.683  20.605   4.399
 9218W        W74379  24.707  20.092   1.350
 9219W        W74380  25.072  24.805  12.286
 9220W        W74381  32.973  26.127   1.854
 9221W        W74382  25.001  44.423  13.303
 9222W        W74383  43.262   0.530  11.167
 9223W        W74384  27.545  31.902   0.857
 9224W        W74385  10.120  27.611  12.435
 9225W        W74386  31.952  42.885  13.755
 9226W        W74387  10.055  24.680   0.780
 9227W        W74388   8.940  10.718  10.651
 9228W        W74389  13.146  44.670   1.730
 9229W        W74390  34.487  32.009  11.528
 9230W        W74391  20.547  31.098   1.006
 9231W        W74392  14.230  19.455   1.047
 9232W        W74393   4.674   8.612  11.643
 9233W        W74394  23.764  19.833   2.232
 9234W        W74395  30.468  42.981   1.378
 9235W        W74396   2.080   1.794  10.797
 9236W        W74397  20.851  25.124  12.115
 9237W        W74398  28.069  43.030  14.579
 9238W        W74399  36.235   9.313   4.547
 9239W        W74400  25.562   3.801   3.867
 9240W        W74401  43.948  29.935   1.345
 9241W        W74402  32.215   6.405   5.045
 9242W        W74403  41.401  40.804  12.220
 9243W        W74404  34.154   6.086   1.280
 9244W        W74405  28.138  36.602   3.683
 9245W        W74406   0.986  19.803  13.044
 9246W        W74407  38.748  26.936  13.119
 9247W        W74408  20.110  39.238   4.775
 9248W        W74409  26.446  11.793   2.782
 9249W        W74410  25.732  36.794   9.769
 9250W        W74411  13.652   7.276  13.445
 9251W        W74412   5.895  39.088   3.752
 9252W        W74413   4.920  18.747   2.813
 9253W        W74414   1.952  41.641  14.788
 9254W        W74415   5.767  42.332   1.943
 9255W        W74416  15.847  11.648  11.126
 9256W        W74417  21.132  40.400   4.304
 9257W        W74418  25.605  38.810   2.610
 9258W        W74419  21.014  21.764  14.557
 9259W        W74420  14.681  44.780  13.169
 9260W        W74421  23.193  18.042  13.854
 9261W        W74422  23.123  34.379   2.008
 9262W        W74423  37.987  44.315  13.709
 9263W        W74424  38.317  30.357   1.943
 9264W        W74425  19.976  42.256  13.848
 9265W        W74426   8.642  25.076  10.479
 9266W        W74427  34.080  24.206   0.717
 9267W        W74428  32.673  26.190   0.953
 9268W        W74429  25.918  35.815  13.351
 9269W        W74430  23.202   0.667   0.297
 9270W        W74431  37.525  43.524  11.534
 9271W        W74432  34.512  26.926  10.489
 9272W        W74433  26.758   1.694   0.490
 9273W        W74434  11.885   9.172   2.671
 9274W        W74435   6.340   1.446   1.654
 9275W        W74436  19.177  12.105  14.960
 9276W        W74437  21.224   8.827  10.789
 9277W        W74438  35.042   0.521  11.194
 9278W        W74439  13.721  43.478  11.045
 9279W        W74440   0.484  17.570   1.762
 9280W        W74441   6.502  30.105   2.211
 9281W        W74442   2.595  22.867   4.242
 9282W        W74443   5.362  28.828   0.401
 9283W        W74444  17.931  38.135   1.322
 9284W        W74445  19.695  28.073  13.792
 9285W        W74446   8.832   7.498   3.642
 9286W        W74447  25.766   1.894   2.145
 9287W        W74448  11.850  33.098   4.766
 9288W        W74449  44.334  14.557   3.026
 9289W        W74450  16.068   1.863   4.692
 9290W        W74451  43.453  40.575  12.088
 9291W        W74452  42.738  10.148  10.617
 9292W        W74453  43.039   9.392  12.062
 9293W        W74454   0.931   9.325   1.333
 9294W        W74455  26.525  12.554   3.341
 9295W        W74456  22.664  38.562  10.675
 9296W        W74457  11.201  17.993   0.686
 9297W        W74458  19.589   9.177   0.140
 9298W        W74459  24.616  29.044   0.228
 9299W        W74460  21.008  24.062  13.305
 9300W        W74461  25.207  25.961  14.980
 9301W        W74462  12.076   2.401   3.868
 9302W        W74463  22.141   6.849   0.181
 9303W        W74464   1.779  36.622  13.521
 9304W        W74465  44.416  23.406   2.737
 9305W        W74466  20.145   5.933  12.868
 9306W        W74467  18.555  44.558   3.525
 9307W        W74468  36.915  43.234  14.632
 9308W        W74469  44.534  34.901  11.502
 9309W        W74470  14.710  18.850   2.382
 9310W        W74471   1.520  21.904   4.636
 9311W        W74472   2.723  16.103   1.870
 9312W        W74473   3.486  22.203  12.569
 9313W        W74474  15.121  24.255  13.264
 9314W        W74475  38.950  31.554  13.904
 9315W        W74476  40.451  20.211  13.879
 9316W        W74477   3.012   7.852  13.857
 9317W        W74478  38.852  19.675   1.829
 9318W        W74479  13.201  40.621   2.216
 9319W        W74480  27.764  13.696  13.530
 9320W        W74481  14.831   7.832  14.782
 9321W        W74482  13.635   9.665   3.684
 9322W        W74483   3.236  16.288  10.018
 9323W        W74484  26.703  22.074   3.786
 9324W        W74485  30.522   0.986   3.621
 9325W        W74486  43.056  29.479   3.765
 9326W        W74487   4.321  12.325  13.104
 9327W        W74488  29.437  41.236  14.598
 9328W        W74489  15.952   5.251  13.097
 9329W        W74490  30.102  22.807   2.203
 9330W        W74491  22.632  29.024  10.580
 9331W        W74492   6.147  18.887  12.470
 9332W        W74493  28.557  10.529   2.847
 9333W        W74494  36.408  33.940   2.763
 9334W        W74495   8.986  43.962  13.681
 9335W        W74496  40.980  32.578  10.951
 9336W        W74497  40.952   3.870  11.472
 9337W        W74498  11.588   3.873  12.027
 9338W        W74499  14.670  36.348   3.588
 9339W        W74500  21.013  37.346   2.870
 9340W        W74501  28.042   2.400  13.987
 9341W        W74502   8.564   9.787   2.158
 9342W        W74503   2.990  27.581   3.731
 9343W        W74504  27.745   4.039  12.722
 9344W        W74505  41.913  16.664   3.734
 9345W        W74506  25.698  31.501   2.477
 9346W        W74507  40.956  34.398  13.374
 9347W        W74508  33.995  15.117   4.647
 9348W        W74509  24.487  14.059   0.490
 9349W        W74510  22.242  12.323   2.739
 9350W        W74511  42.931  17.099  12.843
 9351W        W74512  18.101  20.874   3.644
 9352W        W74513  38.824  13.817  13.472
 9353W        W74514  39.456  22.571   2.311
 9354W        W74515  22.086  38.045   4.163
 9355W        W74516  28.202  36.249  10.965
 9356W        W74517  17.502   7.430   1.900
 9357W        W74518  22.893  28.045   2.422
 9358W        W74519  34.090   1.474  12.160
 9359W        W74520  17.136  26.570  14.908
 9360W        W74521  15.868  34.164   2.830
 9361W        W74522  17.802  15.657  14.053
 9362W        W74523   7.070  36.109  12.587
 9363W        W74524   3.162  38.609   2.891
 9364W        W74525  35.194  40.072   2.423
 9365W        W74526  13.033  40.514  13.732
 9366W        W74527  34.369  31.140   3.571
 9367W        W74528  37.434   3.251   4.338
 9368W        W74529  31.298  24.117   0.991
 9369W        W74530  12.217  24.206   1.890
 9370W        W74531  16.143  11.571  11.582
 9371W        W74532  16.037  33.863  13.998
 9372W        W74533   4.880  39.376  12.547
 9373W        W74534  36.454   0.765  12.126
 9374W        W74535  16.118  30.520  13.948
 9375W        W74536  40.303   8.617  11.026
 9376W        W74537  36.435  24.578  10.561
 9377W        W74538  37.871   8.563   0.959
 9378W        W74539  21.947  24.814   0.255
 9379W        W74540  33.617  12.636   1.795
 9380W        W74541   2.886  27.178  11.774
 9381W        W74542   5.189  43.949  12.340
 9382W        W74543  10.113   0.643   0.339
 9383W        W74544  23.835  15.553  12.892
 9384W        W74545  24.207  24.211  14.052
 9385W        W74546  15.539  25.428  11.146
 9386W        W74547  25.596  24.978  12.576
 9387W        W74548  27.410  29.479   3.359
 9388W        W74549  10.536  30.700  14.815
 9389W        W74550  21.825  40.601  11.830
 9390W        W74551  33.406  28.074   4.771
 9391W        W74552  34.065  41.563   3.178
 9392W        W74553   6.966  33.435   2.727
 9393W        W74554  37.738  30.657   2.841
 9394W        W74555   9.193  31.697  13.412
 9395W        W74556  19.812  31.978   4.077
 9396W        W74557  37.470   7.409   3.725
 9397W        W74558  27.207  35.033   4.820
 9398W        W74559  24.488  43.358   0.435
 9399W        W74560  36.163   0.915   3.240
 9400W        W74561   1.198  14.119   2.247
 9401W        W74562  28.184  27.573   0.764
 9402W        W74563  29.629  10.707  10.547
 9403W        W74564  30.045  27.914   2.920
 9404W        W74565  22.523  35.999   4.941
 9405W        W74566  36.066  41.799   0.765
 9406W        W74567   1.404  28.451   1.472
 9407W        W74568  16.694  41.540   5.067
 9408W        W74569  32.927   8.362  13.349
 9409W        W74570  19.974  13.795  10.552
 9410W        W74571  35.580  27.870  10.876
 9411W        W74572  42.727  26.704   2.204
 9412W        W74573   3.744  38.750   0.348
 9413W        W74574   6.826  28.549   2.351
 9414W        W74575  18.247  27.082  12.016
 9415W        W74576  12.595  15.722  12.884
 9416W        W74577  28.991   4.446  11.529
 9417W        W74578  36.896   8.229   1.263
 9418W        W74579   2.411  19.674  11.165
 9419W        W74580  43.383  11.915   2.065
 9420W        W74581  26.239  12.589  13.003
 9421W        W74582   8.908  14.740   5.076
 9422W        W74583   0.437  40.494  10.638
 9423W        W74584  18.196  10.608   2.700
 9424W        W74585  28.448  13.176   1.407
 9425W        W74586  39.868   5.837  11.865
 9426W        W74587  15.790  41.805  14.249
 9427W        W74588  38.600  10.947  11.848
 9428W        W74589   1.248   1.857   1.605
 9429W        W74590  29.957  16.279  10.754
 9430W        W74591  15.835  20.634   3.273
 9431W        W74592  36.823  23.232  12.585
 9432W        W74593  41.454  39.783   1.413
 9433W        W74594  40.045   0.440  14.692
 9434W        W74595  10.957   3.285  13.582
 9435W        W74596  13.208   0.949   0.369
 9436W        W74597  19.498  40.839   0.303
 9437W        W74598  44.271   5.016  12.674
 9438W        W74599  34.936  24.098  14.291
 9439W        W74600  35.060  39.692  11.596
 9440W        W74601  22.300  21.184  13.911
 9441W        W74602  38.976  44.646  10.663
 9442W        W74603  12.238  21.808   1.367
 9443W        W74604  16.692  21.232  11.472
 9444W        W74605  34.411  35.411  14.784
 9445W        W74606  35.123   6.383  11.670
 9446W        W74607  44.080  20.982   3.271
 9447W        W74608   2.294  39.588   1.228
 9448W        W74609  32.851  29.217  14.837
 9449W        W74610  40.796   2.255   1.903
 9450W        W74611  34.639   6.146   4.600
 9451W        W74612  39.388  25.960   2.876
 9452W        W74613  11.718  24.290   0.412
 9453W        W74614  40.922   4.847   3.546
 9454W        W74615   1.407  17.100  13.472
 9455W        W74616  38.413   2.724  13.360
 9456W        W74617  38.608  37.003   0.843
 9457W        W74618  28.447  34.688   2.729
 9458W        W74619  39.581  38.902  14.380
 9459W        W74620  41.950  41.376  12.437
 9460W        W74621  10.695  39.087   1.501
 9461W        W74622  40.748   8.960   2.540
 9462W        W74623   9.246  12.019  12.922
 9463W        W74624  19.560   6.154   4.138
 9464W        W74625  44.889  23.003  10.875
 9465W        W74626  11.605  43.485   3.276
 9466W        W74627  27.576  43.968   0.870
 9467W        W74628  43.287  33.589  14.998
 9468W        W74629   9.878   9.789   0.404
 9469W        W74630  28.598  26.052   9.779
 9470W        W74631  35.719   9.943   1.276
 9471W        W74632   8.042  12.770   4.282
 9472W        W74633  11.106  30.859  14.253
 9473W        W74634   2.774  30.817   1.921
 9474W        W74635  31.460  27.704  14.070
 9475W        W74636  42.387  17.704   4.182
 9476W        W74637  15.978  30.523   3.325
 9477W        W74638  32.608   8.360   1.929
 9478W        W74639  18.225  28.665   2.115
 9479W        W74640  29.087   8.361   4.092
 9480W        W74641  13.644  39.784  11.140
 9481W        W74642  12.034  37.177  13.157
 9482W        W74643  19.008  22.788   5.060
 9483W        W74644  38.562   3.314   3.120
 9484W        W74645   7.270   6.437  10.994
 9485W        W74646   3.330  41.013   4.843
 9486W        W74647  23.113   2.193  11.209
 9487W        W74648  32.160   9.802  12.941
 9488W        W74649  29.391  19.114  13.903
 9489W        W74650  28.521  18.057  14.946
 9490W        W74651  32.187  44.804  11.806
 9491W        W74652  25.064  30.296  11.494
 9492W        W74653   4.706   4.343   1.387
 9493W        W74654   4.304  25.521   0.188
 9494W        W74655  35.915  15.179   3.400
 9495W        W74656  32.564  16.059  14.339
 9496W        W74657   0.866  19.264   4.597
 9497W        W74658   2.292  39.369  11.546
 9498W        W74659   2.393  17.242  12.361
 9499W        W74660  18.837  40.985  11.566
 9500W        W74661  37.217   7.940   2.298
 9501W        W74662  25.023  16.602   3.591
 9502W        W74663  14.604   6.221   4.575
 9503W        W74664  39.844  20.550   0.795
 9504W        W74665  10.911  40.796  11.585
 9505W        W74666  28.982  39.160   2.777
 9506W        W74667  42.318  36.345   0.426
 9507W        W74668  27.185  42.282   0.300
 9508W        W74669  33.186   6.206  11.539
 9509W        W74670   3.244  26.275   5.513
 9510W        W74671  42.692  41.031  13.303
 9511W        W74672  37.207  41.307   1.846
 9512W        W74673  41.763   7.356   4.568
 9513W        W74674   3.461  34.870   1.423
 9514W        W74675   2.475  13.671  11.157
 9515W        W74676  41.219  11.651   0.833
 9516W        W74677  13.714  31.852  11.504
 9517W        W74678  40.276  40.312   0.816
 9518W        W74679  34.612  37.112  13.413
 9519W        W74680  34.221  44.899   1.361
 9520W        W74681   9.276  25.473  10.991
 9521W        W74682   1.821  31.480  13.326
 9522W        W74683  34.216  26.417  11.150
 9523W        W74684  17.542  42.101   1.352
 9524W        W74685  34.892  23.643   0.646
 9525W        W74686  41.422  35.888   0.258
 9526W        W74687   6.671  38.028   0.365
 9527W        W74688  33.743  34.261   4.441
 9528W        W74689  32.551   8.206   4.180
 9529W        W74690  44.273  11.737   4.289
 9530W        W74691  33.598   3.984  13.971
 9531W        W74692   3.335  33.594   1.483
 9532W        W74693  32.855  11.277   3.124
 9533W        W74694  26.634   5.837   9.863
 9534W        W74695   0.072  21.481  11.750
 9535W        W74696  32.957  22.591   3.560
 9536W        W74697  18.126  29.157  14.364
 9537W        W74698  22.040  10.573   2.186
 9538W        W74699  26.696   3.248  12.150
 9539W        W74700  15.304   1.471  13.007
 9540W        W74701   8.918  43.401  11.405
 9541W        W74702  41.814  25.570  11.730
 9542W        W74703  22.740   4.659  14.029
 9543W        W74704   9.394  27.477  11.184
 9544W        W74705  23.142  29.914  13.280
 9545W        W74706  26.787   2.332   4.172
 9546W        W74707  20.536  36.565   2.981
 9547W        W74708  22.544  23.566  13.741
 9548W        W74709   2.463   2.920   1.299
 9549W        W74710  38.302  24.702   4.448
 9550W        W74711  38.111  19.802  13.841
 9551W        W74712  26.455  19.302  12.963
 9552W        W74713  12.760  33.017   2.913
 9553W        W74714  39.562   2.237  12.369
 9554W        W74715  14.599  42.407   4.645
 9555W        W74716  10.079  43.600  10.993
 9556W        W74717  30.991  33.385  12.916
 9557W        W74718  22.220  44.298   2.404
 9558W        W74719  39.786  38.358  11.641
 9559W        W74720  25.652  23.883  10.754
 9560W        W74721  10.819  25.245  12.561
 9561W        W74722  26.970  36.286  13.524
 9562W        W74723  14.200  37.924   2.884
 9563W        W74724  16.627  28.892   2.876
 9564W        W74725  41.532  23.736   4.128
 9565W        W74726  39.520   1.523  10.749
 9566W        W74727  31.062  39.012   4.116
 9567W        W74728  38.922  34.321  12.452
 9568W        W74729  15.142  43.636  11.078
 9569W        W74730  17.632  10.262  12.613
 9570W        W74731   8.665  43.923   4.932
 9571W        W74732   7.647   6.337  13.967
 9572W        W74733   8.780   5.349  13.536
 9573W        W74734  17.771   4.307  13.115
 9574W        W74735   6.127  21.629  13.054
 9575W        W74736  42.069   1.629   3.216
 9576W        W74737  23.633  15.741  13.337
 9577W        W74738  17.314  25.480  11.613
 9578W        W74739  43.862   0.027  14.056
 9579W        W74740  30.856  38.556  12.942
 9580W        W74741   4.952  17.044   4.171
 9581W        W74742  26.205  22.093  14.360
 9582W        W74743  26.061  19.068   3.683
 9583W        W74744   4.330  31.877  12.860
 9584W        W74745  44.514   9.295   2.677
 9585W        W74746  27.455   9.068   0.281
 9586W        W74747  35.581  33.747  13.947
 9587W        W74748  10.821  13.022  10.679
 9588W        W74749  42.501  18.632   4.245
 9589W        W74750  17.561  12.218  14.659
 9590W        W74751  42.965   5.835  12.921
 9591W        W74752  43.871  29.133  10.646
 9592W        W74753  39.382  41.892  12.014
 9593W        W74754  24.089  25.211  10.805
 9594W        W74755  27.645  15.534  12.971
 9595W        W74756  14.999  32.108  11.241
 9596W        W74757   0.434   9.290  13.827
 9597W        W74758  26.025  24.731   2.758
 9598W        W74759  15.360  14.254  14.027
 9599W        W74760  43.790   7.270  11.773
 9600W        W74761  29.713   9.536  14.516
 9601W        W74762  30.001  40.726  12.113
 9602W        W74763   7.203   1.953  10.823
 9603W        W74764  42.407  16.702  12.231
 9604W        W74765  17.555  40.740   1.314
 9605W        W74766  39.028  34.494   3.624
 9606W        W74767  40.392   7.337  14.026
 9607W        W74768   9.770  27.048   4.906
 9608W        W74769  16.935  40.045   4.022
 9609W        W74770   9.286  17.718   4.113
 9610W        W74771  20.347   5.460   1.337
 9611W        W74772   0.702  17.145   0.469
 9612W        W74773  44.487  38.589  14.978
 9613W        W74774  27.617  23.989  12.866
 9614W        W74775  39.577   3.170   5.034
 9615W        W74776   3.323  24.962  14.326
 9616W        W74777  15.225  11.092  11.939
 9617W        W74778   8.837  11.376   4.120
 9618W        W74779  19.099  41.244  14.496
 9619W        W74780  14.371   1.588   4.781
 9620W        W74781  13.852  15.340   1.665
 9621W        W74782  31.034  23.538  10.333
 9622W        W74783  24.684  17.269  13.443
 9623W        W74784  15.204  22.635   3.237
 9624W        W74785  13.769  18.815   2.383
 9625W        W74786  23.585  33.177   4.583
 9626W        W74787  28.619  41.540   3.636
 9627W        W74788  42.443  16.580   3.754
 9628W        W74789   1.988   4.204  11.585
 9629W        W74790  44.244  17.537  12.539
 9630W        W74791  23.606  37.338   1.845
 9631W        W74792  20.660  29.077  11.638
 9632W        W74793   7.127   9.472   0.808
 9633W        W74794   5.744  41.771  14.859
 9634W        W74795  19.873  34.419   4.559
 9635W        W74796  39.592  30.016   1.809
 9636W        W74797  17.725  13.612   1.913
 9637W        W74798   3.765  18.543   0.195
 9638W        W74799  28.458  37.354   0.696
 9639W        W74800  10.606  12.180   3.115
 9640W        W74801  19.314  25.609   0.794
 9641W        W74802   6.938  25.494   0.472
 9642W        W74803  18.036  25.990  12.871
 9643W        W74804  38.410  32.165  13.701
 9644W        W74805  43.414  32.804  12.653
 9645W        W74806  25.424  36.569   2.150
 9646W        W74807  21.576  26.221  14.736
 9647W        W74808  29.390   4.412   3.144
 9648W        W74809  13.277   2.037   3.112
 9649W        W74810   0.675  31.063   2.680
 9650W        W74811  33.291  20.657   3.219
 9651W        W74812  22.980  44.370   3.110
 9652W        W74813  27.943   5.800  10.667
 9653W        W74814  21.782  26.896   1.801
 9654W        W74815  23.352   9.293   4.124
 9655W        W74816   6.323  28.130  11.786
 9656W        W74817  34.974   6.241   4.101
 9657W        W74818  24.246  44.212   3.624
 9658W        W74819  43.751  29.487   1.068
 9659W        W74820  25.673  22.742   2.360
 9660W        W74821   1.833  43.307   0.994
 9661W        W74822  44.766   4.264   3.318
 9662W        W74823  22.400  35.520   0.157
 9663W        W74824   5.356  18.347  14.880
 9664W        W74825  14.626  15.850   5.340
 9665W        W74826  43.986   4.160  13.269
 9666W        W74827   5.033  19.212   0.056
 9667W        W74828   7.457  27.656   1.621
 9668W        W74829   9.357   2.231   1.766
 9669W        W74830  20.156   5.019  13.401
 9670W        W74831  42.346  25.583   1.710
 9671W        W74832   1.229  10.159   2.992
 9672W        W74833   5.990  28.205  12.590
 9673W        W74834  26.627   6.561  12.925
 9674W        W74835  13.630  25.450  11.173
 9675W        W74836  13.441  29.170  12.424
 9676W        W74837  26.208  35.330  11.151
 9677W        W74838   2.306   1.773  14.293
 9678W        W74839  43.540  39.439   3.248
 9679W        W74840  12.711  21.306   4.356
 9680W        W74841  24.289  16.155   3.664
 9681W        W74842   3.766  36.515  12.838
 9682W        W74843  30.602  41.547   1.191
 9683W        W74844   7.866  23.026  11.636
 9684W        W74845   3.889  24.591   0.686
 9685W        W74846  17.829  26.753  14.455
 9686W        W74847  28.670  39.272   4.579
 9687W        W74848  34.232  20.014   1.405
 9688W        W74849  18.657  32.147  11.159
 9689W        W74850  18.511  34.564  14.361
 9690W        W74851  44.791  27.888   2.703
 9691W        W74852   2.806   0.239  12.103
 9692W        W74853  16.312  17.841   0.355
 9693W        W74854  19.677   2.349  10.776
 9694W        W74855  19.089  38.046  14.785
 9695W        W74856   2.972  13.669  13.537
 9696W        W74857  35.467  31.387  10.700
 9697W        W74858  14.969  18.024  11.074
 9698W        W74859  10.602  42.913  12.903
 9699W        W74860  43.947  12.486   4.205
 9700W        W74861  20.053  28.598   4.635
 9701W        W74862  37.365  35.564   2.595
 9702W        W74863  25.422   3.472   1.352
 9703W        W74864   0.877  42.313  13.430
 9704W        W74865  37.221  34.982   4.610
 9705W        W74866  34.603  42.166   1.182
 9706W        W74867  29.466  42.736  11.355
 9707W        W74868  37.643  38.387  14.073
 9708W        W74869  19.724  23.657  14.636
 9709W        W74870  38.142  44.551   4.287
 9710W        W74871  11.119  14.243   2.314
 9711W        W74872  36.609  23.824  10.241
 9712W        W74873  37.491   6.726  13.090
 9713W        W74874  36.258  15.228   3.764
 9714W        W74875   2.971   6.140  10.961
 9715W        W74876  23.992  36.237  11.085
 9716W        W74877   6.987  20.899  14.017
 9717W        W74878   1.500  29.947  13.583
 9718W        W74879  32.459  27.590   2.661
 9719W        W74880  21.696  32.039   1.510
 9720W        W74881  14.203  34.373   0.361
 9721W        W74882  27.318  33.291  13.314
 9722W        W74883  18.680  11.218  11.576
 9723W        W74884  36.375  26.774   2.895
 9724W        W74885   4.531  21.742  12.791
 9725W        W74886  21.980   1.921  13.982
 9726W        W74887  37.776  12.162   0.773
 9727W        W74888  40.906  27.032   3.048
 9728W        W74889   9.848  35.064  13.010
 9729W        W74890   2.152   3.417   4.208
 9730W        W74891  43.616   0.370   1.843
 9731W        W74892  16.131  35.456  14.974
 9732W        W74893  10.804   9.991   2.780
 9733W        W74894  14.302  10.550  10.501
 9734W        W74895  20.990  39.956  13.322
 9735W        W74896   6.901  38.285  13.399
 9736W        W74897   4.540  11.071   4.040
 9737W        W74898  17.839  19.515  11.415
 9738W        W74899   4.825  43.917   3.052
 9739W        W74900  29.060   2.970   0.473
 9740W        W74901  43.894  31.408  12.552
 9741W        W74902  37.865  26.864  12.936
 9742W        W74903  15.456  18.630  14.700
 9743W        W74904  30.723  35.379   0.723
 9744W        W74905  30.589  32.991  11.632
 9745W        W74906   1.183  43.205  11.619
 9746W        W74907  42.756   7.923  14.519
 9747W        W74908  26.411  33.731  11.245
 9748W        W74909  18.367   0.806   2.160
 9749W        W74910  39.272  16.799  11.842
 9750W        W74911  32.691  23.691   9.972
 9751W        W74912  33.903  38.800   0.047
 9752W        W74913   3.738   9.522   4.509
 9753W        W74914  33.653  26.335   0.028
 9754W        W74915   0.161  43.974   0.891
 9755W        W74916  40.414  31.374  14.588
 9756W        W74917  22.733   4.785   2.842
 9757W        W74918  27.020  13.515   0.270
 9758W        W74919  39.440   9.385  13.883
 9759W        W74920   1.381  24.076  14.459
 9760W        W74921  44.249  41.612  11.595
 9761W        W74922  20.277  13.325   2.453
 9762W        W74923  17.520  22.734   1.793
 9763W        W74924  32.583  30.826   3.205
 9764W        W74925  14.689  44.750   3.174
 9765W        W74926  16.162  27.631   0.742
 9766W        W74927  17.274   1.356   4.181
 9767W        W74928   6.247  30.888  12.398
 9768W        W74929  13.530  38.059  14.280
 9769W        W74930  36.033  41.048  12.097
 9770W        W74931  42.152   4.360  12.541
 9771W        W74932  16.476  35.529  12.622
 9772W        W74933   8.802  34.222   4.069
 9773W        W74934   6.364  43.586   2.882
 9774W        W74935  22.645  40.093   3.188
 9775W        W74936   7.197   3.103  12.452
 9776W        W74937  31.827   0.453  12.992
 9777W        W74938   1.098  10.664  13.928
 9778W        W74939  22.819  21.173  13.899
 9779W        W74940  32.672  30.159   1.244
 9780W        W74941  15.535   9.233  11.964
 9781W        W74942  20.236  29.030  11.336
 9782W        W74943   5.047  39.068  10.736
 9783W        W74944  33.436  14.843  11.026
 9784W        W74945  13.008  31.024   3.172
 9785W        W74946  26.968  20.315   3.273
 9786W        W74947  20.026  43.691  12.903
 9787W        W74948   9.852  28.680   3.825
 9788W        W74949  30.964  17.101  12.813
 9789W        W74950  28.499  22.149  12.534
 9790W        W74951   5.855   2.659   0.010
 9791W        W74952  19.552  38.395   2.331
 9792W        W74953   9.184   6.422  10.590
 9793W        W74954  12.754  40.122   2.833
 9794W        W74955  29.255  18.295   3.690
 9795W        W74956  40.108  21.555  13.095
 9796W        W74957  42.235  17.720  11.487
 9797W        W74958  19.337   0.942  13.546
 9798W        W74959   9.304   4.334   1.019
 9799W        W74960  33.980   3.306  13.037
 9800W        W74961  43.081  34.416   0.372
 9801W        W74962  18.567   1.956  14.801
 9802W        W74963  40.350  26.330   4.167
 9803W        W74964  43.300  18.139   2.342
 9804W        W74965  21.629  37.412   1.657
 9805W        W74966   3.396   3.454  13.353
 9806W        W74967  28.403  35.539  13.746
 9807W        W74968  27.018  16.178   0.439
 9808W        W74969  42.702  31.074  14.048
 9809W        W74970  15.277  28.748   4.961
 9810W        W74971  27.532  31.979   4.642
 9811W        W74972  44.417   5.069   1.823
 9812W        W74973  33.235  26.466  11.831
 9813W        W74974  35.373  23.081  11.034
 9814W        W74975  34.690  27.162  14.655
 9815W        W74976  44.160  44.585  13.325
 9816W        W74977   1.517   2.733  12.512
 9817W        W74978   1.851  26.709   1.535
 9818W        W74979  43.091  23.161   0.852
 9819W        W74980  13.271  25.736   0.269
 9820W        W74981  24.492   4.865   3.133
 9821W        W74982  42.347  44.852  12.552
 9822W        W74983  32.249  39.254  13.343
 9823W        W74984  20.092  22.156  10.350
 9824W        W74985   7.462   7.885  13.279
 9825W        W74986  12.415  44.154  14.855
 9826W        W74987  18.742   3.897   1.719
 9827W        W74988  26.031   2.805   1.191
 9828W        W74989  29.638   9.104  10.998
 9829W        W74990  25.294  34.610  10.746
 9830W        W74991   5.564  22.942  14.953
 9831W        W74992  38.291   6.350  14.744
 9832W        W74993  37.890   4.847   4.371
 9833W        W74994  32.137   8.735   0.434
 9834W        W74995  13.807   6.857   4.745
 9835W        W74996  10.319  20.573  13.483
 9836W        W74997  24.961  29.793   3.800
 9837W        W74998  30.515  18.859  14.806
 9838W        W74999  35.815  43.510  13.841
 9839W        W75000  25.390  11.859   0.431
 9840W        W75001  13.238   9.109  12.498
 9841W        W75002  40.587   9.092  12.109
 9842W        W75003  42.341  23.328   2.237
 9843W        W75004  33.122  33.806   3.236
 9844W        W75005  32.035   8.606  13.862
 9845W        W75006  16.202  26.741   3.037
 9846W        W75007  17.073  27.915  12.043
 9847W        W75008   7.301  36.749   2.710
 9848W        W75009  43.895  35.859   2.360
 9849W        W75010  26.528  34.705   5.062
 9850W        W75011  43.329  33.916  13.345
 9851W        W75012  29.788  16.474   4.192
 9852W        W75013  26.447  16.177   5.094
 9853W        W75014  14.238  30.869   3.768
 9854W        W75015  40.556  10.342   1.237
 9855W        W75016  38.853  17.406   5.357
 9856W        W75017  27.072  31.014  11.571
 9857W        W75018   8.495  27.375  11.117
 9858W        W75019   7.508  27.014   5.395
 9859W        W75020  32.136  12.780   1.884
 9860W        W75021   1.987  33.941  10.653
 9861W        W75022   5.493  37.286   1.769
 9862W        W75023  25.694  41.230   1.875
 9863W        W75024  14.589   6.400   1.878
 9864W        W75025   9.362   1.923  13.042
 9865W        W75026  27.193  40.296  12.897
 9866W        W75027  12.241  22.320  11.159
 9867W        W75028  16.015  17.588  12.570
 9868W        W75029  23.123   9.171  14.894
 9869W        W75030  34.183  37.951  13.080
 9870W        W75031  38.042  16.524   2.824
 9871W        W75032  37.404  27.351  14.366
 9872W        W75033   6.395  31.880  12.518
 9873W        W75034  30.623  20.730  11.022
 9874W        W75035  39.879  24.067   2.902
 9875W        W75036  10.731   9.534  10.580
 9876W        W75037  39.029  24.254   2.648
 9877W        W75038  36.819  36.599   0.397
 9878W        W75039  26.534  43.371   5.557
 9879W        W75040   5.641  41.354  12.138
 9880W        W75041  40.766  15.343  11.990
 9881W        W75042  21.630  34.439  11.143
 9882W        W75043  30.115   2.693   2.740
 9883W        W75044  32.305  10.116   1.266
 9884W        W75045   2.442   2.335  13.426
 9885W        W75046  13.805  44.364  14.535
 9886W        W75047  35.396  33.848   1.202
 9887W        W75048   4.260  24.901  14.367
 9888W        W75049  34.450   8.876   2.792
 9889W        W75050  39.447   0.954  11.584
 9890W        W75051  19.663   9.618   1.796
 9891W        W75052   1.975  10.023   2.823
 9892W        W75053  36.587  21.165   3.866
 9893W        W75054   0.607   7.470  13.074
 9894W        W75055  28.992  17.758  14.278
 9895W        W75056  37.393  31.755  11.241
 9896W        W75057  11.758  32.552  12.800
 9897W        W75058   5.795   9.746  12.417
 9898W        W75059  34.994  41.942  12.478
 9899W        W75060  13.337  15.657  10.960
 9900W        W75061  43.338  30.582   0.200
 9901W        W75062  18.234  13.642   0.898
 9902W        W75063  35.047  44.991  13.849
 9903W        W75064   8.746  20.025   4.195
 9904W        W75065  23.260  16.217  11.543
 9905W        W75066   6.659   0.144   3.345
 9906W        W75067  11.584  36.596   0.491
 9907W        W75068  13.816  20.657  13.517
 9908W        W75069  42.575   9.173  11.128
 9909W        W75070   0.997  43.311   3.024
 9910W        W75071  26.130   1.929   3.757
 9911W        W75072  31.492  33.601   4.191
 9912W        W75073   3.223  23.445  11.040
 9913W        W75074   2.033  18.595   3.582
 9914W        W75075  35.409   7.165   1.847
 9915W        W75076  35.677  23.549  11.133
 9916W        W75077  37.676  27.844   3.565
 9917W        W75078  24.983   5.536  13.879
 9918W        W75079  24.468  42.320  12.123
 9919W        W75080  20.193  20.935   1.306
 9920W        W75081   6.245   5.002  14.546
 9921W        W75082  34.789  16.673  12.946
 9922W        W75083   1.890  34.346  11.547
 9923W        W75084  14.371  13.350  11.934
 9924W        W75085   7.803  32.694   2.235
 9925W        W75086  16.808  30.224  11.376
 9926W        W75087  24.671  27.605  11.676
 9927W        W75088  35.843  32.980   1.772
 9928W        W75089  17.336  31.992  10.722
 9929W        W75090  42.935  21.724  12.385
 9930W        W75091  34.323  36.482  14.952
 9931W        W75092   6.139  20.285   0.925
 9932W        W75093  16.116  21.202  14.849
 9933W        W75094  40.806  13.273  12.055
 9934W        W75095  33.620  10.251  10.028
 9935W        W75096  18.211  33.730   2.625
 9936W        W75097  21.904  10.808   1.159
 9937W        W75098   6.338   2.780   1.634
 9938W        W75099  13.236   5.635  13.781
 9939W        W75100  13.348  11.534  13.348
 9940W        W75101  35.342  43.055  10.765
 9941W        W75102   5.212   5.785   4.768
 9942W        W75103  10.449  43.385  11.316
 9943W        W75104   5.210  16.470   0.746
 9944W        W75105   8.351  29.680   4.398
 9945W        W75106  14.304  44.543  12.881
 9946W        W75107   8.666  37.497   3.232
 9947W        W75108  16.879  16.938   5.392
 9948W        W75109  13.635  24.517   0.734
 9949W        W75110  20.639  27.102  11.650
 9950W        W75111  20.039  28.990   0.503
 9951W        W75112  41.101   8.687  11.617
 9952W        W75113  22.835  27.101  11.391
 9953W        W75114  38.771  42.178   3.265
 9954W        W75115   9.814  24.629   4.939
 9955W        W75116  33.966   8.421   4.890
 9956W        W75117   2.970  40.554   4.110
 9957W        W75118  29.069   3.244   4.572
 9958W        W75119   4.076  14.201  11.607
 9959W        W75120  17.797  12.707  14.798
 9960W        W75121  34.392  20.040   2.716
 9961W        W75122  17.739  33.007   3.289
 9962W        W75123  41.368  30.872   2.619
 9963W        W75124  24.197   5.838   0.447
 9964W        W75125  34.517   8.938  11.258
 9965W        W75126  37.256   7.274  10.765
 9966W        W75127   9.169  32.184  14.757
 9967W        W75128  35.989   1.345  14.070
 9968W        W75129   6.261  22.153  10.715
 9969W        W75130  29.763   0.711  14.948
 9970W        W75131  12.766   4.430  14.244
 9971W        W75132  27.324  33.865   0.312
 9972W        W75133  15.496  16.592  10.763
 9973W        W75134  42.040  11.763   3.053
 9974W        W75135   0.796  37.503  14.396
 9975W        W75136  17.112   9.082  13.369
 9976W        W75137  16.735  24.634   2.697
 9977W        W75138  12.814  33.978  11.411
 9978W        W75139  17.017  44.506  14.485
 9979W        W75140   6.646  25.252  11.093
 9980W        W75141   4.100  35.588  13.486
 9981W        W75142  24.285   3.408  14.032
 9982W        W75143  11.620  31.533   0.734
 9983W        W75144  43.888  41.113   3.167
 9984W        W75145  41.068  16.268   2.833
 9985W        W75146   5.753   7.717   4.724
 9986W        W75147  12.903  24.088  12.408
 9987W        W75148  13.852  11.760  14.869
 9988W        W75149  31.245   7.233  14.878
 9989W        W75150   2.672  25.518  13.819
 9990W        W75151  16.979  43.348  12.909
 9991W        W75152  20.619  40.061   0.109
 9992W        W75153  42.026  39.247   1.812
 9993W        W75154  15.563   5.071   4.136
 9994W        W75155   1.044  25.085  11.654
 9995W        W75156  38.338  19.079   1.337
 9996W        W75157   6.375  40.739  12.916
 9997W        W75158  27.692  28.181  11.548
 9998W        W75159  40.954  21.511  11.967
 9999W        W75160   2.909  36.215  11.849
10000W        W75161   6.514   9.874   3.257
10001W        W75162   1.939  37.159   3.204
10002W        W75163  39.457  32.538  13.966
10003W        W75164   7.666  11.576  12.951
10004W        W75165   2.410  23.980  13.093
10005W        W75166  11.572  30.546  13.045
10006W        W75167  30.467  39.479  13.476
10007W        W75168  26.798  23.931   4.496
10008W        W75169  20.669  41.966  13.850
10009W        W75170  26.595  43.938   0.747
10010W        W75171  37.837   0.854  14.919
10011W        W75172   0.984   7.219   2.242
10012W        W75173  29.534  14.550  10.706
10013W        W75174   4.726  25.006  12.314
10014W        W75175   2.483   5.154   0.333
10015W        W75176   4.951  21.210  11.012
10016W        W75177   0.271  10.574   1.307
10017W        W75178  44.340  36.418   3.661
10018W        W75179  31.957   9.335  14.260
10019W        W75180  25.932  26.126  12.001
10020W        W75181  31.416  40.822   2.864
10021W        W75182  32.143  43.701   1.061
10022W        W75183  44.944  23.133   4.542
10023W        W75184  10.415  19.511  12.716
10024W        W75185  44.442   0.517   4.940
10025W        W75186   4.216  31.439  13.982
10026W        W75187  28.413  32.992  14.103
10027W        W75188  37.831  36.977  13.580
10028W        W75189  10.433  29.974   4.419
10029W        W75190  31.809  10.799  10.775
10030W        W75191  36.902   6.931  11.545
10031W        W75192   6.825  42.354   0.872
10032W        W75193  16.475  13.599  13.721
10033W        W75194   5.981  23.314  14.898
10034W        W75195  29.982  26.756  12.209
10035W        W75196  24.962  14.386   3.566
10036W        W75197  14.468   7.750  10.941
10037W        W75198   9.405  28.103  14.189
10038W        W75199  13.086  30.008  14.168
10039W        W75200  37.477  43.412  10.607
10040W        W75201  16.512   9.152   3.889
10041W        W75202  11.085  26.233  14.354
10042W        W75203  18.467  39.407   1.964
10043W        W75204  15.622  21.660  13.596
10044W        W75205  31.369  35.596   1.828
10045W        W75206  18.071   7.141  11.544
10046W        W75207  42.507  16.730  13.653
10047W        W75208  32.684  13.111  13.044
10048W        W75209  31.109   0.851  12.044
10049W        W75210  40.967  11.184  14.521
10050W        W75211  27.989  37.652   4.689
10051W        W75212  42.153  41.845  10.790
10052W        W75213  13.649  13.718   5.078
10053W        W75214  31.595  27.036  12.980
10054W        W75215  32.577  13.817  14.798
10055W        W75216   6.781  38.450  11.661
10056W        W75217   1.395  30.127  10.601
10057W        W75218   1.437  11.671   2.792
10058W        W75219  30.510   1.712  12.143
10059W        W75220  29.618  14.526   1.746
10060W        W75221  15.088  23.782  11.345
10061W        W75222   5.415   4.272  12.847
10062W        W75223  17.449   9.479  14.986
10063W        W75224   6.979   2.180   1.410
10064W        W75225  14.597   7.773  12.783
10065W        W75226  39.373  22.615  12.973
10066W        W75227   5.318  23.890  14.581
10067W        W75228  23.727   2.957  14.863
10068W        W75229  22.378  27.090  10.925
10069W        W75230   4.731  17.744  12.478
10070W        W75231  43.309  42.890  13.927
10071W        W75232  37.891  11.302  12.995
10072W        W75233   2.652  18.562  13.582
10073W        W75234  44.491  29.341   4.197
10074W        W75235  40.356   7.092   3.334
10075W        W75236  40.306  39.839  12.060
10076W        W75237  22.995  28.286   2.874
10077W        W75238  26.189  23.948   0.245
10078W        W75239  44.452  27.235   4.124
10079W        W75240  30.129  25.944   1.365
10080W        W75241  32.595  27.504  10.477
10081W        W75242   8.199  33.600  14.840
10082W        W75243  24.216  28.789   4.630
10083W        W75244   9.428  35.426  14.223
10084W        W75245   6.129  11.152  14.362
10085W        W75246  22.497  37.547  10.742
10086W        W75247   5.555  28.771   0.874
10087W        W75248  17.560  36.829  13.969
10088W        W75249  11.146  30.226  12.162
10089W        W75250   9.860  13.189   2.155
10090W        W75251  20.388  34.340   1.053
10091W        W75252  10.697  15.639   3.675
10092W        W75253  10.281  10.269   2.067
10093W        W75254  18.601  14.109   0.429
10094W        W75255  18.082  28.213  12.919
10095W        W75256  37.404  44.823   4.059
10096W        W75257  38.860   9.768   1.899
10097W        W75258  31.105  27.788  10.934
10098W        W75259  18.672  37.982   2.953
10099W        W75260  31.544  32.696   3.780
10100W        W75261   0.749  38.508   0.316
10101W        W75262  38.498  30.634  11.937
10102W        W75263  27.660  41.277  14.912
10103W        W75264  15.630  19.319   4.381
10104W        W75265  20.841  17.239   9.811
10105W        W75266   5.226  14.252  10.384
10106W        W75267   5.236   1.262   2.382
10107W        W75268  14.746  42.409  14.566
10108W        W75269  19.013  34.677  12.412
10109W        W75270   3.357  15.767   0.900
10110W        W75271  16.801  31.092   4.740
10111W        W75272  28.212  41.875  10.472
10112W        W75273   1.289  12.054  11.490
10113W        W75274  36.455  33.690  13.390
10114W        W75275  37.123  15.901  12.870
10115W        W75276  41.949  29.001   2.361
10116W        W75277   6.873  31.927  14.963
10117W        W75278  32.799  35.485   4.341
10118W        W75279  26.132  38.283  12.854
10119W        W75280  26.975  24.106   4.050
10120W        W75281   8.712   5.860  13.553
10121W        W75282   7.008  41.870  14.494
10122W        W75283  31.802  37.395  12.537
10123W        W75284  30.401  43.428  12.434
10124W        W75285   6.204  21.211  13.510
10125W        W75286  37.590  15.109   3.122
10126W        W75287  23.999  32.346  12.375
10127W        W75288   2.489  18.747  10.721
10128W        W75289  22.897  42.518   3.211
10129W        W75290  23.705   1.056  10.645
10130W        W75291  34.697  43.842  11.410
10131W        W75292  38.017  43.824  13.515
10132W        W75293  36.593  17.248   3.171
10133W        W75294  36.596  39.507   4.191
10134W        W75295  31.354  16.209   0.374
10135W        W75296  44.649   5.449  14.760
10136W        W75297  31.856  17.119   2.640
10137W        W75298  14.736   3.300   4.703
10138W        W75299  44.968  44.556  11.612
10139W        W75300  28.177  42.331   1.304
10140W        W75301  43.911   3.589  12.036
10141W        W75302  23.561  39.012   5.158
10142W        W75303   2.751   4.185   3.700
10143W        W75304  24.314   6.062   3.144
10144W        W75305  36.040   3.132  11.653
10145W        W75306  25.391  22.261  13.079
10146W        W75307  34.985  24.212  13.786
10147W        W75308   1.544   5.987  11.910
10148W        W75309   8.944  13.970   2.735
10149W        W75310  33.691   7.347  11.206
10150W        W75311  13.331  40.989   1.371
10151W        W75312  36.694   7.246   1.840
10152W        W75313  22.813  37.031   3.873
10153W        W75314   6.933   2.830   4.511
10154W        W75315  11.297  20.085  10.917
10155W        W75316  15.144  33.994   2.388
10156W        W75317   0.061  30.520   4.320
10157W        W75318  30.505  15.158   0.863
10158W        W75319  40.482  11.117   1.734
10159W        W75320  12.609  39.893  11.572
10160W        W75321   4.529  31.839  13.826
10161W        W75322  15.080   6.718   2.358
10162W        W75323  21.083  23.299  14.495
10163W        W75324   8.125  41.805  11.166
10164W        W75325  43.411  41.293  13.943
10165W        W75326  27.622   7.778   1.498
10166W        W75327  43.656  15.524  10.780
10167W        W75328  19.964   9.744   2.241
10168W        W75329   9.270  44.162   4.630
10169W        W75330  36.795  23.609  14.425
10170W        W75331  18.825   2.352  12.085
10171W        W75332  29.900   6.749  13.058
10172W        W75333  24.044   2.197   1.633
10173W        W75334   5.685  24.960   3.361
10174W        W75335  35.955  13.200  12.882
10175W        W75336  11.116  11.250  14.737
10176W        W75337  39.938  10.685  14.152
10177W        W75338  32.178  29.004   2.016
10178W        W75339  37.773  18.179  10.067
10179W        W75340   1.264  30.379  12.900
10180W        W75341  18.053  18.642   0.525
10181W        W75342  25.280  23.470  11.984
10182W        W75343  34.178  12.929  11.774
10183W        W75344  17.007   3.297   1.490
10184W        W75345  34.136  42.199  12.434
10185W        W75346   0.748  32.623  11.902
10186W        W75347  11.362  44.009   2.664
10187W        W75348  10.204  25.417  13.742
10188W        W75349  15.870   6.131  14.890
10189W        W75350  17.807  31.773   4.004
10190W        W75351  26.522   8.723   4.863
10191W        W75352  10.624  23.347  14.471
10192W        W75353  20.869  18.319   4.608
10193W        W75354  28.850  37.895  11.207
10194W        W75355  27.044  32.846  13.302
10195W        W75356  15.273  18.951  10.097
10196W        W75357  38.131   7.371   3.272
10197W        W75358  43.455  32.505   1.831
10198W        W75359   4.996  32.436  12.439
10199W        W75360  36.052   5.912  12.688
10200W        W75361   8.250  26.142   5.163
10201W        W75362  12.577   8.852  11.118
10202W        W75363  32.629  29.412   1.038
10203W        W75364  27.683  15.533   4.603
10204W        W75365  39.993  15.255   0.725
10205W        W75366   8.695  14.099   4.559
10206W        W75367  21.302  20.486  13.344
10207W        W75368   5.138   4.713  12.912
10208W        W75369   3.571  25.186   3.145
10209W        W75370  25.450  35.875   1.743
10210W        W75371  21.964  38.328   3.136
10211W        W75372   8.191  12.502   3.198
10212W        W75373  31.400   6.054   3.852
10213W        W75374  20.277  12.973  10.745
10214W        W75375  15.221  20.990   3.629
10215W        W75376  27.183   8.926  11.071
10216W        W75377  38.955  32.584  12.969
10217W        W75378  33.135  42.478  14.962
10218W        W75379   8.330  37.516  14.453
10219W        W75380  11.685  26.994   3.646
10220W        W75381  34.598  17.597   4.414
10221W        W75382  43.994  20.301  10.723
10222W        W75383  37.141  20.998   3.780
10223W        W75384  11.605  12.154  14.477
10224W        W75385  34.885  24.212   2.165
10225W        W75386  13.258  33.807   3.230
10226W        W75387  18.605  35.734   3.388
10227W        W75388   0.411  41.806   2.850
10228W        W75389  17.412  29.453   4.800
10229W        W75390  25.589  36.900  14.480
10230W        W75391  25.653  21.595  14.847
10231W        W75392  28.560   3.171  14.415
10232W        W75393  29.125   7.883  10.721
10233W        W75394  20.090  36.486  10.976
10234W        W75395  27.947  15.202  11.900
10235W        W75396  26.582  40.205   4.016
10236W        W75397  18.069  39.102   1.272
10237W        W75398   9.961  10.010  11.174
10238W        W75399  19.247  15.075   4.866
10239W        W75400   7.609  13.004   2.736
10240W        W75401   3.158  11.742   1.640
10241W        W75402  18.662  34.330   2.740
10242W        W75403  23.198  42.635   4.099
10243W        W75404   5.113  33.612   3.261
10244W        W75405  22.228  15.105  14.983
10245W        W75406   8.896  13.922   1.800
10246W        W75407   4.802  35.212  12.839
10247W        W75408  44.428  30.564   3.097
10248W        W75409  26.262  21.200  13.863
10249W        W75410  37.840  14.591   0.204
10250W        W75411  33.941  28.465  12.906
10251W        W75412  40.967  18.870  11.483
10252W        W75413  27.681  19.170  12.441
10253W        W75414   9.718  36.227  11.119
10254W        W75415  13.124  31.581   1.602
10255W        W75416  39.034  21.268  10.277
10256W        W75417   4.964  36.578   2.872
10257W        W75418   9.203  12.168  12.403
10258W        W75419  31.333  10.726  14.456
10259W        W75420   3.254  41.905   1.358
10260W        W75421  43.763   6.346  13.999
10261W        W75422  38.956  41.137   4.147
10262W        W75423   4.667  42.909   1.793
10263W        W75424  15.742  44.530  14.794
10264W        W75425  23.591  20.346   2.397
10265W        W75426  21.678  41.265   2.904
10266W        W75427  44.941  20.146  11.687
10267W        W75428  15.847  18.508  12.573
10268W        W75429  30.919  32.734  14.317
10269W        W75430  17.586   7.113   2.922
10270W        W75431  29.562  17.607   3.633
10271W        W75432  21.806   2.957  14.969
10272W        W75433  18.164  10.310   4.671
10273W        W75434  28.757  29.644  13.823
10274W        W75435   4.483  39.642   2.260
10275W        W75436  30.105  12.430   1.444
10276W        W75437  38.324  13.624  12.913
10277W        W75438  33.862  13.888  13.384
10278W        W75439   0.534  25.561  10.992
10279W        W75440  23.046  40.696  10.946
10280W        W75441   0.291  32.254   1.983
10281W        W75442  30.942  14.319  12.396
10282W        W75443   6.692  42.943   2.855
10283W        W75444  37.010  31.999  12.876
10284W        W75445  32.856  30.648  12.040
10285W        W75446  35.725  25.888   3.782
10286W        W75447   1.295  13.348  12.583
10287W        W75448  36.519  20.719   3.166
10288W        W75449  19.495  20.009   0.429
10289W        W75450   5.382  23.184   1.459
10290W        W75451   8.255  42.986  14.426
10291W        W75452  44.846  32.915   4.195
10292W        W75453   5.680  18.779  14.872
10293W        W75454  22.558  17.619  11.487
10294W        W75455  18.344  30.810   2.312
10295W        W75456  11.231  42.018  11.908
10296W        W75457  15.532  35.548  12.939
10297W        W75458  38.870  36.742  14.289
10298W        W75459  31.726  41.802  10.888
10299W        W75460  25.656  19.768   3.140
10300W        W75461  43.285   4.864  13.956
10301W        W75462  18.297   0.402   2.965
10302W        W75463  19.338  31.392  13.197
10303W        W75464  34.209  37.940   0.926
10304W        W75465  10.958  25.255   2.855
10305W        W75466  15.819  17.854   2.652
10306W        W75467   9.731  31.016  12.887
10307W        W75468  11.364  12.879  11.199
10308W        W75469  18.794  29.105  12.420
10309W        W75470  32.891  38.347   0.771
10310W        W75471  27.075  43.002   0.902
10311W        W75472  21.618  13.359   4.165
10312W        W75473   3.804  23.598   2.981
10313W        W75474  40.796  37.004   0.362
10314W        W75475  15.773  40.549  12.447
10315W        W75476  37.640  14.218   2.548
10316W        W75477   6.154  35.023   1.975
10317W        W75478  28.576   4.463   3.139
10318W        W75479  20.095  26.036   4.261
10319W        W75480  13.635  27.829  14.401
10320W        W75481  12.079   3.833  14.393
10321W        W75482  36.137  20.740   1.689
10322W        W75483   5.308  14.065   1.933
10323W        W75484  38.453  23.016   0.920
10324W        W75485  13.443  31.912  14.002
10325W        W75486  25.813  44.589  13.602
10326W        W75487   5.791  25.155   3.815
10327W        W75488   5.194  18.057  13.403
10328W        W75489  22.136  14.423   2.650
10329W        W75490   2.419  16.589   1.564
10330W        W75491  18.788  18.547   3.494
10331W        W75492  39.986   0.610   3.145
10332W        W75493  28.881  21.243  12.518
10333W        W75494  20.454   4.140  14.466
10334W        W75495   9.943  42.360   0.382
10335W        W75496  26.463  44.266   5.176
10336W        W75497  26.448  29.096   3.880
10337W        W75498  41.556  29.576  12.968
10338W        W75499  43.355  44.048   0.419
10339W        W75500  35.463  18.796  14.017
10340W        W75501  17.896  39.816  13.819
10341W        W75502  31.556  20.606   4.312
10342W        W75503  17.269   3.660   3.571
10343W        W75504  16.740  41.216   4.270
10344W        W75505   4.734  29.971  13.220
10345W        W75506  27.899  44.857  13.288
10346W        W75507  43.850  21.865   3.765
10347W        W75508  17.137  23.584   3.429
10348W        W75509  28.614  20.257  14.976
10349W        W75510  10.705  21.749   3.608
10350W        W75511  14.301  19.037   3.306
10351W        W75512   2.857  36.996  10.676
10352W        W75513  11.303  19.580   0.806
10353W        W75514   3.492  12.627   0.459
10354W        W75515  22.233  43.352  13.231
10355W        W75516  29.039  19.123  10.715
10356W        W75517  41.214   2.599   2.766
10357W        W75518  11.700  29.921   4.591
10358W        W75519  19.310  35.200   4.145
10359W        W75520  41.792  17.474  12.916
10360W        W75521  36.299  17.104  10.727
10361W        W75522  40.304  39.545   1.236
10362W        W75523  17.064  23.130  10.519
10363W        W75524  28.657   1.981   3.123
10364W        W75525  40.934  39.146   4.738
10365W        W75526  17.101   8.188   0.932
10366W        W75527  27.928  22.975   2.128
10367W        W75528   9.790   5.338   3.668
10368W        W75529   8.957  35.087  13.389
10369W        W75530  23.794  18.650  14.928
10370W        W75531  24.176  25.566  10.110
10371W        W75532  24.146  16.065  11.613
10372W        W75533  35.990   1.022   1.794
10373W        W75534  31.518  20.215   0.463
10374W        W75535  22.778  21.826  12.402
10375W        W75536  26.549  14.705  14.047
10376W        W75537  25.652  38.993   3.143
10377W        W75538  19.687   6.131   0.837
10378W        W75539  37.226  37.857   9.939
10379W        W75540  44.971  44.856  10.359
10380W        W75541  10.633  16.702   1.246
10381W        W75542   6.386  44.915   2.230
10382W        W75543   6.219   8.690   2.847
10383W        W75544  25.038  14.136   0.803
10384W        W75545   8.871  28.741  11.175
10385W        W75546  27.399  25.694   1.104
10386W        W75547  23.084  21.463   4.456
10387W        W75548   4.062  41.470  11.119
10388W        W75549  22.616  44.292   0.448
10389W        W75550  18.541  13.482   4.533
10390W        W75551   1.332  22.209   0.018
10391W        W75552  24.965  37.885  14.551
10392W        W75553   4.682   0.571   0.085
10393W        W75554   8.824  24.765  12.010
10394W        W75555   7.430   6.176  12.880
10395W        W75556   1.107   3.737  11.112
10396W        W75557  30.066  31.067   1.366
10397W        W75558   8.884  39.379  12.872
10398W        W75559  22.223  30.841   1.154
10399W        W75560  25.014  42.416   2.175
10400W        W75561  37.788   6.886   0.808
10401W        W75562   3.894   7.420   4.911
10402W        W75563  14.847  35.042   0.222
10403W        W75564  30.185  21.079   0.827
10404W        W75565  21.146  33.047   9.983
10405W        W75566  12.715  35.639  12.072
10406W        W75567   8.606  28.996  14.839
10407W        W75568  17.978  19.037  11.672
10408W        W75569  13.975   8.528   3.827
10409W        W75570  37.884  17.634  13.788
10410W        W75571   4.440   8.690   2.430
10411W        W75572   9.665   3.327   2.368
10412W        W75573  36.800  12.811   2.713
10413W        W75574  43.444   3.322  13.655
10414W        W75575  25.837  43.879  11.499
10415W        W75576  13.256  31.925   0.764
10416W        W75577   4.994  20.638  12.357
10417W        W75578  36.320  17.187   4.078
10418W        W75579  19.890  37.599  11.545
10419W        W75580  21.508   0.948  10.542
10420W        W75581  38.475  28.980  10.378
10421W        W75582  25.781   9.703   3.139
10422W        W75583  43.697  38.765  12.037
10423W        W75584  33.545  19.267  10.364
10424W        W75585  22.943  28.167  11.570
10425W        W75586  15.241  23.056  11.540
10426W        W75587   3.832  14.541  11.942
10427W        W75588  10.506  39.306   4.173
10428W        W75589  23.298  25.003   1.234
10429W        W75590  38.507  26.996   2.708
10430W        W75591   5.463  31.093   5.027
10431W        W75592  33.950  34.877   1.916
10432W        W75593   3.986  27.163   1.755
10433W        W75594  12.738   7.471  12.608
10434W        W75595  22.569  30.507   3.765
10435W        W75596   9.000  34.914   1.768
10436W        W75597   3.422  19.031  12.776
10437W        W75598  27.524  43.909   4.852
10438W        W75599  30.006   7.354   1.593
10439W        W75600  14.075  13.160   4.276
10440W        W75601   3.329  26.955   3.868
10441W        W75602  29.605   3.511   2.117
10442W        W75603  32.172  21.811   0.882
10443W        W75604   0.047   5.295  11.321
10444W        W75605  14.797  10.888   3.719
10445W        W75606  29.043  39.634  14.075
10446W        W75607  33.560   5.112   2.090
10447W        W75608  43.882  27.922  14.851
10448W        W75609  25.103  29.693  12.065
10449W        W75610   4.203  19.638   3.242
10450W        W75611   0.892  35.028  11.116
10451W        W75612  31.849  29.088  11.116
10452W        W75613  10.045  23.224  13.351
10453W        W75614  14.797  39.668   2.735
10454W        W75615  41.970  27.128  10.549
10455W        W75616  41.105  31.183  12.506
10456W        W75617  25.742  34.862  13.379
10457W        W75618   3.590   4.057   4.589
10458W        W75619   0.553   9.185   4.193
10459W        W75620  19.696  28.628   4.243
10460W        W75621  29.932   4.609  13.255
10461W        W75622  26.071   5.875  13.824
10462W        W75623  37.541  35.081  13.834
10463W        W75624  20.628  41.950   2.999
10464W        W75625  31.202  25.538   4.058
10465W        W75626  13.417  13.619   3.165
10466W        W75627  13.965  11.352  10.365
10467W        W75628  15.387  24.664  13.925
10468W        W75629  38.819   9.951  14.493
10469W        W75630  20.056  39.907  11.084
10470W        W75631  39.947  12.615   3.185
10471W        W75632  26.547  17.537  11.538
10472W        W75633   0.146   5.440  14.603
10473W        W75634  22.279  16.164   2.223
10474W        W75635   5.844  31.119   3.716
10475W        W75636  26.987   2.326   1.900
10476W        W75637   8.427  10.899   0.826
10477W        W75638   2.940  35.550   4.182
10478W        W75639   7.005  30.694   4.202
10479W        W75640   1.783  35.475  11.917
10480W        W75641  20.810   3.970   1.797
10481W        W75642  37.789  25.965   2.186
10482W        W75643   8.946  36.500  10.701
10483W        W75644   3.947  11.381   0.400
10484W        W75645  37.287  13.679  13.997
10485W        W75646  27.125  16.726   0.001
10486W        W75647  19.281  13.874  12.948
10487W        W75648  21.078  21.551  11.582
10488W        W75649  15.205  43.022   3.692
10489W        W75650  44.546  43.562  13.984
10490W        W75651  29.536  27.136   1.584
10491W        W75652  14.236   8.192   2.633
10492W        W75653  20.863   3.874  13.701
10493W        W75654  41.836  40.384   2.628
10494W        W75655  27.122  39.492  10.880
10495W        W75656  12.763  43.268  10.732
10496W        W75657   0.530  31.898   2.810
10497W        W75658  10.255   8.777  10.334
10498W        W75659  41.190  23.211  11.746
10499W        W75660  29.366  12.750   2.624
10500W        W75661  16.815  40.930  14.665
10501W        W75662  17.775  21.219   4.570
10502W        W75663  24.720  16.824   2.239
10503W        W75664   1.743  19.669   4.821
10504W        W75665   9.857  23.144  14.703
10505W        W75666   8.706  42.529   3.355
10506W        W75667  14.615  43.881   0.957
10507W        W75668  28.721  31.320  13.459
10508W        W75669  28.274  33.221  12.090
10509W        W75670  14.737  14.349   4.253
10510W        W75671   4.370  28.586   3.137
10511W        W75672  12.597  44.294   4.554
10512W        W75673  12.083  17.559   1.445
10513W        W75674  30.024  29.901   0.266
10514W        W75675  33.574  37.972  14.529
10515W        W75676   6.146  17.992   1.817
10516W        W75677  22.817   8.907  11.326
10517W        W75678   3.868  20.165  12.169
10518W        W75679  11.163  15.669  10.466
10519W        W75680  16.289  43.081  11.934
10520W        W75681  14.632  42.998  13.861
10521W        W75682   0.986   5.705   2.445
10522W        W75683   5.709  23.187   3.265
10523W        W75684  33.652  44.548  14.996
10524W        W75685  30.301  16.532   4.310
10525W        W75686  36.620  33.484   2.866
10526W        W75687  44.964  27.644  12.276
10527W        W75688  12.885  31.987   4.055
10528W        W75689  44.673  40.405  11.110
10529W        W75690  16.252  17.699   1.204
10530W        W75691  16.174  41.819   0.748
10531W        W75692  12.426   6.151  10.793
10532W        W75693  27.661  18.825  12.035
10533W        W75694  17.725   9.888  14.770
10534W        W75695  16.188  14.895   2.742
10535W        W75696  14.200  15.668   5.090
10536W        W75697  16.591  12.894  11.612
10537W        W75698  25.166   6.727   3.220
10538W        W75699  28.270  11.084  13.853
10539W        W75700  23.193  44.571   2.118
10540W        W75701  11.565  44.627  13.158
10541W        W75702  28.876  19.380  13.923
10542W        W75703  27.504  17.739  14.167
10543W        W75704   2.171  40.910   2.142
10544W        W75705   2.938  30.987  11.999
10545W        W75706  26.678  40.353  12.957
10546W        W75707  19.129  23.493   0.247
10547W        W75708  22.163  30.454   5.116
10548W        W75709  41.315   4.165  11.165
10549W        W75710  22.490  17.336   9.650
10550W        W75711   6.540   2.847   3.199
10551W        W75712  17.630  10.102  11.096
10552W        W75713  11.256  31.938   2.432
10553W        W75714   6.386   5.326   4.039
10554W        W75715   4.867  27.709  11.479
10555W        W75716   4.232  18.251   1.163
10556W        W75717  38.305  30.888   1.956
10557W        W75718  17.495  34.409   0.666
10558W        W75719  21.682   2.399   4.156
10559W        W75720  36.389  27.145   0.835
10560W        W75721  35.291  19.876   4.136
10561W        W75722  27.040  15.225   2.990
10562W        W75723  20.663  20.696   2.672
10563W        W75724  44.953  21.720  13.460
10564W        W75725  13.335  17.218   3.277
10565W        W75726   6.052   1.377  15.000
10566W        W75727  40.724  40.117  11.895
10567W        W75728  17.906  30.971   0.918
10568W        W75729  41.954   4.890   1.616
10569W        W75730  17.701   3.295  12.465
10570W        W75731  39.704  25.700   0.322
10571W        W75732  13.031  17.612   1.212
10572W        W75733  23.186  31.045   3.838
10573W        W75734   1.645   9.116  11.491
10574W        W75735   1.881  35.328   1.785
10575W        W75736  10.870  13.618  11.506
10576W        W75737  44.047   9.790   3.602
10577W        W75738  28.644  27.196   0.364
10578W        W75739  37.611   1.648  12.852
10579W        W75740  37.368  10.432  14.215
10580W        W75741  25.964   5.262  14.007
10581W        W75742  33.401  28.136   3.300
10582W        W75743  16.800  32.079  14.020
10583W        W75744   6.454  34.895  10.006
10584W        W75745   0.758  24.968   2.139
10585W        W75746  20.555  14.709   4.376
10586W        W75747  29.416  36.589   0.439
10587W        W75748   1.859  26.491   0.373
10588W        W75749  36.054  16.896   4.426
10589W        W75750   9.223  36.456   3.479
10590W        W75751  33.983  30.510   4.254
10591W        W75752  23.929  18.243   3.722
10592W        W75753  11.667   1.649  13.773
10593W        W75754  16.542  16.848  13.023
10594W        W75755  28.445  11.372  11.941
10595W        W75756  42.329  22.678   3.277
10596W        W75757   1.900   5.853   4.133
10597W        W75758  34.575   2.537   3.584
10598W        W75759   9.397  42.683   0.870
10599W        W75760  43.309  16.028   0.803
10600W        W75761  17.004  30.837  14.401
10601W        W75762   9.706   9.382  13.350
10602W        W75763  15.078  22.258   0.978
10603W        W75764  44.854  14.843   2.162
10604W        W75765  22.536  40.403   3.828
10605W        W75766   6.708  40.591   2.761
10606W        W75767  24.005  43.876   1.732
10607W        W75768   2.090   5.260  11.606
10608W        W75769   2.764  16.333   9.762
10609W        W75770  27.832  25.502  14.828
10610W        W75771  24.201   2.981   1.197
10611W        W75772  31.823  12.936  11.968
10612W        W75773  30.894  28.685   1.953
10613W        W75774  19.836  20.640  13.474
10614W        W75775  17.232  12.408  12.025
10615W        W75776  14.375  37.626  13.388
10616W        W75777  26.110  41.716  12.516
10617W        W75778  19.398  18.697   1.707
10618W        W75779  43.214   0.262   3.367
10619W        W75780   0.982  14.569  13.903
10620W        W75781   5.707  41.102  13.313
10621W        W75782  22.802  42.070   0.676
10622W        W75783  29.184  24.642   3.560
10623W        W75784   7.189  38.086  11.581
10624W        W75785  19.793  33.990   3.317
10625W        W75786  30.939  13.237  14.516
10626W        W75787  33.090   0.974  12.028
10627W        W75788  29.822  42.405  11.517
10628W        W75789  11.207   8.420   2.365
10629W        W75790  41.980  30.376   3.812
10630W        W75791  44.216   6.110   0.826
10631W        W75792  39.461  44.440  11.790
10632W        W75793  38.341  12.325   1.785
10633W        W75794   9.097  31.982  12.942
10634W        W75795  39.345  11.562  14.977
10635W        W75796   7.883  43.310  12.396
10636W        W75797  24.680  36.879   1.845
10637W        W75798  33.572   6.950  13.387
10638W        W75799  19.573  41.620   2.227
10639W        W75800  32.213  22.203  13.478
10640W        W75801  30.420   5.917  13.429
10641W        W75802  25.205  27.008   3.418
10642W        W75803   8.737  18.302   1.386
10643W        W75804  44.414  42.350   0.378
10644W        W75805   3.470  22.013   1.260
10645W        W75806   8.355  34.632  13.868
10646W        W75807   6.252   7.133   3.621
10647W        W75808  12.057   2.448   2.903
10648W        W75809  27.640  17.258   0.580
10649W        W75810  40.388  14.796  13.860
10650W        W75811  12.694  15.547   3.528
10651W        W75812  28.418  32.483  11.668
10652W        W75813  36.131  19.538   1.284
10653W        W75814  37.592  15.650  11.169
10654W        W75815   5.427  19.054   0.366
10655W        W75816  21.341  40.432  13.500
10656W        W75817  34.781   9.061   0.534
10657W        W75818  19.496  30.180   1.952
10658W        W75819   8.484  34.631   3.971
10659W        W75820  38.089  39.408  14.542
10660W        W75821   0.581   3.876   1.230
10661W        W75822  40.358  30.408  14.009
10662W        W75823  29.425  34.380  10.756
10663W        W75824  31.644  29.461   0.809
10664W        W75825  22.553  22.341  13.957
10665W        W75826  34.338  32.529   2.302
10666W        W75827  31.330   0.669  13.109
10667W        W75828  31.847  36.030  12.889
10668W        W75829  40.367  34.548   0.002
10669W        W75830  25.139  32.404  14.362
10670W        W75831  12.483  29.876   0.170
10671W        W75832  20.689  44.945   3.667
10672W        W75833  33.726  38.234  13.775
10673W        W75834  38.487  24.642   3.030
10674W        W75835  13.632  40.526   2.493
10675W        W75836  12.578  42.873  14.017
10676W        W75837  41.021  41.055   1.352
10677W        W75838   8.236  30.167  12.921
10678W        W75839  26.978  17.619   2.650
10679W        W75840  43.548  19.954   4.217
10680W        W75841  42.557  40.550  12.441
10681W        W75842  17.803  41.889  14.032
10682W        W75843  14.282   3.356  10.608
10683W        W75844  10.379  30.514  12.645
10684W        W75845  44.792  12.024  10.660
10685W        W75846   4.695  39.801   1.810
10686W        W75847  11.168   4.300   0.658
10687W        W75848  27.051  25.758  11.110
10688W        W75849  43.279   2.695   0.592
10689W        W75850  36.582   1.355   1.450
10690W        W75851  41.614  37.449   2.655
10691W        W75852  10.813   1.994  12.104
10692W        W75853  30.432   1.220   4.173
10693W        W75854  33.204  19.312   0.152
10694W        W75855  38.471  39.515   2.899
10695W        W75856  23.490  17.984  11.493
10696W        W75857  10.545  33.167  13.914
10697W        W75858  24.963  16.502   2.828
10698W        W75859  34.213   2.016  13.912
10699W        W75860  29.963   2.490   4.032
10700W        W75861  26.923  39.290  13.392
10701W        W75862   2.187  42.993  13.707
10702W        W75863   0.814  27.963  14.046
10703W        W75864  21.885  33.328   2.898
10704W        W75865  28.265  19.574  12.836
10705W        W75866  22.560  43.839  13.558
10706W        W75867  44.952  26.525  10.560
10707W        W75868  19.373   8.902  12.770
10708W        W75869  35.829  21.599  12.964
10709W        W75870  34.610  27.787   3.592
10710W        W75871  16.677   3.672   1.829
10711W        W75872  34.757  27.522  11.654
10712W        W75873  41.236  11.558   2.657
10713W        W75874  22.811   7.884   0.256
10714W        W75875  30.186   6.369  13.296
10715W        W75876  37.154  29.996  14.359
10716W        W75877   6.442  15.825   5.043
10717W        W75878  26.512   2.711  13.401
10718W        W75879  43.197  33.940   1.937
10719W        W75880  35.786  28.877  14.749
10720W        W75881  21.280  37.701  13.943
10721W        W75882  21.490  41.562  13.919
10722W        W75883   9.725  40.322  10.551
10723W        W75884  39.280   1.507   0.812
10724W        W75885   4.360  18.697   2.267
10725W        W75886  15.796  29.158   3.242
10726W        W75887  29.222  44.714  13.050
10727W        W75888   4.513  32.942  11.152
10728W        W75889  23.134  36.936  14.110
10729W        W75890  27.619  39.673  10.865
10730W        W75891   4.400   9.614  11.181
10731W        W75892  12.661  15.458  11.115
10732W        W75893   9.228  20.603   2.326
10733W        W75894   9.772  13.697   0.435
10734W        W75895   6.165  11.951   3.637
10735W        W75896  13.032  30.612   3.740
10736W        W75897   4.789  13.035  12.135
10737W        W75898  14.183  33.606  10.675
10738W        W75899   6.498  16.255   0.192
10739W        W75900  11.689  34.284  11.159
10740W        W75901  26.656  29.078  14.254
10741W        W75902  36.655  44.758   2.767
10742W        W75903  12.137  35.838  12.155
10743W        W75904  21.254   4.750  11.592
10744W        W75905   7.701   6.386  10.197
10745W        W75906   9.425   7.325  12.322
10746W        W75907  29.668  41.031   2.744
10747W        W75908   8.904  15.212  11.166
10748W        W75909  44.602  35.466  12.860
10749W        W75910  43.228  13.097   1.240
10750W        W75911  20.498  10.621   4.434
10751W        W75912  14.555  16.509   4.684
10752W        W75913  37.280  28.392   2.845
10753W        W75914  24.069  32.693   1.466
10754W        W75915  17.590   7.192   1.461
10755W        W75916  18.616  19.048  12.051
10756W        W75917  32.392  12.053  11.515
10757W        W75918  29.017  29.157  13.879
10758W        W75919  42.875   9.327  13.470
10759W        W75920  17.790  33.097   3.797
10760W        W75921  18.195  29.458  12.615
10761W        W75922   0.780  10.742  14.931
10762W        W75923  19.395  26.934   2.397
10763W        W75924  44.018  19.672  12.575
10764W        W75925  34.373   5.192  12.067
10765W        W75926  29.877  26.796  10.660
10766W        W75927  25.765   7.648   3.603
10767W        W75928  24.203  17.621  10.831
10768W        W75929   1.054  32.454  13.063
10769W        W75930  31.064  21.292  11.448
10770W        W75931  39.789   8.700  11.062
10771W        W75932  19.517  34.041  10.786
10772W        W75933  26.030  21.255  11.909
10773W        W75934  33.555  16.647  13.415
10774W        W75935   9.374  21.573  10.785
10775W        W75936   7.786  44.523  13.215
10776W        W75937   6.509  16.654   2.840
10777W        W75938  38.172  13.086   0.744
10778W        W75939  11.408   6.163   4.579
10779W        W75940   6.138  21.656   3.220
10780W        W75941  14.761  22.273   3.942
10781W        W75942  25.831  12.892  11.610
10782W        W75943  19.525   8.807   0.809
10783W        W75944  39.932  37.094   1.919
10784W        W75945  38.418   2.328  12.987
10785W        W75946  28.381  35.003   4.039
10786W        W75947  40.774  40.491   3.432
10787W        W75948  27.447   0.817  13.306
10788W        W75949   0.409  21.604   3.417
10789W        W75950  21.208  43.486  11.090
10790W        W75951  11.697  41.418  11.530
10791W        W75952  31.083  11.169   2.651
10792W        W75953  22.273  27.388  12.475
10793W        W75954  30.327  30.239   3.746
10794W        W75955  24.532  40.849  11.849
10795W        W75956  20.032   5.910  11.487
10796W        W75957   9.647  39.268  13.930
10797W        W75958  29.797  21.639   2.339
10798W        W75959  28.156   5.950   4.562
10799W        W75960  44.999  25.888   3.953
10800W        W75961   2.464  39.338  10.767
10801W        W75962  39.096  28.032  11.552
10802W        W75963   0.807  21.161  12.413
10803W        W75964  33.665  27.290   3.255
10804W        W75965   5.931  22.346  13.781
10805W        W75966  14.575   4.694   4.586
10806W        W75967  22.602   4.004   1.459
10807W        W75968  28.086  32.932   3.158
10808W        W75969  26.035  10.583  10.546
10809W        W75970  10.177   1.347  11.023
10810W        W75971  32.893  12.641  13.056
10811W        W75972  16.166  29.903  11.589
10812W        W75973  38.144  43.552  12.540
10813W        W75974   8.382   9.271  14.431
10814W        W75975  43.779  36.881  13.467
10815W        W75976  12.357  36.355  14.727
10816W        W75977  27.618  17.809  11.080
10817W        W75978  32.205  39.818   0.480
10818W        W75979  24.964  24.154   0.908
10819W        W75980  26.977  11.350  11.992
10820W        W75981  24.924  17.627   0.850
10821W        W75982  17.740   5.308  11.645
10822W        W75983  33.976  24.695   2.124
10823W        W75984  38.389  31.296   0.262
10824W        W75985   7.286  15.299   1.947
10825W        W75986  28.981  42.756  12.199
10826W        W75987  22.967  20.696  12.232
10827W        W75988   7.334   7.146  13.735
10828W        W75989  13.446  18.272   2.812
10829W        W75990  30.420  32.192  13.608
10830W        W75991  13.289  33.679   0.996
10831W        W75992  37.110  15.393   1.808
10832W        W75993  40.404  35.893   4.478
10833W        W75994  39.827  17.264   2.152
10834W        W75995  27.447   1.439   1.884
10835W        W75996  20.223  40.232   1.049
10836W        W75997  40.120  39.981   1.879
10837W        W75998  27.496  40.374   0.821
10838W        W75999  42.419  32.040   5.061
10839W        W76000  35.929  17.065  13.377
10840W        W76001  41.863   1.020  12.001
10841W        W76002   1.081  31.234  12.011
10842W        W76003  13.783  42.877  13.522
10843W        W76004  23.715  43.323   3.707
10844W        W76005  43.916  15.803  11.928
10845W        W76006  18.857  29.570  11.993
10846W        W76007  35.826  35.935  11.996
10847W        W76008   5.771  28.947   4.918
10848W        W76009  10.833  44.889   3.711
10849W        W76010  33.108  42.061   1.811
10850W        W76011  23.509  43.412   2.301
10851W        W76012   3.762   4.433   1.867
10852W        W76013  36.353  27.716   3.906
10853W        W76014   2.796   8.833   2.423
10854W        W76015   0.876   6.378  11.995
10855W        W76016   8.776  33.126  12.362
10856W        W76017  35.426  36.518  10.941
10857W        W76018  10.410  40.326  14.497
10858W        W76019   4.063   6.828   1.456
10859W        W76020  11.762  17.545  13.471
10860W        W76021   9.687  42.287  11.137
10861W        W76022   8.932   4.956   3.595
10862W        W76023  17.354  34.297  11.570
10863W        W76024  24.747  31.015  13.734
10864W        W76025  30.341  22.661  13.466
10865W        W76026  37.287  36.117   3.193
10866W        W76027  27.296  41.817   1.481
10867W        W76028  40.620  22.251   1.010
10868W        W76029   5.130  37.980  13.381
10869W        W76030  23.052  32.283  12.366
10870W        W76031  24.732  33.179  14.076
10871W        W76032   8.696  36.112  12.753
10872W        W76033  42.134  33.121  11.625
10873W        W76034   3.255  42.277  12.854
10874W        W76035  42.427  36.865   1.782
10875W        W76036  41.350  37.129   2.307
10876W        W76037  30.403   4.732   4.023
10877W        W76038   5.133  25.090   0.596
10878W        W76039  22.270   1.170   4.689
10879W        W76040  15.743   4.319   3.324
10880W        W76041  29.718  42.505   1.253
10881W        W76042   0.811  14.685   4.143
10882W        W76043  30.970   2.675  11.884
10883W        W76044  28.053  35.441   1.175
10884W        W76045  35.044  18.273   4.804
10885W        W76046  30.194  34.457  13.849
10886W        W76047  18.546  35.875  12.479
10887W        W76048  36.298  19.495  14.799
10888W        W76049  39.521  14.629   3.270
10889W        W76050  39.641  33.366   3.890
10890W        W76051  29.912  25.770  11.562
10891W        W76052  30.145  21.246   3.050
10892W        W76053  38.844  31.064   0.104
10893W        W76054  39.975  27.664   2.757
10894W        W76055  41.935  30.727   4.192
10895W        W76056  13.455   7.598  12.433
10896W        W76057  29.640  27.695  12.373
10897W        W76058   4.945  38.313  14.650
10898W        W76059  11.930  43.958   4.779
10899W        W76060   5.636  34.440   2.327
10900W        W76061   7.428  35.674   4.623
10901W        W76062  26.704   9.590   2.775
10902W        W76063   2.332  29.109   4.519
10903W        W76064  44.565  34.208   5.025
10904W        W76065  18.770   2.116   2.917
10905W        W76066  19.130  37.499  14.558
10906W        W76067  44.257  18.221   4.137
10907W        W76068  10.884  28.985   0.666
10908W        W76069   2.740  25.615  10.897
10909W        W76070  17.285  24.155  12.931
10910W        W76071  37.888  31.518   4.225
10911W        W76072  42.897  21.992  13.115
10912W        W76073  36.205  27.684   1.977
10913W        W76074  10.626  38.015  12.913
10914W        W76075  19.546  41.976   2.987
10915W        W76076  14.277  27.680  12.542
10916W        W76077  16.292   0.698  13.859
10917W        W76078  28.471  18.548   1.650
10918W        W76079  15.754  15.698   1.914
10919W        W76080  43.509  15.815   1.704
10920W        W76081  17.676  16.857  14.055
10921W        W76082  15.303  36.285   0.836
10922W        W76083  24.447   6.273   0.275
10923W        W76084  10.886  42.841  12.471
10924W        W76085  39.471  11.485   1.226
10925W        W76086  40.287  42.465  12.604
10926W        W76087  44.714  20.240  13.361
10927W        W76088  44.280   6.343   1.807
10928W        W76089  38.073   5.792  12.004
10929W        W76090  19.082  29.644   1.304
10930W        W76091  20.256   2.889   4.114
10931W        W76092   1.964  35.436   2.742
10932W        W76093  35.974  37.716  14.921
10933W        W76094  25.711  29.412   3.538
10934W        W76095  17.836  22.103   3.587
10935W        W76096  13.362  14.294   2.601
10936W        W76097  25.559   8.144   3.579
10937W        W76098  21.976  13.672   5.014
10938W        W76099  38.604  29.926  11.962
10939W        W76100  41.316   4.773   3.185
10940W        W76101  21.112  24.248  13.789
10941W        W76102   9.347  44.342  14.018
10942W        W76103  37.314   4.128   0.797
10943W        W76104  18.785   8.374  12.509
10944W        W76105  28.129  21.881  11.361
10945W        W76106   4.040   9.137   1.548
10946W        W76107  36.890  32.148  11.498
10947W        W76108  44.206  20.581  14.342
10948W        W76109  11.622  26.582   1.935
10949W        W76110  38.024  25.862   1.249
10950W        W76111  30.888  42.152  14.446
10951W        W76112  30.456  43.316   0.407
10952W        W76113   6.167  12.805  10.758
10953W        W76114   5.474  12.733  11.867
10954W        W76115  30.890  22.064   1.423
10955W        W76116   1.903  34.697   3.254
10956W        W76117  20.597  32.059   4.566
10957W        W76118  33.098  28.133  11.714
10958W        W76119   4.209  10.218   2.314
10959W        W76120   3.395   0.012  10.658
10960W        W76121  28.367   6.463  12.382
10961W        W76122  31.437  24.487  13.309
10962W        W76123  15.569   6.196  12.910
10963W        W76124  22.232  11.952   1.132
10964W        W76125   3.878  42.273  11.230
10965W        W76126  32.372  40.022   1.819
10966W        W76127  28.182  37.815   4.216
10967W        W76128  23.607  29.627   3.169
10968W        W76129  19.777  11.103  14.369
10969W        W76130   3.405  15.688  13.130
10970W        W76131  24.712  11.369  14.423
10971W        W76132  32.442   2.859  12.379
10972W        W76133   7.983  41.399   0.772
10973W        W76134  40.360   8.901  13.867
10974W        W76135   5.837  43.704   0.465
10975W        W76136  26.628  28.635   4.737
10976W        W76137  28.677   2.959   2.387
10977W        W76138  10.614  18.634  12.405
10978W        W76139  18.501   4.872  12.135
10979W        W76140  15.742  32.101   2.871
10980W        W76141   5.850   9.779   0.577
10981W        W76142  25.521  15.547  10.673
10982W        W76143  40.565  25.215   2.774
10983W        W76144  23.769   5.158   1.141
10984W        W76145  32.904  30.834   4.291
10985W        W76146  36.584  44.345   0.418
10986W        W76147  42.576  18.157  14.848
10987W        W76148   3.271   9.696   4.677
10988W        W76149  21.108  29.196  11.917
10989W        W76150  43.760  33.091   1.974
10990W        W76151  17.640  13.210   0.033
10991W        W76152  27.660  27.390  12.165
10992W        W76153  19.170  25.172  13.112
10993W        W76154  21.585  35.174  14.766
10994W        W76155  15.245   2.169   2.216
10995W        W76156  12.018  22.730  12.537
10996W        W76157  37.689  41.929  11.003
10997W        W76158  21.793  36.329  12.942
10998W        W76159  17.111   4.813  11.667
10999W        W76160   3.256  16.962  11.817
11000W        W76161  39.281   0.806  12.043
11001W        W76162  10.116  39.666  11.702
11002W        W76163  13.052  41.630  14.805
11003W        W76164  31.518  43.046   1.816
11004W        W76165  15.733  32.030   0.202
11005W        W76166  17.751   3.214   0.428
11006W        W76167  29.510  39.095   2.774
11007W        W76168  35.187  17.762  12.959
11008W        W76169   3.164  30.516  12.907
11009W        W76170   4.139  18.853   2.726
11010W        W76171  42.541   6.973  13.262
11011W        W76172  36.369  19.061   0.107
11012W        W76173   1.617  34.600   2.479
11013W        W76174   3.780  34.450  12.973
11014W        W76175  37.978  30.986   3.195
11015W        W76176  26.996  32.194   2.264
11016W        W76177  25.956  10.404  12.304
11017W        W76178  31.364   8.514  13.530
11018W        W76179  18.504   2.720   0.966
11019W        W76180  31.887  38.547   0.567
11020W        W76181  28.415   5.233   2.742
11021W        W76182  44.280   8.705  14.022
11022W        W76183  42.624  28.632  14.343
11023W        W76184  23.189  36.043  10.153
11024W        W76185  16.289  14.757  13.972
11025W        W76186  30.968  17.286   4.519
11026W        W76187  16.317   2.216   3.612
11027W        W76188  33.502  24.614  11.183
11028W        W76189  20.235  12.610  13.370
11029W        W76190  12.055  23.908   0.486
11030W        W76191   0.909  21.177  13.296
11031W        W76192  36.228   8.090   2.186
11032W        W76193  21.004   2.621   0.278
11033W        W76194  13.500  39.854  13.370
11034W        W76195  27.163  12.636   0.484
11035W        W76196  40.555  19.815  11.602
11036W        W76197  36.907  43.762  14.590
11037W        W76198  38.391   7.103   2.334
11038W        W76199  31.294  19.612   3.413
11039W        W76200  24.951  22.448  12.860
11040W        W76201   1.289  29.887   2.391
11041W        W76202  26.696  30.738   1.345
11042W        W76203  31.949  42.501  14.112
11043W        W76204  23.065  10.088   0.849
11044W        W76205  17.071  11.105  11.458
11045W        W76206  38.362  25.087   1.606
11046W        W76207   0.406   2.420   0.930
11047W        W76208  40.833   3.431  13.458
11048W        W76209  42.974  33.351  11.517
11049W        W76210  26.304  22.080   2.737
11050W        W76211  23.160  19.772   4.346
11051W        W76212   4.337  39.882   0.850
11052W        W76213  13.320  18.846   0.694
11053W        W76214  15.288  38.285  14.300
11054W        W76215  25.566  19.172   4.510
11055W        W76216  44.782   3.061   2.195
11056W        W76217  14.903   5.535   2.759
11057W        W76218  28.400  18.339  12.068
11058W        W76219  23.260  38.370  12.866
11059W        W76220  35.008  23.192  12.146
11060W        W76221   8.381  30.120  14.197
11061W        W76222   5.579  28.600   4.118
11062W        W76223  23.059   2.773   5.002
11063W        W76224  42.770  13.845   2.304
11064W        W76225  18.817  12.187   2.354
11065W        W76226  12.875   2.245  11.196
11066W        W76227  40.544  20.251   0.740
11067W        W76228   4.944  25.146  10.807
11068W        W76229   0.719   1.977  12.556
11069W        W76230   0.654  44.915   2.315
11070W        W76231  35.931  13.654  14.479
11071W        W76232  31.157  34.124  10.684
11072W        W76233  11.295   3.855  13.754
11073W        W76234  37.132  37.497   2.607
11074W        W76235  31.811  10.574  13.487
11075W        W76236  10.698  19.522  14.964
11076W        W76237  17.665   6.152  12.109
11077W        W76238  31.972  27.073   5.593
11078W        W76239  14.833  13.908  14.547
11079W        W76240  32.903   0.428  12.097
11080W        W76241  37.355  26.686   1.920
11081W        W76242  44.849  31.094   0.972
11082W        W76243  28.170  25.455  11.129
11083W        W76244  16.132   1.224   0.752
11084W        W76245  15.001  38.364  11.128
11085W        W76246  21.054  42.315  14.278
11086W        W76247  36.179  21.640  11.096
11087W        W76248  20.802   6.769  12.184
11088W        W76249   1.409  37.893  12.594
11089W        W76250  42.882  36.286   1.704
11090W        W76251  32.939  32.506   4.362
11091W        W76252  33.364   5.798  14.281
11092W        W76253  18.616   6.490  11.396
11093W        W76254  15.315  16.186  11.050
11094W        W76255  28.583  35.389   0.461
11095W        W76256  21.747  20.783   3.674
11096W        W76257   7.042   7.237   4.611
11097W        W76258  25.024   2.287   3.588
11098W        W76259  18.348  34.676  13.101
11099W        W76260  20.200  12.442   2.936
11100W        W76261   3.852  38.876  13.842
11101W        W76262  24.183  41.754  12.901
11102W        W76263  25.558  12.546   0.922
11103W        W76264  11.169  12.059  12.903
11104W        W76265  13.589   9.713   2.206
11105W        W76266  33.192  12.312   3.134
11106W        W76267  30.551   9.292  13.268
11107W        W76268  39.014   0.662   3.786
11108W        W76269  20.780  44.550  14.764
11109W        W76270  34.979   7.176   3.128
11110W        W76271   7.596   9.269  12.196
11111W        W76272  36.301   9.406  10.556
11112W        W76273  12.831   4.868  10.591
11113W        W76274   5.155   9.377  10.625
11114W        W76275  25.706  30.589  11.026
11115W        W76276  40.492   5.748  10.721
11116W        W76277  33.386  16.544  13.916
11117W        W76278  25.990  31.450  13.982
11118W        W76279   4.703   1.240   3.703
11119W        W76280  33.514   9.628   4.719
11120W        W76281  33.491  33.021   2.385
11121W        W76282  14.401  27.131  10.763
11122W        W76283   9.660  42.811  11.162
11123W        W76284   6.349  13.481  14.018
11124W        W76285  26.506   6.247  14.291
11125W        W76286   1.757  23.574   4.617
11126W        W76287  43.800  22.175  13.664
11127W        W76288  31.451  22.702   3.186
11128W        W76289  12.858  26.884  12.544
11129W        W76290  24.643  27.451  13.536
11130W        W76291   4.821  16.808   3.044
11131W        W76292   5.291   2.842  13.940
11132W        W76293  22.018  34.143  13.379
11133W        W76294  42.181   1.727   0.022
11134W        W76295   4.764  43.727   9.428
11135W        W76296   8.816  11.590   0.440
11136W        W76297  36.327  43.504  13.824
11137W        W76298  28.741  16.051   0.456
11138W        W76299  41.200  42.047  12.625
11139W        W76300  41.632  38.561   0.946
11140W        W76301   8.191  36.936   2.380
11141W        W76302  17.743  28.078  14.258
11142W        W76303  27.634   0.318  13.375
11143W        W76304  38.218  44.503  11.755
11144W        W76305  27.108  29.987   1.715
11145W        W76306  10.619  34.086   2.944
11146W        W76307   8.653  37.366   4.155
11147W        W76308  27.349  12.359   2.220
11148W        W76309   1.085  23.215   2.122
11149W        W76310  12.110   9.785   0.420
11150W        W76311   8.614  21.735   4.540
11151W        W76312  38.925  10.986   1.822
11152W        W76313  19.081  10.414   0.383
11153W        W76314   6.782  19.106  13.299
11154W        W76315  22.908  26.398  12.577
11155W        W76316  14.809  14.743  12.971
11156W        W76317  42.011  37.621  11.617
11157W        W76318  14.760   0.686   1.229
11158W        W76319  20.895  31.500   3.273
11159W        W76320  27.942  40.267  13.609
11160W        W76321  26.780  33.362   5.291
11161W        W76322  30.218  34.114   2.723
11162W        W76323   7.188  34.911  13.064
11163W        W76324  16.074  14.323  11.959
11164W        W76325  43.562  42.880   1.373
11165W        W76326   0.737  44.803   4.044
11166W        W76327  12.433   6.853   2.217
11167W        W76328   6.177  12.406  13.742
11168W        W76329  18.639   9.114   4.946
11169W        W76330   9.046  30.950   1.945
11170W        W76331  23.507  42.155  11.795
11171W        W76332  26.841  19.316  11.090
11172W        W76333  22.796  20.808   5.314
11173W        W76334   0.309   4.521  14.065
11174W        W76335  21.915  34.617   2.874
11175W        W76336   1.241  11.211  12.756
11176W        W76337  37.382  11.232  11.995
11177W        W76338  22.019  42.991  12.480
11178W        W76339  40.455  21.555   5.033
11179W        W76340  12.701  12.174  12.986
11180W        W76341  39.330  15.001   2.416
11181W        W76342  19.386   7.892   4.786
11182W        W76343  39.818  28.449  13.081
11183W        W76344  38.325  23.100  14.953
11184W        W76345  44.681  25.124  10.325
11185W        W76346  39.836   5.406   0.310
11186W        W76347   5.982  35.048  11.090
11187W        W76348   4.115  35.941   1.243
11188W        W76349  14.601   3.977   3.581
11189W        W76350  21.034  11.709   1.943
11190W        W76351   0.821  31.066  11.579
11191W        W76352  32.950   5.665   0.249
11192W        W76353  12.540  30.182   3.133
11193W        W76354  19.164  15.556  13.110
11194W        W76355   2.764  19.141   2.731
11195W        W76356   0.412   5.919  11.199
11196W        W76357  33.145  17.378   3.262
11197W        W76358  22.225   0.064  12.514
11198W        W76359  12.777   2.721   3.338
11199W        W76360  34.417  24.106  14.459
11200W        W76361   1.321  38.116   0.845
11201W        W76362  25.331  17.620  10.800
11202W        W76363  33.077  17.679   2.790
11203W        W76364  23.514  12.129   4.446
11204W        W76365  13.056   0.504   4.721
11205W        W76366   2.776  16.085  10.214
11206W        W76367  25.423  35.957   4.498
11207W        W76368  10.349  19.268  14.014
11208W        W76369  34.084  40.219  10.740
11209W        W76370   1.912  33.524   4.594
11210W        W76371  39.448   3.883  14.160
11211W        W76372   9.089   2.361  13.137
11212W        W76373   4.853   4.920  14.635
11213W        W76374  11.956  13.497   0.840
11214W        W76375  13.519  23.851   2.410
11215W        W76376  20.254   5.004   1.706
11216W        W76377  16.722  36.693  11.782
11217W        W76378  16.001  16.081   2.231
11218W        W76379   7.651  39.879   3.963
11219W        W76380  37.832  17.422  10.012
11220W        W76381  32.018   6.590   1.411
11221W        W76382  42.405  12.164  14.890
11222W        W76383   4.698  11.607   3.712
11223W        W76384  16.648  15.863   0.302
11224W        W76385  10.061  25.880  13.502
11225W        W76386  14.191  29.978   3.411
11226W        W76387  19.077  40.338   0.015
11227W        W76388   2.226  24.188   4.937
11228W        W76389  38.458  39.503   1.882
11229W        W76390  16.092  26.708   4.925
11230W        W76391  26.091  36.800  12.787
11231W        W76392  10.381   7.594  11.689
11232W        W76393   6.686  30.430  10.679
11233W        W76394  23.892  20.374   4.531
11234W        W76395  31.868  13.631  11.149
11235W        W76396  31.959  38.438  12.436
11236W        W76397  15.616  24.098   3.153
11237W        W76398  12.394  37.546  10.679
11238W        W76399  29.401   2.864   4.414
11239W        W76400  37.112  10.794   2.754
11240W        W76401  21.627   9.346   2.836
11241W        W76402  33.855  28.974  11.995
11242W        W76403  35.040  37.922   1.228
11243W        W76404  21.338  34.474   3.737
11244W        W76405  20.640  35.193   0.222
11245W        W76406  22.641  18.054  13.440
11246W        W76407   8.252  17.172   4.244
11247W        W76408  15.270  16.203   0.323
11248W        W76409  32.971  43.481   5.401
11249W        W76410  42.208  11.103  13.900
11250W        W76411  23.117  31.931   4.815
11251W        W76412  30.040  36.299  10.518
11252W        W76413  15.708  27.189  11.688
11253W        W76414  32.410  16.767  11.145
11254W        W76415  43.394  39.536   5.790
11255W        W76416   2.744   5.362  13.584
11256W        W76417  42.382  26.355  10.378
11257W        W76418  35.448   1.927   1.720
11258W        W76419  16.492  39.370  11.175
11259W        W76420   7.278  24.057   0.057
11260W        W76421  18.666  12.761  10.799
11261W        W76422   0.363   0.969   2.636
11262W        W76423  14.378  35.112   4.110
11263W        W76424  37.814  16.675  11.333
11264W        W76425  14.387  12.528   1.842
11265W        W76426  19.598  22.493   1.890
11266W        W76427  15.284  11.225  14.761
11267W        W76428  10.142  37.026  14.589
11268W        W76429  11.819   0.919   4.319
11269W        W76430   1.932  30.145   3.116
11270W        W76431   4.287  43.069  13.891
11271W        W76432  13.340  15.917  13.375
11272W        W76433  42.265  31.702   3.185
11273W        W76434   2.992  18.381   2.242
11274W        W76435   1.701  12.059  14.654
11275W        W76436  25.153  26.626   4.191
11276W        W76437  18.793  27.963   0.782
11277W        W76438  27.092  12.205  12.512
11278W        W76439  21.301  36.348   1.294
11279W        W76440  39.220  27.711  12.043
11280W        W76441  34.852  30.657   0.814
11281W        W76442  31.019  44.427   3.089
11282W        W76443  11.830  41.387   3.431
11283W        W76444  22.486  19.788   2.314
11284W        W76445  37.996  37.791  10.587
11285W        W76446  30.022  37.796   3.702
11286W        W76447  42.524  22.125  14.343
11287W        W76448  28.737  13.724  11.717
11288W        W76449   6.788  28.443   1.800
11289W        W76450  37.293  19.468   4.686
11290W        W76451  13.880  23.171   3.294
11291W        W76452  19.279  18.183  14.552
11292W        W76453  18.875  44.525  11.894
11293W        W76454  25.472   6.130  13.162
11294W        W76455  20.509  20.213  10.579
11295W        W76456  43.626  10.349  14.369
11296W        W76457  31.332  38.171   3.660
11297W        W76458  26.356  19.671   0.207
11298W        W76459  25.963   3.243   1.974
11299W        W76460  32.551  28.611   3.851
11300W        W76461  21.013  20.289   1.238
11301W        W76462  10.122  17.744  11.584
11302W        W76463   9.717   9.879  12.506
11303W        W76464   3.806  14.234   2.488
11304W        W76465  18.486  40.184  13.239
11305W        W76466  27.760  16.672   1.222
11306W        W76467  20.530  13.398   1.381
11307W        W76468  30.053  38.723   2.083
11308W        W76469  36.301  10.661   3.827
11309W        W76470  20.613  33.089  12.155
11310W        W76471  23.521  34.914   2.826
11311W        W76472  36.009  25.178  13.292
11312W        W76473  39.303  37.081  12.523
11313W        W76474   1.224  23.096  13.374
11314W        W76475  25.969   4.933  10.948
11315W        W76476  17.170   1.193   0.666
11316W        W76477  18.314  29.807   0.472
11317W        W76478   7.346  20.328  10.655
11318W        W76479  36.398  19.488  12.040
11319W        W76480  24.961   1.728  14.334
11320W        W76481  38.509  13.780  11.110
11321W        W76482  10.438  36.347   3.403
11322W        W76483  38.028  13.236  11.318
11323W        W76484   8.418   7.277  12.587
11324W        W76485  15.646  12.167   1.341
11325W        W76486   2.986  42.492  11.419
11326W        W76487  20.474   8.519   3.254
11327W        W76488  15.168   1.530  12.515
11328W        W76489  35.127   0.926  13.369
11329W        W76490   0.333  19.629   4.198
11330W        W76491   4.751  31.893   2.807
11331W        W76492  12.655  31.669   3.368
11332W        W76493   7.750   9.283   3.038
11333W        W76494  13.269  41.490   4.707
11334W        W76495   0.073   9.869   4.856
11335W        W76496   1.879  30.628  11.229
11336W        W76497  37.602  35.348  11.500
11337W        W76498   3.402  42.248   2.230
11338W        W76499  39.498   6.845   4.800
11339W        W76500   7.717  31.046   0.733
11340W        W76501  27.441  32.558  12.580
11341W        W76502  41.810  16.546  10.327
11342W        W76503  12.089  37.523  11.090
11343W        W76504   3.209  35.511   0.297
11344W        W76505  23.982  11.727  13.412
11345W        W76506  11.769  35.800   0.759
11346W        W76507  36.673  20.020   0.697
11347W        W76508  40.224  16.197   4.088
11348W        W76509  31.887  21.695   2.897
11349W        W76510  35.628   4.721   1.826
11350W        W76511  32.044  39.548   0.913
11351W        W76512  24.802  31.964  13.538
11352W        W76513  29.938  39.067   1.153
11353W        W76514  24.269  24.948   3.247
11354W        W76515  27.508  40.740  13.001
11355W        W76516  11.301  35.509   4.734
11356W        W76517  43.285   1.534   5.022
11357W        W76518  38.282  38.256  14.932
11358W        W76519   5.333  19.800  12.914
11359W        W76520  30.916  11.916   4.140
11360W        W76521  35.249  12.042   2.250
11361W        W76522  25.241  14.700  11.138
11362W        W76523  30.683   4.051  12.980
11363W        W76524   1.512  32.843   2.162
11364W        W76525  21.337  36.848  13.479
11365W        W76526  28.039  21.316  11.228
11366W        W76527  25.063   7.141   0.282
11367W        W76528  24.796  33.158   0.453
11368W        W76529  11.582  36.801  14.999
11369W        W76530  24.454   4.728   4.156
11370W        W76531  38.591   6.204  12.015
11371W        W76532  19.702   0.151  12.603
11372W        W76533  22.644  10.263  14.414
11373W        W76534   0.518   0.322  12.097
11374W        W76535  14.739  43.933   0.045
11375W        W76536   7.697  14.781  10.842
11376W        W76537  22.097  34.663  11.174
11377W        W76538  33.436  14.698  13.529
11378W        W76539  19.685  26.917   3.263
11379W        W76540   1.710   3.339  14.835
11380W        W76541  23.282  16.664  12.056
11381W        W76542  11.017   7.524   2.580
11382W        W76543  41.553  25.835   2.732
11383W        W76544  22.618  37.104  11.681
11384W        W76545  25.591  14.586  10.726
11385W        W76546  23.716  20.401   5.073
11386W        W76547   1.864   2.614   3.653
11387W        W76548  24.168   7.864   2.914
11388W        W76549  30.013  43.390  11.696
11389W        W76550   1.518  31.502  12.104
11390W        W76551  20.941  23.319   4.044
11391W        W76552  34.576  38.934  13.133
11392W        W76553   9.260   5.152  13.774
11393W        W76554  37.549  35.958  12.303
11394W        W76555  17.993  25.694   2.495
11395W        W76556  13.301  44.093   3.858
11396W        W76557  22.661  10.410  10.569
11397W        W76558   4.327  16.784   2.365
11398W        W76559  25.876   8.357   1.006
11399W        W76560  39.873  24.071   1.145
11400W        W76561  15.714   9.269   5.054
11401W        W76562  15.172  43.769  14.783
11402W        W76563  10.086  11.516   3.537
11403W        W76564  37.303  22.765   1.522
11404W        W76565  38.501   3.774   2.214
11405W        W76566  22.862  14.755   0.956
11406W        W76567   4.495  35.358  11.567
11407W        W76568  29.961  34.100  12.196
11408W        W76569  29.650  28.125   1.485
11409W        W76570  30.510   6.261   0.311
11410W        W76571   7.841  13.335   3.098
11411W        W76572  23.639  40.994  14.488
11412W        W76573   1.316   1.665  13.339
11413W        W76574  43.984  12.600  12.561
11414W        W76575  33.268  23.121  10.415
11415W        W76576  31.314  44.936   1.608
11416W        W76577  18.379   5.656  11.071
11417W        W76578  29.046  42.667   0.928
11418W        W76579  35.056  43.401   0.361
11419W        W76580  37.256  41.305   4.081
11420W        W76581  22.195  32.044   3.870
11421W        W76582  36.611   3.182   0.354
11422W        W76583   6.730  24.174   4.364
11423W        W76584  37.562  43.965  14.360
11424W        W76585  40.297   0.820  11.893
11425W        W76586  43.970  40.781   1.800
11426W        W76587  18.777  25.690   4.283
11427W        W76588  23.475  16.293  13.981
11428W        W76589  43.801  30.534   4.241
11429W        W76590  43.358  25.461   0.065
11430W        W76591   7.840  36.616  13.093
11431W        W76592   4.734  34.428  14.775
11432W        W76593  23.192  36.959   2.378
11433W        W76594  36.052  25.991   2.961
11434W        W76595   5.194  42.589  11.989
11435W        W76596   9.723  41.589  12.897
11436W        W76597  43.799  37.517  13.166
11437W        W76598  12.957   0.161  12.669
11438W        W76599  27.312  22.050  10.894
11439W        W76600  15.114  17.294  14.479
11440W        W76601  18.269  36.325  14.890
11441W        W76602  19.214  29.722   3.674
11442W        W76603  44.060  14.778  11.159
11443W        W76604  18.544  33.736   0.907
11444W        W76605  24.580   3.678  10.725
11445W        W76606  39.315  18.268   0.143
11446W        W76607  35.903   5.470   3.227
11447W        W76608   0.845  32.411   1.698
11448W        W76609  12.134  44.684   3.716
11449W        W76610  30.884  42.520   2.843
11450W        W76611  15.495  33.987   4.834
11451W        W76612   6.195  36.301  13.951
11452W        W76613  13.386   0.222   3.189
11453W        W76614  20.792  34.914   3.201
11454W        W76615   9.850   1.331  12.640
11455W        W76616  34.600  34.759   4.233
11456W        W76617  43.453  29.439  10.546
11457W        W76618  27.675  33.539   2.605
11458W        W76619   7.338  16.392   2.875
11459W        W76620  24.460  19.829   4.095
11460W        W76621  17.371  11.402  12.053
11461W        W76622  35.951  14.391  10.724
11462W        W76623  37.075   6.229  13.862
11463W        W76624  25.043  27.411  11.065
11464W        W76625  14.226  21.810  12.847
11465W        W76626  20.392   0.274   4.657
11466W        W76627  13.744  21.154  13.703
11467W        W76628   9.179   0.744  12.588
11468W        W76629  37.010  29.701   3.303
11469W        W76630  19.975  17.281   2.406
11470W        W76631   2.321  26.763  13.435
11471W        W76632  18.757  32.839  12.577
11472W        W76633  13.309  40.092  14.948
11473W        W76634  25.077  30.710   1.201
11474W        W76635   0.087   4.341   4.640
11475W        W76636  10.803  43.037  10.693
11476W        W76637  25.141  22.649  11.851
11477W        W76638  44.253  44.036  14.042
11478W        W76639  40.807  41.897   3.252
11479W        W76640  41.488   8.414   0.269
11480W        W76641   0.474  38.528  13.050
11481W        W76642  11.097  14.107   3.244
11482W        W76643   5.065  37.921  12.053
11483W        W76644  44.737  21.989   0.852
11484W        W76645  31.071  12.727  11.862
11485W        W76646   2.167   5.926   0.007
11486W        W76647  42.001  27.281  11.036
11487W        W76648   6.765  22.599  13.252
11488W        W76649   6.148  19.795   1.208
11489W        W76650   8.884  18.476   3.940
11490W        W76651  43.854  42.565  13.989
11491W        W76652   4.852  10.808   4.676
11492W        W76653  33.892  23.823   0.346
11493W        W76654   1.700  28.618   3.336
11494W        W76655  11.333  35.553   2.285
11495W        W76656   1.134  42.858  13.152
11496W        W76657  31.691  23.502  14.287
11497W        W76658  38.973  11.595  12.188
11498W        W76659  30.978   0.266  11.760
11499W        W76660  44.784  18.098  13.169
11500W        W76661  33.348  14.007  11.710
11501W        W76662  27.392  23.469   1.062
11502W        W76663  22.670  32.690  14.935
11503W        W76664  26.124  35.066  10.627
11504W        W76665  36.801  44.804   0.438
11505W        W76666  39.477  22.819   1.841
11506W        W76667  11.094   7.125  13.841
11507W        W76668  13.149   0.270   0.796
11508W        W76669  19.338  16.587   3.600
11509W        W76670  16.535  16.217   1.405
11510W        W76671   2.244   9.414   2.157
11511W        W76672  10.913  24.153   4.892
11512W        W76673  34.982   2.255   4.476
11513W        W76674  33.959  22.784  13.525
11514W        W76675  15.605   8.920  14.359
11515W        W76676  34.666  37.300   0.167
11516W        W76677  29.915   7.365   0.297
11517W        W76678  10.425   9.106   0.415
11518W        W76679   5.292  19.591   2.871
11519W        W76680  42.790  17.072   0.526
11520W        W76681  12.603  16.050  11.578
11521W        W76682  36.548  25.053   3.262
11522W        W76683  22.805  11.188   3.132
11523W        W76684  44.045  43.651  11.207
11524W        W76685  29.736  43.491   4.340
11525W        W76686   5.183  12.172  13.915
11526W        W76687   9.676  19.136   4.457
11527W        W76688  32.065  14.049   0.664
11528W        W76689  13.202  10.397   2.786
11529W        W76690   7.811   7.359  13.921
11530W        W76691   2.841  14.068  10.406
11531W        W76692  31.450  36.019   3.750
11532W        W76693  10.218  39.439  12.167
11533W        W76694   3.270   1.706  14.501
11534W        W76695   8.013  17.148   1.397
11535W        W76696  28.465  23.721   5.007
11536W        W76697   3.155  26.854   2.830
11537W        W76698  14.733  42.429  12.707
11538W        W76699   5.037  34.189  11.892
11539W        W76700  28.518  40.576  10.669
11540W        W76701  43.226  30.333   1.642
11541W        W76702  35.860  44.773   2.256
11542W        W76703  24.443  21.086   3.218
11543W        W76704  15.247   8.682  12.105
11544W        W76705  15.094  24.703   2.240
11545W        W76706  15.880   0.870  13.607
11546W        W76707  15.306   2.434   2.783
11547W        W76708  15.295  28.043   3.705
11548W        W76709  13.158  19.538   0.322
11549W        W76710  17.997   3.917  14.374
11550W        W76711  10.813  43.395  14.465
11551W        W76712  14.358  21.645  10.533
11552W        W76713  43.377  17.021   0.763
11553W        W76714   9.760  19.664   0.231
11554W        W76715  42.622  22.517  13.996
11555W        W76716  39.590   4.765  13.975
11556W        W76717  42.337   6.603  12.937
11557W        W76718  43.637  15.555  14.409
11558W        W76719   4.256  12.492  11.610
11559W        W76720   9.902  26.212  12.875
11560W        W76721  36.419   7.216  12.447
11561W        W76722  35.664   8.375   1.829
11562W        W76723  33.956   2.779   3.353
11563W        W76724  11.090  44.678  12.406
11564W        W76725  17.674  32.044   2.241
11565W        W76726  27.151   9.850  12.096
11566W        W76727  10.695  23.773   0.422
11567W        W76728  22.909  26.161   4.633
11568W        W76729  12.872  22.960  12.060
11569W        W76730  17.314  40.969  14.575
11570W        W76731   9.239  15.575  12.833
11571W        W76732  10.072  19.345   0.732
11572W        W76733  34.615  21.481   0.791
11573W        W76734  32.136  15.250  12.515
11574W        W76735  39.838  19.643   0.858
11575W        W76736  21.246  34.935  12.066
11576W        W76737  32.118  36.511   3.137
11577W        W76738  11.908  19.323   4.058
11578W        W76739  23.798  18.079   1.959
11579W        W76740  12.177  44.553  14.094
11580W        W76741   2.958  27.514   4.531
11581W        W76742  20.522  22.020   3.243
11582W        W76743  44.218  41.143   5.465
11583W        W76744  23.486  37.164   3.224
11584W        W76745   3.335  32.594  14.948
11585W        W76746  20.706  42.212  13.370
11586W        W76747  36.575  44.439  12.181
11587W        W76748  19.661  11.629   4.133
11588W        W76749   0.947  30.957   0.333
11589W        W76750  18.235   3.740   0.267
11590W        W76751   6.597  29.217  12.378
11591W        W76752  20.715   7.741   0.806
11592W        W76753  41.309  14.130   0.861
11593W        W76754  41.571  19.671  12.550
11594W        W76755  23.192   1.198   1.017
11595W        W76756   6.309   5.967  14.765
11596W        W76757  13.831   6.471   2.292
11597W        W76758   9.803  21.733   2.297
11598W        W76759  30.169   0.293   4.084
11599W        W76760  24.667  26.857  10.692
11600W        W76761  21.748  15.505  14.482
11601W        W76762   9.393  16.419  14.561
11602W        W76763  38.134   8.248   1.940
11603W        W76764  26.151  19.631   3.145
11604W        W76765   7.935  12.037   2.757
11605W        W76766  18.570   3.341  14.980
11606W        W76767  22.022  23.042  12.353
11607W        W76768  16.848  19.099   4.413
11608W        W76769  37.491   8.903  14.254
11609W        W76770  11.804   7.619   1.377
11610W        W76771   8.955   5.460   4.045
11611W        W76772  25.595  28.602  11.096
11612W        W76773  40.432  28.136  10.763
11613W        W76774   9.285   0.281   1.804
11614W        W76775   6.341  28.156   0.392
11615W        W76776   2.715  20.366  11.588
11616W        W76777  19.349  21.216  14.759
11617W        W76778  29.221   1.828  14.964
11618W        W76779  34.334  30.164   1.977
11619W        W76780  13.631  40.053   9.805
11620W        W76781  39.389  27.964   2.427
11621W        W76782   3.286  38.971  13.639
11622W        W76783  21.629  19.066   3.747
11623W        W76784  22.937  35.409   3.246
11624W        W76785  18.556  31.608   2.859
11625W        W76786  28.751  25.132   2.019
11626W        W76787  34.025   2.971   2.391
11627W        W76788  41.892  34.429   3.371
11628W        W76789  25.100  16.628  12.496
11629W        W76790  11.568   0.157   4.987
11630W        W76791  32.444  10.719   0.455
11631W        W76792  34.651  20.498  10.831
11632W        W76793  27.520  19.561  14.239
11633W        W76794   2.467  40.191  11.096
11634W        W76795   1.198  20.978   4.813
11635W        W76796   1.427  37.656  12.104
11636W        W76797  29.043   4.543  12.840
11637W        W76798  19.468  15.177   1.619
11638W        W76799  12.085  34.121   2.306
11639W        W76800  21.249  42.391  12.624
11640W        W76801  30.078  15.871   0.235
11641W        W76802  44.333  15.297  13.083
11642W        W76803  13.324  19.059  14.334
11643W        W76804  11.451  17.325   0.044
11644W        W76805  26.993  32.273  12.552
11645W        W76806  13.552  10.881  13.852
11646W        W76807   7.713   5.028  11.237
11647W        W76808  38.961  13.117   1.034
11648W        W76809   0.250  26.468  14.946
11649W        W76810  34.390  41.174   3.711
11650W        W76811  27.845  34.531  14.467
11651W        W76812  25.928  19.065   4.163
11652W        W76813  23.012  37.454   3.076
11653W        W76814  23.781  30.706  11.192
11654W        W76815  23.464  22.967  14.917
11655W        W76816  26.995   2.002   4.812
11656W        W76817  11.329  43.338  14.422
11657W        W76818  40.341  28.662   0.281
11658W        W76819  30.887  38.433   1.416
11659W        W76820  43.911  40.760  10.180
11660W        W76821  25.793  12.519  10.831
11661W        W76822  40.093  30.595   2.293
11662W        W76823  31.080  26.828  11.199
11663W        W76824   7.254   2.840   0.206
11664W        W76825  14.155  26.001   4.333
11665W        W76826  39.001  28.367   0.397
11666W        W76827  10.470  42.420   3.723
11667W        W76828  14.363  38.556   1.564
11668W        W76829  14.383  41.112   2.948
11669W        W76830   9.828   2.448   1.844
11670W        W76831   7.225   7.133   3.643
11671W        W76832  10.930  27.023  13.382
11672W        W76833   4.735   9.034  13.937
11673W        W76834  36.778  35.148   4.810
11674W        W76835  24.250  44.574  11.659
11675W        W76836  13.338  27.241   2.320
11676W        W76837  38.293  39.935  14.810
11677W        W76838  43.604  28.129  11.682
11678W        W76839   6.889  10.506   3.894
11679W        W76840  18.596  17.146   2.739
11680W        W76841  21.988  27.539  13.716
11681W        W76842   7.557  11.202  13.285
11682W        W76843  32.382  15.026  12.937
11683W        W76844  42.471  42.245  14.119
11684W        W76845   6.422  33.881  12.051
11685W        W76846  10.285  12.745   0.089
11686W        W76847  42.382  13.318   4.990
11687W        W76848  35.402  30.115  14.687
11688W        W76849   2.259  22.132   2.577
11689W        W76850  18.882  14.480   4.495
11690W        W76851   2.862   8.616  13.058
11691W        W76852  15.829  32.699   3.737
11692W        W76853  41.365  13.255   1.216
11693W        W76854   4.913  14.910  13.968
11694W        W76855   3.836  35.429   3.916
11695W        W76856  33.719  16.819   0.329
11696W        W76857   9.666  26.553   0.798
11697W        W76858  32.027  44.793   0.723
11698W        W76859  37.175   8.134  11.961
11699W        W76860  21.033  27.026  14.295
11700W        W76861  29.481  18.010   0.796
11701W        W76862  44.447  16.956  13.357
11702W        W76863   5.121  15.792  10.651
11703W        W76864  22.774  24.474  13.333
11704W        W76865  13.014   4.829   9.765
11705W        W76866   8.883  43.395  14.405
11706W        W76867  14.796  23.733   0.487
11707W        W76868  20.866  32.754   3.945
11708W        W76869  15.231   1.238   3.530
11709W        W76870  36.992  40.782  12.342
11710W        W76871  13.810   5.738   1.776
11711W        W76872  18.686  19.636  10.153
11712W        W76873  18.593  16.885  14.977
11713W        W76874  35.864  37.000  13.895
11714W        W76875  34.952  44.718  10.456
11715W        W76876   1.327  36.520   0.823
11716W        W76877  25.695  40.296  14.517
11717W        W76878  36.853  20.749   4.608
11718W        W76879   8.525  33.588   0.262
11719W        W76880  42.591  17.202   3.355
11720W        W76881   0.370   2.613  12.986
11721W        W76882  37.115  31.466   1.281
11722W        W76883  16.523  44.443  14.344
11723W        W76884  12.354  15.269  12.960
11724W        W76885  29.607  21.936   0.720
11725W        W76886  28.602  39.591  10.735
11726W        W76887  34.622  44.122   5.056
11727W        W76888  14.153  43.220   0.887
11728W        W76889  43.058  32.916   3.681
11729W        W76890  34.908  11.653  13.291
11730W        W76891  40.970  30.203  10.532
11731W        W76892  10.423   0.443  10.734
11732W        W76893   2.744  31.031  14.452
11733W        W76894  22.608  26.268  12.010
11734W        W76895   9.464  13.735  14.291
11735W        W76896  17.814  13.218   2.295
11736W        W76897  17.141   3.894   1.728
11737W        W76898  23.718  15.926  12.509
11738W        W76899   9.742  27.939   1.885
11739W        W76900  42.900  23.452  11.458
11740W        W76901  29.698  41.066  11.881
11741W        W76902  20.696   0.763   4.267
11742W        W76903  27.100  17.696   4.484
11743W        W76904  20.727   3.673   0.758
11744W        W76905  12.858  24.653   4.110
11745W        W76906  11.278   1.282   2.180
11746W        W76907  26.156  17.843  12.422
11747W        W76908  30.417   3.474  14.400
11748W        W76909  26.544  15.675  10.012
11749W        W76910  27.091  15.005   4.160
11750W        W76911  39.334  21.698   4.501
11751W        W76912  30.564  12.881   2.638
11752W        W76913  21.533  29.972  14.239
11753W        W76914   7.113  13.961   1.294
11754W        W76915  34.971  39.732  14.904
11755W        W76916  10.347  43.820   3.251
11756W        W76917   8.116   3.254   2.398
11757W        W76918   5.162  44.714  13.406
11758W        W76919   0.863  39.796   0.572
11759W        W76920  21.721  18.798  10.777
11760W        W76921  42.805  36.660   2.938
11761W        W76922  25.179   4.904  14.380
11762W        W76923   2.271  32.391   0.422
11763W        W76924  36.367  30.524   2.799
11764W        W76925   3.928   8.682   2.300
11765W        W76926   5.831  28.978  10.700
11766W        W76927  20.017  24.043  12.423
11767W        W76928  24.324   8.819  13.685
11768W        W76929  24.060  39.853  13.107
11769W        W76930   6.466  39.868   3.254
11770W        W76931  34.786  39.424   1.032
11771W        W76932  27.650   6.022   3.184
11772W        W76933  35.138  36.828  12.134
11773W        W76934  34.492  28.152   4.722
11774W        W76935   0.941   0.307   2.192
11775W        W76936  31.038  38.970   3.184
11776W        W76937   5.164  17.112   3.695
11777W        W76938  42.932  27.492  11.675
11778W        W76939  14.022  19.522   4.285
11779W        W76940  18.209  14.112   5.284
11780W        W76941  25.655  34.545  12.166
11781W        W76942  13.183  40.973  13.020
11782W        W76943  11.179  29.703  11.390
11783W        W76944  13.517   2.133  14.307
11784W        W76945   8.344  29.589   2.174
11785W        W76946  22.129  31.434   0.004
11786W        W76947   0.287  12.853   3.102
11787W        W76948  22.534   2.761   0.747
11788W        W76949  31.336   6.318   2.761
11789W        W76950  38.840  26.140   0.926
11790W        W76951  44.897  42.800   4.480
11791W        W76952  16.300  39.466   0.437
11792W        W76953  12.894  19.261  13.796
11793W        W76954  33.073  15.081   4.267
11794W        W76955  28.241  20.079  13.552
11795W        W76956  27.502  10.932  11.098
11796W        W76957  12.996  13.779  10.435
11797W        W76958  32.623  31.658   4.221
11798W        W76959  32.186   4.762  13.858
11799W        W76960  29.992  37.483   2.476
11800W        W76961  36.017  26.964   2.125
11801W        W76962  21.681   7.216   3.167
11802W        W76963  26.886  15.151  10.678
11803W        W76964  42.035  34.687   0.899
11804W        W76965   6.366  39.080   2.065
11805W        W76966  14.864   6.722  13.957
11806W        W76967  24.749  13.833  11.193
11807W        W76968  33.441   0.827  14.025
11808W        W76969  26.143  24.424   3.275
11809W        W76970  41.430  35.982  14.219
11810W        W76971  22.027   8.581  11.166
11811W        W76972   2.784  23.767   2.298
11812W        W76973  10.098  33.258   1.422
11813W        W76974   0.053  40.395   3.504
11814W        W76975  30.330  12.150   3.854
11815W        W76976  26.605  18.069   1.774
11816W        W76977  13.318  30.499  10.917
11817W        W76978  41.539  43.290  12.359
11818W        W76979  13.371   7.202  13.035
11819W        W76980  39.516  37.895  12.092
11820W        W76981  18.737  41.262   1.793
11821W        W76982   2.863  39.609  10.617
11822W        W76983  40.478  32.935   2.795
11823W        W76984  14.898  33.529  13.848
11824W        W76985   5.766  16.458  13.634
11825W        W76986  20.301  30.025  13.407
11826W        W76987  42.803  26.781  11.210
11827W        W76988  28.602  42.918   0.927
11828W        W76989  40.130  22.124   0.824
11829W        W76990  24.837  18.168  13.408
11830W        W76991  37.128  23.144  11.276
11831W        W76992  31.457  13.339   4.760
11832W        W76993  39.592  13.685  12.400
11833W        W76994  19.618  43.512  13.234
11834W        W76995   1.815  20.652   4.334
11835W        W76996  29.903   8.328   1.696
11836W        W76997  35.967  20.771  14.696
11837W        W76998  21.173  24.503  13.038
11838W        W76999  44.964  14.289   2.766
11839W        W77000  21.821  21.099  11.870
11840W        W77001  25.479   8.865  10.891
11841W        W77002  44.412  21.391  12.505
11842W        W77003  36.881  43.407   4.002
11843W        W77004  29.224  20.771   1.652
11844W        W77005  40.722  37.308  12.906
11845W        W77006  33.893  25.917   4.513
11846W        W77007   8.733  30.458   0.014
11847W        W77008  19.764  15.823   3.190
11848W        W77009  22.693  14.830   3.656
11849W        W77010  25.662  15.254   3.678
11850W        W77011  19.236  18.335  11.198
11851W        W77012   8.511  25.099  12.987
11852W        W77013  21.624  37.796   4.151
11853W        W77014  27.532  32.878  13.036
11854W        W77015  12.339  16.149  12.035
11855W        W77016  25.065  42.595  13.429
11856W        W77017  38.445  41.371   3.169
11857W        W77018  27.714  22.606  10.295
11858W        W77019   4.270  27.608  10.332
11859W        W77020  18.592  39.441  11.093
11860W        W77021   8.850  16.711  12.612
11861W        W77022  34.592   2.411  11.981
11862W        W77023  29.444   6.770   3.742
11863W        W77024  18.841  33.646  14.602
11864W        W77025  35.490  39.249   3.122
11865W        W77026  18.736   0.306  11.157
11866W        W77027  23.673  18.272   2.953
11867W        W77028  13.577   4.608   3.177
11868W        W77029  34.636  40.488  12.145
11869W        W77030   9.651   3.695  11.187
11870W        W77031   4.679  44.027  11.073
11871W        W77032  36.124  39.726  11.544
11872W        W77033  12.683   6.718   1.276
11873W        W77034  19.169  37.558   1.072
11874W        W77035  13.839   5.409   1.367
11875W        W77036  14.535  41.461  13.634
11876W        W77037  11.807   4.285  10.671
11877W        W77038  24.722  13.709   1.358
11878W        W77039  44.936  40.142  11.517
11879W        W77040  41.725  12.315   2.806
11880W        W77041  13.925  33.929   1.789
11881W        W77042   0.739  10.209   2.185
11882W        W77043   1.795  18.268   0.855
11883W        W77044  10.588  40.817  13.883
11884W        W77045  17.494  23.720  11.868
11885W        W77046  10.677   5.863  10.782
11886W        W77047  40.443  26.163   2.186
11887W        W77048   1.885  17.994  10.831
11888W        W77049  15.804  26.590  14.349
11889W        W77050   1.250   0.676  10.541
11890W        W77051  15.482  41.294   1.726
11891W        W77052  16.612   8.864  12.540
11892W        W77053   3.797  43.978   3.280
11893W        W77054  35.952  37.426   3.203
11894W        W77055  40.444   9.068   0.289
11895W        W77056   6.837   1.257   0.393
11896W        W77057  34.636  28.235   4.225
11897W        W77058   4.627   7.507  12.873
11898W        W77059  18.604  43.332   4.014
11899W        W77060  20.774  36.131   3.174
11900W        W77061  31.158  28.294   1.708
11901W        W77062  29.415  10.833  14.025
11902W        W77063  12.045   5.390   4.566
11903W        W77064  23.727  36.489   2.658
11904W        W77065  18.975   0.444   0.966
11905W        W77066  25.048  38.959  11.461
11906W        W77067  32.049  19.953   4.287
11907W        W77068  10.227  10.630   2.453
11908W        W77069  27.744  34.911   2.760
11909W        W77070  43.597  11.695  11.739
11910W        W77071  44.508  29.953   0.524
11911W        W77072  41.038  17.379  12.167
11912W        W77073  40.010   7.367   0.456
11913W        W77074  19.582   0.763   2.885
11914W        W77075   4.730  13.566   2.424
11915W        W77076  27.926  22.657  14.006
11916W        W77077   3.325  14.807   1.886
11917W        W77078   1.205  41.873   3.809
11918W        W77079   9.358  35.681  13.784
11919W        W77080  21.252  35.570   4.506
11920W        W77081  13.286  41.892   0.454
11921W        W77082  21.219  28.152  13.373
11922W        W77083   7.135  44.135   3.714
11923W        W77084  21.996  22.053  13.373
11924W        W77085   9.783  37.414   0.665
11925W        W77086  31.600  36.133   0.874
11926W        W77087  29.958  13.578   2.617
11927W        W77088   5.284   0.413  11.509
11928W        W77089   5.964  31.638   3.587
11929W        W77090  13.796   1.908  13.031
11930W        W77091  30.049  18.121  12.892
11931W        W77092  29.086   3.964   1.205
11932W        W77093  30.386  38.464   1.674
11933W        W77094   0.987  41.857   1.700
11934W        W77095   7.161  17.544   0.293
11935W        W77096  29.224  22.570  10.190
11936W        W77097  43.817   4.598  11.952
11937W        W77098  26.205  11.187  11.110
11938W        W77099   1.333   7.634   0.625
11939W        W77100  13.106  37.381  13.072
11940W        W77101  35.410  40.052  13.984
11941W        W77102  14.375  35.877  10.822
11942W        W77103   6.384  37.484  14.464
11943W        W77104  34.073  29.691  13.576
11944W        W77105  24.834  30.141  11.919
11945W        W77106  14.368   0.063  12.859
11946W        W77107  43.003  41.592  13.222
11947W        W77108  35.238  14.433   2.422
11948W        W77109   7.334  12.754  11.129
11949W        W77110   5.904  24.792   1.725
11950W        W77111   7.951   1.694   3.802
11951W        W77112  20.073   6.817   4.329
11952W        W77113  34.416  23.480   3.302
11953W        W77114  27.299  23.758   3.627
11954W        W77115  26.192   4.604  11.543
11955W        W77116  17.596   9.012  12.064
11956W        W77117  22.547  26.497  10.255
11957W        W77118   6.025  30.587   1.200
11958W        W77119   3.848   2.820  12.358
11959W        W77120   7.377  44.835   4.180
11960W        W77121  29.168  11.294  11.562
11961W        W77122  24.406  31.837   4.848
11962W        W77123  34.421  11.970   4.318
11963W        W77124  17.973  19.022  12.651
11964W        W77125   4.879  22.291  10.630
11965W        W77126   2.135  40.823   0.527
11966W        W77127  15.174  24.824  14.833
11967W        W77128  44.469  23.176   0.131
11968W        W77129  13.066   2.466  13.023
11969W        W77130  36.386  43.439  11.148
11970W        W77131  37.598  29.163   4.376
11971W        W77132   7.411  39.092  11.561
11972W        W77133  21.813  10.671   0.669
11973W        W77134   6.389  39.981   2.389
11974W        W77135  27.003  24.655   1.877
11975W        W77136   4.963   4.624  12.148
11976W        W77137  43.513   6.411  12.148
11977W        W77138  16.331  16.431  14.012
11978W        W77139  19.007  17.268   2.057
11979W        W77140  27.619  16.915   0.162
11980W        W77141  20.544  28.744  13.911
11981W        W77142  23.776  10.209  14.346
11982W        W77143  43.730  41.849   0.766
11983W        W77144  40.255  19.128   4.717
11984W        W77145  30.097  35.139  11.821
11985W        W77146  23.439  11.711   2.143
11986W        W77147  32.035   8.263   3.773
11987W        W77148  22.970   9.587   0.848
11988W        W77149   6.932  44.533  11.627
11989W        W77150  13.924  20.126   5.050
11990W        W77151   3.763  40.587  10.720
11991W        W77152  37.816   0.695   2.560
11992W        W77153  18.509   9.408   1.273
11993W        W77154   4.127  39.672  12.994
11994W        W77155  15.657   2.870   3.710
11995W        W77156  38.830  36.014  13.859
11996W        W77157  16.839   9.646  10.722
11997W        W77158  25.989   1.877   1.660
11998W        W77159  31.556   8.982  12.525
11999W        W77160  24.151  23.222   2.287
12000W        W77161   6.776  39.065   0.344
12001W        W77162  28.026  44.307  10.283
12002W        W77163  24.734   4.187  14.253
12003W        W77164  44.835   3.359  13.577
12004W        W77165  14.166  44.518   1.360
12005W        W77166  40.484  20.412  14.358
12006W        W77167  20.916  23.723   4.357
12007W        W77168  29.910  15.015   0.539
12008W        W77169  15.204  13.211   1.923
12009W        W77170  25.879  28.246   4.052
12010W        W77171  23.301  13.283  13.273
12011W        W77172  33.982  21.286  14.219
12012W        W77173   9.165  38.693  11.550
12013W        W77174  22.225  28.519  13.772
12014W        W77175  14.770  39.343  14.422
12015W        W77176  21.982   2.298   0.294
12016W        W77177  17.794  21.647  12.351
12017W        W77178  35.872  29.041  11.703
12018W        W77179  15.206   0.762   2.755
12019W        W77180  20.606  44.129  14.988
12020W        W77181  40.435  13.557   0.781
12021W        W77182  14.325   6.266   4.112
12022W        W77183  14.102  23.087   1.728
12023W        W77184  43.955   9.783  10.915
12024W        W77185  17.217  41.595   4.153
12025W        W77186  15.547  33.018   4.059
12026W        W77187  29.772   2.143  12.047
12027W        W77188  18.725   6.319  14.690
12028W        W77189   4.179  43.304   1.303
12029W        W77190  44.235  36.075  12.148
12030W        W77191  43.075  30.910   0.491
12031W        W77192  14.867  26.272   2.723
12032W        W77193  12.094   4.963   0.183
12033W        W77194   3.373  33.008   3.299
12034W        W77195   2.004  42.386   2.974
12035W        W77196  29.708  20.275   4.300
12036W        W77197  29.169  15.538   0.666
12037W        W77198   9.982  23.218   3.104
12038W        W77199  13.823  38.936   0.838
12039W        W77200  25.267  13.901  11.242
12040W        W77201  31.134  28.065  12.958
12041W        W77202  24.032  31.596   4.075
12042W        W77203  20.738  42.006  11.610
12043W        W77204   8.722   7.382  13.986
12044W        W77205  10.693  37.351   1.050
12045W        W77206  30.333  19.536  13.043
12046W        W77207  24.424  39.553   2.950
12047W        W77208  14.031  21.238  10.659
12048W        W77209  20.107  34.923  13.138
12049W        W77210  42.245  30.934   4.922
12050W        W77211   9.342   7.655   0.444
12051W        W77212   4.618  17.351   1.416
12052W        W77213  16.523  13.043   4.397
12053W        W77214  39.958   5.765  11.356
12054W        W77215  13.741   6.647  11.446
12055W        W77216   3.724  31.954  14.831
12056W        W77217  24.080  41.304   1.167
12057W        W77218  28.555  35.001  12.077
12058W        W77219  38.838  18.779   4.616
12059W        W77220  32.992  38.291   2.276
12060W        W77221   4.321   0.057  14.394
12061W        W77222  26.523  23.920  11.940
12062W        W77223  14.384  17.495   1.470
12063W        W77224  43.290   4.775   1.647
12064W        W77225   4.097  44.325   1.368
12065W        W77226   5.568  15.812   1.161
12066W        W77227  37.448  22.821  12.100
12067W        W77228  10.658  40.729   3.712
12068W        W77229  16.110  39.736   2.755
12069W        W77230  35.630   6.279   3.683
12070W        W77231  25.104  34.421   3.800
12071W        W77232  39.826   3.885  12.907
12072W        W77233  34.923   9.910   0.937
12073W        W77234  41.230  43.567   4.067
12074W        W77235  22.195  36.841   1.235
12075W        W77236  19.604  27.478  14.291
12076W        W77237  25.563   8.194   2.756
12077W        W77238  15.843  25.232   4.907
12078W        W77239   6.188  35.374   0.753
12079W        W77240   1.029   8.186   1.405
12080W        W77241  39.037  39.985  12.605
12081W        W77242  26.607  40.429  13.886
12082W        W77243  28.340  29.326   1.211
12083W        W77244  15.028  41.425  14.922
12084W        W77245  32.811  27.358  12.157
12085W        W77246   1.372  25.512  14.658
12086W        W77247   6.257  43.339   4.601
12087W        W77248   6.878  22.244   0.386
12088W        W77249  11.304  22.948  11.555
12089W        W77250   4.961  43.504  11.713
12090W        W77251  43.994   8.358  11.056
12091W        W77252  33.089  44.820   1.501
12092W        W77253  22.222  11.127  13.427
12093W        W77254  31.533  32.944   3.141
12094W        W77255   5.080  38.452   4.263
12095W        W77256   4.388  44.692   3.171
12096W        W77257  20.726  28.846  10.751
12097W        W77258  22.681  11.553   1.861
12098W        W77259  21.240  19.928  14.087
12099W        W77260  44.332  11.793  10.629
12100W        W77261  38.836   4.793   1.224
12101W        W77262  34.643  29.133   0.786
12102W        W77263  30.429  22.244  14.742
12103W        W77264  39.343  41.601  12.503
12104W        W77265  43.871   5.100  11.922
12105W        W77266  33.618  25.259   0.591
12106W        W77267   6.977  40.856   2.358
12107W        W77268  42.828   6.423  12.361
12108W        W77269  27.479  40.727  10.721
12109W        W77270  37.876  28.308   3.427
12110W        W77271  19.290  39.499   0.565
12111W        W77272  17.086   3.920  11.700
12112W        W77273  23.187   1.017  10.535
12113W        W77274  36.866  32.417   2.819
12114W        W77275  27.375  40.802   4.010
12115W        W77276  23.732  22.141   2.618
12116W        W77277  11.992  22.202   1.675
12117W        W77278  36.044  33.115  12.860
12118W        W77279  10.542  32.033  14.877
12119W        W77280  33.788  20.745  10.718
12120W        W77281  37.513   6.156  13.180
12121W        W77282   1.365  24.517   0.382
12122W        W77283   5.805  37.587   1.363
12123W        W77284   9.656   4.812  13.910
12124W        W77285  38.578  32.123   1.232
12125W        W77286  21.545  44.770  13.132
12126W        W77287  18.291  25.486  14.449
12127W        W77288  43.087  14.685  14.654
12128W        W77289  19.214  32.898  11.185
12129W        W77290  17.837  11.222  12.168
12130W        W77291   1.476   9.559  13.246
12131W        W77292  20.710  29.692   2.835
12132W        W77293  14.564  33.406   1.651
12133W        W77294  26.485  10.224   4.198
12134W        W77295  33.006  42.427   4.504
12135W        W77296  10.228  35.525   4.040
12136W        W77297  20.799  31.582   4.702
12137W        W77298  44.213  13.762   2.280
12138W        W77299  29.191  33.439  12.624
12139W        W77300  17.646   8.194   4.452
12140W        W77301  21.095  41.761  10.499
12141W        W77302  43.530  12.887  12.572
12142W        W77303  18.922  44.548   4.641
12143W        W77304  14.550  17.276   4.112
12144W        W77305  12.755   4.056   2.138
12145W        W77306  23.022  20.178  11.848
12146W        W77307  42.988   2.096  13.945
12147W        W77308  18.238  11.689   4.385
12148W        W77309  43.086  32.658   4.398
12149W        W77310  28.212  26.817  14.067
12150W        W77311  36.100  28.802   0.286
12151W        W77312  29.606   6.240   0.539
12152W        W77313  36.752   5.657  11.100
12153W        W77314  39.831   8.628  11.931
12154W        W77315   1.957  30.431   2.670
12155W        W77316  40.271  26.000   1.303
12156W        W77317  38.951  16.750  13.820
12157W        W77318  20.486   9.162  10.629
12158W        W77319  14.085  11.329   1.253
12159W        W77320  12.343  41.666  13.156
12160W        W77321  31.939  32.521   3.047
12161W        W77322  20.087   0.778   0.269
12162W        W77323  21.606  17.961   3.526
12163W        W77324  29.142  41.965   4.097
12164W        W77325   8.243   6.495   0.041
12165W        W77326  10.288   6.375  14.835
12166W        W77327  10.224   5.317   2.867
12167W        W77328  21.568  30.818  13.958
12168W        W77329  16.083  18.500  13.802
12169W        W77330  43.747  28.912   4.388
12170W        W77331  30.355  29.467  12.046
12171W        W77332  11.579  21.941   4.075
12172W        W77333  31.173  24.604   0.304
12173W        W77334  40.390  40.278   3.167
12174W        W77335  22.914  16.449  11.186
12175W        W77336  29.485  30.936  14.005
12176W        W77337  23.769  30.502   3.304
12177W        W77338  28.852   9.154   0.417
12178W        W77339  29.211  30.879   1.245
12179W        W77340  13.726  18.504  11.692
12180W        W77341  32.598  10.333   1.656
12181W        W77342  15.304  20.002   1.816
12182W        W77343  19.448  44.063   2.271
12183W        W77344  24.167  22.118   3.128
12184W        W77345   3.238  12.700  14.969
12185W        W77346   6.544  10.805  12.457
12186W        W77347  11.245   0.176  11.871
12187W        W77348   5.960  15.819   4.292
12188W        W77349  24.499  10.330   1.746
12189W        W77350  40.404  23.589   2.208
12190W        W77351  26.541  21.051  11.983
12191W        W77352  32.550  17.763  11.191
12192W        W77353   3.245   1.080   4.550
12193W        W77354  35.855   9.021  13.562
12194W        W77355   7.160  41.428   3.673
12195W        W77356   7.825  23.632  10.648
12196W        W77357  20.601  17.795   1.338
12197W        W77358  21.725  15.622  10.491
12198W        W77359  42.799  22.506   3.653
12199W        W77360  38.433  36.905  12.234
12200W        W77361  17.835   4.444   0.992
12201W        W77362  15.631  24.547   3.698
12202W        W77363  29.596  33.955   4.217
12203W        W77364  14.536  11.530   3.290
12204W        W77365   3.780   3.664   3.816
12205W        W77366  44.070  33.441  13.588
12206W        W77367  12.862   8.324   3.379
12207W        W77368  10.573  21.595  14.403
12208W        W77369  19.718  11.626  14.423
12209W        W77370  31.482  16.845  11.959
12210W        W77371   3.411   4.522  10.718
12211W        W77372  22.092  12.359   0.840
12212W        W77373  23.121  15.185   1.064
12213W        W77374  11.241   4.726  10.994
12214W        W77375  32.467   4.970  10.504
12215W        W77376  39.471  17.998   0.934
12216W        W77377  37.438  24.318  14.309
12217W        W77378  44.307  14.299   4.143
12218W        W77379  34.544   6.514   4.267
12219W        W77380  26.120  24.641  11.623
12220W        W77381  28.192   2.028   0.263
12221W        W77382  24.762  28.526  13.324
12222W        W77383   3.639  35.984   0.943
12223W        W77384  29.876  33.482  11.568
12224W        W77385  37.619  42.356  14.514
12225W        W77386   5.446  22.675  13.836
12226W        W77387  10.847  41.354   2.507
12227W        W77388  40.318  42.696   0.982
12228W        W77389  38.547  17.037  10.736
12229W        W77390   8.360  16.789   2.553
12230W        W77391  20.705  11.220   4.029
12231W        W77392   3.931  43.315   0.055
12232W        W77393   2.774  27.905  11.157
12233W        W77394  24.971   3.907  11.948
12234W        W77395  41.432  32.720  10.697
12235W        W77396  24.004  20.037  13.534
12236W        W77397  42.029  42.811  10.825
12237W        W77398  22.850  34.094  13.493
12238W        W77399  11.746  44.270   0.390
12239W        W77400  34.189  13.350   0.240
12240W        W77401  30.693  19.159  12.011
12241W        W77402  34.687  39.004   2.363
12242W        W77403   3.552   9.256   9.743
12243W        W77404  32.048  21.583  12.252
12244W        W77405   3.310  25.300   4.287
12245W        W77406  23.066  30.152   2.703
12246W        W77407  20.338  38.521  10.789
12247W        W77408  30.125  41.132  11.059
12248W        W77409  25.063  23.978  11.943
12249W        W77410  17.859  26.200   2.561
12250W        W77411  40.585  43.314  12.039
12251W        W77412  33.200   4.813  13.907
12252W        W77413  25.523   9.352  11.107
12253W        W77414   9.791  28.598  14.213
12254W        W77415  42.034  44.301   3.070
12255W        W77416  24.008  22.564   1.856
12256W        W77417  22.724  17.513  14.779
12257W        W77418  41.049  26.570   1.144
12258W        W77419  39.530  13.841  11.123
12259W        W77420  27.503  11.670   2.769
12260W        W77421  16.144  35.957  14.293
12261W        W77422  12.738  10.596   4.192
12262W        W77423  20.194  23.249   4.433
12263W        W77424  38.923  13.547   1.963
12264W        W77425  30.385   7.735  12.116
12265W        W77426  34.178  25.612  11.586
12266W        W77427   0.995  38.466  12.991
12267W        W77428  27.213   8.385   1.984
12268W        W77429  30.165  34.404   2.297
12269W        W77430  22.409   4.425  11.325
12270W        W77431  23.139  30.140   4.392
12271W        W77432  33.627  31.164   0.273
12272W        W77433  23.591   6.352  11.938
12273W        W77434   4.419  10.727  11.171
12274W        W77435  43.081  12.855   4.557
12275W        W77436  21.275  36.056   3.265
12276W        W77437  10.626   5.669   2.147
12277W        W77438  19.097   9.545  13.067
12278W        W77439  25.845  13.741   3.517
12279W        W77440  22.958   3.365   0.032
12280W        W77441  14.706  32.506   2.609
12281W        W77442   8.316  11.867   2.404
12282W        W77443   8.919  23.236   0.186
12283W        W77444  18.418  17.109   3.213
12284W        W77445  16.697  22.801  10.638
12285W        W77446  43.056  11.805  12.836
12286W        W77447   4.780  42.799   5.049
12287W        W77448  42.829  30.599  12.411
12288W        W77449  30.641  13.214   2.276
12289W        W77450  31.484  30.504   2.892
12290W        W77451  29.451  15.296  12.581
12291W        W77452  17.662  14.531  11.088
12292W        W77453  30.855   5.776   3.693
12293W        W77454  14.686  30.223   2.267
12294W        W77455   5.811  23.847   2.053
12295W        W77456  14.930  11.749  14.670
12296W        W77457  15.133  34.639  12.960
12297W        W77458   5.627  39.978   0.438
12298W        W77459  43.948   7.161   2.191
12299W        W77460  37.977   5.520  14.774
12300W        W77461   8.400  39.837   2.196
12301W        W77462  44.729  38.588   3.168
12302W        W77463  38.243  19.577   1.395
12303W        W77464  11.644  41.067   1.027
12304W        W77465  26.517  12.758  12.056
12305W        W77466  18.189  41.451   4.139
12306W        W77467  33.911  40.434  11.162
12307W        W77468  29.067  44.899   2.232
12308W        W77469  21.755  16.108   2.233
12309W        W77470  12.267  33.705  10.720
12310W        W77471  35.406  23.533  11.596
12311W        W77472  38.669   0.794  14.306
12312W        W77473  11.679  13.028   3.375
12313W        W77474  33.531  27.240  13.389
12314W        W77475   3.791   2.021  11.394
12315W        W77476   9.652  13.762  13.300
12316W        W77477  16.759  41.406  14.413
12317W        W77478  25.771  31.848   0.385
12318W        W77479  36.114  41.001   3.601
12319W        W77480   7.505  44.974  10.731
12320W        W77481   4.808  38.825   0.894
12321W        W77482  35.639   0.202  13.315
12322W        W77483  39.470  30.234  12.437
12323W        W77484  19.093  35.825  12.983
12324W        W77485  41.151  34.530  10.480
12325W        W77486  28.927   5.758  12.584
12326W        W77487   3.854   5.756   0.824
12327W        W77488  39.986  25.060  14.814
12328W        W77489  21.681   9.720   1.354
12329W        W77490  42.210   9.488  12.319
12330W        W77491  39.285  12.478   1.220
12331W        W77492  25.611   7.679   4.473
12332W        W77493  44.161  43.309  12.557
12333W        W77494   3.673  39.961   2.019
12334W        W77495  26.710  11.650   0.826
12335W        W77496   8.265  12.740   0.358
12336W        W77497   9.059  32.058   0.691
12337W        W77498  10.834  16.700  12.018
12338W        W77499  30.134   2.809   5.116
12339W        W77500   2.688  42.207   4.168
12340W        W77501  22.821  23.707   3.153
12341W        W77502  41.213   7.689  10.919
12342W        W77503  22.826  12.630  13.930
12343W        W77504  24.087  33.101   1.029
12344W        W77505   6.381  38.468  12.509
12345W        W77506  35.309  44.302   3.672
12346W        W77507  41.464  28.606   1.192
12347W        W77508  10.347  41.361   3.318
12348W        W77509   3.835   4.191   4.086
12349W        W77510  27.045  11.741   3.568
12350W        W77511  20.673  12.119  10.712
12351W        W77512  42.252   6.416  14.361
12352W        W77513  29.546  34.476   4.410
12353W        W77514  33.496   3.023  12.519
12354W        W77515  40.997  15.681  10.731
12355W        W77516  12.834  39.601   2.808
12356W        W77517  28.098   5.366  12.811
12357W        W77518  24.299  37.900   5.407
12358W        W77519  39.596  22.186   4.528
12359W        W77520  38.430  44.238   1.919
12360W        W77521  39.925  37.508   1.254
12361W        W77522   1.462  23.208   3.989
12362W        W77523   3.819   3.369  11.166
12363W        W77524  40.023  39.437  10.780
12364W        W77525   9.810  29.367  11.594
12365W        W77526  20.995  24.580   4.216
12366W        W77527  41.868  17.119   4.555
12367W        W77528  29.935   3.513  13.160
12368W        W77529  30.621   3.291   2.219
12369W        W77530  17.048   6.785   0.232
12370W        W77531  36.947  27.846  12.071
12371W        W77532  23.648  31.700  12.494
12372W        W77533  22.663  16.635  12.886
12373W        W77534  31.444  22.945   2.140
12374W        W77535  15.668   3.383   0.900
12375W        W77536   5.752  44.318  13.906
12376W        W77537  25.724  34.031   2.679
12377W        W77538  24.661  24.610   0.851
12378W        W77539  37.374  37.737  14.885
12379W        W77540  39.307  41.871  13.422
12380W        W77541   4.374  13.124   0.219
12381W        W77542  30.653  20.569  10.419
12382W        W77543  12.093   7.886   3.178
12383W        W77544  19.781  25.327  13.783
12384W        W77545  18.858   9.274  12.120
12385W        W77546  44.933  14.204   1.024
12386W        W77547   8.025  17.661  14.907
12387W        W77548  43.501  18.615  12.043
12388W        W77549   6.586   3.185   3.642
12389W        W77550  17.208  39.603   1.803
12390W        W77551  37.235  36.865   4.777
12391W        W77552  36.916  24.759   1.298
12392W        W77553  37.629  42.377  10.741
12393W        W77554   1.630  27.227  11.187
12394W        W77555  33.385  15.714   3.611
12395W        W77556  14.287   5.752   0.206
12396W        W77557  35.096  42.129  11.546
12397W        W77558   1.951  24.447  12.139
12398W        W77559  35.991  36.068   0.481
12399W        W77560   2.319  31.530   0.056
12400W        W77561   3.245  30.091  14.045
12401W        W77562  19.566  41.658  12.321
12402W        W77563  33.610  15.105  10.600
12403W        W77564  22.304   1.292   2.170
12404W        W77565   7.531  10.178  14.895
12405W        W77566  12.912  22.585  10.738
12406W        W77567  44.210  31.044  14.802
12407W        W77568  37.981  42.167  11.778
12408W        W77569  43.951   7.137  13.331
12409W        W77570  42.577  21.015   3.243
12410W        W77571  30.880   5.402   4.448
12411W        W77572  13.139  39.095  11.473
12412W        W77573  20.739  31.969  12.146
12413W        W77574  24.852   0.647   0.277
12414W        W77575  33.305  14.373   3.878
12415W        W77576  28.603   3.758   3.685
12416W        W77577  22.076  13.252  13.856
12417W        W77578  23.748  44.343   4.678
12418W        W77579   9.211  10.166  12.653
12419W        W77580   2.611  30.672   4.208
12420W        W77581  38.110  14.786  12.604
12421W        W77582  21.013  10.701  14.756
12422W        W77583  14.563   0.324  13.281
12423W        W77584  40.419  33.607   0.358
12424W        W77585  16.305  28.049  14.488
12425W        W77586  24.659  37.089  12.910
12426W        W77587  12.638  43.712  11.017
12427W        W77588  37.390  30.523   0.479
12428W        W77589  39.373   5.934  13.325
12429W        W77590  43.784  38.076  10.285
12430W        W77591  30.243   2.799   1.329
12431W        W77592  21.493  24.248   2.691
12432W        W77593  36.977   1.125   1.732
12433W        W77594  25.502  12.407  13.358
12434W        W77595   1.324   3.938   1.736
12435W        W77596   0.386  19.360   1.426
12436W        W77597  13.415  24.904   4.113
12437W        W77598  10.692  44.098   4.756
12438W        W77599   6.437   2.427  14.188
12439W        W77600   4.717  41.500   0.790
12440W        W77601  30.399  18.850  14.283
12441W        W77602   6.291  29.136   0.339
12442W        W77603   9.023  44.036   1.445
12443W        W77604  27.880   6.614  14.135
12444W        W77605  15.195  16.342  11.867
12445W        W77606   2.035  39.980   0.905
12446W        W77607  26.834  38.892   2.303
12447W        W77608  40.421  11.747   2.927
12448W        W77609  21.577  34.912   2.570
12449W        W77610   7.189  26.058   0.897
12450W        W77611  16.632   9.238  12.956
12451W        W77612  28.763  14.714   1.221
12452W        W77613  22.849  16.227  12.564
12453W        W77614  17.126  11.216   4.502
12454W        W77615  36.948  31.979   4.149
12455W        W77616  43.492   9.613  11.163
12456W        W77617  42.527  40.302  10.663
12457W        W77618   0.300  44.392  14.260
12458W        W77619  26.237   9.003   1.404
12459W        W77620  40.322   0.540   1.873
12460W        W77621  28.210  34.331   0.443
12461W        W77622  19.666  36.064   0.940
12462W        W77623   5.630  25.641   2.765
12463W        W77624   9.067  44.457   2.185
12464W        W77625  26.992   0.410  11.555
12465W        W77626  16.748  39.359   4.677
12466W        W77627  15.999   3.303   2.244
12467W        W77628   9.109  44.813   2.552
12468W        W77629  10.856  26.433   2.603
12469W        W77630  16.540  21.640  11.176
12470W        W77631  20.603  14.640   0.289
12471W        W77632  22.748  16.231   2.413
12472W        W77633  25.067  31.919   0.703
12473W        W77634  18.729  40.498   2.697
12474W        W77635  20.752  12.176  12.761
12475W        W77636  44.464  22.608  13.593
12476W        W77637  37.530  36.684   3.216
12477W        W77638  17.807  42.787   3.069
12478W        W77639  39.001  27.212   1.874
12479W        W77640   8.920  10.689   2.615
12480W        W77641  17.262  33.862   0.194
12481W        W77642  43.942  23.157   3.788
12482W        W77643  30.574   4.641   3.219
12483W        W77644  21.728   7.578   3.523
12484W        W77645  24.545  29.427   2.193
12485W        W77646  28.589  16.861   0.946
12486W        W77647  37.357  13.092  12.877
12487W        W77648  10.705   7.569  14.899
12488W        W77649  23.946   2.359   2.126
12489W        W77650   8.170  10.228   5.022
12490W        W77651  30.969   7.343   1.658
12491W        W77652  15.559  11.582  12.902
12492W        W77653  42.227   9.802   1.994
12493W        W77654  42.118  38.968   3.255
12494W        W77655   5.976  39.782  13.600
12495W        W77656  23.932   6.283  11.547
12496W        W77657  32.378   1.404   2.837
12497W        W77658  12.091  39.600  13.957
12498W        W77659  37.608   6.729   4.748
12499W        W77660  34.100  36.934   3.595
12500W        W77661  25.933  28.652   1.872
12501W        W77662  10.517  29.987  14.444
12502W        W77663   4.891  11.134  11.448
12503W        W77664   6.579  21.230  14.516
12504W        W77665  22.018  44.018  11.465
12505W        W77666  18.714  43.638   1.260
12506W        W77667  43.608  29.424   4.199
12507W        W77668  29.544   3.290  13.434
12508W        W77669  27.906  17.233  14.213
12509W        W77670   5.344  28.427  14.560
12510W        W77671  20.323  42.674  11.897
12511W        W77672  30.493  18.555   0.874
12512W        W77673  43.017  20.674   4.313
12513W        W77674   4.162  39.798   1.827
12514W        W77675  13.781  13.888   2.879
12515W        W77676  25.125  18.213   4.562
12516W        W77677  19.293  33.538  14.837
12517W        W77678  15.645   1.346  12.351
12518W        W77679   8.113  40.986   2.718
12519W        W77680  22.616  22.991  14.364
12520W        W77681  11.857  38.945   3.057
12521W        W77682  19.342  21.999  12.583
12522W        W77683  15.234  33.585   4.100
12523W        W77684  29.039   4.741   0.938
12524W        W77685  36.575  31.865  13.117
12525W        W77686   1.184  40.358  11.068
12526W        W77687  34.417  42.947   3.642
12527W        W77688   1.311  24.081  11.653
12528W        W77689  12.090  23.269   3.680
12529W        W77690  27.664  37.449  10.457
12530W        W77691  34.058  35.907  12.554
12531W        W77692   4.335  34.992  13.546
12532W        W77693  40.917  41.306   1.814
12533W        W77694  41.016   6.676  14.191
12534W        W77695  38.493   1.883  11.286
12535W        W77696  28.973  18.823  13.852
12536W        W77697  32.876  10.706  11.594
12537W        W77698   1.890   6.702  12.919
12538W        W77699  28.126   0.946  11.719
12539W        W77700  36.172  21.653  13.345
12540W        W77701   2.352  34.690  14.471
12541W        W77702  39.060  31.149   0.996
12542W        W77703  18.493  13.293   3.811
12543W        W77704  26.634  27.022  14.284
12544W        W77705  14.665   3.704   1.693
12545W        W77706  17.217  16.068  11.544
12546W        W77707   3.246  33.570  11.080
12547W        W77708  43.034   4.184  11.608
12548W        W77709   9.439  37.808  13.971
12549W        W77710   0.279  28.180   0.961
12550W        W77711  15.347  41.585  11.108
12551W        W77712   1.848  26.932  11.587
12552W        W77713  28.595  10.231   2.414
12553W        W77714  13.274  10.400   1.837
12554W        W77715  36.110  35.141  12.555
12555W        W77716  23.581   2.053   1.824
12556W        W77717  42.368  40.907  14.840
12557W        W77718  18.997   8.833  12.384
12558W        W77719  44.534  28.980   2.383
12559W        W77720  42.465  40.592   2.873
12560W        W77721  38.259  17.459   3.631
12561W        W77722  18.260  31.073  10.767
12562W        W77723   6.733  10.354   1.736
12563W        W77724  16.183  22.866   4.609
12564W        W77725  18.767  38.689  11.229
12565W        W77726  16.312  44.626  11.198
12566W        W77727   9.887   0.982   2.051
12567W        W77728  24.192  17.184  13.297
12568W        W77729  38.008  32.456   2.892
12569W        W77730   4.689  17.699   3.395
12570W        W77731  44.719  32.067  10.695
12571W        W77732  38.836  18.171  14.940
12572W        W77733  29.391  17.343  14.428
12573W        W77734  42.015  17.606  12.021
12574W        W77735  42.220  24.092  10.486
12575W        W77736  18.656  22.745   3.746
12576W        W77737   6.332  29.103  13.871
12577W        W77738  30.854  15.634   4.169
12578W        W77739  22.980  32.031  14.239
12579W        W77740  44.251  34.513  11.334
12580W        W77741   8.281  18.529  13.859
12581W        W77742  13.322  41.505   1.234
12582W        W77743  29.888  43.526  11.210
12583W        W77744  36.578   1.246  11.362
12584W        W77745  22.681  44.008   1.215
12585W        W77746  28.949  14.159  10.731
12586W        W77747  33.341   5.240  13.642
12587W        W77748  29.715  29.176  12.645
12588W        W77749   9.709   8.974   0.868
12589W        W77750  32.893  22.111   3.319
12590W        W77751  29.617   5.922   3.128
12591W        W77752  14.737  23.627  11.708
12592W        W77753   5.590  15.714  12.491
12593W        W77754  17.094   7.396  11.640
12594W        W77755  39.315  41.117  12.350
12595W        W77756  16.240   8.759   0.021
12596W        W77757  21.209  43.966   0.285
12597W        W77758   0.422   1.620   0.308
12598W        W77759  41.012  11.840   3.616
12599W        W77760  23.375   7.596  11.974
12600W        W77761  41.638  21.683  10.749
12601W        W77762  36.408  29.854   2.850
12602W        W77763  43.844   4.717  11.007
12603W        W77764   2.188   1.313  13.411
12604W        W77765  33.619   6.334   3.978
12605W        W77766   4.446  23.915   0.882
12606W        W77767  23.853  16.770  11.168
12607W        W77768  39.779  27.754   3.589
12608W        W77769  36.861   1.447   0.735
12609W        W77770  42.010   1.894  13.663
12610W        W77771  14.594   3.447  13.984
12611W        W77772  10.394  24.981  12.445
12612W        W77773   6.252  24.502  13.377
12613W        W77774  37.647  24.240   4.174
12614W        W77775  29.989  22.130   3.144
12615W        W77776  16.528  15.232   1.697
12616W        W77777  33.427   7.645   4.127
12617W        W77778  34.109  39.487   2.801
12618W        W77779  40.248  11.714  14.449
12619W        W77780   8.273   9.077  12.112
12620W        W77781  32.223  18.588  14.076
12621W        W77782   8.810   7.814  11.893
12622W        W77783   5.312   7.896   0.039
12623W        W77784  43.657  35.345   3.383
12624W        W77785  10.910  40.814   1.823
12625W        W77786  11.614  14.826   2.807
12626W        W77787   1.486  29.516  13.917
12627W        W77788  24.683  29.560  14.899
12628W        W77789  39.967  14.299  14.664
12629W        W77790  41.994  15.308   4.363
12630W        W77791  13.741  25.780  12.035
12631W        W77792  43.351  19.512   4.026
12632W        W77793  32.520   8.464  13.960
12633W        W77794  29.652   7.738  11.619
12634W        W77795   9.050  37.908  11.152
12635W        W77796   6.127  24.138   0.211
12636W        W77797  17.661  15.607  13.566
12637W        W77798  34.720  30.079  10.823
12638W        W77799   9.999   7.906   3.537
12639W        W77800  26.965  19.689  13.482
12640W        W77801   5.238  32.067   1.027
12641W        W77802   7.567  37.519  14.788
12642W        W77803  19.188  27.994   3.760
12643W        W77804  33.100  17.224  12.527
12644W        W77805  21.408  41.569  13.059
12645W        W77806  12.686  37.312   3.201
12646W        W77807   8.338  33.508  13.089
12647W        W77808  33.234  10.725  14.671
12648W        W77809  16.606   5.191  10.431
12649W        W77810  12.090  43.511   3.095
12650W        W77811  39.608  43.969   0.909
12651W        W77812  20.216  36.316   3.824
12652W        W77813  20.645   1.791  11.606
12653W        W77814   2.190   9.482   1.671
12654W        W77815  16.588  22.548   0.877
12655W        W77816  11.837  41.381  10.582
12656W        W77817  38.390  30.917   4.536
12657W        W77818  16.795  39.363  14.735
12658W        W77819  22.556  38.661  14.067
12659W        W77820  42.020   9.741  13.472
12660W        W77821  34.155  25.201   0.514
12661W        W77822  38.843  14.608  13.761
12662W        W77823   8.343  33.610  11.647
12663W        W77824   0.193  13.678  12.963
12664W        W77825  22.226  38.893   1.293
12665W        W77826  27.180  22.338  14.371
12666W        W77827  16.865  20.977  10.015
12667W        W77828  38.784  28.417  11.364
12668W        W77829  38.913  16.251  13.051
12669W        W77830  12.800  24.413  11.647
12670W        W77831  28.942  33.466   0.809
12671W        W77832  34.350  16.595   4.750
12672W        W77833  11.102  21.433   3.827
12673W        W77834  21.267  34.269   0.759
12674W        W77835  35.382  32.089   0.883
12675W        W77836   9.090  11.719   0.871
12676W        W77837  13.785  13.064  14.886
12677W        W77838  25.528   8.580  14.538
12678W        W77839  41.330  19.212  12.557
12679W        W77840   9.594  39.746   1.289
12680W        W77841  40.250  37.948  13.303
12681W        W77842  10.137  42.831   0.238
12682W        W77843   3.363   4.635   1.474
12683W        W77844  32.810  21.513  11.150
12684W        W77845  37.761  37.258   0.837
12685W        W77846  16.156  30.131  13.085
12686W        W77847  40.385  30.050  10.709
12687W        W77848  44.759  18.753   0.242
12688W        W77849  11.946   6.764   2.054
12689W        W77850   2.486  31.665   2.887
12690W        W77851   4.414  27.107  10.211
12691W        W77852  32.422  28.042   0.434
12692W        W77853   9.702  16.208  12.351
12693W        W77854  38.525  16.502  10.645
12694W        W77855   0.077   7.263  13.949
12695W        W77856  14.794  20.100   1.853
12696W        W77857  38.935  23.478  11.639
12697W        W77858  12.727  29.696   3.114
12698W        W77859  31.795   8.849  10.702
12699W        W77860  37.110   2.883  11.133
12700W        W77861  37.605  44.958   4.786
12701W        W77862   4.702  25.867   3.036
12702W        W77863   4.676  15.094  13.471
12703W        W77864  35.936  33.628   0.458
12704W        W77865   6.245   4.005   3.683
12705W        W77866   1.703  27.395   4.290
12706W        W77867  38.573  18.718   2.692
12707W        W77868  16.788  15.371   0.232
12708W        W77869   9.798  19.736   3.325
12709W        W77870  28.002  26.355   4.071
12710W        W77871  31.629  28.038  11.712
12711W        W77872  26.216  12.281  10.055
12712W        W77873  19.703  43.619   9.381
12713W        W77874  13.234  31.453  14.104
12714W        W77875  33.994  37.242  11.195
12715W        W77876  22.266  32.478   4.793
12716W        W77877  42.745  33.085  14.313
12717W        W77878  11.090  15.742  13.862
12718W        W77879  30.125  24.579   0.210
12719W        W77880   5.216  25.984   3.169
12720W        W77881   2.830  21.080   4.885
12721W        W77882  36.122  29.032  10.708
12722W        W77883  43.346  11.318   2.693
12723W        W77884  32.184  33.190  12.442
12724W        W77885  43.937  10.635  13.508
12725W        W77886  11.785  23.605  10.821
12726W        W77887   0.488  41.049  14.259
12727W        W77888  21.868  29.743  11.956
12728W        W77889  44.430  44.216  10.558
12729W        W77890   9.262  11.018   1.528
12730W        W77891   8.050  13.640   4.083
12731W        W77892   9.821   6.995   4.540
12732W        W77893  25.613  40.076   4.249
12733W        W77894  22.541  13.416  12.947
12734W        W77895   9.362  12.994   5.252
12735W        W77896  26.585  18.604   1.766
12736W        W77897   6.861  38.091  12.021
12737W        W77898   7.329  11.407  13.865
12738W        W77899   4.010  23.459   3.974
12739W        W77900  16.254   3.311   5.323
12740W        W77901  39.202   8.202  13.647
12741W        W77902   4.367  37.886   1.911
12742W        W77903  34.945  11.743  13.854
12743W        W77904  38.496   4.460   4.588
12744W        W77905  11.824  20.151   3.092
12745W        W77906  10.899  13.229   1.832
12746W        W77907  14.967  11.316  14.359
12747W        W77908  41.008  24.211  10.503
12748W        W77909  21.153   2.303   2.629
12749W        W77910  14.450  37.036  14.552
12750W        W77911   4.383   7.369  11.504
12751W        W77912  21.238  20.274   4.215
12752W        W77913   9.204  25.841   1.621
12753W        W77914   8.687   1.244  14.700
12754W        W77915  22.659  10.653  14.033
12755W        W77916  23.207  11.345  13.562
12756W        W77917  35.402  25.518  13.246
12757W        W77918  18.741  28.875  13.455
12758W        W77919  41.057  39.472   2.134
12759W        W77920  40.919  33.055  10.734
12760W        W77921   6.231   0.062  10.335
12761W        W77922  36.123  22.684  11.634
12762W        W77923  35.152  31.568   1.737
12763W        W77924  44.220  32.066  14.857
12764W        W77925  37.157  30.030   4.190
12765W        W77926  31.067  44.353   1.223
12766W        W77927  44.329  31.974   1.664
12767W        W77928  11.840   4.316   2.487
12768W        W77929  12.348  36.574  10.966
12769W        W77930  42.337   8.411   4.316
12770W        W77931  29.106  11.649  12.502
12771W        W77932  43.795  10.628   0.292
12772W        W77933  19.688  19.540   0.508
12773W        W77934  15.696  29.757   4.084
12774W        W77935  37.834   1.982  12.494
12775W        W77936  17.787  22.767   2.356
12776W        W77937  44.885   4.246  13.337
12777W        W77938   7.837  13.551  13.443
12778W        W77939  32.766  32.808  13.852
12779W        W77940   0.525   8.378   2.248
12780W        W77941   6.878  42.386   3.569
12781W        W77942  30.913   1.043   4.179
12782W        W77943  21.023  30.616  12.785
12783W        W77944  27.081  30.419   1.157
12784W        W77945  44.405  17.664  13.961
12785W        W77946  38.463  37.986  10.962
12786W        W77947  41.749  30.224  14.594
12787W        W77948  41.847  30.737   5.228
12788W        W77949  41.893  37.038  12.864
12789W        W77950  38.092  35.321  10.683
12790W        W77951  43.358  23.199  11.621
12791W        W77952  13.141  37.447   1.210
12792W        W77953  32.032  41.842  14.905
12793W        W77954  13.805  18.258  12.359
12794W        W77955  44.482  20.650  11.211
12795W        W77956   3.751   7.109   3.619
12796W        W77957  20.526  33.341  11.699
12797W        W77958  28.094  32.341  12.578
12798W        W77959  10.850   8.939  10.634
12799W        W77960  39.803  11.328   2.974
12800W        W77961  38.835   2.998  13.498
12801W        W77962   6.038  44.411  12.442
12802W        W77963  23.683  18.537  11.634
12803W        W77964   0.842  36.222  14.970
12804W        W77965  15.843  31.650  14.852
12805W        W77966  23.082   5.600   1.887
12806W        W77967  28.936   7.789  12.554
12807W        W77968  39.833   7.293  10.749
12808W        W77969  44.727  44.949   0.274
12809W        W77970   0.788   6.175  10.862
12810W        W77971  44.033  28.495   3.265
12811W        W77972  10.028  24.975  13.464
12812W        W77973   4.424  20.678   4.442
12813W        W77974  10.139  33.459  14.366
12814W        W77975  11.224  28.043  10.649
12815W        W77976   9.898  23.717   4.283
12816W        W77977  21.827  40.370  13.353
12817W        W77978  14.269  39.810   0.252
12818W        W77979  36.095  34.921   0.901
12819W        W77980  28.377  30.500   0.314
12820W        W77981  20.157   9.429   3.754
12821W        W77982  20.984  22.071   9.887
12822W        W77983   2.427  30.428   1.802
12823W        W77984  29.526   4.207   4.061
12824W        W77985  35.231  33.025  13.011
12825W        W77986   6.373  36.643   2.223
12826W        W77987  35.475   7.944   3.117
12827W        W77988  32.361  33.529   4.493
12828W        W77989   6.293  36.649   3.566
12829W        W77990  31.176  42.614   1.119
12830W        W77991  42.856  35.722   0.979
12831W        W77992  25.269  31.554  10.678
12832W        W77993   2.340  18.880   3.954
12833W        W77994  21.192  34.944   2.896
12834W        W77995  44.481  33.290   3.089
12835W        W77996   8.103   4.750  14.314
12836W        W77997  26.519  34.905  11.179
12837W        W77998  16.785  17.416  10.119
12838W        W77999  37.077  29.007   4.615
12839W        W78000  44.879  31.619  13.044
12840W        W78001  40.411  17.259  11.868
12841W        W78002   6.114  30.916   0.790
12842W        W78003  33.374  39.493   3.529
12843W        W78004   6.484  13.061  14.323
12844W        W78005   5.177   3.384   1.841
12845W        W78006  40.223   5.056  11.712
12846W        W78007  27.522  12.926   1.134
12847W        W78008   7.167  11.732   2.153
12848W        W78009  19.558  15.683  14.501
12849W        W78010  27.999  43.884   1.840
12850W        W78011  34.370  41.040  14.052
12851W        W78012  40.623  25.888   4.167
12852W        W78013  41.568  31.609   3.811
12853W        W78014  25.505  21.481  12.090
12854W        W78015   5.848  35.645   2.506
12855W        W78016  44.442  34.475  14.758
12856W        W78017  36.596  37.284   2.477
12857W        W78018  24.959  13.723   2.335
12858W        W78019  23.547  30.354  11.529
12859W        W78020  17.838  25.522  11.615
12860W        W78021  20.124   2.992   4.600
12861W        W78022  18.164  35.274  14.952
12862W        W78023   7.366  21.605   0.294
12863W        W78024  39.468  13.952   1.267
12864W        W78025   6.732   2.197  10.858
12865W        W78026  35.859  14.048  14.045
12866W        W78027  28.468  21.909   0.555
12867W        W78028  10.019  44.051  11.246
12868W        W78029  40.516  27.239   1.824
12869W        W78030   1.900  43.595  11.987
12870W        W78031  42.345  18.808  10.745
12871W        W78032  29.048  38.336   4.358
12872W        W78033  28.601   6.500   3.352
12873W        W78034  36.575  38.796  14.543
12874W        W78035   6.184  30.628  11.946
12875W        W78036  31.114  30.583  10.902
12876W        W78037  37.874   7.696   3.922
12877W        W78038  28.371  39.825  10.309
12878W        W78039   2.284   9.745  13.526
12879W        W78040   5.752   0.377  12.383
12880W        W78041  14.884   1.764  10.691
12881W        W78042  41.987  43.258  12.588
12882W        W78043   4.645   7.626  10.635
12883W        W78044  44.073  33.099   4.572
12884W        W78045  35.956   5.418  14.756
12885W        W78046  16.761   7.492  11.282
12886W        W78047   4.964  18.297  10.717
12887W        W78048  10.278   3.759   0.457
12888W        W78049  44.255  21.009  11.578
12889W        W78050  17.180   6.379  11.539
12890W        W78051  22.030  44.456  10.662
12891W        W78052  24.708  23.526  13.604
12892W        W78053  40.931  39.159   3.757
12893W        W78054  11.666  31.875  14.419
12894W        W78055  39.952   8.396   1.020
12895W        W78056  40.502  27.967   3.626
12896W        W78057  28.329   8.791  11.168
12897W        W78058  25.575  31.669   1.371
12898W        W78059  12.693  28.933   3.566
12899W        W78060  35.967   9.490   1.335
12900W        W78061  31.622  10.625   1.847
12901W        W78062   6.354  33.732   5.332
12902W        W78063  18.717  25.258   2.674
12903W        W78064   5.501  31.946  11.073
12904W        W78065  30.246  21.653  14.359
12905W        W78066  13.829  40.224  13.215
12906W        W78067   0.914  36.371  12.121
12907W        W78068  34.758  31.592  13.987
12908W        W78069   4.330  37.813   1.390
12909W        W78070   6.053  23.111   4.507
12910W        W78071  29.326  17.256   0.304
12911W        W78072  33.479  42.775  12.024
12912W        W78073  17.447   8.595   0.413
12913W        W78074  30.020   8.168   3.168
12914W        W78075  18.143  44.669   3.942
12915W        W78076  19.183  11.647   4.873
12916W        W78077  28.652  33.422  12.878
12917W        W78078  25.000  10.290  11.087
12918W        W78079   8.705  38.007  12.630
12919W        W78080  22.576  36.384   3.221
12920W        W78081  27.038  40.979  13.599
12921W        W78082  38.507  34.517   0.429
12922W        W78083   4.638  18.883  13.715
12923W        W78084  11.266  36.475  10.335
12924W        W78085  17.337  38.370  10.672
12925W        W78086  11.685   7.231  14.781
12926W        W78087  17.023  24.346   4.815
12927W        W78088  30.250  14.795   1.173
12928W        W78089   9.783  41.528   0.677
12929W        W78090  40.541  34.964  12.564
12930W        W78091  16.759  39.024   2.580
12931W        W78092   4.626  32.010   4.930
12932W        W78093  15.722  23.057  13.296
12933W        W78094  17.337  20.039   2.546
12934W        W78095  29.646  40.486   1.493
12935W        W78096  38.886  11.241   3.610
12936W        W78097  24.548  34.108   0.476
12937W        W78098  10.356  13.970   5.063
12938W        W78099  44.340  41.969  14.232
12939W        W78100  34.261  14.265   0.690
12940W        W78101  41.870  44.698  12.531
12941W        W78102  26.874  13.439   3.229
12942W        W78103  34.271  35.094  11.924
12943W        W78104   6.183  36.157   1.306
12944W        W78105  38.777   2.978   1.729
12945W        W78106  44.742   8.979   2.210
12946W        W78107   9.119   9.408   2.857
12947W        W78108  19.982   9.449   2.680
12948W        W78109   7.756  18.232  14.507
12949W        W78110  33.354  18.994   1.777
12950W        W78111  12.576  25.525   0.762
12951W        W78112  28.128   4.267   0.827
12952W        W78113  32.471  33.055  11.158
12953W        W78114  16.373   9.570   4.166
12954W        W78115   1.256   9.939  11.031
12955W        W78116  23.712  39.563  12.481
12956W        W78117   9.612   8.266   2.655
12957W        W78118  12.185   4.862  13.014
12958W        W78119   5.667  24.322   5.077
12959W        W78120  31.588  42.724  10.249
12960W        W78121  40.553  26.540   3.347
12961W        W78122  30.836  17.289   1.219
12962W        W78123  34.214  12.357  13.441
12963W        W78124  35.834   9.198  10.723
12964W        W78125  34.557   1.108   3.810
12965W        W78126  42.391  20.905  12.126
12966W        W78127  31.804  34.351  11.961
12967W        W78128   1.377   1.366  14.977
12968W        W78129   0.280  39.920  14.689
12969W        W78130  34.096  19.669   4.499
12970W        W78131  31.738  27.521  12.972
12971W        W78132  22.165  11.675  12.823
12972W        W78133  43.114  24.493   3.309
12973W        W78134  19.618  10.104   1.154
12974W        W78135  19.734   9.175   3.611
12975W        W78136   9.574  29.357  13.849
12976W        W78137  13.306   5.432  13.278
12977W        W78138  25.814  43.287   0.883
12978W        W78139   9.845  36.201  14.383
12979W        W78140  21.743  38.951   2.810
12980W        W78141  30.429  42.345  12.328
12981W        W78142   6.419  30.740  14.294
12982W        W78143   6.183  10.388  14.920
12983W        W78144  26.035  40.480   2.249
12984W        W78145  14.738  36.892  12.171
12985W        W78146  34.027  43.768  13.557
12986W        W78147   7.544  43.776   0.533
12987W        W78148  37.938  16.109  13.059
12988W        W78149  42.368  25.837   3.293
12989W        W78150  17.468   3.399   2.331
12990W        W78151  13.565  10.101  13.522
12991W        W78152  16.427  41.588   4.621
12992W        W78153  26.271  10.584  11.064
12993W        W78154  23.480  39.093  12.578
12994W        W78155  40.322  36.782  11.135
12995W        W78156  17.708  29.024   3.587
12996W        W78157  32.722   1.738  10.711
12997W        W78158  39.036  40.427  11.689
12998W        W78159  29.858  39.409  12.738
12999W        W78160  28.329  26.636   1.926
13000W        W78161  44.968  24.805   3.462
13001W        W78162  15.196  24.098  10.544
13002W        W78163  38.489   8.399   2.422
13003W        W78164   5.501  39.872  12.118
13004W        W78165  37.340  42.940   0.421
13005W        W78166  11.552  13.362  14.663
13006W        W78167  12.705  43.064  11.649
13007W        W78168  38.846   1.952   4.077
13008W        W78169   1.435  23.748  14.040
13009W        W78170  29.391  32.468  13.351
13010W        W78171  36.703  39.456   0.950
13011W        W78172  32.017  16.525   4.297
13012W        W78173  18.704  30.606  12.837
13013W        W78174   5.387   8.212   1.771
13014W        W78175   7.376  33.103   0.822
13015W        W78176   8.867   2.105  10.748
13016W        W78177  18.105  33.422  13.413
13017W        W78178  40.350  15.548   5.077
13018W        W78179   4.133  39.046   4.115
13019W        W78180  39.102  42.919  11.134
13020W        W78181  41.427  18.782  11.704
13021W        W78182  33.852  12.513   2.236
13022W        W78183  42.525  32.673   0.256
13023W        W78184   4.151  44.848  12.331
13024W        W78185  37.894   9.865  11.888
13025W        W78186  10.717  15.834  14.461
13026W        W78187  29.051  40.353   0.971
13027W        W78188  29.116  18.353  13.699
13028W        W78189  10.732  16.913  11.048
13029W        W78190  44.269  19.687  11.070
13030W        W78191   0.324  28.141  13.901
13031W        W78192  34.629  30.967  12.824
13032W        W78193  30.193  37.039  11.096
13033W        W78194   6.862  15.261   4.998
13034W        W78195  31.482  33.181   0.809
13035W        W78196  15.481   3.106   3.267
13036W        W78197  31.359  21.875   5.100
13037W        W78198  28.935  34.262  12.933
13038W        W78199  35.071  26.146  13.402
13039W        W78200  16.644  31.034   1.158
13040W        W78201  28.223  21.718  13.004
13041W        W78202  38.091  38.842  13.483
13042W        W78203  37.066  42.503   2.229
13043W        W78204  37.428  30.387   1.966
13044W        W78205   2.079  40.589  13.013
13045W        W78206  34.988  27.593  14.539
13046W        W78207  27.897  40.927   4.079
13047W        W78208   0.815  14.736  13.420
13048W        W78209  34.397  29.484   3.700
13049W        W78210  23.238  16.275  13.390
13050W        W78211  34.549  29.061  11.766
13051W        W78212  27.398  32.029  12.837
13052W        W78213  25.962  29.094  14.981
13053W        W78214  39.319   5.864  12.380
13054W        W78215  24.699  34.146   3.657
13055W        W78216   5.902  26.036  12.456
13056W        W78217  42.997  11.659  10.571
13057W        W78218  22.762  33.871  13.033
13058W        W78219  14.786  22.584   2.861
13059W        W78220  37.979  44.957  11.552
13060W        W78221   9.132  12.544  13.955
13061W        W78222   3.749  23.235  14.517
13062W        W78223  21.389  36.797  11.238
13063W        W78224  23.451   7.217   0.483
13064W        W78225  28.745   6.006   2.504
13065W        W78226  26.562  43.853  14.726
13066W        W78227  13.324  35.560  14.652
13067W        W78228  40.755  16.137  10.619
13068W        W78229   9.260  32.950  12.516
13069W        W78230  16.142  38.699  14.943
13070W        W78231  36.954  37.672   0.721
13071W        W78232  38.582  33.893  14.425
13072W        W78233  12.567  19.692   4.234
13073W        W78234  20.290  17.729  12.523
13074W        W78235  21.454   8.622   0.327
13075W        W78236  22.344  31.329  12.834
13076W        W78237  34.437  40.949   0.915
13077W        W78238   4.890   6.029  13.021
13078W        W78239   1.400  34.457   3.254
13079W        W78240   3.958  14.847  12.888
13080W        W78241  37.001  27.296  12.101
13081W        W78242  17.298   7.697   2.293
13082W        W78243  39.032   3.462  13.508
13083W        W78244  35.418  12.297  12.348
13084W        W78245  14.551  23.576  12.707
13085W        W78246  18.871  31.689   4.149
13086W        W78247  33.223  43.423   4.846
13087W        W78248  38.445  24.007   0.012
13088W        W78249  35.290   0.711   1.323
13089W        W78250  40.631   5.227   1.405
13090W        W78251   3.620   5.870  14.853
13091W        W78252  41.328  38.989  11.638
13092W        W78253  31.220  43.339  14.949
13093W        W78254   1.746  40.806  12.698
13094W        W78255  10.784   5.063   0.279
13095W        W78256   2.293  20.559   0.923
13096W        W78257  29.859  44.334  12.376
13097W        W78258  27.703  39.444  12.951
13098W        W78259  29.169  16.325  12.483
13099W        W78260  10.375  44.843   2.267
13100W        W78261  24.430   4.900  13.211
13101W        W78262  11.646  40.781   3.755
13102W        W78263   8.683  28.493   3.304
13103W        W78264  42.919  42.008   4.675
13104W        W78265  11.888   9.835  14.941
13105W        W78266  13.896  11.218  12.039
13106W        W78267  19.582   7.239  12.812
13107W        W78268  40.512  32.947  13.347
13108W        W78269  40.231  10.748   3.443
13109W        W78270  16.296  37.995  11.126
13110W        W78271  21.029  38.063   1.790
13111W        W78272  30.932  38.595  13.866
13112W        W78273  31.807  39.708   3.578
13113W        W78274  25.008  42.887   0.030
13114W        W78275  44.688  26.544   3.324
13115W        W78276   4.905  15.547   3.693
13116W        W78277  17.168  31.341  14.429
13117W        W78278   4.678  41.976   3.187
13118W        W78279  25.100  40.136  12.338
13119W        W78280  12.459  30.722  11.526
13120W        W78281  15.289  19.048   1.747
13121W        W78282   6.450  32.115   3.210
13122W        W78283  10.574  18.930  11.043
13123W        W78284  39.337  29.941   2.252
13124W        W78285  23.571  43.257  14.168
13125W        W78286   1.737  32.888   0.452
13126W        W78287  35.374  11.246   0.857
13127W        W78288  30.928  29.886   0.514
13128W        W78289  16.193  17.676  13.576
13129W        W78290  29.443  22.223  11.064
13130W        W78291  12.224   4.466   3.325
13131W        W78292  16.771   7.473  13.505
13132W        W78293   8.125  21.412  14.403
13133W        W78294  11.676  21.103   4.589
13134W        W78295  31.394  14.715  13.865
13135W        W78296  38.660  26.112  10.214
13136W        W78297  20.816  11.773  14.545
13137W        W78298  34.738  17.992  13.099
13138W        W78299  42.005   8.812  13.431
13139W        W78300  19.059  23.660  13.828
13140W        W78301  11.894  37.250   2.695
13141W        W78302   2.718  27.441  14.763
13142W        W78303  30.507  10.067  13.717
13143W        W78304  34.718  42.492   0.103
13144W        W78305  27.145  17.524  11.173
13145W        W78306  10.591   3.731   2.754
13146W        W78307  15.466  24.596   3.044
13147W        W78308  35.485   2.461  11.911
13148W        W78309  37.804  24.944  11.465
13149W        W78310   3.941  42.646   0.928
13150W        W78311   2.526  36.823   3.819
13151W        W78312  27.263  39.919  11.150
13152W        W78313   9.620  33.356  12.508
13153W        W78314  27.833   4.514  12.122
13154W        W78315   8.951  18.217   0.907
13155W        W78316  39.942   1.893  14.563
13156W        W78317  32.649  23.624  12.094
13157W        W78318   5.775   4.867   2.113
13158W        W78319   0.654  23.213  11.568
13159W        W78320   1.721   6.437  11.001
13160W        W78321  21.011  22.544   1.814
13161W        W78322  10.793  29.651   3.384
13162W        W78323  28.668  18.463  11.158
13163W        W78324  39.226  28.067   3.326
13164W        W78325  33.608   2.225   0.319
13165W        W78326   3.347  15.253  10.930
13166W        W78327   9.047  10.362  13.967
13167W        W78328  12.947  28.672   0.013
13168W        W78329  30.128  27.489   3.208
13169W        W78330  30.413  23.682   1.741
13170W        W78331  10.467   7.087  11.667
13171W        W78332  31.228  11.423  12.036
13172W        W78333  12.340  43.562   3.908
13173W        W78334  15.369   6.638  13.059
13174W        W78335  31.402   7.969  13.591
13175W        W78336  28.642  15.616   4.611
13176W        W78337   9.851  40.003   0.895
13177W        W78338  42.372  18.085   1.344
13178W        W78339  32.124   1.329   1.312
13179W        W78340  35.178  18.304  13.060
13180W        W78341  13.538   4.780   0.282
13181W        W78342   2.365  32.570  13.843
13182W        W78343   9.852  36.520  13.497
13183W        W78344  27.064  20.481   4.191
13184W        W78345  15.618  19.942  14.411
13185W        W78346  40.575   5.108   0.839
13186W        W78347   3.339  10.768  14.792
13187W        W78348  13.289  18.563  13.828
13188W        W78349   8.295  38.751   4.439
13189W        W78350  23.196  32.562  13.368
13190W        W78351  42.529  40.851  12.858
13191W        W78352  40.591   8.658   1.811
13192W        W78353  12.731  39.834  13.795
13193W        W78354  35.064  35.846   2.816
13194W        W78355  20.677  11.345  14.229
13195W        W78356  42.023   4.357  13.055
13196W        W78357  17.833  23.305   2.285
13197W        W78358  30.359  44.858   1.381
13198W        W78359  17.679  40.053  11.762
13199W        W78360  33.850  27.758  10.915
13200W        W78361  13.011  29.076   4.922
13201W        W78362  35.932   5.251   1.206
13202W        W78363  38.514   3.525   0.586
13203W        W78364  22.583  33.338  14.337
13204W        W78365  22.753  38.862  13.622
13205W        W78366  18.382  41.987  14.831
13206W        W78367  16.311   8.369   3.221
13207W        W78368   1.300   6.331  13.588
13208W        W78369  14.652  33.045   2.464
13209W        W78370   4.264  22.578   0.962
13210W        W78371  20.300  32.179   4.964
13211W        W78372  25.151  35.061  10.519
13212W        W78373  14.627  39.597  13.017
13213W        W78374  11.731  33.846  12.697
13214W        W78375  19.642  31.485   2.356
13215W        W78376  33.464  44.952  12.799
13216W        W78377  10.820  36.488  11.619
13217W        W78378   9.328  41.196  12.984
13218W        W78379  16.759   7.128   2.714
13219W        W78380  36.803  44.892  14.000
13220W        W78381  28.004  19.670  14.418
13221W        W78382  26.249  13.692   3.824
13222W        W78383   6.596  30.950  14.987
13223W        W78384   2.660  11.929  14.936
13224W        W78385  30.929   0.026  13.938
13225W        W78386  28.047  37.013   2.408
13226W        W78387  43.021  13.328   2.312
13227W        W78388   7.687  26.458  12.458
13228W        W78389  16.742  14.040  13.799
13229W        W78390  39.047  34.987  10.855
13230W        W78391  30.481  14.114  10.547
13231W        W78392  18.016  15.316   2.709
13232W        W78393  36.405  24.266  14.264
13233W        W78394  10.768   6.833  11.976
13234W        W78395  23.708  34.284   3.755
13235W        W78396   7.667  41.698   2.201
13236W        W78397   6.306  14.909   3.920
13237W        W78398   9.502  26.447  11.085
13238W        W78399  41.863  31.611  11.390
13239W        W78400  11.494  34.540  14.377
13240W        W78401  36.626  41.004  13.853
13241W        W78402  22.343  44.923  13.419
13242W        W78403   9.268  15.334   2.882
13243W        W78404  11.582  25.092  13.350
13244W        W78405  40.196  18.491  13.919
13245W        W78406  40.658  43.979  14.974
13246W        W78407  25.730  14.576   1.974
13247W        W78408  27.104  29.532   2.896
13248W        W78409  38.596  43.017   0.372
13249W        W78410   6.443  39.329  14.437
13250W        W78411  20.120  20.945   3.503
13251W        W78412  14.312  42.815   3.405
13252W        W78413  20.599   3.874   2.305
13253W        W78414  19.045  35.187  12.464
13254W        W78415  39.341  24.753  12.064
13255W        W78416  11.745  10.711  14.483
13256W        W78417  26.026   2.630  10.673
13257W        W78418  16.760   8.781   4.138
13258W        W78419  22.791   0.339  11.186
13259W        W78420  23.534  10.593   1.515
13260W        W78421  11.122   3.870  11.089
13261W        W78422  30.940   2.906  13.861
13262W        W78423  43.455   8.738   3.222
13263W        W78424  19.484  44.032   1.060
13264W        W78425  22.633   0.957   1.896
13265W        W78426  34.650  25.112  12.468
13266W        W78427  42.471   7.402   2.187
13267W        W78428   3.168   7.906  11.433
13268W        W78429  44.719   6.903  14.010
13269W        W78430  29.440  34.900   1.336
13270W        W78431  16.247  13.106  10.674
13271W        W78432  35.557  36.634  13.459
13272W        W78433  19.473  34.958  14.717
13273W        W78434  17.152  40.553  14.833
13274W        W78435  31.211  27.534   3.068
13275W        W78436  41.447  24.176   4.392
13276W        W78437  24.007  35.434  14.054
13277W        W78438  30.158  34.854  14.417
13278W        W78439   1.890  42.100   0.022
13279W        W78440  18.011  26.152   3.640
13280W        W78441   0.054  41.866  13.787
13281W        W78442   2.074   3.704  12.876
13282W        W78443  16.124  13.235   3.649
13283W        W78444  18.594  23.908   0.941
13284W        W78445  44.817  43.529  14.963
13285W        W78446  11.672  16.958  11.127
13286W        W78447  13.360  14.661   3.094
13287W        W78448  26.247   4.589   1.066
13288W        W78449   5.209  20.203  12.576
13289W        W78450  33.176  12.456  13.486
13290W        W78451  10.743  35.056  12.106
13291W        W78452  10.243  21.916   0.335
13292W        W78453   2.419   0.199  11.504
13293W        W78454  18.619  41.931  14.372
13294W        W78455  38.968  36.883  12.148
13295W        W78456  17.581  25.629   4.945
13296W        W78457  27.802  40.581  11.086
13297W        W78458   6.813  17.118  11.450
13298W        W78459  30.669  23.512  14.443
13299W        W78460  28.858  29.462  14.740
13300W        W78461  17.704  14.154  14.080
13301W        W78462  11.651  43.610  13.245
13302W        W78463  19.774  14.179   3.680
13303W        W78464  33.912  14.030  12.878
13304W        W78465  15.746   7.404   1.218
13305W        W78466   4.020  15.261  11.624
13306W        W78467  10.234   3.152  10.905
13307W        W78468  15.109   7.754   1.787
13308W        W78469  40.003  38.051  12.068
13309W        W78470  21.201  11.170   2.680
13310W        W78471  42.975  30.665  14.326
13311W        W78472  19.804  27.731  10.719
13312W        W78473  30.541  35.868   0.821
13313W        W78474   9.415  26.262   4.474
13314W        W78475  13.985  31.960   5.081
13315W        W78476  16.772   5.091   2.766
13316W        W78477  42.318  11.724  10.032
13317W        W78478  15.728  28.925  11.991
13318W        W78479  41.046  44.437  11.086
13319W        W78480  12.334   4.836   0.634
13320W        W78481  42.483   6.343   0.314
13321W        W78482  39.066   9.655  14.140
13322W        W78483  20.680   3.249  14.438
13323W        W78484  36.145  30.217   3.151
13324W        W78485  44.242  36.631  13.031
13325W        W78486  34.181   5.197   3.661
13326W        W78487   4.841  22.559   4.437
13327W        W78488   8.156  43.978   1.205
13328W        W78489  37.854  36.486  13.052
13329W        W78490   9.367  21.614   3.539
13330W        W78491  18.797  34.026  11.529
13331W        W78492  42.769   6.179   1.867
13332W        W78493  14.345  40.085   1.436
13333W        W78494  14.266  44.033  12.780
13334W        W78495  12.906  16.684  14.527
13335W        W78496  12.289  26.453  12.479
13336W        W78497  40.402  38.600   1.424
13337W        W78498  14.693  38.081   3.621
13338W        W78499  26.056  31.550  14.886
13339W        W78500   8.616   8.776  14.724
13340W        W78501   2.526   3.361  14.407
13341W        W78502  41.087  13.318  10.714
13342W        W78503  43.281  24.682   4.590
13343W        W78504  11.762  16.553  14.060
13344W        W78505  37.087   8.847  13.515
13345W        W78506  14.844  36.367   4.479
13346W        W78507  41.793  12.148   3.320
13347W        W78508  34.650   5.851   2.145
13348W        W78509   8.077   7.422  10.688
13349W        W78510  30.948  12.772   0.289
13350W        W78511  10.258  40.198   4.741
13351W        W78512  31.866  13.365  14.150
13352W        W78513  28.098  29.225   0.744
13353W        W78514  43.363   3.940   4.107
13354W        W78515  22.426  41.432  11.035
13355W        W78516  23.427  21.229   2.202
13356W        W78517   9.109  39.331   1.987
13357W        W78518  12.637  11.514  10.734
13358W        W78519   4.951  41.951   4.040
13359W        W78520  30.610  40.468  12.478
13360W        W78521  44.560  28.845   4.051
13361W        W78522  16.996  20.842  14.777
13362W        W78523  16.693  19.035  13.087
13363W        W78524  36.942  40.245   4.431
13364W        W78525  40.858   7.820   4.290
13365W        W78526  42.077  15.798  11.755
13366W        W78527   8.638  13.854  11.997
13367W        W78528  13.374  18.169  14.317
13368W        W78529  40.735  11.731   0.969
13369W        W78530  44.667  36.920  13.072
13370W        W78531   6.651  23.042  12.812
13371W        W78532  41.488   8.614   5.116
13372W        W78533  36.443  25.004   0.184
13373W        W78534  34.037  14.231  11.511
13374W        W78535  40.940  31.157  11.608
13375W        W78536  40.340  43.574   0.726
13376W        W78537  36.812  17.309  13.570
13377W        W78538  32.938  21.258  14.246
13378W        W78539  37.318  20.535  13.899
13379W        W78540  42.232   1.084  13.881
13380W        W78541   6.340  28.653   0.514
13381W        W78542  31.471  21.181  13.929
13382W        W78543  24.000  44.935   0.322
13383W        W78544  26.190   0.131   3.396
13384W        W78545  24.059   2.722   4.605
13385W        W78546   1.316  23.959  13.459
13386W        W78547  23.093  24.778   2.382
13387W        W78548  37.514  15.206  14.820
13388W        W78549   4.475   8.701   0.828
13389W        W78550  29.581   4.658   4.321
13390W        W78551  34.743  12.221   2.247
13391W        W78552  40.915  14.205   4.948
13392W        W78553  15.477  19.124  14.794
13393W        W78554  20.198  26.646  12.002
13394W        W78555  34.876  31.098   3.707
13395W        W78556  18.794  12.825  11.298
13396W        W78557   0.017  39.263   0.424
13397W        W78558  36.610   5.436   0.838
13398W        W78559   1.448  20.548   3.667
13399W        W78560  18.509  26.681  11.661
13400W        W78561  27.638  20.395   3.780
13401W        W78562  29.843  21.586  12.430
13402W        W78563  32.652  10.698   4.235
13403W        W78564  38.200  31.126  12.535
13404W        W78565   6.893  31.046   0.401
13405W        W78566  16.573  35.586   1.494
13406W        W78567  26.650  18.032   4.539
13407W        W78568  32.334  15.723  11.983
13408W        W78569  37.292  28.202   0.099
13409W        W78570  12.742   1.273  13.481
13410W        W78571   1.274  13.627  13.046
13411W        W78572  40.095   5.730   4.785
13412W        W78573   1.437  29.543  14.471
13413W        W78574  30.973  31.236   2.309
13414W        W78575  27.145  17.160   0.828
13415W        W78576  17.054  25.789  11.249
13416W        W78577  14.846  24.210   2.253
13417W        W78578  11.898  31.461  12.044
13418W        W78579  25.809  10.706  11.274
13419W        W78580  17.283  31.566  14.959
13420W        W78581   1.229  16.001   3.361
13421W        W78582   0.489  20.057  10.399
13422W        W78583  30.959  15.870  11.559
13423W        W78584  24.283  38.119   0.573
13424W        W78585  12.021   5.673  11.555
13425W        W78586   9.373  34.755  12.383
13426W        W78587  29.054  44.368   0.177
13427W        W78588  43.216   1.036   3.780
13428W        W78589  34.382  24.930  11.027
13429W        W78590  10.397  17.120  14.008
13430W        W78591   9.623  15.259   4.448
13431W        W78592  42.284  12.238   3.524
13432W        W78593  37.285  33.475  14.367
13433W        W78594  42.094   8.631   3.206
13434W        W78595  38.450  17.539   3.135
13435W        W78596  36.341  18.124   2.880
13436W        W78597  12.535   3.801   0.351
13437W        W78598   4.814  10.560  14.940
13438W        W78599  43.903  38.082   1.362
13439W        W78600  14.897  26.969   3.435
13440W        W78601  34.085   9.678   0.510
13441W        W78602   6.657  41.520   3.870
13442W        W78603  26.202   4.335  13.807
13443W        W78604  34.043  12.740  14.371
13444W        W78605  25.218  44.886   0.820
13445W        W78606  12.152  30.781   0.675
13446W        W78607   5.351  33.994  11.560
13447W        W78608  36.223  19.759   4.888
13448W        W78609  13.343  25.490  10.770
13449W        W78610  11.646   9.346  12.688
13450W        W78611  36.330  21.991  12.386
13451W        W78612  23.926  28.385   4.753
13452W        W78613  14.565  36.982  13.069
13453W        W78614  34.506  41.709   0.315
13454W        W78615  30.131  14.308   4.334
13455W        W78616   5.244  25.849  14.094
13456W        W78617  24.848  18.156   2.271
13457W        W78618  10.101  29.795  11.555
13458W        W78619  33.044  25.609   3.264
13459W        W78620  16.066  29.035  13.977
13460W        W78621  42.866  13.919  12.948
13461W        W78622  22.611  16.794  14.001
13462W        W78623  32.406   1.215   1.904
13463W        W78624  23.298  28.493  12.848
13464W        W78625  30.484  37.385   3.585
13465W        W78626   7.347   9.375   3.345
13466W        W78627  39.903  35.939   2.644
13467W        W78628  24.079  30.083  12.398
13468W        W78629   4.222  35.880  14.287
13469W        W78630  29.850  11.235  12.646
13470W        W78631  18.243  18.858   3.969
13471W        W78632  27.059   9.269   3.371
13472W        W78633   0.177  12.237   1.819
13473W        W78634  30.657   3.260  13.505
13474W        W78635  37.040   0.060  12.613
13475W        W78636  36.074   0.833  13.378
13476W        W78637  16.550  20.078  14.483
13477W        W78638  22.886  25.552  12.379
13478W        W78639  16.026  20.697  14.976
13479W        W78640   8.909  27.045   5.276
13480W        W78641  26.558  38.668  12.635
13481W        W78642  40.758   3.456   2.812
13482W        W78643   1.254   0.813   4.990
13483W        W78644  17.820  42.590  13.502
13484W        W78645  10.621  30.697  13.089
13485W        W78646  39.801  44.009   1.917
13486W        W78647  34.834  19.596  11.625
13487W        W78648  41.224   9.016   2.797
13488W        W78649   9.815   5.444  12.052
13489W        W78650  16.999  12.657  12.990
13490W        W78651  25.000   7.850  13.608
13491W        W78652   5.843  32.970  12.475
13492W        W78653  10.646   1.545  13.025
13493W        W78654  39.807  10.830   2.862
13494W        W78655  12.957  21.103  13.258
13495W        W78656  41.948  43.739  14.913
13496W        W78657  38.980  11.168  14.822
13497W        W78658   4.315  43.452   3.847
13498W        W78659  10.425   7.110  10.899
13499W        W78660   3.273  43.808  12.092
13500W        W78661  16.705  37.172   2.350
13501W        W78662  19.080  31.601  13.974
13502W        W78663  31.636  11.644   1.870
13503W        W78664   6.141  31.945  13.757
13504W        W78665   5.378  20.882   4.602
13505W        W78666  29.135  37.777   3.698
13506W        W78667  28.687  34.956   4.490
13507W        W78668   7.773   6.866  13.748
13508W        W78669   0.214  26.976  14.329
13509W        W78670  16.392  16.811   0.927
13510W        W78671  41.009   2.951   4.521
13511W        W78672  32.229  43.989   3.799
13512W        W78673  22.510  33.995  13.871
13513W        W78674  12.181  22.826  11.152
13514W        W78675   3.497  41.288  11.135
13515W        W78676  22.982  28.341   1.714
13516W        W78677  27.079  18.635   4.033
13517W        W78678   9.402   1.953  14.324
13518W        W78679   0.944  10.825   0.976
13519W        W78680  36.271  37.000   0.775
13520W        W78681  19.446  22.093   2.389
13521W        W78682   3.818  38.483  14.254
13522W        W78683  31.921  40.431   4.624
13523W        W78684  23.791  12.795   2.803
13524W        W78685  34.394  35.925  14.957
13525W        W78686  31.189   9.087  11.935
13526W        W78687  34.339  31.110  12.395
13527W        W78688  19.020  35.811  14.684
13528W        W78689   8.850   1.041  13.720
13529W        W78690  19.763   1.806  13.905
13530W        W78691   5.872  34.955  12.548
13531W        W78692  15.023  10.563   1.589
13532W        W78693  26.398   0.473  13.142
13533W        W78694  42.895   9.671   4.976
13534W        W78695   3.718  42.729   1.838
13535W        W78696  41.511  19.546   4.770
13536W        W78697  38.897   7.036   1.373
13537W        W78698  16.837  34.491  14.880
13538W        W78699  36.794  42.039   2.357
13539W        W78700  13.875  27.125  10.906
13540W        W78701  31.622  19.254   4.527
13541W        W78702  15.034  44.089  14.405
13542W        W78703  27.657  19.556   0.268
13543W        W78704  25.282   2.469   0.442
13544W        W78705   0.172  40.483  11.083
13545W        W78706  42.844  27.665  13.819
13546W        W78707   9.098  28.150  12.499
13547W        W78708  33.822   3.403   2.182
13548W        W78709  22.443  43.978   1.707
13549W        W78710   5.788  42.072  11.625
13550W        W78711  36.847  26.955   4.021
13551W        W78712  35.099  43.488  10.709
13552W        W78713  16.369  25.653   4.316
13553W        W78714  44.897  17.529  13.846
13554W        W78715  31.311  12.639  13.148
13555W        W78716  43.030   5.671  13.455
13556W        W78717  31.624  24.849  14.520
13557W        W78718  12.118   6.419   0.418
13558W        W78719  28.016  41.845  13.475
13559W        W78720  31.136  28.528   0.926
13560W        W78721   6.840   6.244  10.794
13561W        W78722  15.298  18.465  11.013
13562W        W78723  21.463  26.606  13.886
13563W        W78724  14.162  13.397  14.396
13564W        W78725  21.761   8.087   2.181
13565W        W78726   4.403  36.977  14.698
13566W        W78727   7.954  24.410   4.225
13567W        W78728   7.949  29.227  10.472
13568W        W78729  15.816  18.619   2.241
13569W        W78730  24.118   3.744  12.985
13570W        W78731  42.325  29.938   0.898
13571W        W78732  33.076   1.420   1.223
13572W        W78733  44.478   8.501  11.979
13573W        W78734  25.314  11.362   0.436
13574W        W78735  17.035  28.360   1.281
13575W        W78736  20.834   4.039   2.742
13576W        W78737  16.699  20.315  10.218
13577W        W78738  11.317  41.544   2.291
13578W        W78739  42.404  26.235  12.528
13579W        W78740   0.389  15.207  12.153
13580W        W78741  41.286   5.039   4.679
13581W        W78742   7.149  29.419   1.447
13582W        W78743  38.036  33.659   0.619
13583W        W78744  22.971  31.626  13.924
13584W        W78745  34.964  29.561   4.324
13585W        W78746  22.767  25.418  13.288
13586W        W78747  20.032   0.814   1.786
13587W        W78748   8.162  37.107  13.693
13588W        W78749   6.662  33.589  13.828
13589W        W78750   5.011  10.239   4.161
13590W        W78751  14.777  37.061   0.515
13591W        W78752  43.004  25.720  12.029
13592W        W78753  16.686  44.830   1.751
13593W        W78754   5.337   6.416   3.652
13594W        W78755  16.563  11.681  14.244
13595W        W78756  16.383  33.630  11.891
13596W        W78757  12.948   6.470   0.886
13597W        W78758  20.287  33.387   4.215
13598W        W78759  21.535  27.793  14.065
13599W        W78760  15.355  15.626  13.400
13600W        W78761   0.798  31.586   3.405
13601W        W78762   1.913  31.397   4.674
13602W        W78763   4.756   7.243   1.535
13603W        W78764  19.684  34.051   0.286
13604W        W78765  43.624  29.514   0.566
13605W        W78766   2.154  12.082  14.349
13606W        W78767  27.024  10.021   3.684
13607W        W78768  42.834  27.505  13.329
13608W        W78769  19.103  37.206  12.514
13609W        W78770  43.487  17.536   0.104
13610W        W78771  29.078  31.944  10.653
13611W        W78772  17.713  44.115  13.350
13612W        W78773  16.725  14.347   1.254
13613W        W78774  41.365  40.192  12.523
13614W        W78775   3.985  35.726  10.802
13615W        W78776  36.846   1.723   0.295
13616W        W78777  42.967  39.760  12.047
13617W        W78778   2.236  32.942  11.623
13618W        W78779  38.446  10.323  14.396
13619W        W78780  10.504  13.764  12.324
13620W        W78781  37.372   8.423  13.305
13621W        W78782  41.760  22.606   4.567
13622W        W78783  14.385   8.732  14.907
13623W        W78784  22.513   2.369  10.665
13624W        W78785  33.718  40.954   0.210
13625W        W78786   0.449   1.697   3.158
13626W        W78787  33.399  36.572   1.654
13627W        W78788   4.375   4.463  12.964
13628W        W78789  30.308  36.602  11.313
13629W        W78790  24.921  36.902  10.265
13630W        W78791  15.249   3.399  13.106
13631W        W78792  37.455  18.293   1.792
13632W        W78793  13.932  16.074  13.891
13633W        W78794  33.926  30.680   3.317
13634W        W78795  13.116  29.639  10.770
13635W        W78796  29.482  40.840   9.793
13636W        W78797  35.371  42.596  10.977
13637W        W78798  41.864  21.731   0.441
13638W        W78799  30.411  17.561   0.921
13639W        W78800   4.232  43.480   4.704
13640W        W78801  22.010  39.108   5.120
13641W        W78802  44.018   9.667   0.455
13642W        W78803  26.675   9.198  11.535
13643W        W78804   6.914   3.167  11.957
13644W        W78805  26.460  34.157   0.583
13645W        W78806  24.578  31.161   3.584
13646W        W78807   7.628  15.585  10.181
13647W        W78808  24.472  22.685  12.928
13648W        W78809  26.205  37.823  12.582
13649W        W78810  27.949  34.540   4.582
13650W        W78811  27.973  20.197  14.528
13651W        W78812  44.788   4.692   1.782
13652W        W78813  21.326  14.443   5.409
13653W        W78814  21.975  33.168   0.405
13654W        W78815   4.409  31.650  11.820
13655W        W78816  29.889   9.441  10.663
13656W        W78817  29.010   7.572  12.094
13657W        W78818  43.335  33.628   4.131
13658W        W78819  28.748  31.006   1.987
13659W        W78820  44.832   0.906   0.638
13660W        W78821   0.836  42.346   1.921
13661W        W78822  18.530   5.916   0.427
13662W        W78823  35.828  14.650  11.544
13663W        W78824   5.167  26.209  14.474
13664W        W78825  29.989  39.946  14.505
13665W        W78826  14.561   5.100   4.256
13666W        W78827   9.854   2.274  11.678
13667W        W78828  13.292   1.172  12.500
13668W        W78829  42.575  23.607  12.084
13669W        W78830  44.798   7.151   2.701
13670W        W78831  18.290  19.016   2.706
13671W        W78832  11.372  26.534   2.387
13672W        W78833  29.194  10.695   0.450
13673W        W78834  21.225  17.724  11.225
13674W        W78835  34.705  43.514   0.746
13675W        W78836   0.743   0.337   4.211
13676W        W78837   8.272   4.398  12.492
13677W        W78838  24.428  23.181  11.178
13678W        W78839   7.969  31.364  14.246
13679W        W78840  34.877   3.984   0.828
13680W        W78841  30.705  35.574   1.209
13681W        W78842   3.656  27.569   1.714
13682W        W78843   2.643  44.727  12.227
13683W        W78844  14.653  25.830  13.432
13684W        W78845  41.182  12.855  12.482
13685W        W78846   7.285  30.796  12.944
13686W        W78847  35.821  43.036   1.485
13687W        W78848  12.326  13.152   2.672
13688W        W78849  43.326  30.411   4.467
13689W        W78850  41.836   5.735   0.722
13690W        W78851  33.857  20.767   2.389
13691W        W78852  18.744   0.864  11.120
13692W        W78853  12.465  20.951  13.431
13693W        W78854  22.530  10.066   4.413
13694W        W78855  24.196  28.249   1.290
13695W        W78856   7.002  36.854  14.424
13696W        W78857  42.982  34.834   1.317
13697W        W78858  21.056   9.783  13.850
13698W        W78859  28.419  23.022   2.245
13699W        W78860  15.084  25.643   1.844
13700W        W78861  37.039  39.730  14.356
13701W        W78862   0.427   9.549   1.168
13702W        W78863   2.044  42.501   3.479
13703W        W78864   1.607  14.173  14.355
13704W        W78865  36.709   8.679   2.793
13705W        W78866  26.570  26.013  14.556
13706W        W78867  37.557  28.016  10.646
13707W        W78868  32.854  20.760  12.551
13708W        W78869   7.726  35.872  10.047
13709W        W78870  22.669  15.193   4.956
13710W        W78871  34.195  21.622  10.877
13711W        W78872  17.694   8.465  11.667
13712W        W78873  44.412  43.455  12.140
13713W        W78874  31.868   9.438   5.189
13714W        W78875  12.623  31.947   4.548
13715W        W78876  21.115  40.102   0.672
13716W        W78877  12.670  22.703  11.191
13717W        W78878   1.018  13.116  12.182
13718W        W78879   3.465   5.904   3.799
13719W        W78880  24.857   5.051  13.973
13720W        W78881  17.125  28.102  13.059
13721W        W78882  40.149  40.343  13.380
13722W        W78883  14.766   6.181  12.031
13723W        W78884  16.087  10.376   0.401
13724W        W78885  31.466  30.519  10.519
13725W        W78886  19.125  38.466   3.242
13726W        W78887  32.362  18.342   1.584
13727W        W78888  29.542   2.402  11.662
13728W        W78889  17.645  19.718  12.154
13729W        W78890  34.254  27.764  10.601
13730W        W78891  12.445  43.254  11.157
13731W        W78892   2.788  25.571   2.466
13732W        W78893  33.413  44.515  14.520
13733W        W78894   4.653  43.488   2.751
13734W        W78895  12.801  39.190  11.098
13735W        W78896  43.925  19.070   1.442
13736W        W78897  22.390  24.185  10.676
13737W        W78898  38.993   9.153   5.174
13738W        W78899  27.874  11.589  12.351
13739W        W78900  14.614   4.043  14.896
13740W        W78901  35.683  15.057  13.716
13741W        W78902  10.833  41.413  11.627
13742W        W78903   4.352  12.515   0.106
13743W        W78904  22.067  40.346   2.151
13744W        W78905  11.208   1.972  12.479
13745W        W78906  35.668  43.930   3.613
13746W        W78907   5.183   4.230   0.730
13747W        W78908  32.979  41.721   3.631
13748W        W78909  19.371  26.227   1.782
13749W        W78910  41.389  27.868  12.010
13750W        W78911  30.081  14.329  14.394
13751W        W78912  17.775  14.587   1.771
13752W        W78913  15.698  37.877  14.967
13753W        W78914  10.754  22.612  12.549
13754W        W78915  33.890  31.383  12.390
13755W        W78916   5.975  34.887  14.934
13756W        W78917  12.698  25.266   1.323
13757W        W78918  37.163  41.787  11.090
13758W        W78919  43.275  43.370  12.461
13759W        W78920  42.930  38.002  13.032
13760W        W78921  25.647   8.164  12.011
13761W        W78922  18.745   3.840   0.213
13762W        W78923   1.846  32.531   1.911
13763W        W78924  38.613  25.596  12.909
13764W        W78925  38.646   4.369   3.692
13765W        W78926  13.156  36.933   1.249
13766W        W78927  29.611  22.450   3.299
13767W        W78928  16.242  15.536   0.269
13768W        W78929  43.567  19.034   3.805
13769W        W78930  34.977  27.630   2.316
13770W        W78931   2.279  40.375   4.851
13771W        W78932  44.661  21.145   3.616
13772W        W78933  38.763  30.342   5.215
13773W        W78934  15.150  14.497   1.090
13774W        W78935  24.084  26.062  10.289
13775W        W78936   9.870   0.358   4.491
13776W        W78937  20.741  11.326  11.143
13777W        W78938  34.696   2.159   2.231
13778W        W78939  28.843   0.463   1.392
13779W        W78940   0.193  23.944  12.965
13780W        W78941  35.077  14.175  11.696
13781W        W78942  44.237  26.751  14.541
13782W        W78943  40.069  16.748  10.697
13783W        W78944  18.985  42.445  12.439
13784W        W78945   7.114  20.713   4.894
13785W        W78946  11.159  42.559  11.118
13786W        W78947  34.372  38.464  13.002
13787W        W78948  37.558   4.717   1.848
13788W        W78949  20.850  30.938   2.287
13789W        W78950  34.588  41.465  13.720
13790W        W78951  13.944  25.486  12.625
13791W        W78952   5.275  12.716   0.172
13792W        W78953   7.892  14.804   1.797
13793W        W78954  10.254  17.510  14.801
13794W        W78955   2.895   9.812   3.733
13795W        W78956   8.338   5.512  14.912
13796W        W78957  15.219  29.017   2.200
13797W        W78958   1.353  26.705  10.694
13798W        W78959  15.963  16.074  13.970
13799W        W78960  27.024  25.193   1.935
13800W        W78961  34.880  23.969   0.251
13801W        W78962   3.764   4.865   3.198
13802W        W78963  14.178  44.428   4.858
13803W        W78964  29.504  16.345  12.097
13804W        W78965   3.178  38.795  14.864
13805W        W78966  18.246  42.785  13.766
13806W        W78967  13.615  42.894  10.572
13807W        W78968  35.331  37.140   2.838
13808W        W78969  38.884  39.301   2.681
13809W        W78970   0.758  29.186   3.839
13810W        W78971  26.056  30.905  10.654
13811W        W78972  39.105   4.197   0.561
13812W        W78973  17.716  36.113   4.105
13813W        W78974   2.194  24.542   3.166
13814W        W78975   5.234  39.448   2.844
13815W        W78976   1.453   4.140   4.339
13816W        W78977  16.125  36.052   2.745
13817W        W78978  14.141   5.905   3.321
13818W        W78979  26.934  41.037   4.174
13819W        W78980  27.132  24.260   3.587
13820W        W78981   4.640   8.164  11.037
13821W        W78982  18.843  11.202  14.022
13822W        W78983   1.556  37.922   4.742
13823W        W78984  23.962  35.014  10.691
13824W        W78985  33.389   5.430   3.477
13825W        W78986  24.219  41.529  11.655
13826W        W78987  31.473  18.587  14.488
13827W        W78988  19.426  11.906   5.238
13828W        W78989  22.467  39.399  11.215
13829W        W78990  44.150  24.244   5.073
13830W        W78991  27.632  33.935   1.693
13831W        W78992   4.457  39.039   0.356
13832W        W78993   5.161  37.314   3.073
13833W        W78994  22.501   4.173   3.157
13834W        W78995  12.691  24.910  11.477
13835W        W78996  38.394  40.913   0.077
13836W        W78997  13.304  26.248  14.351
13837W        W78998  13.207  33.445   1.466
13838W        W78999  44.985  18.916   1.361
13839W        W79000  12.684  23.447  13.471
13840W        W79001  16.467  31.253   1.594
13841W        W79002  15.126  36.817  13.187
13842W        W79003  37.610   2.779  11.142
13843W        W79004  36.612  27.275  12.698
13844W        W79005   8.759  18.175  13.643
13845W        W79006  31.431  25.906   0.260
13846W        W79007  37.876  38.506   3.590
13847W        W79008   0.533   7.135   4.722
13848W        W79009  24.062  22.802  13.248
13849W        W79010   9.040   1.659  11.609
13850W        W79011  32.517  40.648  11.482
13851W        W79012  18.841   1.387  13.962
13852W        W79013  14.780  21.982   3.197
13853W        W79014  10.298   5.313  14.458
13854W        W79015  25.098  24.147  14.541
13855W        W79016  33.500  34.014   0.933
13856W        W79017  22.435  30.962  14.336
13857W        W79018   1.873  33.687  13.655
13858W        W79019  33.712   5.834   4.661
13859W        W79020  29.873  44.340  11.519
13860W        W79021  22.230  36.550   2.866
13861W        W79022  20.244   2.650   2.145
13862W        W79023  41.454  35.832  11.620
13863W        W79024   8.967  29.724  11.154
13864W        W79025  37.319   2.777   4.133
13865W        W79026  18.131  11.224   4.114
13866W        W79027   4.278   7.125   0.792
13867W        W79028  33.967  44.290  14.688
13868W        W79029  10.146  29.365   5.139
13869W        W79030  43.251  34.830   4.679
13870W        W79031   5.403   4.897  12.046
13871W        W79032  36.280   6.633   4.117
13872W        W79033  32.139   5.712  10.629
13873W        W79034  26.104  33.604  11.926
13874W        W79035  43.200  33.563   2.313
13875W        W79036   8.793  24.121   0.724
13876W        W79037  24.021   4.218  11.221
13877W        W79038  23.419  18.092  13.024
13878W        W79039  26.976  43.221  13.982
13879W        W79040  26.532   8.835   3.855
13880W        W79041  13.166   8.754   1.715
13881W        W79042  24.432   9.877   2.913
13882W        W79043  34.137   0.217  11.610
13883W        W79044   5.924  24.642  12.978
13884W        W79045  31.499   2.218  14.239
13885W        W79046  15.693   3.359  14.408
13886W        W79047  22.044  44.085   2.847
13887W        W79048  10.316   5.785   4.318
13888W        W79049  12.879  35.862   3.776
13889W        W79050  30.174  14.958  13.535
13890W        W79051  30.043  20.998  13.730
13891W        W79052  43.734  17.503  14.657
13892W        W79053   5.197  16.355  12.946
13893W        W79054  22.165   6.764   0.732
13894W        W79055  30.129  43.068  14.517
13895W        W79056  19.217   9.604   0.177
13896W        W79057   0.130  12.347   2.964
13897W        W79058  21.697  10.210  12.420
13898W        W79059  28.892  44.851  13.424
13899W        W79060  19.758   7.377  10.738
13900W        W79061  14.048  10.959   2.795
13901W        W79062   1.503  15.225   2.676
13902W        W79063  28.447  28.651   3.907
13903W        W79064  30.453  41.166   9.843
13904W        W79065  38.167  25.386  10.814
13905W        W79066  23.530  14.798   1.288
13906W        W79067  30.435  12.542  14.027
13907W        W79068  13.263  24.199   0.589
13908W        W79069  13.738  19.770  13.932
13909W        W79070   1.883  21.024  13.345
13910W        W79071  40.626  36.325   2.424
13911W        W79072  25.783  13.858  11.216
13912W        W79073   1.699  13.322  14.514
13913W        W79074   9.340  29.487   3.979
13914W        W79075   2.084  24.358   4.490
13915W        W79076  37.053  27.961  12.940
13916W        W79077  37.881   7.741   0.776
13917W        W79078  43.601  32.651  13.093
13918W        W79079   3.071  22.553   3.715
13919W        W79080   0.469  42.144   3.308
13920W        W79081  19.320  38.855  13.418
13921W        W79082  22.708  28.568  13.582
13922W        W79083  16.634  16.997   3.238
13923W        W79084  40.896  26.612   4.763
13924W        W79085   3.310  15.160  13.868
13925W        W79086  17.142   7.732  12.873
13926W        W79087  26.999  37.976   2.687
13927W        W79088   8.783   2.257   3.385
13928W        W79089  16.543   8.238  11.615
13929W        W79090  30.477   2.759  12.602
13930W        W79091  21.815  19.705   1.224
13931W        W79092  40.123  23.236  11.242
13932W        W79093  38.683   0.728   4.345
13933W        W79094  18.232  13.903  12.695
13934W        W79095   6.642  36.160  10.676
13935W        W79096  18.254  33.972  11.250
13936W        W79097   2.237   5.421   4.213
13937W        W79098  29.230  29.829  14.595
13938W        W79099  18.116  19.049  12.169
13939W        W79100   4.240  14.119   0.396
13940W        W79101  17.738  14.116  10.088
13941W        W79102  38.402   1.293   0.493
13942W        W79103  31.385  44.576  10.646
13943W        W79104  42.705  36.562   1.311
13944W        W79105  25.494   3.589  14.412
13945W        W79106  44.703  30.412   0.422
13946W        W79107  19.522   5.629   0.318
13947W        W79108  25.102  23.484   4.501
13948W        W79109  13.271  42.893   3.380
13949W        W79110  27.012  16.998  12.958
13950W        W79111  22.291  41.489   3.670
13951W        W79112   2.252   5.491   1.233
13952W        W79113   4.333  18.089   2.446
13953W        W79114  31.056  10.223   1.089
13954W        W79115  39.788  42.580  10.656
13955W        W79116  11.445  21.674   0.509
13956W        W79117  14.654   0.697  10.716
13957W        W79118  19.603  39.566   3.633
13958W        W79119  22.200  25.387  11.249
13959W        W79120   3.039  36.906   1.863
13960W        W79121  42.856  33.323   0.279
13961W        W79122   5.306  20.813  13.782
13962W        W79123  13.712  41.369   1.922
13963W        W79124   0.212  29.191  13.969
13964W        W79125  37.602  40.055   3.832
13965W        W79126   3.245   8.192  10.615
13966W        W79127   1.354  35.509  14.986
13967W        W79128  26.511   7.639  12.059
13968W        W79129  31.894  22.124   1.225
13969W        W79130  19.999  37.862   0.941
13970W        W79131  32.927   5.217  10.620
13971W        W79132   5.944  32.931   4.140
13972W        W79133  38.954  32.718   0.900
13973W        W79134   0.697   4.375   0.585
13974W        W79135  40.931  43.236  11.126
13975W        W79136  26.390   7.117  14.342
13976W        W79137  43.917  20.951   0.407
13977W        W79138   0.433  42.482  13.629
13978W        W79139  29.951  33.395   0.638
13979W        W79140  21.071  24.371   3.040
13980W        W79141  39.598  19.558  13.815
13981W        W79142  39.906   0.179   2.732
13982W        W79143   2.263   0.688   0.510
13983W        W79144   9.695   8.635  11.960
13984W        W79145  42.287  35.666  13.819
13985W        W79146  24.418  34.796  12.906
13986W        W79147  11.854   8.147   1.341
13987W        W79148  16.569  28.910  10.584
13988W        W79149  28.457   0.274   1.025
13989W        W79150  42.977   7.393   2.279
13990W        W79151   3.379  11.308   1.838
13991W        W79152  20.593   3.349   2.227
13992W        W79153  32.405  17.261   4.370
13993W        W79154  16.502  14.618   2.369
13994W        W79155  41.698  38.041   3.545
13995W        W79156  42.273  15.687   2.662
13996W        W79157   0.003  18.783   1.886
13997W        W79158   1.408   9.416  11.853
13998W        W79159  22.676  29.376  11.599
13999W        W79160  14.210   7.310   0.428
14000W        W79161  33.173  37.930   0.973
14001W        W79162  15.781  17.309  14.990
14002W        W79163  41.653  31.978   4.695
14003W        W79164  42.689  24.553   1.747
14004W        W79165  33.710  25.275  10.692
14005W        W79166  37.176   9.797   0.929
14006W        W79167  33.500  28.440  12.616
14007W        W79168  37.899  22.763  14.823
14008W        W79169   6.346  14.609  11.085
14009W        W79170  19.352  17.435  14.019
14010W        W79171  44.730   8.106   2.390
14011W        W79172  39.655  20.571  13.690
14012W        W79173  33.369  42.290  12.274
14013W        W79174  16.758  12.885  10.719
14014W        W79175  21.930  34.118   2.724
14015W        W79176  21.462  14.118   4.997
14016W        W79177  23.512  14.549  13.296
14017W        W79178  41.805  28.506  14.077
14018W        W79179  32.212  43.766  13.503
14019W        W79180  27.573  41.794   3.157
14020W        W79181  17.759  38.351   1.769
14021W        W79182  42.975   7.992   4.419
14022W        W79183  22.469  25.924   0.864
14023W        W79184  14.537  44.760   2.272
14024W        W79185  42.125   2.522  12.528
14025W        W79186  16.057  36.829  10.605
14026W        W79187  19.636  18.686   4.327
14027W        W79188  41.816  32.643  11.454
14028W        W79189  10.601  20.850   3.361
14029W        W79190   2.663  18.040  14.403
14030W        W79191  16.738  23.647   3.079
14031W        W79192  21.104   1.437  13.969
14032W        W79193   0.369  25.504   2.793
14033W        W79194  30.557  28.104   2.767
14034W        W79195  20.744  23.958   0.872
14035W        W79196   7.744   6.823   1.852
14036W        W79197  38.906  15.521  12.414
14037W        W79198   9.229  19.445  14.587
14038W        W79199  14.189  18.971  11.621
14039W        W79200  11.238   8.350  14.947
14040W        W79201  17.589  25.786   2.015
14041W        W79202  38.947   8.442  14.326
14042W        W79203  11.666  15.307   0.964
14043W        W79204  37.750  43.007   0.122
14044W        W79205   1.326  19.215   1.308
14045W        W79206  17.323  30.644   3.715
14046W        W79207   3.294  27.856   0.479
14047W        W79208  37.579  21.565  14.919
14048W        W79209  30.733   0.732   1.609
14049W        W79210  15.900  33.375  13.331
14050W        W79211  38.785  26.013  11.046
14051W        W79212  13.081   9.866   4.593
14052W        W79213  41.721   9.694  11.622
14053W        W79214  44.335   7.949   2.704
14054W        W79215  27.186   8.290   2.484
14055W        W79216  37.609   6.860  12.183
14056W        W79217  11.163  11.859  10.286
14057W        W79218  34.705  17.782   0.410
14058W        W79219  29.321  12.406   2.182
14059W        W79220  37.532   1.693  14.918
14060W        W79221  42.097  27.861  11.202
14061W        W79222  13.862  20.128  11.544
14062W        W79223  31.096  28.042  13.969
14063W        W79224  36.456   2.680   1.164
14064W        W79225  44.390   9.690  13.609
14065W        W79226  30.139   4.382   0.723
14066W        W79227  18.061  29.123  11.941
14067W        W79228  10.385  20.828   0.865
14068W        W79229  38.543  29.897   2.696
14069W        W79230  26.747  29.688   4.758
14070W        W79231  27.499   2.897  13.443
14071W        W79232   8.300  43.023  13.525
14072W        W79233  20.932  43.212  14.347
14073W        W79234  12.224  33.870  11.987
14074W        W79235  38.160  20.126  12.107
14075W        W79236  21.474   1.885   4.685
14076W        W79237  34.494   6.403   2.982
14077W        W79238  18.149  20.292   2.094
14078W        W79239   2.384  32.124   4.504
14079W        W79240   6.238   0.278  12.469
14080W        W79241  42.978  34.582  12.138
14081W        W79242  16.744   8.188   1.342
14082W        W79243  19.297  14.596   4.750
14083W        W79244  44.354   9.795  11.741
14084W        W79245  42.290  33.336  13.802
14085W        W79246  43.723  20.954   2.837
14086W        W79247  23.762  27.918   0.792
14087W        W79248  16.318  32.843  11.550
14088W        W79249  29.446  11.737  11.643
14089W        W79250  33.609  16.665  10.733
14090W        W79251   2.808  24.711  14.107
14091W        W79252  21.035  41.402   4.897
14092W        W79253  31.152  44.330   3.592
14093W        W79254  44.805   4.934  12.561
14094W        W79255  12.228   1.355  13.396
14095W        W79256  39.045  42.531   2.324
14096W        W79257  15.596   2.317  12.486
14097W        W79258  23.696   9.147  10.698
14098W        W79259  39.700  25.705   2.167
14099W        W79260  16.236  21.199  11.184
14100W        W79261   4.859   6.207  12.095
14101W        W79262  25.151   6.428   2.766
14102W        W79263  18.577  27.978  12.081
14103W        W79264  10.230  37.133   0.631
14104W        W79265  10.599  39.409   0.842
14105W        W79266  20.287   9.306   2.306
14106W        W79267   9.699  37.541  11.792
14107W        W79268  10.231  17.844   1.376
14108W        W79269  44.469  15.565  11.138
14109W        W79270  37.356   4.822  14.903
14110W        W79271  33.396  33.997   3.694
14111W        W79272  18.232  34.046   4.223
14112W        W79273  37.817   5.536   1.437
14113W        W79274  23.600  14.179  14.962
14114W        W79275  21.313  31.704   4.739
14115W        W79276  32.978  26.537   2.192
14116W        W79277  14.502  12.895   0.258
14117W        W79278  33.569  13.322   9.839
14118W        W79279  22.634  29.190   1.796
14119W        W79280  10.640  28.542  11.979
14120W        W79281   9.285  44.922  12.101
14121W        W79282  14.649  44.322   0.665
14122W        W79283  39.346  11.233   4.350
14123W        W79284  21.302  26.937  14.767
14124W        W79285  43.984  22.208  14.149
14125W        W79286  32.021  15.700  12.818
14126W        W79287  21.066  43.808  10.677
14127W        W79288  19.746  18.890   2.598
14128W        W79289  12.948  35.884   2.806
14129W        W79290   3.734  16.995   3.981
14130W        W79291  23.078   8.951  13.508
14131W        W79292  32.151  23.642  14.477
14132W        W79293   1.783   0.515   0.429
14133W        W79294  33.936  14.063  12.380
14134W        W79295   9.592  43.004  12.830
14135W        W79296  19.736   5.789  11.088
14136W        W79297   2.442   4.937   1.020
14137W        W79298  44.381  28.515  11.142
14138W        W79299  31.399  33.125   4.030
14139W        W79300  28.067  29.169   4.444
14140W        W79301  20.480  15.671   2.237
14141W        W79302  16.406  11.718   1.574
14142W        W79303  37.754  19.368  11.659
14143W        W79304  42.828  28.551   3.745
14144W        W79305  41.012  20.117   0.921
14145W        W79306  23.016  37.536   0.364
14146W        W79307  28.281  24.682  11.627
14147W        W79308  39.093  29.058   3.718
14148W        W79309  20.998  44.532  14.305
14149W        W79310  11.715  19.720  13.855
14150W        W79311  25.434  27.324   1.954
14151W        W79312  12.423  17.418  14.814
14152W        W79313  25.936  17.775   0.895
14153W        W79314  32.474  24.905   2.781
14154W        W79315  42.093  29.104  10.272
14155W        W79316  12.730  12.621  13.894
14156W        W79317  30.541   9.317   1.904
14157W        W79318  38.080  27.546   3.764
14158W        W79319  40.040   0.913  14.338
14159W        W79320  43.307   1.748   1.010
14160W        W79321  40.117   3.220  10.504
14161W        W79322  33.981   9.799   4.922
14162W        W79323   8.113  36.927   1.377
14163W        W79324  41.036  15.082   3.358
14164W        W79325  35.909  23.263  12.451
14165W        W79326  20.762  39.366   0.793
14166W        W79327  23.511  30.195  14.576
14167W        W79328   3.020  37.370   0.702
14168W        W79329  43.338  16.805  12.503
14169W        W79330  38.018  11.348   0.315
14170W        W79331  22.099   3.672   3.885
14171W        W79332  41.765  23.629   4.603
14172W        W79333  23.490  24.284  14.979
14173W        W79334  16.304  26.821  13.066
14174W        W79335  30.727   6.740   0.474
14175W        W79336  38.619   7.916  12.705
14176W        W79337  29.059  34.591   4.508
14177W        W79338  22.965  11.587   2.276
14178W        W79339  12.648  14.345  10.697
14179W        W79340  35.890  31.355  11.023
14180W        W79341   5.212  13.293   1.400
14181W        W79342  24.042  15.284  10.584
14182W        W79343  43.974  17.836  12.087
14183W        W79344  14.258  26.494   1.095
14184W        W79345   4.157  16.112  10.551
14185W        W79346  28.075  36.798  13.400
14186W        W79347  20.043  43.020   4.103
14187W        W79348  20.790  35.276  11.144
14188W        W79349  10.614  23.131  13.971
14189W        W79350  36.957  25.994   3.675
14190W        W79351  29.215   1.250   1.684
14191W        W79352  35.150   3.220  13.052
14192W        W79353   5.224  17.601   3.479
14193W        W79354  16.193  11.165   1.724
14194W        W79355  36.552  11.605   0.347
14195W        W79356  38.548  10.118   4.121
14196W        W79357  40.118  11.816  14.978
14197W        W79358  23.012   4.048  11.861
14198W        W79359  43.737  18.548  12.497
14199W        W79360  34.418   1.146   0.462
14200W        W79361  37.406   0.112   3.151
14201W        W79362  16.784   1.455  12.829
14202W        W79363   5.979   9.051   3.752
14203W        W79364  38.797  16.245  14.090
14204W        W79365  36.915  22.255  11.265
14205W        W79366  33.611  29.601  14.924
14206W        W79367  39.502  20.986   2.119
14207W        W79368  38.929  31.228   2.800
14208W        W79369  42.058   4.448  11.656
14209W        W79370  12.296   0.525  13.954
14210W        W79371  29.606  26.230   3.682
14211W        W79372  40.929  33.512   4.116
14212W        W79373   3.671  29.148   4.085
14213W        W79374  36.298  16.323   0.800
14214W        W79375  22.617   5.816   2.759
14215W        W79376  44.316  20.621  13.387
14216W        W79377  10.994  11.309  11.866
14217W        W79378  27.569   3.695  11.241
14218W        W79379  28.729   8.337   0.993
14219W        W79380  17.598  33.062   1.350
14220W        W79381   7.192  29.394   2.364
14221W        W79382  39.856  12.257  12.958
14222W        W79383   9.182  41.776   4.633
14223W        W79384   4.615  32.858  13.878
14224W        W79385  40.008  44.620  10.056
14225W        W79386  12.177  29.214  12.525
14226W        W79387  38.885  38.906   1.900
14227W        W79388   5.683   2.998   4.751
14228W        W79389  43.416   8.783  10.781
14229W        W79390  10.241  22.751  12.523
14230W        W79391  20.243  21.413  11.983
14231W        W79392  22.528  42.081   3.060
14232W        W79393  13.861  31.510  11.087
14233W        W79394  33.116  39.831   2.335
14234W        W79395  32.426  30.948   2.738
14235W        W79396  31.685  11.792  10.649
14236W        W79397  17.300  31.913   4.035
14237W        W79398   1.352  40.003   1.413
14238W        W79399  32.654  18.165   0.855
14239W        W79400  34.305   1.515   0.819
14240W        W79401  30.582  44.674   3.244
14241W        W79402  25.412  35.620  13.903
14242W        W79403  29.659  25.122  11.280
14243W        W79404  23.571  39.059   2.986
14244W        W79405  24.560  35.671   3.556
14245W        W79406  35.570  26.047   0.242
14246W        W79407  26.095   4.492   4.718
14247W        W79408  26.967   2.642   2.320
14248W        W79409  19.187   0.213   1.877
14249W        W79410  16.283  42.538   9.893
14250W        W79411  26.540  37.549  12.950
14251W        W79412  23.134  29.838  14.723
14252W        W79413  35.493   9.803   4.961
14253W        W79414   1.798  24.790  10.518
14254W        W79415   4.888  30.431   2.799
14255W        W79416   7.854  22.520  12.447
14256W        W79417  26.024   7.665   4.155
14257W        W79418   7.229  32.668   2.250
14258W        W79419  21.067  37.891  12.952
14259W        W79420  25.561  16.060   3.017
14260W        W79421  38.976   3.507  12.517
14261W        W79422   5.931  35.020   1.006
14262W        W79423  27.632  37.027   3.321
14263W        W79424   9.362  21.049   4.824
14264W        W79425  14.315  19.156  14.307
14265W        W79426  29.508  21.794   2.781
14266W        W79427  37.810  34.063  11.995
14267W        W79428  24.998  41.986   2.789
14268W        W79429  28.900  24.285  11.285
14269W        W79430  26.937  15.846  11.709
14270W        W79431  15.173  26.702   3.091
14271W        W79432   6.190   4.680   4.675
14272W        W79433  12.074  11.420  14.289
14273W        W79434  44.959  20.702   3.628
14274W        W79435  27.025   5.840  10.743
14275W        W79436  24.602  19.839   0.905
14276W        W79437  43.810  20.044  13.872
14277W        W79438  23.719   5.902   0.735
14278W        W79439  41.970  14.209   1.919
14279W        W79440  28.049   4.776  14.985
14280W        W79441  33.943  35.521   3.469
14281W        W79442   2.734  20.545   4.466
14282W        W79443  33.667  27.617  14.014
14283W        W79444  19.533  36.134  13.053
14284W        W79445  27.105   0.723   2.363
14285W        W79446  37.575  23.655  13.993
14286W        W79447  26.455  17.802   0.938
14287W        W79448  13.167  12.815   3.163
14288W        W79449  20.194  15.304  10.685
14289W        W79450  37.262  25.468  13.406
14290W        W79451   4.106  27.144  12.487
14291W        W79452  11.164   8.858   2.657
14292W        W79453   5.214  35.434   1.657
14293W        W79454  25.087  32.239   2.922
14294W        W79455  33.201  32.951  10.848
14295W        W79456  23.966  25.646  14.903
14296W        W79457   2.355  19.200  10.409
14297W        W79458   3.553  29.481   1.494
14298W        W79459   0.835   6.718   4.577
14299W        W79460  42.838   1.611  11.956
14300W        W79461  15.051  14.636   2.073
14301W        W79462  29.106  39.349  13.605
14302W        W79463  13.887  44.317  13.541
14303W        W79464   4.836   3.694  12.346
14304W        W79465   1.871  19.005  13.565
14305W        W79466   6.667   5.987  13.967
14306W        W79467  23.438  17.015  11.003
14307W        W79468  19.064  37.137   5.325
14308W        W79469  30.826  38.283   3.815
14309W        W79470  42.065  25.953   2.654
14310W        W79471  10.899  32.063   1.243
14311W        W79472   0.112   7.010   2.319
14312W        W79473  17.122  12.584  12.486
14313W        W79474  18.758   7.087  12.082
14314W        W79475  43.113  29.488   4.274
14315W        W79476   4.430  22.771   9.954
14316W        W79477   9.978   7.128  13.491
14317W        W79478  37.411  44.203   3.573
14318W        W79479  31.389  37.451  10.819
14319W        W79480  41.330  29.931  12.652
14320W        W79481  39.329  21.566  10.731
14321W        W79482  38.150  21.186  12.993
14322W        W79483  27.142   1.834  14.124
14323W        W79484  32.031   4.318   0.716
14324W        W79485  41.961  14.813  10.654
14325W        W79486  38.810  11.200   0.776
14326W        W79487  44.637   4.155   5.015
14327W        W79488  36.624  17.117  11.994
14328W        W79489  33.439  25.026  12.042
14329W        W79490  21.889  36.948  10.350
14330W        W79491  25.887  21.617   0.495
14331W        W79492   5.805  11.194   1.086
14332W        W79493   5.799   4.872   2.630
14333W        W79494   0.785  11.463  12.729
14334W        W79495  23.894   0.308  10.472
14335W        W79496  13.423  16.114  13.834
14336W        W79497   9.699  11.750  12.015
14337W        W79498  42.918  12.103  14.996
14338W        W79499  40.726   3.379   4.627
14339W        W79500  35.615   2.912  14.422
14340W        W79501  19.152   0.666  12.108
14341W        W79502  24.858  18.410   3.309
14342W        W79503   1.344  16.644   0.309
14343W        W79504  12.057  43.228   4.865
14344W        W79505  21.718  44.435   1.956
14345W        W79506  33.125  21.858  11.318
14346W        W79507  21.329  42.248   1.803
14347W        W79508  40.301  21.086  12.016
14348W        W79509  13.635   7.642  12.928
14349W        W79510  21.662  37.365  12.917
14350W        W79511   5.153  16.609   1.273
14351W        W79512  42.294   8.976   0.206
14352W        W79513   8.134  32.048   1.425
14353W        W79514  40.758  39.705  11.186
14354W        W79515  25.871  28.489   3.600
14355W        W79516  23.985  35.963   1.441
14356W        W79517   5.334   7.961  14.520
14357W        W79518  25.395   0.763  11.227
14358W        W79519  16.618   0.493   3.569
14359W        W79520  40.512  19.612   4.691
14360W        W79521  38.402  29.582   3.087
14361W        W79522  17.127  31.025   3.967
14362W        W79523  12.311  19.647  11.977
14363W        W79524  27.988   5.890  11.169
14364W        W79525  43.245   5.193   4.472
14365W        W79526   8.717  37.482   1.831
14366W        W79527  44.394  38.994   1.479
14367W        W79528  15.082  28.213  14.880
14368W        W79529   7.816  12.662   9.871
14369W        W79530  44.223  18.350   2.758
14370W        W79531   3.814  41.917   1.401
14371W        W79532  24.929  21.092  13.131
14372W        W79533  11.074  13.345   0.398
14373W        W79534  21.451   1.309  13.513
14374W        W79535  38.791   9.766  12.412
14375W        W79536  27.756  41.379  11.389
14376W        W79537  14.675   4.243  12.414
14377W        W79538  40.578  26.081   2.677
14378W        W79539  30.682  31.899   4.048
14379W        W79540  27.811  34.360   2.022
14380W        W79541  12.085  10.042   2.186
14381W        W79542   8.850  38.091   5.019
14382W        W79543  37.934  39.632  12.625
14383W        W79544  29.184  10.740  10.827
14384W        W79545   6.712  32.939   1.847
14385W        W79546   3.928  39.967  11.207
14386W        W79547  21.580   9.091   3.814
14387W        W79548  15.647  39.909   2.965
14388W        W79549   8.718  38.987   1.807
14389W        W79550  22.792  13.342  13.399
14390W        W79551  15.318  13.102  14.860
14391W        W79552  22.953  13.899   3.284
14392W        W79553  14.126   5.671   2.539
14393W        W79554  18.117  40.294  13.663
14394W        W79555  33.615  23.529   2.748
14395W        W79556  13.072  13.749   2.199
14396W        W79557  27.561   6.085   4.447
14397W        W79558  29.804  40.286  11.973
14398W        W79559  21.611  28.007  12.173
14399W        W79560  35.945  27.143  11.314
14400W        W79561   8.623   1.505  13.853
14401W        W79562  23.744  36.313  12.957
14402W        W79563  16.132  37.789   5.657
14403W        W79564  16.165  25.841   2.820
14404W        W79565  42.863  33.104   4.551
14405W        W79566  38.413  26.718   4.986
14406W        W79567  33.544  37.446  12.967
14407W        W79568  33.121  41.456  14.258
14408W        W79569  13.095  35.074  14.744
14409W        W79570  40.406  11.842  12.448
14410W        W79571   2.920  31.161  13.975
14411W        W79572  23.690  32.834   3.630
14412W        W79573  32.612  28.904  11.584
14413W        W79574  11.289  17.519  13.276
14414W        W79575  37.574  25.926  12.596
14415W        W79576   2.636  11.755   1.704
14416W        W79577  42.001  33.989  12.881
14417W        W79578   4.465  40.306   4.608
14418W        W79579  10.725  40.279  13.937
14419W        W79580  32.130   8.081   3.257
14420W        W79581  28.646  28.652   2.833
14421W        W79582   5.672  24.189   3.445
14422W        W79583  41.424   5.658  14.925
14423W        W79584  33.550  41.020  11.483
14424W        W79585   1.060  15.664   1.652
14425W        W79586  16.720  33.372   2.277
14426W        W79587  27.987   6.762   0.438
14427W        W79588  28.435   5.577  10.515
14428W        W79589   7.977  33.427   3.158
14429W        W79590  27.107  43.847   4.048
14430W        W79591   1.952  25.966  14.061
14431W        W79592  15.725  18.369   2.727
14432W        W79593  15.334  16.499  12.341
14433W        W79594   4.833  31.363   4.428
14434W        W79595  25.389  35.152   4.013
14435W        W79596  24.377  43.037   0.904
14436W        W79597   1.840   8.104  13.658
14437W        W79598   3.564  44.955  14.043
14438W        W79599  10.755   0.042  10.605
14439W        W79600  18.360  41.059  12.962
14440W        W79601  41.337  13.543   4.111
14441W        W79602  37.048   7.409  13.093
14442W        W79603   3.022   0.369   0.745
14443W        W79604  13.162  25.084   4.991
14444W        W79605  14.644   0.499  11.193
14445W        W79606  18.698   7.795   0.078
14446W        W79607  41.882  32.795   4.920
14447W        W79608  18.872   9.266  11.596
14448W        W79609  10.222  26.767   4.937
14449W        W79610   2.053  42.082  11.624
14450W        W79611  27.662  14.883   2.202
14451W        W79612  18.277  35.015   4.377
14452W        W79613   3.932  33.466   4.157
14453W        W79614  33.770  43.132  10.644
14454W        W79615   0.715  44.232  12.556
14455W        W79616  44.798  31.411   2.624
14456W        W79617  12.651  14.140   4.648
14457W        W79618  39.866   6.661   3.914
14458W        W79619   1.699  36.460  10.514
14459W        W79620  30.114   8.606  12.950
14460W        W79621  40.856  19.985   0.437
14461W        W79622   9.767  33.045  10.675
14462W        W79623  28.960  14.449   0.087
14463W        W79624   9.274  34.519  10.357
14464W        W79625  14.863  27.150  11.709
14465W        W79626   0.833   1.291   3.690
14466W        W79627  42.192  43.778  12.519
14467W        W79628  31.699  31.455  14.899
14468W        W79629   4.168  20.081  12.596
14469W        W79630  12.168   5.934   1.475
14470W        W79631  21.723  24.452  12.986
14471W        W79632  44.831  22.030   1.757
14472W        W79633  42.403  25.678  14.204
14473W        W79634  35.922  13.862  12.037
14474W        W79635  23.328  39.719   1.527
14475W        W79636  42.643   6.318   4.075
14476W        W79637  17.842  24.500   1.417
14477W        W79638  43.555   4.822  11.571
14478W        W79639  10.614  17.176   1.018
14479W        W79640  13.759   5.661   0.869
14480W        W79641   5.255  30.556  14.862
14481W        W79642  33.862   1.026  13.790
14482W        W79643   7.802  22.738   3.186
14483W        W79644  20.193  12.200   1.434
14484W        W79645  13.533  13.445  11.069
14485W        W79646   9.422  39.017  13.306
14486W        W79647  11.700  43.353   2.774
14487W        W79648   1.952  15.445   1.240
14488W        W79649  27.222  10.263  13.019
14489W        W79650  30.160  20.022  11.032
14490W        W79651  40.841   4.373   3.749
14491W        W79652  17.861   5.674  11.091
14492W        W79653   9.653  35.604  13.346
14493W        W79654  32.013  36.831  13.378
14494W        W79655  18.178  11.121   3.619
14495W        W79656  13.675  25.430   2.398
14496W        W79657  26.092  30.764   3.013
14497W        W79658  36.905  29.592   4.267
14498W        W79659   4.847  44.029  14.001
14499W        W79660   2.950   2.335   4.699
14500W        W79661  40.798   4.785   1.196
14501W        W79662  17.834  28.155   3.287
14502W        W79663  30.740  41.577  13.899
14503W        W79664   9.093  26.479   4.097
14504W        W79665  24.879  11.658   0.475
14505W        W79666  12.320  28.895   4.181
14506W        W79667  40.912  15.942  12.029
14507W        W79668  34.047  42.838  12.966
14508W        W79669  44.539   4.533  14.993
14509W        W79670  20.774  39.959   1.829
14510W        W79671   8.764  32.241   4.872
14511W        W79672   3.146  26.153  13.200
14512W        W79673   8.796  29.652   4.647
14513W        W79674  39.931  22.378  11.175
14514W        W79675   8.986  30.945  11.706
14515W        W79676   1.403   5.679   3.255
14516W        W79677  16.291  24.548   0.346
14517W        W79678  41.738  37.189  11.486
14518W        W79679  40.236  36.651  13.434
14519W        W79680  20.158  28.074   4.565
14520W        W79681  29.385   7.158  14.350
14521W        W79682  24.296  31.579  13.125
14522W        W79683  27.696  20.492  11.498
14523W        W79684  20.233   5.132   3.803
14524W        W79685  40.901  20.550   2.824
14525W        W79686  17.980  42.211  12.482
14526W        W79687  12.352  26.883   0.892
14527W        W79688   3.785  27.330  14.107
14528W        W79689  26.865  14.198   1.330
14529W        W79690  13.805  28.662  12.026
14530W        W79691  27.900  33.633  10.768
14531W        W79692  21.732  13.286  13.368
14532W        W79693   8.876  18.626   0.047
14533W        W79694   6.332  32.964   1.277
14534W        W79695   1.243   8.761  13.199
14535W        W79696  29.627  17.632  11.300
14536W        W79697  22.606   0.528  11.903
14537W        W79698  41.731  37.305  10.974
14538W        W79699   6.904  36.898  12.955
14539W        W79700  15.164  26.092  13.357
14540W        W79701  15.792  41.371   1.228
14541W        W79702  40.294  23.819   3.131
14542W        W79703  38.517   3.253  12.594
14543W        W79704  43.822  37.278   1.752
14544W        W79705  13.663  15.178  13.433
14545W        W79706  44.977  28.559   0.153
14546W        W79707  44.552   0.279  11.799
14547W        W79708  10.736  17.919  13.049
14548W        W79709  11.315  20.349  14.459
14549W        W79710  14.159  36.266   1.781
14550W        W79711  12.355  34.189   4.105
14551W        W79712  34.028  21.244   2.318
14552W        W79713   2.538   2.668  11.659
14553W        W79714  15.025  26.761   2.594
14554W        W79715   4.917  39.552   1.383
14555W        W79716  14.144   6.128   1.716
14556W        W79717   5.393  28.677  10.594
14557W        W79718  23.373  44.643  11.640
14558W        W79719  27.492  29.507   0.988
14559W        W79720  13.101  34.591  10.632
14560W        W79721  26.596   5.036   1.441
14561W        W79722  22.983  29.842   3.703
14562W        W79723  37.411  26.063   4.305
14563W        W79724  15.319   1.746   1.827
14564W        W79725  21.725  13.780  12.511
14565W        W79726  14.729  44.595   4.957
14566W        W79727  24.941  42.361  14.292
14567W        W79728  38.716  14.016   5.253
14568W        W79729  35.152  31.642   0.784
14569W        W79730  29.553  35.403  12.447
14570W        W79731  15.569  43.949  11.526
14571W        W79732  35.863  13.645   1.067
14572W        W79733  34.372   6.894  11.939
14573W        W79734  10.063  21.590  13.556
14574W        W79735   6.261  23.763  13.872
14575W        W79736   6.005  40.861   4.056
14576W        W79737  15.719  44.495   0.863
14577W        W79738   8.235  29.882   1.694
14578W        W79739  13.166  36.919   4.486
14579W        W79740  36.957   3.356  11.029
14580W        W79741  17.620  44.438   4.154
14581W        W79742  22.341  27.550  11.608
14582W        W79743  39.175   5.735  11.083
14583W        W79744  36.357  21.163  13.167
14584W        W79745  27.474  25.451  12.469
14585W        W79746  29.392   7.869  14.818
14586W        W79747  37.398  42.873   1.870
14587W        W79748   9.815   6.385   3.680
14588W        W79749  12.208   6.935  11.094
14589W        W79750  33.750  42.443  13.847
14590W        W79751   1.200  28.120   4.411
14591W        W79752   3.508   0.929  13.442
14592W        W79753  19.044  22.712   1.852
14593W        W79754   8.003   6.878   0.283
14594W        W79755  31.889  13.570  14.871
14595W        W79756  19.984   7.103  12.062
14596W        W79757  10.619  16.615   3.652
14597W        W79758  20.043  42.809  11.451
14598W        W79759  27.425  44.480   4.281
14599W        W79760  33.548   1.387  13.967
14600W        W79761  25.474  32.453  10.775
14601W        W79762  12.376  31.987   1.710
14602W        W79763  36.849  20.297  14.029
14603W        W79764  27.144  14.661  12.774
14604W        W79765  27.227  16.217   1.268
14605W        W79766   6.882  39.950   4.615
14606W        W79767   6.377  15.134  11.055
14607W        W79768  25.440  25.474   3.801
14608W        W79769  32.709  43.819  13.666
14609W        W79770  25.273   2.028   2.102
14610W        W79771  27.684  11.960   0.842
14611W        W79772   5.142  44.977   3.615
14612W        W79773  22.481  34.825   2.086
14613W        W79774  30.968   4.512   1.359
14614W        W79775  15.639  26.386  13.401
14615W        W79776  35.101  30.012   3.281
14616W        W79777   4.472   9.382  12.484
14617W        W79778  22.984  16.501  13.773
14618W        W79779  17.587  19.660  10.964
14619W        W79780  17.517  35.216  11.140
14620W        W79781  27.441  16.391   0.232
14621W        W79782  44.529  38.442   5.366
14622W        W79783   5.231  34.476  14.529
14623W        W79784   2.354  38.549   0.355
14624W        W79785  41.528  14.258  12.036
14625W        W79786  29.560  11.838  13.768
14626W        W79787  14.301  26.006   0.904
14627W        W79788  33.401   2.766   4.641
14628W        W79789  21.100  41.830  11.016
14629W        W79790  37.011  42.926   2.715
14630W        W79791   3.923  30.613   1.530
14631W        W79792  13.788  15.824   1.856
14632W        W79793  42.946  23.260  11.920
14633W        W79794  19.412   8.667   4.372
14634W        W79795  35.835  40.352   0.876
14635W        W79796  14.826  17.635  13.382
14636W        W79797   3.009  17.810  11.951
14637W        W79798  17.739  17.653  13.420
14638W        W79799  24.438   2.857  14.323
14639W        W79800  40.296  19.668  12.052
14640W        W79801  44.334  14.247   0.394
14641W        W79802  43.296  23.786  14.475
14642W        W79803  17.089   4.164   1.291
14643W        W79804  39.965   5.410   2.751
14644W        W79805  35.064  30.961   2.677
14645W        W79806   5.977  22.051  11.606
14646W        W79807  39.089   5.389  13.528
14647W        W79808  34.008   6.759   1.312
14648W        W79809  14.783  37.868   4.165
14649W        W79810  38.284   2.615   4.322
14650W        W79811  23.191   4.038  14.365
14651W        W79812   2.771  12.725  13.296
14652W        W79813  35.595  43.465  10.547
14653W        W79814  35.242  30.301   0.950
14654W        W79815   2.386  41.339  11.857
14655W        W79816  12.458   0.932  13.151
14656W        W79817  31.756  33.864  14.389
14657W        W79818  31.667  29.039   2.063
14658W        W79819  23.980  27.971   1.702
14659W        W79820   8.196   0.003   2.445
14660W        W79821  32.099  26.886   4.024
14661W        W79822  18.797  26.256   2.675
14662W        W79823  38.461  29.641   4.101
14663W        W79824  17.743  34.202  11.235
14664W        W79825  39.851  43.969   2.436
14665W        W79826  23.740  29.886   4.129
14666W        W79827  23.791   9.892   0.437
14667W        W79828  40.735   2.679   4.107
14668W        W79829  35.474   7.108   2.927
14669W        W79830  30.569  38.032  10.626
14670W        W79831  23.662  38.027   4.613
14671W        W79832  16.581  33.877   2.203
14672W        W79833   6.516  14.928  14.915
14673W        W79834  32.998   0.745  12.488
14674W        W79835  26.200  19.191   1.332
14675W        W79836  28.771  39.626  11.241
14676W        W79837  27.549  16.055   4.653
14677W        W79838  22.197   8.877  13.523
14678W        W79839  32.616  15.139  14.254
14679W        W79840  13.567  11.763   1.793
14680W        W79841  10.370   1.344   1.362
14681W        W79842  16.599  44.599   4.041
14682W        W79843   0.496  38.461  12.089
14683W        W79844  24.584  19.185  10.637
14684W        W79845  33.685  29.866   3.208
14685W        W79846  39.413  18.174   3.752
14686W        W79847   8.717  31.459   0.005
14687W        W79848  36.183   5.458   2.778
14688W        W79849  21.796  15.771   0.803
14689W        W79850  26.593  14.882   0.836
14690W        W79851  14.175  38.397   4.574
14691W        W79852  25.259   7.726  11.705
14692W        W79853  18.828  37.376  11.676
14693W        W79854  39.930  15.235  11.786
14694W        W79855   5.442  23.460  12.400
14695W        W79856  40.087   8.596  13.315
14696W        W79857  33.992  36.899   0.860
14697W        W79858  16.711  17.977  14.542
14698W        W79859   0.572  41.023   5.071
14699W        W79860  25.170  35.261  12.071
14700W        W79861  40.110  41.087  12.010
14701W        W79862   8.187  26.914  12.080
14702W        W79863  29.038  23.525  14.968
14703W        W79864  36.477  37.621   2.846
14704W        W79865  13.045  32.412   3.691
14705W        W79866  21.085  35.490  10.751
14706W        W79867  14.026  31.898   3.131
14707W        W79868   3.145  20.185   4.554
14708W        W79869  20.143  22.237   4.605
14709W        W79870  15.673  37.049  11.861
14710W        W79871   5.349  35.408   0.612
14711W        W79872  32.961   7.912   1.235
14712W        W79873  28.490  42.056  14.121
14713W        W79874  25.457  21.993  12.077
14714W        W79875   7.356  42.916   0.042
14715W        W79876  11.704  22.143  10.720
14716W        W79877   9.940   9.263   0.449
14717W        W79878  18.072   1.156   1.880
14718W        W79879  31.194  31.492   0.011
14719W        W79880   0.686  29.223  11.087
14720W        W79881  30.494   5.639   4.084
14721W        W79882   0.785   5.000  12.332
14722W        W79883  11.597  21.121   0.357
14723W        W79884  24.172  34.327  13.038
14724W        W79885   9.236   8.811  11.270
14725W        W79886  25.942  14.093   2.708
14726W        W79887   4.902  11.902   0.462
14727W        W79888   2.256  34.439  11.910
14728W        W79889  33.279   1.896  11.915
14729W        W79890  29.684  35.381  10.742
14730W        W79891  27.981   3.202  12.634
14731W        W79892  22.707   5.192  10.715
14732W        W79893  32.523   7.817   2.304
14733W        W79894  39.393  23.678  12.845
14734W        W79895  35.508  16.652  13.524
14735W        W79896  24.166   6.805  12.979
14736W        W79897  22.769  10.772   0.483
14737W        W79898  35.930   5.260   0.278
14738W        W79899   0.396  22.439  13.466
14739W        W79900  15.730   1.464   2.589
14740W        W79901  30.878   6.265   4.571
14741W        W79902  12.146  11.369   3.449
14742W        W79903  38.614  21.211   0.924
14743W        W79904  26.393   1.971   0.762
14744W        W79905   1.487  39.010   3.560
14745W        W79906  22.709  10.885  11.789
14746W        W79907  16.481  13.068  11.139
14747W        W79908  44.695  41.112  12.221
14748W        W79909  44.072  23.728  14.907
14749W        W79910  16.492   6.342   1.280
14750W        W79911  44.187  27.708  13.476
14751W        W79912   9.593   8.236  12.814
14752W        W79913  41.342   9.880   3.761
14753W        W79914   0.756  10.713   1.476
14754W        W79915  44.197  10.840   4.622
14755W        W79916  22.680  33.064  11.643
14756W        W79917  36.795  21.648  12.402
14757W        W79918  34.462  34.868   0.900
14758W        W79919  39.366  25.452   2.923
14759W        W79920  17.586  23.730  10.861
14760W        W79921  22.053  32.274   0.596
14761W        W79922  12.166  34.677  10.444
14762W        W79923  44.784  15.845   2.165
14763W        W79924  25.136  13.421  14.314
14764W        W79925  25.568  30.691  14.057
14765W        W79926  32.667  29.130   0.323
14766W        W79927   5.393  12.504   4.331
14767W        W79928  25.671   5.689   2.972
14768W        W79929  24.991  13.364  11.147
14769W        W79930  23.714  13.471   2.588
14770W        W79931   3.097  14.015  11.806
14771W        W79932  19.793  24.187   0.384
14772W        W79933  41.538   3.622   3.144
14773W        W79934  22.486  10.212   2.179
14774W        W79935   0.254   6.897  11.381
14775W        W79936   7.338   7.766   0.301
14776W        W79937   5.869  14.845   4.242
14777W        W79938  41.352  32.918  13.413
14778W        W79939  39.943  41.723   0.910
14779W        W79940  38.390  17.681  14.505
14780W        W79941   9.553  33.264  13.953
14781W        W79942  34.846  15.853   2.789
14782W        W79943  19.839  27.042   4.397
14783W        W79944  26.693  42.364   2.518
14784W        W79945  20.282   8.128   4.088
14785W        W79946  35.453  37.299  12.958
14786W        W79947   1.190  26.812  14.506
14787W        W79948  38.654  27.468   4.383
14788W        W79949   8.076   3.817  12.838
14789W        W79950  10.718  17.259   4.387
14790W        W79951  25.243   7.765   3.658
14791W        W79952  21.648  21.158  11.212
14792W        W79953  20.689  12.124  11.622
14793W        W79954  26.656  16.599  10.090
14794W        W79955  23.092  38.821  11.930
14795W        W79956  43.563  35.168  13.969
14796W        W79957   4.262   6.243   2.742
14797W        W79958  13.134  17.558  13.767
14798W        W79959  33.365  19.138   2.783
14799W        W79960  16.591  34.130   1.312
14800W        W79961  35.855   8.487   4.539
14801W        W79962  36.929   6.317   0.727
14802W        W79963   3.843  18.239   0.629
14803W        W79964  33.522  11.674   4.657
14804W        W79965  43.619  19.645   2.119
14805W        W79966  40.439  10.832  13.333
14806W        W79967   8.185  15.151  14.468
14807W        W79968  29.240  10.297   0.851
14808W        W79969   3.577  38.434  14.895
14809W        W79970  41.483  37.853  13.021
14810W        W79971  36.024  20.848   0.771
14811W        W79972  39.305  14.098  12.424
14812W        W79973   4.467   0.228   0.437
14813W        W79974   5.421  15.047  10.795
14814W        W79975  15.801  23.693   1.901
14815W        W79976   1.978  41.018   4.981
14816W        W79977  35.863  14.858   0.891
14817W        W79978  19.175  36.097  11.550
14818W        W79979   3.953   0.281   1.508
14819W        W79980   6.213   3.310  13.362
14820W        W79981  13.706   9.438  14.006
14821W        W79982  18.738  23.970  13.305
14822W        W79983  42.269  33.852   4.171
14823W        W79984  21.106  26.075   0.942
14824W        W79985  35.088  10.653  11.728
14825W        W79986  43.778  41.182   1.433
14826W        W79987  34.918  25.763   0.117
14827W        W79988   0.160  18.301  13.491
14828W        W79989  19.429  24.688   9.929
14829W        W79990   3.682  29.251   2.424
14830W        W79991  43.870  28.482  11.915
14831W        W79992  19.319  36.980   3.567
14832W        W79993  34.738  30.620  12.084
14833W        W79994  21.550  36.619   2.156
14834W        W79995  29.863  34.897  13.963
14835W        W79996  41.388   8.832   3.756
14836W        W79997  17.291  43.395   3.638
14837W        W79998  17.581  30.977  12.004
14838W        W79999  11.301  12.629  11.628
14839W        W80000  15.294   3.425  14.025
14840W        W80001   5.390   4.275   3.127
14841W        W80002  16.270  43.662   0.414
14842W        W80003  33.008   7.344  14.444
14843W        W80004  17.036   7.140  10.701
14844W        W80005  11.354  16.805   4.212
14845W        W80006  33.950  27.247   0.849
14846W        W80007  13.248   6.495   3.415
14847W        W80008  13.176  41.326   4.214
14848W        W80009  44.070  12.796   4.578
14849W        W80010  23.658  10.829  10.900
14850W        W80011  20.739  23.629  13.326
14851W        W80012  24.631  20.770   1.813
14852W        W80013  31.995  25.971   3.251
14853W        W80014   0.392  16.862   0.788
14854W        W80015   8.147  23.452   0.078
14855W        W80016  44.298   7.774   0.372
14856W        W80017  23.207  18.218   2.686
14857W        W80018   4.934  26.222  14.948
14858W        W80019  20.072   8.384  12.180
14859W        W80020  35.514  41.766   1.291
14860W        W80021   5.385   8.716   3.965
14861W        W80022  28.027  42.958   2.342
14862W        W80023  43.708   6.148   4.643
14863W        W80024  26.778   4.188  12.051
14864W        W80025  32.217  22.095  14.951
14865W        W80026  35.385   4.490  11.860
14866W        W80027  25.985  33.083  12.839
14867W        W80028   9.811  37.572   3.276
14868W        W80029   4.553  41.272  11.007
14869W        W80030  35.939  33.910  11.238
14870W        W80031  40.727  42.426   3.578
14871W        W80032  31.446  18.728   3.250
14872W        W80033   5.376   1.934   2.879
14873W        W80034  34.913  29.575   2.833
14874W        W80035  11.637  29.178   1.471
14875W        W80036  13.548  32.483   1.671
14876W        W80037  20.900  40.892   2.233
14877W        W80038   2.858   5.740  12.350
14878W        W80039  41.959   2.798  11.938
14879W        W80040   4.556  12.697  14.354
14880W        W80041  24.638   0.187   1.896
14881W        W80042   6.179  22.791   0.792
14882W        W80043  24.704   7.178   4.637
14883W        W80044  17.045  27.009  13.539
14884W        W80045  33.557  21.301   2.147
14885W        W80046  11.139  39.714   4.515
14886W        W80047   9.146   2.955   3.798
14887W        W80048  36.348  12.829  14.224
14888W        W80049  12.149   0.622   4.868
14889W        W80050  15.251  23.927   2.720
14890W        W80051  19.332  11.898   1.454
14891W        W80052  15.049  44.417   4.559
14892W        W80053  39.855  29.562   1.828
14893W        W80054  37.128  32.615  14.776
14894W        W80055  24.896  23.353   1.313
14895W        W80056  26.255  11.255  13.133
14896W        W80057  43.896  37.445  12.160
14897W        W80058  36.538  41.419   3.182
14898W        W80059  25.124  34.085   3.345
14899W        W80060  19.339  39.957   0.817
14900W        W80061  30.343  26.989   4.578
14901W        W80062   7.685  14.375  11.143
14902W        W80063  14.235   1.914   1.148
14903W        W80064   7.933  14.229   2.398
14904W        W80065   0.747  38.548   2.401
14905W        W80066  16.418  22.312  12.442
14906W        W80067  22.028   0.036   4.054
14907W        W80068   5.969  26.556  12.465
14908W        W80069  44.382   5.612  14.066
14909W        W80070  12.623  22.548   1.905
14910W        W80071   9.055  14.248   3.345
14911W        W80072   0.967  29.496  14.703
14912W        W80073  40.848  40.993  13.905
14913W        W80074  15.400  32.299  12.646
14914W        W80075  16.121   9.994   2.427
14915W        W80076  38.911  22.589   4.025
14916W        W80077  18.794  43.113   0.027
14917W        W80078  38.851  40.321  10.701
14918W        W80079  35.408  29.751  11.549
14919W        W80080  18.171  24.672   0.746
14920W        W80081   8.656   4.984   4.038
14921W        W80082   3.849   2.784   3.620
14922W        W80083  30.879  41.338  11.790
14923W        W80084  30.039  24.899  14.356
14924W        W80085  26.294  40.915   2.398
14925W        W80086  36.902  42.655   3.156
14926W        W80087  18.595  38.056  14.390
14927W        W80088  41.375  42.332   1.209
14928W        W80089  18.563  39.293  14.716
14929W        W80090  35.972  40.928   4.084
14930W        W80091  18.803  35.497  14.322
14931W        W80092  15.377  33.407   2.671
14932W        W80093  13.181   3.002  11.011
14933W        W80094  11.210  23.453   1.333
14934W        W80095   8.142  19.365  14.304
14935W        W80096  13.785  12.247  14.335
14936W        W80097  40.049  33.459   2.929
14937W        W80098  44.403  36.025  14.915
14938W        W80099  12.082  32.218  14.439
14939W        W80100  36.737   9.358  11.600
14940W        W80101  20.108   7.805   2.140
14941W        W80102  44.951  16.510  11.333
14942W        W80103  43.833  33.000  13.401
14943W        W80104  40.321   5.495  13.081
14944W        W80105   3.342  22.315   0.289
14945W        W80106  32.121  24.917   2.354
14946W        W80107  34.127  31.677  13.227
14947W        W80108  36.254  10.723  14.779
14948W        W80109  18.003  41.550   4.620
14949W        W80110  31.799  17.341  13.083
14950W        W80111  11.762  19.869  11.095
14951W        W80112  16.670  23.056  14.585
14952W        W80113  16.322  37.469   4.988
14953W        W80114   0.349  20.386   1.398
14954W        W80115  32.079  24.048   0.366
14955W        W80116  42.834   8.055  14.998
14956W        W80117  28.054  20.373   4.088
14957W        W80118  43.980  39.173   3.291
14958W        W80119  16.371  20.808   0.903
14959W        W80120  29.125  14.569  11.993
14960W        W80121  39.748  15.873   3.861
14961W        W80122   6.290  32.868   0.306
14962W        W80123   3.785   8.776  13.630
14963W        W80124  25.325   2.220   4.966
14964W        W80125  36.880  19.318  11.333
14965W        W80126  22.660  25.390   1.684
14966W        W80127  19.558   2.732  12.498
14967W        W80128  21.023  33.061   1.343
14968W        W80129  20.326  26.572  12.502
14969W        W80130   7.558  28.006   1.972
14970W        W80131  20.307  11.893  12.839
14971W        W80132  36.058  40.667   2.229
14972W        W80133  39.013   8.982   4.109
14973W        W80134   1.657  13.709  14.870
14974W        W80135  39.594  18.752   2.687
14975W        W80136  38.881   5.260  10.269
14976W        W80137  31.038  21.458   3.492
14977W        W80138  34.419  35.272  12.804
14978W        W80139  29.617  22.274  13.790
14979W        W80140  28.691  32.714   2.398
14980W        W80141  38.579  13.394  13.302
14981W        W80142  18.405  22.845  14.978
14982W        W80143  24.667  35.818   4.059
14983W        W80144  19.794   1.710   0.502
14984W        W80145  18.095  19.637   3.628
14985W        W80146  36.131   8.892   3.108
14986W        W80147  36.340  44.668  13.868
14987W        W80148  27.299   1.760   0.465
14988W        W80149   1.204  27.993  11.114
14989W        W80150   1.207   5.315  11.130
14990W        W80151  21.325  22.549   0.818
14991W        W80152  15.746   6.954  13.889
14992W        W80153   5.384  39.148   0.703
14993W        W80154  41.789  42.731   1.826
14994W        W80155   7.266  21.808   0.834
14995W        W80156  32.328  42.310   2.308
14996W        W80157  15.740   9.395  12.419
14997W        W80158  33.970   0.714   0.643
14998W        W80159  44.983   8.355  14.918
14999W        W80160  36.275  22.952   1.216
15000W        W80161  36.784  29.682   0.189
15001W        W80162   9.067  19.258  14.113
15002W        W80163  25.077  34.473   1.013
15003W        W80164   6.433  18.294  14.505
15004W        W80165   9.644  35.829   2.671
15005W        W80166  42.458  36.592  12.367
15006W        W80167  10.372  30.986   3.718
15007W        W80168  44.496   3.374   1.876
15008W        W80169  12.785  20.923   0.931
15009W        W80170  41.981  14.005  11.096
15010W        W80171  14.793   4.946  11.374
15011W        W80172  38.346   7.267  14.058
15012W        W80173  31.930  10.452  11.608
15013W        W80174   8.149  22.094   3.350
15014W        W80175   6.316   7.363   4.071
15015W        W80176  14.636  41.034   3.689
15016W        W80177  12.648  21.105  11.647
15017W        W80178  27.551  10.147  14.281
15018W        W80179  38.749  10.042   3.212
15019W        W80180  31.498  29.741  13.764
15020W        W80181  30.133  29.851   1.390
15021W        W80182  42.059  36.074   3.749
15022W        W80183  10.722   6.032   1.287
15023W        W80184  27.178  11.899   1.002
15024W        W80185  25.469  15.725  14.627
15025W        W80186  10.345  37.907  11.052
15026W        W80187  36.427   8.463   3.165
15027W        W80188   3.029  25.802   1.614
15028W        W80189  10.081  42.268  12.038
15029W        W80190  14.299  35.340   1.873
15030W        W80191  20.089  20.579  13.001
15031W        W80192  15.761   2.963   1.255
15032W        W80193  22.804   3.255   4.099
15033W        W80194   3.261  24.650  13.881
15034W        W80195   6.834  35.016   2.309
15035W        W80196  42.467  34.891   4.147
15036W        W80197  31.665  20.345   3.004
15037W        W80198  43.408  33.176  13.637
15038W        W80199  44.969   9.091   2.786
15039W        W80200  13.877  21.659  12.497
15040W        W80201  33.722   3.858  12.969
15041W        W80202  44.961  44.800   4.587
15042W        W80203  40.953  27.639  11.484
15043W        W80204   0.330  40.312  12.426
15044W        W80205  18.195  27.563   4.650
15045W        W80206  25.754  44.957   3.159
15046W        W80207   9.916  44.840  14.519
15047W        W80208  19.596   4.008  13.894
15048W        W80209   2.973  37.860  14.404
15049W        W80210  39.233   9.340   4.720
15050W        W80211  29.193  42.565  13.879
15051W        W80212  13.220  14.810  14.815
15052W        W80213   9.430  22.414   4.531
15053W        W80214   7.156  40.916   0.491
15054W        W80215  15.116  27.724  11.025
15055W        W80216  43.133  24.756  11.114
15056W        W80217  31.283  31.758   2.876
15057W        W80218   5.612  31.072   4.177
15058W        W80219  28.874  30.123   0.955
15059W        W80220  42.021  36.917   3.208
15060W        W80221  44.419  24.505   3.646
15061W        W80222  37.152   9.397   1.745
15062W        W80223  35.755  36.927  10.982
15063W        W80224   6.775   8.522   0.901
15064W        W80225   6.269   8.400  14.770
15065W        W80226   6.007   9.194   2.875
15066W        W80227  12.320  20.759   4.553
15067W        W80228  10.188   4.013   2.910
15068W        W80229  29.684  18.173  14.100
15069W        W80230  22.759   2.811  13.122
15070W        W80231  29.015  33.754  13.022
15071W        W80232   2.427  44.504   2.367
15072W        W80233  28.706  31.620  12.537
15073W        W80234  11.773  33.999  12.195
15074W        W80235  36.991  39.833  11.585
15075W        W80236  27.740   5.182   4.929
15076W        W80237  42.860  25.545   1.554
15077W        W80238  19.586   7.392   3.235
15078W        W80239  10.534  24.838   0.854
15079W        W80240  41.107   2.949  11.648
15080W        W80241  40.015  43.520   1.980
15081W        W80242  10.831  22.516  14.811
15082W        W80243  24.731  23.855   4.449
15083W        W80244   4.334  28.833  13.958
15084W        W80245   8.339  22.535  13.342
15085W        W80246   9.411   9.254   1.377
15086W        W80247  34.355   7.014   4.518
15087W        W80248   7.909   9.509  11.276
15088W        W80249  13.663   6.017   4.242
15089W        W80250  34.078  15.288  13.290
15090W        W80251  28.073   2.095   3.242
15091W        W80252  20.561  22.524   4.680
15092W        W80253   4.861  43.953  13.074
15093W        W80254  23.224   0.528   4.076
15094W        W80255  10.079  40.936   2.862
15095W        W80256   7.238  28.414   0.261
15096W        W80257  28.484  35.316  13.029
15097W        W80258  19.131   8.458   1.428
15098W        W80259  15.331  36.435  12.909
15099W        W80260   6.723  33.638  10.683
15100W        W80261   1.763   7.162   3.658
15101W        W80262   3.651  39.142   0.023
15102W        W80263  18.467  30.120   1.807
15103W        W80264  30.688   1.801   2.419
15104W        W80265  24.699  13.046  12.189
15105W        W80266  24.538  21.506   4.085
15106W        W80267   2.889  44.217   3.087
15107W        W80268  35.511  10.462  12.479
15108W        W80269  21.002  11.220  14.609
15109W        W80270  15.892  15.594   3.273
15110W        W80271   9.855  18.970   2.702
15111W        W80272   2.555   4.293   4.946
15112W        W80273  25.973  42.056  14.953
15113W        W80274  38.872  21.230  13.698
15114W        W80275  36.641  29.514   3.703
15115W        W80276  13.147  17.044   1.886
15116W        W80277  32.890  36.431  13.576
15117W        W80278  19.080  34.428   3.738
15118W        W80279  11.408  34.964  13.051
15119W        W80280  34.831  36.357   4.329
15120W        W80281  21.154  34.510   4.247
15121W        W80282  15.376   5.763   2.689
15122W        W80283  33.645   7.015  14.832
15123W        W80284  27.519  21.282  12.174
15124W        W80285  22.566  34.101  12.492
15125W        W80286  43.351  14.730   3.922
15126W        W80287   2.277   1.792   4.903
15127W        W80288   7.776   4.247   4.660
15128W        W80289  43.769  21.202  11.649
15129W        W80290  14.267   9.380  11.586
15130W        W80291  17.076  27.124  13.027
15131W        W80292  29.453  14.541  12.418
15132W        W80293  26.126   9.855  13.452
15133W        W80294  28.595  20.742  13.048
15134W        W80295   9.817  25.223  12.994
15135W        W80296  32.011   0.476  14.273
15136W        W80297  14.877   8.649  13.907
15137W        W80298  13.303  21.206  14.910
15138W        W80299  35.114  20.615   2.721
15139W        W80300  40.239  33.121   0.272
15140W        W80301   6.107   0.793  11.585
15141W        W80302   7.738  36.555  11.449
15142W        W80303  40.384  31.076   0.048
15143W        W80304  37.126  40.650   4.163
15144W        W80305  30.103   1.286   1.397
15145W        W80306  43.033  39.468   3.275
15146W        W80307   7.959  18.727   3.722
15147W        W80308  21.707  25.785  11.482
15148W        W80309  31.177  36.430  11.647
15149W        W80310  41.024   0.418  14.983
15150W        W80311  22.060  28.881  12.055
15151W        W80312  17.712  15.338  14.475
15152W        W80313  16.809  25.542  11.641
15153W        W80314   0.432  34.883   3.431
15154W        W80315   1.354  18.150   3.148
15155W        W80316  44.610  39.842   0.956
15156W        W80317  44.341  25.047  14.035
15157W        W80318   7.429  25.004   1.408
15158W        W80319  12.749  28.930  10.830
15159W        W80320  28.475  26.733  13.237
15160W        W80321   7.540  13.145  14.308
15161W        W80322  33.867   6.741  11.642
15162W        W80323  21.400  43.447   0.689
15163W        W80324  32.404   5.919   1.805
15164W        W80325  37.628  33.865  14.612
15165W        W80326  36.167   1.732  14.760
15166W        W80327  38.943   0.773  10.731
15167W        W80328  39.258  18.201   2.755
15168W        W80329  30.637   9.737   1.325
15169W        W80330  35.979  44.518  14.785
15170W        W80331  15.095   5.620   2.244
15171W        W80332  43.288  25.996  11.094
15172W        W80333  10.076  39.543   1.746
15173W        W80334   3.710  42.889   0.296
15174W        W80335  19.657  29.577  14.852
15175W        W80336  14.565  28.934   0.208
15176W        W80337  33.661  29.029  10.784
15177W        W80338   8.363  44.869  11.054
15178W        W80339  44.735  33.190  14.841
15179W        W80340  26.918  24.254   5.364
15180W        W80341  23.704  36.836  10.904
15181W        W80342  39.975  23.311   2.403
15182W        W80343  11.200  31.485   0.430
15183W        W80344  16.151   3.010  14.666
15184W        W80345  21.424  15.606  10.957
15185W        W80346  31.821   3.899   1.516
15186W        W80347  17.522  33.456  12.538
15187W        W80348  43.383  10.495   4.510
15188W        W80349   1.060  25.241   1.816
15189W        W80350  13.827  30.214   2.127
15190W        W80351  42.895  40.475  11.554
15191W        W80352  25.701  36.006  10.622
15192W        W80353  36.129   5.446   1.650
15193W        W80354  16.786  20.549  12.177
15194W        W80355  42.765   3.244   3.044
15195W        W80356  18.605   9.375  13.109
15196W        W80357  23.298   3.290  13.591
15197W        W80358  44.802   1.443  14.457
15198W        W80359  36.633   2.388   0.746
15199W        W80360  31.632  25.471  10.981
15200W        W80361  21.767  24.669  13.474
15201W        W80362  37.440  41.974  13.367
15202W        W80363  13.528  17.829  13.465
15203W        W80364   0.811  30.914  14.819
15204W        W80365  23.786  40.571  13.386
15205W        W80366   4.869  31.149  11.112
15206W        W80367  20.882  25.813   0.540
15207W        W80368  39.465  15.522  10.672
15208W        W80369  19.757  28.125   1.906
15209W        W80370  14.069  20.550   2.874
15210W        W80371  37.093   8.785   4.534
15211W        W80372  14.546  29.145   3.361
15212W        W80373  30.155  40.736   2.588
15213W        W80374  28.947  13.670   3.039
15214W        W80375  22.401  21.295   9.991
15215W        W80376  33.316  32.946  14.962
15216W        W80377  30.706  18.752  13.081
15217W        W80378  23.582   0.690  12.025
15218W        W80379  23.465   4.420  13.910
15219W        W80380  16.720   2.394  10.698
15220W        W80381   3.752  21.532  14.290
15221W        W80382  22.706  26.375   1.760
15222W        W80383  20.283  41.558  10.822
15223W        W80384  13.089  28.302  13.795
15224W        W80385   6.351  21.664  14.830
15225W        W80386  10.553  17.179  13.503
15226W        W80387   7.423  34.340   4.146
15227W        W80388  26.489   8.757   4.347
15228W        W80389  11.696   3.336   3.586
15229W        W80390   3.147  25.808  10.542
15230W        W80391   4.204  14.342   4.579
15231W        W80392  26.970  23.305   3.631
15232W        W80393  23.528  40.880   3.802
15233W        W80394  43.295  44.742   4.146
15234W        W80395   5.694  41.430  10.925
15235W        W80396  41.950  43.292  13.491
15236W        W80397   0.797   6.220   1.351
15237W        W80398   9.306   2.956  14.626
15238W        W80399  20.144  36.359   2.716
15239W        W80400  39.529  14.281   2.897
15240W        W80401  12.317   9.801   1.743
15241W        W80402  14.009  22.573  13.441
15242W        W80403   5.266   6.940  10.650
15243W        W80404  23.807  21.103   4.048
15244W        W80405  38.567  11.460  11.891
15245W        W80406  12.323  29.684   2.798
15246W        W80407  43.988  15.798  11.111
15247W        W80408  23.927  32.083  14.964
15248W        W80409   3.323  12.639  13.110
15249W        W80410  14.633  32.044   2.853
15250W        W80411  39.805  18.372  12.205
15251W        W80412  20.333  21.307  14.709
15252W        W80413  12.095  40.746  12.386
15253W        W80414  17.920  24.169   4.818
15254W        W80415   1.192  28.068   4.916
15255W        W80416   3.175  29.016  14.431
15256W        W80417  12.076  12.485   0.984
15257W        W80418   9.804  31.116  10.890
15258W        W80419  44.870  32.300   2.319
15259W        W80420  37.840  23.762  12.107
15260W        W80421  30.837  23.996   0.335
15261W        W80422   5.974  43.313   0.816
15262W        W80423  43.322  40.320   0.803
15263W        W80424  11.217   4.270  12.835
15264W        W80425   2.516  38.565   4.621
15265W        W80426  28.085  31.214  11.892
15266W        W80427   6.922   7.361  12.527
15267W        W80428  40.625  39.578   3.564
15268W        W80429  33.485   0.179  11.015
15269W        W80430  29.646  29.654  13.457
15270W        W80431  41.134  22.221  14.501
15271W        W80432  27.549  39.526  11.994
15272W        W80433  42.821  13.756  13.441
15273W        W80434  23.734  43.444  13.198
15274W        W80435   1.912  16.490  10.627
15275W        W80436   2.979   2.858  14.876
15276W        W80437  13.231  40.163   1.981
15277W        W80438  29.406  25.153   0.456
15278W        W80439  16.534  23.746  14.790
15279W        W80440  13.332  25.880   0.755
15280W        W80441  12.849  41.133  14.905
15281W        W80442   1.369  28.470   1.987
15282W        W80443   0.795  44.419   2.231
15283W        W80444  40.371   7.650  13.589
15284W        W80445  44.487  40.849   1.878
15285W        W80446   1.958  14.843  14.038
15286W        W80447  20.804  37.647  10.426
15287W        W80448   9.365  14.597  12.785
15288W        W80449  34.724  35.455   2.922
15289W        W80450  30.651   5.025  13.481
15290W        W80451  29.244   2.322  11.237
15291W        W80452   4.887   5.406  11.510
15292W        W80453  22.466  35.442   1.480
15293W        W80454  32.480   9.710   0.301
15294W        W80455  14.926  18.643   1.927
15295W        W80456  18.760  16.667  12.195
15296W        W80457  12.775   3.251  11.201
15297W        W80458  41.398  12.135   1.791
15298W        W80459   3.251  31.997  12.555
15299W        W80460  19.102  28.620   2.845
15300W        W80461  32.693   6.403  14.338
15301W        W80462  34.286  19.830   4.056
15302W        W80463  44.359  11.626   2.292
15303W        W80464   5.288   6.784   4.002
15304W        W80465   8.199  11.601  14.664
15305W        W80466  25.851  37.433  10.722
15306W        W80467   0.367   8.980  11.106
15307W        W80468  14.688  33.090   4.301
15308W        W80469  33.895   0.502  12.908
15309W        W80470  42.956  17.607  11.633
15310W        W80471  37.365  44.962   2.268
15311W        W80472  12.663   3.059  14.314
15312W        W80473  19.239  17.747   4.189
15313W        W80474  37.070  22.378   1.806
15314W        W80475  15.767  30.835   2.094
15315W        W80476  28.069  43.851   0.919
15316W        W80477   8.724  32.857  14.931
15317W        W80478   6.114  12.652   5.003
15318W        W80479  41.685  44.993   0.098
15319W        W80480   5.732  25.231  11.150
15320W        W80481  21.495  10.242   1.400
15321W        W80482   6.749  37.737   2.841
15322W        W80483  30.239  19.133  11.340
15323W        W80484  12.083   9.039  14.797
15324W        W80485   5.096   2.527   1.743
15325W        W80486  40.004  42.081  12.813
15326W        W80487  18.569  30.610  11.319
15327W        W80488  30.073  21.676  10.717
15328W        W80489  21.697  35.791  10.558
15329W        W80490  23.477  10.896   2.903
15330W        W80491  32.820   9.210  13.980
15331W        W80492  27.675  34.238   0.237
15332W        W80493  43.864  26.169   0.480
15333W        W80494  16.615  44.570  11.643
15334W        W80495  34.574  35.802   0.445
15335W        W80496  34.658  38.280  13.916
15336W        W80497   6.723  38.404   4.620
15337W        W80498  19.047  16.118  13.801
15338W        W80499  12.360  34.957   3.687
15339W        W80500  28.644   7.010  14.220
15340W        W80501  31.179  17.192   0.726
15341W        W80502  25.743  13.079   1.800
15342W        W80503  37.806  22.093   0.249
15343W        W80504  40.296   2.199   3.302
15344W        W80505  43.883  28.751   2.855
15345W        W80506   2.169  36.042   3.864
15346W        W80507  37.088  34.138  12.632
15347W        W80508   5.711  35.617  10.629
15348W        W80509   8.911   7.833  14.903
15349W        W80510   9.436  27.238  12.453
15350W        W80511  28.234  17.154   2.803
15351W        W80512  20.803  33.636  10.738
15352W        W80513  40.767   4.825  13.089
15353W        W80514  25.522  24.392   0.658
15354W        W80515   6.872  24.964  11.461
15355W        W80516  33.554  30.667   2.264
15356W        W80517   2.463  15.051   4.149
15357W        W80518   6.866  42.781  14.077
15358W        W80519  20.088  36.571   0.307
15359W        W80520  12.144  21.107  11.455
15360W        W80521  11.856  43.095   2.359
15361W        W80522  26.600   5.171  11.037
15362W        W80523  39.250  42.821   2.700
15363W        W80524  21.209   8.246   3.692
15364W        W80525   0.498  27.079   4.045
15365W        W80526  33.933   4.891  12.190
15366W        W80527  20.028  32.698   3.106
15367W        W80528   7.880  31.748   0.016
15368W        W80529  40.800  16.065   0.761
15369W        W80530   1.289  18.372  14.901
15370W        W80531   9.525  12.405  11.193
15371W        W80532  43.343   0.178   1.355
15372W        W80533  19.712   7.326  14.294
15373W        W80534   6.633   4.444   1.779
15374W        W80535  41.997  33.942   0.466
15375W        W80536  30.769  32.531  13.848
15376W        W80537  43.164  22.521   0.274
15377W        W80538  35.244  33.571   4.493
15378W        W80539  13.425  27.567   4.798
15379W        W80540  16.420  14.081   5.029
15380W        W80541  23.065   9.734  11.123
15381W        W80542  19.693  36.036  11.650
15382W        W80543   5.328  24.636   1.796
15383W        W80544  11.796  35.431   2.077
15384W        W80545   2.840  15.251  14.138
15385W        W80546   3.462  16.150   3.212
15386W        W80547  36.436  28.640  11.933
15387W        W80548  41.233  33.928  13.332
15388W        W80549  30.812  41.354  12.995
15389W        W80550   3.025  28.210   2.372
15390W        W80551  33.952  35.868  13.053
15391W        W80552  21.785   5.840  11.796
15392W        W80553  26.617  19.610  10.511
15393W        W80554   9.713   7.913  13.458
15394W        W80555   2.691  34.989  11.467
15395W        W80556  36.971  32.404  11.060
15396W        W80557  27.771  33.017   4.241
15397W        W80558  26.045  34.627   4.855
15398W        W80559  27.266  33.502   3.253
15399W        W80560  13.750  31.023   2.725
15400W        W80561  29.948  38.988   2.526
15401W        W80562  34.690  42.030  13.584
15402W        W80563   3.097  10.675  13.821
15403W        W80564  21.085  27.644   1.790
15404W        W80565   4.791  10.392  11.087
15405W        W80566  37.768   6.568   2.786
15406W        W80567  27.144  26.051   0.244
15407W        W80568  32.899  16.042   3.614
15408W        W80569  42.536  40.555  14.468
15409W        W80570  39.511  38.279  13.967
15410W        W80571   9.811  24.594   4.424
15411W        W80572  41.651  29.374   1.669
15412W        W80573  35.609  27.263  14.019
15413W        W80574  19.271  10.182   2.820
15414W        W80575  44.949  26.281  13.953
15415W        W80576   5.412  28.861   1.677
15416W        W80577  42.262  13.807   2.155
15417W        W80578  24.183  34.484  13.921
15418W        W80579  24.240  24.590  12.874
15419W        W80580  14.160  43.953   4.076
15420W        W80581  19.181  42.878  14.785
15421W        W80582  44.402  33.345   1.325
15422W        W80583   8.728  37.946   2.799
15423W        W80584   0.895   6.919   1.802
15424W        W80585  30.610  22.032   0.615
15425W        W80586   6.272  41.565  12.587
15426W        W80587  12.183  33.840  12.941
15427W        W80588  34.046  37.412  12.594
15428W        W80589  37.019  18.490  11.136
15429W        W80590  42.105  30.662  10.314
15430W        W80591  43.276  15.668  13.475
15431W        W80592   0.028   8.516   2.223
15432W        W80593  40.771   2.414  13.639
15433W        W80594  19.700  42.566  11.745
15434W        W80595  11.718  21.818   2.801
15435W        W80596  12.757   0.210   4.165
15436W        W80597  24.964   6.707  12.118
15437W        W80598   2.918  15.979  12.493
15438W        W80599  33.476  34.964  14.513
15439W        W80600  37.891  14.309  14.778
15440W        W80601  19.129  29.398  14.082
15441W        W80602   5.566   4.636  11.632
15442W        W80603  18.266  27.526   0.301
15443W        W80604  43.438  22.461  14.840
15444W        W80605  37.498   8.871  10.804
15445W        W80606  22.966  10.331   1.793
15446W        W80607  18.804  20.502   3.218
15447W        W80608  41.466  43.089  14.616
15448W        W80609  31.506  35.598  13.480
15449W        W80610  35.150  18.999   3.247
15450W        W80611  21.026  34.463  12.061
15451W        W80612  32.713  17.798  14.865
15452W        W80613  27.116  38.838  14.392
15453W        W80614  29.187  28.147   0.359
15454W        W80615   4.681  26.312   1.775
15455W        W80616  33.084  26.345  13.306
15456W        W80617  16.435  41.228  14.049
15457W        W80618   2.985   8.302   2.163
15458W        W80619  24.830  37.802  12.452
15459W        W80620   5.704  31.421  12.558
15460W        W80621  39.759  13.835  11.578
15461W        W80622  22.047   4.030   4.851
15462W        W80623  35.006  18.144  11.708
15463W        W80624   8.361   4.046  10.644
15464W        W80625  30.394  29.049   2.809
15465W        W80626   0.842   4.956  11.230
15466W        W80627  14.761   4.906  13.872
15467W        W80628   3.151  32.813  12.144
15468W        W80629  42.021  28.225   2.720
15469W        W80630   6.348  40.917   1.685
15470W        W80631   0.112  19.492  13.395
15471W        W80632  35.112   7.386   2.662
15472W        W80633   7.266  22.592  13.222
15473W        W80634  24.637   4.615   0.703
15474W        W80635  38.453   8.788   2.077
15475W        W80636  17.488  30.716   3.235
15476W        W80637  31.248  42.433   0.192
15477W        W80638  26.562  44.983  12.102
15478W        W80639  11.589  15.797   1.182
15479W        W80640   1.663  21.734   3.283
15480W        W80641  42.892  18.311   4.139
15481W        W80642  21.999  30.463  11.854
15482W        W80643  18.657  42.981   3.272
15483W        W80644  23.476  19.158   3.482
15484W        W80645   4.778  17.297  14.923
15485W        W80646  12.349   1.307  10.697
15486W        W80647  24.474  28.256   1.724
15487W        W80648   0.867   1.389  10.748
15488W        W80649  40.442  15.668   4.090
15489W        W80650  20.108   9.715  14.799
15490W        W80651  34.020   2.755   1.913
15491W        W80652  42.834  22.129  11.127
15492W        W80653   1.495  20.993   0.444
15493W        W80654   9.171  11.416   0.059
15494W        W80655  11.329  24.281   1.625
15495W        W80656  23.088   6.596   2.764
15496W        W80657  11.941  21.416   1.242
15497W        W80658  24.940   9.155  12.478
15498W        W80659  10.682   5.041  12.698
15499W        W80660  29.916  29.735  12.032
15500W        W80661  15.507  13.660  14.832
15501W        W80662  12.821   4.946   4.584
15502W        W80663  39.430  11.728   1.690
15503W        W80664  36.614  26.116   4.854
15504W        W80665  27.383   7.131   2.965
15505W        W80666  20.056   6.934   2.394
15506W        W80667  17.009   3.843  14.524
15507W        W80668  30.134  17.308   1.870
15508W        W80669  25.152  15.671   1.332
15509W        W80670   4.785  26.041   1.333
15510W        W80671  26.876  44.282   0.297
15511W        W80672   8.686  29.852  14.518
15512W        W80673   3.630  41.428   4.848
15513W        W80674  14.846  16.573   0.309
15514W        W80675   1.847  23.869  14.388
15515W        W80676  16.557  10.813  12.916
15516W        W80677  13.099  31.881  14.395
15517W        W80678  27.578  18.717   1.242
15518W        W80679  34.519  29.222   3.232
15519W        W80680  32.660  35.496   1.770
15520W        W80681  34.504  16.816  11.589
15521W        W80682  35.567  14.637   0.192
15522W        W80683  28.636  27.655  12.418
15523W        W80684  39.983  16.388   4.544
15524W        W80685  43.023  22.018   2.354
15525W        W80686  11.396  19.306   4.049
15526W        W80687   0.472  12.454  14.480
15527W        W80688  10.208  26.562  12.263
15528W        W80689   5.152  36.976  13.109
15529W        W80690  24.792  43.809   1.291
15530W        W80691  33.124  33.303  12.579
15531W        W80692  18.323  33.614  13.853
15532W        W80693  23.570  14.461   0.397
15533W        W80694  35.389  28.854  11.798
15534W        W80695  24.791  22.441   1.333
15535W        W80696   9.102  26.900  12.894
15536W        W80697   2.343   3.182  10.389
15537W        W80698  21.620   0.908   0.433
15538W        W80699  44.351  23.511   1.381
15539W        W80700  21.606  29.390  11.027
15540W        W80701   8.642  40.890  11.774
15541W        W80702  27.756  23.801  11.488
15542W        W80703  33.073   2.904   1.430
15543W        W80704  42.409  38.192   2.238
15544W        W80705   5.666  34.923  14.000
15545W        W80706  38.585  37.033  13.342
15546W        W80707  22.600   2.845   4.318
15547W        W80708  37.399  25.218   0.560
15548W        W80709  23.296   9.147   0.841
15549W        W80710  37.873  16.729  14.998
15550W        W80711  20.998  34.919   2.384
15551W        W80712  11.216  17.228   4.523
15552W        W80713  37.793  27.117  14.760
15553W        W80714   0.839  24.705   3.633
15554W        W80715  22.719   6.735  11.561
15555W        W80716  21.353   5.740  12.051
15556W        W80717  30.906  33.180  12.023
15557W        W80718  28.114  14.189   1.855
15558W        W80719  14.339  41.503  11.027
15559W        W80720   2.643  27.462   1.820
15560W        W80721   8.302  13.212   1.158
15561W        W80722  22.897  18.549  12.986
15562W        W80723  12.167  21.643   3.469
15563W        W80724  11.011  33.552  13.086
15564W        W80725   5.327  14.803   1.385
15565W        W80726  20.836  16.121  10.598
15566W        W80727  26.017  25.539  14.048
15567W        W80728  40.362  34.435   0.491
15568W        W80729  41.533  35.392  12.929
15569W        W80730  25.191   2.021  11.582
15570W        W80731  12.116  27.877  13.839
15571W        W80732  19.556  25.155  12.534
15572W        W80733   9.135  33.351   1.822
15573W        W80734  38.538   2.719   3.869
15574W        W80735  37.658  33.284   4.093
15575W        W80736  11.919   2.727   1.360
15576W        W80737  36.600   7.893   4.589
15577W        W80738  17.892  16.876  12.652
15578W        W80739  23.492  35.795   4.576
15579W        W80740  31.904   4.068   4.409
15580W        W80741  22.322   7.473  14.287
15581W        W80742  44.081  19.572   3.207
15582W        W80743  28.038  35.238   0.281
15583W        W80744  24.687  26.686  13.107
15584W        W80745  18.811  24.605  14.391
15585W        W80746   1.888  23.324  14.718
15586W        W80747  33.438  26.801   0.183
15587W        W80748   0.957   9.559  11.660
15588W        W80749  17.638  10.842  12.984
15589W        W80750  20.094  20.659   0.527
15590W        W80751   0.448  20.933  13.410
15591W        W80752  41.352  13.623   2.225
15592W        W80753  36.985  31.652   0.000
15593W        W80754  44.400   9.353   3.590
15594W        W80755  19.253  16.091   5.015
15595W        W80756  38.909   5.357  14.935
15596W        W80757  25.731  36.421  12.342
15597W        W80758  29.664  12.202   1.802
15598W        W80759  19.214  32.359  12.874
15599W        W80760  42.812  25.992   4.086
15600W        W80761  44.966  21.480   3.172
15601W        W80762  25.766  13.171  12.265
15602W        W80763  36.760  11.743  12.464
15603W        W80764  14.268  38.375  11.896
15604W        W80765   7.310   4.711  11.246
15605W        W80766  11.097  38.497  11.164
15606W        W80767  12.183  36.349  12.849
15607W        W80768   5.217  22.149   2.762
15608W        W80769  17.622  43.768  11.094
15609W        W80770   0.195  21.165   3.646
15610W        W80771  38.082   3.849  12.026
15611W        W80772  11.234  13.601   3.143
15612W        W80773  15.684  41.964   3.760
15613W        W80774  39.901  34.739  14.633
15614W        W80775  18.818  29.698   0.421
15615W        W80776  33.428  43.417  13.896
15616W        W80777   6.897  44.348  14.213
15617W        W80778  20.236  10.220   2.269
15618W        W80779  11.118  34.973   3.271
15619W        W80780  12.846  32.940   4.771
15620W        W80781  10.936  21.096  12.173
15621W        W80782  27.520  25.606   1.580
15622W        W80783  17.631   6.198   4.326
15623W        W80784  16.505  15.661   3.013
15624W        W80785  14.682   8.315  10.658
15625W        W80786  32.716  24.023  14.810
15626W        W80787  43.564  34.522   5.048
15627W        W80788  38.492  32.698  10.701
15628W        W80789   0.987   7.836  14.591
15629W        W80790  41.392   5.388  12.911
15630W        W80791  10.909  16.026  14.929
15631W        W80792   3.950  11.449  13.307
15632W        W80793   9.635  13.627   4.626
15633W        W80794  41.953  18.880  14.963
15634W        W80795  33.305   3.508   5.072
15635W        W80796  30.426  25.623  14.345
15636W        W80797   3.452   7.361   0.696
15637W        W80798  29.698   5.976  11.539
15638W        W80799   1.646  43.915  12.967
15639W        W80800  44.368  17.190  11.697
15640W        W80801  16.665  23.427   3.547
15641W        W80802  12.096  15.746   1.233
15642W        W80803   4.078  40.218  11.974
15643W        W80804  14.785  44.773  12.145
15644W        W80805  27.535   7.865  10.685
15645W        W80806  24.997  32.811   3.233
15646W        W80807  39.040   8.307   0.748
15647W        W80808  21.734  29.068   0.865
15648W        W80809  37.298   1.777  12.459
15649W        W80810   4.683   0.032  14.776
15650W        W80811  19.331  10.874   0.454
15651W        W80812  15.591   5.041  13.396
15652W        W80813  32.077  24.160   2.829
15653W        W80814  27.181  44.737   2.841
15654W        W80815  37.411  24.525   3.195
15655W        W80816  23.273  26.172   2.479
15656W        W80817   9.101  23.510  13.993
15657W        W80818  18.214  16.133  12.486
15658W        W80819  34.871  24.244   2.708
15659W        W80820  14.180  20.854  13.809
15660W        W80821   7.262  10.284   3.426
15661W        W80822  34.117  29.306   1.425
15662W        W80823  34.839  11.696   3.529
15663W        W80824   1.345  44.017   4.127
15664W        W80825  43.337  24.176  11.687
15665W        W80826  39.736   1.509   1.649
15666W        W80827  22.210   5.279  12.328
15667W        W80828  25.711  27.827   2.294
15668W        W80829  17.585  19.035   2.194
15669W        W80830  31.441  43.490   4.319
15670W        W80831  15.071   1.043  14.358
15671W        W80832  42.846   2.936  12.935
15672W        W80833  44.365  26.137  13.114
15673W        W80834  32.590  17.793   4.681
15674W        W80835  40.013  44.627   1.263
15675W        W80836  19.183  10.386  11.610
15676W        W80837  37.153  42.434  10.608
15677W        W80838   6.546   6.161  13.376
15678W        W80839  20.801  26.000  13.236
15679W        W80840  43.063  16.659  14.136
15680W        W80841  34.414  23.636  11.600
15681W        W80842  38.291  37.361   4.100
15682W        W80843  42.554  39.888   0.062
15683W        W80844   9.727  12.166   3.143
15684W        W80845  13.246  25.682  13.515
15685W        W80846  36.486  40.863   3.933
15686W        W80847  17.660  43.034  12.449
15687W        W80848  21.615  30.163   1.709
15688W        W80849  26.007   4.016   2.804
15689W        W80850  32.432  26.052   1.844
15690W        W80851  20.334  24.555   1.800
15691W        W80852   1.370  14.713   3.927
15692W        W80853   6.265  23.074  14.089
15693W        W80854  27.301  21.557   4.433
15694W        W80855  29.618  13.785   3.404
15695W        W80856  28.672   8.647   0.063
15696W        W80857  41.777  22.265  14.038
15697W        W80858  30.609  39.301   3.285
15698W        W80859  40.004  39.281   4.543
15699W        W80860  17.146  28.254   4.481
15700W        W80861  26.734   5.725   1.482
15701W        W80862  23.719  40.650  14.917
15702W        W80863  26.462  44.705   1.710
15703W        W80864  18.565  25.071  12.528
15704W        W80865  38.148   5.679   1.903
15705W        W80866  20.182   8.715  10.659
15706W        W80867  35.980  32.872  11.182
15707W        W80868  19.478  35.279   2.277
15708W        W80869  40.089  29.136  12.557
15709W        W80870  22.600  20.070  13.075
15710W        W80871  44.685  15.508   1.325
15711W        W80872  19.071  43.000   1.749
15712W        W80873   0.416  33.631   1.719
15713W        W80874  26.574   3.891  13.017
15714W        W80875   6.208  25.944  14.350
15715W        W80876  42.716   9.368   3.327
15716W        W80877  40.385  28.355  14.365
15717W        W80878   5.389  14.385  12.839
15718W        W80879  12.297  39.095   0.814
15719W        W80880   3.154  30.611  13.874
15720W        W80881   6.441  21.220   3.967
15721W        W80882  31.417  41.945  12.976
15722W        W80883  18.501  15.787  11.581
15723W        W80884  44.654  17.193   4.801
15724W        W80885   7.925  18.618   2.255
15725W        W80886  21.156  12.408  14.495
15726W        W80887  35.840  31.613   3.129
15727W        W80888  33.961  18.213   0.485
15728W        W80889  12.545   0.316   3.687
15729W        W80890  17.333   2.918   2.239
15730W        W80891  34.169  19.322   3.227
15731W        W80892  32.368  14.319   2.704
15732W        W80893  31.518  13.216  13.782
15733W        W80894  44.466  42.405  14.448
15734W        W80895  22.453  42.687  12.504
15735W        W80896   7.965  35.412   0.358
15736W        W80897  33.941  33.834   1.988
15737W        W80898  40.988   6.351  14.588
15738W        W80899  25.821  11.743  11.184
15739W        W80900  23.738  44.332   1.790
15740W        W80901  30.485  36.831  14.357
15741W        W80902  32.847  25.630  14.423
15742W        W80903  36.627  28.960   1.369
15743W        W80904  24.854   8.842   0.346
15744W        W80905  24.490   2.368  12.655
15745W        W80906   9.701  24.006   1.916
15746W        W80907  26.553  39.080  14.390
15747W        W80908  31.929  43.011   0.475
15748W        W80909  24.575  19.493  11.636
15749W        W80910  39.012  25.500   1.531
15750W        W80911  17.417  26.882   2.816
15751W        W80912  43.778   1.307   1.755
15752W        W80913  32.023  23.325  12.552
15753W        W80914  42.925  17.080  10.859
15754W        W80915  17.094  37.140   4.718
15755W        W80916  24.666  34.364  13.108
15756W        W80917  44.797  19.105  13.907
15757W        W80918  36.412  38.401   1.927
15758W        W80919   6.009  10.617  12.479
15759W        W80920  30.505  42.658   3.242
15760W        W80921  25.106  24.716   4.384
15761W        W80922  22.227  35.421   2.455
15762W        W80923  33.620   7.476  13.354
15763W        W80924  39.366  29.885  10.730
15764W        W80925  40.323  10.072  11.165
15765W        W80926   4.897  17.880   2.310
15766W        W80927   6.896  39.977  13.348
15767W        W80928   7.280   6.637  13.757
15768W        W80929   5.238   6.447  10.756
15769W        W80930  16.851  11.846   0.117
15770W        W80931   5.391   9.765   0.292
15771W        W80932  44.908  33.175   3.421
15772W        W80933  19.830   1.837  10.477
15773W        W80934  28.918  20.189  14.561
15774W        W80935   3.429   8.172  14.329
15775W        W80936  25.757  30.677   2.189
15776W        W80937  42.861  13.151   4.193
15777W        W80938  36.042  17.659  13.208
15778W        W80939  29.626  13.001  14.438
15779W        W80940  16.166  43.548   9.685
15780W        W80941   0.256  44.981   1.970
15781W        W80942  20.437  43.530   3.313
15782W        W80943  21.577  31.175  11.923
15783W        W80944  43.218  19.052  13.043
15784W        W80945  34.758   5.394   0.960
15785W        W80946  23.014   9.593   3.198
15786W        W80947  11.082  42.276  13.417
15787W        W80948   2.624  37.132   5.518
15788W        W80949   8.683  34.580  13.452
15789W        W80950  33.045  31.349   4.203
15790W        W80951  22.267  15.138  11.986
15791W        W80952  13.359  32.529   2.409
15792W        W80953  28.045  41.823   1.320
15793W        W80954  41.653  10.915  14.771
15794W        W80955   1.727  18.861  11.150
15795W        W80956   4.208   1.478   4.667
15796W        W80957   7.296  39.046   4.908
15797W        W80958  33.026  17.540  13.928
15798W        W80959  10.071   1.793   1.277
15799W        W80960  14.555  37.047   2.917
15800W        W80961  13.701  19.414  14.982
15801W        W80962  25.703   4.305   3.129
15802W        W80963  15.607  33.790  12.392
15803W        W80964  20.079  17.692   1.277
15804W        W80965  44.058  32.176  14.376
15805W        W80966  15.127  30.834  14.379
15806W        W80967  33.067  36.589   3.571
15807W        W80968   6.689  27.154   1.889
15808W        W80969  22.211  11.661  14.234
15809W        W80970  18.759  27.734   4.619
15810W        W80971  10.300  23.649  13.182
15811W        W80972  25.411   9.343   3.203
15812W        W80973  21.282  21.094  14.704
15813W        W80974  41.604  10.907   3.752
15814W        W80975   5.006  24.695   4.141
15815W        W80976  20.803  25.541   5.024
15816W        W80977  36.381  41.485   1.509
15817W        W80978  28.404  19.517   4.098
15818W        W80979  18.660  26.592   3.155
15819W        W80980   3.256  38.869   4.150
15820W        W80981  12.891  23.616   2.622
15821W        W80982  11.789  24.771   0.551
15822W        W80983  19.847   7.340  11.595
15823W        W80984  26.386  41.344  12.794
15824W        W80985  13.264  19.948  12.616
15825W        W80986  44.876  40.026   2.708
15826W        W80987   6.224  32.088  12.935
15827W        W80988  12.772  38.900  14.758
15828W        W80989  11.914  33.976   4.251
15829W        W80990  13.745  24.473   4.107
15830W        W80991  44.926  25.636  13.630
15831W        W80992  20.150  27.900   2.818
15832W        W80993   9.809  13.639  11.585
15833W        W80994  10.362   6.232  10.502
15834W        W80995  30.677  34.414   2.190
15835W        W80996  15.189  14.144  11.405
15836W        W80997  34.559  20.305   0.067
15837W        W80998   6.315  32.611  14.848
15838W        W80999  27.987   4.948  14.174
15839W        W81000  32.749  34.404   0.416
15840W        W81001   2.841   3.825  10.712
15841W        W81002  22.766   3.820   4.586
15842W        W81003  17.466  34.796   2.809
15843W        W81004  16.677   1.842  11.652
15844W        W81005   7.187   8.144   3.649
15845W        W81006  10.224  43.487   0.874
15846W        W81007   0.771   2.214   2.272
15847W        W81008  22.695  28.700  14.074
15848W        W81009   4.197  17.485  14.855
15849W        W81010   6.244   0.694  13.302
15850W        W81011   9.141  26.205   3.605
15851W        W81012   2.034  30.708   3.129
15852W        W81013  38.861  42.504  13.154
15853W        W81014   1.529   6.354   3.770
15854W        W81015  28.070   7.335  12.505
15855W        W81016  21.507  32.470  13.861
15856W        W81017  24.953  35.098  13.780
15857W        W81018  34.037   9.458   4.118
15858W        W81019  27.467  43.767  11.171
15859W        W81020  21.694   9.927   3.337
15860W        W81021  25.470  16.730   3.861
15861W        W81022  18.717  21.011   1.039
15862W        W81023  30.349  16.614  14.799
15863W        W81024   2.707   5.798   3.336
15864W        W81025  40.242  14.568  13.414
15865W        W81026   0.467   5.216   1.498
15866W        W81027   1.807  41.604   0.758
15867W        W81028  42.990   8.306   2.160
15868W        W81029  33.502  41.948   2.334
15869W        W81030  23.101   9.268  12.004
15870W        W81031  36.753  36.247   2.288
15871W        W81032  33.003  34.750   0.744
15872W        W81033  29.906   6.599   0.890
15873W        W81034  44.039  15.291  11.107
15874W        W81035   2.296  32.626   1.709
15875W        W81036   5.410  24.201  13.067
15876W        W81037  33.329   8.716  12.318
15877W        W81038   6.798  23.239  11.076
15878W        W81039   5.224  23.795  12.765
15879W        W81040  12.762   7.728   2.661
15880W        W81041  27.724  13.080  11.125
15881W        W81042  24.151  30.589  14.595
15882W        W81043  11.876   4.625   3.748
15883W        W81044  12.309  41.322   3.262
15884W        W81045  26.875  30.150  13.962
15885W        W81046  35.714  14.270   2.247
15886W        W81047  44.494  40.260   4.591
15887W        W81048  17.405  13.867  11.228
15888W        W81049  39.287   4.296   1.921
15889W        W81050   9.227  14.150  13.517
15890W        W81051   1.482  19.257   3.277
15891W        W81052   9.071  17.863   2.655
15892W        W81053  21.056  39.477   3.120
15893W        W81054  36.400  21.597   0.760
15894W        W81055  26.149   6.130   4.503
15895W        W81056  37.104  16.280  12.427
15896W        W81057  16.171  32.283   0.319
15897W        W81058   8.970  20.153  14.034
15898W        W81059  18.923  21.408  10.373
15899W        W81060   0.779  26.146   4.308
15900W        W81061  37.936  27.984   0.846
15901W        W81062   9.338  37.534   0.979
15902W        W81063   8.579   3.684  12.920
15903W        W81064  37.293  36.925  12.032
15904W        W81065  43.870  12.966   0.672
15905W        W81066  27.492  22.735   2.021
15906W        W81067  15.730  34.865   0.831
15907W        W81068   7.043  35.371   2.800
15908W        W81069  14.120  39.758   3.440
15909W        W81070   0.779  38.068   2.170
15910W        W81071  16.267  36.558   2.783
15911W        W81072   5.659  34.165   1.494
15912W        W81073  28.782   4.868   4.994
15913W        W81074   4.148  16.685   4.158
15914W        W81075  31.368  35.146   0.074
15915W        W81076  31.642  23.550  12.008
15916W        W81077  32.106  18.064  12.098
15917W        W81078   5.909  25.543   0.751
15918W        W81079   7.679  15.223   3.796
15919W        W81080   4.917  16.836  11.548
15920W        W81081  40.967  43.225   0.475
15921W        W81082  18.842  41.482   2.839
15922W        W81083   7.983   6.600   3.058
15923W        W81084  36.144  33.556   2.456
15924W        W81085  23.916  32.160   2.273
15925W        W81086  42.534  13.898  12.538
15926W        W81087  38.063  11.422  12.105
15927W        W81088   6.932  36.634   1.459
15928W        W81089  37.463   0.263  14.018
15929W        W81090  30.685  23.217  14.878
15930W        W81091  23.224   0.632  12.641
15931W        W81092  32.224  24.615  13.427
15932W        W81093  20.421  35.701  11.141
15933W        W81094  42.155  41.447   2.623
15934W        W81095  41.965  42.921   0.398
15935W        W81096  17.065   1.925  11.314
15936W        W81097   2.341  29.716  10.410
15937W        W81098  18.218  32.400   3.611
15938W        W81099  18.265  10.784   0.532
15939W        W81100  13.800  42.952  11.037
15940W        W81101  28.556  12.721  12.180
15941W        W81102  44.416  25.964   2.655
15942W        W81103  42.837  43.016   3.683
15943W        W81104  42.774  26.972   1.739
15944W        W81105  29.015  17.097   0.743
15945W        W81106  43.607  25.511   3.997
15946W        W81107  28.533   8.073  11.529
15947W        W81108  37.969  29.123   1.448
15948W        W81109   1.706  19.611   0.801
15949W        W81110  21.647  30.097  11.616
15950W        W81111  28.491  10.641   4.055
15951W        W81112  43.777  41.605   3.164
15952W        W81113  25.657   7.861   0.297
15953W        W81114  37.844  34.813   2.896
15954W        W81115  15.146  12.427   2.432
15955W        W81116  18.732  14.861  14.768
15956W        W81117  44.880  42.626  11.194
15957W        W81118   9.662  29.972   2.759
15958W        W81119   7.463   6.806  14.727
15959W        W81120  43.264  26.605   0.913
15960W        W81121   7.323  13.117  14.777
15961W        W81122  21.740   8.734  10.727
15962W        W81123  37.269  33.107  11.688
15963W        W81124   1.734  37.626   0.516
15964W        W81125  10.908   2.410  13.409
15965W        W81126  30.443  10.779   1.140
15966W        W81127   3.351   8.455  13.046
15967W        W81128  20.968  44.205   3.313
15968W        W81129  31.139  35.448  14.724
15969W        W81130  32.598  34.502  14.063
15970W        W81131  33.391   7.633   0.908
15971W        W81132   2.452  22.224   3.690
15972W        W81133  12.227  24.444   3.259
15973W        W81134   7.745   5.824  12.700
15974W        W81135  14.859  17.676   2.187
15975W        W81136  40.373  10.797   2.938
15976W        W81137  34.453  39.881   2.842
15977W        W81138  12.842   1.358  12.580
15978W        W81139  13.283  33.209   4.085
15979W        W81140  43.358  33.270  10.612
15980W        W81141   0.977  26.923  14.983
15981W        W81142  34.646  24.460   5.334
15982W        W81143  10.182   0.610   4.034
15983W        W81144  43.588  25.212  13.437
15984W        W81145  22.314  40.424  11.934
15985W        W81146  40.430  40.954  11.151
15986W        W81147  15.830   7.735  14.890
15987W        W81148   7.738  11.087  13.756
15988W        W81149  34.108  30.964  13.883
15989W        W81150  18.245   7.142  14.332
15990W        W81151  29.125  39.331  11.007
15991W        W81152  42.794  29.696   4.616
15992W        W81153  17.798  17.912  13.876
15993W        W81154  41.402  44.437  13.922
15994W        W81155  33.544   9.129   2.701
15995W        W81156  42.801  41.880   1.866
15996W        W81157   3.820   0.885   2.228
15997W        W81158   3.302  34.145  13.861
15998W        W81159   5.137  34.209   9.876
15999W        W81160   5.393  30.795  11.912
16000W        W81161  31.602  38.969   0.459
16001W        W81162   7.300  24.737  11.607
16002W        W81163  25.710  16.840   4.297
16003W        W81164  26.112  26.160  10.520
16004W        W81165  32.698  12.826  12.550
16005W        W81166  29.159  15.971  11.937
16006W        W81167   4.949   0.821   1.000
16007W        W81168  20.545  32.630  13.039
16008W        W81169  11.165  22.367  12.365
16009W        W81170   3.926   5.656   3.752
16010W        W81171  28.192   4.360  10.817
16011W        W81172  20.878   7.271  11.522
16012W        W81173  20.529   4.777  11.885
16013W        W81174  40.975  13.391  12.537
16014W        W81175  38.376  38.552   2.242
16015W        W81176  15.842  34.706  11.584
16016W        W81177  43.529  33.540   3.282
16017W        W81178  36.539  44.785  11.541
16018W        W81179  17.331  43.024  10.034
16019W        W81180  37.601  21.259   3.557
16020W        W81181  21.210   3.271  11.101
16021W        W81182  18.636  15.343  10.167
16022W        W81183  24.712  43.317  11.933
16023W        W81184  30.869   4.196   3.164
16024W        W81185  10.358   3.914   0.963
16025W        W81186   9.839  13.477   2.569
16026W        W81187   0.359  27.683  14.095
16027W        W81188  37.997  38.942   1.311
16028W        W81189  22.254   9.111   1.660
16029W        W81190   8.627  27.596   0.272
16030W        W81191  32.971  19.196   2.404
16031W        W81192  28.014  10.819  11.158
16032W        W81193  39.006  14.423   1.612
16033W        W81194  17.018  17.282  14.288
16034W        W81195   0.385   8.254   4.059
16035W        W81196  22.639  29.875  14.499
16036W        W81197   1.612  42.870  12.910
16037W        W81198  16.625   7.508  14.636
16038W        W81199   5.307  36.039  11.655
16039W        W81200  36.425  26.689  12.618
16040W        W81201  42.228  13.137   3.292
16041W        W81202  42.566  44.895   2.808
16042W        W81203  19.392  30.086   2.862
16043W        W81204   8.403  11.264  14.323
16044W        W81205   8.154  42.574  12.071
16045W        W81206  31.652  17.736  14.763
16046W        W81207  40.779   8.774   4.525
16047W        W81208  17.680  26.099  13.927
16048W        W81209  32.835  43.520  10.746
16049W        W81210  23.697  28.516   2.256
16050W        W81211  21.007   9.617  11.430
16051W        W81212  28.980  44.584  13.923
16052W        W81213  37.487   4.321  14.768
16053W        W81214  27.854  36.198   3.590
16054W        W81215   4.876  33.322   2.839
16055W        W81216  15.365  43.335  10.682
16056W        W81217  29.006  36.922   1.258
16057W        W81218   5.383  14.205  11.868
16058W        W81219   1.633  15.735  13.021
16059W        W81220  17.816  40.587   0.491
16060W        W81221  37.767  10.332  10.465
16061W        W81222  24.693  33.673   3.424
16062W        W81223  27.034   5.525   1.942
16063W        W81224  19.242   2.758   4.137
16064W        W81225  31.039  27.030   3.220
16065W        W81226   0.978  25.537   3.215
16066W        W81227  34.841  21.063   1.948
16067W        W81228  30.145  44.550   1.740
16068W        W81229   5.960  38.390   3.247
16069W        W81230  21.492   1.666  13.113
16070W        W81231  29.127  27.116  13.602
16071W        W81232  37.285  10.771  13.813
16072W        W81233  31.343  43.535   4.845
16073W        W81234  19.710  31.067   3.140
16074W        W81235  43.002  39.937  12.800
16075W        W81236  41.339  38.917   0.270
16076W        W81237  30.594  39.527  10.553
16077W        W81238  35.349  14.556  12.494
16078W        W81239  33.413  18.017  12.441
16079W        W81240  42.466  16.788   2.787
16080W        W81241  16.917  34.889  13.751
16081W        W81242  19.999   9.224  13.567
16082W        W81243  40.074  21.264  12.449
16083W        W81244  13.604  13.129   3.229
16084W        W81245  31.589  36.815  14.010
16085W        W81246  35.791  25.694   1.633
16086W        W81247  15.164   3.878   2.917
16087W        W81248  42.451  24.099   1.763
16088W        W81249  29.437  11.888   2.161
16089W        W81250   8.635  29.910   0.751
16090W        W81251  42.343  30.828  11.472
16091W        W81252   6.098  17.234   1.331
16092W        W81253  36.328   3.202   2.209
16093W        W81254  24.183  36.838   0.019
16094W        W81255  33.276  20.995  13.302
16095W        W81256   9.135  43.457  13.775
16096W        W81257   6.345  28.536   0.004
16097W        W81258   1.856  19.020  12.620
16098W        W81259  15.180   0.976  12.976
16099W        W81260  22.805  40.577  14.588
16100W        W81261  36.246   5.842   3.127
16101W        W81262  38.034   0.471  12.392
16102W        W81263  39.033  40.670   3.196
16103W        W81264   6.852   3.172   0.223
16104W        W81265  25.155   2.820  12.191
16105W        W81266  38.082  14.682  12.099
16106W        W81267  23.276  24.972  11.960
16107W        W81268  22.493  43.749   4.254
16108W        W81269  28.790  44.736   3.233
16109W        W81270   1.173   0.780  11.492
16110W        W81271  14.704  20.230   4.536
16111W        W81272  26.340  10.174  13.072
16112W        W81273  32.844  12.120   0.328
16113W        W81274  16.641  15.737   1.185
16114W        W81275  15.984   4.737   4.155
16115W        W81276  41.869   8.821  12.050
16116W        W81277   5.004  42.806   1.376
16117W        W81278   7.769  42.192   4.154
16118W        W81279  33.048   3.280  14.873
16119W        W81280  22.311  38.392   0.865
16120W        W81281  30.403  30.007  10.589
16121W        W81282  16.592  36.871   3.699
16122W        W81283  19.700   8.333  13.633
16123W        W81284   1.893  42.078   0.532
16124W        W81285  16.034  37.802  14.336
16125W        W81286   0.891   9.220   4.598
16126W        W81287  43.615  10.695   1.187
16127W        W81288  43.883  10.380  14.839
16128W        W81289  27.708  24.700  14.363
16129W        W81290  19.819  11.016   0.317
16130W        W81291  28.872   5.017   2.769
16131W        W81292  37.926  11.221   4.088
16132W        W81293  21.698   3.847  14.760
16133W        W81294  44.512   2.924   0.690
16134W        W81295  21.182   7.276   3.326
16135W        W81296  26.520   2.492   1.765
16136W        W81297  42.109   0.044   0.386
16137W        W81298   3.805   9.423  11.088
16138W        W81299   8.778  13.532   4.909
16139W        W81300  13.434  17.612   2.243
16140W        W81301  11.741  23.744   5.078
16141W        W81302   7.941  28.079   3.211
16142W        W81303  24.144  13.467   2.268
16143W        W81304  23.062  36.443  11.428
16144W        W81305  38.082  41.023   3.257
16145W        W81306  31.916  33.419  14.904
16146W        W81307   6.137   4.863   4.193
16147W        W81308  36.095  32.349  14.831
16148W        W81309   4.751  30.347   1.052
16149W        W81310  42.303  26.446  13.029
16150W        W81311  11.178   6.314   1.295
16151W        W81312  22.001  22.124   1.719
16152W        W81313   0.364   8.860   0.497
16153W        W81314  33.901  19.762  13.833
16154W        W81315  10.270  16.324   4.557
16155W        W81316  25.555  21.718   4.179
16156W        W81317  18.048  17.322   0.494
16157W        W81318  29.905  20.493   5.130
16158W        W81319  31.081  10.985   1.902
16159W        W81320  35.576  29.971  11.999
16160W        W81321   3.708   3.377  11.694
16161W        W81322  18.553  43.505  14.348
16162W        W81323   3.995   9.205  12.465
16163W        W81324  20.651   4.486  12.629
16164W        W81325  34.069  41.308  14.422
16165W        W81326   0.996  41.573   0.830
16166W        W81327   0.382  10.376  13.893
16167W        W81328  21.835  13.728  11.172
16168W        W81329  26.445  40.928  10.601
16169W        W81330   8.808  37.608   2.335
16170W        W81331   8.040   0.369   3.244
16171W        W81332  15.485  36.909  12.796
16172W        W81333  44.684  22.177   3.190
16173W        W81334  39.049  17.761  12.942
16174W        W81335  23.548  13.641  12.935
16175W        W81336  21.277  33.952   1.479
16176W        W81337  38.107  35.324  11.687
16177W        W81338  29.969  32.179   2.673
16178W        W81339  28.649   2.469   1.876
16179W        W81340  25.958  32.308  12.429
16180W        W81341  35.983   0.055  14.733
16181W        W81342   4.864  18.018   1.682
16182W        W81343  40.969   8.716  11.135
16183W        W81344  18.296  17.831  13.427
16184W        W81345   9.188   1.836   4.710
16185W        W81346  38.997  44.367  11.097
16186W        W81347  25.675   1.698   3.558
16187W        W81348  44.562  19.346   3.622
16188W        W81349  13.233  41.833   4.312
16189W        W81350  40.565  35.695  13.353
16190W        W81351  21.161  37.509  10.786
16191W        W81352   7.136  13.374   0.185
16192W        W81353  29.662  22.260  10.209
16193W        W81354  15.259   2.579   0.586
16194W        W81355  43.378  33.025  10.170
16195W        W81356  13.765  36.274   1.061
16196W        W81357  44.958  33.148   2.912
16197W        W81358  22.165   1.277  14.980
16198W        W81359  27.012  29.431  10.674
16199W        W81360   0.904  28.509   3.174
16200W        W81361  35.062  17.288   4.551
16201W        W81362  31.193  35.513  11.696
16202W        W81363  31.086  40.015   4.210
16203W        W81364  35.085  18.264   1.169
16204W        W81365  24.041  35.067  13.132
16205W        W81366   3.736   9.831  12.137
16206W        W81367  28.374  12.876  13.991
16207W        W81368  10.382  35.935   3.705
16208W        W81369  25.882  24.931   0.263
16209W        W81370  21.516  43.968  13.487
16210W        W81371  15.142  34.340   0.475
16211W        W81372  16.137  21.739  13.499
16212W        W81373  25.201  17.611   3.681
16213W        W81374   5.641  22.261   1.466
16214W        W81375  32.998  17.051   1.678
16215W        W81376   2.938   4.623   0.923
16216W        W81377  13.062  34.737   4.046
16217W        W81378  10.111  17.507  12.504
16218W        W81379  28.802  23.342   2.114
16219W        W81380  33.493   7.889   1.348
16220W        W81381  38.585  42.429   4.166
16221W        W81382   2.588  13.059  14.519
16222W        W81383  27.452   8.763  11.593
16223W        W81384   5.809  13.368  13.026
16224W        W81385   5.133  37.364   9.844
16225W        W81386  28.428  20.015   4.303
16226W        W81387   5.870  23.126  13.244
16227W        W81388  16.187  11.752   3.338
16228W        W81389  28.051  13.864  14.434
16229W        W81390  32.666  36.857   3.723
16230W        W81391  44.732  32.041  14.932
16231W        W81392   5.336   2.231  13.931
16232W        W81393  11.166  30.420  10.649
16233W        W81394  22.852  11.670   4.573
16234W        W81395  25.570  26.930  10.428
16235W        W81396  27.870  31.529  14.051
16236W        W81397  30.226  35.990   1.212
16237W        W81398  26.026  17.122   2.272
16238W        W81399  11.290  18.221  12.917
16239W        W81400  13.960  31.196   4.117
16240W        W81401  12.908  37.987   0.125
16241W        W81402  23.629  38.139   3.603
16242W        W81403  15.841  21.008  11.493
16243W        W81404  35.896  17.178   0.518
16244W        W81405  35.605  26.241  12.508
16245W        W81406  34.453  36.773  11.470
16246W        W81407  43.064  39.633   1.605
16247W        W81408  43.026  44.682   2.884
16248W        W81409  36.596  32.408  14.969
16249W        W81410  21.861   4.379  12.970
16250W        W81411  30.868  31.026  10.831
16251W        W81412  12.776  36.666  13.389
16252W        W81413  19.664  33.351   2.503
16253W        W81414   9.009  16.259   1.027
16254W        W81415  15.554   0.440  14.428
16255W        W81416  23.458  32.953  14.329
16256W        W81417  22.974  41.547  10.241
16257W        W81418  26.612  18.999   3.411
16258W        W81419  13.093  30.919   0.527
16259W        W81420  41.973  39.976  12.885
16260W        W81421  22.701   8.887  12.891
16261W        W81422  22.780  25.657   4.592
16262W        W81423  26.380  42.808  13.220
16263W        W81424  35.473  34.209   2.047
16264W        W81425  25.066  10.138  11.579
16265W        W81426   2.626  42.540  11.052
16266W        W81427  37.971  42.929   1.641
16267W        W81428  31.904  40.605   0.977
16268W        W81429  20.728  32.031  13.898
16269W        W81430  37.610   8.281   2.238
16270W        W81431  40.498  14.505   1.598
16271W        W81432   4.425   3.079   4.839
16272W        W81433  29.718  16.269   2.469
16273W        W81434   5.258  13.218   2.826
16274W        W81435  43.005  34.998   3.089
16275W        W81436  31.883  14.381   2.838
16276W        W81437  33.880   0.742   4.760
16277W        W81438  11.694  42.181   4.110
16278W        W81439   9.308  30.929  13.182
16279W        W81440  21.510   3.306  11.651
16280W        W81441   2.772   5.846  14.245
16281W        W81442  41.172  33.667  14.994
16282W        W81443  10.424  43.378  13.092
16283W        W81444   4.825   6.701  10.949
16284W        W81445  25.157   2.139   2.586
16285W        W81446  19.055  13.324  12.974
16286W        W81447  26.275  18.742   0.764
16287W        W81448  28.592  15.777   2.740
16288W        W81449  40.965  13.750  12.175
16289W        W81450  40.064  12.180   1.366
16290W        W81451  11.652  25.625   0.025
16291W        W81452  15.598  24.632   2.366
16292W        W81453  24.305  40.496  13.463
16293W        W81454  12.005  31.041   4.006
16294W        W81455  11.127  38.176  10.707
16295W        W81456  14.102  29.441   3.267
16296W        W81457  31.586  42.943   3.182
16297W        W81458  37.932   0.451   0.708
16298W        W81459  36.154   3.359   9.896
16299W        W81460  30.369  18.673  12.104
16300W        W81461  11.061  10.429   2.940
16301W        W81462  26.091  16.100  13.105
16302W        W81463  39.993   9.768   0.761
16303W        W81464  30.021  21.790   4.930
16304W        W81465  44.991  15.292   2.386
16305W        W81466   9.197  44.232   0.564
16306W        W81467  42.806   7.910  13.041
16307W        W81468   5.526  15.376   3.397
16308W        W81469  36.281  17.137  13.790
16309W        W81470  27.761   9.351   1.176
16310W        W81471  23.208  28.385   3.395
16311W        W81472  20.037  10.022   1.814
16312W        W81473  13.265   4.479  11.248
16313W        W81474  21.299  33.992   2.009
16314W        W81475  42.000  39.474   3.159
16315W        W81476   3.849   3.247   0.776
16316W        W81477  28.497  33.583   4.221
16317W        W81478   2.761  14.010   2.429
16318W        W81479  14.372  25.775  10.736
16319W        W81480   7.228  27.899   1.202
16320W        W81481  24.988  27.549   1.770
16321W        W81482  14.136  22.200   1.251
16322W        W81483   0.018   1.539  11.369
16323W        W81484  23.955  13.006  10.642
16324W        W81485  16.769  17.319  13.066
16325W        W81486  26.774   2.288  14.296
16326W        W81487  14.268  26.626  13.436
16327W        W81488  11.891  35.952  11.552
16328W        W81489   3.039  20.602  14.689
16329W        W81490  40.289  36.283  12.064
16330W        W81491  40.079  37.607  11.028
16331W        W81492  21.100  33.421   4.567
16332W        W81493   7.788   7.835  10.764
16333W        W81494  13.492  11.137  10.299
16334W        W81495  33.850  37.033  12.894
16335W        W81496  34.275  21.146   4.556
16336W        W81497  35.788  30.560   3.282
16337W        W81498  14.336  43.467  10.357
16338W        W81499  27.113  25.189   2.801
16339W        W81500  43.782  35.406  13.127
16340W        W81501   3.376  13.040   2.242
16341W        W81502   8.607  44.346   1.277
16342W        W81503   7.358   6.745   9.986
16343W        W81504  30.772  25.463  11.955
16344W        W81505  11.882  23.043   3.281
16345W        W81506  21.567  16.266   2.703
16346W        W81507  29.286  22.918   0.696
16347W        W81508  25.498   7.241   1.841
16348W        W81509  31.024  23.950  14.433
16349W        W81510  21.550  41.748   1.278
16350W        W81511  15.538  32.202  11.233
16351W        W81512  30.938   9.853  13.989
16352W        W81513  16.350   0.905  13.371
16353W        W81514   2.063  23.722   4.058
16354W        W81515   6.635  22.028   2.607
16355W        W81516   1.812  34.704  11.909
16356W        W81517  42.462   4.727   1.199
16357W        W81518   6.271  28.253   4.248
16358W        W81519  27.892   3.205   1.905
16359W        W81520   9.687  38.315   2.756
16360W        W81521  43.180   8.680   4.229
16361W        W81522  23.725  43.844   0.397
16362W        W81523  18.645  24.069  12.464
16363W        W81524  19.803  44.397   1.966
16364W        W81525  31.221  23.731   2.154
16365W        W81526   2.111  10.113   0.978
16366W        W81527  36.492  24.955   2.124
16367W        W81528  37.866  20.045   1.848
16368W        W81529  31.115  10.265  12.604
16369W        W81530  31.807  30.068  12.407
16370W        W81531  21.738  16.291  14.029
16371W        W81532  30.442  18.075   0.492
16372W        W81533  18.158  41.802  13.449
16373W        W81534  38.750  42.864   2.626
16374W        W81535  38.504  31.496  14.240
16375W        W81536  28.860  20.823   0.344
16376W        W81537  18.607  22.173  11.841
16377W        W81538  21.654  22.397   3.425
16378W        W81539  35.835  33.487   3.414
16379W        W81540   7.557   8.533  13.197
16380W        W81541  30.267  27.499   4.587
16381W        W81542  10.228  20.438   3.704
16382W        W81543  40.943  25.121   4.608
16383W        W81544   9.643   9.148  11.152
16384W        W81545   3.923  32.476  11.597
16385W        W81546  20.698  34.762   1.899
16386W        W81547   3.945  14.118   1.019
16387W        W81548  42.991   6.335   3.613
16388W        W81549  29.746  41.545   2.816
16389W        W81550  10.569  16.265   3.283
16390W        W81551  33.938   3.544  12.119
16391W        W81552  11.227   6.649   4.558
16392W        W81553   2.980   9.044   3.251
16393W        W81554  17.027  13.724  14.577
16394W        W81555  42.769  30.871  14.963
16395W        W81556   2.455   9.207   3.138
16396W        W81557   1.241  30.664   1.383
16397W        W81558  44.522  34.346   3.803
16398W        W81559  18.557  12.943   1.381
16399W        W81560  20.792  26.565  14.455
16400W        W81561  37.887  40.349  10.859
16401W        W81562  12.836  27.166   4.949
16402W        W81563  23.649  32.708  14.749
16403W        W81564   2.311   0.933  14.105
16404W        W81565   2.361   0.262  14.588
16405W        W81566   9.178   0.045  12.870
16406W        W81567   9.247  28.431   2.182
16407W        W81568  14.744   6.305  12.538
16408W        W81569  29.427  37.006  11.560
16409W        W81570  13.732  44.043   0.790
16410W        W81571  25.699  44.968   1.231
16411W        W81572   1.885  21.747  14.317
16412W        W81573  15.493  37.924   1.483
16413W        W81574  23.748  31.480   1.715
16414W        W81575  15.680  14.356  12.587
16415W        W81576  38.009  38.320   2.571
16416W        W81577  30.660  16.119   4.218
16417W        W81578   5.488   5.464  13.346
16418W        W81579  26.131  34.549  14.997
16419W        W81580  30.885  42.312  10.683
16420W        W81581  42.284   3.913  13.283
16421W        W81582  29.471  11.881   1.378
16422W        W81583  32.383  32.422   1.340
16423W        W81584  37.627  41.823   2.800
16424W        W81585  19.038  25.651  13.870
16425W        W81586  21.911  14.219  10.213
16426W        W81587  30.482  41.156  11.442
16427W        W81588  24.502  22.725  14.984
16428W        W81589  16.619   4.814   3.188
16429W        W81590  16.624  30.740  14.054
16430W        W81591  35.882   4.902  14.892
16431W        W81592  41.254  29.977  13.153
16432W        W81593  23.716  12.255  12.127
16433W        W81594  27.450  28.910  12.940
16434W        W81595  19.533  24.014  12.975
16435W        W81596  18.625  34.679   3.626
16436W        W81597  22.638  16.709  10.823
16437W        W81598  24.056   8.460  14.482
16438W        W81599   1.016   0.792  10.986
16439W        W81600  28.532   4.385   2.154
16440W        W81601  44.281   5.283   1.240
16441W        W81602  12.883  15.852   3.914
16442W        W81603  24.765  15.301   3.261
16443W        W81604  11.275   7.326   0.095
16444W        W81605  27.605  28.754   3.941
16445W        W81606  43.823   2.000  13.616
16446W        W81607  37.417  16.711  13.891
16447W        W81608   0.518  32.906   3.619
16448W        W81609  11.574  19.078   1.358
16449W        W81610  33.348   5.617   1.057
16450W        W81611  37.389   7.837   0.857
16451W        W81612  22.544  17.141  14.418
16452W        W81613  32.412  22.462  12.677
16453W        W81614   2.930  25.074  13.705
16454W        W81615   4.930  23.579  14.795
16455W        W81616  30.572  12.351   1.745
16456W        W81617  21.980  11.418   3.230
16457W        W81618   1.268   8.402  12.427
16458W        W81619  29.417  42.315   1.851
16459W        W81620  20.202  39.736   0.909
16460W        W81621  37.422   0.977   3.723
16461W        W81622  14.505  42.270  13.131
16462W        W81623   4.402  44.750   1.330
16463W        W81624  11.293  10.767   4.974
16464W        W81625  25.121  19.515  13.104
16465W        W81626   5.225  12.309   0.544
16466W        W81627  35.389  13.817   4.549
16467W        W81628  12.683  43.932  11.890
16468W        W81629   2.510  14.363  14.820
16469W        W81630  27.625  43.261   2.148
16470W        W81631  10.394  42.089   1.159
16471W        W81632  11.290   0.396   0.671
16472W        W81633  28.565  34.622  14.961
16473W        W81634   6.731  39.109   3.738
16474W        W81635  33.645   2.706   2.727
16475W        W81636  29.032  10.216  12.578
16476W        W81637  39.020  33.206   2.120
16477W        W81638  25.263  25.654   1.076
16478W        W81639  11.724  15.552   3.206
16479W        W81640  38.953  17.314   3.244
16480W        W81641   7.967  22.556   1.139
16481W        W81642  30.116   2.184   2.596
16482W        W81643   3.226  42.511   1.829
16483W        W81644  42.326  32.609  11.548
16484W        W81645  18.334  19.980  12.578
16485W        W81646  34.396  29.417   0.374
16486W        W81647  14.564  41.338  10.588
16487W        W81648  23.119   7.203   3.574
16488W        W81649   4.801   1.220   4.628
16489W        W81650  21.956  31.452  12.475
16490W        W81651  15.114  38.650  13.354
16491W        W81652  33.288  44.721   0.394
16492W        W81653  12.646   6.194  13.625
16493W        W81654  32.674   6.638  14.816
16494W        W81655  16.989  10.592  13.104
16495W        W81656  34.446  44.598   1.723
16496W        W81657  40.128  36.785  12.635
16497W        W81658  13.879  35.162   4.198
16498W        W81659  14.876  16.402   2.859
16499W        W81660  25.103  25.521   3.095
16500W        W81661  14.333  38.279  12.801
16501W        W81662   0.061   6.463   0.478
16502W        W81663  10.733  26.065   0.765
16503W        W81664  42.551  25.486  12.954
16504W        W81665  41.178  17.070   1.874
16505W        W81666  28.154  29.465  13.008
16506W        W81667  11.722   0.727  12.485
16507W        W81668   6.701  30.869  13.526
16508W        W81669  28.434   9.362   2.298
16509W        W81670  39.127   9.992  11.563
16510W        W81671  19.238  19.671   0.754
16511W        W81672  32.353   0.265  12.048
16512W        W81673  18.876  19.050  13.592
16513W        W81674   7.388  20.599  13.889
16514W        W81675  41.567   2.777  11.522
16515W        W81676  19.038   0.936  11.652
16516W        W81677  43.821   0.809   1.687
16517W        W81678   9.302  12.680   3.766
16518W        W81679  12.457  27.745  13.458
16519W        W81680  14.295  11.211  13.580
16520W        W81681   1.463  39.361  14.997
16521W        W81682  32.906  19.716   0.178
16522W        W81683  22.795  24.734   4.852
16523W        W81684  23.141   6.829  14.227
16524W        W81685  43.293  14.640  10.919
16525W        W81686   7.371   0.838  13.894
16526W        W81687  24.485   3.163   4.371
16527W        W81688  17.511  34.981  11.608
16528W        W81689  43.014  15.349   1.325
16529W        W81690  36.825   0.838  14.093
16530W        W81691  12.137  42.228  12.353
16531W        W81692  11.249  17.371   3.137
16532W        W81693  39.307  19.042  11.575
16533W        W81694  34.784  19.600   1.957
16534W        W81695  16.184  27.385   0.263
16535W        W81696   5.862   2.869   1.966
16536W        W81697  20.590  42.085  10.245
16537W        W81698  41.469  18.029   1.917
16538W        W81699  38.063   9.303   2.596
16539W        W81700  31.513  32.513  13.056
16540W        W81701  41.842  23.947  12.572
16541W        W81702  42.239  13.774   4.640
16542W        W81703  12.454  40.335   0.210
16543W        W81704  36.984  16.282  14.552
16544W        W81705  12.815  43.705  13.881
16545W        W81706  38.637  25.425   1.886
16546W        W81707  38.097  31.900   4.591
16547W        W81708  28.621   8.772  13.632
16548W        W81709  24.111   5.690  12.972
16549W        W81710  27.938  11.498  13.766
16550W        W81711  30.661   1.851   4.442
16551W        W81712  16.271  38.293   5.633
16552W        W81713   1.808  10.065  11.606
16553W        W81714   6.420  36.987   3.188
16554W        W81715  42.371  22.230   3.515
16555W        W81716  41.516   3.953  13.820
16556W        W81717   5.278  11.814   2.270
16557W        W81718   1.429   8.478  14.908
16558W        W81719  30.516  27.929  13.565
16559W        W81720  17.644  28.107   1.984
16560W        W81721  13.597  23.425  14.996
16561W        W81722   9.727   3.939   4.180
16562W        W81723  16.200  33.335  11.494
16563W        W81724  22.534  39.074   0.873
16564W        W81725   4.439   4.451   4.606
16565W        W81726  11.305  23.726  12.938
16566W        W81727  40.162   5.276   3.641
16567W        W81728  25.203   5.881  12.584
16568W        W81729   7.336   8.637   0.847
16569W        W81730   7.157   5.008   2.759
16570W        W81731  26.818  11.972  11.098
16571W        W81732   8.269  17.594  10.622
16572W        W81733  19.034  10.742  13.830
16573W        W81734  22.601  43.711  14.503
16574W        W81735   4.773  21.064   2.349
16575W        W81736  35.918  26.673   4.448
16576W        W81737  34.051   0.021  14.020
16577W        W81738  14.186  17.614   2.806
16578W        W81739  42.577  32.724  12.989
16579W        W81740  38.015  41.155   4.188
16580W        W81741  10.632   8.618   0.406
16581W        W81742  37.174   6.934  13.422
16582W        W81743  21.535  38.810   0.775
16583W        W81744   7.232  25.121   3.770
16584W        W81745  43.526  12.907  10.442
16585W        W81746   0.150  31.883  11.556
16586W        W81747  33.448  29.437   4.596
16587W        W81748  42.308  14.882   0.864
16588W        W81749  14.433  25.965  14.062
16589W        W81750  15.118  28.068  13.898
16590W        W81751  32.783  36.859  11.051
16591W        W81752  32.366  12.704  12.937
16592W        W81753   1.745  21.721  11.220
16593W        W81754   7.427   6.467  12.449
16594W        W81755  44.840  30.640  14.444
16595W        W81756  12.647   2.234   3.711
16596W        W81757  31.983  14.153   1.708
16597W        W81758  37.390  32.648   2.153
16598W        W81759  25.030   4.275  14.966
16599W        W81760   1.280  13.756   1.662
16600W        W81761  28.368  23.593   1.705
16601W        W81762  20.179   8.336  12.688
16602W        W81763  21.279   8.021  12.095
16603W        W81764  12.441  23.025   2.221
16604W        W81765   5.924  17.766   1.241
16605W        W81766  27.862  38.102  14.763
16606W        W81767  44.949  18.037  14.654
16607W        W81768   2.269  17.744  14.643
16608W        W81769  12.238  40.847   1.146
16609W        W81770  10.324  27.164   4.091
16610W        W81771  30.373   6.007   3.711
16611W        W81772  15.302  26.408  14.344
16612W        W81773  38.357   2.277  11.002
16613W        W81774  40.725  34.990  10.896
16614W        W81775  42.076   5.275   0.833
16615W        W81776  25.808  37.525   0.002
16616W        W81777  37.410  24.151   3.709
16617W        W81778  14.773  35.002   3.031
16618W        W81779  18.180  39.563   0.013
16619W        W81780   2.671  43.492   0.149
16620W        W81781  42.982  39.555   2.372
16621W        W81782  23.036  21.361   3.656
16622W        W81783  14.349  35.955  13.903
16623W        W81784  25.226  34.908  11.434
16624W        W81785   0.714  18.671  13.748
16625W        W81786  31.977  15.858  14.474
16626W        W81787  43.375  10.892  12.672
16627W        W81788   6.386  32.298  10.719
16628W        W81789  25.651  29.452  13.755
16629W        W81790   4.822  14.271   4.987
16630W        W81791   1.710  15.846  13.929
16631W        W81792   8.334  27.935   0.532
16632W        W81793  27.581   4.566  14.931
16633W        W81794  23.551  14.762   5.070
16634W        W81795   5.657   7.204  14.588
16635W        W81796  35.746   4.881   0.877
16636W        W81797  39.955  42.872   4.169
16637W        W81798  32.564  18.277  12.022
16638W        W81799  14.758  11.222  11.672
16639W        W81800  43.786  22.174   0.090
16640W        W81801   7.206  20.174   1.818
16641W        W81802  16.778   0.944   2.194
16642W        W81803  19.021  13.071   3.211
16643W        W81804  40.432  41.560  12.482
16644W        W81805  39.874  35.512  12.919
16645W        W81806   6.124   8.298  11.539
16646W        W81807  20.096  21.010   0.099
16647W        W81808  36.553   3.223  11.589
16648W        W81809   6.220  31.387  12.524
16649W        W81810  12.340  23.599  14.494
16650W        W81811  20.365  19.162   4.551
16651W        W81812  17.836  34.360   2.093
16652W        W81813  35.551  32.889  11.503
16653W        W81814  30.607  42.781   5.137
16654W        W81815  43.580  20.017   1.715
16655W        W81816  26.624  30.186   1.273
16656W        W81817  32.416  28.947  13.455
16657W        W81818   0.404  17.429   4.601
16658W        W81819  32.427  33.924  10.704
16659W        W81820  29.753  40.932   1.802
16660W        W81821  22.969  34.546  13.297
16661W        W81822  35.436   7.296  10.550
16662W        W81823   0.494  14.368   4.414
16663W        W81824  37.348  17.216   3.890
16664W        W81825   8.205  29.874   0.169
16665W        W81826  32.871  16.519  11.231
16666W        W81827   3.346  38.288   4.963
16667W        W81828  39.969  25.199   3.625
16668W        W81829   2.147  25.643  10.307
16669W        W81830  14.196  42.169   3.979
16670W        W81831  18.559  12.633   2.209
16671W        W81832  14.723  17.182  10.651
16672W        W81833  11.268  35.808   0.056
16673W        W81834  18.446  43.305  12.011
16674W        W81835  30.561   1.948  11.674
16675W        W81836   0.762  15.526  13.882
16676W        W81837  39.058   8.724   4.559
16677W        W81838  14.302  12.354  14.402
16678W        W81839  26.377  11.409  14.542
16679W        W81840  13.052  20.229  14.829
16680W        W81841   3.381  14.923  14.811
16681W        W81842  32.320   4.308  13.667
16682W        W81843  32.632   6.198   4.028
16683W        W81844  13.661  33.584   0.463
16684W        W81845  25.400  35.897  13.446
16685W        W81846   4.795  42.941  13.898
16686W        W81847   2.776  35.608   2.331
16687W        W81848  37.676  42.827  11.946
16688W        W81849   1.519  18.510   0.339
16689W        W81850  10.163  13.839  11.963
16690W        W81851  16.103   9.121  11.173
16691W        W81852   6.829  35.997   0.358
16692W        W81853   4.649   1.286  14.421
16693W        W81854  32.364   9.330  12.913
16694W        W81855  18.787  19.098   2.848
16695W        W81856  44.174   1.171  11.902
16696W        W81857  15.161  44.719   2.868
16697W        W81858   4.115  33.358   0.835
16698W        W81859   8.143  21.241  13.149
16699W        W81860  36.949  10.311   1.843
16700W        W81861   3.956  24.723  11.945
16701W        W81862   6.445  44.813   4.082
16702W        W81863  27.193  18.180   4.719
16703W        W81864  19.088   9.463   4.315
16704W        W81865  16.055  37.386   3.245
16705W        W81866  10.851  19.063  14.802
16706W        W81867  18.322  30.300   2.255
16707W        W81868  18.848   3.400  11.218
16708W        W81869  33.381  13.178  13.865
16709W        W81870  24.078  27.021  13.443
16710W        W81871  26.410  19.249   4.131
16711W        W81872  28.246  13.581  11.637
16712W        W81873  25.551  42.920  11.452
16713W        W81874   4.876  15.309   2.379
16714W        W81875  28.978   1.874  11.123
16715W        W81876  10.819  44.905  12.033
16716W        W81877  28.172   8.180  11.892
16717W        W81878  35.912   9.822   0.276
16718W        W81879  35.815  44.434   3.637
16719W        W81880   7.410  18.091  11.925
16720W        W81881  24.480  12.335  10.589
16721W        W81882  16.570  20.225   4.078
16722W        W81883   4.770   8.273   4.594
16723W        W81884   0.086  29.470  12.432
16724W        W81885   6.585   9.676   4.175
16725W        W81886   7.585   3.342   3.787
16726W        W81887   4.465   5.697  11.568
16727W        W81888  36.812  20.912   0.721
16728W        W81889  38.816   5.745   2.370
16729W        W81890  36.615  37.781   0.345
16730W        W81891  41.390  26.950   1.217
16731W        W81892  33.112  21.241  13.744
16732W        W81893  11.309  23.754   1.736
16733W        W81894  16.970  19.310  14.794
16734W        W81895  38.078   4.232   2.412
16735W        W81896  44.361  35.999   0.756
16736W        W81897  29.484  16.981  11.872
16737W        W81898  40.599  18.361   3.124
16738W        W81899  17.337  30.263  12.567
16739W        W81900  41.676   4.399   3.296
16740W        W81901  38.336  26.208   3.210
16741W        W81902   9.878  15.670  14.647
16742W        W81903   8.486  11.524  12.010
16743W        W81904  18.264  38.494   1.580
16744W        W81905  28.014  27.001  10.668
16745W        W81906  38.862   4.679  11.097
16746W        W81907  44.969  39.500  13.855
16747W        W81908  20.223  27.023  12.804
16748W        W81909   1.050  30.998  11.109
16749W        W81910  39.752  35.768   1.700
16750W        W81911  44.967  20.177  10.617
16751W        W81912  44.809  23.713  12.705
16752W        W81913   4.894  21.464  13.022
16753W        W81914  38.050   1.809   4.687
16754W        W81915  19.190  38.831   4.906
16755W        W81916  33.007  31.773   2.499
16756W        W81917   6.407  31.064  12.916
16757W        W81918  19.177   2.441   2.923
16758W        W81919  42.306  11.080   3.748
16759W        W81920  38.886  31.776   4.090
16760W        W81921   8.937  27.471   4.460
16761W        W81922  10.900  40.441   0.327
16762W        W81923  25.603   1.214  13.762
16763W        W81924  19.830  39.263  10.533
16764W        W81925  42.895  33.958   2.930
16765W        W81926  15.133  13.846  13.776
16766W        W81927   4.918   4.907   2.612
16767W        W81928  40.368  41.017   3.670
16768W        W81929   7.811  10.261   3.062
16769W        W81930  16.519  42.023   5.095
16770W        W81931  15.610   4.403   2.446
16771W        W81932   1.877  41.395  13.861
16772W        W81933  43.471  22.039   2.850
16773W        W81934  21.630  33.803   3.996
16774W        W81935  40.432  11.345  13.455
16775W        W81936  14.843  31.182   2.099
16776W        W81937  44.345   4.542  12.492
16777W        W81938   0.721  22.392  10.013
16778W        W81939  24.792  43.387   0.012
16779W        W81940   0.027  29.171  12.854
16780W        W81941  30.352  28.764   1.404
16781W        W81942  32.121  37.882   0.787
16782W        W81943  37.543  11.856  14.630
16783W        W81944  21.008  15.840  10.205
16784W        W81945  41.663  10.657   3.309
16785W        W81946  15.914  42.772  14.204
16786W        W81947   9.225  43.292  10.545
16787W        W81948  13.335  21.745   2.929
16788W        W81949  21.330  21.721   9.692
16789W        W81950  37.207   6.912  14.429
16790W        W81951  12.825  25.467   1.809
16791W        W81952  33.413   0.074   5.116
16792W        W81953   1.866   7.869  14.391
16793W        W81954  13.717  33.839   4.575
16794W        W81955   6.970  22.121   1.738
16795W        W81956  20.473  23.188  13.352
16796W        W81957   6.259  40.461   2.495
16797W        W81958   3.939   6.628   3.757
16798W        W81959  20.007  29.642  10.690
16799W        W81960  21.679   9.870  14.934
16800W        W81961  29.984  10.115   2.807
16801W        W81962   6.175  26.623  13.573
16802W        W81963   0.444   5.170   0.314
16803W        W81964  19.620  14.257   4.559
16804W        W81965  44.925  33.404  11.541
16805W        W81966   9.641  33.760  14.034
16806W        W81967  28.693  19.116  13.512
16807W        W81968  23.880  27.348   2.816
16808W        W81969  23.191   5.585  14.950
16809W        W81970  12.174  44.042   4.307
16810W        W81971   3.261  22.094   4.114
16811W        W81972  21.232  18.234   1.879
16812W        W81973  35.351   4.236  10.350
16813W        W81974   6.659   0.961  13.446
16814W        W81975  12.474  40.880  11.536
16815W        W81976  38.877  32.798  12.497
16816W        W81977   5.719  21.098   2.251
16817W        W81978  17.846  25.081   0.228
16818W        W81979  27.630  25.011   3.618
16819W        W81980  42.654  10.913   3.034
16820W        W81981  42.394  14.281   1.372
16821W        W81982  25.667  17.676   3.386
16822W        W81983   3.640  44.218  12.943
16823W        W81984   0.313   6.940   3.568
16824W        W81985  29.412  10.547   4.964
16825W        W81986  43.357  43.416  11.938
16826W        W81987  17.990  27.197  12.486
16827W        W81988   8.019  36.642   4.109
16828W        W81989  11.632  32.065   0.710
16829W        W81990  13.564  21.306   3.243
16830W        W81991  38.142   0.005   0.850
16831W        W81992  37.572   9.654   3.736
16832W        W81993  39.039  12.535  11.039
16833W        W81994  21.751  18.041  12.475
16834W        W81995  38.610  34.543   1.394
16835W        W81996  26.442  27.394   2.812
16836W        W81997  33.411  12.082  12.505
16837W        W81998  38.061  17.861   2.392
16838W        W81999  18.329  40.174  11.698
16839W        W82000  40.587  27.565  14.000
16840W        W82001  12.868   5.411   1.045
16841W        W82002  17.969  10.772  11.979
16842W        W82003  17.230  13.560   0.832
16843W        W82004   4.155  43.239  13.332
16844W        W82005   8.015   7.663  14.692
16845W        W82006  23.040  10.120   3.123
16846W        W82007  41.381  11.189   0.972
16847W        W82008   1.438  19.331   1.814
16848W        W82009  43.121   5.549   4.837
16849W        W82010  31.858  20.010  11.493
16850W        W82011  13.144   7.863   0.796
16851W        W82012  13.317  40.368  13.298
16852W        W82013  13.366   4.158   0.949
16853W        W82014  23.694   4.671   0.922
16854W        W82015   7.705   8.879  11.888
16855W        W82016   2.457  27.783  13.366
16856W        W82017  22.220   1.691   1.304
16857W        W82018  13.358   0.400   4.313
16858W        W82019  40.524   2.221  10.810
16859W        W82020   8.761  30.493  12.562
16860W        W82021  11.181  33.587  11.685
16861W        W82022  26.908  22.306  11.069
16862W        W82023  23.057  39.367   0.240
16863W        W82024  14.696  38.588  13.937
16864W        W82025   9.229  44.205   3.720
16865W        W82026   5.404  29.117   2.465
16866W        W82027  23.570  10.553  13.588
16867W        W82028   2.395  13.876  10.684
16868W        W82029  29.208  15.339  13.536
16869W        W82030   3.748   2.760   0.894
16870W        W82031  28.093  21.760   1.237
16871W        W82032  36.505  41.963   1.819
16872W        W82033  19.581  27.190   2.847
16873W        W82034  19.643  14.610  10.690
16874W        W82035  14.789  14.114  14.066
16875W        W82036  38.414  23.550   3.670
16876W        W82037  35.703  21.975   2.601
16877W        W82038  28.620  44.417  13.562
16878W        W82039   7.117  30.975  14.925
16879W        W82040  34.457  42.933   1.769
16880W        W82041  22.818  43.008   0.220
16881W        W82042  39.859  21.994  14.908
16882W        W82043  32.656  24.064  10.924
16883W        W82044  26.778  28.652  13.950
16884W        W82045  41.744   3.257   0.837
16885W        W82046  38.739  41.656   1.407
16886W        W82047  14.084  26.473   4.532
16887W        W82048  13.151  34.449   0.402
16888W        W82049   0.435  13.670   1.691
16889W        W82050  16.139  18.105  12.787
16890W        W82051  28.210  41.751   2.817
16891W        W82052  12.583  22.457  13.082
16892W        W82053  41.443   4.915  14.288
16893W        W82054  29.976  39.431  13.737
16894W        W82055  36.916  30.527  13.904
16895W        W82056  14.707  26.342  13.403
16896W        W82057  15.634  11.793   4.201
16897W        W82058  36.491  41.869  12.525
16898W        W82059  38.549   9.447   0.351
16899W        W82060  28.184  27.924   3.089
16900W        W82061   5.188  44.774  14.410
16901W        W82062  36.920  15.368  14.538
16902W        W82063  43.021   7.098  13.366
16903W        W82064  20.110  26.234   4.721
16904W        W82065  18.583  37.398   1.247
16905W        W82066  11.329  38.679  10.739
16906W        W82067  29.104  37.423   2.936
16907W        W82068  10.826  29.916  11.899
16908W        W82069  23.836  17.596   4.750
16909W        W82070  32.022  43.919  14.887
16910W        W82071   5.487  18.046   3.384
16911W        W82072  16.877  10.138   1.268
16912W        W82073  29.965  30.890  14.410
16913W        W82074  28.347  33.865   3.662
16914W        W82075  14.269  24.758  10.811
16915W        W82076  36.602  37.366  13.773
16916W        W82077  22.616  27.700  14.936
16917W        W82078  29.808   3.856   4.763
16918W        W82079  37.576   3.883   4.180
16919W        W82080   3.738   5.960  11.884
16920W        W82081   6.234  30.563  11.379
16921W        W82082  24.509  24.729   4.155
16922W        W82083  31.708   8.747   0.122
16923W        W82084   6.906  29.197   9.520
16924W        W82085  26.171   8.214  14.111
16925W        W82086  22.778  40.473   2.870
16926W        W82087  11.907  38.476  11.997
16927W        W82088  30.647   0.491  14.904
16928W        W82089  42.294  36.856   0.368
16929W        W82090  33.467  41.605  13.136
16930W        W82091   7.132  35.527  14.980
16931W        W82092  32.634   1.974   4.477
16932W        W82093  43.926   8.117   0.553
16933W        W82094  30.902  32.673  11.973
16934W        W82095   7.182  10.363  10.326
16935W        W82096  44.044   8.233  11.991
16936W        W82097  33.948  42.411   3.111
16937W        W82098  34.566   6.202  10.990
16938W        W82099  20.462  41.115   2.444
16939W        W82100  19.358  23.611  14.262
16940W        W82101  11.596   0.723  13.441
16941W        W82102  12.031  22.466  12.978
16942W        W82103  19.648  34.377   2.504
16943W        W82104   8.084   1.671   4.299
16944W        W82105  32.852  24.956  14.853
16945W        W82106  34.961  27.098   2.301
16946W        W82107   0.491  25.266  12.941
16947W        W82108  36.838  43.838  11.044
16948W        W82109  31.465  44.437  11.526
16949W        W82110  11.235  29.494   2.242
16950W        W82111  44.036  44.346   4.290
16951W        W82112  24.865   4.947   1.877
16952W        W82113  24.673  31.470  13.483
16953W        W82114  39.788  38.152  14.932
16954W        W82115   4.852  15.755  14.864
16955W        W82116  42.786  15.080   1.728
16956W        W82117  10.230  29.152   4.352
16957W        W82118  14.899  40.874   4.483
16958W        W82119   4.446   1.887   2.388
16959W        W82120   7.385   7.188   1.775
16960W        W82121  44.339   2.398   1.956
16961W        W82122  37.105  39.327  11.589
16962W        W82123  36.236  31.408   3.433
16963W        W82124  39.333  25.956   0.061
16964W        W82125  29.699  44.544  14.583
16965W        W82126   9.165   4.822   4.040
16966W        W82127  33.959  10.368  12.965
16967W        W82128  22.204  36.321  11.540
16968W        W82129  38.894   9.109  11.077
16969W        W82130  27.636  16.907   3.378
16970W        W82131   6.490  22.763  12.137
16971W        W82132   7.253  36.653  11.219
16972W        W82133  19.551  39.806  11.124
16973W        W82134  42.841  33.404  14.757
16974W        W82135  25.457  41.314  12.455
16975W        W82136  30.608  39.401   1.933
16976W        W82137  32.542  27.464   3.576
16977W        W82138  42.842   9.649   4.413
16978W        W82139  31.935  18.522  11.907
16979W        W82140  11.673  17.016  14.266
16980W        W82141  32.514   6.214  11.105
16981W        W82142  14.101  34.084   4.859
16982W        W82143  41.312   2.752  10.695
16983W        W82144  23.627  26.697  14.728
16984W        W82145  22.065  13.846   3.144
16985W        W82146  18.640   5.979  13.380
16986W        W82147  25.474  23.731   2.280
16987W        W82148  39.151  16.785  10.825
16988W        W82149  10.830  31.931  10.668
16989W        W82150  28.259  29.960  12.954
16990W        W82151  27.714   1.020   1.783
16991W        W82152  21.094  40.594  13.941
16992W        W82153  43.929   9.166   2.746
16993W        W82154   0.965  19.777   0.666
16994W        W82155  24.548  44.194   2.259
16995W        W82156  32.222  34.977   2.814
16996W        W82157  11.383  31.502   2.674
16997W        W82158  42.054   1.031  11.164
16998W        W82159  34.587  19.053  13.830
16999W        W82160  44.697   0.025   3.270
17000W        W82161  32.581  42.359  11.840
17001W        W82162  29.139  32.683   4.106
17002W        W82163  37.887   2.712  12.085
17003W        W82164  34.308  36.199  14.498
17004W        W82165  35.433  15.455  12.601
17005W        W82166  24.642   3.942   0.092
17006W        W82167  29.254  38.810   3.124
17007W        W82168  44.156  29.861  13.352
17008W        W82169   3.807  19.329  11.532
17009W        W82170  11.026  24.706   0.896
17010W        W82171  15.993  17.007   9.785
17011W        W82172  35.936   8.185  14.325
17012W        W82173   8.165  24.689  14.132
17013W        W82174  38.402  18.214   0.251
17014W        W82175  43.521  10.631   2.674
17015W        W82176  31.423  39.753  12.614
17016W        W82177  40.594  18.815  14.792
17017W        W82178   9.379  22.065  12.850
17018W        W82179  40.497  24.405  10.993
17019W        W82180  15.779   0.997  11.964
17020W        W82181  13.637  41.835   2.122
17021W        W82182  38.791  43.887  11.105
17022W        W82183  18.090   3.489   0.693
17023W        W82184   6.762  13.598  12.580
17024W        W82185  27.227  33.963  13.904
17025W        W82186   7.225   8.687   0.301
17026W        W82187  21.618   8.584   2.267
17027W        W82188  10.644  27.587   3.686
17028W        W82189  13.710  13.308   1.253
17029W        W82190   3.900  18.157  13.816
17030W        W82191  28.574  36.455   4.182
17031W        W82192  10.538  35.464   3.609
17032W        W82193  38.306   2.349   2.183
17033W        W82194   0.230   4.544  12.163
17034W        W82195   4.193  17.979  10.856
17035W        W82196  26.706  26.049   1.248
17036W        W82197  15.753  33.465   4.132
17037W        W82198  38.614  15.068   1.365
17038W        W82199  20.556   1.491  14.808
17039W        W82200  25.207  21.744  10.204
17040W        W82201   5.470  21.527  12.405
17041W        W82202  13.646  30.218   3.316
17042W        W82203  20.326  30.518  13.525
17043W        W82204  28.177  40.378  11.419
17044W        W82205  22.261  31.353  11.535
17045W        W82206  44.505  15.720   1.755
17046W        W82207  23.643  25.388   2.791
17047W        W82208  36.398  31.147  14.449
17048W        W82209  36.406  28.137  12.002
17049W        W82210  40.371  42.984  11.449
17050W        W82211  13.310  28.715  13.332
17051W        W82212  44.650   3.768   3.130
17052W        W82213  24.148   0.884   2.139
17053W        W82214  20.754  39.103  13.541
17054W        W82215  14.623  33.971   2.383
17055W        W82216  22.258  35.526   0.723
17056W        W82217  40.697  37.950   3.098
17057W        W82218   3.763  21.768   2.704
17058W        W82219   5.090  12.091   4.224
17059W        W82220   7.302   0.627   5.070
17060W        W82221  40.838  32.410  12.319
17061W        W82222  18.368  36.760   4.646
17062W        W82223  28.120  10.907   3.791
17063W        W82224   2.888  21.494   4.091
17064W        W82225  18.697  23.866   1.460
17065W        W82226  33.487  35.367  14.841
17066W        W82227  13.511  19.747   2.677
17067W        W82228  10.716  39.307  11.499
17068W        W82229  34.313  29.676   1.791
17069W        W82230  21.272   6.759  13.120
17070W        W82231  25.448  13.584   0.871
17071W        W82232  18.172   5.424   4.594
17072W        W82233  32.347  23.715  12.527
17073W        W82234  26.215  41.797  11.123
17074W        W82235  42.601  12.696   2.804
17075W        W82236   3.674  30.409  12.960
17076W        W82237  44.755  11.488   0.878
17077W        W82238  12.247  20.630  14.687
17078W        W82239  31.916   3.058   2.703
17079W        W82240  28.211  20.470  11.577
17080W        W82241  22.415  23.830  12.622
17081W        W82242  10.537  19.992   3.695
17082W        W82243  33.854  22.595   0.846
17083W        W82244  41.007  12.888   0.949
17084W        W82245  36.397  34.901  13.021
17085W        W82246  15.206  42.939  11.621
17086W        W82247   2.403  13.383   1.307
17087W        W82248  30.064  36.626   4.641
17088W        W82249  15.881  29.583  14.547
17089W        W82250  43.254  22.838   4.742
17090W        W82251  24.886  35.231   4.956
17091W        W82252  30.992  43.312   4.502
17092W        W82253   6.819  21.382  14.052
17093W        W82254   7.723  28.279  14.423
17094W        W82255  30.921  40.120   0.025
17095W        W82256   9.276  22.536  13.698
17096W        W82257  28.448  22.018   2.927
17097W        W82258  12.615  18.877  13.192
17098W        W82259  16.727  19.132   0.756
17099W        W82260   2.796  35.404  14.831
17100W        W82261   1.047   4.920   0.936
17101W        W82262  42.320  35.079  14.569
17102W        W82263  44.334  25.047  11.661
17103W        W82264   3.054  19.077  14.954
17104W        W82265  41.306  43.881   3.658
17105W        W82266  40.824  28.429   0.227
17106W        W82267  15.907   0.304  11.697
17107W        W82268  17.781   2.657  11.377
17108W        W82269  26.556   2.731  14.500
17109W        W82270  21.725  15.044   3.245
17110W        W82271  15.701   5.540  10.508
17111W        W82272  21.786   5.288  12.617
17112W        W82273   3.911  28.926  11.960
17113W        W82274  42.780  40.294  13.721
17114W        W82275  39.618  43.495  10.374
17115W        W82276  29.480   1.538   2.581
17116W        W82277  15.132  42.129  12.838
17117W        W82278  24.496  36.257  10.727
17118W        W82279  21.201  23.208  12.618
17119W        W82280  16.100  11.428   1.266
17120W        W82281  15.710  16.776   1.781
17121W        W82282  18.742   6.155   3.643
17122W        W82283  23.662  27.141   4.608
17123W        W82284  23.697  20.197   1.186
17124W        W82285  25.598   8.811   0.938
17125W        W82286  39.570  25.181   2.489
17126W        W82287  28.127  29.440   3.575
17127W        W82288   3.656  42.410   4.195
17128W        W82289  23.328  16.321   0.181
17129W        W82290  12.223  25.474  14.057
17130W        W82291   2.721  27.542  10.781
17131W        W82292  14.604  21.478   3.220
17132W        W82293  32.777  11.252   0.704
17133W        W82294  44.311  32.306   0.811
17134W        W82295  15.313  29.408  11.706
17135W        W82296  13.592  33.042   2.879
17136W        W82297   2.014  17.315   3.287
17137W        W82298   1.285   9.400   3.619
17138W        W82299  18.009  22.290   2.193
17139W        W82300  30.102  14.648   3.475
17140W        W82301  19.186  21.698  14.906
17141W        W82302   6.754  22.387   2.186
17142W        W82303  15.798  16.342  11.116
17143W        W82304  35.677  12.735  12.444
17144W        W82305  23.695  16.493  12.867
17145W        W82306  31.863  12.704   2.316
17146W        W82307  29.886   5.313  11.567
17147W        W82308  29.131  14.273  13.887
17148W        W82309  32.667  44.028  11.306
17149W        W82310  16.597   0.494  10.729
17150W        W82311  25.107  37.106  11.119
17151W        W82312  26.988  36.166   4.057
17152W        W82313   4.324  32.902   1.063
17153W        W82314  18.343  12.109  14.066
17154W        W82315  28.432  37.318  13.863
17155W        W82316  24.844   7.176  12.406
17156W        W82317  37.853  34.309   4.194
17157W        W82318  39.205  27.747  11.123
17158W        W82319  22.736   6.876   0.655
17159W        W82320  11.119   8.807   3.166
17160W        W82321   5.347   7.847  14.025
17161W        W82322  19.393  38.015   0.219
17162W        W82323   3.873   3.980   1.436
17163W        W82324  40.179  44.318  14.604
17164W        W82325  41.766  13.390  14.913
17165W        W82326  35.522  12.493   4.162
17166W        W82327   2.509  38.794  12.701
17167W        W82328  38.944   3.232  14.800
17168W        W82329  43.910  23.351  12.267
17169W        W82330  40.948  34.085  13.820
17170W        W82331   5.574  17.809  14.727
17171W        W82332   1.824  25.180  12.636
17172W        W82333  13.506   6.863   4.294
17173W        W82334  36.572  11.396   1.231
17174W        W82335  21.696   4.343  14.650
17175W        W82336  37.185   2.959   1.933
17176W        W82337  25.309   6.379  11.665
17177W        W82338  24.120  29.492   3.311
17178W        W82339  31.413  27.705  12.147
17179W        W82340  22.428  40.183  13.028
17180W        W82341  14.283   1.917  11.150
17181W        W82342  23.701  35.960  14.906
17182W        W82343  34.926  35.632  12.856
17183W        W82344  21.451  34.755  13.052
17184W        W82345   4.884  40.272  13.063
17185W        W82346   5.631  25.500  13.988
17186W        W82347   7.388  30.102   2.731
17187W        W82348  35.732   0.723   0.433
17188W        W82349  39.862  13.096  12.015
17189W        W82350  32.635  29.995  13.423
17190W        W82351  14.309  41.905   3.194
17191W        W82352  36.623   4.882  13.416
17192W        W82353  34.906  33.186   4.581
17193W        W82354  43.508   2.079   4.131
17194W        W82355  35.124  44.167  12.924
17195W        W82356  36.313  21.488  12.354
17196W        W82357   2.502  34.653  10.875
17197W        W82358  28.226  13.678   3.541
17198W        W82359  17.631  21.694   3.790
17199W        W82360  31.892  26.923  13.559
17200W        W82361  10.893  10.191   4.191
17201W        W82362   1.867  24.129  12.542
17202W        W82363  24.959  11.587   1.398
17203W        W82364   5.284  40.720  10.627
17204W        W82365   2.793   1.802   4.781
17205W        W82366   9.140   4.694  13.024
17206W        W82367   9.247  21.128  13.144
17207W        W82368  16.231   3.726  10.575
17208W        W82369  11.518  17.984  11.149
17209W        W82370  38.462  35.915  14.270
17210W        W82371  14.290   1.238  12.418
17211W        W82372   6.326  27.713  14.407
17212W        W82373  26.421  33.932   2.348
17213W        W82374  20.831  25.481  11.728
17214W        W82375  10.364   1.696   3.108
17215W        W82376  32.448  20.709  11.159
17216W        W82377   7.553  12.017   0.425
17217W        W82378  13.247   2.591   1.401
17218W        W82379   4.664  34.576   3.343
17219W        W82380  37.538  31.680  12.046
17220W        W82381  25.176  30.712  12.858
17221W        W82382  23.554  27.572   3.347
17222W        W82383   6.356  40.314   1.501
17223W        W82384  11.380  13.028   1.709
17224W        W82385  26.605   4.765  13.370
17225W        W82386   8.412  43.504   0.315
17226W        W82387   1.891  33.066   4.196
17227W        W82388   9.914  28.521  14.815
17228W        W82389  32.989  41.853   2.265
17229W        W82390   5.700  29.629  12.512
17230W        W82391  38.790  35.018  13.375
17231W        W82392  22.322  10.791  14.440
17232W        W82393  21.930  36.444  14.834
17233W        W82394  18.792  18.330   4.708
17234W        W82395  18.071  28.674   2.759
17235W        W82396  10.509  13.443  11.947
17236W        W82397   7.939  43.034   0.902
17237W        W82398  29.484  37.043   2.720
17238W        W82399  18.024   0.990   3.654
17239W        W82400  19.981  29.610   0.809
17240W        W82401  33.908   5.498  11.939
17241W        W82402  31.705  12.459   0.401
17242W        W82403  21.304  30.663   3.245
17243W        W82404  33.859  13.631   0.515
17244W        W82405  33.291  10.305   1.246
17245W        W82406  12.752   3.820  10.803
17246W        W82407  33.827  31.926   0.942
17247W        W82408  30.401  27.992   3.773
17248W        W82409  29.632   6.709   1.332
17249W        W82410  17.205  14.186  13.983
17250W        W82411   6.149   4.986  13.597
17251W        W82412  24.173  13.241  11.960
17252W        W82413   7.263   3.204   4.199
17253W        W82414  16.855   1.703   1.885
17254W        W82415  42.994  25.171  14.821
17255W        W82416   2.189   4.338   2.925
17256W        W82417  12.254  27.169  10.880
17257W        W82418  19.056  31.501   3.109
17258W        W82419  25.412  39.333  11.539
17259W        W82420  22.397  21.307   3.618
17260W        W82421  14.463  36.678   2.557
17261W        W82422  17.479  43.307  13.007
17262W        W82423  33.349  15.077   2.441
17263W        W82424  30.912  40.844  13.761
17264W        W82425  23.657  20.211   0.245
17265W        W82426  13.465  21.600  11.634
17266W        W82427   2.846   1.327  11.267
17267W        W82428  37.307  32.049   0.851
17268W        W82429  36.980  30.917   2.704
17269W        W82430  22.335  25.510  13.528
17270W        W82431  44.162  42.422  10.689
17271W        W82432   0.294  21.712  13.917
17272W        W82433  31.667  39.917  12.208
17273W        W82434  31.022   9.778  12.901
17274W        W82435   8.895   2.609  11.550
17275W        W82436  36.373   8.337   0.390
17276W        W82437  13.797  39.375  13.455
17277W        W82438  37.462  37.920   3.796
17278W        W82439  38.569  22.309   1.834
17279W        W82440   0.295  39.122  13.875
17280W        W82441  41.555  39.943   3.710
17281W        W82442  34.833  35.857  10.097
17282W        W82443  19.977  21.770  13.409
17283W        W82444  33.976  32.510   1.673
17284W        W82445  42.643   2.541  12.554
17285W        W82446   2.012   0.839  13.511
17286W        W82447  16.002  39.540   1.353
17287W        W82448  38.007  23.384   4.763
17288W        W82449  27.741  16.265  11.221
17289W        W82450  29.623  21.037   1.845
17290W        W82451  21.618  28.064   4.980
17291W        W82452  23.139  11.402   4.136
17292W        W82453  38.360  28.449  12.136
17293W        W82454  12.131   8.198   4.546
17294W        W82455  32.684  24.564  13.716
17295W        W82456  41.745  41.433   2.999
17296W        W82457  42.478  42.486   3.084
17297W        W82458  41.037  33.842   3.151
17298W        W82459   5.273  10.417  10.455
17299W        W82460  33.643  37.579  14.880
17300W        W82461  21.551  16.759   9.693
17301W        W82462   8.748  38.492   1.647
17302W        W82463  25.767  38.421  12.510
17303W        W82464   2.814   3.218   3.790
17304W        W82465  14.260   9.123  10.764
17305W        W82466  25.960  32.664   2.790
17306W        W82467  15.776  24.559   1.881
17307W        W82468  20.354  37.575   9.935
17308W        W82469  18.931  23.224   4.751
17309W        W82470   6.747  12.847   3.674
17310W        W82471   6.356  43.397   2.386
17311W        W82472   7.434  21.173   5.054
17312W        W82473  27.862  17.054  12.962
17313W        W82474  14.110  16.024  11.613
17314W        W82475   4.494  15.377   4.437
17315W        W82476  35.791   0.816  14.921
17316W        W82477  11.693  28.415   3.661
17317W        W82478  13.321  21.514  12.528
17318W        W82479  26.181   6.762   0.863
17319W        W82480  25.983  34.489   2.676
17320W        W82481  16.032  23.650   2.363
17321W        W82482  26.081  39.086  11.059
17322W        W82483  36.526   9.232   0.630
17323W        W82484  31.122   1.867  14.241
17324W        W82485  26.083  32.592  14.479
17325W        W82486   2.223  18.684  14.963
17326W        W82487   6.115  16.860  13.712
17327W        W82488  10.677  13.807   1.680
17328W        W82489  28.654  41.503   4.598
17329W        W82490  10.098  15.308  14.946
17330W        W82491   1.604   0.527  11.169
17331W        W82492  36.784  39.407  14.744
17332W        W82493  36.322  16.778  11.660
17333W        W82494  31.658   1.822  12.957
17334W        W82495  22.529  26.047   1.365
17335W        W82496  34.536  23.541  10.636
17336W        W82497  34.639  11.410   1.241
17337W        W82498   5.733  18.736   0.764
17338W        W82499   8.219   5.151   1.339
17339W        W82500  18.686  18.770  14.901
17340W        W82501   5.691  10.886   0.022
17341W        W82502  26.014  14.868   3.757
17342W        W82503  28.938  43.085   4.369
17343W        W82504  15.014  32.485  11.976
17344W        W82505   7.715  35.485  10.749
17345W        W82506  10.354  34.951  10.623
17346W        W82507  16.700  22.134   2.702
17347W        W82508   9.422  10.645   4.046
17348W        W82509   3.606  40.587   4.762
17349W        W82510   6.664   1.158  10.754
17350W        W82511  18.297  42.371   1.165
17351W        W82512   6.783  12.394   1.035
17352W        W82513  24.730  39.372   3.341
17353W        W82514  41.457  31.360  13.243
17354W        W82515  31.688  18.509   0.814
17355W        W82516   1.830   4.809  12.448
17356W        W82517  17.169  10.313  11.843
17357W        W82518   8.796  34.370   3.576
17358W        W82519  21.726  43.632  14.395
17359W        W82520  21.446   6.820   4.007
17360W        W82521  37.862   9.075   0.849
17361W        W82522  29.500  32.281   3.200
17362W        W82523  41.736  24.281  12.151
17363W        W82524  11.120   9.715   2.327
17364W        W82525   7.333  23.162  14.836
17365W        W82526   9.358  23.103  14.936
17366W        W82527  23.148  29.561  11.531
17367W        W82528   8.078   1.182   3.105
17368W        W82529  17.562  22.230  14.739
17369W        W82530  18.828   8.620   4.252
17370W        W82531   5.113  41.583   1.763
17371W        W82532  20.215  23.541  10.601
17372W        W82533  23.354   8.957   0.332
17373W        W82534  23.595   7.750  12.450
17374W        W82535  35.569  34.948   2.656
17375W        W82536   5.788  12.046   3.245
17376W        W82537  32.921  38.759   1.549
17377W        W82538   8.175   7.278  13.566
17378W        W82539  15.243  23.060  13.067
17379W        W82540   2.743   7.880   0.462
17380W        W82541  42.528  35.330  11.871
17381W        W82542  18.484   4.757   4.191
17382W        W82543   9.386  33.900   0.292
17383W        W82544  22.525  11.819   9.898
17384W        W82545  18.923   9.921   2.151
17385W        W82546   0.773  33.715   0.615
17386W        W82547  38.012  19.663  10.705
17387W        W82548  28.206  11.677  14.188
17388W        W82549   8.337  22.924   2.616
17389W        W82550  30.085  39.579   4.270
17390W        W82551  14.993  22.108  14.432
17391W        W82552   6.262  18.223   2.291
17392W        W82553  39.605  24.979  12.466
17393W        W82554   4.978  12.464   1.783
17394W        W82555   6.763   4.440   4.706
17395W        W82556  35.428  31.856  11.621
17396W        W82557  25.975   1.460   2.337
17397W        W82558  32.799  22.126   4.168
17398W        W82559   0.209  18.663  14.297
17399W        W82560  36.315  15.100  11.189
17400W        W82561   3.261  28.534  10.725
17401W        W82562  38.001  28.070   4.685
17402W        W82563  35.529  18.633  12.286
17403W        W82564  24.062  38.802  12.022
17404W        W82565  32.164   0.921   3.735
17405W        W82566  33.047   7.735   2.248
17406W        W82567  21.341  17.652   3.190
17407W        W82568  40.505  30.805  12.896
17408W        W82569  26.006  16.160   3.285
17409W        W82570  15.488   1.969   2.642
17410W        W82571  35.035  13.875   4.187
17411W        W82572  41.322  24.482   1.244
17412W        W82573  37.849  26.344   3.087
17413W        W82574  37.098   6.667   4.694
17414W        W82575  43.241   5.304   3.237
17415W        W82576  41.688   6.233   4.175
17416W        W82577  38.808  16.234   2.315
17417W        W82578  33.829  28.166   0.697
17418W        W82579  39.128  43.317  13.766
17419W        W82580   7.259  43.676  13.426
17420W        W82581  40.988  22.055   2.818
17421W        W82582  40.212  37.062   1.214
17422W        W82583  30.384  27.270  11.993
17423W        W82584   9.204  28.594  10.642
17424W        W82585  44.294  14.555  13.495
17425W        W82586  28.654  25.977  12.871
17426W        W82587  22.686  42.439  11.108
17427W        W82588   9.211  31.858  12.447
17428W        W82589  29.588   8.370   3.877
17429W        W82590  22.719  10.857   1.007
17430W        W82591   9.107   1.089   4.201
17431W        W82592   1.379   0.964  12.868
17432W        W82593  28.963  16.148   2.752
17433W        W82594  37.338  20.255  12.398
17434W        W82595  44.547  31.405   1.313
17435W        W82596   0.437   1.965  11.734
17436W        W82597   8.233  25.415  13.314
17437W        W82598   6.208   5.225   0.282
17438W        W82599   2.769  15.764   2.285
17439W        W82600  22.574   4.517   1.439
17440W        W82601  17.208  36.545  12.590
17441W        W82602  36.011  41.492   0.343
17442W        W82603  15.633   7.834   0.879
17443W        W82604  21.836  29.615  11.461
17444W        W82605  28.545   9.874  14.272
17445W        W82606  41.231  33.519  12.961
17446W        W82607  39.630  15.680  14.287
17447W        W82608  30.580  11.151   1.786
17448W        W82609   4.791  42.801   0.383
17449W        W82610  32.492  42.676   4.534
17450W        W82611  16.487  38.433  11.001
17451W        W82612   9.269  26.657  12.443
17452W        W82613  26.627  17.504   4.632
17453W        W82614  28.432  41.830  13.146
17454W        W82615  22.885  16.669   0.082
17455W        W82616  18.609  29.010  11.111
17456W        W82617  15.238  16.817   2.150
17457W        W82618   4.168  16.745  14.716
17458W        W82619   8.652  38.397  11.855
17459W        W82620  35.159  28.196   2.795
17460W        W82621  16.158  33.139   3.202
17461W        W82622  38.811  18.321  14.439
17462W        W82623  38.574  12.362   0.784
17463W        W82624  38.353  38.056   2.160
17464W        W82625  32.089  27.389   0.974
17465W        W82626   6.799  10.228  13.867
17466W        W82627  37.781  32.546  12.161
17467W        W82628  33.712  15.215  11.972
17468W        W82629  10.268   6.887  12.648
17469W        W82630  44.425  30.621   1.687
17470W        W82631  13.241  20.465  14.386
17471W        W82632  32.725  14.641  12.962
17472W        W82633  20.487  21.293  12.421
17473W        W82634  21.780  34.424  10.603
17474W        W82635  22.732  16.830  10.296
17475W        W82636  17.498   4.043   0.988
17476W        W82637   3.690  35.864  14.984
17477W        W82638  22.371   6.270  14.734
17478W        W82639  24.115   0.806   4.647
17479W        W82640  22.146  33.036   4.023
17480W        W82641  40.984   6.736   2.363
17481W        W82642  21.595   7.898  11.681
17482W        W82643  11.670  32.633  11.325
17483W        W82644  19.818  32.516   4.531
17484W        W82645  31.606  11.122   1.913
17485W        W82646   2.440   2.218  14.505
17486W        W82647  25.570  19.092  10.367
17487W        W82648  33.416  39.009  13.561
17488W        W82649  44.305  11.166  13.146
17489W        W82650  31.536  32.044   0.598
17490W        W82651   9.073   1.288   3.287
17491W        W82652  32.123  28.696   3.172
17492W        W82653  27.682  29.063  13.422
17493W        W82654  32.066   7.207  13.529
17494W        W82655  20.518  33.024   4.672
17495W        W82656  43.770  32.835   4.962
17496W        W82657   0.894  20.040  10.725
17497W        W82658  10.721   4.748   2.938
17498W        W82659  17.174   9.323   4.672
17499W        W82660  37.099  14.796   3.986
17500W        W82661  33.258  32.983  13.933
17501W        W82662   3.073   7.490   0.358
17502W        W82663  38.890  38.561  11.692
17503W        W82664  15.067  20.655  11.391
17504W        W82665   8.690  28.006  11.572
17505W        W82666  26.912  28.488   0.397
17506W        W82667   2.949  16.941   2.288
17507W        W82668  32.095   2.919   0.233
17508W        W82669  15.609  26.657   5.101
17509W        W82670  20.777  21.093  10.771
17510W        W82671  27.316  43.413  14.346
17511W        W82672  17.987  22.048  11.110
17512W        W82673  43.231  30.008   4.155
17513W        W82674  18.436  28.167   2.137
17514W        W82675  11.411   2.593   0.431
17515W        W82676   7.938  30.526   1.045
17516W        W82677   2.917   6.745  13.367
17517W        W82678   3.752  12.658  10.735
17518W        W82679  13.075   9.972   0.210
17519W        W82680  10.526  12.595   4.220
17520W        W82681  39.116   2.995   0.735
17521W        W82682  24.543   8.348   3.679
17522W        W82683  41.306   7.303   4.318
17523W        W82684  34.390  22.000   0.231
17524W        W82685   1.145  32.400   4.162
17525W        W82686   8.297   1.243  11.586
17526W        W82687  44.211  23.028  13.287
17527W        W82688  18.274  40.987   1.737
17528W        W82689  43.285   5.908   2.830
17529W        W82690  32.930  32.663   1.421
17530W        W82691   5.638  26.522  11.637
17531W        W82692  26.071  21.207   2.126
17532W        W82693  24.508   8.789  12.408
17533W        W82694  34.978  15.260   5.266
17534W        W82695  20.348   3.814  13.504
17535W        W82696  39.177  33.094   9.974
17536W        W82697  11.811  35.320   1.003
17537W        W82698  30.135  25.061  10.916
17538W        W82699  12.708  41.536   3.514
17539W        W82700  34.340  32.592  11.052
17540W        W82701   5.332  15.634  11.455
17541W        W82702  11.194   5.956  14.566
17542W        W82703  15.174   2.755  11.900
17543W        W82704  31.610   2.406   3.426
17544W        W82705  19.253   9.588  14.261
17545W        W82706  44.828   7.597   3.884
17546W        W82707  37.949  43.222  10.479
17547W        W82708  22.996  13.695  11.972
17548W        W82709  18.668  15.843   1.773
17549W        W82710   4.363  30.673  12.554
17550W        W82711  33.243  28.685  11.157
17551W        W82712  16.831   5.686  11.152
17552W        W82713  25.063   9.191   2.124
17553W        W82714  10.621  24.566  14.945
17554W        W82715  15.375  36.031  10.825
17555W        W82716  36.954  19.156  13.800
17556W        W82717   1.386   8.993   4.570
17557W        W82718  29.414  13.497  12.936
17558W        W82719  42.733  29.621   0.098
17559W        W82720  20.197   7.993   1.674
17560W        W82721  19.861  20.055   2.739
17561W        W82722  18.775  12.618   3.285
17562W        W82723  38.083  13.329   3.856
17563W        W82724  29.571  30.184  12.623
17564W        W82725  28.905   7.649  13.795
17565W        W82726  31.240   6.814   0.452
17566W        W82727  35.762  29.899  10.710
17567W        W82728  42.665   2.916   4.268
17568W        W82729  12.833   1.793  10.899
17569W        W82730  35.087  34.849   4.072
17570W        W82731   4.115   6.504  13.527
17571W        W82732   5.961  12.856   2.338
17572W        W82733   0.366   4.673   0.318
17573W        W82734   7.048   4.632  13.552
17574W        W82735  24.574  37.941   1.681
17575W        W82736   5.785   3.913   0.567
17576W        W82737   6.895   4.736   0.878
17577W        W82738  31.524  38.348   0.256
17578W        W82739  40.511  14.585  14.614
17579W        W82740  16.194  34.932   2.822
17580W        W82741   1.015  29.472  14.171
17581W        W82742  14.229  21.371   0.945
17582W        W82743   2.694   3.408   1.406
17583W        W82744   4.771  22.976   2.163
17584W        W82745  13.884  28.937  12.461
17585W        W82746  11.720  42.721  11.556
17586W        W82747  15.839  10.335  14.907
17587W        W82748  28.182  36.380  13.710
17588W        W82749  41.951  44.237  14.777
17589W        W82750  30.763  42.615   2.347
17590W        W82751   5.438  10.599   1.332
17591W        W82752  21.055  43.290   2.332
17592W        W82753  39.994  33.142  14.340
17593W        W82754  44.358  20.908  13.950
17594W        W82755  20.591  33.554   4.650
17595W        W82756  25.205  42.522  11.148
17596W        W82757  41.450  11.909  12.353
17597W        W82758  14.249  33.980   0.790
17598W        W82759  38.903   1.499   3.861
17599W        W82760  34.078  22.207   1.135
17600W        W82761  25.119  13.283  12.010
17601W        W82762  22.574   5.900  13.923
17602W        W82763  22.607  33.476   0.352
17603W        W82764  17.638   1.313  10.370
17604W        W82765  35.138  20.577   1.860
17605W        W82766  11.585  38.492   4.325
17606W        W82767  39.277  10.322   3.702
17607W        W82768  18.853  28.200   4.447
17608W        W82769  26.679  17.306  11.094
17609W        W82770  40.377  13.016  12.038
17610W        W82771  42.328  40.837  13.703
17611W        W82772  15.137   9.249  13.769
17612W        W82773  30.405   2.806  13.495
17613W        W82774  15.585  10.451   9.969
17614W        W82775  24.303  20.767   0.553
17615W        W82776  37.071  39.477  10.717
17616W        W82777  39.319  40.502   3.608
17617W        W82778  15.145  11.427   1.343
17618W        W82779  40.678  12.151   4.584
17619W        W82780  16.780  19.771  12.550
17620W        W82781  21.629  26.977   4.269
17621W        W82782   7.210   2.215   4.403
17622W        W82783  12.107  26.967  14.315
17623W        W82784   9.792  32.891   1.255
17624W        W82785  12.265  35.028   0.941
17625W        W82786  39.892  29.910   0.124
17626W        W82787   9.290  26.762   4.496
17627W        W82788   8.136   1.870  14.716
17628W        W82789   2.351  11.644   0.284
17629W        W82790  42.602  38.805   3.101
17630W        W82791   1.317   3.461  12.825
17631W        W82792  16.323  37.955   5.214
17632W        W82793  39.396  13.149   2.787
17633W        W82794  23.922  13.042  11.141
17634W        W82795  32.192  16.986   3.535
17635W        W82796   1.840  44.379  11.589
17636W        W82797   5.219  23.810  12.032
17637W        W82798  44.078  38.644   4.570
17638W        W82799  43.419   8.862  12.959
17639W        W82800  28.188  23.494  13.398
17640W        W82801  18.865   1.722  12.158
17641W        W82802   6.364  18.587  13.047
17642W        W82803  38.514  23.925   1.019
17643W        W82804   8.339  33.488  11.160
17644W        W82805  11.170  25.918  11.575
17645W        W82806   3.855  37.962  14.143
17646W        W82807  32.843  25.987  14.041
17647W        W82808  16.601  11.107  11.243
17648W        W82809  17.597   7.470  13.054
17649W        W82810  15.297  24.495   0.321
17650W        W82811  39.381  43.834   0.447
17651W        W82812  19.841  43.136   0.451
17652W        W82813   3.049  26.456  11.582
17653W        W82814  33.693  20.094   1.352
17654W        W82815  32.219  19.400  14.403
17655W        W82816  16.535  26.971  13.501
17656W        W82817  28.231  43.382  11.410
17657W        W82818  31.388  22.146   1.379
17658W        W82819  28.129  17.525   1.803
17659W        W82820  22.610  30.187  14.917
17660W        W82821  14.117  33.850  14.336
17661W        W82822  20.538  28.872  12.611
17662W        W82823   0.078  16.733  11.800
17663W        W82824  23.659  13.682   1.479
17664W        W82825  34.144  17.753   4.186
17665W        W82826  39.283  38.918  12.998
17666W        W82827  30.953  26.568  10.782
17667W        W82828  42.381   6.390   0.908
17668W        W82829  28.326   9.832   3.391
17669W        W82830  37.035   0.025   1.310
17670W        W82831  41.871  35.362   0.308
17671W        W82832  31.385   3.470  13.041
17672W        W82833  21.767   3.713  11.895
17673W        W82834  14.907   8.737  14.857
17674W        W82835  20.173   9.699   4.627
17675W        W82836  15.593  40.544   1.252
17676W        W82837  11.294   8.752   1.136
17677W        W82838  43.585  23.187   3.423
17678W        W82839  31.889  44.661   4.497
17679W        W82840  32.014  15.623   4.126
17680W        W82841  39.849  19.680  11.137
17681W        W82842  17.335  16.779  13.471
17682W        W82843  40.627  38.405   4.324
17683W        W82844  41.466  44.327   2.251
17684W        W82845   4.786  31.427  14.012
17685W        W82846  37.593   1.018   2.218
17686W        W82847   2.409  16.212   0.647
17687W        W82848  27.574  22.258   1.875
17688W        W82849  34.620  44.340  10.678
17689W        W82850  24.841  14.180   2.135
17690W        W82851  23.963  41.943   2.803
17691W        W82852  28.703  12.750   3.667
17692W        W82853  34.926   9.884  12.581
17693W        W82854  34.966  44.514  14.863
17694W        W82855  23.941  10.698   3.202
17695W        W82856  31.973  10.277  10.789
17696W        W82857  10.683   9.098   0.875
17697W        W82858  32.635  34.428   1.919
17698W        W82859  24.250  34.512  10.719
17699W        W82860   2.008  14.097  14.878
17700W        W82861  42.579  17.750  13.907
17701W        W82862  37.655   7.772   1.312
17702W        W82863   8.402   9.567   3.108
17703W        W82864  17.834  10.371  14.933
17704W        W82865   9.766  13.194   4.951
17705W        W82866  12.713  36.799   3.182
17706W        W82867   8.816  44.042  14.956
17707W        W82868  18.388  24.548   3.148
17708W        W82869   8.729  10.481  10.206
17709W        W82870   1.689   6.358   1.482
17710W        W82871  14.482  37.331  12.080
17711W        W82872  38.312   9.455  13.484
17712W        W82873   5.347  11.383  12.127
17713W        W82874  36.146  11.100  12.590
17714W        W82875  10.654  28.948  11.198
17715W        W82876  22.622   1.879   2.722
17716W        W82877  33.511  24.078  11.253
17717W        W82878   8.402  14.076   1.265
17718W        W82879  33.351  16.778  11.186
17719W        W82880  22.181  36.810  13.855
17720W        W82881   2.184  29.633  11.622
17721W        W82882  11.393   1.356  14.531
17722W        W82883  13.680  36.472   0.086
17723W        W82884   5.189  34.939   1.791
17724W        W82885  29.545  40.129  13.376
17725W        W82886  40.307   5.577  11.716
17726W        W82887  25.462  35.164   2.349
17727W        W82888  17.288  27.423  13.803
17728W        W82889   5.008  19.169   2.036
17729W        W82890  19.145   3.991  14.892
17730W        W82891  12.679  29.473  12.194
17731W        W82892  37.772  36.217   4.508
17732W        W82893  15.988  14.676   2.298
17733W        W82894  43.588  13.727  11.538
17734W        W82895   5.108  33.073   0.756
17735W        W82896  40.796  39.403  14.768
17736W        W82897  17.220  21.166  10.802
17737W        W82898  11.444  11.161   2.784
17738W        W82899  15.464  10.609   2.459
17739W        W82900  28.528  37.328  12.949
17740W        W82901  25.528  17.153  11.971
17741W        W82902   4.678   4.662  12.592
17742W        W82903   9.839  36.953   1.865
17743W        W82904  17.985  23.516  12.996
17744W        W82905  34.494   2.247  10.697
17745W        W82906  34.155  22.782   0.420
17746W        W82907  29.947  34.575   4.787
17747W        W82908  38.385   6.041  11.299
17748W        W82909  15.767   2.902   0.738
17749W        W82910  30.511  20.079   4.694
17750W        W82911  33.110   4.524  11.829
17751W        W82912   7.254   6.165  12.029
17752W        W82913  34.370  44.540  12.495
17753W        W82914  42.985  31.901   2.738
17754W        W82915  30.042  36.792   3.534
17755W        W82916   1.317   8.817   2.812
17756W        W82917  35.395  30.881  10.702
17757W        W82918  39.109  34.546  11.633
17758W        W82919   4.763  24.441  12.368
17759W        W82920  16.839  28.043   3.127
17760W        W82921  11.799  32.972  12.453
17761W        W82922  37.478  39.704  11.635
17762W        W82923  11.383  23.058   3.221
17763W        W82924  36.364  28.717  11.057
17764W        W82925  20.274  44.568   4.212
17765W        W82926  34.177  38.571   3.029
17766W        W82927  28.227  14.345  13.476
17767W        W82928  22.649  38.093  13.410
17768W        W82929  22.675  21.458   0.810
17769W        W82930  23.207  24.215   0.429
17770W        W82931  17.987  38.285   4.124
17771W        W82932   9.778  30.470   2.715
17772W        W82933  30.620  10.233  12.468
17773W        W82934   7.315  23.001   3.283
17774W        W82935  23.404   5.405  11.917
17775W        W82936  42.091  23.117  12.449
17776W        W82937  23.250   9.823   3.600
17777W        W82938  24.930  21.712   0.406
17778W        W82939  25.502  32.727   3.062
17779W        W82940  15.801   0.435  13.883
17780W        W82941  10.565  24.038  12.947
17781W        W82942  11.179  18.977  13.511
17782W        W82943  27.651  32.987  11.563
17783W        W82944  37.134  40.865  13.927
17784W        W82945   2.816   0.226  14.868
17785W        W82946  21.563  25.038   3.081
17786W        W82947  33.100  23.772   4.949
17787W        W82948  16.351  13.113   2.676
17788W        W82949  39.958  21.254   4.320
17789W        W82950  29.571  29.932  14.227
17790W        W82951  22.155  40.895   1.332
17791W        W82952  27.506  18.289   0.497
17792W        W82953  21.707  33.467  10.851
17793W        W82954   1.793   1.265   1.449
17794W        W82955  43.746  29.628  13.070
17795W        W82956  36.372  41.820  13.431
17796W        W82957  24.139  34.677  12.063
17797W        W82958  26.125  25.794   0.433
17798W        W82959  20.084  40.466  11.698
17799W        W82960  18.675  34.049  12.030
17800W        W82961   1.962   6.348   5.009
17801W        W82962  26.470  26.139  11.903
17802W        W82963   4.149   3.502   5.028
17803W        W82964   1.536  16.414   4.197
17804W        W82965  32.701  11.955  12.488
17805W        W82966  19.562  15.725   0.422
17806W        W82967  18.621  18.037   2.054
17807W        W82968  36.929   7.982  11.209
17808W        W82969  39.030  10.135   9.888
17809W        W82970   8.914  19.821   3.755
17810W        W82971  11.899  18.792   2.089
17811W        W82972  28.940  20.644  14.309
17812W        W82973   5.234  14.847   5.439
17813W        W82974  33.811   1.208  11.261
17814W        W82975  16.604  12.341   0.031
17815W        W82976   0.012  13.836   2.988
17816W        W82977  38.379  10.752   2.884
17817W        W82978  12.207  27.739  12.985
17818W        W82979  23.808  16.735   1.932
17819W        W82980   0.721  40.521   4.990
17820W        W82981  27.598   0.020   2.687
17821W        W82982   5.273   1.679   1.214
17822W        W82983  44.898   1.537   3.355
17823W        W82984  22.208   4.873  12.625
17824W        W82985  12.625  44.310   3.684
17825W        W82986  13.689  14.293   1.095
17826W        W82987   1.302   9.588   2.312
17827W        W82988   9.071   0.394  12.092
17828W        W82989  23.304   0.395   1.435
17829W        W82990  14.086  11.730  12.300
17830W        W82991   9.325  34.114  10.002
17831W        W82992  13.903  20.508   1.962
17832W        W82993  12.905  31.626   2.926
17833W        W82994   2.254   0.490   1.350
17834W        W82995  42.510  16.234  13.527
17835W        W82996  19.598  23.819   4.112
17836W        W82997  33.928   6.905  14.302
17837W        W82998  31.400   0.433   2.518
17838W        W82999  40.805   5.185  14.022
17839W        W83000  39.274   1.872  12.601
17840W        W83001  24.418  44.942  14.364
17841W        W83002  41.356  25.469   4.545
17842W        W83003  31.210  34.108   0.854
17843W        W83004  31.142  16.486   3.839
17844W        W83005  11.170   5.908   0.105
17845W        W83006  22.650  34.930  13.239
17846W        W83007  40.844  23.538   1.933
17847W        W83008   6.856  18.059   3.142
17848W        W83009  35.601  27.378  10.654
17849W        W83010   5.882  44.467  11.955
17850W        W83011   0.405  29.094   4.272
17851W        W83012  38.754  39.417   1.183
17852W        W83013  10.715  16.657   1.771
17853W        W83014  22.568  31.699  14.855
17854W        W83015  43.453   9.389   4.904
17855W        W83016  23.054  10.320   0.389
17856W        W83017  25.499  22.701   4.298
17857W        W83018   2.211  21.253   3.531
17858W        W83019  38.145  14.558   1.864
17859W        W83020  29.602  21.640   3.687
17860W        W83021   5.839  12.843  12.984
17861W        W83022  33.838  12.710  12.141
17862W        W83023   0.754  15.749   2.188
17863W        W83024  20.125  18.306  13.598
17864W        W83025  18.821  28.311  10.404
17865W        W83026  43.353   1.678  12.005
17866W        W83027   1.889  33.422   1.389
17867W        W83028   4.411   4.957  11.030
17868W        W83029  18.498  14.361   0.916
17869W        W83030  30.858  22.537  14.921
17870W        W83031  26.035  15.777  11.485
17871W        W83032  38.058  10.425  13.534
17872W        W83033  10.410   0.472   1.865
17873W        W83034  12.287  42.039   1.804
17874W        W83035  22.168  27.656   0.178
17875W        W83036   4.746  23.077  12.117
17876W        W83037  40.383   9.575   0.261
17877W        W83038  30.498   8.532  12.544
17878W        W83039  28.657   6.970   4.931
17879W        W83040  34.844  35.644   0.843
17880W        W83041  22.718  44.808   3.701
17881W        W83042  10.122  29.140  13.393
17882W        W83043  11.859  29.685  12.429
17883W        W83044  27.031  12.393   1.815
17884W        W83045  38.808   7.416  11.692
17885W        W83046  41.518  30.435  11.837
17886W        W83047  20.306  39.685  14.923
17887W        W83048   6.780  31.497  10.540
17888W        W83049  39.751  31.477  10.850
17889W        W83050  22.176   8.312   3.728
17890W        W83051   0.455   3.172   5.141
17891W        W83052   1.292  31.488   1.909
17892W        W83053  38.446  12.108   2.799
17893W        W83054   9.405  12.652  11.629
17894W        W83055  38.771  30.196   1.697
17895W        W83056  43.003  29.673  10.730
17896W        W83057   6.358   8.559  11.151
17897W        W83058   1.265  31.728  12.517
17898W        W83059  27.240  35.681  12.076
17899W        W83060   4.657  42.835   2.761
17900W        W83061  16.176  15.173   2.275
17901W        W83062  38.149  17.189  13.780
17902W        W83063  33.227  34.002   4.583
17903W        W83064  11.849  33.226   1.407
17904W        W83065  16.258  22.330   1.672
17905W        W83066   8.985  33.550   4.884
17906W        W83067  22.879  11.444   9.832
17907W        W83068  10.923  35.487  14.447
17908W        W83069  16.753  44.939   0.715
17909W        W83070  15.136  19.324  12.121
17910W        W83071  44.764  44.772   1.319
17911W        W83072  31.460  23.866  11.136
17912W        W83073  40.401   9.145  14.327
17913W        W83074  20.974  39.553  11.815
17914W        W83075  25.633  10.733  13.145
17915W        W83076  28.000   0.008  13.817
17916W        W83077  34.422  33.554   0.331
17917W        W83078   7.053  43.427   4.197
17918W        W83079   1.043   1.076   2.634
17919W        W83080  23.717  28.594  11.876
17920W        W83081   2.468   5.310  10.761
17921W        W83082  17.826  35.006   4.134
17922W        W83083  17.560  26.995  13.631
17923W        W83084  18.518  38.887   2.923
17924W        W83085  36.666   1.062   3.233
17925W        W83086  17.855  42.328   0.442
17926W        W83087  30.638  43.770  13.780
17927W        W83088   2.932  12.687   3.217
17928W        W83089   0.310  28.023  11.068
17929W        W83090  12.594   6.299   4.172
17930W        W83091  38.827  18.568  10.540
17931W        W83092  19.638  17.535   0.986
17932W        W83093  15.836  13.733  11.311
17933W        W83094  26.321   0.142  14.451
17934W        W83095  40.540  21.776   2.731
17935W        W83096  23.741  23.628  13.495
17936W        W83097   7.443  14.230   0.176
17937W        W83098  11.714   3.975  14.048
17938W        W83099  36.781   7.087   4.910
17939W        W83100  18.522   6.589   2.274
17940W        W83101  13.088  20.547   4.298
17941W        W83102  30.117  29.392   4.365
17942W        W83103  35.638  30.052   3.257
17943W        W83104  17.318  10.884   1.704
17944W        W83105  32.009   7.733  12.001
17945W        W83106   7.305   7.125   2.685
17946W        W83107  43.166   8.187   0.775
17947W        W83108  14.176  31.896  11.729
17948W        W83109  27.308  26.480  13.979
17949W        W83110  16.581  26.376   3.573
17950W        W83111  28.386  42.486   4.671
17951W        W83112  31.453   8.258   0.032
17952W        W83113  22.509  17.052  13.542
17953W        W83114  37.342   4.698  13.896
17954W        W83115  33.609  36.679   4.641
17955W        W83116   7.906   8.763  13.551
17956W        W83117  43.487  26.965   1.324
17957W        W83118  21.271  21.003  13.445
17958W        W83119  44.042   7.409  11.330
17959W        W83120  22.022  25.607   2.384
17960W        W83121  17.787  39.832   2.361
17961W        W83122   3.182  18.058  14.364
17962W        W83123  40.118  44.541  12.920
17963W        W83124   6.331  19.094  12.912
17964W        W83125  31.858  38.484   2.718
17965W        W83126  16.440  41.097   3.088
17966W        W83127  11.944   0.408   2.792
17967W        W83128  27.046  42.738   2.603
17968W        W83129  34.538  38.506   2.667
17969W        W83130  23.957  23.692   2.178
17970W        W83131   8.933  30.469   1.803
17971W        W83132  11.635   3.952  12.831
17972W        W83133  26.482  10.195   4.741
17973W        W83134  34.678  40.009   2.405
17974W        W83135  39.557  38.412   1.394
17975W        W83136  40.302  25.590   3.374
17976W        W83137  43.457   6.615  11.626
17977W        W83138  33.443   1.394  12.059
17978W        W83139  30.050  40.293  11.487
17979W        W83140  27.658  17.295  12.439
17980W        W83141  21.031  33.380  11.946
17981W        W83142  14.998  42.032   3.765
17982W        W83143  28.644   5.185   1.814
17983W        W83144  11.111  27.931   2.141
17984W        W83145  23.641  23.034   3.189
17985W        W83146  28.838  42.118  13.043
17986W        W83147   2.392   3.678   1.722
17987W        W83148  25.492  38.226  13.909
17988W        W83149  10.672   8.270   1.838
17989W        W83150   8.887   9.231  10.741
17990W        W83151  20.226  23.328  11.082
17991W        W83152  37.462   4.267   0.330
17992W        W83153   8.659  14.378   1.607
17993W        W83154  27.418  13.155   3.580
17994W        W83155  20.662   7.266  11.989
17995W        W83156   0.423  35.687   0.771
17996W        W83157  35.090  30.983   3.209
17997W        W83158   3.667  42.509  12.077
17998W        W83159   4.415  27.703  14.979
17999W        W83160   4.718  30.150   3.204
18000W        W83161  36.812  25.203   4.591
18001W        W83162  13.445  20.321   0.205
18002W        W83163   7.263  11.283  10.793
18003W        W83164  41.390  16.675   0.161
18004W        W83165  35.318  37.479   3.214
18005W        W83166  41.131  22.217   1.208
18006W        W83167  40.826  39.516   2.617
18007W        W83168  16.925  44.828  13.675
18008W        W83169  40.068  15.414   2.167
18009W        W83170  44.952  28.075   0.373
18010W        W83171  27.018  13.743  13.795
18011W        W83172   3.286  18.079   4.457
18012W        W83173  10.285  20.703  11.703
18013W        W83174  40.074  43.432  14.019
18014W        W83175  42.999  22.358  14.326
18015W        W83176  38.695  38.927  12.501
18016W        W83177  41.774   9.744   3.356
18017W        W83178  34.301  15.579   1.725
18018W        W83179  16.778  17.812   3.840
18019W        W83180  10.293  11.245   2.109
18020W        W83181  19.780  26.528  14.405
18021W        W83182  13.301  17.614  10.601
18022W        W83183  27.025  10.295   2.105
18023W        W83184  36.451  24.067  11.060
18024W        W83185   6.757  19.390  12.872
18025W        W83186  24.129   4.406   5.107
18026W        W83187  16.235   4.927   1.911
18027W        W83188  23.587  36.364  12.082
18028W        W83189  27.037   6.038   1.907
18029W        W83190   5.200   5.103   1.357
18030W        W83191  28.918   6.989   4.488
18031W        W83192  32.602  38.615  12.603
18032W        W83193  17.347   4.817   5.055
18033W        W83194   8.617  40.102  10.709
18034W        W83195  27.126   5.387  14.511
18035W        W83196  26.508   3.822  14.035
18036W        W83197  21.480  41.348   1.676
18037W        W83198  32.749   8.173  12.524
18038W        W83199  28.053  35.870   4.174
18039W        W83200  10.284  42.319  13.832
18040W        W83201  41.389  10.151  11.116
18041W        W83202  16.205   3.706   2.539
18042W        W83203  23.115   8.745   2.159
18043W        W83204  20.736   8.771   4.649
18044W        W83205  16.981   1.361  14.454
18045W        W83206  35.542  21.743   4.338
18046W        W83207  31.727  11.711  12.635
18047W        W83208  19.817  27.267  14.705
18048W        W83209  30.452  23.554   3.431
18049W        W83210  16.041  32.883  13.282
18050W        W83211   0.797   9.833   1.375
18051W        W83212  36.841   1.471  12.667
18052W        W83213  24.602  25.556   2.875
18053W        W83214   9.384   8.454   4.286
18054W        W83215  39.927  31.653  14.278
18055W        W83216  36.652  13.516  11.098
18056W        W83217   5.285  31.960  13.278
18057W        W83218   6.004  13.872  13.959
18058W        W83219  34.889   5.268  10.905
18059W        W83220  32.876  35.624   2.755
18060W        W83221  17.162  38.505  10.221
18061W        W83222  38.105  30.612  12.557
18062W        W83223  31.663  30.633  14.867
18063W        W83224   7.547  25.959   1.268
18064W        W83225  13.021   8.290   0.514
18065W        W83226  17.212  35.867  10.728
18066W        W83227  31.067  40.583  11.103
18067W        W83228  28.630  15.573  10.691
18068W        W83229  16.147  43.922  12.957
18069W        W83230   9.063   2.993  10.671
18070W        W83231  16.124  36.083   4.603
18071W        W83232  41.786  23.604   1.524
18072W        W83233  39.829   2.791   3.244
18073W        W83234   4.675  12.139  14.064
18074W        W83235   4.794   3.952  14.301
18075W        W83236   1.424  44.450   3.837
18076W        W83237  29.119  26.809   1.354
18077W        W83238  39.900  22.685   4.322
18078W        W83239  34.039   9.961  10.247
18079W        W83240  13.396  19.446   3.610
18080W        W83241  34.062   8.835  13.221
18081W        W83242  24.563  40.111   2.276
18082W        W83243  17.721  22.504  13.782
18083W        W83244  18.363  24.954   4.311
18084W        W83245  26.128   5.475  11.058
18085W        W83246  10.900  29.432   2.857
18086W        W83247  38.753   5.972   0.573
18087W        W83248   3.775  29.492   0.534
18088W        W83249  13.648   1.516  14.815
18089W        W83250  22.718   5.870  14.851
18090W        W83251  16.075  21.256  13.324
18091W        W83252  33.077  40.910  13.490
18092W        W83253  24.934  43.844  12.008
18093W        W83254  35.119   8.854   3.278
18094W        W83255   4.468  36.193   3.754
18095W        W83256  43.796   3.773  13.578
18096W        W83257  12.107  31.508   3.254
18097W        W83258  36.489  10.622   1.315
18098W        W83259  38.369  37.495  10.400
18099W        W83260  43.509  33.224   2.857
18100W        W83261  26.642  21.778  14.338
18101W        W83262  29.924  36.070  11.432
18102W        W83263  10.382  21.657   1.006
18103W        W83264  12.938  44.236  14.210
18104W        W83265  11.265   7.059   2.528
18105W        W83266  10.852  29.966   4.730
18106W        W83267  39.566   2.491  10.957
18107W        W83268  10.763   8.061   3.441
18108W        W83269   1.915  13.522  11.538
18109W        W83270  33.043  19.994  14.304
18110W        W83271  23.241  33.822  14.383
18111W        W83272  27.521  21.008   0.231
18112W        W83273  34.137  21.750   0.671
18113W        W83274  36.906  15.191   3.720
18114W        W83275   4.954  33.516  12.837
18115W        W83276  23.865   3.249  11.034
18116W        W83277  32.136  16.090  14.045
18117W        W83278   8.309  28.725   1.192
18118W        W83279  40.367  42.026  11.812
18119W        W83280   5.354  11.195   1.377
18120W        W83281  19.028  11.258   4.546
18121W        W83282   1.929  39.263  14.777
18122W        W83283   5.926  30.594   1.701
18123W        W83284  18.008  29.915  13.405
18124W        W83285  34.557   7.699  12.129
18125W        W83286  20.827  26.507  12.537
18126W        W83287   2.266  27.718   3.175
18127W        W83288  43.803   8.487  10.599
18128W        W83289  16.701  10.264   4.399
18129W        W83290  22.096  18.160   2.396
18130W        W83291  25.440  38.636   0.743
18131W        W83292  17.666  24.592   0.941
18132W        W83293  27.907  14.962   3.308
18133W        W83294  12.703  28.192  10.726
18134W        W83295  43.294  36.874   2.259
18135W        W83296  35.174  20.748   5.047
18136W        W83297  38.015  44.458  12.307
18137W        W83298  39.539  38.919   4.089
18138W        W83299  42.937  40.748  11.988
18139W        W83300  24.911  37.621   0.908
18140W        W83301  28.423   8.994   3.137
18141W        W83302  41.890   5.404  14.884
18142W        W83303  27.236  43.448   4.358
18143W        W83304  43.316   1.801  12.856
18144W        W83305   4.151  26.609   2.175
18145W        W83306  23.008   8.161  14.827
18146W        W83307  39.992  10.303  12.784
18147W        W83308   5.803  21.593   2.087
18148W        W83309   7.360   3.232   1.351
18149W        W83310  23.146  20.229   9.673
18150W        W83311  41.561  14.094   2.262
18151W        W83312  37.561  26.258  13.613
18152W        W83313  17.538  27.094  12.785
18153W        W83314  15.019   9.642   1.369
18154W        W83315  11.787  40.857   3.264
18155W        W83316   7.300  39.893   0.389
18156W        W83317   4.496  35.083  11.997
18157W        W83318  32.992  23.514  13.502
18158W        W83319  10.711  41.942   0.539
18159W        W83320  31.637  42.300  12.031
18160W        W83321  30.385  35.552   2.840
18161W        W83322  34.473  24.376   4.498
18162W        W83323  12.493  35.970  13.061
18163W        W83324  41.706   7.032   3.077
18164W        W83325  16.500  41.340   1.621
18165W        W83326  20.716  22.272   1.454
18166W        W83327  29.160  11.379   2.790
18167W        W83328   2.298  28.400   1.787
18168W        W83329   6.595  35.973  14.341
18169W        W83330   7.928   3.944  14.829
18170W        W83331  27.634  41.499   2.733
18171W        W83332  41.385  23.903  12.242
18172W        W83333  17.007  28.116   3.606
18173W        W83334   4.246   3.455   0.441
18174W        W83335   7.416  41.040   0.953
18175W        W83336  22.447   4.728  14.460
18176W        W83337  29.564  36.403   4.730
18177W        W83338  38.139  16.163  12.572
18178W        W83339   5.805  15.796  12.966
18179W        W83340  34.584  21.736  14.808
18180W        W83341  18.677   1.031   1.772
18181W        W83342  29.303  25.017  11.704
18182W        W83343  34.837  11.124  11.617
18183W        W83344   9.211   5.968   1.620
18184W        W83345  36.383  35.668  14.274
18185W        W83346  19.499  24.224   1.876
18186W        W83347   9.679  39.847  10.762
18187W        W83348   2.034  31.317  12.501
18188W        W83349  19.680  19.100   4.037
18189W        W83350  10.684  26.757  12.362
18190W        W83351  14.912  35.110   4.121
18191W        W83352  20.394   8.555  11.805
18192W        W83353  27.979  40.968  13.101
18193W        W83354   1.385   5.405   2.640
18194W        W83355  12.570   1.723   3.617
18195W        W83356   6.742  40.377   2.273
18196W        W83357  26.102   2.003   4.841
18197W        W83358   3.805  26.717  12.559
18198W        W83359  13.845  25.144  14.916
18199W        W83360  23.621  33.465  14.316
18200W        W83361  14.217  38.013   2.374
18201W        W83362   4.185   4.960  13.876
18202W        W83363  10.526  10.823  10.880
18203W        W83364  15.063  24.132   3.147
18204W        W83365  18.566  31.892   0.262
18205W        W83366  30.895  41.942   0.448
18206W        W83367  15.338  43.135   2.793
18207W        W83368  13.739  23.925  14.350
18208W        W83369  21.038  19.773  14.526
18209W        W83370  38.941  38.123  10.724
18210W        W83371   7.279   5.497  10.566
18211W        W83372  36.911  21.365  14.027
18212W        W83373  35.508   0.229  13.842
18213W        W83374  17.580  16.565   2.300
18214W        W83375  29.452  31.626  14.652
18215W        W83376  29.651  13.043  12.512
18216W        W83377  20.017  12.884  10.307
18217W        W83378  39.791  16.750   1.250
18218W        W83379   2.016  22.905  14.268
18219W        W83380  18.233   1.408  11.628
18220W        W83381   5.698   3.228  11.530
18221W        W83382  39.597  43.942  10.660
18222W        W83383  42.062  42.214   2.400
18223W        W83384  23.158  20.250  10.212
18224W        W83385  38.482   1.123  13.970
18225W        W83386  42.635   6.860  12.593
18226W        W83387   5.169  11.787   3.719
18227W        W83388  33.102  19.604   2.673
18228W        W83389  44.331   9.671   4.285
18229W        W83390  17.723  41.225   1.370
18230W        W83391  15.687  11.007  12.149
18231W        W83392   8.625  17.718   4.871
18232W        W83393  17.272  25.451   1.096
18233W        W83394  27.980  31.584  14.929
18234W        W83395  44.672  22.701   4.713
18235W        W83396  15.639  35.392   4.643
18236W        W83397  20.158  34.790   0.903
18237W        W83398  16.156  40.639   3.212
18238W        W83399   6.909  27.695  14.917
18239W        W83400  41.004  34.378   3.235
18240W        W83401   5.251  41.354   4.545
18241W        W83402  40.337  13.550   1.310
18242W        W83403  38.183  34.884  10.925
18243W        W83404   0.521  37.283   1.417
18244W        W83405  36.101  11.677   3.317
18245W        W83406  15.495  31.158  13.459
18246W        W83407  32.526  35.006  11.041
18247W        W83408   5.290  20.085  14.073
18248W        W83409  17.505  32.577   3.102
18249W        W83410  40.870  33.148  13.062
18250W        W83411  37.448   6.493  13.572
18251W        W83412  31.043  14.725  10.588
18252W        W83413  13.417  20.433  10.941
18253W        W83414  27.879  39.079  13.971
18254W        W83415  32.235  28.232  12.290
18255W        W83416  17.403  42.082   4.047
18256W        W83417  19.283  29.576  12.961
18257W        W83418  35.622  37.854   2.312
18258W        W83419  38.907   4.735  10.201
18259W        W83420   9.637  22.417  11.935
18260W        W83421  27.964  20.386   1.312
18261W        W83422  27.495   5.014   4.461
18262W        W83423  16.805  20.108   4.556
18263W        W83424  27.983  43.881  11.095
18264W        W83425  37.435   6.665   1.768
18265W        W83426  35.439  13.248   1.243
18266W        W83427   8.151  36.480  13.887
18267W        W83428  26.337  34.439  11.170
18268W        W83429  34.512  30.786  13.421
18269W        W83430   0.427  28.457   1.379
18270W        W83431  32.620  32.501  14.818
18271W        W83432   1.324  16.124   2.888
18272W        W83433  30.056  18.082   2.305
18273W        W83434   0.753  13.264  13.472
18274W        W83435   2.038  28.644  13.029
18275W        W83436  10.399  28.087  12.017
18276W        W83437  37.407  25.017  13.575
18277W        W83438  29.654  21.682   1.413
18278W        W83439  43.734  43.291  11.606
18279W        W83440  11.752   8.432  14.980
18280W        W83441  11.051  35.040   1.390
18281W        W83442  11.403  16.256   2.782
18282W        W83443  23.598  14.302  11.533
18283W        W83444   9.766  28.908   4.305
18284W        W83445  34.039  20.275  10.837
18285W        W83446  21.093  28.948   9.651
18286W        W83447  44.152  35.298   1.269
18287W        W83448  30.427  34.522  10.616
18288W        W83449  39.571   6.565   0.335
18289W        W83450  41.900  33.367   2.599
18290W        W83451  17.373  35.968   2.363
18291W        W83452  13.163  21.696  14.895
18292W        W83453  35.350   1.478   0.846
18293W        W83454   6.505   3.054   1.212
18294W        W83455  23.581  23.097  12.905
18295W        W83456  25.099   7.114   5.036
18296W        W83457  35.475  10.972  12.436
18297W        W83458  14.824  41.533   3.690
18298W        W83459  39.664  16.552  12.036
18299W        W83460  17.415   0.419  12.506
18300W        W83461  23.619  19.755   4.094
18301W        W83462  20.683  18.995  14.374
18302W        W83463  12.177   1.458   1.866
18303W        W83464  33.957  39.955   1.932
18304W        W83465  24.613  43.435  12.921
18305W        W83466  43.388   9.956  12.145
18306W        W83467  36.710  27.681   2.122
18307W        W83468  44.976  11.115   4.025
18308W        W83469  40.391   7.757   4.532
18309W        W83470  20.209   1.741   0.177
18310W        W83471  25.364  36.557   4.971
18311W        W83472   0.347   8.996  13.379
18312W        W83473  43.010  14.344   3.775
18313W        W83474   0.488  42.061   2.411
18314W        W83475  12.162   5.859   2.389
18315W        W83476  33.435  21.627  14.022
18316W        W83477  36.453   9.644   1.566
18317W        W83478  16.173  37.735  14.830
18318W        W83479  40.027  17.085  12.512
18319W        W83480  21.721  41.049   4.300
18320W        W83481  41.071  39.922   2.842
18321W        W83482  39.340  18.142   1.414
18322W        W83483   2.400  38.732   1.757
18323W        W83484   8.686   7.903   2.203
18324W        W83485  43.289  12.335   3.755
18325W        W83486  19.131   5.840  12.639
18326W        W83487  27.907  28.831  11.135
18327W        W83488  26.452  30.765  11.629
18328W        W83489  44.762   6.188   0.880
18329W        W83490   5.527  19.958  10.647
18330W        W83491   0.020  38.079   4.620
18331W        W83492  41.832  38.514   3.223
18332W        W83493  26.093   0.482  13.557
18333W        W83494   9.651  31.967  14.290
18334W        W83495   2.996  42.738   0.846
18335W        W83496  20.441  12.656  12.012
18336W        W83497  35.395  16.169   2.244
18337W        W83498   8.701  25.932  11.475
18338W        W83499  43.422  20.233   1.250
18339W        W83500  35.032  10.343   4.367
18340W        W83501  30.489  14.318   1.227
18341W        W83502  38.931  24.960  10.793
18342W        W83503  31.444  39.286   1.385
18343W        W83504  38.016  27.127  14.272
18344W        W83505   2.659   3.394   4.274
18345W        W83506  25.565  29.395  14.724
18346W        W83507  26.057  21.982   3.183
18347W        W83508  16.508  34.092  11.705
18348W        W83509  16.733  29.150   0.665
18349W        W83510  16.218  39.796  12.091
18350W        W83511  42.525  29.515   3.748
18351W        W83512  36.926  14.569   0.028
18352W        W83513  17.110  20.605   3.736
18353W        W83514  13.818  12.895   3.673
18354W        W83515   3.957  41.409   1.492
18355W        W83516   1.128   2.723   4.022
18356W        W83517   9.207   1.485   0.451
18357W        W83518  14.051  10.604   4.813
18358W        W83519  37.902  31.127   2.202
18359W        W83520   9.641  29.690  13.044
18360W        W83521  20.548  31.187  11.104
18361W        W83522  40.849   5.365   2.746
18362W        W83523  24.721  40.586  13.796
18363W        W83524   1.239  43.451  14.941
18364W        W83525  44.472  24.062   4.657
18365W        W83526  22.831  27.669  11.564
18366W        W83527  24.978  37.032  12.322
18367W        W83528  40.306  35.889  12.944
18368W        W83529  27.282   1.135   3.826
18369W        W83530  21.796  27.877   0.533
18370W        W83531   9.494  23.299  12.561
18371W        W83532   9.255  35.857  11.970
18372W        W83533  26.135  30.421  11.864
18373W        W83534  43.224   5.898   0.954
18374W        W83535   3.901  38.970  12.414
18375W        W83536  37.965   8.161   3.694
18376W        W83537  21.070  35.786  12.401
18377W        W83538  40.476  44.374  13.610
18378W        W83539  31.047  10.111  12.081
18379W        W83540  16.071   8.183   4.042
18380W        W83541   0.696  25.781   3.776
18381W        W83542  28.170   9.816  11.967
18382W        W83543  27.884  21.459   2.219
18383W        W83544  37.410  39.550   4.843
18384W        W83545  33.728  22.511   0.325
18385W        W83546  17.613  14.694   4.042
18386W        W83547  41.012  11.401   0.409
18387W        W83548  41.426  34.063  14.202
18388W        W83549   4.709  24.978  11.235
18389W        W83550  12.112  44.339   3.294
18390W        W83551  18.708  31.185   2.361
18391W        W83552  44.725  34.373   4.269
18392W        W83553  42.228   3.925   1.786
18393W        W83554  33.160  10.854  12.000
18394W        W83555  12.202  40.320   3.706
18395W        W83556  29.527  41.868   4.488
18396W        W83557  16.623  14.182  10.304
18397W        W83558  41.604  19.449  14.341
18398W        W83559  39.582  12.701   0.848
18399W        W83560  11.083  15.938  12.580
18400W        W83561  22.230   2.879  13.045
18401W        W83562  29.229  18.799  12.019
18402W        W83563  22.942  26.140   1.014
18403W        W83564  42.593  23.709   3.164
18404W        W83565   8.409  36.458   2.406
18405W        W83566  17.683  10.007   3.150
18406W        W83567   6.818  10.784  13.392
18407W        W83568  38.805  39.086  12.990
18408W        W83569  38.205   8.784   0.610
18409W        W83570  35.082  14.292   2.897
18410W        W83571  35.908   2.546  11.632
18411W        W83572   5.744  24.739  11.150
18412W        W83573  10.067  11.672  13.490
18413W        W83574  41.997   4.977  11.551
18414W        W83575  14.203  12.629   3.456
18415W        W83576  38.829  31.616   1.776
18416W        W83577   2.877  25.474  11.372
18417W        W83578   2.422  15.338   1.043
18418W        W83579  11.450   6.831  12.700
18419W        W83580  16.455  16.493  11.667
18420W        W83581   2.377   2.174  11.934
18421W        W83582  22.598   9.215  10.519
18422W        W83583  44.409  30.923  12.790
18423W        W83584   2.385   2.434   2.783
18424W        W83585   8.713   5.974   1.313
18425W        W83586  28.541  32.663   3.252
18426W        W83587   2.776  17.162  13.806
18427W        W83588  19.173  11.755   0.966
18428W        W83589  22.664  26.224   3.602
18429W        W83590  26.750  41.352  10.721
18430W        W83591  35.060  33.460   1.860
18431W        W83592  43.162  21.739   0.493
18432W        W83593   4.955  20.688  10.202
18433W        W83594  13.324   8.432  11.959
18434W        W83595  42.840  24.702   0.402
18435W        W83596  10.669   8.044  10.617
18436W        W83597  26.879  42.717  14.059
18437W        W83598  16.471  39.616  13.399
18438W        W83599   1.890  21.587   3.786
18439W        W83600  39.849  13.873   2.892
18440W        W83601   5.729  29.528  11.174
18441W        W83602   5.273  21.870  11.052
18442W        W83603  10.865  15.391   2.850
18443W        W83604  40.923  34.916  13.354
18444W        W83605  36.817  33.232  12.662
18445W        W83606  37.564  16.229   1.650
18446W        W83607  10.022   2.674   4.114
18447W        W83608  30.100  33.810  11.229
18448W        W83609  10.264  32.219   0.320
18449W        W83610  27.622  16.680   2.909
18450W        W83611  26.773  35.246   1.962
18451W        W83612  28.077  40.781   3.614
18452W        W83613  33.121  23.001  12.755
18453W        W83614  29.013  28.475  13.528
18454W        W83615  19.141  22.865  13.506
18455W        W83616   9.342  25.057   4.130
18456W        W83617  26.206  42.214   1.202
18457W        W83618  39.800  18.314  11.039
18458W        W83619  32.704  13.816   1.835
18459W        W83620  24.978  43.478  11.102
18460W        W83621  11.419   3.185   4.408
18461W        W83622  27.261  33.104  14.884
18462W        W83623  43.179  27.213   2.641
18463W        W83624  36.388  23.490   1.274
18464W        W83625   5.140  40.580   3.288
18465W        W83626  13.569   8.669  14.368
18466W        W83627  42.716  44.073   1.662
18467W        W83628  17.044  27.014   1.805
18468W        W83629   9.820  24.475  11.922
18469W        W83630  30.851   9.747  12.414
18470W        W83631  43.495  39.459  10.173
18471W        W83632   2.337   0.033   0.069
18472W        W83633  19.278   6.308  11.595
18473W        W83634  25.764  29.200  10.286
18474W        W83635  15.634   4.171   1.519
18475W        W83636  11.896  29.172   4.149
18476W        W83637   0.956   2.468  14.244
18477W        W83638  14.958  36.154  14.713
18478W        W83639  31.572  21.267   0.337
18479W        W83640   7.413  13.620  12.103
18480W        W83641   7.395  12.692  13.492
18481W        W83642  39.491  17.343  11.184
18482W        W83643  20.325  33.382  10.753
18483W        W83644  44.976  31.861  12.476
18484W        W83645  41.003   5.356  14.847
18485W        W83646  28.516  38.362  13.037
18486W        W83647  28.135  20.505   0.813
18487W        W83648  11.809  23.073  14.917
18488W        W83649   1.739  25.159  14.787
18489W        W83650  16.199  19.505   1.296
18490W        W83651  14.234  17.086  10.809
18491W        W83652  10.880  16.136   2.892
18492W        W83653  27.059  43.463   3.359
18493W        W83654  42.683  33.444   3.036
18494W        W83655   2.010  25.327  13.905
18495W        W83656  18.459  42.839   0.970
18496W        W83657  23.997   6.850   0.726
18497W        W83658   8.819   5.770  14.930
18498W        W83659  26.698  23.683  13.023
18499W        W83660  26.531  42.755  11.012
18500W        W83661  15.192   1.748  10.265
18501W        W83662   4.261   8.465  12.831
18502W        W83663  20.534  21.495   3.322
18503W        W83664  21.599  32.447   1.179
18504W        W83665  12.673  32.191  12.142
18505W        W83666  43.097  10.365  13.491
18506W        W83667   1.270   9.397   1.793
18507W        W83668  36.152  40.567  12.158
18508W        W83669   3.351  13.642   3.114
18509W        W83670  17.013  11.639  12.961
18510W        W83671  23.685   0.441  12.798
18511W        W83672   0.987  43.809   3.284
18512W        W83673  29.177  12.195  11.583
18513W        W83674  25.494   5.887  10.699
18514W        W83675  14.706  26.504   3.198
18515W        W83676  15.276  35.009   1.564
18516W        W83677  11.869  14.280   3.768
18517W        W83678  39.349   6.712  12.226
18518W        W83679  43.678  10.945   4.503
18519W        W83680  11.622  43.412   4.186
18520W        W83681  19.188  19.106   4.154
18521W        W83682  28.242   9.803  11.162
18522W        W83683   1.658  40.644  14.823
18523W        W83684  17.603  41.892   0.428
18524W        W83685  35.933  40.322   1.857
18525W        W83686  43.752  36.989  12.927
18526W        W83687  26.586  44.051   2.752
18527W        W83688  36.855   1.051  12.985
18528W        W83689  39.411  28.150   0.825
18529W        W83690  19.438   3.027  14.402
18530W        W83691  15.360  14.998  11.463
18531W        W83692  26.558  11.892  10.172
18532W        W83693  17.157  37.380   1.506
18533W        W83694  20.617  36.595  14.552
18534W        W83695  33.152  44.590  11.992
18535W        W83696  33.188  16.338  12.736
18536W        W83697  33.396   6.208   2.464
18537W        W83698   1.735  10.209   3.607
18538W        W83699   9.661  40.434  12.412
18539W        W83700  15.383  38.471   4.196
18540W        W83701  32.673  17.781  12.893
18541W        W83702  23.754  26.244   1.161
18542W        W83703  22.657   4.800   1.892
18543W        W83704  16.608  38.835   4.890
18544W        W83705  42.263  37.079  12.485
18545W        W83706  13.364  35.919   1.212
18546W        W83707  25.284  39.516   0.914
18547W        W83708  15.790  37.491  11.646
18548W        W83709   8.434  22.014  11.922
18549W        W83710  23.190   2.786   2.460
18550W        W83711  43.906  36.399  11.100
18551W        W83712  32.320  17.998   1.193
18552W        W83713  20.570   0.036  11.678
18553W        W83714   8.154  37.336  12.204
18554W        W83715   8.322   6.408   3.420
18555W        W83716  16.597  22.095  14.297
18556W        W83717   5.803   3.195   3.862
18557W        W83718  28.146  23.140  14.934
18558W        W83719  37.429  27.856  12.379
18559W        W83720  17.214   5.496   3.246
18560W        W83721   7.408  42.954   1.507
18561W        W83722  38.018  44.852  14.416
18562W        W83723  41.181  22.726  14.622
18563W        W83724  14.221  21.190   0.035
18564W        W83725  22.482  42.042   0.279
18565W        W83726  17.370  36.114   3.668
18566W        W83727   0.319   1.242  14.370
18567W        W83728   2.967   3.931  12.485
18568W        W83729   0.938   7.143   1.326
18569W        W83730  41.857  26.924   3.648
18570W        W83731  27.563   0.467  12.880
18571W        W83732  11.454  18.145  12.038
18572W        W83733  20.856   6.356   4.860
18573W        W83734  40.110   1.415  10.496
18574W        W83735  26.450  10.357  12.246
18575W        W83736  19.858  19.134   4.545
18576W        W83737   1.156  25.098  14.398
18577W        W83738  15.246  28.191  11.165
18578W        W83739  24.975   3.438  11.704
18579W        W83740  15.377   2.741  11.021
18580W        W83741   2.478  23.655  12.185
18581W        W83742  28.900   4.427  10.545
18582W        W83743  18.193  37.704  10.787
18583W        W83744   5.962  39.910   4.846
18584W        W83745  15.683  30.414   4.922
18585W        W83746  13.171  25.432  13.962
18586W        W83747  29.551   9.498   0.009
18587W        W83748  15.313  43.246  10.168
18588W        W83749  19.624  31.562  11.588
18589W        W83750  26.995  18.504   0.379
18590W        W83751  26.660   9.665   0.978
18591W        W83752   8.392  19.783   3.158
18592W        W83753   9.094  32.178  12.069
18593W        W83754  17.863  30.539  14.361
18594W        W83755  32.647  22.121   0.848
18595W        W83756   8.370  31.129   2.262
18596W        W83757   1.442  20.030  12.890
18597W        W83758  15.271  18.230   4.930
18598W        W83759  43.357  30.629  12.434
18599W        W83760   2.225  26.924  13.917
18600W        W83761  40.508  37.151   2.349
18601W        W83762   4.839  43.778   0.481
18602W        W83763   7.251  27.401  14.362
18603W        W83764  36.571  43.052  13.915
18604W        W83765  33.687   4.897  10.399
18605W        W83766  16.267  38.799   0.921
18606W        W83767  20.016   5.477   1.848
18607W        W83768  39.514  34.873   2.188
18608W        W83769  28.851  22.732   4.125
18609W        W83770  21.619  16.234   9.682
18610W        W83771   7.650  29.256   2.203
18611W        W83772  42.280   9.724   2.489
18612W        W83773   4.515  43.375  11.946
18613W        W83774  17.219  31.044  14.862
18614W        W83775   2.995   4.746   2.739
18615W        W83776  44.140  18.413  14.470
18616W        W83777   3.887  31.279  13.584
18617W        W83778   3.636  33.909  11.248
18618W        W83779  25.703  35.486  12.969
18619W        W83780  14.843  41.933   3.256
18620W        W83781   7.650  19.678   1.732
18621W        W83782  18.139   1.950   0.767
18622W        W83783  42.275   9.058   2.936
18623W        W83784  27.402   9.129   2.102
18624W        W83785  19.797  26.962  11.957
18625W        W83786  22.517   0.661   0.093
18626W        W83787  28.363   7.687  14.720
18627W        W83788  32.067  33.163   1.237
18628W        W83789  12.161  25.470  12.314
18629W        W83790   4.821  34.842   2.125
18630W        W83791  19.694  23.204  14.365
18631W        W83792  12.777   5.752   2.852
18632W        W83793  41.599  40.065  11.629
18633W        W83794  25.652  27.282   3.145
18634W        W83795  33.478  44.326   3.055
18635W        W83796  15.035  34.627   3.244
18636W        W83797   8.824  13.219   1.085
18637W        W83798  44.302  13.299   2.902
18638W        W83799   7.428  20.629  12.505
18639W        W83800  28.452   7.814   1.908
18640W        W83801  13.405  23.473  10.759
18641W        W83802   1.851  36.624   0.438
18642W        W83803  23.070  14.473  13.992
18643W        W83804  37.728  17.133   4.324
18644W        W83805  21.104  44.390  12.321
18645W        W83806  30.628   5.682  10.406
18646W        W83807  36.402  41.794  10.814
18647W        W83808  19.058  25.136  12.610
18648W        W83809  39.542  27.712   3.112
18649W        W83810  17.342   3.741  14.120
18650W        W83811  19.534  27.550   0.005
18651W        W83812  31.890  16.795   0.911
18652W        W83813   6.819  12.550   3.224
18653W        W83814   4.512  31.044   3.185
18654W        W83815  33.016  18.988  12.607
18655W        W83816  22.710  30.346   4.239
18656W        W83817  26.669  23.770   2.361
18657W        W83818  40.398   5.098   2.706
18658W        W83819  12.300  22.072  12.075
18659W        W83820  27.551  28.578  12.510
18660W        W83821  39.423   8.677   4.193
18661W        W83822  29.364  30.392   4.096
18662W        W83823   2.925  12.321  13.008
18663W        W83824  37.810  32.000   1.703
18664W        W83825  25.688  44.780  12.184
18665W        W83826  32.320  30.600  14.299
18666W        W83827  16.092  33.950  12.161
18667W        W83828  25.197   4.742   1.465
18668W        W83829  32.886   2.199   0.804
18669W        W83830  16.323  37.447  11.663
18670W        W83831  22.018  38.681   9.795
18671W        W83832  15.011  24.614  12.893
18672W        W83833  43.861  13.823  12.021
18673W        W83834  26.872  19.809  10.921
18674W        W83835  17.622  35.223  13.318
18675W        W83836  34.269   2.362   3.208
18676W        W83837  42.104  23.022  14.870
18677W        W83838  21.370   7.901   5.115
18678W        W83839  36.498  12.584  12.488
18679W        W83840  18.885   2.789  14.339
18680W        W83841  25.818   6.227  11.521
18681W        W83842  25.725  24.404   3.607
18682W        W83843  38.406  27.394  14.495
18683W        W83844  37.931   1.950   2.465
18684W        W83845  27.624  41.729  14.558
18685W        W83846  15.834   0.857   1.918
18686W        W83847  14.373  10.288  11.429
18687W        W83848  35.787   5.859  13.144
18688W        W83849  37.178  23.481   2.684
18689W        W83850  15.291  18.670  10.535
18690W        W83851  15.115  30.461   2.127
18691W        W83852  15.610  15.614   4.562
18692W        W83853   2.747  14.580  14.352
18693W        W83854  11.517  18.528  11.156
18694W        W83855   0.779   2.084   0.796
18695W        W83856  33.086  24.453  14.898
18696W        W83857  25.700  18.875   3.234
18697W        W83858  43.864  12.884  12.970
18698W        W83859  31.805  26.818   2.907
18699W        W83860  34.055   9.369   0.921
18700W        W83861  33.805   1.346   4.117
18701W        W83862  17.015  44.309   5.372
18702W        W83863   1.926   9.501   2.858
18703W        W83864  21.783  16.038   1.310
18704W        W83865   0.297  27.921   1.804
18705W        W83866   9.905  38.353   2.306
18706W        W83867  36.672   8.763   0.424
18707W        W83868  38.734  13.191  12.011
18708W        W83869  36.999  30.141  12.849
18709W        W83870  11.236  29.414   3.229
18710W        W83871  38.820   3.510   1.643
18711W        W83872  21.369  29.651  14.888
18712W        W83873  16.151   2.708   3.718
18713W        W83874   3.800   8.950   3.220
18714W        W83875  36.492  17.569   2.772
18715W        W83876  10.679  19.413   2.343
18716W        W83877  38.521  18.313   1.761
18717W        W83878  42.483   5.129   3.709
18718W        W83879   6.224  33.961  13.027
18719W        W83880  21.093  28.004   3.341
18720W        W83881  25.198  34.948   2.773
18721W        W83882  20.661  38.326   0.508
18722W        W83883   0.748  30.891  13.924
18723W        W83884  35.334  23.184  13.519
18724W        W83885   4.726  19.596   1.978
18725W        W83886  33.579  29.401  14.447
18726W        W83887  10.068  24.190  14.310
18727W        W83888   5.421  40.855   0.550
18728W        W83889   5.550  26.408   4.388
18729W        W83890  44.262  40.986   1.417
18730W        W83891  38.298  39.941   2.157
18731W        W83892  11.730  22.314   2.918
18732W        W83893   3.643  32.529   2.143
18733W        W83894  22.244  37.915  12.430
18734W        W83895  10.453  33.646  13.718
18735W        W83896  18.109  33.305   4.654
18736W        W83897  12.784  36.373  11.131
18737W        W83898  26.177  24.481   1.294
18738W        W83899  42.945   6.654  11.505
18739W        W83900   2.240  14.912   3.692
18740W        W83901   0.800  41.798  13.412
18741W        W83902  34.984  10.675   2.488
18742W        W83903  34.790   8.394  11.142
18743W        W83904  13.880  13.383  13.583
18744W        W83905   8.760  40.404   2.754
18745W        W83906  16.208   5.125   3.229
18746W        W83907  30.377  21.351  13.443
18747W        W83908  27.306  19.113  11.206
18748W        W83909  28.492  25.653   1.820
18749W        W83910  16.387  10.235   2.067
18750W        W83911  32.217  40.033  13.008
18751W        W83912  11.165  24.072   0.234
18752W        W83913  20.485  36.907   2.194
18753W        W83914  14.158   9.619  12.393
18754W        W83915  20.035   4.389   0.481
18755W        W83916   5.528   9.203  10.952
18756W        W83917  30.182  25.211  11.918
18757W        W83918   2.857   3.822   4.069
18758W        W83919  17.097  18.421  11.152
18759W        W83920  43.670  19.886  13.416
18760W        W83921  35.503  18.554   4.624
18761W        W83922  21.263  24.618  14.453
18762W        W83923  15.288  38.802  11.093
18763W        W83924   8.299   6.827  12.869
18764W        W83925   0.380  39.703   4.420
18765W        W83926   0.414  24.983   3.657
18766W        W83927  29.490   6.182   1.952
18767W        W83928   6.366  17.251  11.713
18768W        W83929  38.770  28.543   4.688
18769W        W83930  13.229  39.496  11.162
18770W        W83931  11.662  40.445  13.530
18771W        W83932   4.702  29.619   3.295
18772W        W83933  37.627  19.941  10.971
18773W        W83934   8.374  25.611  12.877
18774W        W83935  17.081  27.089  10.396
18775W        W83936  32.450   4.402  13.159
18776W        W83937  14.090  39.842   9.944
18777W        W83938  12.177  31.665  12.548
18778W        W83939  18.950  35.525   0.505
18779W        W83940  12.865  34.573   2.242
18780W        W83941  33.841  21.060   3.727
18781W        W83942  17.119   5.710   2.371
18782W        W83943   2.294  34.871  13.534
18783W        W83944  10.118   8.377   0.945
18784W        W83945   2.233   0.772  14.603
18785W        W83946  34.018  43.861   2.588
18786W        W83947  21.229  40.447   4.809
18787W        W83948   2.304  36.404  11.191
18788W        W83949  44.583  29.720  14.750
18789W        W83950  19.054  21.312  13.456
18790W        W83951  14.337  37.912   4.475
18791W        W83952  12.368  37.450   3.609
18792W        W83953  42.711  20.661  13.060
18793W        W83954  23.583  38.579   1.209
18794W        W83955   7.926   3.957   3.137
18795W        W83956  18.234  27.552  11.745
18796W        W83957  38.586   9.926  11.203
18797W        W83958  36.527  21.762  13.735
18798W        W83959   9.542  40.428   2.309
18799W        W83960  27.732  30.645  14.022
18800W        W83961  18.111  29.426  13.630
18801W        W83962   7.533  24.076   0.526
18802W        W83963   9.660  31.413  14.906
18803W        W83964  24.089   1.197  13.492
18804W        W83965   6.674  10.789  14.957
18805W        W83966  43.233  10.358  11.878
18806W        W83967  16.010  18.657   9.847
18807W        W83968  13.540  32.402   3.705
18808W        W83969  23.355  36.330   0.817
18809W        W83970  38.819  39.968  14.040
18810W        W83971  13.971   2.445   4.128
18811W        W83972   4.317   0.016   1.780
18812W        W83973   6.972   1.519   2.933
18813W        W83974   0.843   6.524  12.826
18814W        W83975  24.861  10.153  14.160
18815W        W83976  39.606  24.455  12.382
18816W        W83977  11.173  21.867   4.783
18817W        W83978  29.998  20.423  11.997
18818W        W83979  23.906  25.218  14.039
18819W        W83980   7.750  13.851  12.551
18820W        W83981  21.661  36.352   0.721
18821W        W83982   6.406  36.121   3.542
18822W        W83983  16.159   8.636   0.916
18823W        W83984  25.865  29.854  13.979
18824W        W83985  37.711  28.592   3.037
18825W        W83986  29.012  25.846  14.513
18826W        W83987  19.838   8.271  10.751
18827W        W83988  18.231  29.590  14.626
18828W        W83989   7.667  43.807  13.152
18829W        W83990   9.452  38.085  10.857
18830W        W83991   8.875   8.713  10.643
18831W        W83992  29.979   1.380   3.800
18832W        W83993  14.859  21.268  11.166
18833W        W83994   9.887  18.823  11.635
18834W        W83995  18.985   0.785  13.121
18835W        W83996  38.521  11.996   1.395
18836W        W83997  44.697  12.862  13.215
18837W        W83998  26.379  42.459   1.624
18838W        W83999  29.633  21.926  10.650
18839W        W84000  39.128  23.353   1.342
18840W        W84001  14.656  36.949   0.011
18841W        W84002  10.225  39.277   4.617
18842W        W84003  43.109  32.809  10.674
18843W        W84004  19.679  35.032   3.176
18844W        W84005  43.781  14.550   2.335
18845W        W84006  27.031  14.615   4.502
18846W        W84007  16.623  13.028   3.102
18847W        W84008  33.462  39.046   0.935
18848W        W84009   3.186  40.779  11.983
18849W        W84010   1.280  13.299   2.840
18850W        W84011  17.497  35.166   4.519
18851W        W84012  20.672  38.744   3.288
18852W        W84013  33.848  36.338  14.323
18853W        W84014  14.262  18.594   0.331
18854W        W84015   5.976  30.886   5.046
18855W        W84016   3.953  36.992   1.952
18856W        W84017  19.688   1.802   1.426
18857W        W84018  31.554  38.119   1.881
18858W        W84019  36.932  37.614  12.771
18859W        W84020  30.587  39.226   4.163
18860W        W84021  39.409  20.113  10.713
18861W        W84022  23.214  14.330   4.215
18862W        W84023  21.629  38.604   4.130
18863W        W84024  23.208  31.424   0.794
18864W        W84025   2.659  40.107   2.305
18865W        W84026  29.377   7.699   2.718
18866W        W84027  42.269  14.052   4.207
18867W        W84028   2.708  16.117  14.846
18868W        W84029   8.775   2.971  11.895
18869W        W84030  13.336  15.860   4.632
18870W        W84031  17.839  28.942   2.330
18871W        W84032  42.327  24.467   0.618
18872W        W84033  37.729   8.766  11.239
18873W        W84034  16.591   1.429  11.985
18874W        W84035   6.503  14.876  12.261
18875W        W84036  33.022  35.002  13.591
18876W        W84037   5.789  20.054  14.510
18877W        W84038  40.834  26.493   2.919
18878W        W84039  26.884   7.890   4.457
18879W        W84040  32.335   8.894  11.225
18880W        W84041  27.662  12.270   4.961
18881W        W84042   0.921  14.068  12.127
18882W        W84043  32.708   7.320  11.898
18883W        W84044  36.299  41.027  14.331
18884W        W84045  12.406  19.131  12.031
18885W        W84046  27.449  43.060   1.282
18886W        W84047  18.102   6.946   2.235
18887W        W84048  16.617  25.710  13.905
18888W        W84049  24.660  21.412   4.575
18889W        W84050  31.345   8.666   0.959
18890W        W84051  26.361  10.100   1.003
18891W        W84052  29.694  41.577   3.652
18892W        W84053  17.233  36.477   5.205
18893W        W84054   3.665  25.906   0.270
18894W        W84055  34.913  25.537   4.472
18895W        W84056   3.465  14.891  12.705
18896W        W84057  11.891  25.019  10.929
18897W        W84058  22.084  42.559   2.706
18898W        W84059  37.529  41.613   2.128
18899W        W84060  35.610  37.072  12.213
18900W        W84061   5.469  40.427   1.852
18901W        W84062   9.290   6.950   1.944
18902W        W84063  34.113   6.198  14.349
18903W        W84064  34.383  44.459   3.103
18904W        W84065   8.677  13.882   2.285
18905W        W84066  37.414  32.795  10.863
18906W        W84067   0.653   6.979   3.165
18907W        W84068  12.143  27.202   3.662
18908W        W84069  26.382  26.332  10.049
18909W        W84070  44.483  24.685   0.850
18910W        W84071  22.071  28.508   4.573
18911W        W84072   9.633  34.305   3.895
18912W        W84073  22.155  35.469   4.261
18913W        W84074  19.159  14.739   2.730
18914W        W84075   9.188  26.194   2.276
18915W        W84076  34.936  29.984  11.618
18916W        W84077  22.866   0.441   3.322
18917W        W84078  13.927  26.717  11.704
18918W        W84079  24.083  10.640  13.480
18919W        W84080  39.450  35.462   0.971
18920W        W84081  20.183  33.723  11.116
18921W        W84082  25.398  24.039  12.642
18922W        W84083  35.452  15.927   3.671
18923W        W84084  41.436  23.141   3.465
18924W        W84085  20.578  34.523   2.342
18925W        W84086  16.804  42.970  13.596
18926W        W84087  28.963   5.795  13.624
18927W        W84088  33.048  35.203   3.011
18928W        W84089   6.377  29.433  14.852
18929W        W84090  32.388  27.582  11.848
18930W        W84091   2.432   0.804   4.706
18931W        W84092  43.115  28.164  11.561
18932W        W84093   8.653  40.534   3.228
18933W        W84094   2.974   4.312   2.453
18934W        W84095  32.601  36.921   1.762
18935W        W84096  44.182  34.052  10.276
18936W        W84097   6.217  35.854  10.475
18937W        W84098  17.197  40.166   0.781
18938W        W84099  33.213  13.161   4.091
18939W        W84100  13.747  19.824   2.232
18940W        W84101  19.688  28.433   3.358
18941W        W84102  25.773  24.909  10.683
18942W        W84103  17.990  32.691  13.574
18943W        W84104  15.420   8.413  14.373
18944W        W84105  36.430  18.736   4.619
18945W        W84106  37.008   3.892  14.984
18946W        W84107  37.131   6.197  11.989
18947W        W84108  21.001  20.658  14.835
18948W        W84109  23.945  33.948   2.327
18949W        W84110  29.614   9.899   2.432
18950W        W84111  38.806  37.212  14.545
18951W        W84112  38.902   5.794  13.184
18952W        W84113   1.051  21.856  12.704
18953W        W84114  23.078  39.786   3.148
18954W        W84115  15.833  25.512  13.281
18955W        W84116  29.437  34.909  12.437
18956W        W84117  14.826  26.980  14.969
18957W        W84118  10.081  41.376  11.098
18958W        W84119  20.308  22.502  14.707
18959W        W84120  17.935   5.866   4.579
18960W        W84121   2.739  36.485  11.452
18961W        W84122  33.293  21.218   4.752
18962W        W84123  39.067   2.033   4.527
18963W        W84124  31.380  34.900   1.405
18964W        W84125   8.893  13.025   4.953
18965W        W84126   2.431   0.379  10.710
18966W        W84127  30.884  35.468  14.267
18967W        W84128   8.399   8.334   2.244
18968W        W84129  24.544  41.804  13.511
18969W        W84130  28.684  26.495   1.063
18970W        W84131  11.679  13.242   3.884
18971W        W84132  13.672   3.523  14.002
18972W        W84133  17.312  15.748   5.426
18973W        W84134  37.189   7.172   1.919
18974W        W84135   9.657  28.962  14.784
18975W        W84136  33.358  41.000  14.387
18976W        W84137   7.268  15.634   3.737
18977W        W84138  10.306  28.931   1.532
18978W        W84139  12.641  14.254   3.302
18979W        W84140  23.239  17.666   4.955
18980W        W84141  23.712  31.580  11.557
18981W        W84142  12.437   9.759   0.821
18982W        W84143   7.744   4.928   3.284
18983W        W84144   8.607  42.038  13.347
18984W        W84145   4.957  18.234   2.700
18985W        W84146  42.483  10.300   4.348
18986W        W84147   4.088  42.366   1.361
18987W        W84148  28.571  40.000   1.621
18988W        W84149  31.415  13.733   2.330
18989W        W84150  25.668  34.725   3.937
18990W        W84151  10.315  14.557  14.508
18991W        W84152   2.729  10.462  11.512
18992W        W84153  23.028  35.620  10.872
18993W        W84154  37.278  29.547  11.556
18994W        W84155  10.821  32.855   3.482
18995W        W84156   3.812  21.139  11.850
18996W        W84157  14.242  14.649  14.839
18997W        W84158  17.202   6.878   2.658
18998W        W84159   1.719  32.954  11.306
18999W        W84160  29.974  30.904  11.304
19000W        W84161  22.907   4.161   3.704
19001W        W84162  29.575  30.420  14.053
19002W        W84163  23.954  16.199   0.825
19003W        W84164  16.803  12.526   3.650
19004W        W84165  37.536  22.511  14.523
19005W        W84166  17.305  27.718  11.602
19006W        W84167  21.011  36.584  12.021
19007W        W84168  10.749  26.045  12.978
19008W        W84169  10.733  11.248  14.052
19009W        W84170  11.862   2.613   2.405
19010W        W84171  34.064  31.505   1.920
19011W        W84172  17.272  18.521   3.758
19012W        W84173  40.936  22.458   0.527
19013W        W84174  44.244  34.113  13.370
19014W        W84175   0.851   1.903   2.914
19015W        W84176  13.046  40.744  12.578
19016W        W84177  27.553  19.158   0.964
19017W        W84178  29.446  15.080  11.701
19018W        W84179   7.411  25.797   3.117
19019W        W84180  37.092  11.902  11.198
19020W        W84181  11.196  13.009   3.123
19021W        W84182  20.172  31.132   4.522
19022W        W84183   9.553  43.476   3.428
19023W        W84184  12.802  22.139  14.040
19024W        W84185  43.383   0.732  11.812
19025W        W84186  23.663  14.103   3.478
19026W        W84187  39.059  34.370   2.850
19027W        W84188  34.411  29.436   2.764
19028W        W84189  41.071  30.861   2.185
19029W        W84190  28.795  24.689   3.210
19030W        W84191   7.269  35.914  12.109
19031W        W84192  42.769  41.329  10.569
19032W        W84193   4.224   9.302  10.793
19033W        W84194  31.218  26.140   0.702
19034W        W84195   7.696   3.016  12.566
19035W        W84196   2.715   3.926  11.975
19036W        W84197   5.873  35.409   4.718
19037W        W84198  39.431   3.414  12.761
19038W        W84199   8.425  21.605   1.535
19039W        W84200  21.676  19.161   5.247
19040W        W84201  44.926   9.882   0.076
19041W        W84202  27.254  18.760   0.783
19042W        W84203  13.921  33.567   2.689
19043W        W84204  30.658  28.920   3.257
19044W        W84205  33.734  13.143   4.104
19045W        W84206  13.709  11.409   0.871
19046W        W84207  37.471  13.699  14.494
19047W        W84208  36.350  10.981  10.697
19048W        W84209  39.399  25.210   3.368
19049W        W84210  20.015  22.256   3.254
19050W        W84211  15.249  36.015  11.759
19051W        W84212  20.348  25.529  11.581
19052W        W84213  39.435  25.440  12.567
19053W        W84214  26.193   0.247   1.259
19054W        W84215  26.065  24.232  11.956
19055W        W84216   3.185  26.025   2.806
19056W        W84217   7.758   9.527   4.392
19057W        W84218  21.906   6.749  11.010
19058W        W84219  28.439  10.337   1.859
19059W        W84220  25.455  20.045  14.856
19060W        W84221  32.355  30.946  11.579
19061W        W84222   9.694   6.341   2.776
19062W        W84223  26.340  10.632   0.995
19063W        W84224   3.761   6.515  13.140
19064W        W84225  21.515  43.448   3.099
19065W        W84226   2.394  21.020  13.336
19066W        W84227  33.634   6.542  12.142
19067W        W84228  15.110   0.389   1.590
19068W        W84229  42.995   4.740  14.363
19069W        W84230  36.557  17.739  13.029
19070W        W84231   4.833   9.505   1.276
19071W        W84232  12.219  44.108  13.337
19072W        W84233  19.774  11.737   3.172
19073W        W84234  16.310  33.620  10.102
19074W        W84235  18.865  35.942   2.224
19075W        W84236  33.573  13.640  12.979
19076W        W84237   4.908  19.678  14.841
19077W        W84238  38.752  19.371   2.263
19078W        W84239  18.516  11.259   0.527
19079W        W84240  28.604  35.541  12.546
19080W        W84241  41.368   4.713  13.319
19081W        W84242   5.693  37.276   3.047
19082W        W84243  32.903  38.289   1.738
19083W        W84244  37.343  36.944   0.896
19084W        W84245  14.209  21.289  11.887
19085W        W84246  25.027   0.312   2.788
19086W        W84247   6.843  32.384  11.061
19087W        W84248  31.232   4.964   3.756
19088W        W84249  26.147   5.836   3.190
19089W        W84250  36.542   2.181  10.772
19090W        W84251   5.883  10.345   4.284
19091W        W84252  11.795  13.487  13.233
19092W        W84253  39.065  35.469  10.652
19093W        W84254  25.573   4.583  10.897
19094W        W84255   6.863  14.138  11.678
19095W        W84256  37.251  30.516   2.926
19096W        W84257  39.959   7.686   1.405
19097W        W84258  41.494  42.639   3.102
19098W        W84259   2.128   2.571   4.171
19099W        W84260   4.665  15.861   4.612
19100W        W84261  16.624  34.777   4.545
19101W        W84262  44.879  25.871   4.498
19102W        W84263   7.544  21.744  11.889
19103W        W84264  42.594  44.748  13.995
19104W        W84265  40.595   4.793  11.463
19105W        W84266  14.828  24.225   0.320
19106W        W84267  15.980  11.624   1.865
19107W        W84268   9.256  19.312   0.096
19108W        W84269   6.150   3.398  12.387
19109W        W84270  20.671  43.079   0.762
19110W        W84271  22.558  11.901  11.635
19111W        W84272  30.214   0.821  13.983
19112W        W84273  22.686   4.727  10.548
19113W        W84274  26.207   9.554   4.030
19114W        W84275  24.417  22.986   0.440
19115W        W84276   7.031  20.708  11.412
19116W        W84277  24.673  21.757   3.636
19117W        W84278  28.701   4.193  13.032
19118W        W84279   6.075  30.032  14.191
19119W        W84280  21.762   0.375   2.822
19120W        W84281   7.728   8.936  14.022
19121W        W84282  14.720  26.868  13.471
19122W        W84283  21.994  20.829  11.026
19123W        W84284  16.630   2.941   3.718
19124W        W84285   4.306  35.438   1.958
19125W        W84286   1.238   2.335   0.088
19126W        W84287  12.150  15.662   2.342
19127W        W84288  40.850   1.520   0.010
19128W        W84289  32.142  24.055  10.594
19129W        W84290   4.762  20.805   4.064
19130W        W84291  32.025  35.652   0.209
19131W        W84292   0.065  41.574  12.404
19132W        W84293  23.988  14.635  12.499
19133W        W84294  19.852  24.493  14.533
19134W        W84295  39.859  28.839   0.498
19135W        W84296  25.064  17.825   4.124
19136W        W84297  28.643  32.590  11.206
19137W        W84298  27.662  29.086   3.102
19138W        W84299  25.481  39.309   2.773
19139W        W84300  37.762   2.577   4.304
19140W        W84301  27.114   0.400  13.280
19141W        W84302  25.541  30.837  14.658
19142W        W84303  11.176   8.308   0.470
19143W        W84304   1.572  23.827  11.286
19144W        W84305  42.442  42.175   0.327
19145W        W84306   5.002  10.587   2.246
19146W        W84307  13.226  36.676   0.783
19147W        W84308   6.007  28.531   5.084
19148W        W84309  44.377  17.655   3.203
19149W        W84310  25.393  15.125  10.931
19150W        W84311  38.869   5.481   0.440
19151W        W84312  26.701  25.667  11.989
19152W        W84313  12.264  36.855   1.843
19153W        W84314   9.743   6.814  11.590
19154W        W84315  31.899  31.063   3.200
19155W        W84316  25.584  25.697   4.230
19156W        W84317  19.981  39.311  14.734
19157W        W84318  40.424  22.828   1.755
19158W        W84319  18.785   1.400   1.362
19159W        W84320   2.505  16.340  12.567
19160W        W84321   6.247  17.844  13.477
19161W        W84322  41.560  34.024   3.661
19162W        W84323  33.497  17.769  12.015
19163W        W84324  24.507  21.692  14.749
19164W        W84325  37.881  31.516  14.989
19165W        W84326  26.707   6.706  14.468
19166W        W84327   6.557  31.345  13.394
19167W        W84328   5.660  11.884   3.700
19168W        W84329  24.296  38.307  13.012
19169W        W84330  44.790   5.231  12.133
19170W        W84331  17.484  14.777   0.250
19171W        W84332  38.538   0.465  11.657
19172W        W84333  22.626  25.502   3.087
19173W        W84334  27.617  29.467   0.487
19174W        W84335  33.000  15.602   2.754
19175W        W84336   3.038   3.402   3.320
19176W        W84337  42.207   3.474  10.686
19177W        W84338  20.635  32.539  10.433
19178W        W84339   4.747  35.761  14.277
19179W        W84340  29.468   6.902   0.803
19180W        W84341  23.944  41.586   0.735
19181W        W84342  18.297  15.368  11.820
19182W        W84343  18.516   0.050   0.121
19183W        W84344  12.711  15.084  11.595
19184W        W84345  36.383  23.465   3.223
19185W        W84346   3.675   4.980  12.828
19186W        W84347   1.745  17.995   0.316
19187W        W84348   0.277   3.647   0.355
19188W        W84349   6.203   4.812  10.268
19189W        W84350  11.630  32.510   1.686
19190W        W84351   2.181   7.307   4.951
19191W        W84352  28.600  16.109  10.632
19192W        W84353  30.166   9.227   4.432
19193W        W84354  37.967  31.493  14.312
19194W        W84355  43.445  11.022   0.388
19195W        W84356   4.155  25.767  12.808
19196W        W84357  15.097  38.211  12.905
19197W        W84358  16.755   8.398   2.417
19198W        W84359  39.550   7.298   4.534
19199W        W84360  15.406  24.533  11.946
19200W        W84361  31.109   9.731   3.950
19201W        W84362  36.034   9.372   3.955
19202W        W84363  15.643   9.182   0.254
19203W        W84364  12.680  40.454  13.356
19204W        W84365  15.550  35.300  12.498
19205W        W84366  23.170  10.779  14.871
19206W        W84367   6.286  18.597   2.719
19207W        W84368  21.679  23.440   1.238
19208W        W84369  15.565   5.279  10.951
19209W        W84370  36.033   4.003   3.901
19210W        W84371  21.728  27.415  12.403
19211W        W84372  11.610  18.045   0.977
19212W        W84373  39.653  19.988   1.240
19213W        W84374  33.385   9.135   4.798
19214W        W84375   2.030  41.830  13.439
19215W        W84376  15.279  27.649   0.693
19216W        W84377   9.715  28.102   0.907
19217W        W84378   6.004   7.461   2.256
19218W        W84379  43.967  17.902  13.762
19219W        W84380   4.894  10.178  11.605
19220W        W84381  25.649   6.340   2.305
19221W        W84382  17.723  34.004   4.115
19222W        W84383  38.498  30.412   2.455
19223W        W84384  36.534  23.067   3.792
19224W        W84385  30.949  36.816   2.250
19225W        W84386  28.002  36.888   4.814
19226W        W84387  23.728  21.641   2.366
19227W        W84388  35.073  40.425  14.092
19228W        W84389  39.934   6.768   2.849
19229W        W84390  18.552  44.915   4.728
19230W        W84391  20.458  22.580   1.062
19231W        W84392  28.883   7.745  14.803
19232W        W84393  32.509  35.461  10.806
19233W        W84394  36.889  29.980   3.758
19234W        W84395   8.370  33.365  12.142
19235W        W84396   9.017  10.690  12.438
19236W        W84397  30.480  28.945  11.516
19237W        W84398  18.274   9.867  11.594
19238W        W84399  26.979  29.604  12.482
19239W        W84400  10.673   0.564  14.449
19240W        W84401  32.185  31.090  11.087
19241W        W84402  40.338   8.236  11.593
19242W        W84403  37.116  29.903  11.888
19243W        W84404  37.856  37.038   4.069
19244W        W84405  28.465  32.586   1.563
19245W        W84406   6.287  22.954   4.073
19246W        W84407  31.069  41.411  12.553
19247W        W84408  34.544   7.044  10.830
19248W        W84409  40.586  14.106  11.043
19249W        W84410  26.625  37.339  10.386
19250W        W84411  28.581  18.691   2.373
19251W        W84412  15.830   0.442  11.212
19252W        W84413   9.262   9.308  13.072
19253W        W84414  31.967  19.267   2.138
19254W        W84415   2.175  22.679  13.817
19255W        W84416  40.087  14.222   4.563
19256W        W84417  20.906   1.648   1.015
19257W        W84418  22.716   6.659  12.550
19258W        W84419  42.897  44.809  10.899
19259W        W84420  11.183  18.316   1.116
19260W        W84421  44.141  44.225   0.848
19261W        W84422  16.517  31.356   2.135
19262W        W84423  41.484   0.286   1.384
19263W        W84424   5.673  34.639   0.256
19264W        W84425  37.987   6.114  12.426
19265W        W84426  36.353  44.497   0.917
19266W        W84427  32.785  13.902  13.393
19267W        W84428   2.289  27.245   4.673
19268W        W84429  14.149  42.922   2.180
19269W        W84430   5.965  12.644  11.970
19270W        W84431  19.020  17.882   4.622
19271W        W84432   4.773  41.206   1.693
19272W        W84433  20.909   3.137  13.947
19273W        W84434  36.216  34.089   2.290
19274W        W84435  35.340  29.610  13.764
19275W        W84436   3.772   7.189   2.682
19276W        W84437  10.671  15.885   4.511
19277W        W84438  40.866  24.584   1.985
19278W        W84439   2.907  22.536   2.380
19279W        W84440  39.149  44.597   1.424
19280W        W84441  39.342  44.278  14.271
19281W        W84442  40.591   2.761   0.671
19282W        W84443  36.621   1.316   2.713
19283W        W84444  31.525  39.095   4.976
19284W        W84445  38.503   2.912  10.924
19285W        W84446  29.094   3.013  14.443
19286W        W84447   9.178   0.737  13.451
19287W        W84448   7.743   5.169  12.107
19288W        W84449  16.320  37.140  12.407
19289W        W84450  21.603  40.876  10.684
19290W        W84451  31.379  22.135  11.953
19291W        W84452  37.645   4.986   3.405
19292W        W84453   2.168  16.618   3.189
19293W        W84454  44.690  18.063   3.461
19294W        W84455  31.823  39.087   3.688
19295W        W84456  14.585  39.889   9.791
19296W        W84457  13.871  18.026  11.390
19297W        W84458  37.663   0.161   2.655
19298W        W84459  21.649   4.449   1.076
19299W        W84460  19.205   4.720  14.095
19300W        W84461  22.588  31.007  10.356
19301W        W84462   4.018   9.915  13.505
19302W        W84463   0.911  15.959  10.021
19303W        W84464   5.495  36.547  10.894
19304W        W84465  40.441   4.624   2.915
19305W        W84466  39.501  26.641   0.658
19306W        W84467  36.974  26.448  10.972
19307W        W84468  44.605  29.446  12.731
19308W        W84469   1.885  30.917  10.763
19309W        W84470  27.041   0.932  11.389
19310W        W84471  38.396   3.377   1.876
19311W        W84472  22.878  41.886  11.527
19312W        W84473  37.085  23.697  11.457
19313W        W84474  22.310  10.868  11.477
19314W        W84475  10.837   1.681  11.690
19315W        W84476   6.768  12.620  12.542
19316W        W84477  34.186  15.030  12.067
19317W        W84478   3.012   9.206   1.503
19318W        W84479  37.100   1.244   0.308
19319W        W84480  34.628   5.982  12.457
19320W        W84481  10.404  27.729   0.774
19321W        W84482   8.116  23.599   1.745
19322W        W84483  14.184   5.218   0.070
19323W        W84484  16.933  40.329   4.461
19324W        W84485  23.987   3.337  11.515
19325W        W84486   4.325  36.379   2.400
19326W        W84487  33.612   6.417  11.270
19327W        W84488  36.016  18.414   4.657
19328W        W84489  11.008  23.974   2.906
19329W        W84490   8.006  32.191   2.318
19330W        W84491  27.139  20.214   3.760
19331W        W84492  32.838  23.041   2.758
19332W        W84493   4.873  15.476   1.675
19333W        W84494   8.292   7.918  10.700
19334W        W84495   4.953  28.088   4.604
19335W        W84496  15.596  32.336  10.697
19336W        W84497  21.497  30.371   4.595
19337W        W84498  40.355  12.716   2.329
19338W        W84499  39.888  38.026  11.236
19339W        W84500   7.100  24.102   2.674
19340W        W84501  38.521   2.104  14.403
19341W        W84502  28.779  35.820  13.939
19342W        W84503  31.760  14.287  12.728
19343W        W84504  39.947  43.041   0.833
19344W        W84505   9.388  39.407  12.906
19345W        W84506  27.660   8.156   4.037
19346W        W84507   7.436   3.693  13.301
19347W        W84508  13.148   3.312  10.609
19348W        W84509  33.013  41.567  12.875
19349W        W84510  16.692   4.286  11.685
19350W        W84511  32.677   3.499  13.757
19351W        W84512  16.987  11.324  13.381
19352W        W84513   0.185  35.437   1.527
19353W        W84514  41.077  28.753  14.454
19354W        W84515  41.569  30.597   3.559
19355W        W84516  11.736   9.962   3.753
19356W        W84517  36.545  34.450  11.568
19357W        W84518  24.623  37.861   0.308
19358W        W84519  29.477  30.476   0.993
19359W        W84520   1.815  10.567  11.511
19360W        W84521   1.799  42.081  12.088
19361W        W84522  42.311  21.601   0.755
19362W        W84523  38.816  17.242   3.791
19363W        W84524  34.009  23.545  12.968
19364W        W84525   4.980  29.208  10.271
19365W        W84526  32.875   1.980  14.287
19366W        W84527   4.339  23.847  11.689
19367W        W84528   0.984  14.275   2.737
19368W        W84529  16.966  38.922   3.305
19369W        W84530  44.912   1.650   2.058
19370W        W84531  41.498  27.597   2.881
19371W        W84532   6.356  44.958  14.366
19372W        W84533  41.859  31.453   2.246
19373W        W84534  16.887  24.721  10.354
19374W        W84535  36.011  17.328   2.754
19375W        W84536  23.359  23.039  13.902
19376W        W84537  35.173   0.006   1.791
19377W        W84538   7.399   4.186  13.909
19378W        W84539  20.671  18.343  11.242
19379W        W84540  21.413  22.112   0.426
19380W        W84541  13.775  44.578   0.982
19381W        W84542   3.966  10.701  12.111
19382W        W84543  19.772   8.663  12.484
19383W        W84544  32.623  15.789   0.202
19384W        W84545  41.930  27.966   3.735
19385W        W84546  43.829  44.818   4.197
19386W        W84547  24.519  22.681   0.892
19387W        W84548  41.782  28.823  12.531
19388W        W84549  43.431  32.049   2.459
19389W        W84550   7.597  19.973  12.982
19390W        W84551  29.092  30.036  12.526
19391W        W84552  31.368  21.693  13.430
19392W        W84553  18.635  40.862  13.963
19393W        W84554  41.468   3.282  13.014
19394W        W84555   3.862  37.972  12.795
19395W        W84556  29.685  12.794  12.035
19396W        W84557  35.853  18.156  14.828
19397W        W84558  28.499  29.485  10.688
19398W        W84559  29.948  32.577  11.624
19399W        W84560  24.613  18.859   3.369
19400W        W84561  36.924  11.924   3.748
19401W        W84562  15.365  33.353   3.651
19402W        W84563  34.060  44.289  13.486
19403W        W84564  10.916  28.096  12.174
19404W        W84565  17.188  14.336   3.312
19405W        W84566  26.544  17.053  10.654
19406W        W84567  43.867  18.665   4.953
19407W        W84568  31.719  22.215  14.830
19408W        W84569  20.937  38.864  14.886
19409W        W84570   8.877  43.745  10.616
19410W        W84571  32.405  44.474   0.465
19411W        W84572  42.102  17.596  14.331
19412W        W84573  17.874  37.962  11.092
19413W        W84574  44.260   2.033  11.173
19414W        W84575  18.904  24.521   2.950
19415W        W84576  20.442  31.281   3.097
19416W        W84577   2.003  23.459   1.860
19417W        W84578  35.410  36.277   1.458
19418W        W84579  18.115  43.986  10.897
19419W        W84580  23.578   5.394   1.870
19420W        W84581  30.427  44.939  10.890
19421W        W84582   0.895  31.478  11.247
19422W        W84583   0.754  23.602  11.922
19423W        W84584  20.836   9.223   1.394
19424W        W84585  32.908  19.053   3.491
19425W        W84586  23.440  22.182   1.315
19426W        W84587   8.438  21.653   1.015
19427W        W84588  33.044  41.949  14.961
19428W        W84589  18.996   1.867   3.769
19429W        W84590  21.634  19.240   1.390
19430W        W84591  25.664  42.614   4.226
19431W        W84592  43.533  23.912  13.990
19432W        W84593  28.885   5.851  11.164
19433W        W84594  29.708  23.821  13.042
19434W        W84595  27.281   6.844  13.424
19435W        W84596  16.543  11.303  13.106
19436W        W84597   4.885  24.973   5.717
19437W        W84598  42.516  23.603   4.030
19438W        W84599  26.913   4.726   0.236
19439W        W84600   0.556  25.219   1.748
19440W        W84601  22.152  25.762  13.101
19441W        W84602  35.490  22.794  13.911
19442W        W84603  43.181  28.789  11.147
19443W        W84604  25.209  37.905   2.727
19444W        W84605   1.809  28.406  12.533
19445W        W84606  22.297  25.559   4.377
19446W        W84607  14.534  15.545   3.782
19447W        W84608  28.001   1.494  13.808
19448W        W84609  16.030  10.875   2.162
19449W        W84610  40.302  35.205   1.325
19450W        W84611  41.753  30.973   3.235
19451W        W84612  37.769  39.926  14.951
19452W        W84613  41.494  23.209  11.338
19453W        W84614  39.331  29.716  12.495
19454W        W84615  38.934  24.418   3.155
19455W        W84616  20.209   3.220   1.407
19456W        W84617  35.045  33.575  13.121
19457W        W84618  34.214   2.048   2.341
19458W        W84619  38.391  17.731  12.076
19459W        W84620  21.591   3.933   1.203
19460W        W84621  33.777  24.750   3.210
19461W        W84622  42.359  39.857  14.062
19462W        W84623  32.929  25.833   2.790
19463W        W84624  41.309  40.533   1.778
19464W        W84625  11.612  14.111   3.339
19465W        W84626  18.032  36.590   2.263
19466W        W84627  10.405  41.503   0.399
19467W        W84628  43.939  22.454  11.290
19468W        W84629  33.132  17.217  11.425
19469W        W84630   2.960  29.432  11.176
19470W        W84631  44.475  26.964  11.518
19471W        W84632  15.701  19.039   3.386
19472W        W84633  27.093   1.353   1.409
19473W        W84634  24.602  12.840  13.161
19474W        W84635  22.718  10.127   2.676
19475W        W84636  42.547  41.484  13.497
19476W        W84637   8.351  38.530  14.205
19477W        W84638  44.822  23.492   1.912
19478W        W84639   3.223  29.522   2.431
19479W        W84640  21.680  17.706  11.487
19480W        W84641   3.990  36.047   2.669
19481W        W84642  19.374  19.238   4.606
19482W        W84643  37.271  14.615   0.902
19483W        W84644   6.125  35.556  13.421
19484W        W84645  35.616   5.795  13.617
19485W        W84646  37.476  19.199  14.504
19486W        W84647  12.756  10.369  14.999
19487W        W84648  28.979  41.927  11.081
19488W        W84649   4.823  17.044   1.791
19489W        W84650  23.705   4.331  10.822
19490W        W84651  15.746  21.151  10.996
19491W        W84652  35.063  21.301   0.979
19492W        W84653  42.619  41.890   4.288
19493W        W84654   8.440  33.081   2.299
19494W        W84655  29.925   8.017  11.973
19495W        W84656  12.081  20.208   0.471
19496W        W84657  33.471  26.503   2.984
19497W        W84658  10.827  31.556   2.711
19498W        W84659   5.856   4.341   2.872
19499W        W84660  14.047  41.547   2.290
19500W        W84661  29.903  35.532  12.090
19501W        W84662  11.680  31.227   1.177
19502W        W84663   8.821  40.335   3.684
19503W        W84664  13.223   8.300   1.425
19504W        W84665  26.807  26.868  12.439
19505W        W84666   4.957   3.198  10.807
19506W        W84667  22.574  14.198   2.810
19507W        W84668  24.745   1.194  10.784
19508W        W84669  37.278  22.120   0.326
19509W        W84670  38.482  17.300   0.780
19510W        W84671  14.654  42.296   2.724
19511W        W84672  32.146  39.311  12.630
19512W        W84673  40.256  25.627   2.344
19513W        W84674  13.141  21.905  11.124
19514W        W84675   2.271  19.756  12.711
19515W        W84676  34.587  37.928  14.295
19516W        W84677  34.080  31.607  10.531
19517W        W84678  39.932  37.085   4.691
19518W        W84679  23.263  10.949  14.388
19519W        W84680  10.263  24.556  10.057
19520W        W84681   1.314  37.570  13.028
19521W        W84682  39.404   3.867  12.523
19522W        W84683   1.455  28.745  14.853
19523W        W84684  44.551  28.351   4.928
19524W        W84685  19.512  12.140   3.087
19525W        W84686  35.544  41.250   1.226
19526W        W84687  35.058  34.566  10.058
19527W        W84688  18.268   4.747  10.179
19528W        W84689  22.643  42.911   0.715
19529W        W84690  12.854  26.621   1.123
19530W        W84691  34.014   9.891   0.978
19531W        W84692  12.344  21.118  13.939
19532W        W84693  13.278  28.744  11.168
19533W        W84694  24.609  25.037  11.504
19534W        W84695   3.046  32.023  14.062
19535W        W84696  42.851  42.478  10.428
19536W        W84697  13.626  15.607  13.729
19537W        W84698   8.419   4.266   2.479
19538W        W84699   0.507   0.826   4.235
19539W        W84700  14.319  39.302  12.636
19540W        W84701  41.047  31.637   3.880
19541W        W84702  39.604   6.620   2.442
19542W        W84703  42.783  15.786   3.523
19543W        W84704  42.482  12.149   4.990
19544W        W84705   2.909  44.946  12.941
19545W        W84706  30.203  38.242   0.054
19546W        W84707  18.668  24.736   3.936
19547W        W84708  21.522  43.011   3.355
19548W        W84709  31.075  20.633   1.710
19549W        W84710  24.025  16.189  13.963
19550W        W84711   3.994  32.385  14.939
19551W        W84712  29.471   7.656   0.297
19552W        W84713   4.653  39.726   0.034
19553W        W84714   0.236  32.235  14.982
19554W        W84715  32.489  30.932  13.366
19555W        W84716   3.510  11.796  10.794
19556W        W84717  17.792  15.776   2.908
19557W        W84718   7.429  26.886   1.413
19558W        W84719  44.284  16.203  14.940
19559W        W84720  31.539   4.250  10.848
19560W        W84721  38.958   8.670  12.939
19561W        W84722   4.233  32.943  10.712
19562W        W84723   7.300  19.766  12.298
19563W        W84724   2.321  29.791   9.878
19564W        W84725   3.945  13.548  12.105
19565W        W84726  10.393  12.134   4.368
19566W        W84727  21.232  28.428   1.204
19567W        W84728  18.100  27.775   1.941
19568W        W84729  16.132  41.585  11.137
19569W        W84730  10.847  40.392   2.224
19570W        W84731  30.167  43.390   4.048
19571W        W84732  21.699  37.317   4.010
19572W        W84733  26.255  35.045   4.604
19573W        W84734  20.324   6.366   4.514
19574W        W84735  41.258  23.733   4.598
19575W        W84736  15.073  25.426   3.648
19576W        W84737  19.071   2.284  14.389
19577W        W84738  15.307  44.957   1.832
19578W        W84739  33.952  22.784   4.078
19579W        W84740   2.537  25.606   3.743
19580W        W84741  19.500  24.750   0.911
19581W        W84742  25.031  38.102  12.083
19582W        W84743  10.349  44.936  10.915
19583W        W84744  17.572  12.476   4.166
19584W        W84745  21.582   5.468  11.441
19585W        W84746  38.288  24.232   1.386
19586W        W84747  22.038  17.843  14.407
19587W        W84748  41.567  24.635   4.170
19588W        W84749  13.774  33.481  14.473
19589W        W84750  26.498  11.730   3.650
19590W        W84751  28.030  19.787   0.514
19591W        W84752  43.520  13.302   1.616
19592W        W84753  11.585  44.671  12.527
19593W        W84754   0.274   3.371   4.693
19594W        W84755  19.239  13.275  12.086
19595W        W84756   0.047  30.021   0.543
19596W        W84757  22.129  26.832  10.169
19597W        W84758  39.904  15.225  13.115
19598W        W84759  29.080   9.912  10.249
19599W        W84760  29.417  42.056  14.032
19600W        W84761  19.153  14.014  11.609
19601W        W84762  26.493  19.913   1.813
19602W        W84763  36.203  24.856   1.672
19603W        W84764  39.389  36.658  11.657
19604W        W84765   9.384  42.751  12.420
19605W        W84766  35.049   2.332  11.652
19606W        W84767   0.414  14.356   0.897
19607W        W84768  14.472  44.275   1.738
19608W        W84769   3.211  23.964  11.065
19609W        W84770  10.894   0.666  14.902
19610W        W84771   2.448  40.764   5.163
19611W        W84772  30.035  33.096  11.919
19612W        W84773   7.796  20.224  11.950
19613W        W84774  13.608  37.551   1.991
19614W        W84775   6.696   5.893  11.174
19615W        W84776  26.761  18.313  14.354
19616W        W84777  27.630   4.927   1.210
19617W        W84778  43.544  28.813   3.257
19618W        W84779   4.484  13.783  13.407
19619W        W84780  12.201  17.150   1.782
19620W        W84781  33.770  29.291  13.393
19621W        W84782   3.252  27.450  13.982
19622W        W84783  43.907  17.846   2.875
19623W        W84784  18.602  39.926  12.049
19624W        W84785   7.912  44.136   5.314
19625W        W84786  20.682  44.416  11.118
19626W        W84787   5.790   7.811   3.855
19627W        W84788  15.567   9.307  12.919
19628W        W84789  24.233   1.272   4.846
19629W        W84790  40.102   4.597  11.463
19630W        W84791  35.943  41.545  10.714
19631W        W84792   6.224  11.411  12.985
19632W        W84793  44.224  26.571  11.753
19633W        W84794  15.375  40.337  14.052
19634W        W84795  34.941  20.177   0.404
19635W        W84796   6.779   4.405  10.452
19636W        W84797   4.168  42.395  12.797
19637W        W84798  21.159  43.320   1.820
19638W        W84799  28.649  10.949  11.604
19639W        W84800  15.742   9.423  14.439
19640W        W84801  18.762  44.564   2.513
19641W        W84802  35.527  25.601  11.859
19642W        W84803  39.316  33.099  13.798
19643W        W84804  37.886  11.448  13.495
19644W        W84805  27.922  10.670   0.880
19645W        W84806  14.275  14.582   4.689
19646W        W84807  30.960  24.288  12.423
19647W        W84808   3.499  43.341  12.014
19648W        W84809   7.829  29.610  12.803
19649W        W84810  32.978  25.484  12.185
19650W        W84811  13.327   5.817   3.606
19651W        W84812   2.147  44.562  11.232
19652W        W84813  34.397  16.355   3.151
19653W        W84814  42.737  12.904   4.926
19654W        W84815  37.136  29.508   3.776
19655W        W84816  23.399  12.776   2.234
19656W        W84817  26.958   9.337   2.282
19657W        W84818  33.451  26.641   2.425
19658W        W84819  42.374   1.096  12.152
19659W        W84820  23.363  32.674  11.512
19660W        W84821  39.409   4.148   1.411
19661W        W84822  41.472  42.404  12.371
19662W        W84823  21.629  13.285   5.149
19663W        W84824  11.287  40.287   3.766
19664W        W84825   5.815  32.484   1.804
19665W        W84826  18.719  27.782   0.301
19666W        W84827  25.552   6.283   3.787
19667W        W84828  11.905  44.335  12.743
19668W        W84829  44.432  36.505   0.808
19669W        W84830  33.738  26.355   3.623
19670W        W84831  32.408  41.564   3.380
19671W        W84832  10.833  31.841   2.156
19672W        W84833  37.935  28.558  14.013
19673W        W84834   5.854  15.616   3.069
19674W        W84835  39.057  14.501  12.565
19675W        W84836  31.922  32.393   4.551
19676W        W84837  17.175   9.283   1.193
19677W        W84838  16.656  36.263  13.111
19678W        W84839   1.449   6.473  14.504
19679W        W84840  36.457  17.525  10.423
19680W        W84841   4.901  32.831  14.739
19681W        W84842  35.651  10.297  14.980
19682W        W84843   8.558  40.774   3.670
19683W        W84844  41.618  25.192  12.875
19684W        W84845  22.185   4.252  14.365
19685W        W84846  25.991   1.290  12.397
19686W        W84847   5.111  43.215   2.867
19687W        W84848  39.344  36.505  14.332
19688W        W84849  39.559   9.929   1.096
19689W        W84850  37.086  11.476   1.258
19690W        W84851  16.085  21.088  11.953
19691W        W84852  11.234  36.808  11.635
19692W        W84853  26.171  14.658  12.815
19693W        W84854  17.691  15.930  12.108
19694W        W84855  25.089  31.618   1.131
19695W        W84856   3.048  41.272  13.015
19696W        W84857  18.802  41.681  12.982
19697W        W84858  21.008  21.043  10.303
19698W        W84859  20.856  36.686  11.159
19699W        W84860  21.975  17.853  12.941
19700W        W84861  30.566  38.485   0.375
19701W        W84862  35.385  44.447  12.561
19702W        W84863  41.954  20.748   0.189
19703W        W84864   0.432   7.288  12.591
19704W        W84865  43.351  10.515  13.930
19705W        W84866  23.626  31.852   3.904
19706W        W84867  13.661  39.343   3.318
19707W        W84868   3.328  35.336  12.503
19708W        W84869  38.936  30.167  10.659
19709W        W84870  11.284  23.751  14.824
19710W        W84871  21.983   7.834   3.894
19711W        W84872   1.538  23.278   1.915
19712W        W84873   4.537  21.440  13.823
19713W        W84874   3.773   6.205   3.504
19714W        W84875   3.739  30.657   2.579
19715W        W84876   2.677  11.535  10.711
19716W        W84877  24.549  17.985  12.490
19717W        W84878  40.107  22.177   4.521
19718W        W84879  14.278   4.939  14.047
19719W        W84880  32.778   4.031  14.395
19720W        W84881  19.980  21.147  12.352
19721W        W84882  22.181   5.054   1.710
19722W        W84883  15.507  20.209   4.002
19723W        W84884  40.892  33.334  12.583
19724W        W84885  20.266  10.429  12.261
19725W        W84886  30.108  12.036   4.550
19726W        W84887  20.669   3.535   2.742
19727W        W84888  44.955  22.357  11.318
19728W        W84889  32.004   7.033   3.070
19729W        W84890  11.902  27.181  13.387
19730W        W84891  37.341  32.682  11.351
19731W        W84892   2.812  32.400   4.593
19732W        W84893  19.226  27.724  14.567
19733W        W84894  33.490  39.962   3.776
19734W        W84895   6.940   0.698  13.010
19735W        W84896  10.810  35.386   3.184
19736W        W84897  12.651  28.405   1.742
19737W        W84898  29.525  10.075  11.303
19738W        W84899  14.621  17.935  10.706
19739W        W84900  33.584  40.302   1.773
19740W        W84901  29.701  37.984  12.620
19741W        W84902  39.431  15.037  12.161
19742W        W84903   7.637   2.592  14.950
19743W        W84904  28.084  36.921   1.276
19744W        W84905  42.933  30.826   3.775
19745W        W84906   4.143  28.166  13.655
19746W        W84907  25.697  35.433  11.152
19747W        W84908   7.366  37.058   3.562
19748W        W84909  12.759  42.893   3.354
19749W        W84910  14.708  11.894  10.285
19750W        W84911  43.554  13.321   3.670
19751W        W84912  38.329  40.253  14.319
19752W        W84913   4.778  43.741   3.862
19753W        W84914  38.720   7.375   1.724
19754W        W84915   8.300  16.114   1.690
19755W        W84916  28.567  41.015   3.523
19756W        W84917  29.259  13.389   3.333
19757W        W84918  31.389  26.259  13.741
19758W        W84919   2.492  21.034   1.204
19759W        W84920  42.534   1.425   4.478
19760W        W84921  40.307  35.040   2.663
19761W        W84922   0.167  33.201   4.477
19762W        W84923  31.107  22.965  14.755
19763W        W84924  32.090  40.599  11.192
19764W        W84925  35.430  27.981   4.570
19765W        W84926  23.225  13.428   1.613
19766W        W84927  28.930  20.345   1.737
19767W        W84928  31.977  44.443  11.488
19768W        W84929  22.942  20.077   3.107
19769W        W84930  12.801  33.699   2.278
19770W        W84931  20.797  14.592  14.062
19771W        W84932  24.420   1.571  14.943
19772W        W84933  38.813  39.013  14.825
19773W        W84934  13.895  31.171  11.931
19774W        W84935   9.316  31.232   1.445
19775W        W84936  34.165   9.222  13.563
19776W        W84937  27.219   6.756   3.302
19777W        W84938  36.055  29.205   0.590
19778W        W84939   8.264  39.888   1.686
19779W        W84940  28.484   8.512   2.377
19780W        W84941  25.448  21.700  11.618
19781W        W84942   3.736  26.988   1.335
19782W        W84943  28.259  40.813  12.469
19783W        W84944  44.042  14.282   4.608
19784W        W84945  18.147  12.905   3.645
19785W        W84946  31.638  34.213   0.025
19786W        W84947  33.076  15.199  11.834
19787W        W84948  12.369  42.570   0.456
19788W        W84949  28.443  22.978   9.962
19789W        W84950  14.870   6.248   2.295
19790W        W84951  38.573  26.842  14.429
19791W        W84952  30.064  20.340   4.671
19792W        W84953   4.062  38.222   1.200
19793W        W84954  33.739  39.230  14.823
19794W        W84955  41.816   4.634  14.492
19795W        W84956  38.370  25.065  12.950
19796W        W84957  34.805  21.047   3.890
19797W        W84958   9.672  24.163   5.157
19798W        W84959  38.431  19.348   1.810
19799W        W84960  24.524  32.468   1.357
19800W        W84961   2.322   3.368   3.742
19801W        W84962  44.995  11.662  14.248
19802W        W84963   4.441  36.616  11.086
19803W        W84964   7.863  19.613   1.260
19804W        W84965  38.469  23.996   0.512
19805W        W84966  12.837  13.300  14.927
19806W        W84967  22.313  11.182  11.901
19807W        W84968  19.607  19.018   0.522
19808W        W84969  18.036  28.616  12.612
19809W        W84970  16.799  25.564   4.597
19810W        W84971  25.936  10.819   3.637
19811W        W84972  36.901  26.936  10.844
19812W        W84973   9.653  13.882  12.011
19813W        W84974  31.826   0.430  10.606
19814W        W84975  22.029   2.422   1.689
19815W        W84976  10.765   6.325  12.136
19816W        W84977  15.071   5.335  13.896
19817W        W84978  34.919  26.960   1.193
19818W        W84979  15.705   0.421   3.787
19819W        W84980  32.890   4.898  12.500
19820W        W84981  17.598  42.068  12.151
19821W        W84982  22.079   7.438  11.905
19822W        W84983   5.522  15.496  13.265
19823W        W84984   8.544   6.513   0.974
19824W        W84985  24.211  11.337   2.478
19825W        W84986  36.095   7.783   1.235
19826W        W84987  42.967   3.227   1.729
19827W        W84988  16.290  29.633  12.016
19828W        W84989  34.794  29.586  13.888
19829W        W84990  15.849  44.056  11.953
19830W        W84991  26.652  37.222  10.913
19831W        W84992  20.227  11.644  13.323
19832W        W84993   7.897  35.271  11.222
19833W        W84994   3.961  43.403   4.231
19834W        W84995  18.506  23.082  12.379
19835W        W84996  18.111  43.469   2.204
19836W        W84997  24.591  44.491   2.681
19837W        W84998  30.469  30.195  13.117
19838W        W84999  16.561  17.234   2.783
19839W        W85000  33.975  43.987   4.032
19840W        W85001   4.241  21.598  14.216
19841W        W85002  21.325  34.018  11.191
19842W        W85003  13.859  12.544  11.651
19843W        W85004  38.750   6.170  12.867
19844W        W85005  33.202  15.852  14.132
19845W        W85006  22.721   2.007   1.807
19846W        W85007  10.862  37.991   4.306
19847W        W85008  32.461  22.152  11.981
19848W        W85009  15.141  23.057   4.631
19849W        W85010   3.020  25.075   3.885
19850W        W85011  14.793   8.811  11.892
19851W        W85012  20.191   1.508  13.921
19852W        W85013  28.416  25.568   1.292
19853W        W85014  37.967   4.245   0.217
19854W        W85015  43.756   7.477  12.995
19855W        W85016  24.541   2.181   4.506
19856W        W85017  20.727  31.055  12.981
19857W        W85018  44.038  44.063  11.526
19858W        W85019  30.137   1.427  13.517
19859W        W85020  29.652  12.801  10.262
19860W        W85021  12.042   0.963   1.677
19861W        W85022   9.912   6.563  14.480
19862W        W85023  11.113   5.587   2.392
19863W        W85024  32.399  27.333   4.589
19864W        W85025  25.714  28.319  12.391
19865W        W85026  35.131  19.495  13.462
19866W        W85027  24.843   6.831  11.641
19867W        W85028  15.632  42.244  11.224
19868W        W85029  28.524  25.476  12.849
19869W        W85030  36.175  12.882  13.345
19870W        W85031  17.248  42.853   0.820
19871W        W85032  24.459  31.076  10.664
19872W        W85033  16.477  22.539   3.751
19873W        W85034  40.774  42.943   1.021
19874W        W85035  31.557  27.565   2.691
19875W        W85036  25.868  28.390  10.551
19876W        W85037  19.512  22.418   0.999
19877W        W85038  25.121  33.133  11.508
19878W        W85039   2.081  25.101  14.376
19879W        W85040  33.985  37.884   1.391
19880W        W85041   7.573  23.186  10.771
19881W        W85042  26.715  44.511  11.942
19882W        W85043  36.466  37.470  11.508
19883W        W85044  19.273  43.409  10.913
19884W        W85045   4.402  27.569   2.143
19885W        W85046  31.880  34.571   4.701
19886W        W85047  41.218  35.457  12.532
19887W        W85048  10.291   1.194  12.053
19888W        W85049  22.244  43.176   3.773
19889W        W85050   4.854  11.408  13.642
19890W        W85051   8.862  16.621   3.454
19891W        W85052  29.441   4.858   1.358
19892W        W85053  38.374   2.494   0.465
19893W        W85054  31.775   9.717   1.645
19894W        W85055  13.831  28.418  13.368
19895W        W85056  23.688  24.964   0.777
19896W        W85057  39.864  22.225   1.254
19897W        W85058   4.683  18.096   0.260
19898W        W85059   6.732  41.864  14.050
19899W        W85060  38.608   1.010   2.352
19900W        W85061  41.842  44.892   1.501
19901W        W85062   7.747  42.990   4.618
19902W        W85063  17.230  23.893  11.216
19903W        W85064  26.871  27.618   0.266
19904W        W85065  39.852  27.444  10.694
19905W        W85066  30.886  21.551   1.880
19906W        W85067   5.772  42.954  14.951
19907W        W85068   8.769  26.132   5.048
19908W        W85069  25.451   4.709   3.935
19909W        W85070   8.228  34.124  13.420
19910W        W85071  12.780   9.703  10.546
19911W        W85072   8.608  18.239  14.142
19912W        W85073  20.333  23.099   3.220
19913W        W85074  24.975  16.864  13.382
19914W        W85075  44.282  12.067  13.142
19915W        W85076  15.737  38.889  10.477
19916W        W85077  33.871  16.522   3.654
19917W        W85078  38.880  34.057   1.450
19918W        W85079  33.969  39.316   0.280
19919W        W85080  17.284  44.364   2.815
19920W        W85081  11.145  27.344   3.754
19921W        W85082  34.313  41.314   5.024
19922W        W85083  38.097  24.639   1.669
19923W        W85084  34.538  38.066  13.459
19924W        W85085  12.764  26.644   2.176
19925W        W85086  42.887  16.642  12.011
19926W        W85087  25.178  26.713  12.922
19927W        W85088  26.094   6.934  13.731
19928W        W85089  24.881  38.993   3.664
19929W        W85090  14.043  10.133  14.460
19930W        W85091  40.082  41.465   3.719
19931W        W85092   4.013  25.347   1.793
19932W        W85093  39.438  35.853   0.537
19933W        W85094  12.122  31.516   1.300
19934W        W85095  36.293  42.193   3.656
19935W        W85096  19.087  10.319  10.794
19936W        W85097  33.393  18.820  11.160
19937W        W85098  13.808  33.095   3.342
19938W        W85099  41.230  10.083   5.006
19939W        W85100  37.024  43.911  13.090
19940W        W85101  15.202  32.503  10.992
19941W        W85102  24.217  31.065  14.884
19942W        W85103  31.463  12.811   0.058
19943W        W85104  38.924  14.248  12.107
19944W        W85105  31.341   8.936   0.442
19945W        W85106  33.240   0.855   1.816
19946W        W85107  17.755  15.678  14.870
19947W        W85108   8.341   4.938  11.274
19948W        W85109  27.610  13.134  10.629
19949W        W85110  36.953  10.542   3.186
19950W        W85111  21.580  43.550   3.587
19951W        W85112   2.889  24.597  13.520
19952W        W85113  20.289   8.392   2.785
19953W        W85114  32.706  15.465  11.572
19954W        W85115  42.665  33.133   1.142
19955W        W85116  35.685  40.286  12.832
19956W        W85117  36.198  29.574  14.348
19957W        W85118   3.508  33.891   3.450
19958W        W85119  24.246  43.806   4.052
19959W        W85120  35.938  18.465  12.589
19960W        W85121  44.353  41.065   4.629
19961W        W85122  28.870  42.209   0.801
19962W        W85123   0.853  29.681   3.760
19963W        W85124  41.123   0.716  13.368
19964W        W85125   0.974  19.032   1.686
19965W        W85126  24.286   1.775   3.583
19966W        W85127  15.906  34.402   2.329
19967W        W85128   9.290   8.331   3.376
19968W        W85129  29.007   8.399  10.707
19969W        W85130  13.776   1.029  14.716
19970W        W85131   8.345   8.612  11.218
19971W        W85132  27.084  44.887  13.383
19972W        W85133  36.327  18.626   2.749
19973W        W85134  41.811  33.853   1.869
19974W        W85135  17.769  11.655   4.629
19975W        W85136  34.937  41.880  14.982
19976W        W85137  22.953   1.365   1.897
19977W        W85138  30.960   0.344  10.679
19978W        W85139  30.087  26.120   4.783
19979W        W85140  24.620  10.346   2.687
19980W        W85141  20.679  37.256  13.923
19981W        W85142   6.738  18.307   3.591
19982W        W85143  14.974  14.839  14.353
19983W        W85144   4.152   8.368  13.764
19984W        W85145  44.239   2.288  13.405
19985W        W85146  19.500  23.895  13.850
19986W        W85147  37.766   0.010   0.454
19987W        W85148  25.709  39.578   4.082
19988W        W85149   0.918  33.915  11.593
19989W        W85150   8.482  31.742   4.028
19990W        W85151  29.940  39.029  10.971
19991W        W85152   9.243  39.927  14.870
19992W        W85153  24.758  23.429  12.600
19993W        W85154  11.084  28.532  10.741
19994W        W85155   6.305  44.398   2.283
19995W        W85156  35.394  16.691  12.125
19996W        W85157  38.113  12.568   0.782
19997W        W85158   0.682  11.327   0.405
19998W        W85159  44.960  39.121   3.838
19999W        W85160   9.931  12.330   4.279
20000W        W85161  27.018  16.428  14.033
20001W        W85162  37.360  43.884  11.922
20002W        W85163  37.844  26.536   1.854
20003W        W85164  36.702   4.059  11.565
20004W        W85165  17.900  37.358  13.336
20005W        W85166  12.826  19.836   4.687
20006W        W85167   9.699  16.241  10.785
20007W        W85168   9.570   7.437  10.754
20008W        W85169  30.535  19.323  10.449
20009W        W85170  43.460   8.762  13.489
20010W        W85171  12.066  38.977   0.355
20011W        W85172  38.542  37.993   3.857
20012W        W85173  22.178   6.560  13.517
20013W        W85174  19.123  15.214  11.965
20014W        W85175  33.275  32.431   1.138
20015W        W85176  28.001  18.500  10.677
20016W        W85177  31.673   9.614   0.890
20017W        W85178  44.157  29.428  11.982
20018W        W85179   7.590  25.450  12.530
20019W        W85180  24.431  38.928  14.356
20020W        W85181  22.263  39.296  14.898
20021W        W85182  31.890   8.563  12.599
20022W        W85183  33.866  34.138   3.930
20023W        W85184  29.240  26.437   4.050
20024W        W85185  31.554   1.764  13.959
20025W        W85186  39.609   5.427  11.149
20026W        W85187  43.477  28.563   1.492
20027W        W85188  24.298  20.882  13.897
20028W        W85189  36.990  27.995   4.639
20029W        W85190   8.484  15.887  12.132
20030W        W85191   9.174   7.919  14.464
20031W        W85192  31.483  16.245   2.163
20032W        W85193  34.120  23.484   1.166
20033W        W85194  14.322  32.362   4.020
20034W        W85195  21.126  33.376  13.900
20035W        W85196   2.382  10.852  13.032
20036W        W85197   4.800   4.444  14.411
20037W        W85198  32.089  42.576  11.103
20038W        W85199  26.450  41.794  10.662
20039W        W85200  19.822  16.049   2.724
20040W        W85201   1.938  44.088  12.040
20041W        W85202  16.628  21.683  13.355
20042W        W85203  27.058  35.381  10.738
20043W        W85204  37.540  43.921   4.026
20044W        W85205  16.591  27.293  13.097
20045W        W85206  14.387   1.914  12.015
20046W        W85207  41.838   4.280   4.668
20047W        W85208  33.655  42.158  14.298
20048W        W85209  38.959  16.875  14.537
20049W        W85210  37.313  36.428   4.551
20050W        W85211  27.672   2.679   0.817
20051W        W85212  17.949  43.415  12.170
20052W        W85213  41.147  25.223   0.858
20053W        W85214  35.995   3.155  13.434
20054W        W85215  31.822   8.181   2.831
20055W        W85216   0.392   1.227  11.942
20056W        W85217  23.836  25.190  10.269
20057W        W85218  16.346  24.661  11.514
20058W        W85219  37.460  29.001   1.639
20059W        W85220   7.344   0.263   2.637
20060W        W85221  34.885  35.144   0.765
20061W        W85222   6.631   6.366   2.722
20062W        W85223  43.812  26.995  10.964
20063W        W85224   0.256  11.420   2.231
20064W        W85225  10.371  21.123  10.754
20065W        W85226  42.831  33.255  10.705
20066W        W85227  30.865   3.734   0.855
20067W        W85228  10.769  31.902  13.489
20068W        W85229   3.862  37.533  12.512
20069W        W85230  32.933   6.587   3.384
20070W        W85231  42.368  29.118  11.074
20071W        W85232   7.427  35.147  11.032
20072W        W85233  34.657  23.633  12.056
20073W        W85234   5.849  16.153  12.589
20074W        W85235   9.684  34.684   4.276
20075W        W85236   1.240  25.982   4.140
20076W        W85237   8.332  23.127  14.520
20077W        W85238  14.224   9.331   3.447
20078W        W85239  33.661   0.306  12.490
20079W        W85240   3.380   0.883   1.948
20080W        W85241  44.290  10.712   1.904
20081W        W85242  12.802   3.577  12.174
20082W        W85243   8.909  26.441   4.600
20083W        W85244  25.408  22.047  13.993
20084W        W85245   6.720  14.109  12.493
20085W        W85246   8.092  16.097  14.457
20086W        W85247  35.514  21.582   2.854
20087W        W85248   6.168   2.227   2.706
20088W        W85249  11.923  40.774   4.180
20089W        W85250  38.880   1.482   2.396
20090W        W85251  21.846  44.713   2.437
20091W        W85252   8.735  15.634   2.989
20092W        W85253  13.068  18.594  14.301
20093W        W85254  25.220  29.724  13.992
20094W        W85255  13.658  29.104  11.125
20095W        W85256  12.782   2.866   2.823
20096W        W85257   3.033  34.595  13.456
20097W        W85258  32.339  29.242  13.889
20098W        W85259  37.062  28.099  14.246
20099W        W85260  38.405  40.018   2.771
20100W        W85261  14.707  44.745  12.651
20101W        W85262  16.518  42.792  11.060
20102W        W85263  15.176  15.394  10.470
20103W        W85264  18.955  14.189  10.301
20104W        W85265  12.624   5.690   1.416
20105W        W85266  35.657  28.042   2.853
20106W        W85267  12.573  12.409  10.729
20107W        W85268  42.125  42.872  11.831
20108W        W85269  11.687   0.185   0.399
20109W        W85270  42.997   1.488   1.329
20110W        W85271  33.546  15.952  11.632
20111W        W85272   7.364  13.778  14.905
20112W        W85273  33.318  24.199  12.923
20113W        W85274  20.688  14.079  13.973
20114W        W85275  15.132  25.186  13.872
20115W        W85276  32.150  13.311  11.992
20116W        W85277  43.412  38.444   3.427
20117W        W85278  15.873   9.896   1.987
20118W        W85279  21.467  20.095   1.405
20119W        W85280  44.345  40.990  12.861
20120W        W85281  33.121  25.403   0.622
20121W        W85282  35.896  28.972   4.692
20122W        W85283  14.316  30.167   4.969
20123W        W85284  31.405  10.963  13.456
20124W        W85285  41.785  40.698   0.706
20125W        W85286  33.179  33.691  14.271
20126W        W85287  17.209  40.573   3.116
20127W        W85288  41.153  43.962  11.735
20128W        W85289  22.099  13.853   4.491
20129W        W85290  28.565  29.073   3.105
20130W        W85291   9.567  44.407   1.361
20131W        W85292  37.319  26.133  10.585
20132W        W85293   8.358  40.453  11.773
20133W        W85294  15.693  25.938  12.011
20134W        W85295  29.966  42.429   3.671
20135W        W85296   1.385   7.741  13.680
20136W        W85297  19.380  37.282   1.500
20137W        W85298  34.878   8.583  13.272
20138W        W85299  43.303   7.297   0.916
20139W        W85300  12.724  40.193  11.126
20140W        W85301  16.561  38.011  10.689
20141W        W85302  13.331  37.905   0.393
20142W        W85303  42.735  44.488  12.391
20143W        W85304  34.976  18.995  13.461
20144W        W85305  36.663  41.825   0.401
20145W        W85306  26.589   9.945   0.517
20146W        W85307  27.720  32.513   2.587
20147W        W85308   5.696  42.851   1.949
20148W        W85309   8.689  42.404   1.049
20149W        W85310  28.071  29.484  11.524
20150W        W85311  16.830   5.184   4.520
20151W        W85312  31.774   2.367  11.124
20152W        W85313  41.456   1.619   2.455
20153W        W85314  33.633  28.582   3.396
20154W        W85315   2.046   9.970   1.911
20155W        W85316  32.973  38.784   3.220
20156W        W85317  44.687  17.056   0.401
20157W        W85318  19.495   3.319  13.607
20158W        W85319  23.644  23.045   2.309
20159W        W85320   3.272   8.341  11.093
20160W        W85321   7.354  33.648   1.756
20161W        W85322  44.823  44.128  13.374
20162W        W85323  25.705  14.758   4.196
20163W        W85324  42.777  16.026   4.361
20164W        W85325  43.107   5.420   0.497
20165W        W85326  16.873  39.892  10.275
20166W        W85327  16.352  23.483   0.253
20167W        W85328  31.598  36.645   0.937
20168W        W85329  31.601  13.731  13.908
20169W        W85330  20.154  37.062   0.402
20170W        W85331  41.939  43.417   4.575
20171W        W85332  43.512  40.086   0.319
20172W        W85333   8.309  39.226  12.530
20173W        W85334  21.151  13.600   4.106
20174W        W85335  26.694   1.284  11.106
20175W        W85336  44.390  14.355  11.562
20176W        W85337  43.239  33.428   9.812
20177W        W85338  36.347  30.739   2.316
20178W        W85339  38.812  32.185   2.798
20179W        W85340  22.890   4.741  14.748
20180W        W85341  21.094  24.396   1.719
20181W        W85342  43.111  18.973  12.125
20182W        W85343   9.583  17.111  11.922
20183W        W85344  27.587  29.131   1.339
20184W        W85345  18.425  21.133   1.518
20185W        W85346  10.543   7.754   5.286
20186W        W85347  11.712  24.766   2.289
20187W        W85348  26.461  42.951   1.579
20188W        W85349   6.813  28.232   1.304
20189W        W85350  25.471  25.137  13.467
20190W        W85351  10.956  42.393   0.394
20191W        W85352  19.134  33.067   4.150
20192W        W85353  15.327  11.541   2.830
20193W        W85354  21.963   1.388   3.472
20194W        W85355  39.376   5.611  11.954
20195W        W85356   7.895  27.566   1.927
20196W        W85357  35.235  29.980  10.767
20197W        W85358  23.090  19.724   0.933
20198W        W85359  40.608  23.867  11.794
20199W        W85360  12.797  39.729  12.017
20200W        W85361  27.476  20.092   3.391
20201W        W85362  16.001  42.518   4.531
20202W        W85363   5.157  40.116   3.512
20203W        W85364  23.672  13.997  11.949
20204W        W85365  41.607   4.366  10.759
20205W        W85366  27.671  29.614   2.951
20206W        W85367  41.353   2.103   2.639
20207W        W85368   8.416   1.718   0.125
20208W        W85369  42.364  27.571  14.002
20209W        W85370  39.061  19.550  10.365
20210W        W85371  25.501  31.640  11.124
20211W        W85372  11.376  25.010   4.076
20212W        W85373   1.416  25.593   2.885
20213W        W85374  35.869   5.749   0.440
20214W        W85375  37.081  34.459  11.584
20215W        W85376  18.303  36.853  12.551
20216W        W85377  29.152  44.053  12.405
20217W        W85378   5.988  17.103   4.030
20218W        W85379  25.365  25.402  11.679
20219W        W85380  34.061  37.417   0.913
20220W        W85381  38.522  28.406   2.902
20221W        W85382  28.338   9.301  11.157
20222W        W85383  27.157  15.760   3.009
20223W        W85384  16.535  34.109  12.716
20224W        W85385  32.826  44.445   4.638
20225W        W85386   7.468  22.471   1.340
20226W        W85387  39.292  38.290  11.869
20227W        W85388  42.604  29.154  14.958
20228W        W85389  25.394  29.125   3.160
20229W        W85390  26.957  29.103   3.756
20230W        W85391  44.392  34.647   0.760
20231W        W85392   8.160   6.310  10.971
20232W        W85393   3.919  32.626   1.288
20233W        W85394  14.806  31.669  13.847
20234W        W85395   7.942   9.773   2.964
20235W        W85396  26.029  32.956   0.725
20236W        W85397  32.835  40.834   0.112
20237W        W85398  20.499  30.648   0.383
20238W        W85399  35.407  13.817  13.885
20239W        W85400   1.300  42.566  13.583
20240W        W85401  34.115  21.326  13.349
20241W        W85402  35.137  25.157  11.577
20242W        W85403  30.815  30.853  14.414
20243W        W85404  39.943  17.562  13.380
20244W        W85405  23.637   3.436   3.257
20245W        W85406  33.789  24.292   3.758
20246W        W85407  35.963  41.510   2.417
20247W        W85408  10.417   1.878   0.853
20248W        W85409  36.302   7.489   1.621
20249W        W85410  28.681  33.525  11.417
20250W        W85411  20.192  33.820  11.970
20251W        W85412  30.673  18.560  13.946
20252W        W85413  10.298  13.281  12.389
20253W        W85414   4.917  14.012  11.242
20254W        W85415  17.859  33.983   0.776
20255W        W85416  18.635  28.300   0.261
20256W        W85417   1.838  40.969  13.546
20257W        W85418  25.451  28.444  14.405
20258W        W85419  37.066  20.523  14.415
20259W        W85420   7.069  40.366  12.619
20260W        W85421   6.286  16.684   2.341
20261W        W85422  33.073   5.705  11.532
20262W        W85423  42.632   0.540   1.608
20263W        W85424   1.035  20.721  14.772
20264W        W85425  26.178   9.684   0.754
20265W        W85426  19.518   7.856  10.724
20266W        W85427  11.870  39.391   3.790
20267W        W85428  35.031  16.382  13.412
20268W        W85429  23.205  29.693   4.165
20269W        W85430  23.221  38.301   1.919
20270W        W85431  34.766  20.016   4.027
20271W        W85432   3.366   1.453  13.946
20272W        W85433   2.910  27.209   4.111
20273W        W85434   9.699  11.016  11.039
20274W        W85435  23.560   1.486   0.033
20275W        W85436  36.931  35.915  13.651
20276W        W85437  30.098   8.887   1.341
20277W        W85438  25.979  13.259   3.627
20278W        W85439  30.904  38.372   3.313
20279W        W85440  11.087  20.809  14.386
20280W        W85441  28.900  25.424   1.606
20281W        W85442  38.578  32.539   4.127
20282W        W85443  35.050  20.044  12.469
20283W        W85444  32.904   0.274   3.403
20284W        W85445   8.268  31.447   3.657
20285W        W85446   0.908  13.419   1.610
20286W        W85447  19.220   2.726  12.065
20287W        W85448  39.288   9.475   2.250
20288W        W85449  24.324  24.687  14.971
20289W        W85450   2.594   9.178   1.825
20290W        W85451  30.674   7.671  11.646
20291W        W85452  27.839  42.415  11.199
20292W        W85453  38.897   2.183  13.991
20293W        W85454  20.765  38.429  14.520
20294W        W85455  35.156  21.087  11.676
20295W        W85456  20.239  41.286  14.347
20296W        W85457  32.553   3.934   0.358
20297W        W85458   4.928  33.522   4.570
20298W        W85459  30.727  30.549   3.605
20299W        W85460  37.354  44.986  10.484
20300W        W85461  13.211  41.981   4.814
20301W        W85462  20.165  24.278  11.956
20302W        W85463   9.776   3.832   4.715
20303W        W85464  16.320  18.213  14.310
20304W        W85465   4.943  34.236   1.372
20305W        W85466  19.063  19.107   4.986
20306W        W85467  20.087  30.455  13.073
20307W        W85468  33.404  42.609   0.963
20308W        W85469  24.820  19.296  14.562
20309W        W85470  13.107   0.498   3.870
20310W        W85471  16.217  23.262   2.701
20311W        W85472   6.743   7.379   0.427
20312W        W85473  27.720   3.265   4.199
20313W        W85474   7.956  43.027  13.897
20314W        W85475   8.403  19.257  11.685
20315W        W85476   5.606  29.686   0.310
20316W        W85477   2.511  41.990   3.157
20317W        W85478   7.271  25.260  11.644
20318W        W85479  36.334  15.611   0.501
20319W        W85480   8.886  34.296  11.680
20320W        W85481  24.451  23.207  12.927
20321W        W85482  11.807  22.043   2.335
20322W        W85483  21.314  26.004  11.711
20323W        W85484  16.566  40.755  13.785
20324W        W85485  37.309  22.947   2.638
20325W        W85486  25.714  32.611  13.038
20326W        W85487  10.342   2.128  10.276
20327W        W85488  34.616  44.896   3.702
20328W        W85489  24.680  23.258   2.293
20329W        W85490  44.909  22.636   3.403
20330W        W85491  15.830  10.768  10.883
20331W        W85492  21.747  10.377   4.139
20332W        W85493  38.899  11.850   2.793
20333W        W85494  39.383   1.301   2.394
20334W        W85495  41.727  38.057  11.692
20335W        W85496  33.350  37.442   1.715
20336W        W85497   2.850   6.524  12.020
20337W        W85498  44.903  41.875   2.704
20338W        W85499  42.857  27.047  12.520
20339W        W85500  44.026  23.063   2.036
20340W        W85501  32.382  25.754   2.273
20341W        W85502  17.339   3.862  13.602
20342W        W85503  13.968  35.100  12.401
20343W        W85504  15.807  11.348   2.643
20344W        W85505  14.038  23.673  12.925
20345W        W85506  25.115  19.732   3.239
20346W        W85507  31.869  13.466   4.476
20347W        W85508  23.028  42.991   1.623
20348W        W85509  18.283   8.415  12.585
20349W        W85510  42.855  16.327   3.539
20350W        W85511  12.441  38.349  13.727
20351W        W85512  34.488  18.217   0.202
20352W        W85513  43.004  15.261  12.405
20353W        W85514  17.711  23.302  11.615
20354W        W85515  36.316   5.260   2.116
20355W        W85516  36.803   2.064   3.419
20356W        W85517  34.092  13.234   0.808
20357W        W85518  34.499   8.599  14.599
20358W        W85519   3.412  33.378   4.230
20359W        W85520   1.033   3.029  12.515
20360W        W85521  41.117  44.399   1.878
20361W        W85522  44.843  29.622  11.783
20362W        W85523  38.436   4.717  10.494
20363W        W85524  18.446   5.514  13.638
20364W        W85525   6.901   8.860  14.496
20365W        W85526   6.866  37.305  13.567
20366W        W85527  28.750  19.501  11.003
20367W        W85528  29.534  34.746   3.572
20368W        W85529  15.134   9.301  13.240
20369W        W85530  36.954  23.536  12.187
20370W        W85531  41.351  34.869  11.516
20371W        W85532  18.864   8.615  10.981
20372W        W85533  26.313   0.726  13.942
20373W        W85534  27.851  36.917   2.869
20374W        W85535  37.925  42.418  12.755
20375W        W85536  24.998  39.447   2.908
20376W        W85537   2.667   6.790  13.833
20377W        W85538   5.160   8.337  11.911
20378W        W85539   8.335  31.658  12.052
20379W        W85540   2.026  25.511   0.817
20380W        W85541  17.720  36.273   2.743
20381W        W85542   2.088  14.734   4.996
20382W        W85543  26.477   7.843   2.223
20383W        W85544   6.322  16.962  13.222
20384W        W85545  35.949  40.770  12.990
20385W        W85546   7.239  24.423  13.398
20386W        W85547  42.848  18.284   3.629
20387W        W85548  39.760  38.929  11.565
20388W        W85549  29.025   1.749   2.777
20389W        W85550   1.431  29.649  11.200
20390W        W85551   0.974  26.533   2.840
20391W        W85552  25.500  19.613  13.974
20392W        W85553  10.239  19.758  13.127
20393W        W85554  43.911  29.233  12.794
20394W        W85555  25.526   7.355   0.383
20395W        W85556  18.602   7.841  14.039
20396W        W85557  43.112  10.332  14.367
20397W        W85558  17.230  13.509  13.393
20398W        W85559  11.698  17.891   2.658
20399W        W85560   4.386  29.076  11.778
20400W        W85561  13.436   0.675  13.363
20401W        W85562   8.829  10.927  11.621
20402W        W85563  21.681  34.577   0.947
20403W        W85564  38.223  27.996  14.834
20404W        W85565  20.992   1.560   4.436
20405W        W85566   8.659  33.356  13.971
20406W        W85567   0.832  29.700  12.101
20407W        W85568  13.206   9.803  12.009
20408W        W85569  17.806  15.248  13.229
20409W        W85570  39.581  41.359   1.226
20410W        W85571  12.566  38.758   4.436
20411W        W85572  19.187  19.765   2.997
20412W        W85573  13.233  11.831   0.432
20413W        W85574  41.465  39.718  10.717
20414W        W85575   7.202  29.687  10.395
20415W        W85576  42.315  32.146  14.416
20416W        W85577   2.688  25.345  12.376
20417W        W85578  13.267  19.711  12.064
20418W        W85579  28.607  27.805  10.716
20419W        W85580  16.238  23.318   0.745
20420W        W85581  23.498  32.265   4.192
20421W        W85582  14.086  16.070  14.395
20422W        W85583   3.329   6.312   3.121
20423W        W85584   0.943   5.321  11.580
20424W        W85585  41.660   8.285  12.070
20425W        W85586  38.778  27.081   4.980
20426W        W85587  16.230  41.041  14.529
20427W        W85588  33.503  43.541   1.150
20428W        W85589  10.298  29.845  13.962
20429W        W85590   3.182  39.468  11.454
20430W        W85591  15.770  19.630   5.061
20431W        W85592   6.760  32.899   4.527
20432W        W85593  30.303   4.925  12.994
20433W        W85594  40.970  28.861   1.324
20434W        W85595   3.662  29.534  10.494
20435W        W85596  14.112  38.933   1.338
20436W        W85597  38.751  29.452   1.797
20437W        W85598  19.059   6.709   4.007
20438W        W85599   6.575  30.028   3.762
20439W        W85600  17.806  34.991   1.440
20440W        W85601   5.988  36.082  13.475
20441W        W85602  18.303   8.355  10.488
20442W        W85603  15.191  30.469  10.742
20443W        W85604  14.224   4.328   0.388
20444W        W85605  17.193  11.894  11.121
20445W        W85606  33.674   2.878  13.220
20446W        W85607  13.425  22.511  10.782
20447W        W85608  16.264  39.930   2.281
20448W        W85609  24.879  21.776  11.508
20449W        W85610  15.063  43.857  11.543
20450W        W85611  39.787  40.776  11.079
20451W        W85612  25.417  36.713  11.060
20452W        W85613   7.917  35.423  12.048
20453W        W85614  40.276  17.247   4.041
20454W        W85615  18.760   3.731   4.577
20455W        W85616  19.667  25.433  12.960
20456W        W85617   7.112   2.200  13.485
20457W        W85618  27.510  30.651  11.101
20458W        W85619   8.281  14.779  11.185
20459W        W85620   0.008  15.109   3.261
20460W        W85621  33.611  17.237  13.721
20461W        W85622  32.624  40.595   3.460
20462W        W85623  17.172   5.858  11.567
20463W        W85624   6.724   8.793  10.700
20464W        W85625  12.904  31.482   3.768
20465W        W85626  31.103   1.854   0.719
20466W        W85627   4.704  15.413  10.724
20467W        W85628  21.739  43.109   3.828
20468W        W85629  14.326  17.885  11.186
20469W        W85630  21.773   5.426   3.700
20470W        W85631  23.870   4.428   4.234
20471W        W85632  31.468  35.917  11.493
20472W        W85633  32.264  21.568   2.446
20473W        W85634  16.136  28.517  14.277
20474W        W85635   1.817  15.090  13.615
20475W        W85636  38.606  22.023   4.641
20476W        W85637  15.693  34.866  13.404
20477W        W85638  10.023  12.082  12.239
20478W        W85639  12.839   3.478  12.969
20479W        W85640  27.029  36.179   3.144
20480W        W85641  40.442  12.839   0.231
20481W        W85642  39.848  42.963  13.087
20482W        W85643  30.840  11.899   0.397
20483W        W85644  38.814  42.921  10.229
20484W        W85645  23.063  23.976   4.050
20485W        W85646  34.038   5.025  11.708
20486W        W85647  26.688  26.456   2.907
20487W        W85648  41.173  43.548  12.584
20488W        W85649  34.525  23.077   1.184
20489W        W85650   6.870  20.508  10.547
20490W        W85651  20.160  20.036   0.827
20491W        W85652  18.817   3.717   2.755
20492W        W85653  23.614  32.654   4.508
20493W        W85654  11.335  29.709   3.642
20494W        W85655   3.363  42.175   3.111
20495W        W85656  28.006   5.755  13.126
20496W        W85657   2.453  29.215  13.583
20497W        W85658  39.344  41.951  14.485
20498W        W85659  28.515  25.109   1.044
20499W        W85660  33.427  17.739  11.169
20500W        W85661  39.947  25.547  14.567
20501W        W85662  22.752   0.547   0.577
20502W        W85663  31.595  40.793   4.391
20503W        W85664  17.785   6.590  14.043
20504W        W85665   2.223   8.211   2.865
20505W        W85666   7.244  21.662  14.164
20506W        W85667  23.254  24.788   3.688
20507W        W85668   3.115  10.853   2.574
20508W        W85669  17.772  43.891   4.172
20509W        W85670  22.307  36.462   4.902
20510W        W85671  11.751  13.770   3.865
20511W        W85672  42.957  43.488   4.525
20512W        W85673  34.551  36.112  12.504
20513W        W85674  18.547   3.760   0.718
20514W        W85675  38.547  12.161  11.434
20515W        W85676  34.710  33.025  11.656
20516W        W85677  14.159  19.069  13.429
20517W        W85678  34.881  23.003  14.432
20518W        W85679  36.398  42.561  13.910
20519W        W85680  42.514   6.398  10.880
20520W        W85681  14.871  27.662  11.735
20521W        W85682  13.264  21.400   0.416
20522W        W85683   5.910  43.031  13.628
20523W        W85684  11.730  25.922   2.842
20524W        W85685  40.939  20.602   4.612
20525W        W85686  27.352   4.464   0.392
20526W        W85687  13.420   0.910  11.161
20527W        W85688  29.660  33.584   0.240
20528W        W85689   0.382   5.154   4.095
20529W        W85690  10.668   0.544  13.315
20530W        W85691   4.160  28.642   0.935
20531W        W85692  23.037  29.433   3.294
20532W        W85693  32.313   9.810   2.572
20533W        W85694  39.941  22.541   1.743
20534W        W85695  18.572  36.956   0.037
20535W        W85696  12.413  39.367  12.940
20536W        W85697  34.218  13.691   2.819
20537W        W85698  35.786   4.402   4.244
20538W        W85699  18.762  19.025   2.339
20539W        W85700  40.386   8.594   0.461
20540W        W85701  40.319   0.337   0.486
20541W        W85702   1.517   0.475   3.139
20542W        W85703  13.530  20.154   1.156
20543W        W85704  44.270   1.965   1.245
20544W        W85705  26.587  39.173  11.204
20545W        W85706   0.389   4.785   3.118
20546W        W85707   4.768   8.575  12.646
20547W        W85708  19.922  20.151   4.546
20548W        W85709  31.322  22.528   1.814
20549W        W85710  36.550  44.255  13.645
20550W        W85711  41.015  41.239  11.043
20551W        W85712  24.227   8.288   1.148
20552W        W85713   7.894  42.275  11.210
20553W        W85714  43.244  41.341   0.044
20554W        W85715  23.154  22.099   0.872
20555W        W85716  36.345  41.369  12.431
20556W        W85717  14.791  34.907   1.292
20557W        W85718  25.114  21.163  10.751
20558W        W85719  43.295  39.294   3.702
20559W        W85720  15.789   8.079  14.493
20560W        W85721  17.341  42.422   0.376
20561W        W85722  26.315  31.293  10.856
20562W        W85723  19.071  31.556   1.587
20563W        W85724  15.143  41.811   2.808
20564W        W85725  44.285   1.794  13.611
20565W        W85726  41.229   3.206   4.101
20566W        W85727   4.449  19.765   0.065
20567W        W85728   2.019  28.268  11.532
20568W        W85729  36.462  29.028   0.846
20569W        W85730   7.916   0.691  10.263
20570W        W85731   6.190  38.397   2.764
20571W        W85732  13.741  35.989  11.622
20572W        W85733  17.819  43.368   3.575
20573W        W85734  19.646  32.630  12.973
20574W        W85735  21.554  40.629   4.064
20575W        W85736   5.800  11.128  12.305
20576W        W85737   3.343  11.269   0.042
20577W        W85738  23.965  32.122  13.923
20578W        W85739  40.863  36.948  10.777
20579W        W85740  11.312   3.837  12.448
20580W        W85741  43.511  32.936   0.455
20581W        W85742   7.186  42.765  12.665
20582W        W85743   0.841   5.788   4.637
20583W        W85744  38.924  41.059   1.849
20584W        W85745  39.374   2.352   2.045
20585W        W85746  25.792  41.545   0.054
20586W        W85747   8.569   9.500   0.856
20587W        W85748  39.567  42.523   2.278
20588W        W85749  17.509  36.870  12.834
20589W        W85750  10.845  21.942   2.620
20590W        W85751  11.588  18.747  12.884
20591W        W85752  10.106  32.962   2.757
20592W        W85753  26.630   4.272  13.558
20593W        W85754  30.445   7.842   0.992
20594W        W85755  36.307  12.927   0.642
20595W        W85756   0.940  17.837  11.088
20596W        W85757  15.886  41.107  13.016
20597W        W85758   1.314   3.898  11.585
20598W        W85759   4.154  44.518  13.589
20599W        W85760   6.733   7.223  14.895
20600W        W85761  43.549  32.967   3.834
20601W        W85762  13.559  27.993   1.306
20602W        W85763  24.962  10.151   3.994
20603W        W85764  12.258  13.739   1.802
20604W        W85765  13.860  40.418   0.409
20605W        W85766   8.692  20.537  13.819
20606W        W85767  21.010  18.722   1.911
20607W        W85768  43.516  22.973  14.869
20608W        W85769   6.377  24.532  10.634
20609W        W85770  20.355   6.767   1.880
20610W        W85771  30.201  29.172  12.429
20611W        W85772   7.803   6.568   4.916
20612W        W85773  23.981  11.289   3.721
20613W        W85774  16.073  12.612  10.419
20614W        W85775   6.368   0.796   3.739
20615W        W85776  21.203   2.372  11.171
20616W        W85777   9.853  32.899   2.324
20617W        W85778   9.087  24.761  12.433
20618W        W85779  39.929  17.288  10.932
20619W        W85780  15.289  15.663  11.101
20620W        W85781  44.309   3.395   4.768
20621W        W85782  38.315   4.375  14.450
20622W        W85783  43.575  33.888   3.720
20623W        W85784   9.846  21.796   0.827
20624W        W85785  22.653  27.224  11.846
20625W        W85786  32.493  18.032  12.458
20626W        W85787   4.402  31.243   2.420
20627W        W85788  33.670  44.830   4.671
20628W        W85789   5.628   9.210   3.229
20629W        W85790  20.061  18.350   5.145
20630W        W85791  43.777  24.969  12.522
20631W        W85792  35.840  21.328  12.234
20632W        W85793  34.381   6.408  12.612
20633W        W85794  30.199  35.361  10.839
20634W        W85795  32.127  42.948   0.008
20635W        W85796  27.682  41.923  11.234
20636W        W85797  26.786  27.027   3.531
20637W        W85798  33.651  41.829  10.280
20638W        W85799  41.723  20.779  12.949
20639W        W85800  32.137  19.487  12.962
20640W        W85801  40.824  44.762   2.829
20641W        W85802   3.246  30.015   2.267
20642W        W85803  35.056  30.243  11.193
20643W        W85804  11.693  21.524  12.661
20644W        W85805   1.276  24.897  13.344
20645W        W85806   6.462  36.554  10.070
20646W        W85807  25.776   7.773  11.639
20647W        W85808  41.936   5.125  14.467
20648W        W85809  10.161   2.195   0.492
20649W        W85810  39.396   8.407   2.409
20650W        W85811  23.468  32.007  13.118
20651W        W85812  12.251   2.019   3.149
20652W        W85813   4.368  38.932  11.679
20653W        W85814   2.675  41.611   0.507
20654W        W85815   8.401   5.145  14.536
20655W        W85816  38.000  37.245   4.902
20656W        W85817  37.513  27.070   0.277
20657W        W85818  19.101   3.479   0.068
20658W        W85819  40.407  22.445  14.325
20659W        W85820  21.581  44.117  14.441
20660W        W85821  37.214   0.244   1.832
20661W        W85822  19.029  33.763   1.663
20662W        W85823   5.172   7.237  12.061
20663W        W85824  35.135  22.686  13.488
20664W        W85825  23.643  31.201  12.627
20665W        W85826  33.413  21.625  10.403
20666W        W85827  34.032  13.099  12.440
20667W        W85828   9.489  38.976  14.740
20668W        W85829   0.622  37.113   0.908
20669W        W85830   1.989  33.743  12.855
20670W        W85831  29.449  42.910   2.167
20671W        W85832  38.740  25.539   2.373
20672W        W85833  17.011  39.894   2.772
20673W        W85834  16.559  13.886   2.440
20674W        W85835  21.033  34.069  14.541
20675W        W85836   7.356  16.247   1.725
20676W        W85837  24.407  35.329   5.115
20677W        W85838   4.880  18.748  14.338
20678W        W85839   1.818  11.085  14.302
20679W        W85840   1.577  17.655   3.688
20680W        W85841  39.506  41.227  11.050
20681W        W85842  17.584  38.413  14.533
20682W        W85843  43.082  28.475   4.203
20683W        W85844  26.199  25.187  10.748
20684W        W85845   8.175  10.272   1.513
20685W        W85846  21.366   1.340   0.296
20686W        W85847  26.339  12.890   4.182
20687W        W85848  11.070  35.454   3.657
20688W        W85849  30.635  40.263   4.141
20689W        W85850  11.233  20.347   1.263
20690W        W85851  26.012  43.405   5.626
20691W        W85852   1.916   4.354   4.178
20692W        W85853  17.722  16.138   0.706
20693W        W85854  31.516   7.505  14.460
20694W        W85855  43.767  34.386   2.481
20695W        W85856  17.704  44.306   0.918
20696W        W85857  38.021  35.963   0.499
20697W        W85858  20.271  33.065   3.341
20698W        W85859  11.076  17.193   2.660
20699W        W85860  15.920  24.009  13.781
20700W        W85861  20.963  16.530   3.659
20701W        W85862  14.462   7.638  12.315
20702W        W85863  18.425  13.758   3.623
20703W        W85864  29.555  33.351  11.965
20704W        W85865  13.057  28.144   1.341
20705W        W85866  22.097  40.664  11.174
20706W        W85867  42.401   2.987  12.629
20707W        W85868  18.132  11.778  13.108
20708W        W85869  27.153  21.572   1.895
20709W        W85870   9.857  29.597  13.504
20710W        W85871  41.024  15.100   2.269
20711W        W85872  43.947  40.428   2.211
20712W        W85873   9.110  32.641   1.918
20713W        W85874  34.975   6.089  10.709
20714W        W85875  27.379  25.059  11.054
20715W        W85876  16.301  19.769   4.155
20716W        W85877   3.370  31.044  10.698
20717W        W85878  34.459  34.773   3.320
20718W        W85879  35.374  26.376  13.035
20719W        W85880  44.888  37.147   0.322
20720W        W85881  40.138  20.086  13.373
20721W        W85882  36.846  39.446  13.966
20722W        W85883  43.962  22.513   2.502
20723W        W85884  34.202  30.755  12.063
20724W        W85885  44.488  18.597  12.037
20725W        W85886   0.671  20.181   3.702
20726W        W85887  23.364  43.275   0.977
20727W        W85888  19.252  34.095  13.968
20728W        W85889  29.200   8.281   4.604
20729W        W85890   5.086  27.808   3.807
20730W        W85891  18.558  36.646   2.262
20731W        W85892  13.807  42.866   3.399
20732W        W85893  35.176   4.624   1.588
20733W        W85894   9.021   1.582  14.450
20734W        W85895  43.325  15.518  11.162
20735W        W85896  21.542  35.633   3.733
20736W        W85897  30.044  26.098  13.851
20737W        W85898  27.871  33.992   2.396
20738W        W85899  18.344  30.892   3.172
20739W        W85900  18.958  17.578   5.025
20740W        W85901  13.904   8.458   2.936
20741W        W85902   8.457  23.181  12.473
20742W        W85903  16.334  23.165   1.225
20743W        W85904   9.959  14.214   0.480
20744W        W85905   1.531   8.100  11.533
20745W        W85906  14.272  24.940   3.098
20746W        W85907  29.852  30.405  11.414
20747W        W85908   3.362  21.655   3.794
20748W        W85909   6.851  10.267   4.644
20749W        W85910  16.696  44.869  10.317
20750W        W85911   5.651  12.353  12.951
20751W        W85912  25.926  26.581  14.909
20752W        W85913  11.396  27.814   3.151
20753W        W85914  32.571   9.654   4.555
20754W        W85915  16.780  43.451   2.683
20755W        W85916   4.183   9.345  12.930
20756W        W85917   8.947  23.635   4.573
20757W        W85918  42.570  34.332  12.380
20758W        W85919  11.775  22.163   0.511
20759W        W85920  41.436  27.119   3.878
20760W        W85921  36.472  27.096   4.774
20761W        W85922   6.332  16.944   0.485
20762W        W85923   0.859   5.916   4.116
20763W        W85924  30.343  25.587   2.420
20764W        W85925   1.224  26.901  12.439
20765W        W85926   2.649   4.354  12.454
20766W        W85927  27.137  26.695  14.915
20767W        W85928  22.282  16.618   1.725
20768W        W85929  37.462  29.209   0.742
20769W        W85930   7.930  33.359  11.909
20770W        W85931  11.193  30.999  11.491
20771W        W85932  30.383  16.141   0.683
20772W        W85933  35.903   1.332   4.168
20773W        W85934  29.067   3.710   2.113
20774W        W85935   5.439  16.192   1.535
20775W        W85936  23.104   4.158  12.369
20776W        W85937  20.182  34.846   1.843
20777W        W85938  34.114  36.113   0.343
20778W        W85939  16.629  34.804   3.775
20779W        W85940   4.252  16.557  11.853
20780W        W85941  38.636   0.521   3.473
20781W        W85942  13.873  23.133  14.055
20782W        W85943  27.608   8.953   0.780
20783W        W85944  36.016  19.099  11.888
20784W        W85945  25.491  10.077   2.272
20785W        W85946  34.413   9.407  14.209
20786W        W85947  18.064   2.458   0.876
20787W        W85948   5.862  28.668   0.298
20788W        W85949   7.319  28.968   1.222
20789W        W85950  38.106   6.830   4.579
20790W        W85951  39.061  25.856  14.615
20791W        W85952  18.339  11.188  11.153
20792W        W85953  34.062  20.851  13.943
20793W        W85954  25.231  14.863  12.640
20794W        W85955  37.468  22.449  11.726
20795W        W85956  25.747  43.475   4.537
20796W        W85957   7.798  12.341   1.366
20797W        W85958  18.771  25.529   0.828
20798W        W85959  20.055  42.350   1.250
20799W        W85960   2.732  19.966  14.753
20800W        W85961   5.622  33.144  12.029
20801W        W85962   2.231   7.510   3.655
20802W        W85963  33.597  25.148  13.369
20803W        W85964  15.319   2.905   1.521
20804W        W85965  15.881  44.014   0.332
20805W        W85966  37.082  11.390   0.409
20806W        W85967  21.539  25.179   0.805
20807W        W85968   3.225   6.317   3.616
20808W        W85969  26.017  16.741   0.881
20809W        W85970  10.525  20.517   0.107
20810W        W85971   1.882  16.056   2.721
20811W        W85972  33.868   1.517  14.359
20812W        W85973   8.640   4.978   3.173
20813W        W85974  31.040  20.291  13.076
20814W        W85975   9.630  19.208   0.480
20815W        W85976  31.537  13.860   4.591
20816W        W85977  23.493  42.258   0.753
20817W        W85978   4.644  31.662  14.465
20818W        W85979  43.760  35.115   2.030
20819W        W85980  37.857  24.999  12.962
20820W        W85981   5.732  31.521  10.170
20821W        W85982  11.351   9.947   4.172
20822W        W85983  28.694  22.686  13.786
20823W        W85984  23.281  42.978  13.837
20824W        W85985  38.608  38.972   3.615
20825W        W85986  30.824  30.635  11.725
20826W        W85987  20.205   9.417  14.346
20827W        W85988   0.112  42.543   0.004
20828W        W85989  16.879  28.055   4.108
20829W        W85990  23.704   4.643  14.422
20830W        W85991  32.367  32.163  13.004
20831W        W85992   9.084   3.215  12.807
20832W        W85993  43.340  26.667   9.965
20833W        W85994  20.809  21.745   2.329
20834W        W85995  11.141  15.788   2.610
20835W        W85996  42.025   2.204  14.938
20836W        W85997  18.675  31.599  11.975
20837W        W85998   3.301  38.268  11.566
20838W        W85999  22.936  11.136  13.982
20839W        W86000  34.297  43.926   3.627
20840W        W86001  30.499  33.597  10.651
20841W        W86002   9.625  33.088  14.811
20842W        W86003   6.944  44.470  13.692
20843W        W86004  16.823   0.728   1.727
20844W        W86005   2.950  39.926   2.696
20845W        W86006   4.841  14.358  14.068
20846W        W86007  39.980  34.736   4.415
20847W        W86008   9.739  32.953  11.711
20848W        W86009  33.518  11.644   5.153
20849W        W86010  21.736  19.067   4.729
20850W        W86011   8.923  40.096   3.155
20851W        W86012  29.211   7.243   3.804
20852W        W86013  28.031  11.219   1.612
20853W        W86014   6.206  38.093  11.575
20854W        W86015  39.575  20.969   0.576
20855W        W86016  13.428  14.742  12.562
20856W        W86017  37.201  15.167   2.781
20857W        W86018  16.135  23.664  12.405
20858W        W86019  41.990  38.445  13.596
20859W        W86020   0.983  10.067   5.084
20860W        W86021  11.195  26.002  10.689
20861W        W86022  23.040  11.438  14.402
20862W        W86023  32.940  26.777  11.527
20863W        W86024  43.641   2.350   0.782
20864W        W86025  27.053  41.410  11.134
20865W        W86026   1.390  19.536  14.311
20866W        W86027  14.447  33.528   2.652
20867W        W86028   1.423  36.930  10.406
20868W        W86029   4.602  44.280   1.364
20869W        W86030  27.177  15.602  12.095
20870W        W86031  25.969  18.520  12.940
20871W        W86032   5.382  36.534  11.401
20872W        W86033  44.924  27.383  14.170
20873W        W86034   6.469  13.519   0.784
20874W        W86035   1.313   8.130   2.607
20875W        W86036  16.324   5.379   2.791
20876W        W86037  43.977  10.997  12.398
20877W        W86038  34.666  20.219   2.309
20878W        W86039  41.049   6.869   4.279
20879W        W86040  23.603  28.910   4.351
20880W        W86041  42.432  37.344  12.056
20881W        W86042  24.151  22.589  12.373
20882W        W86043   9.676  25.735   1.423
20883W        W86044  36.492  11.302  14.922
20884W        W86045  20.133  41.762   4.689
20885W        W86046  22.185  19.280   4.596
20886W        W86047   4.806   0.101  13.475
20887W        W86048  10.830   5.915   2.689
20888W        W86049  33.419  20.115   1.889
20889W        W86050  44.494   6.265  10.975
20890W        W86051   0.252   8.256  11.651
20891W        W86052  32.100  27.841  13.123
20892W        W86053   3.232   0.889  12.546
20893W        W86054  30.721  18.279  11.448
20894W        W86055   0.782  29.432   4.289
20895W        W86056  40.636  44.012   0.865
20896W        W86057  23.047   3.773  13.540
20897W        W86058  38.643  22.850   1.846
20898W        W86059   5.418  37.331  10.892
20899W        W86060  34.345  29.976  11.782
20900W        W86061  43.062  32.655  14.333
20901W        W86062  29.476  12.216   2.700
20902W        W86063  23.999  27.198   0.426
20903W        W86064  23.612  39.855  12.072
20904W        W86065  39.763   7.116   2.309
20905W        W86066  26.618   3.232   4.041
20906W        W86067  28.144   6.229   3.174
20907W        W86068  18.151  15.341   1.268
20908W        W86069  26.997   1.918   1.508
20909W        W86070  13.359  36.451  11.165
20910W        W86071  30.441  27.630   9.464
20911W        W86072  25.485  35.074   3.173
20912W        W86073  24.748  23.960   0.473
20913W        W86074  34.352  25.551   2.731
20914W        W86075  23.436  41.480  14.548
20915W        W86076   6.824   4.407  13.132
20916W        W86077  13.017   2.219  14.447
20917W        W86078   2.538   7.132  14.392
20918W        W86079  12.370  28.053  14.520
20919W        W86080  10.794   7.528   1.321
20920W        W86081  27.489  17.751  13.184
20921W        W86082  10.926  10.774   1.672
20922W        W86083   2.537   0.245   1.816
20923W        W86084  33.084  29.203  11.628
20924W        W86085  40.220  19.166   2.030
20925W        W86086  12.075  33.595  11.550
20926W        W86087  22.412  30.170  10.257
20927W        W86088  13.607   7.224  14.740
20928W        W86089  14.690  26.882   4.111
20929W        W86090  11.789   4.604   1.260
20930W        W86091   6.906  33.702  12.052
20931W        W86092  35.888  29.874   2.786
20932W        W86093  24.683  37.303   3.193
20933W        W86094  17.066  18.440  13.665
20934W        W86095  40.776  25.142  12.185
20935W        W86096   5.412  41.017   3.202
20936W        W86097   4.404  19.576   1.563
20937W        W86098  31.076  28.260   2.716
20938W        W86099  15.159  11.064  13.382
20939W        W86100  33.484   3.172   1.236
20940W        W86101  37.047  37.121   2.237
20941W        W86102  30.665   9.842   3.724
20942W        W86103  22.635  11.919  14.074
20943W        W86104  29.542   5.662   3.620
20944W        W86105  21.124  30.007   1.525
20945W        W86106  36.597  17.790   0.034
20946W        W86107  33.165  14.573   4.328
20947W        W86108  17.048  15.151   2.822
20948W        W86109  12.320  38.515   4.848
20949W        W86110  40.780  10.711   0.876
20950W        W86111  42.927   7.951  11.949
20951W        W86112  42.982   0.567   2.396
20952W        W86113   9.803  23.221   0.218
20953W        W86114  41.231  36.620  11.898
20954W        W86115  40.518  20.899  12.448
20955W        W86116   0.440  36.303   3.135
20956W        W86117  24.735  44.755   1.079
20957W        W86118   2.258  43.464  13.894
20958W        W86119  33.021   5.462  13.306
20959W        W86120   8.982   6.607  14.583
20960W        W86121  26.666  17.029  13.347
20961W        W86122  35.135   7.263   0.914
20962W        W86123  40.423  11.194  11.278
20963W        W86124  15.880  43.914  13.424
20964W        W86125  43.781   4.586  13.486
20965W        W86126  33.580  10.202  12.479
20966W        W86127  28.025  25.145   3.311
20967W        W86128  31.144  34.455   2.425
20968W        W86129  36.014  11.184  14.763
20969W        W86130  31.863   1.353  12.956
20970W        W86131  40.881  22.214  14.974
20971W        W86132  42.796  17.064  13.939
20972W        W86133   9.837   0.324  14.638
20973W        W86134  39.566  24.838  13.488
20974W        W86135  21.646  13.088   2.663
20975W        W86136   1.676   2.491   1.798
20976W        W86137  17.838  34.382  12.370
20977W        W86138  37.688  37.962  11.478
20978W        W86139  27.552   7.263   1.712
20979W        W86140   2.116   8.088   4.496
20980W        W86141   5.399  34.954   0.883
20981W        W86142  11.488  24.122  14.449
20982W        W86143  36.562  28.087  14.355
20983W        W86144   6.276  28.688   2.297
20984W        W86145  33.496  30.150   2.304
20985W        W86146  25.543  19.776   0.331
20986W        W86147  10.543   6.571   2.175
20987W        W86148  20.548   7.223   1.721
20988W        W86149  32.558  41.000   1.295
20989W        W86150  22.134  28.683  11.093
20990W        W86151  37.948  23.374  13.421
20991W        W86152  34.884  44.745  10.976
20992W        W86153   8.605  26.896  13.016
20993W        W86154  21.472  39.471  14.453
20994W        W86155   7.614  21.400   0.702
20995W        W86156  25.490  27.462   4.009
20996W        W86157  10.386  24.543  10.577
20997W        W86158  26.219  36.454   4.635
20998W        W86159   7.427  19.888  11.819
20999W        W86160   3.399  14.146  13.594
21000W        W86161  10.107  28.156  12.437
21001W        W86162  21.041  36.053   4.579
21002W        W86163  15.807  17.719   0.341
21003W        W86164  34.153  42.769   4.056
21004W        W86165  15.628   9.764  11.268
21005W        W86166  15.641  26.208  11.562
21006W        W86167   7.188   9.960  13.610
21007W        W86168   6.385  34.040  14.506
21008W        W86169  25.984  18.125  12.005
21009W        W86170  11.880  22.983  11.955
21010W        W86171   9.647  42.891  14.079
21011W        W86172  19.119  23.264   1.871
21012W        W86173  11.642  21.566   3.729
21013W        W86174   7.282  14.784  12.680
21014W        W86175  28.759   1.546  13.298
21015W        W86176  39.639  16.807  11.025
21016W        W86177   9.979   5.848   2.872
21017W        W86178  25.524  13.711  13.915
21018W        W86179  27.925  14.266   2.748
21019W        W86180  12.457  10.732   0.853
21020W        W86181  36.452   8.856   1.795
21021W        W86182  25.605   8.723   4.389
21022W        W86183  20.632   5.849   3.640
21023W        W86184  27.513   7.350  13.534
21024W        W86185  15.553  21.191   1.665
21025W        W86186  35.403  16.232   4.101
21026W        W86187  12.107  26.110   0.443
21027W        W86188   4.354  22.147  13.040
21028W        W86189  33.926  33.998  13.347
21029W        W86190  33.603   8.159  11.562
21030W        W86191  27.835  17.909   3.852
21031W        W86192   4.757   3.865  13.305
21032W        W86193   5.362  31.345   4.545
21033W        W86194  21.681  34.953  11.197
21034W        W86195  11.182  31.246   0.915
21035W        W86196   8.112  44.539   2.214
21036W        W86197  11.401  16.202  14.952
21037W        W86198  39.334  29.501  11.599
21038W        W86199  18.155   1.921   1.691
21039W        W86200  42.478  42.012   2.863
21040W        W86201   1.826  14.972   1.409
21041W        W86202  22.203  43.738   4.688
21042W        W86203  17.994  10.121   0.346
21043W        W86204  42.222  11.625   1.435
21044W        W86205  13.263   3.808  12.336
21045W        W86206  22.850  15.865  10.413
21046W        W86207  28.475   2.807  14.777
21047W        W86208  24.787  23.898   3.650
21048W        W86209  26.476  43.757  11.172
21049W        W86210  19.730  20.305   0.763
21050W        W86211  14.657  15.390   2.193
21051W        W86212  38.615  44.275   0.730
21052W        W86213  37.349  23.444   1.305
21053W        W86214   5.885  13.629   1.659
21054W        W86215  20.267   5.822   4.578
21055W        W86216  15.140   3.369   0.942
21056W        W86217   2.128  40.376  14.825
21057W        W86218  44.747   1.920   3.710
21058W        W86219  31.035  24.044  13.361
21059W        W86220   6.217   6.094   3.532
21060W        W86221  39.765  16.801   3.585
21061W        W86222  21.030  20.278  14.432
21062W        W86223   5.732   3.872   3.054
21063W        W86224  14.957  40.915  11.766
21064W        W86225   8.859   0.822   3.188
21065W        W86226   5.844  41.430   3.330
21066W        W86227  12.995   0.897   1.360
21067W        W86228  41.171  38.119   1.750
21068W        W86229   9.892  18.883   0.794
21069W        W86230  20.516  17.853  12.974
21070W        W86231   5.802  23.697  14.519
21071W        W86232  33.925  40.049  12.544
21072W        W86233  35.469  43.356   0.032
21073W        W86234  41.878  32.253   5.084
21074W        W86235  30.402  13.359   2.732
21075W        W86236  31.046  26.848   1.326
21076W        W86237  17.203  18.208   2.211
21077W        W86238   9.854   6.778  14.932
21078W        W86239   9.853   9.265   3.574
21079W        W86240  25.064   6.860  10.783
21080W        W86241   8.418  36.208   1.945
21081W        W86242  36.447  36.823   4.536
21082W        W86243   7.050  10.853   2.685
21083W        W86244  20.133  19.105  10.134
21084W        W86245   5.676  43.408  13.357
21085W        W86246  40.125  29.396  13.004
21086W        W86247   6.003  22.508  12.997
21087W        W86248  26.959  22.536  14.853
21088W        W86249   2.856  26.169  10.258
21089W        W86250  31.881   0.775  11.387
21090W        W86251  29.116   9.307   2.951
21091W        W86252  37.692  28.712   3.693
21092W        W86253  35.100  21.757   4.681
21093W        W86254  42.470  11.325   2.468
21094W        W86255   4.048   2.735   4.097
21095W        W86256   9.874  29.394   3.446
21096W        W86257  15.164  39.314  14.088
21097W        W86258  39.725  19.083   4.369
21098W        W86259  19.328  36.158  12.554
21099W        W86260  13.700  42.012   4.086
21100W        W86261  21.110  18.691   0.327
21101W        W86262  36.604  16.196   2.840
21102W        W86263  15.799  21.232  12.837
21103W        W86264  23.522  43.778   2.722
21104W        W86265   1.272  38.921  14.694
21105W        W86266  29.701  18.488   2.164
21106W        W86267  25.610  40.954   1.200
21107W        W86268  16.600  30.608  11.095
21108W        W86269   4.393  36.021   0.185
21109W        W86270  10.359   4.798  10.647
21110W        W86271   1.436  18.643  14.487
21111W        W86272  33.992  30.387   2.378
21112W        W86273   5.127  32.237   1.898
21113W        W86274  19.149  32.666  14.275
21114W        W86275  20.846   7.344   2.666
21115W        W86276  14.715  12.862  10.614
21116W        W86277   4.292  17.104  13.565
21117W        W86278  16.356  43.596  14.461
21118W        W86279  11.665  13.131   4.387
21119W        W86280  27.457  15.468   0.673
21120W        W86281   1.442  39.841   1.896
21121W        W86282  10.868   6.712  14.909
21122W        W86283  39.197  11.702   0.845
21123W        W86284  12.752  28.663   2.182
21124W        W86285  30.126  35.181  13.583
21125W        W86286  41.514  35.350  10.747
21126W        W86287  24.648  30.556   1.492
21127W        W86288  32.517  37.273   2.670
21128W        W86289   5.115  17.891  14.960
21129W        W86290  37.198   1.436   4.507
21130W        W86291   8.785  12.288  13.050
21131W        W86292   7.759   0.519   4.718
21132W        W86293  43.914  10.716  11.407
21133W        W86294   4.146  21.090   1.756
21134W        W86295  42.335   3.992   4.143
21135W        W86296  13.127  43.795  12.110
21136W        W86297  28.480  44.516   1.951
21137W        W86298  15.598  44.752   3.167
21138W        W86299  34.479  13.323  12.566
21139W        W86300  24.844  30.623   2.050
21140W        W86301  38.205  30.063  13.782
21141W        W86302  29.206  24.685   4.582
21142W        W86303  35.283  11.384  11.625
21143W        W86304  13.213   0.546  12.913
21144W        W86305  42.487  35.504  10.619
21145W        W86306  11.527  13.668   2.601
21146W        W86307   8.836  42.077   4.254
21147W        W86308  34.584  16.262   0.328
21148W        W86309   8.777  14.379   4.120
21149W        W86310   8.805  22.842   1.474
21150W        W86311  35.411   9.180   2.143
21151W        W86312   4.722  23.459   0.487
21152W        W86313  11.779  22.705  14.559
21153W        W86314  39.515  34.604  13.443
21154W        W86315   2.801  36.535   3.265
21155W        W86316  11.584   7.749  12.180
21156W        W86317  26.795  26.624   5.063
21157W        W86318  42.011  11.821   2.153
21158W        W86319  39.777  32.437  12.335
21159W        W86320  33.684  44.283  11.166
21160W        W86321  41.509  29.446   4.366
21161W        W86322   5.469  24.990   0.207
21162W        W86323  31.956  27.585  11.060
21163W        W86324   5.683  21.643   0.613
21164W        W86325   4.878  42.995  11.909
21165W        W86326   2.435  19.543   2.747
21166W        W86327  17.750  39.072  13.354
21167W        W86328  29.031   5.364  12.871
21168W        W86329  42.514  41.526  10.974
21169W        W86330   0.357  21.024   4.194
21170W        W86331  37.512  16.526   1.224
21171W        W86332   7.578  31.108   1.663
21172W        W86333   0.146  11.309  13.841
21173W        W86334  42.351  12.197  12.044
21174W        W86335  26.664  26.200  13.803
21175W        W86336  11.475   3.255  13.453
21176W        W86337   7.188  12.176   3.230
21177W        W86338  43.319  18.318  14.390
21178W        W86339  39.358  17.311   1.741
21179W        W86340  11.298  27.634   4.706
21180W        W86341  32.518   5.794   4.352
21181W        W86342  36.416  10.518   2.338
21182W        W86343  42.357  16.596  12.769
21183W        W86344  32.066  39.018   0.723
21184W        W86345  13.270  12.656  12.431
21185W        W86346  13.652  42.758  11.513
21186W        W86347  21.539   7.393  13.029
21187W        W86348  34.473  22.691  11.241
21188W        W86349  17.207  15.353  12.037
21189W        W86350  40.804  41.097  13.380
21190W        W86351  38.451  23.611   3.089
21191W        W86352  32.985  21.472   1.752
21192W        W86353  43.387   0.233  12.476
21193W        W86354  12.529  16.037  14.233
21194W        W86355  10.157  44.462  14.873
21195W        W86356  26.688   2.989  13.793
21196W        W86357   9.752  11.767   1.659
21197W        W86358  44.799  21.502  10.322
21198W        W86359  17.581  36.969   4.654
21199W        W86360  41.382   2.056  14.398
21200W        W86361   6.954  10.658   0.775
21201W        W86362  33.321  15.154   0.916
21202W        W86363  33.911   3.999   0.338
21203W        W86364   3.360  18.975  10.854
21204W        W86365  25.337  22.434   1.473
21205W        W86366  11.366  42.050   2.337
21206W        W86367   1.267  25.190   3.839
21207W        W86368  22.243  10.745  13.092
21208W        W86369  27.607  20.498  13.777
21209W        W86370  35.420  22.585  10.835
21210W        W86371  43.535  44.229   2.136
21211W        W86372  34.811  37.902   1.835
21212W        W86373  11.716   6.393  12.636
21213W        W86374  39.253  39.686   1.864
21214W        W86375   8.693   6.413  13.561
21215W        W86376   9.237  23.587  12.901
21216W        W86377  14.772  35.614   1.898
21217W        W86378  23.740   2.832   3.308
21218W        W86379  14.113  26.896  12.993
21219W        W86380  37.527  26.476   4.630
21220W        W86381  29.953  13.686  14.873
21221W        W86382  33.357  15.818   1.398
21222W        W86383  13.314  33.247  14.383
21223W        W86384   4.435   1.951  13.217
21224W        W86385  41.229  41.571  12.859
21225W        W86386   9.803   2.192  14.704
21226W        W86387  44.466  36.953   4.964
21227W        W86388  44.059   2.794  13.409
21228W        W86389  42.745   2.692  14.780
21229W        W86390  20.171  44.918   0.446
21230W        W86391  42.680  27.747  12.034
21231W        W86392   7.739  25.168   0.853
21232W        W86393   3.963  43.481  14.089
21233W        W86394  41.803  28.484   1.944
21234W        W86395  30.985  41.157  10.489
21235W        W86396  10.909  28.977  12.065
21236W        W86397  25.736  20.233   4.505
21237W        W86398   3.124  33.149   4.939
21238W        W86399  39.012   0.696   0.734
21239W        W86400  44.903  17.775  11.923
21240W        W86401  25.055  13.012   3.747
21241W        W86402  40.390  13.645  12.976
21242W        W86403  41.926  31.067  11.148
21243W        W86404  41.331   3.412  11.792
21244W        W86405   0.762  17.529   1.303
21245W        W86406   9.266   8.148  13.559
21246W        W86407  41.941  11.806   4.071
21247W        W86408  23.837  39.522  10.366
21248W        W86409  18.485  13.802   4.953
21249W        W86410  12.564  36.090  12.566
21250W        W86411   6.988  33.538  12.879
21251W        W86412   8.894  43.337   0.425
21252W        W86413   6.635   1.685  11.640
21253W        W86414   8.165  29.533  12.348
21254W        W86415  40.872  42.108   2.297
21255W        W86416  35.061  26.898   0.237
21256W        W86417  43.491  12.171  13.939
21257W        W86418  14.333  26.986   1.302
21258W        W86419  36.872  44.344  12.805
21259W        W86420  15.346   2.665   2.320
21260W        W86421  30.401  10.361  10.278
21261W        W86422  20.957   0.257   0.870
21262W        W86423  17.417  19.537   0.300
21263W        W86424  40.267   6.427   4.284
21264W        W86425  23.917  13.523   3.141
21265W        W86426  25.535  39.053  13.573
21266W        W86427   4.796  28.166  12.463
21267W        W86428   8.612  25.433   2.689
21268W        W86429  14.347  11.474   2.824
21269W        W86430  27.571   2.993   0.392
21270W        W86431  33.919  24.235   2.360
21271W        W86432   0.169  22.707  10.503
21272W        W86433   0.366   3.430  14.878
21273W        W86434  41.570   9.822   4.699
21274W        W86435   7.325  38.586  10.801
21275W        W86436  14.309  30.511   0.869
21276W        W86437   8.315  15.883  13.104
21277W        W86438  43.445  12.345   4.248
21278W        W86439  11.760  15.033   1.856
21279W        W86440  32.935   2.341   3.645
21280W        W86441  20.165  21.707   4.628
21281W        W86442  42.904  24.254  11.057
21282W        W86443  31.072   5.132   2.177
21283W        W86444   7.354  26.268   1.663
21284W        W86445   1.774  27.613   3.270
21285W        W86446  25.290  41.937   3.203
21286W        W86447   9.346  22.342  14.190
21287W        W86448  26.068  28.549   4.453
21288W        W86449   8.936  34.813  11.560
21289W        W86450  15.325  37.386  10.736
21290W        W86451  17.215  17.244  13.331
21291W        W86452  32.158  12.795   3.876
21292W        W86453  12.426  27.246  13.417
21293W        W86454  36.610   0.441  12.481
21294W        W86455  25.903  17.392   4.320
21295W        W86456   3.566  36.509   0.879
21296W        W86457  29.177   5.316  11.048
21297W        W86458  23.183  14.887  10.125
21298W        W86459  30.210  32.154  14.942
21299W        W86460  12.500   8.642   0.933
21300W        W86461  22.472  44.841  14.132
21301W        W86462  32.431   1.627   0.027
21302W        W86463  41.471  18.762   1.283
21303W        W86464   6.968   5.983  13.090
21304W        W86465  27.591   4.207   2.620
21305W        W86466  32.454   1.303  11.996
21306W        W86467  32.044  33.083  11.446
21307W        W86468   4.633  33.786   2.921
21308W        W86469  21.560   8.845  11.192
21309W        W86470  26.392  26.516  12.294
21310W        W86471  41.119  40.592  14.863
21311W        W86472  24.765  35.722   3.061
21312W        W86473   0.062  31.062   3.479
21313W        W86474  24.660   4.185  10.668
21314W        W86475  35.156  31.654  14.844
21315W        W86476  16.301   0.339  12.981
21316W        W86477  21.585  30.502   2.829
21317W        W86478  27.895   6.291  12.511
21318W        W86479   4.405  40.118  11.170
21319W        W86480   2.960  31.000  12.971
21320W        W86481  43.547   5.835  13.461
21321W        W86482   9.592  29.556   2.498
21322W        W86483   8.644  35.475  14.676
21323W        W86484  25.934   9.231   2.276
21324W        W86485  42.051  23.122  13.567
21325W        W86486  15.143  40.784  12.236
21326W        W86487   6.741   6.084  12.109
21327W        W86488  41.354  21.846  13.741
21328W        W86489  36.374  33.975  13.854
21329W        W86490  26.998   3.391   2.723
21330W        W86491  27.762  16.119  10.718
21331W        W86492  43.311  39.557  14.287
21332W        W86493  43.827  37.799   1.826
21333W        W86494  11.375  31.221   4.548
21334W        W86495  35.039  24.686   2.294
21335W        W86496  13.574   0.745  12.561
21336W        W86497  43.360  24.962   2.232
21337W        W86498  23.173  43.509  13.880
21338W        W86499  24.090  41.571  13.446
21339W        W86500  14.641  25.442   1.671
21340W        W86501  42.874  27.059  14.466
21341W        W86502  18.011  10.767  14.057
21342W        W86503  38.186  38.385  12.924
21343W        W86504  20.987   2.518  13.405
21344W        W86505  23.935  33.044  10.991
21345W        W86506  40.071   4.800  14.199
21346W        W86507   0.854   8.157   0.915
21347W        W86508   8.407   5.941  13.132
21348W        W86509  23.512   5.121  13.055
21349W        W86510  33.395  21.825   1.206
21350W        W86511  38.707  20.704   1.825
21351W        W86512  20.113  18.694   4.609
21352W        W86513  22.223  34.141  10.727
21353W        W86514  30.206  28.496  13.139
21354W        W86515  28.205   3.032   4.498
21355W        W86516   7.124   1.569   2.166
21356W        W86517  28.563  10.638   4.566
21357W        W86518   2.502  17.175  11.856
21358W        W86519  21.927  41.451  11.948
21359W        W86520  24.728  24.018  11.547
21360W        W86521  44.218  30.621   3.586
21361W        W86522   3.174   9.765  13.773
21362W        W86523  26.887  29.675   4.265
21363W        W86524  34.424   1.477  13.028
21364W        W86525  15.271  13.166  13.569
21365W        W86526  37.536  41.746  13.814
21366W        W86527  42.322  36.362   1.615
21367W        W86528   9.756  35.527   0.949
21368W        W86529  18.807  14.100   2.297
21369W        W86530  22.941  19.189   2.707
21370W        W86531   1.187  20.625   0.288
21371W        W86532   9.761   3.178  11.614
21372W        W86533  26.526  27.044  14.843
21373W        W86534  18.160  22.162   1.049
21374W        W86535  31.527  44.894  12.624
21375W        W86536  37.532   5.164   2.939
21376W        W86537  42.719  41.896  12.325
21377W        W86538  19.459  13.812  14.362
21378W        W86539  12.462  36.423  14.199
21379W        W86540  21.037  34.734  11.630
21380W        W86541   3.081  24.666   0.936
21381W        W86542  39.033  30.047  12.214
21382W        W86543  43.269  13.875   0.435
21383W        W86544  26.766  11.581   3.156
21384W        W86545   1.703  18.777  14.928
21385W        W86546  13.866  35.298   0.786
21386W        W86547  24.577   9.409   3.681
21387W        W86548  32.180  33.854   3.041
21388W        W86549  26.150  39.374  12.203
21389W        W86550  37.956  10.731   0.440
21390W        W86551  39.045  31.508   4.504
21391W        W86552  30.472  36.308   4.581
21392W        W86553  27.233  30.899  12.072
21393W        W86554  25.090  41.573  10.247
21394W        W86555  33.041  24.844  11.208
21395W        W86556  26.306  42.747   2.058
21396W        W86557  16.649   2.092   0.468
21397W        W86558  16.132  26.698  14.969
21398W        W86559  31.977  36.664  10.703
21399W        W86560  42.724  37.952   3.698
21400W        W86561  25.618  38.953  11.239
21401W        W86562   1.409  44.936   0.255
21402W        W86563   9.714  33.447  11.479
21403W        W86564   8.935  22.418   4.281
21404W        W86565  17.250  42.476   1.717
21405W        W86566  34.953  29.879   0.290
21406W        W86567  31.115  16.818   2.256
21407W        W86568  27.513  36.626  12.495
21408W        W86569   5.356   0.283  14.327
21409W        W86570  24.626  43.025  14.086
21410W        W86571  14.252  15.994   1.764
21411W        W86572  14.663  10.858  10.738
21412W        W86573  16.355  13.623   0.405
21413W        W86574  37.582   4.192   3.739
21414W        W86575  20.525  44.711  13.006
21415W        W86576  41.518   6.327   1.283
21416W        W86577  43.984   5.784   0.453
21417W        W86578  16.349   0.849   1.902
21418W        W86579  17.231  25.076  10.566
21419W        W86580  22.978  12.933   0.708
21420W        W86581   7.735   8.322  10.649
21421W        W86582  34.449   0.510   0.737
21422W        W86583   4.672   3.323  10.027
21423W        W86584  20.614  29.209   0.096
21424W        W86585  22.843   8.311  13.914
21425W        W86586   2.381  41.535   3.339
21426W        W86587  27.503  36.018  14.341
21427W        W86588  25.668  36.283  11.071
21428W        W86589   6.267  41.435   2.213
21429W        W86590  34.510  19.477   0.361
21430W        W86591  29.526  29.936   4.291
21431W        W86592   5.313  17.094   4.619
21432W        W86593  43.253  40.357  12.969
21433W        W86594   1.337  16.038   5.411
21434W        W86595  19.211   7.790   3.140
21435W        W86596  19.818  39.795  10.649
21436W        W86597  29.196  19.622   0.633
21437W        W86598  38.414   0.365   0.520
21438W        W86599  17.304   0.980  10.961
21439W        W86600   5.866   3.111  13.742
21440W        W86601  15.183  35.543  10.642
21441W        W86602  20.767  27.258   2.677
21442W        W86603  44.082  44.882   3.757
21443W        W86604  13.367  23.154   3.339
21444W        W86605  24.395  13.337   4.584
21445W        W86606   3.603  21.463  10.655
21446W        W86607  10.688   8.203  14.309
21447W        W86608  42.707  33.382   4.942
21448W        W86609  32.413  19.764   2.263
21449W        W86610   0.866  10.624  12.950
21450W        W86611   6.290  11.675   2.668
21451W        W86612  16.649  22.480  14.804
21452W        W86613  38.982  15.853  14.405
21453W        W86614  24.557   3.217   2.358
21454W        W86615   7.892   6.142   0.357
21455W        W86616  34.040  17.659   3.173
21456W        W86617  33.672  23.977   0.957
21457W        W86618  18.000   4.981   2.271
21458W        W86619   4.839  32.084  14.215
21459W        W86620  20.962  12.087   3.042
21460W        W86621  11.849   7.875   0.887
21461W        W86622  17.231  12.735   4.933
21462W        W86623  31.998   3.554   2.734
21463W        W86624  31.818  23.236   0.828
21464W        W86625  10.346   5.222   0.476
21465W        W86626  15.716   6.256   1.761
21466W        W86627  40.851  34.399   1.385
21467W        W86628   2.951  21.249   3.118
21468W        W86629  10.387  15.202   2.879
21469W        W86630  37.831  41.395  14.749
21470W        W86631   6.928  40.343   1.767
21471W        W86632  28.590   4.128   1.101
21472W        W86633   1.435  40.621   2.671
21473W        W86634   5.398  12.278   3.875
21474W        W86635  40.796  39.590   4.040
21475W        W86636  16.741  39.374   0.676
21476W        W86637  29.587   6.268  10.711
21477W        W86638  10.551   1.470  11.334
21478W        W86639  34.778   3.012   4.079
21479W        W86640  15.753  39.948  13.909
21480W        W86641  40.776  19.154   3.360
21481W        W86642  30.965  26.082   1.976
21482W        W86643  30.901  43.461  14.097
21483W        W86644  40.291  18.108  14.370
21484W        W86645  23.931   7.882   4.680
21485W        W86646  13.313   6.844  13.446
21486W        W86647  37.294  18.707  12.916
21487W        W86648  10.633  25.607   0.006
21488W        W86649  21.798  16.526   1.147
21489W        W86650  23.448  43.774   3.613
21490W        W86651  18.616  29.398  13.448
21491W        W86652  21.075  42.915   0.458
21492W        W86653  27.932  15.197   1.828
21493W        W86654  43.276   3.650   1.355
21494W        W86655  24.800  17.498  12.533
21495W        W86656  40.105   2.903  13.011
21496W        W86657  18.286  30.364  13.434
21497W        W86658  40.169  43.503   2.459
21498W        W86659   3.054  40.325  11.068
21499W        W86660  37.312  29.221  11.989
21500W        W86661   4.653  14.954   0.285
21501W        W86662  42.468  17.600   2.253
21502W        W86663  40.969  27.988   1.937
21503W        W86664  34.168  22.275   0.608
21504W        W86665  13.706  44.717   1.503
21505W        W86666   9.094  33.174   3.596
21506W        W86667  41.539  14.847  12.586
21507W        W86668  43.684  27.243  12.910
21508W        W86669  31.075  33.062   1.201
21509W        W86670  18.971  15.343   1.733
21510W        W86671  24.384  35.817   1.793
21511W        W86672  18.686  40.656   5.211
21512W        W86673   3.888  43.802   1.909
21513W        W86674  17.918  20.423   3.323
21514W        W86675  17.275  15.298   0.369
21515W        W86676   3.623  10.101   3.230
21516W        W86677  34.781  27.720  12.468
21517W        W86678  31.799  19.666  12.609
21518W        W86679  44.927   5.364   4.630
21519W        W86680   5.350  12.605  14.235
21520W        W86681  36.669  19.049   1.969
21521W        W86682  13.471  36.001  14.960
21522W        W86683  38.490  35.651   2.368
21523W        W86684  32.176  17.702  13.018
21524W        W86685   9.986  38.886  14.878
21525W        W86686  28.580  23.020   2.724
21526W        W86687   8.236   4.758   0.241
21527W        W86688  35.904  33.975   3.199
21528W        W86689   7.621  16.382   4.179
21529W        W86690  19.930   6.383   1.205
21530W        W86691  13.336  35.215  14.277
21531W        W86692  37.392  44.454  14.398
21532W        W86693  10.265  15.585  14.353
21533W        W86694  33.678  36.763  12.493
21534W        W86695  30.582  39.898   2.638
21535W        W86696  20.253  34.080   1.470
21536W        W86697  24.957  20.632  12.047
21537W        W86698   5.946  21.336  13.952
21538W        W86699  27.530  43.396  11.957
21539W        W86700  37.498  25.494   1.174
21540W        W86701  27.746   9.517  12.032
21541W        W86702  12.988  43.971  12.567
21542W        W86703  34.754  35.928   5.001
21543W        W86704   3.371  17.463  11.995
21544W        W86705  10.298  13.564  14.325
21545W        W86706  18.748  13.391   1.561
21546W        W86707  34.119  35.013  11.090
21547W        W86708  36.312  40.606  14.034
21548W        W86709  34.904  36.054   5.475
21549W        W86710   5.397  42.015   1.764
21550W        W86711  28.197  20.451   4.937
21551W        W86712  23.191  33.045   1.744
21552W        W86713  12.100  37.065   4.892
21553W        W86714  42.443   3.299  11.141
21554W        W86715  40.388  29.697  13.427
21555W        W86716   3.460  13.592   9.956
21556W        W86717   0.222  22.170   3.321
21557W        W86718  17.917  38.374  10.708
21558W        W86719  28.455   0.490   3.693
21559W        W86720  19.647   1.850   4.330
21560W        W86721  33.957  19.135  12.773
21561W        W86722   9.413  14.761   2.732
21562W        W86723  23.819  23.677   1.236
21563W        W86724  16.560   4.769  14.214
21564W        W86725  27.001  31.019   4.077
21565W        W86726  23.190  34.958  14.042
21566W        W86727  30.395  40.409  10.677
21567W        W86728  35.167  10.832   3.472
21568W        W86729  34.918   7.451  12.493
21569W        W86730  27.636  42.316   3.084
21570W        W86731  38.172  42.689  11.971
21571W        W86732  11.110   0.930  13.423
21572W        W86733  34.256  32.907   1.848
21573W        W86734   0.699  32.498   2.206
21574W        W86735  40.442  18.644  12.153
21575W        W86736  43.547   1.814   2.874
21576W        W86737  23.642  27.553   2.408
21577W        W86738  43.952  31.134  12.045
21578W        W86739  25.490  42.717   1.806
21579W        W86740  24.540  33.560   2.931
21580W        W86741  20.022  27.553   4.457
21581W        W86742   2.113   5.252  12.472
21582W        W86743  32.669  21.684  11.630
21583W        W86744  20.221  33.455   0.261
21584W        W86745  25.207  27.812  13.761
21585W        W86746  40.817  27.003   0.994
21586W        W86747  12.381  41.351  10.685
21587W        W86748   1.878  28.588  11.931
21588W        W86749  34.100  15.071  14.224
21589W        W86750   9.874   9.582   3.109
21590W        W86751  14.850  10.324   4.678
21591W        W86752  22.727   6.627  13.441
21592W        W86753  43.826  17.717   3.912
21593W        W86754  20.993  40.828  11.869
21594W        W86755  11.974  33.401  11.071
21595W        W86756  11.424  42.057   1.398
21596W        W86757  24.493   9.001   4.904
21597W        W86758  20.994   1.238   0.691
21598W        W86759  25.261  12.098  14.650
21599W        W86760  30.530  19.077   4.517
21600W        W86761  19.758  29.004   1.509
21601W        W86762  43.911  43.096  14.751
21602W        W86763  20.562  33.221   3.776
21603W        W86764  43.686  23.041   2.412
21604W        W86765  19.326  17.123   1.654
21605W        W86766  11.169   5.819   1.098
21606W        W86767  13.702  24.121  13.871
21607W        W86768  28.832  23.638   3.598
21608W        W86769  11.514  24.564   0.933
21609W        W86770  30.462  37.018  10.664
21610W        W86771  31.851   6.213   3.568
21611W        W86772  21.233   1.804  11.073
21612W        W86773  39.967  27.097   3.663
21613W        W86774  27.456  16.222  11.680
21614W        W86775  44.198  13.075  13.319
21615W        W86776   6.841  27.538  12.025
21616W        W86777  37.285  12.754   0.451
21617W        W86778  23.082  15.981  13.846
21618W        W86779  30.406  38.872  14.715
21619W        W86780  22.067  16.189   4.030
21620W        W86781  41.596  27.114   3.204
21621W        W86782   4.299  18.627   0.814
21622W        W86783  34.868  43.491  13.981
21623W        W86784  20.099  34.306  12.041
21624W        W86785  42.550  22.506   5.221
21625W        W86786  39.750  40.393  13.047
21626W        W86787   1.182   0.023   4.186
21627W        W86788   5.351  19.010  14.272
21628W        W86789   0.816  16.275   3.687
21629W        W86790  25.943  10.756   1.431
21630W        W86791  36.832  14.762   4.448
21631W        W86792  25.626  42.829   0.759
21632W        W86793   6.002  40.508   1.146
21633W        W86794   8.945  30.161   0.400
21634W        W86795  30.398  38.957   0.262
21635W        W86796   4.278   4.393  12.239
21636W        W86797   7.301  31.113  11.604
21637W        W86798  38.631  21.289   3.561
21638W        W86799  31.424  40.789   0.980
21639W        W86800  31.570  29.552   2.190
21640W        W86801  24.452  18.165  13.066
21641W        W86802  44.337  16.120  11.980
21642W        W86803   6.386   5.721   0.226
21643W        W86804  37.027  20.578  11.542
21644W        W86805   0.075  13.208  13.440
21645W        W86806  29.617  32.973  11.619
21646W        W86807  41.535  18.294  11.672
21647W        W86808  23.706  27.348  13.307
21648W        W86809  29.560  20.060  14.800
21649W        W86810  26.404  20.045  14.800
21650W        W86811  13.210  13.673  12.682
21651W        W86812  11.139   7.956  14.218
21652W        W86813  37.328  16.137  13.788
21653W        W86814  35.789  19.832   1.646
21654W        W86815  42.047  42.743   2.313
21655W        W86816  23.431  13.862   2.371
21656W        W86817   7.300   0.846  11.578
21657W        W86818  28.186   9.839  12.971
21658W        W86819  38.938  17.682   0.073
21659W        W86820   1.033  41.443   4.112
21660W        W86821  10.378   8.999   5.054
21661W        W86822  36.048  37.232   0.026
21662W        W86823   5.443   4.259   2.586
21663W        W86824   5.269  17.256   1.893
21664W        W86825   6.022  11.744   0.287
21665W        W86826  18.384  33.762  11.706
21666W        W86827  44.785  17.440   2.459
21667W        W86828   4.784   7.770   4.606
21668W        W86829  16.879  31.989  11.834
21669W        W86830  29.671   1.078   2.322
21670W        W86831  25.209  31.560   2.281
21671W        W86832  10.225  43.810   0.044
21672W        W86833  43.451  32.469   4.748
21673W        W86834  18.065  36.607   1.351
21674W        W86835  17.007  38.516   4.063
21675W        W86836   2.612  36.117  14.337
21676W        W86837  26.772  31.181  12.931
21677W        W86838  22.424  12.578   5.002
21678W        W86839  16.860   5.569  10.178
21679W        W86840  14.517  43.308   3.369
21680W        W86841   0.677  41.309   1.812
21681W        W86842   5.922  43.870  14.640
21682W        W86843  41.574  16.131  11.105
21683W        W86844  24.062  40.590   2.188
21684W        W86845  32.359   3.240   1.903
21685W        W86846   3.278   0.545  11.867
21686W        W86847  27.007  32.212  11.557
21687W        W86848  28.381  24.649  14.749
21688W        W86849  36.429   4.412   3.614
21689W        W86850   2.078  39.407  11.090
21690W        W86851  42.552  12.158   0.676
21691W        W86852   7.173   8.404   4.092
21692W        W86853  17.005  25.105  11.421
21693W        W86854   9.542  32.133  11.107
21694W        W86855  13.891  34.533   2.323
21695W        W86856  18.488  36.703  14.574
21696W        W86857   4.833  43.737  13.542
21697W        W86858  18.619  30.916  14.696
21698W        W86859  13.088  36.530  10.733
21699W        W86860  35.296  18.179  12.148
21700W        W86861  21.216  40.006  11.859
21701W        W86862   7.839  33.602  12.835
21702W        W86863  14.762  35.851   4.532
21703W        W86864  24.008  12.273   3.659
21704W        W86865  39.292  40.372  12.818
21705W        W86866   1.705  36.289  12.939
21706W        W86867   1.603  27.692   5.071
21707W        W86868  42.687  26.578   2.729
21708W        W86869  34.697  16.259  14.504
21709W        W86870  19.215   4.730  12.299
21710W        W86871  21.714   1.559  14.927
21711W        W86872   9.589  11.705  13.670
21712W        W86873   4.818  43.022   0.888
21713W        W86874  29.614  15.601   0.927
21714W        W86875  23.356  11.619   4.560
21715W        W86876  11.860  11.709  14.721
21716W        W86877  29.875  28.942   4.376
21717W        W86878  34.839  19.255  11.225
21718W        W86879  31.847  23.808  12.407
21719W        W86880   8.792  18.096   0.405
21720W        W86881  22.967  25.215   0.903
21721W        W86882  25.420  23.157  12.994
21722W        W86883  22.824  15.617   0.922
21723W        W86884  23.657  34.781  12.927
21724W        W86885  23.742   8.105   4.241
21725W        W86886   8.342  16.688   0.254
21726W        W86887   1.163   7.434  12.067
21727W        W86888  35.486  32.356  11.529
21728W        W86889  15.625  17.081  12.128
21729W        W86890  36.576  12.230  14.893
21730W        W86891   1.982  38.293  12.961
21731W        W86892  27.657  44.561  10.574
21732W        W86893  41.066  24.610  11.692
21733W        W86894  30.855  39.565  11.050
21734W        W86895  23.545  35.687  14.059
21735W        W86896  32.152  42.982   2.311
21736W        W86897  39.563  17.765  11.556
21737W        W86898  41.906  12.333  10.758
21738W        W86899  39.181  44.700   4.040
21739W        W86900   5.693   7.847   2.435
21740W        W86901  22.016  35.102   1.978
21741W        W86902  42.229  37.507  10.261
21742W        W86903  19.490  13.163  11.622
21743W        W86904  10.177  14.471  13.657
21744W        W86905  29.933  21.166   5.541
21745W        W86906  10.331  18.577   0.631
21746W        W86907  39.345  15.095  11.204
21747W        W86908  10.652   3.243  12.448
21748W        W86909  12.527  38.955  12.416
21749W        W86910   2.689  19.018  12.117
21750W        W86911   9.714  34.098   2.941
21751W        W86912  16.707  17.681  10.550
21752W        W86913  12.814  44.860  13.062
21753W        W86914  18.227  37.788   3.283
21754W        W86915  13.302  19.452   2.269
21755W        W86916  23.795  26.975  11.053
21756W        W86917  11.339  21.001  14.855
21757W        W86918  23.343  21.033  12.027
21758W        W86919   1.715  13.813   1.927
21759W        W86920  44.870  33.972   3.984
21760W        W86921  35.899  14.166  14.553
21761W        W86922  28.974  43.828  10.465
21762W        W86923  23.931  15.451  11.124
21763W        W86924   0.527  28.819   3.356
21764W        W86925   9.174  42.624  11.968
21765W        W86926   1.350  33.495  12.475
21766W        W86927  37.113   7.532   4.219
21767W        W86928   7.804   2.370  10.678
21768W        W86929  26.444  39.505   1.772
21769W        W86930   5.128   3.308   2.781
21770W        W86931  17.848  19.047  13.199
21771W        W86932   7.187  42.805   2.984
21772W        W86933   3.019  36.330   2.840
21773W        W86934   4.189  17.256   2.622
21774W        W86935  35.066  21.673   0.588
21775W        W86936  42.405  10.828   0.451
21776W        W86937  13.113  16.187  11.584
21777W        W86938  40.535  34.966   0.922
21778W        W86939  24.379   9.933  11.637
21779W        W86940  15.579  15.979   4.204
21780W        W86941  13.071  31.112   2.368
21781W        W86942  16.648  29.634   2.479
21782W        W86943  33.156  31.855   2.017
21783W        W86944  15.342  29.576  14.512
21784W        W86945  40.912  38.144  12.010
21785W        W86946   0.438   7.175   1.357
21786W        W86947  28.328  14.079   1.375
21787W        W86948  27.101   6.234   0.146
21788W        W86949   9.400   1.885  14.835
21789W        W86950  26.623   6.878  12.461
21790W        W86951  17.687  30.419  12.934
21791W        W86952  18.154  16.877   0.255
21792W        W86953   6.421  42.385  11.124
21793W        W86954  22.562   8.216   1.710
21794W        W86955  28.239  20.017   0.939
21795W        W86956   6.454  25.019   1.203
21796W        W86957  16.173  29.103   4.345
21797W        W86958   3.413  37.783   4.089
21798W        W86959  30.359  43.712  11.954
21799W        W86960  10.335  30.452   4.554
21800W        W86961  12.708  33.359   0.219
21801W        W86962  43.791   8.778   2.351
21802W        W86963  19.013  17.546  14.398
21803W        W86964   3.454  10.367   2.817
21804W        W86965  40.934  26.257  13.008
21805W        W86966  12.764   2.741  11.073
21806W        W86967  28.103  38.333  13.477
21807W        W86968  20.089   7.479  13.967
21808W        W86969  24.135  34.580  14.858
21809W        W86970  12.644  17.225   4.104
21810W        W86971  40.476  31.592   0.052
21811W        W86972  33.648   5.681  10.667
21812W        W86973  17.775  27.354   3.695
21813W        W86974  25.460  40.712  14.763
21814W        W86975  33.131  22.549   5.029
21815W        W86976   9.806  36.970  10.658
21816W        W86977   7.273  28.937   0.365
21817W        W86978  31.466  44.390  13.572
21818W        W86979  25.666   6.630  13.246
21819W        W86980  34.910  35.120   4.469
21820W        W86981   5.044  26.199   2.719
21821W        W86982  29.441  13.135  11.612
21822W        W86983  17.064  40.790  11.082
21823W        W86984  15.342  19.723   3.160
21824W        W86985   1.155  21.838   3.307
21825W        W86986  21.523  32.967   1.251
21826W        W86987  21.201  23.236   3.148
21827W        W86988  39.908  20.443  12.900
21828W        W86989  41.007  33.536   3.601
21829W        W86990  19.098  19.148   0.802
21830W        W86991  21.304  28.919   4.796
21831W        W86992  22.076  26.290   4.925
21832W        W86993  38.033  18.256   0.630
21833W        W86994  34.053  31.734   1.349
21834W        W86995   9.512  40.044  14.438
21835W        W86996  43.953  27.377   3.017
21836W        W86997   1.721  35.300   1.299
21837W        W86998  13.340  10.320   4.566
21838W        W86999  27.581  18.181  10.721
21839W        W87000  41.654  19.322  12.978
21840W        W87001  24.024   2.519  10.944
21841W        W87002  20.569  20.903  14.916
21842W        W87003  32.935   9.754   3.351
21843W        W87004   2.569  11.664   4.339
21844W        W87005  24.202  18.164   1.636
21845W        W87006  27.338  25.581  11.499
21846W        W87007  15.924  33.976  13.196
21847W        W87008  26.166  16.953  13.939
21848W        W87009  14.045   1.518  12.086
21849W        W87010  14.251  18.254  13.091
21850W        W87011   5.680  10.060   3.410
21851W        W87012   8.674   3.535   1.186
21852W        W87013   6.282  22.438  13.421
21853W        W87014  14.823  22.959   3.392
21854W        W87015  13.195  34.662   0.884
21855W        W87016  44.395   5.672   2.351
21856W        W87017   4.450  19.733   3.677
21857W        W87018  12.392   1.913   4.059
21858W        W87019  26.012   6.748  10.650
21859W        W87020  37.875  23.622  11.128
21860W        W87021  22.372  23.282  13.334
21861W        W87022  30.853  22.652  13.531
21862W        W87023  36.522  38.829   4.995
21863W        W87024  37.442   5.463   3.356
21864W        W87025  38.572  11.379   0.333
21865W        W87026  31.012   8.373  14.792
21866W        W87027   0.515   7.244   4.219
21867W        W87028  32.034  31.580   1.368
21868W        W87029  11.279  38.440  13.888
21869W        W87030  26.729  27.660   3.141
21870W        W87031   4.498   9.111  11.171
21871W        W87032  41.683   7.419   0.487
21872W        W87033  44.867   0.825   2.787
21873W        W87034  26.199  20.180  12.490
21874W        W87035  13.581   1.667   3.325
21875W        W87036  12.123   3.186  10.701
21876W        W87037  44.789  26.007   1.807
21877W        W87038  37.043  27.561   1.731
21878W        W87039  32.737  11.138   5.079
21879W        W87040  39.116  36.197   5.113
21880W        W87041  17.972   9.411   3.632
21881W        W87042  23.687  27.739  14.869
21882W        W87043  35.296  12.015   4.243
21883W        W87044  18.635  23.299   1.636
21884W        W87045   4.914  10.410  12.074
21885W        W87046  12.428  14.307   2.804
21886W        W87047  17.221  11.248  14.765
21887W        W87048  16.024  19.681   4.595
21888W        W87049  22.121   4.281   1.287
21889W        W87050   3.750   9.132  11.538
21890W        W87051  28.954  28.732  11.978
21891W        W87052  21.247  26.184  13.478
21892W        W87053  11.765   3.764  10.698
21893W        W87054  10.799  20.329  14.514
21894W        W87055  14.104   0.469  13.577
21895W        W87056  21.005  42.364   2.257
21896W        W87057  39.805  17.811   3.699
21897W        W87058  27.150  32.547  13.713
21898W        W87059  16.585  14.854  13.532
21899W        W87060  34.754  17.467  11.061
21900W        W87061  16.171  29.468  10.616
21901W        W87062  26.621   5.989   2.421
21902W        W87063  37.621  39.066  13.432
21903W        W87064  35.995  35.141   1.387
21904W        W87065  30.443   0.470   3.674
21905W        W87066  24.163  17.986   1.141
21906W        W87067  44.914  40.489  13.854
21907W        W87068  36.030  14.645   0.454
21908W        W87069  27.778  13.509   2.384
21909W        W87070  11.164   9.157  12.381
21910W        W87071   1.931  33.121   0.873
21911W        W87072  30.582  29.283  13.882
21912W        W87073  17.531   4.732  11.978
21913W        W87074  31.506   5.209  11.602
21914W        W87075  24.577  21.080  12.535
21915W        W87076  38.459  19.965   3.910
21916W        W87077  19.190  35.098   3.378
21917W        W87078   6.553  23.008   4.528
21918W        W87079  20.499  37.796   3.091
21919W        W87080  44.514  21.094  13.497
21920W        W87081  33.724  38.305  12.523
21921W        W87082  14.236  44.114  11.145
21922W        W87083  32.634  16.288   0.808
21923W        W87084  33.550  23.275  12.927
21924W        W87085  22.173   3.959   0.835
21925W        W87086  31.220  10.813  10.495
21926W        W87087   4.248   9.682   2.217
21927W        W87088  25.775  38.194   0.613
21928W        W87089  40.985  18.237   1.789
21929W        W87090  37.898   8.706  13.991
21930W        W87091  41.057  37.478   0.342
21931W        W87092  41.450  27.503   4.235
21932W        W87093  11.803   3.378  11.933
21933W        W87094  17.256   7.335  11.133
21934W        W87095   4.188  24.171   4.229
21935W        W87096  37.926   2.222  11.957
21936W        W87097  15.769   3.308   4.482
21937W        W87098  23.149  23.745   4.497
21938W        W87099  27.792  24.679   3.196
21939W        W87100  35.625  39.791   5.038
21940W        W87101  14.048  25.061  13.506
21941W        W87102   7.261   6.683   1.729
21942W        W87103  26.155   7.887   2.805
21943W        W87104  30.997  32.348  12.965
21944W        W87105  14.622  14.855   4.350
21945W        W87106  41.877  12.662   0.293
21946W        W87107  33.156  25.001   3.895
21947W        W87108  10.600   3.557  11.147
21948W        W87109  32.538   8.720   2.291
21949W        W87110  44.916  37.923   4.057
21950W        W87111  36.426   9.153   0.141
21951W        W87112  44.500   1.487   1.208
21952W        W87113  23.824  32.595  11.731
21953W        W87114  41.787  14.183   0.424
21954W        W87115  44.001  25.676  12.101
21955W        W87116  36.905  21.882  14.063
21956W        W87117  43.034  39.720  14.714
21957W        W87118  17.086   4.882  14.376
21958W        W87119   1.450  19.182  13.940
21959W        W87120  42.374  15.429  14.140
21960W        W87121   7.503   2.142  11.534
21961W        W87122  23.661  21.561  13.910
21962W        W87123  11.490  23.298   2.330
21963W        W87124  21.990  23.111  13.634
21964W        W87125   5.461  24.821   9.771
21965W        W87126  28.013  28.738   2.423
21966W        W87127  29.875   7.798   0.010
21967W        W87128  26.442  18.335  12.877
21968W        W87129  28.418  31.858   3.751
21969W        W87130  37.542  29.920  14.014
21970W        W87131   1.696   4.794  11.624
21971W        W87132  30.747  14.675   0.958
21972W        W87133  22.112  37.657   9.854
21973W        W87134  12.066  35.126   1.418
21974W        W87135  20.106  27.223   3.435
21975W        W87136  30.017  32.349  10.787
21976W        W87137   9.921  41.735  12.011
21977W        W87138  14.144  28.009  12.124
21978W        W87139   3.672   1.379   4.678
21979W        W87140   7.254   0.791   3.596
21980W        W87141  13.299  36.430   1.224
21981W        W87142  11.928  28.057  14.273
21982W        W87143  24.490  22.120  14.304
21983W        W87144   3.872  43.192   3.736
21984W        W87145   9.835  40.069   3.082
21985W        W87146  29.485  13.363  13.466
21986W        W87147  41.878   8.654   2.301
21987W        W87148  18.357  22.763  10.717
21988W        W87149  28.138  36.681   0.808
21989W        W87150   1.142  24.080   2.715
21990W        W87151   9.724  22.714  13.903
21991W        W87152  41.944  41.680   0.384
21992W        W87153  18.822  38.994  13.417
21993W        W87154  32.518  44.371   4.020
21994W        W87155  40.915  13.644  13.051
21995W        W87156  41.150  40.576  13.150
21996W        W87157  20.002  33.921  10.671
21997W        W87158  28.313  44.004  13.486
21998W        W87159  22.683  23.773  14.900
21999W        W87160  34.988  31.144  14.868
22000W        W87161   6.003  27.929  13.589
22001W        W87162  32.921  38.044   2.822
22002W        W87163  12.355  42.296  14.966
22003W        W87164  34.262   8.101   1.286
22004W        W87165  13.749   7.173  12.372
22005W        W87166   5.391   8.897   4.590
22006W        W87167  31.326  41.356  14.383
22007W        W87168  36.831  29.371   4.930
22008W        W87169  24.469  26.994   2.263
22009W        W87170  26.351  27.745  12.329
22010W        W87171  27.541  34.609  10.756
22011W        W87172   9.968  10.830   0.654
22012W        W87173  40.735   5.944   0.991
22013W        W87174  11.371  42.065   3.067
22014W        W87175  41.280  20.508  12.915
22015W        W87176  11.296  37.880   1.652
22016W        W87177  42.384  30.911   0.905
22017W        W87178  13.219   6.710  11.512
22018W        W87179  34.624  24.368  12.844
22019W        W87180  22.183  12.795  14.547
22020W        W87181  43.293  42.535  14.600
22021W        W87182  39.993  33.434  10.588
22022W        W87183   0.374  32.933  10.703
22023W        W87184  33.836  27.044  10.375
22024W        W87185  21.036   5.759   2.298
22025W        W87186   2.464  27.147   2.840
22026W        W87187  39.094  42.837   0.321
22027W        W87188  36.527  43.294   1.317
22028W        W87189   3.520  41.966  12.361
22029W        W87190  27.818  39.909   4.540
22030W        W87191  29.066  18.509   1.451
22031W        W87192  32.673  11.803  13.952
22032W        W87193  30.770  43.215  11.594
22033W        W87194  40.384  23.264   0.769
22034W        W87195   2.782  26.222   5.279
22035W        W87196  30.966  32.590  12.499
22036W        W87197  34.060  43.972  12.016
22037W        W87198   2.433  38.414  13.974
22038W        W87199  12.043  14.612   1.752
22039W        W87200  21.174   9.298   2.187
22040W        W87201  14.378  32.984  11.472
22041W        W87202   2.629  10.855  13.951
22042W        W87203   9.615  32.016  12.091
22043W        W87204  19.744  14.185   1.656
22044W        W87205  14.650  43.392   0.818
22045W        W87206  10.433  36.364  12.942
22046W        W87207   9.532  44.754  13.096
22047W        W87208   4.235   3.160  13.489
22048W        W87209  31.503  22.227   0.348
22049W        W87210   5.705   9.189  12.028
22050W        W87211  22.069  29.108  13.088
22051W        W87212  23.655   3.555  12.862
22052W        W87213  15.817  38.342  11.674
22053W        W87214  32.380  31.294   3.131
22054W        W87215   9.447  14.128   0.443
22055W        W87216  43.392  22.615  13.078
22056W        W87217  22.575  12.096  14.896
22057W        W87218  27.569   0.237   3.174
22058W        W87219  43.779  27.854   3.188
22059W        W87220   0.895  28.915   4.246
22060W        W87221  16.560  22.657  13.342
22061W        W87222  14.634  17.154  13.510
22062W        W87223  37.141  10.652  10.486
22063W        W87224  10.452  18.469   4.984
22064W        W87225  16.282  12.511  11.883
22065W        W87226  16.658   2.252  11.982
22066W        W87227  30.052  19.235  10.701
22067W        W87228   7.530  22.609  14.186
22068W        W87229  22.490  40.251   4.347
22069W        W87230  31.903  20.274  12.475
22070W        W87231   3.683   5.913  11.307
22071W        W87232  43.546   7.181  11.053
22072W        W87233  10.906   3.489   4.150
22073W        W87234  19.023  15.625   0.956
22074W        W87235  27.462  16.539  13.770
22075W        W87236   1.195  28.927   2.143
22076W        W87237  43.019   5.471  12.141
22077W        W87238   6.830   5.183   1.163
22078W        W87239  27.986  36.339   4.933
22079W        W87240  25.949  14.548  11.549
22080W        W87241  13.664  34.161   0.056
22081W        W87242  17.236  36.604   1.922
22082W        W87243  21.491  22.902  12.293
22083W        W87244   4.173  23.909  10.734
22084W        W87245  10.208  41.013   0.471
22085W        W87246   0.192  14.713   1.725
22086W        W87247   9.962  36.136   1.318
22087W        W87248  24.985  40.015  14.960
22088W        W87249  10.299   8.463   0.033
22089W        W87250  14.387  20.282   4.133
22090W        W87251  31.453   2.757  14.885
22091W        W87252  23.968  29.978  13.871
22092W        W87253  35.030  17.723   3.622
22093W        W87254  18.714  23.152  10.923
22094W        W87255  32.449   4.458   1.381
22095W        W87256  20.774  28.267   0.792
22096W        W87257   3.194   3.489  12.442
22097W        W87258  24.319  24.355  12.411
22098W        W87259  40.437  35.018   4.464
22099W        W87260  24.395  37.078   2.822
22100W        W87261  27.615  25.690   0.261
22101W        W87262  14.079   6.826  14.644
22102W        W87263  20.280   5.727  11.084
22103W        W87264  16.153  24.788   0.790
22104W        W87265  11.166  20.860  13.834
22105W        W87266  21.071  22.741  13.876
22106W        W87267  28.726   3.758   1.681
22107W        W87268  25.585  30.785   1.402
22108W        W87269  33.054  20.137   3.299
22109W        W87270   4.207  39.735  12.096
22110W        W87271  27.966  22.621   4.218
22111W        W87272  21.368  44.763   2.184
22112W        W87273  39.131   8.824  12.461
22113W        W87274  24.690  15.608  12.379
22114W        W87275   8.012  15.502  13.463
22115W        W87276  28.213  35.180   0.768
22116W        W87277   9.343   0.234   3.596
22117W        W87278  16.541  25.877   3.689
22118W        W87279  24.597  37.347  12.476
22119W        W87280  12.928   6.202  10.895
22120W        W87281  36.317  24.813   2.582
22121W        W87282  11.650  38.915  12.044
22122W        W87283  25.296   4.302  12.053
22123W        W87284  27.275  39.889   3.270
22124W        W87285  35.012  17.664   2.602
22125W        W87286  40.854  17.193  14.018
22126W        W87287  15.831  36.785   3.374
22127W        W87288   5.792   8.255  12.786
22128W        W87289  32.452  37.623   4.214
22129W        W87290  20.803  43.773  10.143
22130W        W87291  44.694  31.581   1.768
22131W        W87292  10.795  44.231  13.968
22132W        W87293  18.634  10.170  13.794
22133W        W87294  30.625  28.461   0.859
22134W        W87295  15.857  38.828  12.365
22135W        W87296  32.964  35.146   3.982
22136W        W87297   2.172  23.449  12.573
22137W        W87298  27.360  34.086  12.532
22138W        W87299  19.606  24.554   4.694
22139W        W87300  36.659  14.768  14.482
22140W        W87301   4.263  30.958  13.410
22141W        W87302  34.465  12.399   0.471
22142W        W87303  39.881  44.258  11.029
22143W        W87304  27.014  44.853   0.444
22144W        W87305  11.836  11.533   4.595
22145W        W87306  17.207  27.611   2.444
22146W        W87307   3.844  13.760  12.563
22147W        W87308  29.627  29.685   0.545
22148W        W87309  40.197  11.317   2.613
22149W        W87310   9.046  43.197  13.296
22150W        W87311  13.685   5.695   2.791
22151W        W87312  22.373   6.586  10.843
22152W        W87313  30.836  22.757   0.738
22153W        W87314  23.638   4.434   2.300
22154W        W87315  21.942  23.970   2.934
22155W        W87316  29.947  12.222  14.865
22156W        W87317   1.924  30.628   1.818
22157W        W87318  20.564   8.138  11.452
22158W        W87319  17.110  42.965   1.601
22159W        W87320  15.358  24.125   3.595
22160W        W87321  27.835  16.234   2.619
22161W        W87322   1.340  18.298   1.659
22162W        W87323  27.437   6.121  13.871
22163W        W87324  21.506  39.971   4.686
22164W        W87325  18.553  28.522   1.708
22165W        W87326  24.278  34.477   4.544
22166W        W87327  22.665  25.877   1.858
22167W        W87328  27.398  15.755   1.425
22168W        W87329  34.147  26.036   3.549
22169W        W87330   2.295   3.641  10.653
22170W        W87331  42.743  34.048   0.558
22171W        W87332  28.079  35.350  13.377
22172W        W87333  18.730  41.019   2.665
22173W        W87334  40.082  42.731  11.089
22174W        W87335  34.927  25.713  13.139
22175W        W87336  14.573  31.596   1.544
22176W        W87337  31.465  31.667   3.784
22177W        W87338  25.515  44.323  14.076
22178W        W87339   9.250  18.288  12.926
22179W        W87340  43.836   8.675   2.858
22180W        W87341  13.038  32.596  14.959
22181W        W87342  34.027  24.313  13.407
22182W        W87343   4.170  30.015  11.938
22183W        W87344  15.669  16.060   0.693
22184W        W87345   0.491  13.854   3.254
22185W        W87346  32.926   3.075   0.366
22186W        W87347  20.809   4.686  14.941
22187W        W87348  43.270  42.496  11.197
22188W        W87349  13.891  13.261   0.781
22189W        W87350  40.348  30.354  14.534
22190W        W87351   0.197  18.005   1.812
22191W        W87352   8.649  38.451   2.149
22192W        W87353  20.666   3.536  12.197
22193W        W87354  11.328   6.202   2.415
22194W        W87355   9.309  27.110   3.091
22195W        W87356  19.138  28.022  11.602
22196W        W87357  23.272  44.760   2.869
22197W        W87358  43.427  32.498  11.810
22198W        W87359  19.272   5.177   0.467
22199W        W87360  43.792  27.121  12.358
22200W        W87361  40.811  10.417  13.394
22201W        W87362  25.511  10.532  10.436
22202W        W87363  14.674  11.951   0.242
22203W        W87364  43.559   8.773   1.154
22204W        W87365  18.528  32.674   4.110
22205W        W87366  32.721  39.973  13.130
22206W        W87367  13.584   3.293   4.047
22207W        W87368  41.284  32.916  12.361
22208W        W87369  16.777  38.732  11.954
22209W        W87370   5.035  12.275   2.938
22210W        W87371  11.718  35.094  14.251
22211W        W87372  44.645  38.139  12.529
22212W        W87373   8.067  28.081   1.465
22213W        W87374  27.105  13.375   4.038
22214W        W87375  21.234  43.325  14.777
22215W        W87376  17.679  10.742  10.485
22216W        W87377  18.927  15.381  12.438
22217W        W87378  30.555  19.540  11.200
22218W        W87379  26.182  26.679   1.321
22219W        W87380  30.877  38.756   3.632
22220W        W87381  28.368  44.781   1.196
22221W        W87382   9.353  43.491   2.423
22222W        W87383  32.639  20.236   2.209
22223W        W87384  36.815   9.226  13.300
22224W        W87385   9.917  43.263  14.364
22225W        W87386  21.092  28.024  13.869
22226W        W87387  24.442  10.635   3.090
22227W        W87388  22.788  20.504   9.918
22228W        W87389  20.231  12.191  11.001
22229W        W87390  26.518  19.697   2.733
22230W        W87391  35.574  44.887   3.642
22231W        W87392  17.579  10.446   3.371
22232W        W87393  16.628  26.225  14.032
22233W        W87394  41.599  15.779  14.784
22234W        W87395  36.814  25.935  12.120
22235W        W87396   6.243  28.513  14.043
22236W        W87397  43.006  21.669  10.990
22237W        W87398  23.989  21.733   2.818
22238W        W87399  10.226   8.664   4.664
22239W        W87400   1.806   7.698   0.411
22240W        W87401   4.858  43.723  14.457
22241W        W87402  18.057  21.299   4.142
22242W        W87403  21.196  34.184   0.041
22243W        W87404   7.714  31.076  12.852
22244W        W87405  44.022   5.654  10.684
22245W        W87406  36.067  12.480  12.227
22246W        W87407  12.881   3.288   1.843
22247W        W87408  29.114   1.705  10.659
22248W        W87409   2.802  20.653   3.960
22249W        W87410  28.918  13.453  13.953
22250W        W87411  16.829   5.254  12.369
22251W        W87412  32.752  43.986   3.771
22252W        W87413  31.472  32.195   3.743
22253W        W87414  13.375  17.858  14.774
22254W        W87415  17.292   9.832   3.943
22255W        W87416  15.404   9.023  12.463
22256W        W87417  24.072  37.773   1.453
22257W        W87418  24.757   6.086  12.459
22258W        W87419   7.705  31.732  14.525
22259W        W87420  43.469  29.141   3.812
22260W        W87421  31.843   0.356   1.316
22261W        W87422  27.408  21.200   4.076
22262W        W87423  21.278  41.417  14.370
22263W        W87424  19.306   8.887   3.588
22264W        W87425  28.848  17.470   0.428
22265W        W87426   7.403  14.331   2.302
22266W        W87427  18.706   2.512  10.674
22267W        W87428  35.855  44.225  12.493
22268W        W87429  34.974  19.361  12.076
22269W        W87430   5.890  42.786  12.196
22270W        W87431  25.066  39.059  14.847
22271W        W87432   0.322  43.566   0.130
22272W        W87433  33.920   3.948  14.383
22273W        W87434  24.215  27.847  14.022
22274W        W87435  20.707   1.581   1.884
22275W        W87436  14.886  24.719  13.852
22276W        W87437  18.588  19.086   0.770
22277W        W87438   9.079  44.805  13.343
22278W        W87439  23.229  24.818  12.863
22279W        W87440   2.954  20.637  10.676
22280W        W87441  33.603  27.585  12.992
22281W        W87442  27.613  23.638   2.399
22282W        W87443   8.568  38.449   4.777
22283W        W87444  21.064  32.319   2.279
22284W        W87445  44.680  31.650   3.958
22285W        W87446  26.411   9.229   0.823
22286W        W87447  26.475  38.755  13.962
22287W        W87448   3.783  44.268   2.799
22288W        W87449  22.187  21.334   2.645
22289W        W87450  26.661  18.602  13.939
22290W        W87451  13.366  26.311   9.736
22291W        W87452  17.601  18.656  14.299
22292W        W87453  37.972  19.734   3.237
22293W        W87454  18.703   9.126   4.307
22294W        W87455  18.604  41.680  12.131
22295W        W87456   8.107  33.999  10.781
22296W        W87457   3.722   1.648  14.799
22297W        W87458   7.499  16.662   3.736
22298W        W87459  35.707  18.037  13.009
22299W        W87460  13.256  37.885  11.018
22300W        W87461  27.724  11.411   2.403
22301W        W87462  15.892  38.394  12.655
22302W        W87463  22.316   5.084  11.872
22303W        W87464  15.295   4.308   0.491
22304W        W87465  22.503   5.164   3.243
22305W        W87466  11.318  11.612  11.583
22306W        W87467  20.562   5.448  14.049
22307W        W87468  19.624  40.824  14.789
22308W        W87469  24.620  21.043   1.345
22309W        W87470  25.694  11.477   0.830
22310W        W87471  17.612  26.210   1.590
22311W        W87472  35.783   0.016  11.467
22312W        W87473  30.036  37.617  14.468
22313W        W87474  20.799  42.307   4.555
22314W        W87475  40.822  19.287  14.934
22315W        W87476  10.918   9.228   2.390
22316W        W87477  41.357  36.662   2.013
22317W        W87478  41.376  40.117  11.159
22318W        W87479  35.926  18.285  10.351
22319W        W87480  25.144  10.685  12.448
22320W        W87481  41.962   1.983  13.159
22321W        W87482  41.644  21.102  11.647
22322W        W87483  34.982  25.146   9.815
22323W        W87484  10.034  10.757  10.725
22324W        W87485  28.248  25.236   2.037
22325W        W87486  42.050  27.507  12.552
22326W        W87487  41.829  25.048   2.310
22327W        W87488  13.024  34.875   1.454
22328W        W87489  33.493  15.455  11.573
22329W        W87490  42.953   4.139  13.520
22330W        W87491  29.793   5.191   2.669
22331W        W87492  31.838   2.331   2.202
22332W        W87493  28.693  42.955   1.796
22333W        W87494  31.422  28.198   1.259
22334W        W87495  30.488  27.564   1.814
22335W        W87496  31.682  27.072  11.668
22336W        W87497  39.232  23.735  11.980
22337W        W87498  22.479  44.713  11.272
22338W        W87499  30.173  26.101   0.831
22339W        W87500  40.554  15.986   1.196
22340W        W87501  29.877  23.587  14.797
22341W        W87502  34.036  13.362  11.082
22342W        W87503  37.059   1.257  11.154
22343W        W87504   1.790  40.226  14.468
22344W        W87505  24.567  24.170  12.840
22345W        W87506  11.646   5.354   4.945
22346W        W87507   4.568   9.783  11.639
22347W        W87508  29.777  29.130  10.962
22348W        W87509   4.829  17.707   5.035
22349W        W87510  35.376   7.918   1.768
22350W        W87511  16.507  41.627  13.705
22351W        W87512   7.307  41.082   1.893
22352W        W87513  33.429   5.224  10.701
22353W        W87514  37.791   9.413  13.500
22354W        W87515  37.762  14.714   0.726
22355W        W87516   0.555  28.887  13.686
22356W        W87517  33.603  28.433   2.881
22357W        W87518  15.608  26.639  10.610
22358W        W87519  22.633  27.022   4.598
22359W        W87520  43.801  25.494  12.542
22360W        W87521  35.462  39.129  13.646
22361W        W87522   8.310  14.403  10.582
22362W        W87523  39.661  37.307  12.860
22363W        W87524   5.939  29.160  11.557
22364W        W87525   3.336  18.571  14.079
22365W        W87526  37.033   3.972  10.619
22366W        W87527  34.398  29.385  14.540
22367W        W87528   6.016   5.229   1.797
22368W        W87529  42.412  19.269  10.458
22369W        W87530  14.740  20.337  11.175
22370W        W87531  21.979   6.693   3.402
22371W        W87532  18.641   1.313  11.936
22372W        W87533  31.465   5.873  12.198
22373W        W87534  22.702   8.386  10.104
22374W        W87535  40.490   4.367   1.290
22375W        W87536  26.944  24.909   2.368
22376W        W87537  30.626   3.289   0.941
22377W        W87538  28.663  14.157   4.183
22378W        W87539  29.860  36.915   3.073
22379W        W87540  36.034  16.181  13.143
22380W        W87541  42.345  25.739  14.712
22381W        W87542  14.291  39.873   4.602
22382W        W87543  42.308  35.557   0.925
22383W        W87544  37.169   0.863   1.279
22384W        W87545  29.982  27.779  13.599
22385W        W87546  20.050  19.505  14.931
22386W        W87547  43.088  31.921  12.551
22387W        W87548  36.927   7.223  14.134
22388W        W87549   7.807  18.133   0.522
22389W        W87550  25.945  34.986  12.902
22390W        W87551  19.666  15.382  13.103
22391W        W87552  16.697  39.063   1.123
22392W        W87553  16.675   4.928  14.694
22393W        W87554  43.744  15.166  14.092
22394W        W87555   7.485  30.451  13.318
22395W        W87556  29.962  11.434   3.224
22396W        W87557   7.638  19.767   4.696
22397W        W87558  42.838  32.208   0.765
22398W        W87559  25.230  25.416   4.483
22399W        W87560  16.067  12.441   1.317
22400W        W87561  14.274   6.710  10.754
22401W        W87562  22.571  14.380  10.151
22402W        W87563   8.584  32.302  11.321
22403W        W87564  15.802  14.769  11.297
22404W        W87565  20.489  13.223  13.991
22405W        W87566  32.415   7.013   2.681
22406W        W87567  28.205  12.364   4.886
22407W        W87568  16.126  29.104   3.836
22408W        W87569  41.417   7.361   1.282
22409W        W87570  24.227  38.334  14.515
22410W        W87571   5.668   3.438  14.613
22411W        W87572  42.909  43.515   3.832
22412W        W87573   0.672  33.618  10.457
22413W        W87574  35.951  27.727   3.273
22414W        W87575   0.413  11.826  12.629
22415W        W87576   3.748  23.756  13.785
22416W        W87577   7.915   4.469  14.871
22417W        W87578  25.520  42.432   3.137
22418W        W87579   8.294  15.146   4.240
22419W        W87580  12.611  13.935  13.380
22420W        W87581  37.082  23.465   0.839
22421W        W87582  26.964  34.341  12.346
22422W        W87583  16.564  17.577   9.672
22423W        W87584  32.959  41.245   4.392
22424W        W87585  37.792  11.401  14.386
22425W        W87586  36.910  25.457   2.814
22426W        W87587  33.470  29.646   3.722
22427W        W87588  22.168   6.032   1.985
22428W        W87589   3.981  16.193   4.128
22429W        W87590  15.534   7.616   0.369
22430W        W87591  29.028   4.405   4.897
22431W        W87592   8.716   3.228  13.159
22432W        W87593  26.516  43.883  11.661
22433W        W87594  21.986  41.666  11.057
22434W        W87595   8.473  27.254   4.486
22435W        W87596  29.941  23.386   3.452
22436W        W87597   8.863  37.248   0.316
22437W        W87598  37.933  15.969   1.903
22438W        W87599   8.962   4.204  12.953
22439W        W87600  35.067  11.319   3.262
22440W        W87601   1.338  10.911  14.327
22441W        W87602  30.239  40.910   4.519
22442W        W87603   2.117  33.676   2.375
22443W        W87604  11.584   3.420  12.858
22444W        W87605  28.192  27.475   3.408
22445W        W87606  19.997   8.305   2.348
22446W        W87607  29.041  30.382  14.429
22447W        W87608   4.181  24.258  12.040
22448W        W87609  35.511  16.267  12.520
22449W        W87610  42.581  29.019  11.709
22450W        W87611  36.471  20.505  11.909
22451W        W87612  28.984  42.441  13.416
22452W        W87613   9.730   4.751  14.793
22453W        W87614  36.324  31.972   1.873
22454W        W87615  20.589  23.158  14.348
22455W        W87616  31.950   6.464  11.890
22456W        W87617  11.319  32.648   0.512
22457W        W87618  29.097  11.667  13.550
22458W        W87619  28.699  37.313  14.318
22459W        W87620  17.611  21.450   2.319
22460W        W87621  19.208  35.979   1.218
22461W        W87622  42.226  26.261  14.809
22462W        W87623  36.948   0.936  12.466
22463W        W87624  15.956  26.891   4.251
22464W        W87625   0.817  42.413  11.977
22465W        W87626  21.239  26.558  10.627
22466W        W87627  11.817  43.534   1.345
22467W        W87628  12.381  17.097  12.396
22468W        W87629  16.016   3.167  12.582
22469W        W87630  13.063  40.648  14.750
22470W        W87631  31.449   4.717   4.167
22471W        W87632   1.435   6.075   4.190
22472W        W87633  13.566  35.509  13.481
22473W        W87634  30.974  20.947   2.604
22474W        W87635  23.406  32.933  12.930
22475W        W87636   6.832  19.082   4.080
22476W        W87637  18.428  23.791   3.629
22477W        W87638  27.619  25.849  12.741
22478W        W87639  36.434  32.391  11.584
22479W        W87640  37.225  25.103  10.729
22480W        W87641   0.933  21.969   1.692
22481W        W87642  15.251  32.345   0.196
22482W        W87643   7.857   9.283  14.425
22483W        W87644  12.895  10.361   0.502
22484W        W87645  26.482   3.660   4.954
22485W        W87646  23.537  23.925   0.820
22486W        W87647  13.648   8.588  12.811
22487W        W87648  31.632   5.817  14.009
22488W        W87649   5.661  43.202   0.388
22489W        W87650   5.332  11.356   2.879
22490W        W87651  43.562  30.734  11.140
22491W        W87652   5.107  36.085  14.057
22492W        W87653  29.429  41.533   4.097
22493W        W87654   3.250  35.057   4.439
22494W        W87655  32.002  15.168   1.729
22495W        W87656   6.646  17.010   5.173
22496W        W87657  22.090   7.605  12.380
22497W        W87658  36.410  18.082  10.675
22498W        W87659   5.827   0.106  14.493
22499W        W87660   2.389  35.431  11.518
22500W        W87661   0.742  23.437   1.819
22501W        W87662  44.168  22.574  10.284
22502W        W87663  22.598  35.050  12.263
22503W        W87664  23.026   6.840   3.223
22504W        W87665   3.902  29.637   4.668
22505W        W87666  29.126  38.375   0.238
22506W        W87667   9.164  37.955   3.747
22507W        W87668  21.526  40.992  12.037
22508W        W87669  40.181  39.496   0.006
22509W        W87670  13.177  40.501  11.191
22510W        W87671  11.287  25.648   2.855
22511W        W87672  12.162   2.478  11.675
22512W        W87673   2.419   3.157   1.757
22513W        W87674   8.667  20.957   0.000
22514W        W87675  24.004  22.429  12.851
22515W        W87676  37.112  31.807   2.591
22516W        W87677  26.236   5.818  11.886
22517W        W87678   8.372  31.655   1.139
22518W        W87679  16.456  30.963  10.758
22519W        W87680  22.133  24.626  10.761
22520W        W87681   3.781  40.122  10.526
22521W        W87682  16.352  13.579   3.221
22522W        W87683  17.373   8.171  13.471
22523W        W87684   4.815  29.693  10.185
22524W        W87685  37.890  18.811   4.523
22525W        W87686  31.399  21.948   2.306
22526W        W87687  43.226  14.683   4.899
22527W        W87688  13.054   6.883  11.076
22528W        W87689  14.846  27.634   4.582
22529W        W87690   5.312   8.639   2.645
22530W        W87691  44.760   7.642  12.097
22531W        W87692  15.148  24.728   0.771
22532W        W87693   8.520  29.960  13.714
22533W        W87694   9.623  38.961   4.384
22534W        W87695  26.691   7.844   0.916
22535W        W87696   8.224  42.472  14.335
22536W        W87697  16.041   7.335   3.992
22537W        W87698  33.946   5.938   4.091
22538W        W87699  18.632  31.096  11.122
22539W        W87700  44.554  19.365   2.910
22540W        W87701  27.103   7.672  12.438
22541W        W87702  36.852   7.706   1.724
22542W        W87703  30.060  33.690   4.156
22543W        W87704  39.369  19.118  14.016
22544W        W87705  35.219   9.856  11.142
22545W        W87706   3.854  11.129  14.936
22546W        W87707  42.957  30.935  13.616
22547W        W87708  22.576  20.348  12.103
22548W        W87709  18.742  27.704   1.270
22549W        W87710  41.591  43.443   3.630
22550W        W87711  18.486  32.484   3.173
22551W        W87712   1.779  27.660  14.480
22552W        W87713  43.159  40.779   2.146
22553W        W87714  32.115  10.121  11.255
22554W        W87715  24.480  36.529  13.543
22555W        W87716   3.850  24.058  14.915
22556W        W87717  10.921  35.445   0.291
22557W        W87718   8.850   2.759  13.375
22558W        W87719  38.833  25.996   1.451
22559W        W87720  24.533  19.826  12.049
22560W        W87721  38.038  20.962   0.156
22561W        W87722  11.730  35.557  11.907
22562W        W87723  19.571  31.600  11.078
22563W        W87724  30.955   2.512   4.839
22564W        W87725  17.834  18.508  12.845
22565W        W87726  15.533   1.347   3.149
22566W        W87727  16.332  32.500  11.186
22567W        W87728  11.808  11.804  11.674
22568W        W87729  36.455  11.204   3.157
22569W        W87730  14.465   9.189  12.015
22570W        W87731  24.171  37.009   2.013
22571W        W87732   1.813   1.664  12.558
22572W        W87733  26.544   6.405   0.332
22573W        W87734  24.342  31.367   0.317
22574W        W87735   5.840  39.982  11.181
22575W        W87736  11.760  26.191   2.354
22576W        W87737  32.949  20.836   2.692
22577W        W87738  36.642  35.588  14.732
22578W        W87739  14.872  15.145  11.533
22579W        W87740   1.214  24.556  14.345
22580W        W87741  15.110  27.610  14.222
22581W        W87742  26.904  29.466   3.397
22582W        W87743  39.633  14.190  10.452
22583W        W87744  10.777  32.701  13.839
22584W        W87745  42.252  22.963   1.222
22585W        W87746   8.783   9.039   0.772
22586W        W87747  30.966  43.992  14.142
22587W        W87748  31.031  24.271   4.128
22588W        W87749  20.139  10.869  11.446
22589W        W87750  44.115  39.864   1.912
22590W        W87751  11.626  18.495   3.671
22591W        W87752  34.003  20.494   1.317
22592W        W87753   1.495  18.076   4.052
22593W        W87754  29.575  16.100   1.907
22594W        W87755   7.246  20.213   3.701
22595W        W87756  31.158   1.789   2.226
22596W        W87757  25.478  37.943   1.436
22597W        W87758  21.095  16.780   9.936
22598W        W87759  27.671   6.877  14.523
22599W        W87760  21.430  35.371   3.190
22600W        W87761  41.886  15.246  13.889
22601W        W87762  35.982  21.874   0.965
22602W        W87763  40.322   2.682  14.362
22603W        W87764  24.962  31.112  12.563
22604W        W87765   2.804  33.356  13.884
22605W        W87766  25.654  43.558  12.166
22606W        W87767  40.287  28.867   2.690
22607W        W87768  33.663  34.533  10.527
22608W        W87769  18.123  28.852   1.625
22609W        W87770  17.714  19.348   0.793
22610W        W87771  38.902  15.764  13.872
22611W        W87772  27.206  14.496   4.039
22612W        W87773   0.846  16.566  12.909
22613W        W87774  11.544   3.590   1.328
22614W        W87775   2.867  42.006  14.072
22615W        W87776   2.269  37.366  12.183
22616W        W87777  41.246  44.662  10.682
22617W        W87778  23.800   5.462   2.340
22618W        W87779   8.933  38.374   4.405
22619W        W87780  31.584  31.968  13.967
22620W        W87781   6.271   0.036  12.935
22621W        W87782  24.231   2.484  11.402
22622W        W87783   1.060  17.750  14.018
22623W        W87784   9.803  43.564  12.013
22624W        W87785   9.743  35.983   4.831
22625W        W87786  13.814  21.993  13.136
22626W        W87787  25.211  28.320  12.974
22627W        W87788  18.292  28.452   3.252
22628W        W87789   8.403  19.764  10.965
22629W        W87790  41.354   0.660  10.776
22630W        W87791  20.213  34.524  11.593
22631W        W87792  11.928  25.235   2.370
22632W        W87793  31.700   3.270  13.975
22633W        W87794  37.954  30.120  12.471
22634W        W87795  32.695  12.262  13.438
22635W        W87796  18.234  28.985  13.401
22636W        W87797  20.068  10.755   2.229
22637W        W87798  30.061  21.676   5.422
22638W        W87799  17.194  37.499   5.087
22639W        W87800  17.075   3.252   0.973
22640W        W87801  20.198  22.940   3.989
22641W        W87802  13.507  39.491   5.377
22642W        W87803   3.321  40.038  11.443
22643W        W87804  41.954   0.382   3.821
22644W        W87805  33.879  11.046  12.551
22645W        W87806  24.981  25.758  11.719
22646W        W87807   6.895  29.268  11.485
22647W        W87808  33.471  11.166   4.919
22648W        W87809  23.021  42.654  12.299
22649W        W87810  21.361  16.167  12.175
22650W        W87811  21.787  38.854  12.620
22651W        W87812   7.894  29.088  14.052
22652W        W87813  32.385  23.819   2.591
22653W        W87814   6.742  11.176  10.888
22654W        W87815  25.014   9.716   2.142
22655W        W87816  39.901  24.307   0.280
22656W        W87817  27.532  40.467  12.016
22657W        W87818  42.080  26.044   3.801
22658W        W87819   9.805  29.559   1.767
22659W        W87820  41.069   8.881  13.391
22660W        W87821  26.065  43.983   4.298
22661W        W87822  25.429  16.479  14.018
22662W        W87823   5.337  39.659   0.718
22663W        W87824  43.753  36.908  11.831
22664W        W87825  39.619   8.825  13.330
22665W        W87826  12.269  11.143   4.905
22666W        W87827  36.996  29.962   4.689
22667W        W87828  20.654  42.450  10.668
22668W        W87829  20.676   0.832   1.346
22669W        W87830  23.950  18.094  11.717
22670W        W87831  43.678  22.666   0.285
22671W        W87832  29.688  33.136  10.644
22672W        W87833  30.133  17.084  12.580
22673W        W87834  33.304  16.826   4.943
22674W        W87835   9.097  34.395   1.189
22675W        W87836   7.467  40.076   3.344
22676W        W87837   9.617  44.544  11.951
22677W        W87838  18.178  38.310   3.354
22678W        W87839   2.803  40.016   0.283
22679W        W87840  10.235  10.656  12.461
22680W        W87841   5.731  38.227  13.851
22681W        W87842  41.325  39.111  11.115
22682W        W87843  42.362  17.708  12.429
22683W        W87844  35.497  24.239  11.921
22684W        W87845  25.103  12.890   4.795
22685W        W87846  22.059  29.628  13.046
22686W        W87847  10.296  13.877   3.289
22687W        W87848  19.126  28.438  13.998
22688W        W87849   5.216  20.079   1.534
22689W        W87850  32.642  31.450  13.330
22690W        W87851  18.104   4.972  11.463
22691W        W87852  12.816  24.474   0.358
22692W        W87853  32.636   4.589  14.618
22693W        W87854  35.418  35.831   0.216
22694W        W87855   3.907  42.119   0.910
22695W        W87856  29.496   0.961   0.331
22696W        W87857  11.076  20.183  11.804
22697W        W87858   2.906  11.676  14.079
22698W        W87859  30.256  17.755   3.366
22699W        W87860  41.711  35.050  11.158
22700W        W87861  33.476  22.668  12.512
22701W        W87862   9.219  34.895  12.940
22702W        W87863  43.511   1.482   0.263
22703W        W87864  23.587  40.057  10.742
22704W        W87865  35.084   7.808  12.156
22705W        W87866  43.188  10.194   2.948
22706W        W87867  24.075  29.241   2.320
22707W        W87868  13.373  15.109  13.004
22708W        W87869  26.066  40.949  13.946
22709W        W87870   5.780  25.415  12.206
22710W        W87871  27.112  17.001  11.189
22711W        W87872  13.251   1.592   2.856
22712W        W87873  38.585  30.106   3.950
22713W        W87874  17.561  44.591   2.330
22714W        W87875   7.836  43.552   3.833
22715W        W87876  23.223   5.702   3.684
22716W        W87877   1.011  29.432   2.641
22717W        W87878   1.970  28.013  14.793
22718W        W87879  24.683   5.255  13.476
22719W        W87880  37.127  28.569   1.701
22720W        W87881   7.781  15.171  10.506
22721W        W87882  44.296  20.213   3.169
22722W        W87883  25.383   1.828   4.437
22723W        W87884   6.299   1.466  14.517
22724W        W87885  21.757  37.958   2.854
22725W        W87886  18.049  13.652   4.642
22726W        W87887   6.698  39.231   9.982
22727W        W87888  44.967  36.831   9.869
22728W        W87889  33.923  44.484   3.852
22729W        W87890   4.859  12.082  11.775
22730W        W87891  25.999  40.462   3.700
22731W        W87892   2.059  37.388  10.643
22732W        W87893  39.510  20.127   0.780
22733W        W87894  26.164   5.434  13.531
22734W        W87895  39.426  41.205   0.251
22735W        W87896  11.090   1.946   1.405
22736W        W87897   9.824  10.297   0.581
22737W        W87898  11.090  11.725   4.065
22738W        W87899  18.874  19.233   4.525
22739W        W87900  32.002   2.205   0.851
22740W        W87901  27.895  13.785   0.718
22741W        W87902  15.218  36.086   4.807
22742W        W87903  31.556   4.736   2.739
22743W        W87904  43.113   4.401   1.940
22744W        W87905  10.365   0.483  14.887
22745W        W87906  25.436   6.376  11.165
22746W        W87907   4.175  20.577   1.903
22747W        W87908  31.103  43.005  13.940
22748W        W87909   2.905  31.435  12.225
22749W        W87910   7.307  15.889  10.461
22750W        W87911  34.229  43.699   0.788
22751W        W87912  40.293  19.189  14.987
22752W        W87913  35.785  29.042  13.158
22753W        W87914  33.095   2.507  12.092
22754W        W87915  36.415  42.629   0.679
22755W        W87916   7.509  32.220   2.138
22756W        W87917   8.525   6.882   0.279
22757W        W87918  18.694  21.987   3.253
22758W        W87919  23.127  28.889   3.254
22759W        W87920  20.674   1.766   3.642
22760W        W87921  28.922  19.048  12.986
22761W        W87922  38.809   7.746   3.591
22762W        W87923  41.354  28.288  11.032
22763W        W87924  33.337  15.990  10.741
22764W        W87925  39.984  26.566   5.057
22765W        W87926   0.212  26.169   2.595
22766W        W87927  33.141  18.281  11.602
22767W        W87928  30.638   9.833  11.954
22768W        W87929   1.374  32.491   2.857
22769W        W87930  20.096  14.057  12.542
22770W        W87931  23.734  42.925   2.347
22771W        W87932  17.591  37.970  14.795
22772W        W87933  15.597  10.796   0.002
22773W        W87934  20.305  22.148  11.606
22774W        W87935   5.813  28.879  12.023
22775W        W87936  40.859   4.788  10.647
22776W        W87937  20.198  12.205  11.944
22777W        W87938  38.663  18.034   4.221
22778W        W87939   7.353  12.687  12.528
22779W        W87940  26.918  10.113   4.479
22780W        W87941  24.638  40.251   3.665
22781W        W87942  34.405   0.503  12.162
22782W        W87943  38.353  16.780  11.445
22783W        W87944  31.178  22.804   2.569
22784W        W87945  23.011   3.279  11.294
22785W        W87946  14.671  38.507  14.918
22786W        W87947  31.432   0.448   5.072
22787W        W87948  44.994   8.661  11.933
22788W        W87949  34.653  39.304   1.905
22789W        W87950  37.413  33.521   2.288
22790W        W87951  19.597  41.379   3.620
22791W        W87952  44.132   4.204   1.912
22792W        W87953   6.203   6.994  11.200
22793W        W87954  14.754   3.467   3.661
22794W        W87955   5.196  28.479  11.414
22795W        W87956  10.222   2.932  12.626
22796W        W87957  30.069   8.674   2.228
22797W        W87958  36.370  34.198  13.377
22798W        W87959   4.981  22.337   0.473
22799W        W87960   0.709  35.479   4.108
22800W        W87961  18.535  12.170   3.257
22801W        W87962  42.793  21.543   4.525
22802W        W87963  24.419   4.868  14.791
22803W        W87964  14.150  23.077   3.727
22804W        W87965   1.136   6.179  12.446
22805W        W87966  33.600   5.633   2.276
22806W        W87967  43.183   2.222  10.682
22807W        W87968  33.248  32.513  14.123
22808W        W87969  25.974  11.652  13.957
22809W        W87970   0.747  26.215   0.810
22810W        W87971  43.932  17.076  14.460
22811W        W87972  41.455  41.134   4.262
22812W        W87973  41.922  12.643   3.337
22813W        W87974  31.167  10.454   1.993
22814W        W87975  39.056  36.476  13.883
22815W        W87976  39.664  23.430  13.836
22816W        W87977  28.113  18.726  14.497
22817W        W87978  39.611   9.147   1.976
22818W        W87979  30.620  12.664   0.782
22819W        W87980  16.157   7.350  11.939
22820W        W87981   6.162   2.890  13.054
22821W        W87982   1.836  20.759   0.774
22822W        W87983   2.034  44.857  11.647
22823W        W87984  17.161  19.515  10.205
22824W        W87985   1.867  40.003  13.618
22825W        W87986  38.908  24.738   2.725
22826W        W87987  17.545  31.301   0.764
22827W        W87988  11.299  10.461   4.015
22828W        W87989  14.738  15.266   2.676
22829W        W87990  18.965  25.974   1.516
22830W        W87991  25.960   1.736  12.126
22831W        W87992  22.962  34.546  11.497
22832W        W87993  14.395  21.913  11.656
22833W        W87994   3.704  22.032  14.427
22834W        W87995  27.445  23.035  13.290
22835W        W87996  38.464  11.701  12.333
22836W        W87997   0.761  39.776  14.539
22837W        W87998  29.445   8.690  12.992
22838W        W87999  21.692  13.578   2.909
22839W        W88000  32.096  27.731   3.631
22840W        W88001  13.143  27.017   3.666
22841W        W88002  15.357  35.976  13.157
22842W        W88003  25.272  41.458  11.978
22843W        W88004  12.971  29.321  12.583
22844W        W88005  18.168  40.876  13.731
22845W        W88006  42.446  11.787   0.262
22846W        W88007  36.441  14.327   3.315
22847W        W88008  31.135  19.241  11.758
22848W        W88009  34.891   0.877  13.814
22849W        W88010  43.444  19.707   1.212
22850W        W88011   6.967  18.779   3.650
22851W        W88012  42.832  32.400  12.630
22852W        W88013  21.254  44.758  14.918
22853W        W88014  18.834  23.433  13.418
22854W        W88015  27.981  22.162   3.174
22855W        W88016  14.851  30.333   4.570
22856W        W88017   7.180  37.831   0.321
22857W        W88018  37.987  22.059   4.305
22858W        W88019   5.304  11.865  11.874
22859W        W88020  21.124   9.627  12.829
22860W        W88021  28.279  44.604   3.715
22861W        W88022  36.963  42.398   2.716
22862W        W88023  34.878  21.004   3.388
22863W        W88024  42.312   1.747  14.500
22864W        W88025  40.400   4.675  13.412
22865W        W88026  21.506   4.447  14.191
22866W        W88027  37.832  23.963  14.380
22867W        W88028   8.947   1.717  10.409
22868W        W88029  37.596  38.742  12.066
22869W        W88030  16.279  22.531  10.814
22870W        W88031   7.136  27.377   5.303
22871W        W88032  26.919   1.417  11.548
22872W        W88033  17.154  35.460  14.876
22873W        W88034  43.942  21.465  10.373
22874W        W88035  41.821  20.612   2.847
22875W        W88036  23.661  17.692   1.156
22876W        W88037   8.602  22.983   3.675
22877W        W88038   1.331  16.582  13.501
22878W        W88039  44.391  23.053   3.553
22879W        W88040  31.088   2.579   2.704
22880W        W88041  11.599  20.915  13.538
22881W        W88042   9.906  26.626   3.649
22882W        W88043   1.330  18.926  11.887
22883W        W88044  16.694  14.537   5.045
22884W        W88045  17.627  18.129  12.483
22885W        W88046   7.132  41.937   0.864
22886W        W88047  18.630  14.625   1.411
22887W        W88048   2.020   8.926   3.372
22888W        W88049   7.059  44.966  13.330
22889W        W88050  11.788  35.799   0.243
22890W        W88051  16.239  11.164  13.958
22891W        W88052  44.958  25.070  12.848
22892W        W88053  35.023  34.053  12.938
22893W        W88054  42.795  28.199   0.353
22894W        W88055  30.144  29.959  11.416
22895W        W88056   4.174   1.490  13.068
22896W        W88057  26.608  33.926   1.858
22897W        W88058  39.083  14.750  14.837
22898W        W88059   3.983  19.844   0.837
22899W        W88060  18.509   3.197  12.985
22900W        W88061  43.195   3.688  10.882
22901W        W88062  25.526  22.502   0.718
22902W        W88063  11.055   1.012   0.316
22903W        W88064  41.887  19.079  11.672
22904W        W88065   6.656  17.142   2.746
22905W        W88066  30.178  20.771   3.279
22906W        W88067   5.727  40.122   2.779
22907W        W88068  18.770  18.903   3.869
22908W        W88069   2.429  20.754   4.860
22909W        W88070  36.041  12.148  13.861
22910W        W88071  16.566   7.281  10.873
22911W        W88072  17.352   6.780   3.229
22912W        W88073  44.568  39.825  13.888
22913W        W88074  33.484   8.880   4.014
22914W        W88075  39.055  32.083  14.980
22915W        W88076  10.842  34.395   4.247
22916W        W88077  36.459   6.547   0.963
22917W        W88078  14.129  15.375  13.644
22918W        W88079  22.580   3.830   0.516
22919W        W88080  40.100  32.851   1.287
22920W        W88081  40.997  44.000  10.792
22921W        W88082  39.842   0.202   4.043
22922W        W88083  38.097  40.782   5.015
22923W        W88084  12.325  40.996  11.063
22924W        W88085  29.315  37.832  11.550
22925W        W88086   4.911   7.691  14.709
22926W        W88087  12.621   3.244  12.548
22927W        W88088  42.409  34.376  13.801
22928W        W88089  24.657  37.323   0.388
22929W        W88090  23.566   4.760   4.652
22930W        W88091  22.107   3.173   3.110
22931W        W88092  33.331   6.815   3.627
22932W        W88093  30.996  15.925  12.425
22933W        W88094  24.077   1.256  12.081
22934W        W88095  35.818  23.172  10.787
22935W        W88096  38.925  37.819  13.002
22936W        W88097  17.194  42.882   3.644
22937W        W88098  32.436  29.397  12.511
22938W        W88099  40.124   1.736  13.551
22939W        W88100  15.579  27.262  13.150
22940W        W88101  13.186  17.869   4.637
22941W        W88102  17.989  28.460   4.598
22942W        W88103  29.618   4.024  13.948
22943W        W88104  42.348  33.279  10.956
22944W        W88105  42.390  41.982   3.405
22945W        W88106   6.714   6.663  14.200
22946W        W88107  42.933  26.618   3.209
22947W        W88108  36.455  35.592   4.884
22948W        W88109  25.525  20.633  13.903
22949W        W88110  39.076  35.110   2.351
22950W        W88111  21.250  30.456  10.774
22951W        W88112  13.581  11.726  14.411
22952W        W88113  27.053  32.118   0.373
22953W        W88114  10.130  20.785  14.816
22954W        W88115  34.413  41.904  13.989
22955W        W88116   1.268   8.182   4.176
22956W        W88117  22.549  15.184   0.948
22957W        W88118  41.489  26.675   0.304
22958W        W88119  14.124  21.622  11.016
22959W        W88120  15.785  32.999   4.531
22960W        W88121  21.779  35.822   4.168
22961W        W88122  44.502   1.807  14.881
22962W        W88123  12.309  11.273   2.982
22963W        W88124   9.861  12.792  11.282
22964W        W88125  19.696  29.979   1.107
22965W        W88126  13.256  14.628  12.085
22966W        W88127  41.907  34.416   1.372
22967W        W88128   5.268  16.220   0.229
22968W        W88129  21.866   1.542   4.679
22969W        W88130  40.267  40.864   0.871
22970W        W88131   1.589  22.846  11.601
22971W        W88132  21.637  39.991  12.546
22972W        W88133  38.334  10.697   1.438
22973W        W88134   9.609  24.611  11.431
22974W        W88135  35.749  20.123   4.095
22975W        W88136   0.721  25.917  10.598
22976W        W88137  22.637  43.561  13.013
22977W        W88138  20.796   5.794  14.363
22978W        W88139  26.610  15.362   2.723
22979W        W88140  16.790  42.381   1.455
22980W        W88141  24.525  33.668  11.531
22981W        W88142  28.759   4.800   4.154
22982W        W88143  10.423   4.686  10.109
22983W        W88144  42.552   8.519  12.600
22984W        W88145  31.905  31.947   3.692
22985W        W88146  31.048  30.399  12.591
22986W        W88147  21.642  28.847  12.903
22987W        W88148  43.566  13.852   0.963
22988W        W88149  25.552  28.146   1.314
22989W        W88150   5.604  31.948  13.697
22990W        W88151  44.029  22.671   1.711
22991W        W88152  19.328  38.452  13.099
22992W        W88153  32.652   7.498  10.430
22993W        W88154  31.360  27.240   1.252
22994W        W88155  33.200  18.007  14.133
22995W        W88156   8.334  25.698   0.262
22996W        W88157  32.144  19.356  10.781
22997W        W88158  29.944  14.406  11.607
22998W        W88159  42.414  21.450   2.810
22999W        W88160  35.373  40.598   0.784
23000W        W88161   4.935   2.049   2.509
23001W        W88162   2.415  44.935   3.605
23002W        W88163  39.990   5.909   2.820
23003W        W88164  26.646  41.438   0.325
23004W        W88165  35.628  30.685   1.811
23005W        W88166   3.840  15.740  12.823
23006W        W88167  27.752   2.430  13.534
23007W        W88168  41.454  33.153   3.606
23008W        W88169  21.651  11.284  12.566
23009W        W88170   1.781  33.053   1.757
23010W        W88171  18.131   2.239  13.105
23011W        W88172   2.762  44.376  10.671
23012W        W88173  33.430  22.355   3.389
23013W        W88174  21.713   2.749   0.438
23014W        W88175  26.937  20.654   2.370
23015W        W88176   3.811  35.055  11.605
23016W        W88177  30.044  28.481   4.542
23017W        W88178  36.601  41.912  10.286
23018W        W88179   7.289  16.518   0.371
23019W        W88180   9.541   6.153  10.938
23020W        W88181  38.334  21.856  12.224
23021W        W88182  25.739  36.718   2.896
23022W        W88183  30.717  36.618   2.667
23023W        W88184  38.777  40.531  14.393
23024W        W88185  10.828  43.208   0.448
23025W        W88186   1.769   5.448   2.011
23026W        W88187  11.804   7.972   2.707
23027W        W88188   0.658  24.202   3.435
23028W        W88189  33.211  43.345   9.883
23029W        W88190  15.168  17.648   4.287
23030W        W88191  10.408   7.710  13.939
23031W        W88192  41.807  23.200  10.521
23032W        W88193  41.044  23.174   3.796
23033W        W88194  15.728  33.308  10.734
23034W        W88195  36.914  36.129  12.958
23035W        W88196  42.515  22.602  14.523
23036W        W88197   4.261  31.826   2.656
23037W        W88198  42.964  30.519   4.838
23038W        W88199  41.565  26.534   3.430
23039W        W88200   6.305  11.581   0.669
23040W        W88201  18.255  10.575   1.034
23041W        W88202   2.437   7.339   1.414
23042W        W88203  10.317  21.412   1.514
23043W        W88204  29.998  35.903   0.753
23044W        W88205  31.542  31.442   2.561
23045W        W88206  22.605  43.293   4.690
23046W        W88207   7.732  41.249   1.297
23047W        W88208   6.685  17.575   3.036
23048W        W88209  29.220  44.392   3.334
23049W        W88210  23.723  26.982  10.547
23050W        W88211   0.056   6.933  12.375
23051W        W88212  10.179  15.716   3.748
23052W        W88213  28.224  24.247   9.816
23053W        W88214   7.259  33.592   3.523
23054W        W88215  35.968  17.278  14.595
23055W        W88216  13.125  15.725  12.915
23056W        W88217  21.095  18.723   3.318
23057W        W88218   8.049  17.449   1.823
23058W        W88219  28.727   0.930  13.919
23059W        W88220  21.596  42.990   1.615
23060W        W88221  36.099  38.024  10.545
23061W        W88222  10.254   9.122  12.850
23062W        W88223  16.274  19.755   2.755
23063W        W88224  32.916  19.816   4.287
23064W        W88225   9.230  24.093   4.389
23065W        W88226  26.550  13.547  11.627
23066W        W88227  34.631  20.534   1.861
23067W        W88228   3.816  22.580  14.549
23068W        W88229  30.197  36.427   0.044
23069W        W88230  24.713  11.998   0.090
23070W        W88231  42.809  34.950   2.626
23071W        W88232   8.761  39.852   0.771
23072W        W88233  32.575  44.857   3.823
23073W        W88234  15.880  43.455  10.734
23074W        W88235   9.137  15.055   2.418
23075W        W88236  19.071  37.791  10.562
23076W        W88237  17.175  22.568   4.525
23077W        W88238  37.661  33.587   3.642
23078W        W88239  37.916  36.041  11.075
23079W        W88240  31.188   5.202   3.054
23080W        W88241  39.537  23.311   1.709
23081W        W88242  24.139  18.320  12.699
23082W        W88243  13.300  43.290  10.811
23083W        W88244  11.196  38.321   0.615
23084W        W88245   3.168  17.630   0.520
23085W        W88246  32.207  16.664  11.599
23086W        W88247  27.374  22.434   9.932
23087W        W88248  28.704  41.542   1.251
23088W        W88249   8.512   2.434   3.786
23089W        W88250  12.567  21.574   1.704
23090W        W88251  10.601  31.430   1.937
23091W        W88252  11.731   4.987   4.579
23092W        W88253  31.695  44.910  13.526
23093W        W88254  17.844  14.496   3.609
23094W        W88255  30.799  15.221   3.001
23095W        W88256  23.634  17.636   0.639
23096W        W88257  15.374  10.189  12.398
23097W        W88258  43.504   7.851   4.229
23098W        W88259  13.641  18.273  14.971
23099W        W88260   6.333  38.844   1.605
23100W        W88261   0.473  25.277   4.080
23101W        W88262  34.454  40.320   3.157
23102W        W88263  27.725  13.155   2.849
23103W        W88264  22.978  40.574   1.641
23104W        W88265  31.794  34.987  12.923
23105W        W88266   1.954  11.245   2.319
23106W        W88267  11.420  27.052  12.511
23107W        W88268   8.585   8.136  12.635
23108W        W88269  24.398   6.244   4.177
23109W        W88270   3.782  23.336  11.683
23110W        W88271  10.708  24.585  13.548
23111W        W88272  37.572  11.629   0.467
23112W        W88273  13.923   0.861  11.293
23113W        W88274   2.228  13.326  10.232
23114W        W88275   4.253   5.012   0.328
23115W        W88276   4.285   8.344  14.303
23116W        W88277  31.235  42.638  11.952
23117W        W88278  29.090  21.212   4.298
23118W        W88279  17.834  34.968  10.839
23119W        W88280  29.247  37.542   5.450
23120W        W88281  38.994  35.677   3.031
23121W        W88282  30.425  37.450   4.087
23122W        W88283   7.730   3.679  13.943
23123W        W88284  17.797  14.053  10.961
23124W        W88285   1.491  24.679  14.833
23125W        W88286   1.783  12.188   9.963
23126W        W88287   5.777  22.037   2.369
23127W        W88288   9.104  31.630   3.215
23128W        W88289   2.595  18.666   2.705
23129W        W88290  12.902  28.646   1.341
23130W        W88291   5.657  39.095  11.492
23131W        W88292  21.503   9.928   4.197
23132W        W88293  43.857   8.599   0.325
23133W        W88294   3.672  40.945   2.379
23134W        W88295  21.546  30.651   3.704
23135W        W88296   9.579   5.294  11.020
23136W        W88297   5.195   6.190  14.384
23137W        W88298  14.748  23.846   1.886
23138W        W88299  29.857  39.733  14.974
23139W        W88300   1.264   5.590   4.126
23140W        W88301   6.620  16.309   2.170
23141W        W88302  21.184  43.018   2.936
23142W        W88303  10.665   9.963  14.850
23143W        W88304   2.200  13.828  13.974
23144W        W88305   5.922  17.196  10.401
23145W        W88306  26.801  41.430   2.582
23146W        W88307  44.721  15.646  11.581
23147W        W88308  12.890  43.759   0.856
23148W        W88309  17.357   1.503   0.278
23149W        W88310  36.043  12.596  10.779
23150W        W88311  30.011   2.501   4.553
23151W        W88312  33.886   9.862   2.987
23152W        W88313  20.529  25.426   2.417
23153W        W88314  31.544  18.684  11.610
23154W        W88315  17.820  36.942  12.423
23155W        W88316   4.728  44.727   4.512
23156W        W88317  25.723   6.617  12.463
23157W        W88318   9.897  10.881  14.884
23158W        W88319  15.251  33.507   4.904
23159W        W88320   9.411  36.057  13.336
23160W        W88321  26.914   4.627   4.196
23161W        W88322   5.509  40.380  11.251
23162W        W88323  12.749  15.399   0.853
23163W        W88324   0.603   5.195  14.512
23164W        W88325  12.746  37.594   0.870
23165W        W88326  38.732  27.387  12.874
23166W        W88327   0.232  44.488  13.408
23167W        W88328  11.903   1.494   0.486
23168W        W88329   2.743  41.394  13.467
23169W        W88330  36.918  19.121   3.435
23170W        W88331  27.561  43.534   0.168
23171W        W88332  43.972  21.381   1.041
23172W        W88333  40.053   5.193   2.287
23173W        W88334  32.987  13.615   1.397
23174W        W88335  13.112  28.178   0.197
23175W        W88336  40.464  31.687   2.311
23176W        W88337  26.251   7.487   3.746
23177W        W88338   9.707  44.386   3.667
23178W        W88339   1.967  31.999   2.226
23179W        W88340   0.225  32.709   2.246
23180W        W88341  34.662   5.410  12.480
23181W        W88342   3.808   1.900  14.331
23182W        W88343   8.249   4.437   4.622
23183W        W88344  36.674  22.653  13.430
23184W        W88345   5.974  25.085   0.291
23185W        W88346  38.562  27.168  14.046
23186W        W88347  19.007  18.202   4.213
23187W        W88348  10.943  33.127   3.077
23188W        W88349  18.289   2.715  12.953
23189W        W88350  37.071  37.573  13.769
23190W        W88351  20.021  36.736   3.598
23191W        W88352  20.065  32.066   4.515
23192W        W88353  20.295   9.122   0.715
23193W        W88354  15.048  26.511  12.838
23194W        W88355  25.063  40.401   2.374
23195W        W88356  16.801  37.349  12.353
23196W        W88357  35.269  17.117   4.103
23197W        W88358  39.553   9.312  14.812
23198W        W88359   6.871  14.906   0.702
23199W        W88360  35.462  34.624   1.679
23200W        W88361  19.203   1.415   2.889
23201W        W88362   8.163   7.153  11.141
23202W        W88363  31.438  33.459   3.165
23203W        W88364  42.926   1.754  13.532
23204W        W88365  22.727  36.046  11.497
23205W        W88366  28.495  16.844   1.470
23206W        W88367  28.038  22.965  13.523
23207W        W88368  37.257   5.336  11.531
23208W        W88369  40.851  38.941   0.025
23209W        W88370   0.842  35.833   2.134
23210W        W88371  30.531  40.745   0.800
23211W        W88372  25.295   2.392   4.014
23212W        W88373  26.445   1.355   2.123
23213W        W88374  24.783   4.147  12.860
23214W        W88375  32.471  32.380  13.825
23215W        W88376  18.304  29.559  12.104
23216W        W88377  41.984  13.435   0.841
23217W        W88378  25.711  16.288   5.605
23218W        W88379  27.653   7.396   4.941
23219W        W88380   4.496   9.919  12.542
23220W        W88381   2.446  26.437   3.603
23221W        W88382  32.647   4.757   3.129
23222W        W88383  15.642  33.363   0.928
23223W        W88384  38.835  18.887   1.367
23224W        W88385  44.841  35.847   1.484
23225W        W88386  18.169  35.196  10.518
23226W        W88387  11.637  14.103  10.681
23227W        W88388   8.824  42.543   0.053
23228W        W88389   7.735  39.044   1.820
23229W        W88390  38.501   1.538   4.736
23230W        W88391  19.105  26.246   4.069
23231W        W88392  16.872  34.320   0.765
23232W        W88393   1.391  30.064  14.548
23233W        W88394  43.374  19.360  14.236
23234W        W88395  13.974  17.622   1.172
23235W        W88396  10.657   3.833   1.775
23236W        W88397  39.521   2.383   4.497
23237W        W88398  25.935   3.126   0.565
23238W        W88399  28.657  23.088  11.844
23239W        W88400  17.456  23.037   4.619
23240W        W88401  43.430  22.521  10.536
23241W        W88402  23.360  40.212   1.739
23242W        W88403  34.405  35.473  14.240
23243W        W88404  22.148  27.206   4.494
23244W        W88405  11.726  25.928  10.706
23245W        W88406   0.384  10.426   0.809
23246W        W88407   9.315  23.361  10.394
23247W        W88408   5.889   8.986  14.893
23248W        W88409  21.625  15.006  14.500
23249W        W88410  16.561   6.945  10.489
23250W        W88411  23.190  17.626   1.364
23251W        W88412  39.386   4.767   4.556
23252W        W88413  19.217  13.811   0.743
23253W        W88414  13.124  10.699   3.226
23254W        W88415  44.844  26.015  10.631
23255W        W88416   4.946  30.692   2.017
23256W        W88417   5.242  10.924  11.753
23257W        W88418  33.066   3.805  14.812
23258W        W88419  25.221   0.172   4.157
23259W        W88420  22.903  31.469   1.230
23260W        W88421  23.817   6.177   3.285
23261W        W88422  25.734  22.915   1.646
23262W        W88423  19.317  19.535   3.893
23263W        W88424  17.817  18.577   1.148
23264W        W88425   0.857  34.427  12.329
23265W        W88426  27.484  23.248   3.664
23266W        W88427  19.376   4.844  12.784
23267W        W88428  41.329  14.073   3.208
23268W        W88429  37.062  22.367   3.519
23269W        W88430  37.084   3.219  11.541
23270W        W88431  33.957  14.070   1.555
23271W        W88432  23.458  43.006   4.920
23272W        W88433   7.497   1.311   2.451
23273W        W88434  30.026   8.300  11.555
23274W        W88435  29.265   2.164  12.070
23275W        W88436   7.724   5.909  13.630
23276W        W88437  24.803  36.301   4.173
23277W        W88438  28.074  17.466   3.721
23278W        W88439  23.660   2.098  13.871
23279W        W88440  16.601  24.719  14.103
23280W        W88441  38.982   7.867  10.776
23281W        W88442   5.035  14.727   0.547
23282W        W88443  29.500  32.579   3.699
23283W        W88444  42.072  35.550   3.619
23284W        W88445  20.177   1.551   1.464
23285W        W88446   2.021  34.514   2.777
23286W        W88447  40.824  10.015   2.495
23287W        W88448  25.507   1.194  14.793
23288W        W88449  39.829  25.493   4.072
23289W        W88450  33.766  41.637  10.761
23290W        W88451  43.054  18.040  11.877
23291W        W88452   4.619  43.355  14.160
23292W        W88453  14.351  35.270   0.931
23293W        W88454  43.535  19.055  11.820
23294W        W88455   7.177  17.476   1.320
23295W        W88456   7.881   2.844  13.023
23296W        W88457   8.132  27.916  12.559
23297W        W88458  36.096  17.384   0.087
23298W        W88459  42.928  44.970  13.219
23299W        W88460   3.936  37.238   1.447
23300W        W88461  24.064  16.259   4.116
23301W        W88462  15.346  26.454   4.701
23302W        W88463  15.725  37.388   4.635
23303W        W88464   0.039  37.737   5.073
23304W        W88465  14.153  25.586  13.738
23305W        W88466  41.647  37.985  12.537
23306W        W88467  39.833  39.549   4.105
23307W        W88468  29.539  10.119  10.792
23308W        W88469  24.307   9.259   0.802
23309W        W88470  30.359  40.920  10.662
23310W        W88471  23.825  34.803   2.417
23311W        W88472  44.286  15.037   1.739
23312W        W88473   4.520  28.024  14.566
23313W        W88474   2.948   9.382   0.523
23314W        W88475  34.182  37.129   0.364
23315W        W88476  17.376   6.637   4.232
23316W        W88477  34.899   8.352   0.501
23317W        W88478  26.925   5.331  12.333
23318W        W88479  15.089  43.943   1.143
23319W        W88480  40.130  11.243  10.855
23320W        W88481   3.405  39.017   3.660
23321W        W88482   0.795  17.982   4.212
23322W        W88483   0.706  35.285   3.626
23323W        W88484  17.479  37.908  12.920
23324W        W88485  26.825  32.626   2.496
23325W        W88486  40.053  36.889   2.386
23326W        W88487  26.954  33.855   3.486
23327W        W88488   3.512  18.253   2.075
23328W        W88489   0.398  42.182   1.128
23329W        W88490  21.518  19.722   3.147
23330W        W88491  22.958  18.888  14.841
23331W        W88492  28.124  39.561   4.772
23332W        W88493   6.971  16.061   3.637
23333W        W88494  32.645   7.829   0.259
23334W        W88495  38.508  18.983  13.067
23335W        W88496  35.617  10.487  13.409
23336W        W88497   4.230  25.477  14.242
23337W        W88498  37.751   8.436  10.704
23338W        W88499  36.424  20.882  10.436
23339W        W88500  29.846  12.823   1.223
23340W        W88501  11.215  34.546  12.591
23341W        W88502  26.089  34.713  11.985
23342W        W88503  38.289  21.195   0.529
23343W        W88504  10.916  36.582   4.686
23344W        W88505  12.768  34.923   1.014
23345W        W88506  34.918   8.668   2.843
23346W        W88507   0.980  32.608  12.357
23347W        W88508  39.987   0.369   3.597
23348W        W88509  22.570   1.835  12.189
23349W        W88510  28.621   2.800   0.705
23350W        W88511  26.983   7.887  13.871
23351W        W88512  42.085  29.174  11.635
23352W        W88513   0.736  33.197   0.724
23353W        W88514  10.071  16.071   1.917
23354W        W88515  14.921   0.839  13.440
23355W        W88516  19.632  35.313   3.662
23356W        W88517  25.387  31.828   2.731
23357W        W88518  29.047   0.185   4.916
23358W        W88519  29.939  41.683  11.882
23359W        W88520  12.754  20.478  11.910
23360W        W88521  27.846   9.962   2.864
23361W        W88522  30.402  14.860  12.462
23362W        W88523  40.295  41.543  12.970
23363W        W88524  26.717  20.032  13.834
23364W        W88525   1.771   8.863  14.821
23365W        W88526  37.078  12.869   1.342
23366W        W88527   4.706  35.394  12.357
23367W        W88528  24.657   3.986   3.340
23368W        W88529  33.165  38.309   3.178
23369W        W88530  44.470  21.805   4.101
23370W        W88531  43.700  26.553  11.605
23371W        W88532  37.323  32.343   4.837
23372W        W88533  25.968  13.894   4.191
23373W        W88534   4.435  17.109   0.983
23374W        W88535  21.089  31.528  12.248
23375W        W88536  12.691  21.110   1.868
23376W        W88537   6.340   5.323  13.232
23377W        W88538  27.326  38.978  11.772
23378W        W88539   2.908  10.150   1.878
23379W        W88540   7.499  15.855   4.147
23380W        W88541  20.222  16.099   0.725
23381W        W88542  41.831  25.672   0.322
23382W        W88543  20.108  35.003  10.702
23383W        W88544  43.240  43.867  10.887
23384W        W88545   8.188  34.911  12.902
23385W        W88546   3.049   1.416  12.582
23386W        W88547  31.696  35.233   1.994
23387W        W88548  32.216  42.524   0.418
23388W        W88549  14.637  24.502   1.637
23389W        W88550  18.896  17.428   1.552
23390W        W88551  15.824  22.404   2.423
23391W        W88552   1.436   4.639   0.358
23392W        W88553  18.182   6.611  14.383
23393W        W88554  25.642  25.215  13.936
23394W        W88555   6.609  22.288   1.289
23395W        W88556  14.322  12.543  11.284
23396W        W88557  35.415  43.506   4.157
23397W        W88558  33.561  14.958  11.550
23398W        W88559  31.264  33.982   2.637
23399W        W88560  20.194  36.084   0.404
23400W        W88561  25.255  19.562  14.461
23401W        W88562  34.183  40.902   0.448
23402W        W88563  21.260  21.735   5.420
23403W        W88564  17.434  17.413   5.062
23404W        W88565  24.164   7.013   4.565
23405W        W88566  24.141   7.979  14.285
23406W        W88567  26.661   1.597   1.238
23407W        W88568  10.373  34.385   5.090
23408W        W88569  23.942   9.386  14.325
23409W        W88570   4.284  23.098   3.714
23410W        W88571  26.321  10.224   0.063
23411W        W88572  41.778  12.682  11.618
23412W        W88573  29.550  33.526   3.571
23413W        W88574  10.691  34.011  12.112
23414W        W88575  41.007  25.152  10.993
23415W        W88576  41.604  25.012   1.826
23416W        W88577   9.323  28.391   3.118
23417W        W88578  24.930  34.121  13.457
23418W        W88579  24.182  27.594  13.324
23419W        W88580  12.027  12.435  14.432
23420W        W88581  23.341  33.637  13.909
23421W        W88582   7.261  43.770   0.957
23422W        W88583   5.858  11.336  13.949
23423W        W88584  15.907  24.689   2.787
23424W        W88585  27.269  36.807   1.851
23425W        W88586  36.965  23.949  11.040
23426W        W88587  24.150  29.608  14.905
23427W        W88588  19.702  16.533   1.403
23428W        W88589  11.909   4.273   1.955
23429W        W88590   5.104  39.669  14.788
23430W        W88591  11.733  30.027  11.063
23431W        W88592  16.082   7.729   3.608
23432W        W88593   6.852  31.420   4.671
23433W        W88594  24.123  30.156   4.307
23434W        W88595  19.689  31.727   0.360
23435W        W88596  24.647   7.618   0.821
23436W        W88597  26.998   1.226   2.361
23437W        W88598  37.032  28.072   2.445
23438W        W88599   6.201   1.819  13.943
23439W        W88600  32.659  25.203   3.999
23440W        W88601  27.735  12.041  13.048
23441W        W88602  18.437  31.819   4.377
23442W        W88603  14.429  41.038   1.467
23443W        W88604  38.392  44.964   4.118
23444W        W88605   5.859  32.619   0.425
23445W        W88606  41.167  30.265   3.347
23446W        W88607  20.632  34.934   0.725
23447W        W88608  24.084   5.657  11.199
23448W        W88609  40.029  17.674   4.147
23449W        W88610  17.302   6.667  13.026
23450W        W88611  37.708   7.093   1.796
23451W        W88612  42.276  25.936  12.957
23452W        W88613  30.418   6.334  13.799
23453W        W88614  10.834  40.612  14.324
23454W        W88615  12.687  36.755   1.549
23455W        W88616   1.300  14.147  11.785
23456W        W88617  12.750  43.058   2.392
23457W        W88618  14.257  44.650  14.587
23458W        W88619  18.267  25.012   4.824
23459W        W88620   3.321  36.858   4.509
23460W        W88621  18.522  22.953   2.594
23461W        W88622   8.043  38.965  14.239
23462W        W88623  12.235  43.756   2.105
23463W        W88624  10.935   6.216   0.849
23464W        W88625   3.357  22.145  14.798
23465W        W88626  26.802   2.065   1.057
23466W        W88627  34.773   2.214  14.569
23467W        W88628  38.074  22.225  13.974
23468W        W88629  39.031  19.537  13.819
23469W        W88630  41.191   7.426   0.311
23470W        W88631   0.355  27.566  10.816
23471W        W88632  37.680  40.944  14.293
23472W        W88633  34.478  12.354  13.910
23473W        W88634  35.171  17.067   5.023
23474W        W88635  22.689  17.526  13.429
23475W        W88636   3.982  27.362  11.140
23476W        W88637  21.244  13.537   2.629
23477W        W88638  20.613  19.202   4.082
23478W        W88639  16.545  28.457   4.871
23479W        W88640  30.016  32.038   3.682
23480W        W88641  32.159  32.157  11.197
23481W        W88642   3.978  27.949  14.859
23482W        W88643   6.443   2.018   0.400
23483W        W88644  26.068  36.844  14.780
23484W        W88645  31.876  44.348   0.499
23485W        W88646  17.749  42.483   1.849
23486W        W88647  31.120  39.522  14.288
23487W        W88648  17.202  23.469   2.909
23488W        W88649   7.295  16.616   2.397
23489W        W88650  40.027  34.027  11.868
23490W        W88651  35.504  39.854  10.387
23491W        W88652   1.380  19.838  14.976
23492W        W88653  22.494  20.285   3.272
23493W        W88654  38.401  40.543  12.319
23494W        W88655  24.887   5.307  12.082
23495W        W88656  32.153  42.888  11.510
23496W        W88657  31.621  15.286   2.793
23497W        W88658   8.557  22.130  14.577
23498W        W88659  38.435  21.540   3.121
23499W        W88660  25.619  35.581  12.015
23500W        W88661  18.498  36.174   1.905
23501W        W88662   0.566  16.127   0.282
23502W        W88663  29.676  36.853   4.428
23503W        W88664  12.438   5.414  12.074
23504W        W88665  12.674  30.349  12.528
23505W        W88666  42.147  31.129   1.903
23506W        W88667  44.258  12.147   3.987
23507W        W88668  28.501  19.214   2.342
23508W        W88669  39.584   5.853  12.840
23509W        W88670  12.321  11.145  13.313
23510W        W88671  16.291  16.429   4.748
23511W        W88672  39.843  39.042   2.015
23512W        W88673  18.662  42.783  14.075
23513W        W88674  26.253  32.516  12.041
23514W        W88675   3.999   2.980   0.371
23515W        W88676  11.815  28.898   1.915
23516W        W88677  13.446  40.935   1.871
23517W        W88678  33.175  30.185  10.142
23518W        W88679  19.041  28.241   1.654
23519W        W88680  16.199  11.697   2.819
23520W        W88681  44.960  23.933   0.966
23521W        W88682  10.684  20.715  11.397
23522W        W88683  24.245  39.929   3.305
23523W        W88684  26.545  12.662   1.001
23524W        W88685  38.911  23.757  11.198
23525W        W88686   0.419  30.612   2.641
23526W        W88687  44.103  24.568  12.537
23527W        W88688  12.443  43.387  12.947
23528W        W88689   3.832  21.226  14.876
23529W        W88690  40.152   2.048   3.824
23530W        W88691   0.233   7.874   3.027
23531W        W88692  36.987  32.885  12.052
23532W        W88693  25.058  30.324   3.881
23533W        W88694   7.657  20.163   0.103
23534W        W88695  21.094   6.381   0.794
23535W        W88696  14.521  19.205  10.306
23536W        W88697   8.448  41.017   0.974
23537W        W88698  11.042  37.918   4.773
23538W        W88699  14.922  41.725  10.718
23539W        W88700  36.302  17.835   0.988
23540W        W88701  32.682  24.134  11.467
23541W        W88702  20.141  29.890  14.365
23542W        W88703  24.268   7.257  10.848
23543W        W88704   5.752   4.189  12.465
23544W        W88705  42.904  11.668   1.993
23545W        W88706   3.186   7.919  12.430
23546W        W88707   6.668  10.438   0.370
23547W        W88708  41.077  30.072   3.815
23548W        W88709   7.911  36.518   2.649
23549W        W88710   4.733  11.264   9.694
23550W        W88711  14.190  35.962   4.134
23551W        W88712  39.439   6.087   4.320
23552W        W88713  11.154  16.632   3.695
23553W        W88714  16.164  27.910   0.302
23554W        W88715  27.060  16.518  10.918
23555W        W88716   9.380   5.556   4.429
23556W        W88717  26.201  39.551  10.148
23557W        W88718  39.623  34.051  12.174
23558W        W88719  33.277  43.316  12.913
23559W        W88720  43.507   2.981  11.582
23560W        W88721   3.709  24.556   3.779
23561W        W88722  38.485  17.074   3.333
23562W        W88723  19.135  42.827   0.310
23563W        W88724   1.284  39.938  10.740
23564W        W88725  15.845  23.890  12.803
23565W        W88726  44.247   6.745   3.206
23566W        W88727   2.220  44.479   1.488
23567W        W88728  31.218   4.134  11.231
23568W        W88729  26.215  35.407  13.026
23569W        W88730  23.686  37.784  11.201
23570W        W88731  39.606   5.429  10.318
23571W        W88732  42.316  13.715  13.582
23572W        W88733   8.230  42.079   4.887
23573W        W88734  12.676  20.180   2.081
23574W        W88735  13.223  26.095   1.297
23575W        W88736  29.603  13.236   1.419
23576W        W88737  28.334  33.156  12.580
23577W        W88738   3.546   8.652  14.492
23578W        W88739  21.386   1.824   4.181
23579W        W88740   9.066  12.959  10.458
23580W        W88741   2.870   6.396  12.929
23581W        W88742   7.485  13.630  11.131
23582W        W88743  44.782  33.105  14.040
23583W        W88744  38.059  14.958   1.508
23584W        W88745  20.511  18.169   1.695
23585W        W88746  41.663  33.339  14.227
23586W        W88747  37.017  44.620  10.901
23587W        W88748  31.680  20.008  14.632
23588W        W88749  22.807  29.402  14.692
23589W        W88750  15.676   0.233   3.320
23590W        W88751   4.904   0.450  13.850
23591W        W88752  39.510  16.591  12.961
23592W        W88753  22.195  17.844  14.978
23593W        W88754  13.369  38.107  12.527
23594W        W88755  43.675  18.848  13.486
23595W        W88756  43.025   7.735   2.800
23596W        W88757  39.853  22.846  13.018
23597W        W88758  13.472  14.550  14.419
23598W        W88759  26.140  20.084   4.226
23599W        W88760  33.123  21.815  11.837
23600W        W88761  44.838  33.368  12.425
23601W        W88762  36.306  13.284   1.046
23602W        W88763  37.965  19.175   0.946
23603W        W88764  42.369   9.802   4.204
23604W        W88765  14.371  19.866  14.757
23605W        W88766  13.038  10.063  13.397
23606W        W88767  23.036  23.452   0.231
23607W        W88768  20.439  14.992  14.949
23608W        W88769   1.703   2.907   0.605
23609W        W88770   6.113  31.209   4.198
23610W        W88771  38.990   8.121   2.225
23611W        W88772  38.520  34.818   0.016
23612W        W88773  33.489  43.978   2.092
23613W        W88774  25.046  20.809   0.041
23614W        W88775  44.140   5.486  14.913
23615W        W88776  23.234  14.089  10.821
23616W        W88777  31.692  36.413  11.552
23617W        W88778  23.249  20.236  14.281
23618W        W88779  44.432  32.571   4.922
23619W        W88780  25.489  41.470  11.131
23620W        W88781  16.674  21.062   0.573
23621W        W88782  12.932  29.984  13.678
23622W        W88783  27.145   6.978   1.947
23623W        W88784  35.509  25.600  14.883
23624W        W88785  21.379  41.583   2.633
23625W        W88786  32.341  39.749  13.417
23626W        W88787  43.924  24.209   2.869
23627W        W88788   1.946  15.044   2.892
23628W        W88789  44.787  21.176   4.537
23629W        W88790  29.225  26.091  14.097
23630W        W88791  10.498   8.240  11.073
23631W        W88792  25.503  24.066   1.880
23632W        W88793  27.379  12.842  13.314
23633W        W88794   6.259  20.675  12.906
23634W        W88795   3.900  35.170  14.362
23635W        W88796   7.191  35.455   0.936
23636W        W88797   4.038  40.666  12.816
23637W        W88798  24.064  32.488   2.809
23638W        W88799  32.953   3.188  12.926
23639W        W88800  12.266   4.971   3.185
23640W        W88801   4.009  18.309   2.801
23641W        W88802  15.170   0.957   0.720
23642W        W88803  10.089   6.788  13.107
23643W        W88804   8.678  22.860  12.042
23644W        W88805   5.249   6.238   4.147
23645W        W88806  36.543  23.677   4.520
23646W        W88807  25.207  37.823  13.214
23647W        W88808  33.009  22.064  13.389
23648W        W88809   4.081   5.942   4.528
23649W        W88810   8.857  29.005  10.740
23650W        W88811  26.045   6.513   0.416
23651W        W88812  23.994  23.456   4.008
23652W        W88813  30.680  40.509   0.314
23653W        W88814  37.030  42.883   4.947
23654W        W88815  16.801  25.131   2.472
23655W        W88816  14.707  17.074  11.179
23656W        W88817   0.038   0.658  13.826
23657W        W88818  15.332   9.935  10.885
23658W        W88819   4.999  38.857   4.556
23659W        W88820  19.539  39.900   0.306
23660W        W88821  24.860  29.894  11.074
23661W        W88822  34.101  12.219  11.146
23662W        W88823  27.292  32.339  12.145
23663W        W88824  10.767  41.627   1.637
23664W        W88825  10.834  37.342   0.534
23665W        W88826   5.380   6.847  13.161
23666W        W88827   2.622  10.713   2.659
23667W        W88828   3.775  40.853  13.722
23668W        W88829  13.082  23.707   2.131
23669W        W88830   9.323  25.701   2.103
23670W        W88831  12.668  26.559   4.491
23671W        W88832   9.304  31.898  11.693
23672W        W88833  16.833  26.086   0.998
23673W        W88834  22.128  19.923  10.928
23674W        W88835  15.169  36.088  12.277
23675W        W88836   7.672  27.630   3.280
23676W        W88837  13.911  31.638  13.501
23677W        W88838   4.230  30.456   0.286
23678W        W88839  10.282  35.324  11.009
23679W        W88840  17.822  32.861  13.114
23680W        W88841  25.960   2.187  12.354
23681W        W88842  14.815   4.841   0.947
23682W        W88843  21.154  31.973   4.012
23683W        W88844  12.194  34.344  14.876
23684W        W88845  11.336   6.179  12.962
23685W        W88846  24.656   4.017   1.454
23686W        W88847  17.214   0.645  13.964
23687W        W88848  39.448  44.362   0.595
23688W        W88849  24.010  10.102   1.755
23689W        W88850   6.756  41.723  12.507
23690W        W88851  12.371   6.423  14.951
23691W        W88852  26.024   5.179  10.490
23692W        W88853  40.055  23.731   4.153
23693W        W88854   7.428  33.585  13.132
23694W        W88855  27.686  29.929  12.855
23695W        W88856  44.877   9.128   3.656
23696W        W88857  22.754   7.382  10.746
23697W        W88858  18.348  25.559  11.541
23698W        W88859   9.243   5.640  13.485
23699W        W88860  25.419  11.010   0.801
23700W        W88861  37.361  19.791   3.800
23701W        W88862  31.593  23.069  12.439
23702W        W88863   9.526  25.477  11.872
23703W        W88864  29.912   9.445   4.948
23704W        W88865   4.044   1.527  12.045
23705W        W88866  33.761   2.963   4.256
23706W        W88867  34.178   4.362   3.318
23707W        W88868  23.325  11.698   9.927
23708W        W88869  39.412   3.189  12.309
23709W        W88870  44.841   1.864   4.579
23710W        W88871  30.576  14.580  10.764
23711W        W88872  11.897  12.376   1.986
23712W        W88873  40.855  21.247  14.353
23713W        W88874  19.986   3.736   3.126
23714W        W88875   5.371  38.664  10.653
23715W        W88876  16.098  36.547   0.408
23716W        W88877  33.998  12.037   3.513
23717W        W88878  27.763  34.244   0.731
23718W        W88879  42.980  39.459   4.163
23719W        W88880  33.099  22.845  12.209
23720W        W88881  20.209  40.493   4.058
23721W        W88882  25.017  41.927   0.870
23722W        W88883  10.182  17.299   4.508
23723W        W88884  15.235  33.207   4.452
23724W        W88885  11.089   9.638   0.223
23725W        W88886  12.567  14.589  11.390
23726W        W88887  34.352   1.220  11.599
23727W        W88888   9.816  44.043  14.839
23728W        W88889  21.456  28.160   2.502
23729W        W88890  11.084   5.609  11.516
23730W        W88891  13.604  28.268   2.204
23731W        W88892  40.337   3.187  14.315
23732W        W88893  28.997  24.422   1.352
23733W        W88894   7.395  34.990  13.570
23734W        W88895  16.423  27.908   2.827
23735W        W88896   4.869   2.487   2.216
23736W        W88897  37.234  12.067   2.421
23737W        W88898   7.612  16.296  14.359
23738W        W88899  26.491  23.219   4.950
23739W        W88900  19.072  21.834  13.552
23740W        W88901   0.295   1.883   0.738
23741W        W88902   7.299  21.727   1.642
23742W        W88903   9.422   2.368   0.026
23743W        W88904  37.538  22.321   4.308
23744W        W88905  22.058  11.845   2.929
23745W        W88906  32.046   1.270   4.601
23746W        W88907   4.253  22.709   1.802
23747W        W88908  21.470  34.813  10.754
23748W        W88909  12.744  20.617  12.968
23749W        W88910  32.389  42.362   3.266
23750W        W88911   9.267  12.673  12.411
23751W        W88912  32.709  13.750   2.846
23752W        W88913   7.263  38.923   3.914
23753W        W88914  22.465  44.766   4.127
23754W        W88915  18.484   1.478  13.455
23755W        W88916   8.097   4.461   2.890
23756W        W88917  24.166  37.832  14.672
23757W        W88918  43.990  26.560  11.200
23758W        W88919   7.309   0.855  14.417
23759W        W88920  43.746  20.867   1.742
23760W        W88921   6.270  29.175  14.388
23761W        W88922  44.466   0.928  13.326
23762W        W88923  17.832  22.747  14.251
23763W        W88924  25.403  14.390   1.248
23764W        W88925   6.364  29.573   4.489
23765W        W88926   2.283  12.627   3.189
23766W        W88927  13.719  33.325   4.661
23767W        W88928  15.702   1.506   1.282
23768W        W88929  26.119   8.984   3.606
23769W        W88930   7.748   6.665  11.589
23770W        W88931  16.168  28.122  13.907
23771W        W88932  18.263  19.761  11.540
23772W        W88933  34.428  29.978  13.909
23773W        W88934  12.303  22.618  11.598
23774W        W88935  23.573   3.960   3.078
23775W        W88936  41.526  41.481   4.639
23776W        W88937  17.309   0.238  14.842
23777W        W88938  41.837   9.368   1.576
23778W        W88939  29.341  10.070   1.705
23779W        W88940   2.430  14.190  13.191
23780W        W88941  15.980  19.971  10.580
23781W        W88942  43.811  18.179   3.624
23782W        W88943  17.742  28.208   0.496
23783W        W88944  18.099  30.558  13.887
23784W        W88945  23.072   5.748  12.095
23785W        W88946  24.998  33.396   1.705
23786W        W88947  37.760   5.500  11.071
23787W        W88948   1.418  37.071  13.973
23788W        W88949   8.421   4.185  12.931
23789W        W88950  25.497  18.761  11.720
23790W        W88951   0.266  30.716  11.205
23791W        W88952   2.749  16.599  11.073
23792W        W88953  18.689  35.473   2.154
23793W        W88954  22.618  22.477  14.447
23794W        W88955  44.190   4.711   2.559
23795W        W88956  15.358   1.351   4.522
23796W        W88957  38.274  42.366   3.237
23797W        W88958  32.153  35.086   1.786
23798W        W88959  31.152  23.559   0.390
23799W        W88960  30.436  32.578   4.660
23800W        W88961  16.504  27.495  13.549
23801W        W88962  20.536  34.058   5.006
23802W        W88963  44.588  10.212  11.524
23803W        W88964  19.190  19.104   3.649
23804W        W88965  39.593  15.090   4.304
23805W        W88966  28.093   8.261   3.152
23806W        W88967  28.433  28.549  11.163
23807W        W88968   8.839  36.388   4.992
23808W        W88969  10.139  15.952   3.290
23809W        W88970  12.400  19.462   3.326
23810W        W88971  36.953  37.773   3.956
23811W        W88972  40.905  13.872   3.599
23812W        W88973  20.826  36.291   1.505
23813W        W88974   4.892  41.625  11.133
23814W        W88975  35.276   1.383   2.872
23815W        W88976  43.443  26.390  13.221
23816W        W88977  12.143  30.499   3.271
23817W        W88978   8.333  33.888   1.104
23818W        W88979  26.057  28.701  12.546
23819W        W88980  42.428  21.443  12.194
23820W        W88981  28.016  22.790   1.279
23821W        W88982  43.215  30.544  13.841
23822W        W88983   0.716  10.214   2.734
23823W        W88984  28.450   3.674  14.295
23824W        W88985  15.585  13.358   4.975
23825W        W88986  41.850  25.442   1.897
23826W        W88987  26.474  10.773   1.468
23827W        W88988  13.708  10.810  11.073
23828W        W88989   0.805  13.883   1.365
23829W        W88990  33.100  12.975  13.450
23830W        W88991  37.454  23.896   0.401
23831W        W88992  36.033  11.510  12.037
23832W        W88993  11.703  33.478  12.348
23833W        W88994  29.693  14.748   4.785
23834W        W88995  36.050  24.593  14.040
23835W        W88996  32.159  10.607   4.369
23836W        W88997  14.166   6.416  11.204
23837W        W88998  40.283  10.381   4.562
23838W        W88999  17.192   9.771  11.066
23839W        W89000  11.683  38.319   1.894
23840W        W89001  36.324  29.864  11.580
23841W        W89002  31.128  39.576   0.707
23842W        W89003  38.854  42.473  11.135
23843W        W89004  41.973  31.131   4.543
23844W        W89005  38.389  40.758   1.035
23845W        W89006   9.086   0.367   3.147
23846W        W89007   7.443  31.696  13.557
23847W        W89008  13.236   2.944  13.365
23848W        W89009  11.867  37.801   0.924
23849W        W89010   8.863  30.692  13.455
23850W        W89011  27.354  43.284  11.046
23851W        W89012  22.182  29.586  10.873
23852W        W89013  29.200  13.782   1.320
23853W        W89014  23.168   7.983   2.004
23854W        W89015  37.328   0.772  11.656
23855W        W89016  28.933  15.117   0.878
23856W        W89017  10.089  27.962   1.253
23857W        W89018   1.041  29.178  11.980
23858W        W89019  12.140   5.479  13.812
23859W        W89020   8.784   2.871   4.226
23860W        W89021  34.992   5.306  14.033
23861W        W89022  17.725   1.182   4.566
23862W        W89023  35.205  19.231  11.606
23863W        W89024  17.946   0.886  11.609
23864W        W89025   6.794  41.208  12.485
23865W        W89026  28.709  33.435  12.356
23866W        W89027  35.562  13.323   4.501
23867W        W89028  12.565  17.760   3.210
23868W        W89029   2.867  30.850   0.975
23869W        W89030  23.116  33.471  10.355
23870W        W89031  13.615  38.552  12.534
23871W        W89032   6.716  11.605  13.733
23872W        W89033   1.346   6.865   4.665
23873W        W89034  18.217  27.888  13.871
23874W        W89035  16.524   6.167  13.925
23875W        W89036  15.152  29.881  11.543
23876W        W89037  43.944  33.022   1.389
23877W        W89038  38.837  38.518   4.502
23878W        W89039  31.486   2.197   1.414
23879W        W89040  12.687  30.678   1.452
23880W        W89041   5.553  29.669   1.105
23881W        W89042   5.863   1.144  14.591
23882W        W89043  27.691  17.533  14.603
23883W        W89044   4.468  42.535  13.951
23884W        W89045  38.042  39.537  14.034
23885W        W89046  34.651  11.599  12.466
23886W        W89047  40.561  37.472   1.114
23887W        W89048  16.151  38.309   3.778
23888W        W89049  31.653  18.718  13.140
23889W        W89050   4.145  31.624   2.172
23890W        W89051  27.683  10.502  14.700
23891W        W89052  34.378   6.759   0.001
23892W        W89053  18.867  28.661  12.955
23893W        W89054   8.302  32.261   4.582
23894W        W89055  31.866  42.883   2.745
23895W        W89056  19.324  43.883  12.140
23896W        W89057  18.590  29.127   1.686
23897W        W89058   2.090  36.618  10.211
23898W        W89059   0.264   8.341   1.787
23899W        W89060   8.707   4.819   0.485
23900W        W89061  20.022  29.501  11.186
23901W        W89062  11.394  28.180   0.720
23902W        W89063   8.195   2.907  12.447
23903W        W89064   9.809  30.503  13.548
23904W        W89065  15.712  38.863   0.303
23905W        W89066   5.133  43.857   3.493
23906W        W89067   8.083   3.749  11.423
23907W        W89068  38.574   7.650   3.144
23908W        W89069  37.544  28.700  11.149
23909W        W89070  36.335  22.008  14.176
23910W        W89071  35.598   1.306  14.992
23911W        W89072  43.353  22.104  13.397
23912W        W89073   4.513  22.060  10.907
23913W        W89074  38.523  42.474   2.207
23914W        W89075  31.655   2.240  13.282
23915W        W89076  32.872  20.919  11.680
23916W        W89077  30.332   0.400   1.465
23917W        W89078  17.832  27.444  13.024
23918W        W89079  38.309  32.981  11.545
23919W        W89080   3.956  19.517  13.895
23920W        W89081  28.857  11.082   4.506
23921W        W89082   1.286  28.328   3.463
23922W        W89083   9.872   6.400  14.000
23923W        W89084   5.219  13.311  12.181
23924W        W89085   8.369  44.812   0.870
23925W        W89086   3.226  20.237   3.842
23926W        W89087  29.135  15.168   2.498
23927W        W89088  27.820   3.975   4.516
23928W        W89089  28.954   3.490  14.277
23929W        W89090  44.797  13.892  12.159
23930W        W89091  24.419  29.989  14.196
23931W        W89092  36.618  34.445  10.696
23932W        W89093  21.361   2.155  13.312
23933W        W89094  11.195   0.077   0.251
23934W        W89095   7.613  38.437   4.379
23935W        W89096  21.357  17.239   9.805
23936W        W89097  41.567  36.499  12.257
23937W        W89098  29.605   0.557   2.211
23938W        W89099  14.415  36.036  12.103
23939W        W89100  35.989   9.820   1.734
23940W        W89101  12.277  13.626   3.936
23941W        W89102  25.257   7.308  10.493
23942W        W89103   1.363  11.261  11.287
23943W        W89104  29.707  42.789  14.397
23944W        W89105  38.002   0.885   0.960
23945W        W89106  10.712   8.595  13.878
23946W        W89107   0.997  33.467  11.862
23947W        W89108   4.650   2.261  11.058
23948W        W89109  12.058  21.155   9.728
23949W        W89110  32.815  24.069   0.671
23950W        W89111   3.321  30.668   3.171
23951W        W89112  21.492  44.079  10.556
23952W        W89113   7.827  39.857   5.034
23953W        W89114  17.401  16.837  11.751
23954W        W89115  37.368  35.040   0.335
23955W        W89116  26.514   6.646   2.820
23956W        W89117  14.710   7.111   0.460
23957W        W89118  36.925  18.166  12.474
23958W        W89119   6.736  28.943   4.738
23959W        W89120  23.582  19.311   0.238
23960W        W89121  27.223  16.320  12.565
23961W        W89122  36.627  31.029   3.463
23962W        W89123  36.154  18.113  14.357
23963W        W89124   5.575  44.877  14.063
23964W        W89125  21.173  44.518   4.108
23965W        W89126  23.129  18.023   2.191
23966W        W89127  14.806  40.917  13.526
23967W        W89128  24.209  38.275   2.721
23968W        W89129  28.952  11.047  11.163
23969W        W89130   0.458  25.607  14.753
23970W        W89131  40.019  27.060   1.662
23971W        W89132  12.961  38.678  11.199
23972W        W89133  15.751  11.190  11.643
23973W        W89134  42.061   3.326  12.032
23974W        W89135  43.261  23.500  11.106
23975W        W89136  42.952   0.327   4.892
23976W        W89137  42.493  43.361  12.434
23977W        W89138   9.743  14.005   0.035
23978W        W89139  18.703   2.439  13.950
23979W        W89140  13.217   6.762   0.241
23980W        W89141  18.069  23.427   3.827
23981W        W89142   1.734  22.400   1.800
23982W        W89143   9.647   4.334   2.289
23983W        W89144   6.981  37.918   2.144
23984W        W89145  22.522  11.233   4.655
23985W        W89146   7.697  34.413  11.144
23986W        W89147  16.844  33.121   3.701
23987W        W89148  20.999   0.500   1.735
23988W        W89149  21.250  28.711  14.497
23989W        W89150  36.085  17.569   3.195
23990W        W89151  11.675  15.097   4.137
23991W        W89152  27.513  44.035   2.596
23992W        W89153  10.749  38.460   3.717
23993W        W89154   1.948  17.541   0.979
23994W        W89155  17.199   8.712   3.281
23995W        W89156  44.827  10.327  13.939
23996W        W89157  20.337  15.579   0.813
23997W        W89158  25.993  14.045  11.631
23998W        W89159   7.824   1.079  13.773
23999W        W89160  28.205  24.749   2.302
24000W        W89161   6.778  32.549  13.001
24001W        W89162   2.667  40.075  13.632
24002W        W89163  35.477  27.023   4.900
24003W        W89164  28.006  43.139   0.461
24004W        W89165   0.174   7.684  12.921
24005W        W89166  34.735   6.679  11.139
24006W        W89167  14.518  35.346   1.404
24007W        W89168  12.452  29.356   1.702
24008W        W89169  19.021  41.272   0.366
24009W        W89170  17.096   1.773  13.069
24010W        W89171  38.411  38.653  11.528
24011W        W89172  34.878   2.782  12.400
24012W        W89173  34.911  40.274   2.035
24013W        W89174  29.985  38.738  14.973
24014W        W89175  16.990   5.674   4.308
24015W        W89176  27.109  36.899   0.711
24016W        W89177  25.206  28.937  11.197
24017W        W89178  18.315  32.013  13.942
24018W        W89179   4.737  10.661  11.576
24019W        W89180  33.880  40.293  12.034
24020W        W89181  20.439  30.009  12.215
24021W        W89182  20.323  17.643   1.744
24022W        W89183  12.887  17.284  12.878
24023W        W89184  44.189   5.852  11.152
24024W        W89185  30.523  16.119  11.614
24025W        W89186  30.151  22.144   9.823
24026W        W89187   0.183  11.693   1.760
24027W        W89188  21.836  25.550  13.522
24028W        W89189  40.388  11.655  11.045
24029W        W89190  41.092   4.803   0.413
24030W        W89191  17.746   6.892   3.960
24031W        W89192   8.712   8.357   2.653
24032W        W89193  25.231  34.660   4.227
24033W        W89194  30.002  18.210   3.234
24034W        W89195  11.821  43.108  13.323
24035W        W89196  15.918  23.502   1.133
24036W        W89197   7.650  13.676   0.346
24037W        W89198  16.623  31.973  14.916
24038W        W89199  24.025  22.183   2.197
24039W        W89200  14.273   0.477  10.072
24040W        W89201  20.214   9.322   4.258
24041W        W89202  39.796   2.910   4.250
24042W        W89203  21.979   5.750  12.955
24043W        W89204   8.366  40.413   3.966
24044W        W89205   7.377  10.855   2.290
24045W        W89206  13.274  30.204  12.469
24046W        W89207  19.876  30.539   1.809
24047W        W89208  41.480  30.344   4.560
24048W        W89209  24.315  16.803  12.009
24049W        W89210  25.131  21.569  12.454
24050W        W89211  25.576  28.193  13.616
24051W        W89212  24.067  36.181  12.011
24052W        W89213   5.744  17.296  14.812
24053W        W89214  35.788   4.384  14.810
24054W        W89215  33.299  20.657  11.600
24055W        W89216  15.114  43.444   4.575
24056W        W89217  31.114  43.269   3.577
24057W        W89218  41.573  10.613  11.255
24058W        W89219  35.478   1.390   3.812
24059W        W89220   5.506  40.007  11.613
24060W        W89221  29.519  36.064   3.279
24061W        W89222  28.042  43.503   2.353
24062W        W89223   0.637  29.123   2.172
24063W        W89224  35.989   7.687  14.476
24064W        W89225  44.203  33.406  13.077
24065W        W89226  29.978   7.657   4.782
24066W        W89227  15.041  16.649   4.798
24067W        W89228  15.055   4.507   4.599
24068W        W89229  39.029  20.522   2.658
24069W        W89230   5.033  15.702  13.439
24070W        W89231  43.520  44.129  10.023
24071W        W89232  36.965  11.901   0.400
24072W        W89233   2.959  31.928  12.100
24073W        W89234   1.134  29.142  13.767
24074W        W89235  24.287  28.005   0.809
24075W        W89236  21.999  19.189   0.376
24076W        W89237  43.682  22.014  11.047
24077W        W89238  24.360  35.975  12.385
24078W        W89239  30.433  11.808  12.874
24079W        W89240   9.618  18.281  13.409
24080W        W89241  23.580  35.295  12.985
24081W        W89242  33.075  37.671  11.158
24082W        W89243   3.892  39.784   0.549
24083W        W89244  20.967  29.522   0.781
24084W        W89245  14.207  43.678  14.200
24085W        W89246  40.359  33.344   2.526
24086W        W89247   4.492  38.822   1.731
24087W        W89248  38.474  35.457   0.791
24088W        W89249  39.478  44.019  13.326
24089W        W89250  32.944   6.986   1.330
24090W        W89251  27.518   6.710   0.728
24091W        W89252  14.715  25.038  11.542
24092W        W89253   5.674   2.967   0.964
24093W        W89254  26.936  16.355  11.686
24094W        W89255  12.867  32.951   4.257
24095W        W89256   6.664  24.870   3.152
24096W        W89257  34.645  23.167   4.199
24097W        W89258  33.938  14.542  12.747
24098W        W89259  29.652   5.155  11.117
24099W        W89260  26.479   7.208   2.902
24100W        W89261   7.015   0.207  13.801
24101W        W89262  12.550  12.372  14.405
24102W        W89263   8.517  13.209   0.666
24103W        W89264  27.647  29.400  13.011
24104W        W89265   2.009  13.696   9.914
24105W        W89266  29.497  24.262   1.316
24106W        W89267  32.708  44.395  12.152
24107W        W89268   1.782  19.504   1.308
24108W        W89269  35.577  37.821  12.899
24109W        W89270  35.077  30.533   4.991
24110W        W89271  13.879  36.380  11.278
24111W        W89272  33.516  25.993   0.416
24112W        W89273  22.637  27.054   3.229
24113W        W89274  16.676  42.858   3.609
24114W        W89275  31.530  29.099  11.516
24115W        W89276  21.625   8.288   4.568
24116W        W89277  36.198  23.347   0.828
24117W        W89278  29.961  31.584   1.418
24118W        W89279  38.167  34.617   3.275
24119W        W89280  12.177  20.238   1.844
24120W        W89281  19.579  23.903   1.424
24121W        W89282  24.439  42.914   4.582
24122W        W89283  33.748   2.315   3.159
24123W        W89284  28.216  24.012  12.002
24124W        W89285  28.453   6.181  13.730
24125W        W89286  30.405  31.101  12.428
24126W        W89287  44.761  13.515  13.894
24127W        W89288  40.024  34.236  14.405
24128W        W89289  32.725   0.937  11.657
24129W        W89290  35.633   9.968  14.318
24130W        W89291  28.596  13.209  10.911
24131W        W89292  31.715   0.280   0.384
24132W        W89293  18.868  15.911  12.389
24133W        W89294   1.909  20.693   4.871
24134W        W89295  28.635  10.270   3.294
24135W        W89296  12.067   2.141  14.933
24136W        W89297  43.701  22.623   2.085
24137W        W89298   7.785  21.531   4.329
24138W        W89299  42.058   2.791  11.439
24139W        W89300  36.721  32.913  14.932
24140W        W89301  44.333  16.561   0.661
24141W        W89302  32.425  33.098   0.756
24142W        W89303  31.245  23.656   3.034
24143W        W89304  40.843   3.378  11.605
24144W        W89305  19.848  25.970   3.384
24145W        W89306  40.746  22.192   3.933
24146W        W89307   8.043  19.548  13.807
24147W        W89308  17.762  22.213  13.364
24148W        W89309  12.631  41.850   1.150
24149W        W89310  23.905  44.016  12.643
24150W        W89311  28.733  17.782   3.284
24151W        W89312  18.919   9.222  14.938
24152W        W89313  32.438  27.975   1.485
24153W        W89314  21.565  38.589  14.466
24154W        W89315   0.909  22.786   3.236
24155W        W89316  13.120  34.574   2.683
24156W        W89317  30.159   8.190  13.394
24157W        W89318   6.228  16.554  14.524
24158W        W89319  37.054  15.613  11.174
24159W        W89320   5.680  10.240   0.405
24160W        W89321  19.253  15.130   2.116
24161W        W89322  18.126   4.911   2.801
24162W        W89323   6.547   5.158   1.629
24163W        W89324  24.026  16.728   4.774
24164W        W89325  17.147  43.036  14.540
24165W        W89326   6.153  24.952   3.083
24166W        W89327   6.953  28.236  13.642
24167W        W89328  34.951   3.932   3.681
24168W        W89329  32.226  18.764  11.574
24169W        W89330   6.814  14.366  11.205
24170W        W89331  31.502   6.889   2.828
24171W        W89332  21.738  19.254   2.946
24172W        W89333  38.399  17.798   1.764
24173W        W89334  17.522  28.921  11.048
24174W        W89335  41.566  43.801  10.766
24175W        W89336  31.466  12.221  10.821
24176W        W89337  25.957  31.966   1.608
24177W        W89338  37.051  31.587  10.651
24178W        W89339   9.936   7.277  12.464
24179W        W89340  18.582   4.281  12.003
24180W        W89341  34.908  13.027  14.807
24181W        W89342  10.804  38.111   3.338
24182W        W89343  41.322   5.539   2.667
24183W        W89344   4.247  23.383  11.980
24184W        W89345  28.409  14.133   3.676
24185W        W89346  27.747  16.286  12.498
24186W        W89347  43.450  16.714  10.487
24187W        W89348  13.709  36.566   0.618
24188W        W89349  38.883  11.037   3.107
24189W        W89350  12.302  10.321   1.785
24190W        W89351  30.640   7.930   4.137
24191W        W89352  37.921  14.097   3.265
24192W        W89353  25.206  33.392   2.196
24193W        W89354  39.338  21.545   3.148
24194W        W89355   7.511  15.297   4.919
24195W        W89356   6.835  27.199   1.393
24196W        W89357  26.742  28.229  11.652
24197W        W89358  14.173  37.025   2.211
24198W        W89359  36.957  43.780   3.273
24199W        W89360   7.260  34.607   0.849
24200W        W89361  31.139  12.212  11.946
24201W        W89362  36.955  25.142   0.290
24202W        W89363   4.445  19.606   1.052
24203W        W89364  16.259  15.900   3.404
24204W        W89365  33.264  31.532  12.464
24205W        W89366   7.593  32.251  13.065
24206W        W89367   7.109  43.746   2.906
24207W        W89368  44.391   5.258  10.695
24208W        W89369  23.867   0.061   0.800
24209W        W89370  23.708  31.164  14.860
24210W        W89371  30.226  19.095  11.837
24211W        W89372  41.003  32.071   3.218
24212W        W89373  10.357  43.289   3.166
24213W        W89374  37.156  40.765  11.391
24214W        W89375  37.004  39.998   0.651
24215W        W89376  16.817  18.563  12.918
24216W        W89377   8.085  44.980   0.475
24217W        W89378  14.175  20.199   4.597
24218W        W89379  39.963  10.879  12.046
24219W        W89380  12.659  21.428   2.911
24220W        W89381  20.554   2.374  14.887
24221W        W89382  34.731  35.449   4.828
24222W        W89383  15.622   1.985   0.564
24223W        W89384   5.671   3.411   2.689
24224W        W89385   5.573  28.009   1.748
24225W        W89386   3.925  35.082   2.171
24226W        W89387  11.846  34.061   4.740
24227W        W89388  27.959   8.858   0.399
24228W        W89389  12.758  29.430   2.648
24229W        W89390  12.371   4.251   2.881
24230W        W89391   3.861  38.351   3.630
24231W        W89392   7.760  43.667   1.066
24232W        W89393   3.781   1.143  13.848
24233W        W89394   0.044  17.316  14.911
24234W        W89395   3.391  25.441  11.210
24235W        W89396  16.024  33.676   0.695
24236W        W89397  24.857   1.719  10.846
24237W        W89398  29.352  16.489  14.942
24238W        W89399  36.858  23.154  10.762
24239W        W89400  12.894  42.033   0.156
24240W        W89401  26.419   0.615   3.798
24241W        W89402  22.077  14.729   1.357
24242W        W89403  31.063  38.633  14.411
24243W        W89404  15.719  22.744   3.218
24244W        W89405  43.077   4.955   2.365
24245W        W89406  23.852   2.036  10.902
24246W        W89407  33.061   9.267  11.702
24247W        W89408   1.932  39.827   2.752
24248W        W89409   4.439   5.176  11.543
24249W        W89410  36.941  32.362  11.958
24250W        W89411  41.855  36.158  10.612
24251W        W89412  30.722  30.518  11.233
24252W        W89413  18.030  40.288   2.369
24253W        W89414   4.958  32.406   2.746
24254W        W89415  17.016   6.453   3.461
24255W        W89416   4.373  34.507   4.621
24256W        W89417  29.242  16.909  10.778
24257W        W89418  21.355   8.628  10.336
24258W        W89419  42.812  44.873   0.008
24259W        W89420  34.881  16.534  14.903
24260W        W89421  23.751  38.389   1.774
24261W        W89422   8.700  28.157   3.729
24262W        W89423  13.902  20.197   0.715
24263W        W89424  26.553  33.163  13.959
24264W        W89425  32.166  13.266   1.133
24265W        W89426   6.670  34.398  11.208
24266W        W89427  16.874  33.163   2.730
24267W        W89428  28.991   2.231  12.915
24268W        W89429  19.809   8.373   0.642
24269W        W89430  44.866   9.184  11.077
24270W        W89431  42.463  44.184   0.528
24271W        W89432  43.536   7.316  10.547
24272W        W89433  40.086  37.896   0.955
24273W        W89434  34.105   0.495   1.977
24274W        W89435   8.858   3.630  14.879
24275W        W89436   5.710  27.775  11.188
24276W        W89437  20.362  22.180  12.485
24277W        W89438  35.348  28.543  14.413
24278W        W89439   0.518  40.491   3.281
24279W        W89440  10.400  38.047  11.964
24280W        W89441  24.421  42.470  14.258
24281W        W89442  25.430  39.365  12.835
24282W        W89443  17.225  27.498   1.940
24283W        W89444  24.557  27.681  14.873
24284W        W89445  36.541  20.009  13.735
24285W        W89446  44.419  27.397   1.819
24286W        W89447  38.045  23.771   0.722
24287W        W89448  16.506   4.890  12.163
24288W        W89449   6.052  28.112   4.719
24289W        W89450  40.336   7.353  13.015
24290W        W89451   9.825   4.127   1.268
24291W        W89452  41.033  20.959  13.968
24292W        W89453  11.706  26.455  10.797
24293W        W89454  18.819  16.167   3.167
24294W        W89455  44.703  18.001   3.974
24295W        W89456  21.394  11.308   3.165
24296W        W89457  21.160  16.604   2.710
24297W        W89458  27.068   8.576  10.700
24298W        W89459  30.476  38.753  10.183
24299W        W89460  37.618   5.742   1.875
24300W        W89461  39.767  17.556   0.707
24301W        W89462  17.144  42.913  13.203
24302W        W89463  44.730  41.957  10.666
24303W        W89464  26.669  13.246   1.831
24304W        W89465  25.570  30.423   0.508
24305W        W89466  11.589  19.464   0.302
24306W        W89467  18.300  18.492   4.527
24307W        W89468  11.345  11.391  10.120
24308W        W89469  21.872  17.643   3.841
24309W        W89470  38.444   7.432  13.539
24310W        W89471  23.794  31.615  13.035
24311W        W89472  11.963  14.075  10.084
24312W        W89473  32.946  36.401  10.804
24313W        W89474   0.999  37.348   1.200
24314W        W89475  37.538  23.497  11.477
24315W        W89476  37.436  40.134   2.504
24316W        W89477  36.881  35.424   1.952
24317W        W89478  40.602  42.278   0.161
24318W        W89479  31.112  29.343  12.555
24319W        W89480  37.392  18.640  12.112
24320W        W89481  44.031  41.566  11.123
24321W        W89482   5.150   3.336  12.537
24322W        W89483  17.276  32.593  12.871
24323W        W89484  11.261  27.791  13.039
24324W        W89485   8.075  38.448  11.976
24325W        W89486  39.775   4.195   0.489
24326W        W89487  14.020   0.734   3.615
24327W        W89488  19.671  11.873   4.652
24328W        W89489  36.216  40.502   4.193
24329W        W89490  19.286  21.063   4.046
24330W        W89491  32.839  27.855  13.950
24331W        W89492  38.985  32.044   1.516
24332W        W89493  11.251  44.760   3.188
24333W        W89494  36.998  37.490  10.683
24334W        W89495   9.732  11.331  13.319
24335W        W89496   5.539  43.616  11.931
24336W        W89497   5.991   7.851  11.165
24337W        W89498  16.754  31.238  13.897
24338W        W89499  12.727  31.882  10.791
24339W        W89500   3.805  34.399  13.866
24340W        W89501  31.772   1.723  11.571
24341W        W89502  37.041  33.998   1.740
24342W        W89503  23.979  35.292   2.510
24343W        W89504   2.487   9.893   1.623
24344W        W89505  28.975  40.354  10.833
24345W        W89506  28.212   1.843  11.546
24346W        W89507  43.684  11.239  14.328
24347W        W89508  18.220  29.191   2.075
24348W        W89509  18.678  34.517  10.793
24349W        W89510   9.329  43.880  13.300
24350W        W89511  43.012  16.961  10.363
24351W        W89512  25.362  37.978  10.849
24352W        W89513   1.452  19.050   0.397
24353W        W89514  23.230   8.304  10.962
24354W        W89515   8.891  17.580   0.400
24355W        W89516   3.897   2.912  11.362
24356W        W89517  28.350   4.878  14.564
24357W        W89518  17.007  35.111  11.078
24358W        W89519  24.973  18.351  11.425
24359W        W89520  20.021   8.911  14.346
24360W        W89521  30.137  17.105   4.780
24361W        W89522  30.538  42.885  10.752
24362W        W89523   7.060  37.584  14.876
24363W        W89524  34.156  39.414  12.461
24364W        W89525   5.475   3.233   1.337
24365W        W89526  15.205   1.161   2.433
24366W        W89527  12.350  14.684   3.154
24367W        W89528  39.816  13.767  10.705
24368W        W89529  35.116  26.233  11.503
24369W        W89530  34.868   7.972  14.418
24370W        W89531   8.775  19.301   3.668
24371W        W89532  34.000  25.166  14.428
24372W        W89533  43.535  25.518  11.196
24373W        W89534   9.435  35.048  11.626
24374W        W89535  25.505  42.565  11.843
24375W        W89536   8.177   2.537  14.096
24376W        W89537  36.827  37.826  11.630
24377W        W89538  38.383  18.738  12.067
24378W        W89539  39.228  19.216   1.455
24379W        W89540  37.739  40.415   4.880
24380W        W89541  19.041  29.998  12.354
24381W        W89542   2.830   4.889  13.831
24382W        W89543   4.372   2.773  11.590
24383W        W89544  24.986  39.886  13.352
24384W        W89545  44.147  20.533  12.917
24385W        W89546  23.113  22.586  10.775
24386W        W89547  32.473  13.034  11.706
24387W        W89548  10.934   1.564   4.297
24388W        W89549  34.841  24.034  11.204
24389W        W89550  38.427  27.785  12.667
24390W        W89551   9.182  27.572   3.307
24391W        W89552  35.230  24.638  13.713
24392W        W89553  23.048  14.821  12.508
24393W        W89554  39.954   4.881  12.113
24394W        W89555  23.760  42.485   4.102
24395W        W89556  17.326  15.210  11.551
24396W        W89557  14.738  43.521   2.408
24397W        W89558  26.939  22.815   9.860
24398W        W89559  16.302   7.334  14.244
24399W        W89560  31.663  37.010   1.975
24400W        W89561  26.582   4.019   1.362
24401W        W89562  42.814  28.144  14.443
24402W        W89563   7.967  16.712  12.092
24403W        W89564  41.526  24.800  12.535
24404W        W89565  36.587  38.101  13.422
24405W        W89566  31.846  37.789  11.607
24406W        W89567  28.311  34.435  11.721
24407W        W89568  25.852   2.764   4.128
24408W        W89569  43.762  14.020   2.327
24409W        W89570  30.640  31.403  14.335
24410W        W89571  23.091  22.276   3.991
24411W        W89572   2.757   9.387   2.288
24412W        W89573  10.515   1.071  14.404
24413W        W89574   9.581   2.623   4.965
24414W        W89575  29.935  26.968   2.892
24415W        W89576  41.880  11.286   1.190
24416W        W89577  31.655  19.582  11.671
24417W        W89578  26.316  30.431   4.357
24418W        W89579  12.829  12.049   1.643
24419W        W89580  11.979  26.122   1.887
24420W        W89581  13.920  37.966   4.805
24421W        W89582  26.926   8.327   1.090
24422W        W89583   5.467  17.870  11.190
24423W        W89584  28.463  41.081  10.626
24424W        W89585   8.105  14.255   2.898
24425W        W89586  11.347  40.492   2.315
24426W        W89587   9.032   6.573   2.239
24427W        W89588  12.786   2.057   0.935
24428W        W89589  11.725  13.327  12.168
24429W        W89590   6.344   1.808  14.931
24430W        W89591  36.211  37.624   1.274
24431W        W89592  16.258  14.008   4.100
24432W        W89593  40.090  19.780  13.828
24433W        W89594  38.493  25.507  14.681
24434W        W89595  43.303  29.734   0.930
24435W        W89596  13.744  22.213   4.147
24436W        W89597  11.118  18.281   0.286
24437W        W89598   7.373  43.502  14.359
24438W        W89599  36.361  26.540   4.698
24439W        W89600  25.950  26.338   0.369
24440W        W89601  18.479  11.611  11.349
24441W        W89602  24.750  31.520  10.667
24442W        W89603  21.891   7.295   0.214
24443W        W89604  35.825  21.166   1.925
24444W        W89605  40.270  30.520   1.769
24445W        W89606   9.281  35.265  11.148
24446W        W89607  14.114   3.777   2.535
24447W        W89608  18.802   6.223  11.869
24448W        W89609   7.934  31.595  13.457
24449W        W89610  34.073  33.024  10.646
24450W        W89611  19.331  42.950  10.706
24451W        W89612  28.582   1.511  12.807
24452W        W89613  27.319  20.787   1.973
24453W        W89614  26.163  14.067   3.180
24454W        W89615  13.909  19.695  11.235
24455W        W89616   1.883  42.328   4.892
24456W        W89617  42.840   2.439  13.028
24457W        W89618  39.155  43.620  10.610
24458W        W89619   3.528  40.013  13.578
24459W        W89620  32.363  32.175   3.592
24460W        W89621  29.472  12.926   5.887
24461W        W89622  37.575  34.428   2.291
24462W        W89623  28.656  44.413   0.978
24463W        W89624  34.884  37.574   0.573
24464W        W89625  24.285  19.967   3.625
24465W        W89626  10.336   0.965  10.683
24466W        W89627  27.230  13.111  12.440
24467W        W89628  31.201  24.142  14.957
24468W        W89629  15.292  20.650   4.168
24469W        W89630  35.066   4.144   0.329
24470W        W89631  37.800  19.285   4.724
24471W        W89632  17.720  38.734  12.060
24472W        W89633   7.416   8.716  10.727
24473W        W89634  30.855  38.602  12.055
24474W        W89635  15.175  19.443   3.654
24475W        W89636  20.576  14.906   3.483
24476W        W89637  10.277  21.365   4.689
24477W        W89638   4.147  32.474   3.128
24478W        W89639  25.190  17.751   2.245
24479W        W89640   2.839  44.541   9.940
24480W        W89641  11.610   5.812  14.832
24481W        W89642  10.358  42.591   2.418
24482W        W89643  30.164  30.716   3.631
24483W        W89644  34.908  31.425  12.820
24484W        W89645  32.697   4.133   1.713
24485W        W89646   6.889   7.794  10.598
24486W        W89647  36.064  15.332  11.693
24487W        W89648   3.606   4.270  13.471
24488W        W89649  43.939   2.316   0.336
24489W        W89650  32.527   5.438  13.465
24490W        W89651  43.875  20.033   2.908
24491W        W89652  42.835  29.163  11.286
24492W        W89653   1.418  32.175   4.535
24493W        W89654  30.548  34.135   3.121
24494W        W89655   5.482  26.431  12.125
24495W        W89656  16.527  14.837  12.562
24496W        W89657  35.696  21.530   2.317
24497W        W89658   1.870   2.830  14.698
24498W        W89659   3.346  25.790   4.143
24499W        W89660  38.070  16.190  12.016
24500W        W89661   1.558   4.736   1.235
24501W        W89662   2.836   0.765  12.045
24502W        W89663   4.687   5.292   0.456
24503W        W89664  29.966   8.361  10.547
24504W        W89665  40.002   4.972  10.013
24505W        W89666  25.818   4.351  11.983
24506W        W89667  20.109  41.323  11.731
24507W        W89668  42.586  18.096   0.795
24508W        W89669  43.307  40.164   4.144
24509W        W89670  28.425  10.688   0.960
24510W        W89671  33.014   0.374  10.847
24511W        W89672  43.390  20.761   4.679
24512W        W89673  42.761   2.408   1.497
24513W        W89674  16.343  30.727  11.916
24514W        W89675   5.715  12.629  12.444
24515W        W89676  35.596  37.597  11.629
24516W        W89677   1.336  18.910  13.508
24517W        W89678  17.483  26.370   2.847
24518W        W89679  19.918  22.968  11.426
24519W        W89680   5.809  42.749  10.382
24520W        W89681   8.936  11.412   1.387
24521W        W89682   6.528  11.640  11.116
24522W        W89683  37.341  33.351   0.205
24523W        W89684  32.085  36.984   1.685
24524W        W89685  37.979  11.398   4.590
24525W        W89686  11.433   0.415   2.742
24526W        W89687  15.331  33.407  13.467
24527W        W89688  12.753   3.479   4.603
24528W        W89689  37.096  39.915  11.009
24529W        W89690  17.544  43.839   3.688
24530W        W89691  25.839   8.143  14.517
24531W        W89692  26.381  14.507   3.722
24532W        W89693   8.505  19.876   0.088
24533W        W89694   3.855  13.339  14.456
24534W        W89695   3.209   1.051   3.672
24535W        W89696  14.154  11.268  13.060
24536W        W89697   0.197  28.792   1.029
24537W        W89698   5.094  27.396  11.835
24538W        W89699   3.704  28.826   1.061
24539W        W89700  34.882   5.752  14.268
24540W        W89701  16.609   5.705  12.469
24541W        W89702   7.353  43.018  12.025
24542W        W89703  22.748  31.688   0.771
24543W        W89704   2.509  28.003  10.692
24544W        W89705   3.825  18.991   2.146
24545W        W89706  35.919  32.061  11.589
24546W        W89707  41.037  44.957   4.488
24547W        W89708   3.305   7.246  10.810
24548W        W89709  27.212   8.737  12.492
24549W        W89710  13.098  12.521   1.412
24550W        W89711  30.632  12.698  11.572
24551W        W89712  24.966  29.338   0.853
24552W        W89713  24.638  26.413   0.336
24553W        W89714  21.161  34.762   0.880
24554W        W89715  19.059  20.886  11.184
24555W        W89716  40.217  42.824   4.702
24556W        W89717  25.704  38.584  13.001
24557W        W89718  22.251  29.809   2.160
24558W        W89719  12.619  23.581   3.132
24559W        W89720  36.195   3.656   4.280
24560W        W89721  17.875  32.981   1.788
24561W        W89722   5.905  40.759   3.234
24562W        W89723  17.603  30.440  11.116
24563W        W89724  24.669  27.630  13.029
24564W        W89725  41.232   4.868  12.847
24565W        W89726  39.019  42.766   3.204
24566W        W89727  26.810   1.895  12.822
24567W        W89728  11.749  43.170  14.170
24568W        W89729  27.547   6.936   1.189
24569W        W89730  23.046  20.693  14.039
24570W        W89731   9.086   0.524   2.297
24571W        W89732  42.788  29.485  13.884
24572W        W89733  39.998  20.741   0.339
24573W        W89734  27.040   7.346   2.547
24574W        W89735   0.888   2.951  14.427
24575W        W89736   5.694  21.493   1.111
24576W        W89737  28.060  18.331  14.835
24577W        W89738  28.476   5.124  13.048
24578W        W89739   2.897  44.339  11.538
24579W        W89740  39.292  18.616   0.512
24580W        W89741  35.884  24.185  14.334
24581W        W89742   6.673  26.933   0.709
24582W        W89743  32.559   9.371   2.578
24583W        W89744  27.106  34.714  10.048
24584W        W89745  17.955  28.973   4.057
24585W        W89746  23.457  43.776  13.535
24586W        W89747  31.612  19.607   3.821
24587W        W89748   1.932  37.766   0.068
24588W        W89749  14.169  35.534   4.409
24589W        W89750  30.697  35.106   1.925
24590W        W89751   8.311  29.899   3.548
24591W        W89752  14.170  12.866  13.633
24592W        W89753  28.869  11.231   0.987
24593W        W89754  24.032  44.212  13.106
24594W        W89755  40.664  30.604  12.325
24595W        W89756  25.971  22.149  14.826
24596W        W89757  14.555  28.108  11.850
24597W        W89758  39.598  24.149  11.127
24598W        W89759  26.110  26.683  13.109
24599W        W89760  32.963  17.008   4.066
24600W        W89761  37.823  21.743   0.846
24601W        W89762   1.744  35.089  12.225
24602W        W89763  21.695  21.168   2.799
24603W        W89764  44.527  31.469  13.829
24604W        W89765  34.581   3.457   3.896
24605W        W89766  17.300   1.863  13.515
24606W        W89767  30.614  37.509  13.397
24607W        W89768  42.746  27.486   1.645
24608W        W89769  43.968  32.711  14.424
24609W        W89770  30.586  13.415  12.536
24610W        W89771  17.112   4.353  11.400
24611W        W89772  14.359  13.899  14.346
24612W        W89773   8.136  12.377  13.057
24613W        W89774  25.151  13.629   4.291
24614W        W89775   4.926  24.879   4.698
24615W        W89776  11.938  32.416  10.412
24616W        W89777  12.373  33.921   1.902
24617W        W89778  38.982  33.702   0.618
24618W        W89779   3.895   7.009   1.911
24619W        W89780   6.675  10.355  11.471
24620W        W89781  28.692  44.291  12.315
24621W        W89782   8.198  22.473   4.834
24622W        W89783  26.116  39.187  14.703
24623W        W89784  34.038  34.026   2.466
24624W        W89785  10.723  14.552  13.584
24625W        W89786   2.893  11.073  14.850
24626W        W89787  23.993  21.297  13.146
24627W        W89788  44.237  26.262   3.393
24628W        W89789   5.977  28.157   2.746
24629W        W89790   8.091  22.423  11.039
24630W        W89791  12.141   9.364   1.504
24631W        W89792   8.137  20.144   3.765
24632W        W89793   7.199  37.867   3.538
24633W        W89794  10.235  21.515  12.024
24634W        W89795   9.254   2.774  12.550
24635W        W89796  25.171   1.232  12.936
24636W        W89797   2.457  13.816  13.540
24637W        W89798  10.656  13.296   3.834
24638W        W89799  41.118  18.854  14.815
24639W        W89800   4.485  29.529  10.561
24640W        W89801  44.682  10.161  12.552
24641W        W89802   6.810   5.810   4.978
24642W        W89803  12.898  35.845   1.699
24643W        W89804   8.807   8.653   1.735
24644W        W89805  30.201  15.371  14.405
24645W        W89806   6.740  12.523   4.134
24646W        W89807   2.420  25.022   1.851
24647W        W89808   1.001  13.809  12.594
24648W        W89809  11.778   2.690  12.559
24649W        W89810  34.090   9.324   1.812
24650W        W89811  12.730  27.854   0.315
24651W        W89812  36.372  14.316  14.344
24652W        W89813  19.337  42.573   0.857
24653W        W89814   7.687  38.936  14.992
24654W        W89815  40.633  19.443   2.288
24655W        W89816  20.117  22.790  13.211
24656W        W89817  35.385  32.310   3.716
24657W        W89818  33.662  35.263  13.632
24658W        W89819  39.859  36.538  12.969
24659W        W89820   4.188  22.221   3.689
24660W        W89821  14.853  11.524  11.224
24661W        W89822  40.327  25.773   1.839
24662W        W89823  38.143  13.561   1.395
24663W        W89824  27.159  12.853   2.043
24664W        W89825  19.756  29.515  12.802
24665W        W89826  31.473  27.537  11.683
24666W        W89827  37.504  13.693  12.069
24667W        W89828  32.192  16.635  12.479
24668W        W89829  10.755  18.057   0.911
24669W        W89830  36.548  21.763  11.944
24670W        W89831  25.034  11.393  14.025
24671W        W89832  29.025  43.694   0.767
24672W        W89833  26.362  14.049   0.499
24673W        W89834   6.157  41.234   0.856
24674W        W89835  32.887  30.942   2.490
24675W        W89836   3.164   3.412   4.242
24676W        W89837   8.791  27.341  14.484
24677W        W89838  13.296  15.048  14.347
24678W        W89839   0.534  34.877  10.707
24679W        W89840   8.171  10.232  12.101
24680W        W89841  44.347  13.619  12.048
24681W        W89842   6.217   1.765   2.437
24682W        W89843  17.193   4.678   3.641
24683W        W89844  41.997  21.650   4.053
24684W        W89845  28.757  20.649   1.323
24685W        W89846  27.593   4.689   3.572
24686W        W89847  35.447  37.107  11.727
24687W        W89848  14.217  14.638   3.150
24688W        W89849  28.171  17.099   4.080
24689W        W89850  38.387  11.180   3.792
24690W        W89851  34.376  29.867  13.002
24691W        W89852  24.878   2.829   4.257
24692W        W89853  10.358  12.838   0.579
24693W        W89854   0.332  24.483   3.721
24694W        W89855  42.514  22.166   1.599
24695W        W89856  29.046  12.970   5.059
24696W        W89857  22.255  40.944  10.764
24697W        W89858  35.529  17.861  13.859
24698W        W89859  38.879  33.290   0.296
24699W        W89860  37.926   3.029   4.480
24700W        W89861   1.671  20.373   1.712
24701W        W89862  23.026  21.237  10.221
24702W        W89863  29.538  38.463   1.704
24703W        W89864  30.508  11.438   0.481
24704W        W89865  28.884  12.423   4.967
24705W        W89866  16.828  14.741  11.083
24706W        W89867  30.417  39.449  14.001
24707W        W89868  42.736  13.842   1.221
24708W        W89869  20.243  14.155  14.498
24709W        W89870   9.725  11.591  14.406
24710W        W89871   6.162  22.157  14.999
24711W        W89872  11.800  20.384  11.173
24712W        W89873  25.094  24.647  10.864
24713W        W89874   0.614  41.525  14.463
24714W        W89875   0.417  26.517  10.773
24715W        W89876  38.728  14.781   0.902
24716W        W89877  40.883  22.556   2.933
24717W        W89878  32.434   4.805   4.311
24718W        W89879  18.581  30.013  12.129
24719W        W89880  15.097   4.490  12.110
24720W        W89881  34.982  16.262   1.516
24721W        W89882   6.721   5.365   4.687
24722W        W89883  31.619  34.547  12.408
24723W        W89884  30.879  13.766  10.408
24724W        W89885  26.122  16.516  14.996
24725W        W89886  31.943  17.446   4.717
24726W        W89887   2.239  15.370  14.762
24727W        W89888   6.694   4.996  10.227
24728W        W89889  32.715  37.272   4.605
24729W        W89890   4.457  36.880   3.289
24730W        W89891  23.619  38.093  10.071
24731W        W89892   2.978  17.633  14.563
24732W        W89893   2.219  28.139  10.260
24733W        W89894   2.815  23.986   1.329
24734W        W89895  42.930   1.237  14.952
24735W        W89896  18.147  18.462   2.738
24736W        W89897  38.284  11.839   4.611
24737W        W89898  33.854   5.334   3.270
24738W        W89899  29.138  24.146   1.768
24739W        W89900  33.552  21.687   4.804
24740W        W89901  14.700  39.712   1.511
24741W        W89902  20.982  21.269   3.212
24742W        W89903  43.931   9.884   1.660
24743W        W89904  26.442   0.311  12.668
24744W        W89905   7.775  23.556   2.650
24745W        W89906  11.221   4.225  13.381
24746W        W89907  24.926  16.166   0.216
24747W        W89908  17.253   1.242  12.930
24748W        W89909  35.179  12.493  10.342
24749W        W89910  36.669  40.013   0.259
24750W        W89911  22.193  28.081   4.317
24751W        W89912   8.381  13.883   1.742
24752W        W89913   5.956  34.818   4.130
24753W        W89914   9.949  20.121   1.985
24754W        W89915  25.515  24.015   1.009
24755W        W89916   0.206  11.101   0.330
24756W        W89917  15.214  25.727   4.040
24757W        W89918   0.843  33.529  12.366
24758W        W89919  14.619  23.680   4.289
24759W        W89920  34.683  38.030   3.515
24760W        W89921  21.739  19.631   0.361
24761W        W89922  15.113  29.130   1.081
24762W        W89923  26.704   8.240  14.160
24763W        W89924  11.437   2.167   1.713
24764W        W89925  43.963   6.096   3.566
24765W        W89926  28.690   1.052  12.580
24766W        W89927  13.700  11.358   4.583
24767W        W89928  19.230  19.932  14.720
24768W        W89929   2.946  38.794   4.745
24769W        W89930  37.181  22.478   2.833
24770W        W89931   3.874  13.464   0.358
24771W        W89932  18.693   6.107  12.382
24772W        W89933  40.402   0.625  10.766
24773W        W89934  37.605  17.988   2.192
24774W        W89935  32.871  24.076   5.352
24775W        W89936  11.152  44.140  10.308
24776W        W89937  30.563  44.003  10.593
24777W        W89938  42.387  13.887  12.033
24778W        W89939   8.131  42.275  14.819
24779W        W89940   1.940  19.093  11.582
24780W        W89941   2.770  32.402   1.793
24781W        W89942   0.204  14.278  14.494
24782W        W89943  34.902  32.931  12.131
24783W        W89944  13.238  11.691  12.331
24784W        W89945  14.291  33.387  13.136
24785W        W89946   2.336   9.198   2.631
24786W        W89947  43.302  43.436  14.619
24787W        W89948  24.782   8.973   1.303
24788W        W89949  31.067  43.456  13.582
24789W        W89950   6.140   8.195  10.848
24790W        W89951  10.294  31.030  14.266
24791W        W89952   2.435  40.801   1.700
24792W        W89953   1.185  17.614  11.508
24793W        W89954   7.936  20.657  12.577
24794W        W89955  34.808  25.726   2.952
24795W        W89956   1.345   0.502  13.804
24796W        W89957  37.120  34.864  14.882
24797W        W89958  15.247  17.549   1.361
24798W        W89959  32.458  20.532   3.542
24799W        W89960  17.951  44.728   1.971
24800W        W89961  35.543  24.792  14.099
24801W        W89962   0.938  22.450   5.217
24802W        W89963  36.851  36.139   0.649
24803W        W89964   9.294  34.167  13.444
24804W        W89965  40.333  42.967  13.342
24805W        W89966  22.554  28.241   4.676
24806W        W89967  33.648  29.100   1.479
24807W        W89968  41.081  30.417   0.345
24808W        W89969   7.038  15.421  14.253
24809W        W89970   8.554  28.261  12.012
24810W        W89971  44.312   8.329   0.276
24811W        W89972  40.245  15.893   3.664
24812W        W89973  38.980  44.389   3.683
24813W        W89974  17.126  16.894   2.857
24814W        W89975  42.062  36.864  13.809
24815W        W89976  18.732  35.911  10.770
24816W        W89977  23.527   8.816  14.847
24817W        W89978   3.564  22.503  10.226
24818W        W89979  30.032   9.261   1.772
24819W        W89980   6.542   3.282  14.794
24820W        W89981   7.831   3.464   0.474
24821W        W89982  30.998  31.143   4.998
24822W        W89983  32.293  15.320   3.132
24823W        W89984   1.817   6.649   4.597
24824W        W89985   8.208  39.921  14.464
24825W        W89986   3.366  21.551   4.299
24826W        W89987   6.391  31.783  10.731
24827W        W89988  38.630  30.221  14.025
24828W        W89989  39.504   8.229  11.016
24829W        W89990  27.097   3.467  14.207
24830W        W89991  23.085  34.402   0.434
24831W        W89992  28.680   9.597   4.866
24832W        W89993  24.556  32.935   0.863
24833W        W89994  35.540   9.225  14.858
24834W        W89995  23.484  22.426  10.443
24835W        W89996  30.599  17.370  12.573
24836W        W89997  19.214  37.018   4.090
24837W        W89998  20.598  26.305  11.937
24838W        W89999  21.259  41.087  12.485
24839W        W90000   0.638  11.881   4.973
24840W        W90001  20.059  41.939  14.567
24841W        W90002  17.896   6.700   0.157
24842W        W90003  34.412  18.189   2.304
24843W        W90004  29.507  41.965  11.962
24844W        W90005   0.145  12.143  13.050
24845W        W90006   8.252  21.718   4.168
24846W        W90007   2.356  33.633  13.849
24847W        W90008  14.540  39.080  13.969
24848W        W90009  19.746   2.893  13.367
24849W        W90010   8.194  35.638   0.801
24850W        W90011  17.460  36.015  12.332
24851W        W90012  43.803  12.339   0.303
24852W        W90013  12.342  29.399   4.278
24853W        W90014  23.598  35.627  13.523
24854W        W90015   3.985  34.986   2.688
24855W        W90016  21.514   5.368   0.810
24856W        W90017   4.133  17.588  13.787
24857W        W90018  22.811  41.045  13.922
24858W        W90019  24.872  43.754  14.446
24859W        W90020  11.436  20.986   1.707
24860W        W90021  38.716  42.942  12.892
24861W        W90022  21.180   9.394   3.610
24862W        W90023  18.858  15.786   2.794
24863W        W90024  18.854  30.437  10.889
24864W        W90025  28.101  18.879   2.239
24865W        W90026  34.921   2.266   1.058
24866W        W90027   8.981  41.187   1.780
24867W        W90028   1.783  21.286  14.818
24868W        W90029  19.359   9.404  14.734
24869W        W90030  31.660  40.493  13.389
24870W        W90031  34.630  33.003  11.148
24871W        W90032   2.894   4.821  12.424
24872W        W90033   3.468   1.296   4.144
24873W        W90034  16.718  12.622  11.153
24874W        W90035  21.107   0.332   2.219
24875W        W90036  28.718  44.481  13.069
24876W        W90037  23.994  12.321  14.385
24877W        W90038  22.605   5.225  13.544
24878W        W90039  32.218  18.228  11.580
24879W        W90040  12.595  19.407   3.805
24880W        W90041  23.603  10.392   1.033
24881W        W90042  37.615   8.748  12.652
24882W        W90043   9.234  43.691   0.644
24883W        W90044  10.193   3.929   4.408
24884W        W90045  24.054   5.645   1.920
24885W        W90046   1.284  28.011   1.765
24886W        W90047   2.852  11.786  11.142
24887W        W90048  13.628  19.387   4.572
24888W        W90049  16.844  22.160  13.330
24889W        W90050   6.279  29.450   1.691
24890W        W90051   6.824  42.807  13.111
24891W        W90052   6.685  43.326   3.208
24892W        W90053  44.057  19.162   3.724
24893W        W90054  19.665   7.614   5.150
24894W        W90055  29.028  38.848   1.397
24895W        W90056  21.077   3.222  12.019
24896W        W90057  43.711  40.673   3.367
24897W        W90058  38.522  36.126   0.461
24898W        W90059  43.160  40.621   4.933
24899W        W90060  42.058  37.352   2.353
24900W        W90061  30.539   7.566  10.846
24901W        W90062  26.741  13.675   2.477
24902W        W90063  32.136   2.125   4.511
24903W        W90064   5.683  10.317  14.072
24904W        W90065   9.246   6.985   1.423
24905W        W90066   1.529   5.743   1.217
24906W        W90067  10.616   2.379  11.160
24907W        W90068  41.264  34.030  11.729
24908W        W90069  43.345   7.300  14.856
24909W        W90070  38.417  38.474  12.456
24910W        W90071  40.833  35.678  12.901
24911W        W90072  34.525  29.554   4.606
24912W        W90073   8.771  16.818  14.069
24913W        W90074  17.361   0.936  13.547
24914W        W90075   3.715  36.213  10.770
24915W        W90076   5.694  12.243  13.827
24916W        W90077  19.770  43.202  11.078
24917W        W90078  35.470  41.976   1.749
24918W        W90079  24.741  15.189   4.618
24919W        W90080  26.204  27.535  11.516
24920W        W90081  10.697  16.372  11.396
24921W        W90082  16.605  27.279   1.787
24922W        W90083  34.972  28.904  11.481
24923W        W90084  22.607   4.389  12.279
24924W        W90085   7.711  43.809  13.689
24925W        W90086  14.608   7.631   0.499
24926W        W90087  27.271  12.758  12.810
24927W        W90088  34.481  38.097   0.513
24928W        W90089  34.057  25.486  13.999
24929W        W90090   8.160   0.845   4.604
24930W        W90091  22.307  24.983   4.523
24931W        W90092   3.521   3.972  12.502
24932W        W90093  15.886  24.729  10.707
24933W        W90094  40.771  23.849   3.332
24934W        W90095  36.190  39.352  11.897
24935W        W90096  19.506  21.625  14.447
24936W        W90097   3.225  18.082   3.132
24937W        W90098  29.041  41.242  13.537
24938W        W90099  30.562  43.338   2.870
24939W        W90100   6.011  40.910   2.386
24940W        W90101  12.733   9.604   2.673
24941W        W90102   2.331   1.358  10.908
24942W        W90103   5.083  19.696   4.296
24943W        W90104   7.608  10.677   0.014
24944W        W90105   5.667  12.233  11.790
24945W        W90106  15.058  19.271   0.048
24946W        W90107  14.593   3.491  11.090
24947W        W90108   1.241  18.054   4.857
24948W        W90109  12.699   8.348  13.799
24949W        W90110  37.239  18.629   0.840
24950W        W90111  28.954  29.754  11.877
24951W        W90112  31.448  21.659  11.428
24952W        W90113  14.676  10.453   2.393
24953W        W90114  42.877  27.633   2.649
24954W        W90115  14.257  42.310   0.456
24955W        W90116  26.633  14.220   4.945
24956W        W90117  22.276   8.867  12.014
24957W        W90118  26.146  32.834  13.277
24958W        W90119  23.116  17.430  11.077
24959W        W90120  40.521   7.424   1.249
24960W        W90121   2.331  43.983  13.837
24961W        W90122   0.064  20.480  13.814
24962W        W90123  36.681   0.747   4.143
24963W        W90124  19.236   2.879  13.476
24964W        W90125  37.424  16.101   4.156
24965W        W90126  24.742  17.630  10.768
24966W        W90127   9.726  38.964  11.488
24967W        W90128  32.071  40.790  11.695
24968W        W90129   9.666  39.950  11.673
24969W        W90130   1.771   3.491   3.769
24970W        W90131  44.798  34.111  13.927
24971W        W90132  10.790  11.180   3.253
24972W        W90133  26.169  24.174   0.721
24973W        W90134  41.288   0.705   1.114
24974W        W90135  21.112  33.622   3.197
24975W        W90136  33.845  20.656  12.602
24976W        W90137  44.272  37.836   3.097
24977W        W90138  30.939  36.176   1.762
24978W        W90139  33.571  32.117  13.996
24979W        W90140   6.792  33.134  10.698
24980W        W90141  16.577  38.539   2.433
24981W        W90142   5.345  37.826   0.159
24982W        W90143   6.434   0.939  11.170
24983W        W90144  31.695   9.006  12.004
24984W        W90145   8.658  18.982  13.933
24985W        W90146  19.562   6.318  11.131
24986W        W90147   4.749  22.771  11.469
24987W        W90148  13.105  12.354  11.475
24988W        W90149  18.993   1.561  13.505
24989W        W90150  17.824  30.222  10.674
24990W        W90151  19.196  15.553   2.452
24991W        W90152   3.273  32.355  11.945
24992W        W90153  18.398  29.999   2.658
24993W        W90154  37.039   9.453  13.746
24994W        W90155   3.900  29.193   3.584
24995W        W90156   2.825  22.597   2.897
24996W        W90157  30.363  31.202  11.522
24997W        W90158  30.876  41.638  14.406
24998W        W90159  27.515  23.098   2.406
24999W        W90160  11.679  41.895  11.694
25000W        W90161  13.144  19.189   4.617
25001W        W90162   0.396  14.912   3.634
25002W        W90163   9.250  44.881   3.146
25003W        W90164   6.633  21.515   0.924
25004W        W90165  13.600   9.162   0.403
25005W        W90166  28.524  13.742  13.010
25006W        W90167  39.491   4.993  13.523
25007W        W90168  32.629  13.509   0.228
25008W        W90169  28.485   7.038   4.179
25009W        W90170  10.674  11.679   3.190
25010W        W90171  21.765  41.525   0.264
25011W        W90172  38.964   1.814  12.010
25012W        W90173   0.779  28.235   1.738
25013W        W90174  22.635  19.774   1.787
25014W        W90175  27.209   6.303  10.829
25015W        W90176  30.764  40.846   4.640
25016W        W90177   0.878  19.575  12.587
25017W        W90178  12.984  35.314  11.270
25018W        W90179   2.506   5.922   1.428
25019W        W90180  25.496  30.788   4.149
25020W        W90181  15.539  37.127   3.681
25021W        W90182   2.936   0.436  12.603
25022W        W90183   6.729  21.008   0.916
25023W        W90184  24.123   9.893  11.162
25024W        W90185  20.277   1.497   3.877
25025W        W90186   6.212  14.280   0.338
25026W        W90187  23.112   0.181   3.686
25027W        W90188  25.410  11.440  12.063
25028W        W90189  17.325  33.856   2.672
25029W        W90190  11.730  42.799   4.930
25030W        W90191   9.419  19.270   1.972
25031W        W90192  37.918   2.465   2.635
25032W        W90193  27.770  16.626   3.804
25033W        W90194  11.285   7.868   0.152
25034W        W90195  38.659  24.217  12.557
25035W        W90196  21.365   9.785  10.107
25036W        W90197   3.540  40.193  10.988
25037W        W90198   4.535  39.764  13.304
25038W        W90199  19.377   0.915   4.168
25039W        W90200  40.454  44.752  12.537
25040W        W90201  42.033  10.376   4.132
25041W        W90202  34.030   7.935   4.659
25042W        W90203  25.795   7.502   3.117
25043W        W90204  43.038  41.629   2.246
25044W        W90205  18.793  36.465   4.612
25045W        W90206   6.739  34.148  10.732
25046W        W90207  33.446  18.828  12.021
25047W        W90208  13.645   0.528  10.830
25048W        W90209  41.282  28.687   3.814
25049W        W90210   0.916  39.461  13.212
25050W        W90211   2.669  10.727   4.429
25051W        W90212  36.358   7.593   2.117
25052W        W90213  22.909  12.292  10.631
25053W        W90214  26.219  16.980   3.638
25054W        W90215  40.620  17.328  13.576
25055W        W90216  24.480  41.550  11.199
25056W        W90217  34.980  44.428   1.197
25057W        W90218  22.762  17.156  11.581
25058W        W90219  44.011  36.493   4.071
25059W        W90220  43.289   0.913   4.941
25060W        W90221  14.111  38.968  11.200
25061W        W90222  24.301  23.114   1.784
25062W        W90223  30.886   8.829   4.087
25063W        W90224  29.375  33.898   1.522
25064W        W90225  13.342  31.205  12.892
25065W        W90226  25.031  24.949  11.789
25066W        W90227  13.629  33.424   3.725
25067W        W90228  36.017  20.092   4.559
25068W        W90229  10.211   3.827   3.911
25069W        W90230  27.040   5.316   1.481
25070W        W90231  35.885  18.490  13.153
25071W        W90232   9.731  31.869   4.466
25072W        W90233  34.742  17.982   5.178
25073W        W90234  10.807  29.381   1.512
25074W        W90235  15.777   2.826  11.389
25075W        W90236  15.682   4.095  13.572
25076W        W90237  24.266  33.348  12.967
25077W        W90238  29.069  27.140   0.057
25078W        W90239  34.410   8.365   4.617
25079W        W90240  30.628  28.149  13.072
25080W        W90241  20.625  17.287   1.174
25081W        W90242   6.422  30.468  14.979
25082W        W90243   3.549  40.673  11.196
25083W        W90244  40.809  25.665   3.165
25084W        W90245  22.035  43.227   2.454
25085W        W90246  37.918  42.039  13.614
25086W        W90247  43.407   0.541   0.545
25087W        W90248  33.306   1.264  11.176
25088W        W90249  14.320  34.922   0.192
25089W        W90250   7.779  43.368  10.609
25090W        W90251  14.103  20.830  12.880
25091W        W90252   0.821  32.061   1.299
25092W        W90253  20.340  39.712  12.456
25093W        W90254  18.277  23.092  14.028
25094W        W90255  32.318  20.623  12.463
25095W        W90256   5.740   8.138  14.214
25096W        W90257  16.387  37.810   3.062
25097W        W90258  21.237  43.234   3.846
25098W        W90259  37.081  11.616   2.259
25099W        W90260  20.514  36.779  13.997
25100W        W90261   7.259  13.926   3.119
25101W        W90262   1.955   7.369   4.080
25102W        W90263  34.712  26.630   2.380
25103W        W90264  21.130  14.125   1.751
25104W        W90265   0.234  30.123   3.273
25105W        W90266  13.659  26.342   2.194
25106W        W90267  13.194  34.428  13.860
25107W        W90268   3.913   7.802   2.562
25108W        W90269  16.558  29.888   4.353
25109W        W90270   8.812  20.095   5.065
25110W        W90271  31.397   1.765   2.717
25111W        W90272   1.903  31.805   3.740
25112W        W90273  42.873  30.603   2.415
25113W        W90274  37.865  33.334   0.255
25114W        W90275   6.829  27.860   2.650
25115W        W90276  33.391  36.897   2.343
25116W        W90277  44.458  23.088  13.762
25117W        W90278  12.322  24.921   1.444
25118W        W90279  37.451   8.259   1.273
25119W        W90280   8.788  43.384  12.350
25120W        W90281   7.984  11.710   0.131
25121W        W90282  21.753  27.487   4.267
25122W        W90283  13.515  37.089   0.698
25123W        W90284  29.516  19.654   2.782
25124W        W90285   8.778  30.558   1.312
25125W        W90286   5.471  11.912   2.744
25126W        W90287  38.852   8.514   1.300
25127W        W90288   0.249  36.390   1.810
25128W        W90289  41.388  13.675   3.584
25129W        W90290  12.040   0.873  10.777
25130W        W90291  22.439  27.691   1.864
25131W        W90292  11.708  34.421   1.018
25132W        W90293  36.227  33.141   3.222
25133W        W90294  42.127  43.388   2.757
25134W        W90295   4.909  27.268  13.474
25135W        W90296  22.645   6.893   2.847
25136W        W90297  38.627  26.703   1.286
25137W        W90298  23.461  37.105   0.444
25138W        W90299  37.983   6.655   3.631
25139W        W90300  25.393   5.174  12.135
25140W        W90301   5.241  24.302  12.254
25141W        W90302   0.661  40.635   0.145
25142W        W90303  27.712   2.841   2.772
25143W        W90304  40.940  12.236   3.973
25144W        W90305  35.023   9.850  10.667
25145W        W90306  30.617  12.730   3.503
25146W        W90307  38.526   0.164   1.439
25147W        W90308  22.022  43.411   4.268
25148W        W90309  12.507  41.739  11.130
25149W        W90310  19.262  30.233  14.838
25150W        W90311  22.582   7.598  12.566
25151W        W90312  10.338   9.129   3.681
25152W        W90313  36.642  28.704   4.658
25153W        W90314  17.690  37.479  10.811
25154W        W90315   2.726  26.172   9.730
25155W        W90316   3.980  19.247   1.708
25156W        W90317  14.135   5.202  10.669
25157W        W90318  33.407   1.444   0.821
25158W        W90319   0.280   2.675   0.263
25159W        W90320   1.509   4.966  12.061
25160W        W90321  21.711  13.037   4.679
25161W        W90322  11.411  44.160   4.004
25162W        W90323  21.847  39.768   3.517
25163W        W90324   9.814   8.454   0.232
25164W        W90325  38.310  34.962   1.372
25165W        W90326  17.147  35.706   0.804
25166W        W90327   9.389  44.200  12.497
25167W        W90328  26.664   6.368  11.539
25168W        W90329  41.610   7.808   2.215
25169W        W90330  44.919  18.500   3.308
25170W        W90331  23.946  28.393   0.860
25171W        W90332  28.905   6.567   1.787
25172W        W90333  22.764   1.337   3.432
25173W        W90334  35.587  41.017   3.610
25174W        W90335  33.088  20.020  13.486
25175W        W90336  43.326  43.005   1.827
25176W        W90337  31.497  12.180  11.333
25177W        W90338  36.297  18.697  13.385
25178W        W90339  24.600  17.951   3.164
25179W        W90340   7.368  34.685  10.823
25180W        W90341  23.774  31.430   0.314
25181W        W90342   1.468  41.434   3.818
25182W        W90343  12.870  15.261  13.001
25183W        W90344  17.625  14.571  14.397
25184W        W90345  36.803  33.344  14.429
25185W        W90346   6.308  19.761   2.158
25186W        W90347  26.654  24.696  13.566
25187W        W90348  22.525  40.505  11.441
25188W        W90349  25.485  43.522   2.721
25189W        W90350  34.524  21.446  14.326
25190W        W90351  32.381  32.600   0.856
25191W        W90352  35.875  18.154  11.363
25192W        W90353  40.004   2.958  11.629
25193W        W90354  30.354   6.268  14.773
25194W        W90355  21.061   2.459   1.533
25195W        W90356  16.071  31.521   4.622
25196W        W90357  29.148  25.155  11.210
25197W        W90358  40.603  12.317   0.153
25198W        W90359   6.421  35.956   1.729
25199W        W90360  11.837  43.389  11.936
25200W        W90361  33.432  13.201   1.897
25201W        W90362   8.072  28.063   1.999
25202W        W90363  20.263  38.786   0.971
25203W        W90364  44.991  12.968   0.116
25204W        W90365  37.335   6.370  10.656
25205W        W90366  14.359  22.351   3.074
25206W        W90367   8.398   1.942   3.638
25207W        W90368   0.206  27.633  14.990
25208W        W90369  28.856  24.549  14.888
25209W        W90370   3.858  11.007   2.765
25210W        W90371  24.582  37.451   5.485
25211W        W90372  33.500  20.893  11.176
25212W        W90373   0.487  16.192   1.293
25213W        W90374  34.487  27.437   2.105
25214W        W90375  36.509   6.374  14.494
25215W        W90376  42.752   8.474  11.763
25216W        W90377  31.588  23.522  12.757
25217W        W90378  38.661  40.679  11.042
25218W        W90379   9.174  22.590   0.043
25219W        W90380  12.317  14.757   1.342
25220W        W90381   5.899   7.694   3.366
25221W        W90382  39.058  35.446  11.668
25222W        W90383  37.907  12.374  13.417
25223W        W90384  36.154  21.397  13.804
25224W        W90385  17.542   7.868  14.431
25225W        W90386  37.786  13.444  11.729
25226W        W90387   0.540  14.833  13.856
25227W        W90388  31.889   2.433  14.500
25228W        W90389   0.662  43.182  11.689
25229W        W90390   2.698  18.228  10.765
25230W        W90391  26.479  36.444  12.934
25231W        W90392  25.534  27.959  14.617
25232W        W90393   7.497   3.215  13.892
25233W        W90394  42.969  35.861   1.991
25234W        W90395  13.285  38.694  13.449
25235W        W90396  19.544   6.818  14.377
25236W        W90397  26.762  17.840   2.243
25237W        W90398  16.553  25.387   3.891
25238W        W90399  41.783  33.804  12.447
25239W        W90400  27.020  15.595  11.271
25240W        W90401  25.665  24.353  11.635
25241W        W90402   5.829  30.378   4.457
25242W        W90403   8.555   7.720   3.256
25243W        W90404  35.558  39.045  13.084
25244W        W90405   4.946  24.515  14.679
25245W        W90406  32.121   6.313   3.995
25246W        W90407  34.638  26.780  12.117
25247W        W90408  31.871  16.148  13.043
25248W        W90409   7.407  19.014   4.414
25249W        W90410  15.067   4.961   4.321
25250W        W90411  22.752  26.130  13.974
25251W        W90412  39.331  14.728   4.562
25252W        W90413   1.608   5.980  14.558
25253W        W90414  34.609  44.958  12.641
25254W        W90415   8.910  35.327  12.927
25255W        W90416  33.463  14.584  12.526
25256W        W90417  30.429  24.630  14.772
25257W        W90418   5.445  22.748   3.330
25258W        W90419  16.124   8.369   5.321
25259W        W90420  13.261   3.460  13.252
25260W        W90421  38.791  20.126  12.576
25261W        W90422  39.054  31.011  12.598
25262W        W90423  15.396  38.491  12.572
25263W        W90424  32.493   1.355  11.468
25264W        W90425  12.238   0.488  11.578
25265W        W90426   1.965  31.967   2.750
25266W        W90427   2.450  30.709  14.753
25267W        W90428  14.323  13.840   0.444
25268W        W90429  12.259  32.426  13.982
25269W        W90430  31.960  25.242  14.553
25270W        W90431  19.611   5.564   3.586
25271W        W90432  38.843  26.727   1.819
25272W        W90433  36.325  44.474   3.687
25273W        W90434   8.789   2.606   2.146
25274W        W90435  43.394   8.151   1.827
25275W        W90436  44.762  25.947  12.844
25276W        W90437   6.640   7.178  13.395
25277W        W90438  38.207  39.143  12.563
25278W        W90439   3.356  17.989  13.386
25279W        W90440   3.219  39.540   4.464
25280W        W90441  16.809   2.630   4.088
25281W        W90442   7.120  26.930   0.989
25282W        W90443  39.783  38.164   1.799
25283W        W90444   8.110   5.899   3.401
25284W        W90445  43.251   3.112   1.320
25285W        W90446  42.085  35.181  14.100
25286W        W90447  37.571  35.146  14.874
25287W        W90448   0.576  43.642   3.564
25288W        W90449   0.795  29.631   2.114
25289W        W90450   6.376   1.252  12.445
25290W        W90451  38.566  23.053   0.413
25291W        W90452  17.606  37.042  10.577
25292W        W90453  41.362  22.698   3.741
25293W        W90454  13.354  38.431  12.994
25294W        W90455  19.457  42.358  12.137
25295W        W90456   9.802  29.710   3.879
25296W        W90457  25.880  25.316   4.003
25297W        W90458  14.105  10.803   1.734
25298W        W90459   9.736  21.494  12.068
25299W        W90460  11.183  27.582  10.855
25300W        W90461  35.212  36.574   4.033
25301W        W90462  37.516  31.588   0.786
25302W        W90463   7.830  16.631   1.475
25303W        W90464  15.107  24.401  14.296
25304W        W90465  29.209  15.634  12.892
25305W        W90466  14.626  22.367  13.515
25306W        W90467  40.465   0.421   3.377
25307W        W90468   4.997  38.881  12.389
25308W        W90469  19.669  23.283   2.591
25309W        W90470  43.929  22.920   4.242
25310W        W90471   7.351  40.466   4.571
25311W        W90472  30.985  20.792  14.447
25312W        W90473  17.785  11.651  11.877
25313W        W90474  27.268  30.088   2.225
25314W        W90475   5.341  24.924   5.462
25315W        W90476  33.406  16.662   3.957
25316W        W90477   9.543  30.929   1.825
25317W        W90478  22.556   2.833   4.840
25318W        W90479  31.553  34.107   4.183
25319W        W90480  17.494  35.303   2.783
25320W        W90481  25.585  35.395  13.461
25321W        W90482  10.777  43.380   4.123
25322W        W90483  19.165  17.731  12.911
25323W        W90484  34.920   2.347   0.557
25324W        W90485  38.944  22.661  14.528
25325W        W90486  32.667  30.462   4.022
25326W        W90487  19.482  24.267  14.848
25327W        W90488  24.592  25.381   0.446
25328W        W90489   3.345   9.941  13.034
25329W        W90490   9.351  37.590  12.489
25330W        W90491  43.001   5.995  13.967
25331W        W90492  41.417   5.545   4.631
25332W        W90493  16.634   7.869   0.912
25333W        W90494  27.776  21.564   4.212
25334W        W90495  22.083  17.353  13.083
25335W        W90496   4.935  43.440   4.260
25336W        W90497  34.046   1.950   0.304
25337W        W90498  39.544   3.137   1.344
25338W        W90499   3.945  36.093   1.742
25339W        W90500  39.467  37.565  12.470
25340W        W90501  32.939  14.739  14.230
25341W        W90502   7.760  30.237   2.381
25342W        W90503  17.182  20.046   3.192
25343W        W90504  32.489  42.978  12.611
25344W        W90505  23.594  10.049  13.448
25345W        W90506   6.230  12.421   4.550
25346W        W90507  39.377  42.404  11.869
25347W        W90508  31.075   4.890   4.553
25348W        W90509  37.848   4.261   0.743
25349W        W90510  44.860   9.746  11.001
25350W        W90511  26.263   5.159   2.323
25351W        W90512  40.392  43.887  12.326
25352W        W90513  15.608  44.948  11.901
25353W        W90514   2.800  33.635   1.176
25354W        W90515  39.059   4.835  12.171
25355W        W90516  41.982  13.856  12.829
25356W        W90517  43.019  40.279   3.738
25357W        W90518  17.204  11.063  14.254
25358W        W90519  18.815  37.605   3.647
25359W        W90520  38.116  33.170  10.550
25360W        W90521  30.852  16.155  12.910
25361W        W90522   6.929  34.466  13.993
25362W        W90523  41.608  12.151   2.286
25363W        W90524   4.131  33.395  11.501
25364W        W90525  19.047  28.216  12.061
25365W        W90526  18.421  33.512   5.030
25366W        W90527  39.497  32.232  11.883
25367W        W90528  35.898  35.878  14.509
25368W        W90529  15.548   3.580   4.092
25369W        W90530   2.017  12.019  13.316
25370W        W90531  44.911  22.946   0.931
25371W        W90532  16.368  20.271   1.759
25372W        W90533  28.901  28.183  11.119
25373W        W90534   4.458  41.976   4.198
25374W        W90535  40.532  43.428  13.782
25375W        W90536  44.024   0.750  13.026
25376W        W90537   5.107  17.158   1.344
25377W        W90538  20.118   1.455  10.927
25378W        W90539   6.726   4.234   2.640
25379W        W90540  20.065  31.607  12.035
25380W        W90541  13.122   1.633   2.332
25381W        W90542  20.554   6.428  13.994
25382W        W90543  12.684  30.629  13.917
25383W        W90544  22.007  11.424  13.811
25384W        W90545  28.129  24.703  10.729
25385W        W90546  12.384  24.940  11.059
25386W        W90547  33.473  39.568  12.342
25387W        W90548   3.897   1.826   4.922
25388W        W90549  15.996   7.904  10.647
25389W        W90550   2.713  40.465   4.547
25390W        W90551  13.696  12.837   1.022
25391W        W90552  41.867  23.818  11.167
25392W        W90553  22.688  25.004   2.111
25393W        W90554   9.691   4.401  13.582
25394W        W90555   3.101  20.679  12.007
25395W        W90556   6.452   2.889  10.980
25396W        W90557   6.759  36.874   3.734
25397W        W90558  39.279  25.245  12.105
25398W        W90559  25.260  17.483   0.488
25399W        W90560  41.772   3.208  13.419
25400W        W90561  17.534  30.952  14.391
25401W        W90562  32.434  13.975  14.320
25402W        W90563  33.649  39.994   0.482
25403W        W90564  35.857  22.765  12.511
25404W        W90565  16.594   7.194  11.662
25405W        W90566   3.113  32.571   3.217
25406W        W90567  40.441  43.407  10.980
25407W        W90568  13.529  21.296   4.158
25408W        W90569  32.345  15.096   1.199
25409W        W90570   4.696  15.924  13.814
25410W        W90571  21.018  23.795  14.548
25411W        W90572   1.009  33.470  14.712
25412W        W90573  32.316   9.776  14.724
25413W        W90574   3.216  30.196   4.851
25414W        W90575  40.598   5.537   3.723
25415W        W90576   4.117  34.842  12.938
25416W        W90577  10.227  35.535  13.880
25417W        W90578  26.498  32.976   2.281
25418W        W90579  17.276  14.381   1.883
25419W        W90580   8.670   0.135  13.010
25420W        W90581  25.229  37.497   1.311
25421W        W90582  24.952  22.035  14.548
25422W        W90583  22.447  38.188   3.326
25423W        W90584  19.758  10.629   1.658
25424W        W90585   5.924  37.945  12.969
25425W        W90586  27.164   7.094   0.855
25426W        W90587  38.538  33.401  13.093
25427W        W90588   5.807  32.547  13.337
25428W        W90589   9.698   2.734  11.881
25429W        W90590  32.660  37.163   4.118
25430W        W90591   7.105  11.892   3.683
25431W        W90592  32.149  30.921   0.292
25432W        W90593   8.178  18.218  14.824
25433W        W90594   0.405  22.005  14.405
25434W        W90595  34.656  12.833  12.643
25435W        W90596  21.529  24.936   1.243
25436W        W90597  25.495   3.214  10.731
25437W        W90598  32.882  18.791   0.295
25438W        W90599  31.405  44.483   4.651
25439W        W90600  23.620  28.408   4.333
25440W        W90601  13.544   7.863   0.464
25441W        W90602   4.411  24.088   4.679
25442W        W90603  44.691  39.515  11.003
25443W        W90604   6.354  24.900   2.610
25444W        W90605  25.261  18.058  11.110
25445W        W90606  20.605  17.881   4.410
25446W        W90607  24.995   1.672   2.360
25447W        W90608  12.151  33.982   0.753
25448W        W90609  14.179   4.325   4.595
25449W        W90610  13.073  44.211   3.388
25450W        W90611  35.652   4.497   4.770
25451W        W90612  34.088  10.311   2.700
25452W        W90613  22.823  22.418  11.637
25453W        W90614   7.071  12.198  14.563
25454W        W90615  23.748   6.647   2.061
25455W        W90616  23.707  35.850   3.232
25456W        W90617   5.688  26.248  11.178
25457W        W90618   1.537  13.806  12.638
25458W        W90619  12.205  13.739  13.623
25459W        W90620  22.855  40.055   1.828
25460W        W90621  32.541  23.784  13.036
25461W        W90622  10.602  36.894   1.307
25462W        W90623  41.816  35.605  14.302
25463W        W90624   1.926  36.145  13.646
25464W        W90625  26.499  44.793   0.373
25465W        W90626  27.189  22.797   3.736
25466W        W90627  30.199  35.009   4.093
25467W        W90628  17.234  42.164   9.712
25468W        W90629  39.911  23.054   0.864
25469W        W90630  34.899  17.111  10.700
25470W        W90631  19.838  15.712   0.877
25471W        W90632  31.906   9.136  13.801
25472W        W90633   2.342  16.833  14.946
25473W        W90634  12.515  37.646   0.236
25474W        W90635  16.437   7.689  11.637
25475W        W90636   7.391   5.268   1.952
25476W        W90637  20.680  38.477  10.339
25477W        W90638  41.999  40.386  10.750
25478W        W90639   3.292  16.517  10.485
25479W        W90640  44.843  41.015   1.537
25480W        W90641  17.721   3.482  11.125
25481W        W90642   6.414   3.654   4.534
25482W        W90643  15.834  28.630  12.873
25483W        W90644  42.937  20.696  13.504
25484W        W90645  16.109  43.787   1.395
25485W        W90646  17.954  30.185   2.831
25486W        W90647  11.734  21.314  11.740
25487W        W90648  27.967  35.635   2.719
25488W        W90649  17.413  17.286  12.011
25489W        W90650  37.619  32.165   4.451
25490W        W90651   1.577  21.244   5.040
25491W        W90652  27.719  35.857  10.314
25492W        W90653  16.987   3.918  11.143
25493W        W90654  41.249  30.920  13.972
25494W        W90655  13.160  34.245   4.108
25495W        W90656  13.230  25.126   1.668
25496W        W90657  42.928   1.280   0.467
25497W        W90658  37.126  40.267  12.456
25498W        W90659  42.338  23.029   0.340
25499W        W90660  29.928   5.366  13.864
25500W        W90661   6.061   0.474  11.992
25501W        W90662  18.587  26.164  11.632
25502W        W90663   4.182  39.412  11.661
25503W        W90664  12.306   3.355   4.852
25504W        W90665  12.359  24.930   2.373
25505W        W90666  20.558  30.973  11.976
25506W        W90667   1.734  29.340  12.464
25507W        W90668  20.755  27.300  12.145
25508W        W90669  13.409   7.285   3.954
25509W        W90670  21.960  30.531  12.380
25510W        W90671   9.885  27.594  14.641
25511W        W90672  15.599  13.157   3.236
25512W        W90673  26.106  43.586  13.442
25513W        W90674   2.706  24.654   4.043
25514W        W90675  28.661  42.552   3.090
25515W        W90676  31.064  17.542   3.629
25516W        W90677  19.335  23.068   2.925
25517W        W90678  33.980  12.253   1.787
25518W        W90679  19.179  17.848   1.304
25519W        W90680  10.761  17.847  14.411
25520W        W90681   4.918  24.319   2.027
25521W        W90682  20.697   0.400   3.900
25522W        W90683  42.014  14.370   3.895
25523W        W90684  36.343  36.314   4.664
25524W        W90685  29.658  32.180  14.059
25525W        W90686   6.493  17.756   2.471
25526W        W90687  25.984   6.267   0.885
25527W        W90688  10.911  21.236  14.637
25528W        W90689  43.041  37.504   2.407
25529W        W90690  31.581  39.304   0.860
25530W        W90691  24.725  32.879   2.786
25531W        W90692  24.138  18.014   4.616
25532W        W90693  14.952  15.828   2.255
25533W        W90694  12.755  27.087   1.394
25534W        W90695  29.986   3.289   4.931
25535W        W90696   7.107  38.917  13.915
25536W        W90697   5.731  19.223  11.192
25537W        W90698   4.518  41.835   0.167
25538W        W90699  11.039  43.928  11.150
25539W        W90700   5.112  16.098   2.718
25540W        W90701  23.638  34.982  14.342
25541W        W90702  15.848   8.521  14.122
25542W        W90703   2.813  35.509   3.216
25543W        W90704  25.332  19.879  11.709
25544W        W90705  30.416  29.960  12.112
25545W        W90706   5.292  25.574   0.748
25546W        W90707  18.013   8.152   0.750
25547W        W90708  27.168  36.842  13.789
25548W        W90709   6.257  23.468  11.964
25549W        W90710  15.657  20.091  11.568
25550W        W90711  36.103  24.707  12.372
25551W        W90712  29.089  33.257  13.108
25552W        W90713  24.801  11.847  14.592
25553W        W90714  29.588  17.119   4.594
25554W        W90715  42.731  28.008   1.784
25555W        W90716  27.737  20.586   1.728
25556W        W90717  12.232  33.950  14.117
25557W        W90718  27.646  20.499  12.755
25558W        W90719  18.783  12.883   3.714
25559W        W90720   5.228  33.081  12.953
25560W        W90721  41.006  29.090  12.097
25561W        W90722  19.851  26.425   1.764
25562W        W90723  34.827  31.479   3.345
25563W        W90724  11.276  20.497   1.779
25564W        W90725   4.327  29.684  14.960
25565W        W90726   0.997  31.111   3.671
25566W        W90727   6.671   2.471  13.593
25567W        W90728  17.611   4.766   0.277
25568W        W90729  15.466   3.971  11.502
25569W        W90730  38.543  19.220  12.129
25570W        W90731  35.888   2.960   0.944
25571W        W90732  41.466  36.848   4.220
25572W        W90733   4.252  40.627   1.986
25573W        W90734  24.748   5.281  14.876
25574W        W90735   2.024  24.659  13.463
25575W        W90736  12.815  36.983  12.381
25576W        W90737   6.631  28.816  14.201
25577W        W90738   5.314  20.274  13.116
25578W        W90739  23.145  37.392   2.079
25579W        W90740   6.642  29.609  13.837
25580W        W90741  19.627   6.753  14.881
25581W        W90742  13.533  17.183   0.495
25582W        W90743   6.275  43.343  12.910
25583W        W90744  44.263  39.102  13.457
25584W        W90745  18.496  37.416   2.167
25585W        W90746   0.834   6.206  11.381
25586W        W90747  28.510  42.572  10.981
25587W        W90748  42.135  43.984  10.746
25588W        W90749   2.403  30.153   2.835
25589W        W90750  19.567  13.688  12.003
25590W        W90751   2.483  38.383   2.415
25591W        W90752  37.997  40.908  14.700
25592W        W90753  25.548  13.420  14.883
25593W        W90754  26.485  20.071  11.583
25594W        W90755  38.538  42.842  14.309
25595W        W90756   4.411  25.132  12.709
25596W        W90757  37.998  38.054   3.819
25597W        W90758  30.485  22.234  11.047
25598W        W90759  42.412  18.700  14.785
25599W        W90760  43.803  31.758   4.157
25600W        W90761  41.270  42.370  10.714
25601W        W90762  22.795  14.823  14.309
25602W        W90763   2.708   0.926   0.509
25603W        W90764  11.781  37.842  14.669
25604W        W90765  25.120  16.226   0.680
25605W        W90766  42.770   4.537   2.362
25606W        W90767   0.945  39.993   2.017
25607W        W90768  35.997  10.616  10.787
25608W        W90769  42.418   9.114   3.659
25609W        W90770  26.969   5.450  14.024
25610W        W90771   6.833  34.188  11.925
25611W        W90772  16.711   7.442  10.403
25612W        W90773  19.183   7.881   0.250
25613W        W90774  42.790  20.945   3.725
25614W        W90775  30.545   5.417  13.139
25615W        W90776  42.824  29.175   2.620
25616W        W90777  44.829  20.204   1.404
25617W        W90778  28.143  33.534  12.891
25618W        W90779  44.848  21.647   3.659
25619W        W90780  13.760   2.669   3.270
25620W        W90781  10.256  17.906  12.820
25621W        W90782   2.007  16.355  12.440
25622W        W90783   0.557  12.202   0.433
25623W        W90784   1.532   7.159  11.504
25624W        W90785  10.932   9.853  10.929
25625W        W90786  27.457   1.454   4.198
25626W        W90787  39.929  27.830  14.118
25627W        W90788  11.907   3.758   4.255
25628W        W90789  19.998   1.775  14.357
25629W        W90790  41.239  19.132   4.922
25630W        W90791   3.524   9.185   1.509
25631W        W90792  17.667  37.430  12.425
25632W        W90793  17.922  19.582   0.374
25633W        W90794   3.843   3.910  11.820
25634W        W90795   9.987  30.409   3.187
25635W        W90796   6.123  27.765   4.128
25636W        W90797  20.169   2.500   4.455
25637W        W90798  35.348  44.836  11.688
25638W        W90799   3.252  17.307  11.065
25639W        W90800   8.605   9.257  13.967
25640W        W90801   4.720  35.851  11.591
25641W        W90802   3.774   8.755  13.117
25642W        W90803  15.578  40.565  14.678
25643W        W90804  29.625  25.600   0.317
25644W        W90805  33.933  42.916   2.731
25645W        W90806  30.374  10.821   2.184
25646W        W90807   8.508   7.233  11.590
25647W        W90808  10.803  10.948   3.706
25648W        W90809  42.275  19.635   4.112
25649W        W90810  40.498  24.066  10.297
25650W        W90811   7.199  43.328   3.319
25651W        W90812  23.854   4.986  14.818
25652W        W90813   0.903  44.031  11.158
25653W        W90814  10.375   3.178  10.419
25654W        W90815   2.550  11.714  12.483
25655W        W90816   8.453  21.366  13.979
25656W        W90817  13.668   0.330  14.962
25657W        W90818  33.899   0.513  13.865
25658W        W90819   7.280  31.470  10.930
25659W        W90820  42.242  32.553   3.249
25660W        W90821  21.033  43.942  13.163
25661W        W90822  30.364  15.939   2.561
25662W        W90823  31.724  28.657  12.426
25663W        W90824   7.819  31.644  11.020
25664W        W90825  27.788  40.898  12.620
25665W        W90826  21.050  26.043  12.569
25666W        W90827   1.471  22.016   3.690
25667W        W90828   4.905  37.085   2.319
25668W        W90829  34.856   0.183  13.031
25669W        W90830  21.058   5.533   2.937
25670W        W90831  32.932   0.703   3.078
25671W        W90832  19.180  39.977  11.458
25672W        W90833  36.700  25.025  10.620
25673W        W90834  30.977  26.263   0.230
25674W        W90835  18.528  27.860  14.299
25675W        W90836  20.546  34.662  11.959
25676W        W90837  13.340  44.624   5.182
25677W        W90838   1.095  14.105  14.461
25678W        W90839  29.795  23.271   1.484
25679W        W90840  30.249   2.404  11.181
25680W        W90841  23.123  35.977  14.070
25681W        W90842  34.059  27.870   1.632
25682W        W90843  40.086   9.791  14.812
25683W        W90844  35.450   9.386  12.253
25684W        W90845  14.098  16.847  14.890
25685W        W90846   3.278  27.767   3.282
25686W        W90847  25.192   6.863   0.702
25687W        W90848  33.337  30.457  14.199
25688W        W90849   5.291  26.311   1.286
25689W        W90850  39.417  26.756  11.411
25690W        W90851   3.780  11.760   2.147
25691W        W90852  37.946  43.192   4.209
25692W        W90853  34.894  42.423   5.148
25693W        W90854   9.390  34.381  12.753
25694W        W90855   3.272  40.428  10.605
25695W        W90856  44.280  37.045   0.836
25696W        W90857  12.105  24.756  13.295
25697W        W90858   9.211  25.472  14.427
25698W        W90859  15.103  33.860   4.531
25699W        W90860  35.599  40.423  13.321
25700W        W90861  20.841   0.799   2.128
25701W        W90862  26.027   8.381  13.401
25702W        W90863  31.164  40.054   0.896
25703W        W90864  13.230  20.196   2.740
25704W        W90865  40.346  25.623   0.881
25705W        W90866   6.829   0.765   4.824
25706W        W90867   5.182  43.371   1.413
25707W        W90868  37.892  37.512  14.794
25708W        W90869  39.586  43.193   2.670
25709W        W90870  22.599  43.387  10.907
25710W        W90871  22.247   7.825  12.912
25711W        W90872  44.755   2.661  11.576
25712W        W90873  10.129  22.969   2.639
25713W        W90874  31.601  15.249   4.215
25714W        W90875  29.046  35.272  12.457
25715W        W90876  22.278  30.609   4.204
25716W        W90877  17.964  35.061   2.787
25717W        W90878  33.886   2.521  11.677
25718W        W90879  23.109   9.067  12.591
25719W        W90880  13.596  40.021  11.587
25720W        W90881  26.741  39.503   2.196
25721W        W90882   8.307  25.221  12.521
25722W        W90883  24.572  13.715  13.505
25723W        W90884  23.416   0.225  11.850
25724W        W90885  37.873  22.604   3.621
25725W        W90886   5.257  39.152  14.859
25726W        W90887  25.780  34.552  12.661
25727W        W90888   6.680   7.913  13.983
25728W        W90889   8.844  28.603  12.602
25729W        W90890  42.901  41.107  13.959
25730W        W90891  28.186   5.484  11.912
25731W        W90892  19.359   2.185   2.492
25732W        W90893  19.297  27.950   0.928
25733W        W90894  31.355   5.824  13.049
25734W        W90895  28.026   1.061   2.208
25735W        W90896  15.683   7.160  11.803
25736W        W90897  13.206   6.125  12.347
25737W        W90898  21.281  24.135  12.105
25738W        W90899  10.739  23.722  12.517
25739W        W90900  41.518  11.889  11.445
25740W        W90901  35.356  21.208  12.120
25741W        W90902   1.944  26.940   4.402
25742W        W90903  27.747  31.370  13.582
25743W        W90904  30.520  31.585  12.955
25744W        W90905  26.134   9.423   1.790
25745W        W90906   4.931   4.370  11.157
25746W        W90907   2.845  27.510   0.444
25747W        W90908   1.833  41.393   2.653
25748W        W90909  40.315  13.207  14.684
25749W        W90910  44.020  43.325  13.516
25750W        W90911  26.652  16.172  13.780
25751W        W90912  28.495   3.963   3.220
25752W        W90913  29.883  32.489   0.343
25753W        W90914   7.821  41.411   0.191
25754W        W90915  34.905  29.500   2.001
25755W        W90916   7.332   3.024  12.974
25756W        W90917  14.270  16.104   2.679
25757W        W90918  26.558   7.678   4.124
25758W        W90919  32.052  35.648  10.668
25759W        W90920  32.324  31.916   1.680
25760W        W90921   0.078  11.576  10.709
25761W        W90922  18.857  19.592  14.405
25762W        W90923   1.999  35.830   1.873
25763W        W90924  19.294  31.424   1.126
25764W        W90925  14.939  29.704  11.990
25765W        W90926  31.889  33.850   0.319
25766W        W90927   4.797  43.998  11.577
25767W        W90928  18.333  44.354   1.613
25768W        W90929  30.977   9.787   2.356
25769W        W90930  36.111  18.531   3.230
25770W        W90931  22.689  33.059   1.685
25771W        W90932  37.441   3.294  10.182
25772W        W90933  36.316  33.989  11.560
25773W        W90934  41.868   0.823  10.729
25774W        W90935  35.884  34.116  12.606
25775W        W90936  17.832  24.286  14.349
25776W        W90937   2.473  21.950  14.548
25777W        W90938   6.260  39.825  11.487
25778W        W90939   5.454  14.830  14.659
25779W        W90940  33.165  28.918   0.273
25780W        W90941   0.372  18.271  14.979
25781W        W90942  19.090   9.632   0.671
25782W        W90943  40.270  10.977  13.868
25783W        W90944  21.171  22.551  13.407
25784W        W90945  39.445  25.152  13.012
25785W        W90946  32.939  29.084   0.766
25786W        W90947   8.524   0.345  14.250
25787W        W90948  44.519  33.669  13.446
25788W        W90949  13.770   6.850  13.717
25789W        W90950  30.926  32.049  13.413
25790W        W90951  41.007   6.223   2.239
25791W        W90952  36.838  35.558   0.866
25792W        W90953  19.641   6.681   3.527
25793W        W90954  17.134  32.099  14.923
25794W        W90955  19.367   5.738   0.810
25795W        W90956   8.418  24.413  12.068
25796W        W90957  11.536  15.067   3.270
25797W        W90958  22.225  25.422  12.122
25798W        W90959   0.198   9.642  10.175
25799W        W90960   1.186  17.663   4.048
25800W        W90961  44.920  43.596  10.993
25801W        W90962  24.457  37.222  14.070
25802W        W90963  23.516  11.818   5.011
25803W        W90964  20.971  30.057  12.055
25804W        W90965  35.545  35.954   0.715
25805W        W90966  11.705  28.497  14.103
25806W        W90967  18.672  22.532   4.595
25807W        W90968   8.840  42.295   2.832
25808W        W90969  19.165  16.592  14.011
25809W        W90970  42.355  18.116  13.543
25810W        W90971  21.527  14.595  10.779
25811W        W90972  35.461  44.549  13.059
25812W        W90973   9.002  37.787   4.223
25813W        W90974  35.271  44.617  14.461
25814W        W90975  15.660  36.175   2.568
25815W        W90976  11.423  31.126   0.073
25816W        W90977  15.771  13.058   0.753
25817W        W90978  29.331  36.039   3.779
25818W        W90979  39.915   9.134  13.007
25819W        W90980  26.535  21.995  10.859
25820W        W90981   3.981  17.303   0.322
25821W        W90982  34.259  27.812  12.474
25822W        W90983   7.363  44.199   2.877
25823W        W90984  22.227  39.959   0.972
25824W        W90985  42.620  20.324   1.784
25825W        W90986  13.564  33.549  11.461
25826W        W90987  37.396   3.258   4.860
25827W        W90988  32.939  18.150  13.156
25828W        W90989   6.147  25.444   2.881
25829W        W90990   5.883  13.059  11.641
25830W        W90991  26.645  14.835   0.057
25831W        W90992  10.335  16.156   2.832
25832W        W90993  13.099  27.162  14.496
25833W        W90994  27.040  16.493  13.011
25834W        W90995  21.722  18.773   2.235
25835W        W90996  27.657  25.635   4.502
25836W        W90997  41.886  36.004  13.960
25837W        W90998  37.057  40.860   0.033
25838W        W90999  18.742   9.874  11.364
25839W        W91000  28.619  40.301  10.247
25840W        W91001  16.519  18.887   3.700
25841W        W91002  37.468   5.603   1.038
25842W        W91003  31.104  11.070   4.709
25843W        W91004  14.062   4.272   4.042
25844W        W91005  13.885   2.868   1.432
25845W        W91006  40.937  42.669  12.371
25846W        W91007  19.718  21.482   2.302
25847W        W91008  44.942  22.061  14.055
25848W        W91009  20.596   6.807   3.686
25849W        W91010  24.007  15.631  10.186
25850W        W91011   4.322  16.711   4.707
25851W        W91012  11.664   1.340   1.739
25852W        W91013   5.917  30.974  12.771
25853W        W91014   4.129   6.095  11.524
25854W        W91015  22.194  33.666   1.727
25855W        W91016  32.831   8.353  14.359
25856W        W91017  31.781   6.212  10.659
25857W        W91018   4.838  24.484   3.259
25858W        W91019   4.419  18.581  14.513
25859W        W91020  16.778  32.395  14.628
25860W        W91021  10.290  25.318   3.713
25861W        W91022  11.331  33.112  11.531
25862W        W91023   3.972  41.200  12.814
25863W        W91024  10.685  28.628  14.403
25864W        W91025  26.282   6.019  11.415
25865W        W91026  27.230  22.596   2.483
25866W        W91027  23.319  20.563   0.385
25867W        W91028  11.240  26.830   3.813
25868W        W91029  36.155  41.079  10.796
25869W        W91030  26.692  13.080  14.549
25870W        W91031  41.341  23.505   1.159
25871W        W91032  30.244  30.642   2.695
25872W        W91033  28.424  35.291   3.508
25873W        W91034  22.304  22.616  12.087
25874W        W91035  38.328  11.339  13.249
25875W        W91036   9.324  30.347  13.863
25876W        W91037   6.258  40.794   2.864
25877W        W91038  27.752  32.933   4.744
25878W        W91039  43.912  31.901  11.097
25879W        W91040  25.632  27.798  12.177
25880W        W91041  44.671  40.951   2.361
25881W        W91042  36.741  10.846  14.926
25882W        W91043   4.270  43.202   3.395
25883W        W91044   5.751  41.343   2.347
25884W        W91045   4.680  22.089   3.654
25885W        W91046   2.674  33.493   3.239
25886W        W91047   2.523  41.182  13.045
25887W        W91048  36.724  28.073   3.868
25888W        W91049   4.591   6.401   0.299
25889W        W91050  39.456  36.430  12.118
25890W        W91051  14.230  25.618  12.199
25891W        W91052  24.472  17.274   1.630
25892W        W91053  44.348  21.615  10.068
25893W        W91054  31.467  19.974   2.137
25894W        W91055   1.618  32.571   3.339
25895W        W91056  26.159  11.779   0.822
25896W        W91057  14.694  11.882  13.487
25897W        W91058   5.252  21.759   0.909
25898W        W91059  35.549   7.095   4.286
25899W        W91060  41.916  27.725   4.204
25900W        W91061  33.064  23.489  12.977
25901W        W91062  22.571  18.001   3.746
25902W        W91063  16.098  32.316   1.660
25903W        W91064   9.137   9.169  12.589
25904W        W91065  21.694   9.041  14.251
25905W        W91066  40.074  18.627   2.550
25906W        W91067   1.609  43.233  12.524
25907W        W91068  40.594  41.333   1.343
25908W        W91069  19.025   9.831   3.656
25909W        W91070  37.839  40.897  10.103
25910W        W91071  15.369  21.552   4.301
25911W        W91072   1.910  21.573   4.796
25912W        W91073  28.534  36.884   4.578
25913W        W91074   0.756  12.453   1.341
25914W        W91075   7.438  33.186  11.616
25915W        W91076  26.934  13.228   4.541
25916W        W91077  22.181  11.649  10.980
25917W        W91078  25.260  41.103  13.420
25918W        W91079   9.695  16.462   1.936
25919W        W91080  29.384  43.006   3.546
25920W        W91081  16.810  42.416   4.960
25921W        W91082  19.738  25.733   0.490
25922W        W91083  33.489  40.896  10.601
25923W        W91084  35.406   0.411  10.828
25924W        W91085  10.780  38.953   3.907
25925W        W91086  31.091  35.875  13.352
25926W        W91087  28.650  11.441  10.872
25927W        W91088  24.501  24.683   2.266
25928W        W91089  19.291  20.306   4.594
25929W        W91090  41.549   0.192   4.534
25930W        W91091  29.151  44.219  12.915
25931W        W91092  26.812  38.616   1.374
25932W        W91093   3.018   6.631  11.059
25933W        W91094  24.791  15.141   9.949
25934W        W91095  14.608  18.791  10.593
25935W        W91096   0.874   8.593  13.971
25936W        W91097   5.244  24.956  11.172
25937W        W91098  10.886  30.471  12.551
25938W        W91099  36.388  29.159   4.743
25939W        W91100  27.547  42.756   0.870
25940W        W91101  27.746  30.032   2.395
25941W        W91102  16.770  12.162  14.095
25942W        W91103   4.399  43.483   1.745
25943W        W91104  26.945   4.653  12.134
25944W        W91105  21.595  12.381  11.035
25945W        W91106  40.957  25.633   1.690
25946W        W91107  26.110  21.001   1.225
25947W        W91108   7.238   8.586  14.207
25948W        W91109  36.844  14.096  14.764
25949W        W91110  44.278  34.643  13.427
25950W        W91111  42.932  21.638  13.506
25951W        W91112  28.032  32.877  11.183
25952W        W91113   0.322  42.819   1.791
25953W        W91114   3.422  34.652  11.175
25954W        W91115  14.090  19.204  10.619
25955W        W91116  29.523   3.251   3.652
25956W        W91117  31.957  35.604  14.339
25957W        W91118  20.687  18.850   1.146
25958W        W91119  40.646  15.151  13.560
25959W        W91120   2.954   3.042   1.159
25960W        W91121   8.791  15.129  12.577
25961W        W91122  37.995  11.873  11.208
25962W        W91123  38.469  43.957  12.437
25963W        W91124   9.674  12.939  12.166
25964W        W91125   9.894   8.239  14.776
25965W        W91126   1.061  17.194   3.160
25966W        W91127  29.517   3.775   4.354
25967W        W91128  43.920  20.055  11.181
25968W        W91129  35.623  20.638   2.740
25969W        W91130   2.202   5.933  11.554
25970W        W91131  18.251  19.162   3.215
25971W        W91132  19.213   1.305   2.375
25972W        W91133  10.210  36.392   3.893
25973W        W91134  19.471  31.937  12.549
25974W        W91135  32.365  33.282   4.981
25975W        W91136  21.790  34.307   1.398
25976W        W91137  43.542  13.886   2.790
25977W        W91138   8.289  43.010   1.699
25978W        W91139  29.440  15.224   3.548
25979W        W91140  28.629   3.567  10.694
25980W        W91141   1.292   2.251  12.601
25981W        W91142   0.023  23.319   2.395
25982W        W91143  16.369   2.228  11.570
25983W        W91144  13.737  15.517  10.079
25984W        W91145  31.616  18.888   2.178
25985W        W91146  20.353   9.063  13.993
25986W        W91147  10.354  28.946   2.315
25987W        W91148  12.296  25.694  13.588
25988W        W91149   4.784  13.191   2.085
25989W        W91150   6.888  39.050  14.352
25990W        W91151   6.578  27.996   1.703
25991W        W91152  12.721  31.132   2.743
25992W        W91153  34.965  37.062   1.422
25993W        W91154  19.454   9.908   2.147
25994W        W91155  39.479  34.821  11.217
25995W        W91156  33.760  22.468  10.534
25996W        W91157  15.804  12.363   2.770
25997W        W91158   7.464  18.723   3.661
25998W        W91159  39.364   6.820   1.369
25999W        W91160  23.594   7.091   3.736
26000W        W91161  18.330  35.815   2.290
26001W        W91162  35.357  15.404  11.317
26002W        W91163  27.418  27.579   0.269
26003W        W91164  15.974  37.308  14.541
26004W        W91165  33.837   0.093  10.636
26005W        W91166  17.615  18.369  14.791
26006W        W91167  36.123   5.659   0.900
26007W        W91168  36.559  38.963   0.966
26008W        W91169  33.800  33.662   3.767
26009W        W91170  12.348  42.550   1.836
26010W        W91171  22.275   0.778  14.312
26011W        W91172  21.246  10.558  11.093
26012W        W91173   0.857  31.572   3.911
26013W        W91174  28.174  13.800   0.262
26014W        W91175   3.013   3.385   0.751
26015W        W91176  13.748  12.340   2.649
26016W        W91177  14.663   1.808  13.478
26017W        W91178  39.939  11.983   3.998
26018W        W91179  22.454  27.473  10.597
26019W        W91180  17.241  22.660  13.954
26020W        W91181   1.534  19.276   4.106
26021W        W91182  31.838  34.374  11.131
26022W        W91183  13.000  16.540   1.987
26023W        W91184  11.124  30.184   3.683
26024W        W91185   3.870  26.471   0.227
26025W        W91186   8.846  35.201   3.189
26026W        W91187  30.025   4.911   4.366
26027W        W91188  14.691  20.587  12.990
26028W        W91189   9.911  29.968   0.189
26029W        W91190  22.207  12.966   1.662
26030W        W91191  33.975  24.227   1.826
26031W        W91192  24.259  14.324  14.347
26032W        W91193  24.973  33.408   4.703
26033W        W91194   0.489  23.135  12.909
26034W        W91195   8.305  34.031   2.690
26035W        W91196  22.063  18.149   3.708
26036W        W91197   4.235  37.557   4.678
26037W        W91198  39.401  41.786   3.212
26038W        W91199  38.862   7.600   2.204
26039W        W91200  37.624  12.294  14.005
26040W        W91201  20.267  13.208  13.519
26041W        W91202  20.183  24.241   3.105
26042W        W91203  22.887   4.204   0.304
26043W        W91204  33.396  30.563  13.243
26044W        W91205  12.303  15.262  14.512
26045W        W91206  43.600   6.996  12.954
26046W        W91207  28.539  25.226   4.065
26047W        W91208   7.375   8.793  12.256
26048W        W91209  26.517  33.779   0.952
26049W        W91210  24.157  15.957   3.219
26050W        W91211  34.967   1.943   1.486
26051W        W91212  44.921   7.601   3.346
26052W        W91213  36.609  34.627   3.749
26053W        W91214   8.528  41.502   0.805
26054W        W91215  34.844  21.933  14.362
26055W        W91216   0.584  27.620  13.127
26056W        W91217  21.994  12.903   5.114
26057W        W91218  28.191  27.334   3.902
26058W        W91219  27.032  43.815   2.573
26059W        W91220  20.201  38.845  13.482
26060W        W91221  40.030  16.731  12.976
26061W        W91222  41.187  10.385  11.564
26062W        W91223  44.014   8.518   4.113
26063W        W91224   1.775  26.008   4.221
26064W        W91225  24.954  25.222   1.174
26065W        W91226  42.737   5.758  14.350
26066W        W91227   0.483  37.841  12.457
26067W        W91228  44.248  10.259  10.558
26068W        W91229   5.956  42.485  13.888
26069W        W91230  11.513   6.999  13.580
26070W        W91231  19.091  22.716   3.194
26071W        W91232  37.893  12.799  13.115
26072W        W91233   1.846  38.665   0.452
26073W        W91234  44.550  34.812   1.887
26074W        W91235  30.531  27.710   4.180
26075W        W91236  23.651   1.041   0.832
26076W        W91237   5.489  21.225   2.873
26077W        W91238  38.432  18.392  10.832
26078W        W91239  25.391  32.588   4.382
26079W        W91240   5.187  42.392  14.536
26080W        W91241  39.954  40.358  10.815
26081W        W91242  10.163  41.514  14.929
26082W        W91243  31.871  16.209   0.372
26083W        W91244  24.089  42.957   1.343
26084W        W91245  35.377   7.362  13.461
26085W        W91246  10.953  21.768   0.395
26086W        W91247  34.302  44.771   2.204
26087W        W91248  26.201  40.426   4.768
26088W        W91249  37.077  30.843   4.859
26089W        W91250  21.514  25.020  14.292
26090W        W91251   3.865  27.877   1.282
26091W        W91252  18.190  30.201   3.748
26092W        W91253  18.725  30.702   9.880
26093W        W91254   0.447  15.058  12.661
26094W        W91255   5.812   6.190  13.872
26095W        W91256  20.454  33.994   2.305
26096W        W91257  14.809  30.830  12.199
26097W        W91258  25.098  20.306  14.046
26098W        W91259  12.756  10.134   2.711
26099W        W91260  23.453  20.204   4.285
26100W        W91261   8.249  43.807   4.097
26101W        W91262   0.394  43.429  13.651
26102W        W91263   7.484  41.837  14.300
26103W        W91264  16.535  41.324  14.871
26104W        W91265  25.658  39.731   0.063
26105W        W91266  20.974  32.478  13.756
26106W        W91267  34.907  26.561   4.628
26107W        W91268  42.186  27.641   0.920
26108W        W91269   0.173   3.841   4.460
26109W        W91270  16.991  25.618  14.303
26110W        W91271  37.305  10.291   0.960
26111W        W91272  21.990  22.268  14.324
26112W        W91273   7.886  41.766  10.709
26113W        W91274  40.934  13.362   0.820
26114W        W91275  18.183  13.170   4.783
26115W        W91276  38.145  40.696  11.144
26116W        W91277  12.687  20.805   3.183
26117W        W91278  35.357  39.772  12.030
26118W        W91279  18.236   7.824  11.181
26119W        W91280  43.943  17.435   1.308
26120W        W91281  18.871   5.676   4.103
26121W        W91282  43.076  13.700  12.527
26122W        W91283   6.139  38.881   1.133
26123W        W91284   7.561  38.736   3.134
26124W        W91285  15.196  38.527   3.343
26125W        W91286  28.004   8.881   3.739
26126W        W91287  16.756   3.087  12.209
26127W        W91288  19.104   4.206  12.102
26128W        W91289  24.012  37.444  14.317
26129W        W91290   6.210  35.862  12.472
26130W        W91291   6.920  19.306   3.629
26131W        W91292   9.169   0.392   1.223
26132W        W91293   3.243  21.988  12.972
26133W        W91294  21.902  17.368  14.272
26134W        W91295  28.721   9.679   0.224
26135W        W91296  31.049  11.513   3.509
26136W        W91297  13.296  14.664   2.220
26137W        W91298  42.811  16.515   4.549
26138W        W91299  22.237  18.360  14.956
26139W        W91300  19.647  29.426   4.653
26140W        W91301   6.388  42.311   3.705
26141W        W91302  25.560  37.746  10.402
26142W        W91303  14.744  18.634  13.516
26143W        W91304   5.188  17.107   2.785
26144W        W91305  20.060  33.537   1.348
26145W        W91306  37.598  11.363  14.887
26146W        W91307  35.165  29.505   3.276
26147W        W91308  35.550  13.670   2.769
26148W        W91309  11.619   3.851   1.792
26149W        W91310  20.543  43.282   2.437
26150W        W91311   2.472  24.710   4.500
26151W        W91312  14.673   5.801   4.237
26152W        W91313  14.634  18.736  14.007
26153W        W91314  38.019  17.580   4.381
26154W        W91315  44.430  34.914  13.838
26155W        W91316  13.486  12.490  13.354
26156W        W91317   1.287  13.299  13.491
26157W        W91318   5.479  37.686   0.654
26158W        W91319  23.776  35.510  10.621
26159W        W91320   9.273   8.915  14.058
26160W        W91321  35.468  10.915  11.501
26161W        W91322  44.277  26.255   2.184
26162W        W91323  16.502   1.180  11.073
26163W        W91324  16.713  32.622   3.612
26164W        W91325  36.730   9.011  11.212
26165W        W91326  13.961   8.810   4.657
26166W        W91327  15.580  14.635   4.341
26167W        W91328  16.969   3.431   2.474
26168W        W91329  32.023  16.759  14.302
26169W        W91330  28.416   0.290  12.481
26170W        W91331  33.582   3.252   4.655
26171W        W91332  19.395  35.779   2.377
26172W        W91333   6.182  42.811  11.617
26173W        W91334  44.756  19.071   0.915
26174W        W91335   4.781  11.625   2.245
26175W        W91336   2.761  29.812   0.944
26176W        W91337   8.885   2.774   3.363
26177W        W91338  32.493  25.529   1.727
26178W        W91339  28.692  22.363  11.208
26179W        W91340  10.640  38.618   1.966
26180W        W91341  16.853   9.329  12.493
26181W        W91342  33.393  23.261  12.411
26182W        W91343   3.221  42.683   4.071
26183W        W91344  10.516   6.152   0.565
26184W        W91345   1.691  12.053   5.508
26185W        W91346  12.056  43.553   4.412
26186W        W91347  27.571  34.455   1.572
26187W        W91348  15.885  41.899   2.389
26188W        W91349  28.977   7.743  13.054
26189W        W91350  10.322   5.105   2.387
26190W        W91351  34.990  13.651  13.603
26191W        W91352  17.305  15.622   4.150
26192W        W91353  38.818  11.950   4.084
26193W        W91354  43.849  35.976  11.395
26194W        W91355  38.123  29.339   0.149
26195W        W91356  12.065  28.212   1.331
26196W        W91357  36.305  44.953  14.306
26197W        W91358   0.800  33.334   1.526
26198W        W91359  11.099  27.852   3.606
26199W        W91360  11.962  17.544  12.564
26200W        W91361  43.215   2.808  14.558
26201W        W91362   1.126  17.117   1.290
26202W        W91363   7.541  39.029   2.702
26203W        W91364   3.510  41.883   5.064
26204W        W91365  34.458  40.625   4.408
26205W        W91366   0.691  18.856  11.090
26206W        W91367  33.851  41.073   4.923
26207W        W91368  31.471  44.018   1.256
26208W        W91369  38.449  19.654   4.532
26209W        W91370  37.839  16.424   4.204
26210W        W91371   4.331  37.359   1.123
26211W        W91372  43.257  21.147  11.631
26212W        W91373  16.179  26.625   2.250
26213W        W91374  26.674  42.517   1.212
26214W        W91375  23.560   6.908  14.527
26215W        W91376  38.167  25.243   0.527
26216W        W91377  23.972  37.966   5.016
26217W        W91378  30.667  14.891   1.447
26218W        W91379  41.816  20.234  14.431
26219W        W91380  24.023  21.623   0.021
26220W        W91381   8.756   1.315  11.848
26221W        W91382  27.362  13.998  11.579
26222W        W91383  26.166  41.943  12.994
26223W        W91384  38.672  10.015  12.857
26224W        W91385   5.777  11.767  13.013
26225W        W91386  38.344  33.095   0.341
26226W        W91387  38.473  22.422   4.340
26227W        W91388  36.434   6.197   1.347
26228W        W91389  14.650  13.368   2.645
26229W        W91390  35.517  28.554   3.030
26230W        W91391   9.190  32.698  14.733
26231W        W91392  28.753   1.313   2.840
26232W        W91393  18.214  22.740   3.132
26233W        W91394  26.280  35.374   1.959
26234W        W91395  14.113  10.453   2.566
26235W        W91396   4.707  34.394  11.528
26236W        W91397  35.934  17.831   2.759
26237W        W91398  21.542   1.539   3.735
26238W        W91399  28.158  21.025  14.857
26239W        W91400   9.942   6.792   2.857
26240W        W91401  30.974  14.816   2.734
26241W        W91402   4.249  44.529   4.610
26242W        W91403  39.868   8.638  12.857
26243W        W91404  20.794  26.585   1.070
26244W        W91405  10.814   5.216   0.769
26245W        W91406  11.612   7.783  14.142
26246W        W91407  25.069  33.644  10.637
26247W        W91408  19.126  25.007  14.445
26248W        W91409  43.358   8.481  13.925
26249W        W91410  32.011  25.726   1.882
26250W        W91411  32.832   4.689  12.959
26251W        W91412  22.227   6.418   4.927
26252W        W91413  11.597   8.792  11.935
26253W        W91414  23.171   5.926  14.558
26254W        W91415  35.593  15.662   0.885
26255W        W91416  22.168  25.690  11.689
26256W        W91417  40.995  41.392  14.264
26257W        W91418  12.529  26.648  11.514
26258W        W91419  33.586   7.745   3.222
26259W        W91420  35.910  10.083  13.560
26260W        W91421   3.503  43.087  11.573
26261W        W91422  19.143  24.117  10.776
26262W        W91423  36.384  14.668   2.915
26263W        W91424  39.340  35.285  14.643
26264W        W91425  42.047  20.616  12.563
26265W        W91426  14.325  28.218  12.547
26266W        W91427  15.627  29.904  14.858
26267W        W91428  37.004  43.909  13.627
26268W        W91429  21.955  29.994  11.103
26269W        W91430  35.328   6.759   2.163
26270W        W91431  10.094  30.855  13.825
26271W        W91432  20.214   6.403   0.237
26272W        W91433  26.239  44.225  14.488
26273W        W91434  22.013  37.745  10.682
26274W        W91435  36.550  39.998   2.623
26275W        W91436   1.916  23.235  10.736
26276W        W91437  35.955  18.645   2.357
26277W        W91438  20.169  35.302   3.613
26278W        W91439   6.377  32.813  10.717
26279W        W91440  17.296  26.845   1.336
26280W        W91441  12.729   9.051   1.734
26281W        W91442  13.285  18.780  11.839
26282W        W91443  37.528  40.890   5.001
26283W        W91444  34.926  44.001  13.912
26284W        W91445  19.837   3.171  11.156
26285W        W91446   1.169  32.574  14.780
26286W        W91447  12.579  13.242  14.487
26287W        W91448  33.282  19.470   4.150
26288W        W91449   6.287   8.088  10.379
26289W        W91450  37.158  26.580   4.991
26290W        W91451  12.740  13.354  12.193
26291W        W91452  28.168   5.535   0.516
26292W        W91453  17.840  18.624  12.331
26293W        W91454  26.733  20.672  12.569
26294W        W91455  12.174  12.184   3.713
26295W        W91456   4.471  17.324   0.514
26296W        W91457  22.205  29.360  12.234
26297W        W91458  33.692  15.622  10.659
26298W        W91459  10.346   6.275  14.329
26299W        W91460  16.858  34.118   1.778
26300W        W91461  30.071   0.298   2.313
26301W        W91462  29.562  13.799  11.121
26302W        W91463  14.017  36.059  12.436
26303W        W91464  33.915  26.933   4.705
26304W        W91465  29.373  32.211  10.296
26305W        W91466  34.474  26.419   3.668
26306W        W91467  23.493  40.807   0.387
26307W        W91468   6.671  27.610  13.984
26308W        W91469  10.267  23.833  11.662
26309W        W91470  41.909  12.362  14.864
26310W        W91471   5.653  25.951   0.928
26311W        W91472  41.478   5.006   4.145
26312W        W91473  30.287  42.187   3.359
26313W        W91474  20.681  14.528  11.615
26314W        W91475  41.020   5.510  12.483
26315W        W91476   1.370  43.386   1.686
26316W        W91477   2.483  44.750   4.522
26317W        W91478  15.459  42.601   2.746
26318W        W91479  11.800  33.395  10.568
26319W        W91480  16.059  27.647  12.536
26320W        W91481  25.493  15.590  14.102
26321W        W91482  29.885  30.398  14.458
26322W        W91483  13.237  38.592  11.631
26323W        W91484  15.208  25.745  12.082
26324W        W91485  36.740   5.942   3.052
26325W        W91486  30.520  37.869   3.838
26326W        W91487  42.821   3.473   3.499
26327W        W91488  13.247  10.713   0.441
26328W        W91489  38.941  38.456   2.138
26329W        W91490  44.750   4.917   4.345
26330W        W91491  43.670  39.594  10.997
26331W        W91492  23.067  17.621  12.052
26332W        W91493   9.303  33.103  10.933
26333W        W91494   6.186   3.496   3.666
26334W        W91495  24.213  12.573   1.178
26335W        W91496   7.443  38.294   3.365
26336W        W91497  36.434  21.663   1.762
26337W        W91498  37.031   9.103   2.891
26338W        W91499  11.302  33.565  12.664
26339W        W91500  12.621  12.435  11.618
26340W        W91501  11.843  32.668   3.277
26341W        W91502  32.984  27.475   3.865
26342W        W91503  42.041   6.205  12.116
26343W        W91504  42.279  13.108  11.179
26344W        W91505  31.899  27.570  12.063
26345W        W91506   6.197  41.269  13.395
26346W        W91507  43.961   9.490  13.333
26347W        W91508  11.228  41.996  14.769
26348W        W91509   7.141   7.736  14.375
26349W        W91510   7.355   1.757   3.183
26350W        W91511  14.564  43.712  11.580
26351W        W91512  38.625  22.264  14.443
26352W        W91513  26.936  23.550  14.027
26353W        W91514  31.506  12.689   4.132
26354W        W91515  19.787   1.238   0.257
26355W        W91516   0.809  10.400   4.085
26356W        W91517  41.828  43.318   2.342
26357W        W91518  22.805  11.119   2.145
26358W        W91519   2.567   3.714   4.694
26359W        W91520  41.868  39.963   3.294
26360W        W91521  38.130  28.040   3.774
26361W        W91522  17.130  42.434  12.902
26362W        W91523  29.403   0.308   3.593
26363W        W91524  21.178  12.435  10.731
26364W        W91525  33.417   6.488  13.567
26365W        W91526   4.568   2.425   3.225
26366W        W91527  23.267   1.228   2.837
26367W        W91528  29.718   3.242  11.287
26368W        W91529  43.227  15.586   0.364
26369W        W91530  15.819  12.514  12.095
26370W        W91531   2.468  42.225   2.714
26371W        W91532  42.364  12.308   2.176
26372W        W91533  34.349  10.325  12.113
26373W        W91534   0.958  41.945   2.216
26374W        W91535  14.395  23.192  13.890
26375W        W91536   0.079  32.572   1.240
26376W        W91537  29.249  27.608  14.915
26377W        W91538   7.876  31.031   1.238
26378W        W91539  10.575  43.271  12.554
26379W        W91540  43.416   3.514  14.147
26380W        W91541  19.270  35.575  14.109
26381W        W91542  32.441  19.725   4.000
26382W        W91543  43.864  39.324  12.453
26383W        W91544  38.964  13.088  13.032
26384W        W91545  15.829  41.812  14.779
26385W        W91546  11.312  39.312   3.712
26386W        W91547  10.710  23.681  11.486
26387W        W91548  22.534  36.610   0.411
26388W        W91549  27.717  17.704   3.136
26389W        W91550  13.620  11.531   3.269
26390W        W91551  11.642  44.457  14.890
26391W        W91552  23.847  33.681  13.862
26392W        W91553  10.290  41.993   0.254
26393W        W91554  43.276  40.996   4.596
26394W        W91555  36.312  30.985   0.315
26395W        W91556   6.947  28.769  11.452
26396W        W91557  38.055   0.920  13.411
26397W        W91558  22.588  40.822  12.144
26398W        W91559  34.991  11.222  14.308
26399W        W91560  20.690  34.409   1.505
26400W        W91561  14.207  24.507   4.885
26401W        W91562  44.920  10.378  14.909
26402W        W91563  35.953  19.191  11.399
26403W        W91564  19.453  42.908  12.071
26404W        W91565  30.988  21.436   2.795
26405W        W91566  40.299  29.708   0.417
26406W        W91567  15.773  40.799  13.407
26407W        W91568  13.367  22.422   0.229
26408W        W91569  42.856  42.216   3.343
26409W        W91570  29.021  21.761  14.003
26410W        W91571  31.780  41.629  14.470
26411W        W91572   6.008  19.584   2.961
26412W        W91573  27.201  24.518  10.563
26413W        W91574  14.547  22.352   0.190
26414W        W91575  23.696  16.592   0.520
26415W        W91576   0.908   1.223   3.186
26416W        W91577  32.686   2.742  12.932
26417W        W91578   9.424   6.535  11.258
26418W        W91579  29.916  37.135  13.812
26419W        W91580  37.961  27.890  12.936
26420W        W91581  43.290  20.131  13.810
26421W        W91582  33.068  17.408  14.866
26422W        W91583   8.381  17.654   2.609
26423W        W91584  28.006  19.012  10.737
26424W        W91585  20.933   4.210  14.109
26425W        W91586  24.738   6.784   2.876
26426W        W91587  28.974  30.498  11.573
26427W        W91588  28.611   9.104  11.544
26428W        W91589  43.815  35.422   2.864
26429W        W91590  35.014  23.830  13.456
26430W        W91591   8.821  26.944   4.224
26431W        W91592   2.829  20.873  11.475
26432W        W91593  22.489  17.268  10.158
26433W        W91594  12.625  26.150  11.599
26434W        W91595  42.224   0.744   2.896
26435W        W91596  36.121  11.194  13.882
26436W        W91597  11.608  10.258   0.686
26437W        W91598  24.295  23.193   0.914
26438W        W91599  22.938  44.309  10.287
26439W        W91600  36.004  12.202   1.814
26440W        W91601  41.823  28.438  11.212
26441W        W91602  20.229   6.587   2.782
26442W        W91603   0.370  20.121   4.096
26443W        W91604   7.239   2.708   2.250
26444W        W91605   1.248  36.127  14.323
26445W        W91606  20.295  17.368  13.436
26446W        W91607  11.352  18.148  14.843
26447W        W91608  35.742  29.203   3.832
26448W        W91609   2.695  17.482   3.095
26449W        W91610   0.157  32.922   9.417
26450W        W91611  20.309   7.103   2.839
26451W        W91612  27.062   0.307   3.315
26452W        W91613  41.185   2.732  11.187
26453W        W91614  25.399   0.282  13.124
26454W        W91615  22.732  44.194   5.068
26455W        W91616  20.758  28.208  12.037
26456W        W91617   3.816  36.528   2.341
26457W        W91618  28.990  17.977   5.005
26458W        W91619  42.834   7.418  11.229
26459W        W91620  31.079  38.606   0.387
26460W        W91621  37.499  17.663  14.539
26461W        W91622  30.593   9.921   3.222
26462W        W91623  19.166  30.964  12.913
26463W        W91624  17.798   1.367  11.891
26464W        W91625   7.239  39.555   4.561
26465W        W91626   2.310  28.694  12.190
26466W        W91627  38.956   9.977   4.394
26467W        W91628  11.649  22.844   0.340
26468W        W91629  43.765  36.495  13.135
26469W        W91630   6.835  29.912   4.605
26470W        W91631  11.887   1.965   2.764
26471W        W91632  40.632  37.546   4.560
26472W        W91633  14.059  18.690   4.635
26473W        W91634  35.671  23.100  11.449
26474W        W91635   7.587  16.830   2.781
26475W        W91636  14.435   3.412   4.285
26476W        W91637  30.449  21.316   5.512
26477W        W91638  11.984  37.774   0.152
26478W        W91639   8.394  40.346   1.919
26479W        W91640  15.021   3.928   0.246
26480W        W91641  22.971  25.576  11.258
26481W        W91642  33.547  20.301   0.059
26482W        W91643  29.908  30.533  13.518
26483W        W91644  31.158  17.519   0.326
26484W        W91645   5.924  34.312   2.747
26485W        W91646  14.946   7.366   3.142
26486W        W91647  29.165  38.847   0.023
26487W        W91648   4.978  32.138  11.989
26488W        W91649  30.445  41.654   4.052
26489W        W91650  42.986  23.328  13.312
26490W        W91651  44.755  36.871   0.979
26491W        W91652   0.275  29.416  11.583
26492W        W91653  34.667   2.715  11.547
26493W        W91654  10.170  39.016  14.018
26494W        W91655   0.759  44.441  12.066
26495W        W91656  35.292  15.620   2.801
26496W        W91657   9.292  39.007   1.254
26497W        W91658  32.354  29.078  11.138
26498W        W91659  20.278  39.581  10.645
26499W        W91660  44.860  24.434  11.042
26500W        W91661  43.162   6.420   4.107
26501W        W91662  43.279  21.064   1.822
26502W        W91663  35.554  44.799  14.861
26503W        W91664  17.193  13.268  14.251
26504W        W91665  30.495  21.213  11.169
26505W        W91666  26.057  31.690   3.005
26506W        W91667   5.012  11.430  11.035
26507W        W91668   9.719  38.508  10.746
26508W        W91669   2.972  37.640   2.346
26509W        W91670  23.329  27.050  11.242
26510W        W91671  31.930  36.202   5.082
26511W        W91672  36.935  39.001  12.953
26512W        W91673  22.676  18.128  10.354
26513W        W91674  39.793  27.535   1.368
26514W        W91675  21.551  38.946  14.003
26515W        W91676  43.740  32.822   2.453
26516W        W91677   7.206  23.475  14.403
26517W        W91678   5.947  20.987   2.716
26518W        W91679  31.089  29.233  13.525
26519W        W91680  11.100  20.857   1.347
26520W        W91681   8.903   2.790  11.093
26521W        W91682  26.655  44.062   2.247
26522W        W91683  17.703  34.121   0.281
26523W        W91684  11.730  14.123  11.582
26524W        W91685  34.367  43.779   1.318
26525W        W91686  13.268  34.999   1.893
26526W        W91687  36.731  23.035  11.677
26527W        W91688  37.914  24.596  10.478
26528W        W91689  31.349  10.386   1.487
26529W        W91690  26.810  21.252  10.401
26530W        W91691   8.832  19.579   0.364
26531W        W91692   3.470  27.073   1.892
26532W        W91693  44.824  22.763  12.291
26533W        W91694  26.035   7.427  11.982
26534W        W91695  44.452  15.087   2.392
26535W        W91696  14.348   1.045  12.883
26536W        W91697  14.660   3.932   2.646
26537W        W91698  10.409  26.023   1.263
26538W        W91699   3.834  38.935   4.619
26539W        W91700  18.375   0.920  13.476
26540W        W91701  31.170  27.662  10.419
26541W        W91702  38.764  34.377   1.859
26542W        W91703  38.143   3.475  11.670
26543W        W91704  31.216  35.377   1.258
26544W        W91705  17.673   5.450   3.477
26545W        W91706  32.426  31.113   2.243
26546W        W91707   0.232  26.196  12.946
26547W        W91708  25.543  13.855   5.412
26548W        W91709  37.941   8.379  14.396
26549W        W91710  37.609  17.526   3.569
26550W        W91711  43.940  38.926   1.227
26551W        W91712  18.611  37.735   4.520
26552W        W91713  41.826  20.681  14.682
26553W        W91714   9.408  20.722  11.219
26554W        W91715   1.959  38.976   2.835
26555W        W91716  18.208   1.258   2.978
26556W        W91717  36.626  22.016   2.238
26557W        W91718  19.654  44.026  13.022
26558W        W91719  14.324  31.053  14.129
26559W        W91720   5.193  25.772  14.787
26560W        W91721  24.301  43.682  14.453
26561W        W91722  14.063  34.946  13.817
26562W        W91723  11.004   6.403  11.120
26563W        W91724   2.735   7.250   2.658
26564W        W91725  16.648  35.949   0.885
26565W        W91726  34.674   7.401   4.355
26566W        W91727   4.851  35.007   3.137
26567W        W91728  41.790  10.936   0.818
26568W        W91729  38.423  36.847   4.013
26569W        W91730  29.929  15.742   2.814
26570W        W91731   3.410  17.543  13.075
26571W        W91732  41.073  25.100   1.821
26572W        W91733  17.504   4.040  14.514
26573W        W91734  15.254   9.441  10.774
26574W        W91735   6.108   9.707  11.523
26575W        W91736  12.322  26.033   0.911
26576W        W91737  25.193  24.617  12.801
26577W        W91738  23.151  30.444  13.394
26578W        W91739  20.642  21.869   4.628
26579W        W91740  16.031  36.540   3.771
26580W        W91741   6.208  29.224   2.216
26581W        W91742  27.716  32.896   0.476
26582W        W91743   9.728  17.125  14.338
26583W        W91744   8.195   3.342  14.451
26584W        W91745  15.622  29.951  14.291
26585W        W91746  35.977  32.911  14.336
26586W        W91747  41.397   3.848  14.309
26587W        W91748   1.804   9.721   4.615
26588W        W91749   4.868  34.144  14.349
26589W        W91750  39.166  35.619  13.704
26590W        W91751   5.196  29.571   4.207
26591W        W91752  42.980  19.973   1.263
26592W        W91753  31.492  37.001   4.597
26593W        W91754  13.915  19.912  12.956
26594W        W91755  21.295  15.238  14.193
26595W        W91756   1.079  26.302  12.379
26596W        W91757  31.521  31.154   3.758
26597W        W91758  24.956  30.148  13.859
26598W        W91759   9.709  22.312  13.492
26599W        W91760   7.656  16.592  11.158
26600W        W91761  25.481  28.476   1.702
26601W        W91762  30.105  31.423  14.403
26602W        W91763  29.486   5.702  13.356
26603W        W91764  13.681  12.758  14.268
26604W        W91765  37.669  23.809  13.486
26605W        W91766   6.870   7.892   4.652
26606W        W91767  31.027  43.075   4.986
26607W        W91768  33.610  33.463  14.466
26608W        W91769  22.089   4.462   0.777
26609W        W91770  37.959   8.820   0.080
26610W        W91771  44.050  20.594   4.080
26611W        W91772  39.414  23.565  14.255
26612W        W91773  15.787  14.071   0.986
26613W        W91774  10.644  19.232   1.849
26614W        W91775  26.168   4.132  12.311
26615W        W91776   0.101  33.174   2.412
26616W        W91777  32.420  15.320   0.209
26617W        W91778  35.431  34.118  13.366
26618W        W91779  40.463   1.652  14.267
26619W        W91780  19.220  27.225  11.190
26620W        W91781  15.165  26.045   4.435
26621W        W91782  24.603  42.887   1.387
26622W        W91783   3.001  38.197   3.226
26623W        W91784  24.671  33.616   0.257
26624W        W91785  11.422  44.698  12.016
26625W        W91786   8.134  42.733   2.120
26626W        W91787  40.712   2.938  12.481
26627W        W91788  24.044  36.906  14.008
26628W        W91789   5.404   2.939   1.740
26629W        W91790   9.374  20.765   4.380
26630W        W91791  24.768  30.617  10.562
26631W        W91792  27.497  12.888   1.635
26632W        W91793   3.866   7.450  14.084
26633W        W91794   8.927  28.641   3.748
26634W        W91795   8.119   4.259  11.538
26635W        W91796  20.141  25.536   0.213
26636W        W91797  21.952  29.953   1.138
26637W        W91798  17.597   9.861   0.710
26638W        W91799  24.772  22.936   3.677
26639W        W91800  12.191  28.385  13.817
26640W        W91801   9.972  10.159   3.734
26641W        W91802   1.710  26.670   2.446
26642W        W91803  39.707  29.477  14.893
26643W        W91804  25.424  31.654   3.891
26644W        W91805  40.649   4.597   5.154
26645W        W91806  15.680  24.309  10.490
26646W        W91807  21.731  36.291  10.660
26647W        W91808  16.273  42.488   5.030
26648W        W91809   2.592  37.527  13.921
26649W        W91810  12.642  41.923   3.131
26650W        W91811   0.068  31.154  12.119
26651W        W91812  44.911  10.878   5.523
26652W        W91813  39.015   9.815  10.440
26653W        W91814   9.889  42.112  12.975
26654W        W91815  34.307  32.021   5.016
26655W        W91816  32.054  10.264   2.538
26656W        W91817  17.716  19.101   0.311
26657W        W91818  37.975  41.401   0.861
26658W        W91819  23.085  32.261  11.402
26659W        W91820  40.943  43.680  12.139
26660W        W91821   7.459   3.712   3.094
26661W        W91822  14.289  18.240  12.170
26662W        W91823  29.689  14.586   4.281
26663W        W91824  38.949   6.310  13.352
26664W        W91825  33.031   2.765  14.933
26665W        W91826  22.896  35.208   0.763
26666W        W91827  31.361  25.653   4.940
26667W        W91828   6.852  24.404   1.774
26668W        W91829  32.138   7.908  11.002
26669W        W91830   8.345  10.378   0.499
26670W        W91831  10.516  14.810  11.954
26671W        W91832  20.789   9.248   0.888
26672W        W91833  34.102   5.368  14.005
26673W        W91834  30.902  11.670  11.389
26674W        W91835  20.786  36.508   4.473
26675W        W91836  30.551  10.922   0.608
26676W        W91837  35.399  25.066   4.521
26677W        W91838  17.038  23.629  13.969
26678W        W91839  32.443   1.937   1.016
26679W        W91840  27.537   7.362  14.964
26680W        W91841  21.692   6.618  12.440
26681W        W91842  20.091  42.653   9.875
26682W        W91843  18.904  30.029   2.717
26683W        W91844  31.523  11.117  14.003
26684W        W91845  13.114  29.042  10.476
26685W        W91846   1.561  39.281  13.925
26686W        W91847   0.256  41.621   0.281
26687W        W91848   2.813  17.115   3.642
26688W        W91849  11.688  38.761  14.947
26689W        W91850  25.532  27.480  14.822
26690W        W91851  31.328  24.407  14.522
26691W        W91852  16.784   8.677  11.708
26692W        W91853  20.848  24.623   3.726
26693W        W91854  24.769  41.126   3.945
26694W        W91855  11.682  10.385   2.242
26695W        W91856  30.603  29.172  14.453
26696W        W91857  32.314  19.572  12.459
26697W        W91858   7.481   0.373  13.657
26698W        W91859  36.301  31.158  12.637
26699W        W91860  11.196  32.300   0.884
26700W        W91861   8.307   0.004   3.521
26701W        W91862   4.045  31.949  13.933
26702W        W91863  22.260  16.625  10.437
26703W        W91864   4.579  36.720  12.457
26704W        W91865   8.410  35.373  12.851
26705W        W91866  27.820  38.148  11.653
26706W        W91867   0.700  26.519   3.281
26707W        W91868  24.225  35.490  10.353
26708W        W91869   0.768   1.237  13.615
26709W        W91870  34.823   6.932   3.796
26710W        W91871  20.728  32.853   3.463
26711W        W91872  33.953  10.969  14.899
26712W        W91873  44.504  15.547  13.522
26713W        W91874  33.151  29.834   0.245
26714W        W91875  28.412   5.131   1.342
26715W        W91876  12.244  16.617  12.624
26716W        W91877  44.945  20.603  11.453
26717W        W91878  20.093   8.170  11.202
26718W        W91879  41.287  32.218  10.712
26719W        W91880   5.711  39.915   4.279
26720W        W91881  23.673  25.467   0.935
26721W        W91882   8.856  21.282   4.658
26722W        W91883   5.370   7.792  13.511
26723W        W91884   4.396   7.699   2.778
26724W        W91885  32.807  43.016   9.779
26725W        W91886   2.255  29.335  12.442
26726W        W91887  21.463  15.669  12.168
26727W        W91888  38.475  37.758   1.758
26728W        W91889  27.896  22.274  11.588
26729W        W91890   8.269  32.107  11.710
26730W        W91891  35.767  42.409  14.864
26731W        W91892  39.382   4.550   0.312
26732W        W91893  13.087  37.988   0.997
26733W        W91894  38.252  37.387   0.823
26734W        W91895  13.879  32.160  12.426
26735W        W91896   7.526  17.086   1.222
26736W        W91897   6.654  41.430  12.038
26737W        W91898  36.547  11.675   2.348
26738W        W91899  38.401   6.710   3.329
26739W        W91900   5.421  22.084   0.530
26740W        W91901  42.306  32.996   1.510
26741W        W91902  36.823   1.659  14.051
26742W        W91903   9.253  21.524   1.978
26743W        W91904  30.326  20.797   1.266
26744W        W91905  19.169   5.767  13.144
26745W        W91906  32.421  26.123  11.721
26746W        W91907  20.055   1.435  14.757
26747W        W91908   5.831  20.750  10.426
26748W        W91909  13.613  42.335   2.778
26749W        W91910  33.129   2.453  11.225
26750W        W91911   1.386  16.841  14.831
26751W        W91912  14.581  22.978   1.882
26752W        W91913  30.641  28.735  13.020
26753W        W91914  25.776  36.658   1.226
26754W        W91915  27.008  35.766  13.381
26755W        W91916  21.011  10.645   2.786
26756W        W91917   9.944  11.884  14.018
26757W        W91918   1.439  21.661  13.389
26758W        W91919  39.431  32.408  11.344
26759W        W91920  27.485   3.879   2.213
26760W        W91921  42.267  36.121  11.494
26761W        W91922   2.481   9.727   4.072
26762W        W91923  13.906  16.289   2.990
26763W        W91924  28.007  40.509  12.864
26764W        W91925   7.967   4.964  14.775
26765W        W91926   5.283  19.615  11.416
26766W        W91927  43.548  18.653  13.020
26767W        W91928  42.147   6.398   2.876
26768W        W91929   3.311  30.927   0.276
26769W        W91930  42.457   5.732  12.715
26770W        W91931  34.264  26.572  13.383
26771W        W91932  40.684   8.289  11.119
26772W        W91933   2.114  11.905   1.639
26773W        W91934  36.164  25.892   4.038
26774W        W91935  20.613   8.209   1.918
26775W        W91936  20.478   8.396   1.437
26776W        W91937  36.099   1.249  11.592
26777W        W91938   2.442  23.066  12.357
26778W        W91939  34.118  36.060   1.851
26779W        W91940  19.312   1.750  11.388
26780W        W91941  13.074   8.372   3.843
26781W        W91942  10.752  31.209  14.023
26782W        W91943  22.462  33.204  12.074
26783W        W91944  30.661  29.503   2.656
26784W        W91945  23.361  35.559  14.911
26785W        W91946   2.699  11.576   0.811
26786W        W91947  18.233  40.878  10.487
26787W        W91948  20.569   9.893   3.244
26788W        W91949  12.187  23.172   1.805
26789W        W91950  17.026  38.823  12.993
26790W        W91951  32.020  40.322   2.857
26791W        W91952  40.989  23.772  11.140
26792W        W91953  40.090   1.393  14.547
26793W        W91954  20.616   8.772  14.327
26794W        W91955  36.097  23.016  11.189
26795W        W91956  35.640  20.706   0.385
26796W        W91957  31.047  33.720   5.105
26797W        W91958  31.827   3.313   3.158
26798W        W91959  22.320  40.643   0.369
26799W        W91960  30.651   3.253  12.067
26800W        W91961  16.300  14.780   1.905
26801W        W91962  23.911  39.815   0.793
26802W        W91963   1.188   3.526  14.301
26803W        W91964  21.608  11.655  12.129
26804W        W91965  41.859  29.095   1.273
26805W        W91966  33.557  27.919  12.604
26806W        W91967  33.409  44.337  11.610
26807W        W91968   7.038  28.993  12.490
26808W        W91969   4.907  29.501  13.044
26809W        W91970   3.901  17.734   3.737
26810W        W91971  38.954  40.674   4.993
26811W        W91972  29.448  36.029   0.308
26812W        W91973  25.737  16.812   4.842
26813W        W91974  43.772  43.335   1.289
26814W        W91975  15.059  28.107   4.532
26815W        W91976  26.667  21.024   3.019
26816W        W91977  14.408  33.834  11.101
26817W        W91978  16.146  43.824  14.893
26818W        W91979  37.237  14.753   5.245
26819W        W91980  20.101  31.972  14.964
26820W        W91981  24.548   9.218  13.907
26821W        W91982  44.131  39.887  14.685
26822W        W91983   2.050  10.822   5.512
26823W        W91984  30.979  25.432  10.886
26824W        W91985  19.051  36.457   1.385
26825W        W91986  41.511  31.445  11.047
26826W        W91987  44.554  33.883   1.214
26827W        W91988  15.108  20.443   3.717
26828W        W91989   1.278   9.880  14.314
26829W        W91990  32.503   8.109   0.889
26830W        W91991  23.416  32.155   0.001
26831W        W91992   4.743  10.261   3.175
26832W        W91993  35.881  31.049  14.978
26833W        W91994  25.458   6.789   3.653
26834W        W91995  36.898  22.123  11.751
26835W        W91996  44.417  24.461   2.639
26836W        W91997  37.610  43.246   3.841
26837W        W91998  35.019  27.603  14.034
26838W        W91999   6.195  40.369  14.427
26839W        W92000  22.115  20.605   4.916
26840W        W92001  34.408  17.760   0.828
26841W        W92002  19.968  40.842  14.344
26842W        W92003  44.280  33.842  13.869
26843W        W92004  25.412  35.835  11.009
26844W        W92005  12.736  40.605   3.016
26845W        W92006  44.035  27.946  12.549
26846W        W92007  41.727  42.877  12.159
26847W        W92008  27.441  29.481  14.369
26848W        W92009  25.234  44.697  11.618
26849W        W92010  13.846  43.381  13.320
26850W        W92011  20.447  42.256   4.025
26851W        W92012   9.873  32.582  10.411
26852W        W92013  19.540  26.063   0.850
26853W        W92014  44.463  36.395   1.619
26854W        W92015  10.727  10.660   3.284
26855W        W92016  31.940  37.413  11.191
26856W        W92017   1.116  26.197  11.888
26857W        W92018  30.929   8.236  14.297
26858W        W92019  25.642  20.432  10.425
26859W        W92020   9.185   8.376  14.027
26860W        W92021  38.455  34.158  12.583
26861W        W92022  28.971  34.304   1.428
26862W        W92023  22.593  17.977   2.337
26863W        W92024   3.253  33.104  13.977
26864W        W92025  25.465   5.496  11.280
26865W        W92026  14.106   4.376  11.858
26866W        W92027  37.026  27.759  14.933
26867W        W92028  41.999  26.104   1.281
26868W        W92029  32.506  39.069  12.159
26869W        W92030  35.655  33.249  14.077
26870W        W92031  36.134  42.954  13.015
26871W        W92032  14.779   9.126  14.132
26872W        W92033  15.554  21.255  13.292
26873W        W92034   7.958  17.048  10.444
26874W        W92035  12.145  34.233  10.709
26875W        W92036  15.970   3.206   3.135
26876W        W92037   3.063  36.919   4.969
26877W        W92038  38.445   6.257  14.253
26878W        W92039  26.693  19.964   4.574
26879W        W92040  42.899  30.536   2.912
26880W        W92041  21.517   3.922   3.190
26881W        W92042  20.898  41.254  10.345
26882W        W92043  15.730  18.213   9.755
26883W        W92044  40.325  14.062   1.389
26884W        W92045  31.020   8.163  13.318
26885W        W92046  25.118  38.398  14.530
26886W        W92047   4.636  21.675   1.519
26887W        W92048  16.204  40.371   1.905
26888W        W92049  10.655  25.613  13.505
26889W        W92050  21.717  19.504   4.453
26890W        W92051  10.485  29.719   4.985
26891W        W92052  10.299  15.823  10.552
26892W        W92053  30.374  26.667   2.816
26893W        W92054   7.673  15.999  14.779
26894W        W92055  32.108  15.338   2.626
26895W        W92056  28.163  24.263  14.072
26896W        W92057  43.314  25.644  13.508
26897W        W92058  44.760  29.290  14.463
26898W        W92059  17.273  25.687   3.234
26899W        W92060  25.384   3.416  12.572
26900W        W92061  23.945  32.850   0.575
26901W        W92062  21.562  34.985   0.639
26902W        W92063   4.472  27.381   0.403
26903W        W92064  42.505  33.908   4.639
26904W        W92065  16.867  40.183   3.184
26905W        W92066  44.837  19.308  10.668
26906W        W92067  16.038  13.424  12.434
26907W        W92068  43.751   9.672   2.101
26908W        W92069   4.348  16.580   0.959
26909W        W92070   3.436  32.373  11.449
26910W        W92071   2.902   9.132  11.104
26911W        W92072  21.616  33.400   4.326
26912W        W92073  37.581  42.914   4.939
26913W        W92074  21.270  28.325  11.972
26914W        W92075  35.998  40.308  11.279
26915W        W92076  25.421  34.030  12.783
26916W        W92077  24.192  29.125  14.241
26917W        W92078   0.940  39.044   4.204
26918W        W92079  41.839  15.835   0.809
26919W        W92080  36.838   9.397   2.443
26920W        W92081  30.274  38.299  10.305
26921W        W92082  10.154   7.932  12.026
26922W        W92083  20.800  39.978  11.523
26923W        W92084  20.696  18.261   3.611
26924W        W92085  16.614   9.714   1.369
26925W        W92086   0.297   5.064  12.149
26926W        W92087  33.063  15.340  13.996
26927W        W92088  16.192  17.729  14.426
26928W        W92089  35.780  23.732   0.164
26929W        W92090  27.761  30.102  12.068
26930W        W92091  18.449  43.172  12.920
26931W        W92092  32.569   2.785   3.619
26932W        W92093  32.952  11.226  11.562
26933W        W92094  30.166   0.354   3.256
26934W        W92095  39.193   6.378  13.852
26935W        W92096   6.892  25.232   1.370
26936W        W92097  29.628  36.492  11.568
26937W        W92098  15.166   7.253   1.137
26938W        W92099  16.250   2.732  11.598
26939W        W92100  31.784   7.537  11.075
26940W        W92101  44.071  13.592  14.386
26941W        W92102   0.709   7.325   2.731
26942W        W92103  31.686  13.246  13.248
26943W        W92104   2.177  34.909   1.898
26944W        W92105  41.895  26.936   4.676
26945W        W92106   3.683  32.694  12.002
26946W        W92107  23.588  22.962   1.031
26947W        W92108  14.487  40.685   2.650
26948W        W92109  11.976  42.486  12.774
26949W        W92110   0.885  37.571   0.259
26950W        W92111  12.366  20.136  11.770
26951W        W92112  11.230   7.384   2.130
26952W        W92113  32.643   3.209   3.342
26953W        W92114  12.538   5.672  11.655
26954W        W92115  18.295   7.434   3.736
26955W        W92116  17.407  11.673   1.364
26956W        W92117   7.496   1.766   4.598
26957W        W92118  21.536   7.708   0.388
26958W        W92119  20.652   2.487   2.685
26959W        W92120  14.158  10.089  12.656
26960W        W92121  33.529  35.350  12.372
26961W        W92122   8.897  10.394  14.480
26962W        W92123  19.960  42.764  13.902
26963W        W92124  11.217  40.435  13.819
26964W        W92125  20.237   2.015  13.908
26965W        W92126  26.207   1.245   1.355
26966W        W92127  21.583  15.407  11.750
26967W        W92128  26.767  41.916   3.353
26968W        W92129  15.270  30.899  13.868
26969W        W92130  43.971  18.884  12.046
26970W        W92131  29.398  40.364   1.912
26971W        W92132  34.354   7.634   1.070
26972W        W92133  10.784   1.436  12.146
26973W        W92134  33.718  41.917  11.559
26974W        W92135  36.050  42.433   1.597
26975W        W92136  29.970   0.264  12.738
26976W        W92137  39.592  32.616  13.467
26977W        W92138   6.213  13.452   1.243
26978W        W92139  24.753   2.300   4.019
26979W        W92140  42.747  12.404   3.713
26980W        W92141   2.742  26.674  11.996
26981W        W92142  28.594  31.439   0.261
26982W        W92143  21.585   0.425  12.409
26983W        W92144  16.095   7.139  10.973
26984W        W92145  33.340   2.362   2.280
26985W        W92146   6.186   9.271   0.947
26986W        W92147  15.316  43.198  13.532
26987W        W92148  38.771  12.058  13.526
26988W        W92149  18.271  18.785  12.971
26989W        W92150  25.845  11.615   0.355
26990W        W92151  23.044  12.202   3.706
26991W        W92152  30.727  41.848   2.826
26992W        W92153  29.240  36.020  14.003
26993W        W92154  20.057  22.195   1.925
26994W        W92155  23.968  16.372  14.463
26995W        W92156  24.131  23.698   0.835
26996W        W92157  26.096  27.098   3.346
26997W        W92158  17.020   3.486   3.098
26998W        W92159  27.287  38.968  13.625
26999W        W92160  36.289  30.923   1.391
27000W        W92161  37.285  17.498  13.413
27001W        W92162  42.989   6.666   2.737
27002W        W92163  24.021   6.672  12.051
27003W        W92164  29.491   7.781  13.033
27004W        W92165  12.202  34.509   0.873
27005W        W92166  28.078  42.835   0.941
27006W        W92167  19.721  22.122  11.629
27007W        W92168  15.831  11.238  12.578
27008W        W92169   5.427   7.469   3.400
27009W        W92170  12.177  29.390  13.825
27010W        W92171  40.543   6.848   4.184
27011W        W92172  26.196  23.080  13.429
27012W        W92173  13.179   0.417  13.747
27013W        W92174   5.815   2.717  13.401
27014W        W92175  33.503  27.193   0.538
27015W        W92176  34.743  21.217   2.461
27016W        W92177  16.021  19.053  11.530
27017W        W92178  25.542  23.948  13.658
27018W        W92179  26.500   2.760  10.477
27019W        W92180  36.533  38.782   0.472
27020W        W92181  41.239  12.640   3.906
27021W        W92182  17.826  14.911  12.834
27022W        W92183   4.148  41.792  14.207
27023W        W92184   8.932   3.646  14.371
27024W        W92185   7.172   9.647  10.808
27025W        W92186   3.226  41.395   4.517
27026W        W92187  43.968  42.849   2.201
27027W        W92188  36.523  28.073  10.473
27028W        W92189  29.099  21.262   0.454
27029W        W92190   5.146  12.431  13.055
27030W        W92191  14.529  24.479  11.173
27031W        W92192   6.759   3.968  11.382
27032W        W92193  27.047   7.864   1.318
27033W        W92194  20.561   6.764  14.391
27034W        W92195  37.012  38.260   3.753
27035W        W92196  34.484   9.111  14.640
27036W        W92197  41.569  25.004   4.615
27037W        W92198   9.210  18.352  11.044
27038W        W92199  16.099  43.167   0.358
27039W        W92200   2.773  30.565   0.549
27040W        W92201  30.876  33.520  14.731
27041W        W92202  37.428   7.923   3.701
27042W        W92203  27.993  34.481   2.881
27043W        W92204  29.987  19.464   1.697
27044W        W92205  29.414  31.039  10.590
27045W        W92206  27.606  29.526  11.302
27046W        W92207  29.100   3.911   0.242
27047W        W92208   5.358  38.366  14.342
27048W        W92209  26.561  13.021  12.513
27049W        W92210  13.133  14.135  14.377
27050W        W92211  33.375   6.987  12.100
27051W        W92212  13.600  35.030  14.769
27052W        W92213  30.511  13.594   3.186
27053W        W92214  17.116  23.208   3.782
27054W        W92215  15.166   7.761   4.144
27055W        W92216  18.692   1.256  13.042
27056W        W92217  31.066   0.741  11.559
27057W        W92218  20.921   0.372  10.969
27058W        W92219   8.382  15.666   4.138
27059W        W92220   9.937  43.545   4.199
27060W        W92221  25.574   3.850   2.154
27061W        W92222  41.861   1.027  12.979
27062W        W92223  17.737  14.192   2.121
27063W        W92224  29.262  20.285   2.605
27064W        W92225  40.401  31.612   3.190
27065W        W92226  16.614  30.726  14.747
27066W        W92227  34.022  18.586   2.809
27067W        W92228  33.980  40.128   3.640
27068W        W92229   1.978  29.897   2.673
27069W        W92230  30.281  28.925   3.618
27070W        W92231  18.705  15.572   1.349
27071W        W92232  40.051  17.047   2.621
27072W        W92233  19.121  27.211  14.605
27073W        W92234  20.541  39.807  11.073
27074W        W92235  44.175  17.007   4.997
27075W        W92236   4.599  39.338  13.000
27076W        W92237   6.091  43.440  13.905
27077W        W92238  23.703  26.329   0.655
27078W        W92239  39.168  17.221  13.938
27079W        W92240  16.169  14.320   1.261
27080W        W92241  32.507  41.782   2.688
27081W        W92242  27.514  34.597  14.879
27082W        W92243  44.346   5.014  14.923
27083W        W92244   1.279  16.345  14.846
27084W        W92245  40.431  15.922   0.355
27085W        W92246  13.775   3.883  10.589
27086W        W92247  28.049  40.804  14.462
27087W        W92248  20.808  16.502   0.423
27088W        W92249  19.806  37.805  12.054
27089W        W92250   2.434   3.833  13.802
27090W        W92251  40.537  43.749   4.600
27091W        W92252   4.275  33.156   4.369
27092W        W92253  44.457  19.320  11.439
27093W        W92254  10.379  31.022   0.972
27094W        W92255   6.268  11.384   4.626
27095W        W92256  33.587  14.797   4.604
27096W        W92257  37.560   4.184  13.840
27097W        W92258  17.261   3.948  12.187
27098W        W92259  40.339  19.569   0.824
27099W        W92260  34.273  36.068   3.730
27100W        W92261  30.864  35.051  13.952
27101W        W92262  44.472  21.295   4.130
27102W        W92263   8.691  28.167   2.827
27103W        W92264  39.523  34.332   3.788
27104W        W92265  41.429  36.456   1.022
27105W        W92266  18.095  42.095  14.405
27106W        W92267  25.752  16.297   4.046
27107W        W92268   2.305   3.303  11.423
27108W        W92269   7.323  17.495  12.837
27109W        W92270   5.196  10.934  10.395
27110W        W92271  32.490  42.881  13.126
27111W        W92272  21.615   0.186   2.352
27112W        W92273  15.220  25.904  14.510
27113W        W92274  41.177  12.273  12.730
27114W        W92275  32.415  19.316  11.988
27115W        W92276  22.590  44.243   2.797
27116W        W92277  16.463   7.203   0.035
27117W        W92278  22.664  41.395  11.488
27118W        W92279  16.260  21.638   4.012
27119W        W92280  24.061  14.106   3.162
27120W        W92281  38.967  35.532  12.681
27121W        W92282  17.764  12.827  10.628
27122W        W92283   6.651   3.247  12.391
27123W        W92284  33.633  31.112   0.809
27124W        W92285  34.620  37.784  10.264
27125W        W92286  31.165  44.011   0.824
27126W        W92287  42.691  18.960   4.622
27127W        W92288  18.222  14.348  13.534
27128W        W92289  13.664  24.372  13.419
27129W        W92290  17.238  22.659   1.346
27130W        W92291  41.182  10.564   3.140
27131W        W92292  19.596  30.647  11.201
27132W        W92293  29.239  19.175  11.661
27133W        W92294  40.165   5.326  14.929
27134W        W92295  40.255  17.564  10.639
27135W        W92296  28.690  19.050   3.599
27136W        W92297  42.559  38.483   1.836
27137W        W92298  29.537  23.182   2.720
27138W        W92299  24.220  12.724   2.540
27139W        W92300  37.642  12.844   3.191
27140W        W92301   5.200  23.533  13.233
27141W        W92302  32.867  30.080   3.117
27142W        W92303  29.630  21.075  14.052
27143W        W92304  15.826  28.210   3.371
27144W        W92305   6.541  18.176   0.458
27145W        W92306   5.167  12.989   1.828
27146W        W92307  44.015  34.458  14.496
27147W        W92308   3.727  24.261   1.319
27148W        W92309  21.814  16.224   3.591
27149W        W92310  14.196   1.337  13.312
27150W        W92311  41.260  32.708   0.918
27151W        W92312  15.618  28.667  12.412
27152W        W92313  33.988  11.560  13.869
27153W        W92314   3.417  26.264  12.182
27154W        W92315  33.078  32.488   0.116
27155W        W92316  36.962  14.358  10.538
27156W        W92317  39.481  22.299   3.651
27157W        W92318   8.875  23.704   3.713
27158W        W92319  10.761  44.529  13.549
27159W        W92320  29.242  14.695  13.161
27160W        W92321   4.389  20.550  11.563
27161W        W92322  41.776  16.218   1.806
27162W        W92323   0.647  18.738   3.695
27163W        W92324  39.450   3.439   3.397
27164W        W92325   3.242   6.622   0.196
27165W        W92326   4.562   2.527   4.143
27166W        W92327  12.780  18.639   2.314
27167W        W92328  23.290  36.950  13.619
27168W        W92329  22.759  43.364  13.512
27169W        W92330  39.127   6.815   0.391
27170W        W92331  22.290  13.983   4.033
27171W        W92332  21.229  30.944  10.621
27172W        W92333  17.563   7.190   3.463
27173W        W92334  11.339  28.179   3.990
27174W        W92335  23.300   6.727  11.045
27175W        W92336  37.434  27.135  12.969
27176W        W92337   3.442   5.402   3.762
27177W        W92338  20.552  37.349   0.652
27178W        W92339  17.726   3.797  12.350
27179W        W92340   9.838  32.771   4.196
27180W        W92341   6.373   6.252  10.555
27181W        W92342  19.642  39.412   0.162
27182W        W92343  31.125  35.909   3.154
27183W        W92344  29.987   5.192  14.366
27184W        W92345  38.111  23.982  12.995
27185W        W92346  35.828  12.275  12.642
27186W        W92347   5.283  28.929  12.366
27187W        W92348  44.428  43.715   3.303
27188W        W92349  35.500  23.818  14.349
27189W        W92350  34.297  29.683  12.264
27190W        W92351  18.287  41.030   3.386
27191W        W92352  17.708  13.768   0.712
27192W        W92353  43.647  32.567   1.353
27193W        W92354  20.083   6.266  11.117
27194W        W92355  38.431  35.588  12.308
27195W        W92356  16.745  29.090  12.805
27196W        W92357   9.826  16.959   1.015
27197W        W92358  18.527  42.968  14.565
27198W        W92359  41.410   4.181  13.377
27199W        W92360  12.392  25.451   3.242
27200W        W92361   8.156  30.650   2.248
27201W        W92362  13.751  11.744   1.276
27202W        W92363  36.354  40.481   2.662
27203W        W92364  35.551   3.176   2.381
27204W        W92365  29.771  43.206   4.792
27205W        W92366  28.055  19.059  13.719
27206W        W92367  17.771   6.600   2.966
27207W        W92368  32.870   1.085   0.848
27208W        W92369  33.945  33.330   4.561
27209W        W92370   4.787  20.115  13.920
27210W        W92371  14.321   0.948  11.975
27211W        W92372   8.274  26.635  14.515
27212W        W92373  18.289  20.625  13.498
27213W        W92374   2.461  27.647   2.683
27214W        W92375  28.043  10.409   3.787
27215W        W92376  12.847   0.681  11.977
27216W        W92377  10.297   9.714  11.453
27217W        W92378  32.427  40.518   4.430
27218W        W92379  16.414  23.349   2.216
27219W        W92380  41.016  30.237  14.104
27220W        W92381  35.897  36.316  11.649
27221W        W92382  10.082  25.025   0.309
27222W        W92383  22.856  21.807   4.127
27223W        W92384   2.553  28.190   2.191
27224W        W92385   2.868  19.731   4.464
27225W        W92386  27.434   0.668  11.609
27226W        W92387  10.209   5.261  11.287
27227W        W92388  19.348  42.037   4.813
27228W        W92389  24.090   5.483   0.821
27229W        W92390  41.267   8.401   1.358
27230W        W92391  42.062  27.955  14.844
27231W        W92392   4.390   5.388  13.105
27232W        W92393  15.645  29.155  14.435
27233W        W92394   8.355  17.766   3.463
27234W        W92395  24.182  20.490   3.638
27235W        W92396  24.708  28.248   1.239
27236W        W92397   0.430  39.262   1.638
27237W        W92398  44.427  27.773   1.022
27238W        W92399  26.844  16.947   2.840
27239W        W92400  34.512  43.368  11.547
27240W        W92401   4.551   2.254  12.502
27241W        W92402   2.746  15.735  13.915
27242W        W92403  42.484  38.992   1.765
27243W        W92404  35.291   6.185   0.023
27244W        W92405  34.114  44.922   3.639
27245W        W92406  11.142  25.472  11.177
27246W        W92407   7.913  38.450   3.464
27247W        W92408  21.723  44.186   2.421
27248W        W92409  29.797  24.472   3.038
27249W        W92410   8.487  43.700   2.098
27250W        W92411  11.794  34.041  11.608
27251W        W92412  36.529  16.315  11.557
27252W        W92413  14.849  35.268   2.286
27253W        W92414  25.464  33.048  12.913
27254W        W92415   0.237  35.043  13.317
27255W        W92416  11.313  16.202   0.446
27256W        W92417  43.353  15.265   4.025
27257W        W92418  10.537  27.393  10.306
27258W        W92419  32.454  42.021   0.412
27259W        W92420  40.268  11.394   4.689
27260W        W92421  29.903   5.641  11.156
27261W        W92422  30.425   5.450  13.663
27262W        W92423   8.354   0.306  13.466
27263W        W92424  26.905  15.250  14.863
27264W        W92425   6.790   0.303  14.267
27265W        W92426  26.591  27.184   0.347
27266W        W92427  44.838  17.549  14.494
27267W        W92428   8.659  13.391   4.029
27268W        W92429  24.768  40.857   0.490
27269W        W92430   8.484   6.917  13.385
27270W        W92431   5.150  14.873   2.347
27271W        W92432  33.103  30.364   0.169
27272W        W92433  41.968  41.373   9.847
27273W        W92434  44.350   3.854  13.000
27274W        W92435  41.379   6.380  12.738
27275W        W92436  35.314  29.979   1.433
27276W        W92437  17.152  22.226  12.035
27277W        W92438  28.092  44.375  11.286
27278W        W92439  19.244  37.533  13.502
27279W        W92440  43.513  34.277  10.753
27280W        W92441   5.559  43.417  13.894
27281W        W92442  20.466  39.856  13.212
27282W        W92443  27.617   9.093   2.579
27283W        W92444   6.931   6.249   4.720
27284W        W92445  32.830  29.383  13.840
27285W        W92446  36.875  16.810   0.864
27286W        W92447  40.013  30.947  12.897
27287W        W92448   1.707  25.793   3.600
27288W        W92449  32.625  22.380  13.165
27289W        W92450  44.097   1.214   3.739
27290W        W92451  27.003   1.861   3.690
27291W        W92452  26.466   8.749   2.350
27292W        W92453  16.615   7.185   1.434
27293W        W92454   6.064  25.974   2.801
27294W        W92455  28.704  29.993   3.063
27295W        W92456   7.273  41.971   2.415
27296W        W92457  29.515  31.899  12.219
27297W        W92458   9.747   5.764  14.834
27298W        W92459  23.087  26.863  12.453
27299W        W92460  31.934   8.211  12.209
27300W        W92461  32.916  14.251   0.653
27301W        W92462  29.290  19.653  11.850
27302W        W92463   3.272  30.666  11.041
27303W        W92464   9.926  32.472  14.237
27304W        W92465  24.154  29.094   1.831
27305W        W92466   3.328  13.884  14.527
27306W        W92467  13.346  32.603  13.416
27307W        W92468  11.613  18.027   3.896
27308W        W92469  39.623  25.954   4.663
27309W        W92470  39.971  31.533   2.353
27310W        W92471  20.067  27.509   0.906
27311W        W92472   9.738   5.411   2.707
27312W        W92473  11.631  11.303   3.623
27313W        W92474  33.456  31.748  10.700
27314W        W92475  18.148   6.668   4.215
27315W        W92476  31.624  44.179   3.707
27316W        W92477  12.620  36.351  10.603
27317W        W92478  42.469  37.677  14.374
27318W        W92479   4.758  28.633   3.461
27319W        W92480  32.635   5.664  12.307
27320W        W92481  41.478  40.785   1.334
27321W        W92482  37.303   6.197   0.110
27322W        W92483  25.222  31.195  11.054
27323W        W92484  38.098  25.599  12.751
27324W        W92485  13.757  10.696   0.485
27325W        W92486  22.195  43.446  14.248
27326W        W92487  43.455  28.548   0.306
27327W        W92488  33.459   8.064  12.877
27328W        W92489  33.056  12.131  12.115
27329W        W92490  16.280  25.250  12.463
27330W        W92491  25.744   9.891   0.940
27331W        W92492   5.757  27.058  10.604
27332W        W92493   4.191  19.085   4.804
27333W        W92494  19.863   5.907   1.574
27334W        W92495  34.558  20.546   2.704
27335W        W92496  10.856   1.481   1.461
27336W        W92497   1.613   2.289   2.365
27337W        W92498  13.793  38.245  12.091
27338W        W92499  31.549  26.442   1.970
27339W        W92500  25.922  13.195  12.939
27340W        W92501  34.503  25.340   4.767
27341W        W92502  35.814  35.090  10.695
27342W        W92503  19.455  21.721   5.372
27343W        W92504  11.593  15.701  13.837
27344W        W92505   9.083  23.283   1.516
27345W        W92506  41.575  32.926   2.700
27346W        W92507   4.310  37.060   0.214
27347W        W92508  12.086  25.071   4.476
27348W        W92509  39.361   8.613   2.876
27349W        W92510  33.953  23.904   1.411
27350W        W92511  14.491  39.679  10.252
27351W        W92512  23.049  41.042   0.214
27352W        W92513   3.906  25.052   4.468
27353W        W92514  12.787  32.896   1.913
27354W        W92515  12.649  34.493   2.859
27355W        W92516  12.993  25.425   4.567
27356W        W92517  15.092  29.531  12.551
27357W        W92518   1.994  24.328  13.043
27358W        W92519   8.653  15.237   3.828
27359W        W92520  24.480  18.196   3.653
27360W        W92521  41.306  27.627   2.141
27361W        W92522  18.386   5.116   5.016
27362W        W92523  37.659  38.838   1.809
27363W        W92524  32.367  24.503   1.496
27364W        W92525  21.591   0.895   2.856
27365W        W92526  12.805  13.155   1.528
27366W        W92527  42.530  32.105   2.911
27367W        W92528   9.307   5.245   2.190
27368W        W92529  40.342  30.656   4.847
27369W        W92530  35.065  42.979   0.024
27370W        W92531  27.447  43.390  13.847
27371W        W92532  16.276  42.400   1.470
27372W        W92533   5.527   6.193   4.594
27373W        W92534  33.923  30.375   3.757
27374W        W92535  23.143  25.072  13.334
27375W        W92536  44.508  32.712   0.532
27376W        W92537   3.295  32.365   2.782
27377W        W92538   6.706  20.644  11.009
27378W        W92539   1.318  40.993  10.472
27379W        W92540  27.880  24.201  12.434
27380W        W92541   4.217  32.229  12.479
27381W        W92542  38.931   4.958  10.680
27382W        W92543  24.097  22.745  11.861
27383W        W92544  13.720  19.890   4.593
27384W        W92545  33.952  13.258   1.839
27385W        W92546  43.293  28.048  12.494
27386W        W92547  29.971   2.189  12.886
27387W        W92548   6.428   5.696  11.699
27388W        W92549  35.017  27.212   3.761
27389W        W92550  14.331  15.635  14.518
27390W        W92551   6.054  11.343  13.475
27391W        W92552  41.877  20.993   4.591
27392W        W92553  40.324  41.316  14.942
27393W        W92554  12.448  33.601  11.190
27394W        W92555   2.945   2.750  12.897
27395W        W92556  15.322  34.545  11.197
27396W        W92557   6.719  27.087  13.874
27397W        W92558  22.471  16.548   0.927
27398W        W92559   4.164  15.833   3.763
27399W        W92560  20.984  27.368  12.642
27400W        W92561  29.150  23.221   3.063
27401W        W92562  21.991  40.938   3.317
27402W        W92563  24.433  10.173   4.100
27403W        W92564  21.888   9.477  10.429
27404W        W92565  14.373   1.687  10.707
27405W        W92566  44.345  23.682  12.950
27406W        W92567  27.215  21.980   4.727
27407W        W92568  13.734  21.181  12.599
27408W        W92569   6.386  34.806   3.841
27409W        W92570  32.101  18.161  14.934
27410W        W92571  38.532  38.867   0.557
27411W        W92572  25.995  30.487   0.211
27412W        W92573  20.740  37.406  11.812
27413W        W92574  19.316  13.101  12.589
27414W        W92575  40.760  14.119   3.180
27415W        W92576  37.053   9.273  12.864
27416W        W92577  37.278  10.304  12.004
27417W        W92578   0.370   1.281   3.431
27418W        W92579   5.458  16.812  13.864
27419W        W92580   5.598  29.046  11.144
27420W        W92581  11.829   4.181   3.466
27421W        W92582   2.226   2.778   0.681
27422W        W92583  15.768  40.978  12.119
27423W        W92584  11.242  28.422   2.317
27424W        W92585   6.553  42.402  14.846
27425W        W92586  40.339  21.427  14.368
27426W        W92587  17.712  33.152   4.327
27427W        W92588   2.856   8.622  11.203
27428W        W92589  28.467  12.259  10.295
27429W        W92590  24.772  32.566  13.992
27430W        W92591   4.225   5.232   1.623
27431W        W92592  14.364  31.936  13.633
27432W        W92593   8.838  41.898  13.801
27433W        W92594  11.602   3.156  12.384
27434W        W92595  26.497   0.925  12.911
27435W        W92596  20.104   3.681   2.298
27436W        W92597  37.548  31.243  11.257
27437W        W92598   2.172   3.748  14.393
27438W        W92599  22.527  21.515   0.279
27439W        W92600  29.515  42.573  13.439
27440W        W92601  28.212  13.139   3.185
27441W        W92602   4.404   3.017   4.337
27442W        W92603  23.683  19.058   0.977
27443W        W92604   4.238  19.140   1.246
27444W        W92605   8.357  44.866   0.009
27445W        W92606   9.886  42.764  12.443
27446W        W92607  24.250  36.133   4.081
27447W        W92608   5.901   2.900   4.279
27448W        W92609   4.957  31.897   9.740
27449W        W92610  29.623  22.688   2.834
27450W        W92611  17.212  12.642  13.992
27451W        W92612  29.410  39.953   0.300
27452W        W92613  18.710  14.981   2.659
27453W        W92614  43.641  12.713  13.980
27454W        W92615  20.674  15.544  11.604
27455W        W92616  28.151  30.046   2.093
27456W        W92617  30.647  43.278  14.521
27457W        W92618  40.878  31.329  14.848
27458W        W92619  27.469  38.218   2.565
27459W        W92620  18.672  34.695   3.123
27460W        W92621  13.152  34.878  13.011
27461W        W92622   6.232  36.386  13.122
27462W        W92623  15.817  38.876  10.984
27463W        W92624  39.863  33.570   0.268
27464W        W92625  30.961   4.345   0.412
27465W        W92626   6.135  22.081   1.383
27466W        W92627  23.531  26.753   4.912
27467W        W92628  36.135  16.559  10.611
27468W        W92629  24.144  40.418   0.691
27469W        W92630   8.811   2.922   2.565
27470W        W92631  24.252   8.797   3.864
27471W        W92632  12.732  16.814   3.783
27472W        W92633  17.254   9.762   2.939
27473W        W92634  23.604  11.261  11.194
27474W        W92635   3.247  17.823   3.980
27475W        W92636  27.500  35.871  11.192
27476W        W92637   9.283   1.993   0.356
27477W        W92638  37.556   9.405  14.460
27478W        W92639  37.685  30.067   4.106
27479W        W92640  19.691  27.745  13.356
27480W        W92641  39.270  14.788   0.343
27481W        W92642  14.569   2.275   2.924
27482W        W92643  28.569  43.036  10.567
27483W        W92644  16.578  32.128   4.487
27484W        W92645   1.455  19.648  11.225
27485W        W92646  30.482  24.071  13.370
27486W        W92647  41.833  44.424   3.534
27487W        W92648  38.568  25.532   3.732
27488W        W92649  12.217   2.806   0.354
27489W        W92650   4.227  40.001   0.211
27490W        W92651  23.438  29.186   0.004
27491W        W92652  37.190  13.234   5.091
27492W        W92653   9.768  10.365   2.375
27493W        W92654  23.307  13.542  14.311
27494W        W92655  22.571  26.196  11.077
27495W        W92656  26.500   9.436  12.448
27496W        W92657  33.615   9.360   3.823
27497W        W92658   4.881  41.802  12.628
27498W        W92659  39.008  25.811   3.713
27499W        W92660  20.619  21.024   3.588
27500W        W92661   2.978  16.850   9.738
27501W        W92662   2.601  12.777   2.780
27502W        W92663  14.580   5.631   3.374
27503W        W92664  17.233  33.925  10.635
27504W        W92665  31.520   0.393  11.490
27505W        W92666  39.128  19.722   2.295
27506W        W92667  10.266  43.799   4.503
27507W        W92668  13.545  30.573   1.836
27508W        W92669  22.640  19.785  10.772
27509W        W92670   7.098  43.848  11.453
27510W        W92671   7.439  44.718   4.670
27511W        W92672   1.287  42.278  11.216
27512W        W92673  13.739  33.600   3.236
27513W        W92674  37.645  41.416   4.441
27514W        W92675  28.487  22.687   4.500
27515W        W92676   2.472   2.180   4.584
27516W        W92677  41.793  25.149   4.186
27517W        W92678  18.093  44.529  11.108
27518W        W92679   2.188   3.419  13.989
27519W        W92680  26.174  30.444  10.855
27520W        W92681  23.941  42.445   2.260
27521W        W92682  31.792  32.371   0.216
27522W        W92683  31.714  24.087  14.999
27523W        W92684  28.278  29.990   0.287
27524W        W92685  22.591  43.197  14.465
27525W        W92686  27.697  43.434   4.056
27526W        W92687  28.605  41.459  12.060
27527W        W92688  15.810  31.560  13.358
27528W        W92689  12.684  19.716  13.880
27529W        W92690  17.771  20.414  14.287
27530W        W92691  44.445   1.767  10.729
27531W        W92692  33.634  38.517   3.035
27532W        W92693  21.602  33.345  14.547
27533W        W92694  14.769   5.199   0.560
27534W        W92695  42.035  36.434   2.289
27535W        W92696  36.454   3.848  14.943
27536W        W92697  32.038  25.107  13.546
27537W        W92698   1.038  21.334   4.099
27538W        W92699  20.818  30.413   1.731
27539W        W92700  13.133  33.180   2.598
27540W        W92701   6.793   7.977   0.806
27541W        W92702  19.682  34.838   1.122
27542W        W92703  43.333  32.018   1.962
27543W        W92704  43.746  44.360  12.101
27544W        W92705  11.880  19.278   2.293
27545W        W92706  41.383   4.469   1.859
27546W        W92707  11.200  32.059   0.404
27547W        W92708  28.932  20.632   3.180
27548W        W92709   1.737  35.787   3.775
27549W        W92710  37.767  24.704  13.406
27550W        W92711   5.248  19.200   4.204
27551W        W92712  30.536  16.235  12.515
27552W        W92713  14.127  34.839  11.995
27553W        W92714  33.071   4.369  12.349
27554W        W92715   8.722  30.907   4.314
27555W        W92716  22.563  10.281   0.261
27556W        W92717  28.703  17.684  13.066
27557W        W92718  40.728  10.734   3.299
27558W        W92719  35.825   7.761   2.282
27559W        W92720  40.019  40.074   2.397
27560W        W92721   1.013  26.689  13.291
27561W        W92722  39.358  15.787  12.471
27562W        W92723  33.247  37.881  12.916
27563W        W92724  18.516  24.538  10.883
27564W        W92725  17.530  38.483   2.230
27565W        W92726  36.114  31.804  11.151
27566W        W92727  24.478  15.081   2.774
27567W        W92728  44.491  18.692  14.812
27568W        W92729   2.485  36.007  12.522
27569W        W92730  17.806  25.510   1.041
27570W        W92731  16.109  20.668   2.811
27571W        W92732  26.466  20.551   3.212
27572W        W92733  38.619  32.885   2.116
27573W        W92734  37.763   6.404  12.799
27574W        W92735   5.263  37.920  14.091
27575W        W92736  26.572   1.759   4.644
27576W        W92737  32.180  41.842   0.846
27577W        W92738  23.240   2.336   4.110
27578W        W92739  17.199  29.519   2.271
27579W        W92740  34.320  16.580  13.912
27580W        W92741  36.617  31.140   0.997
27581W        W92742  31.540  24.873   3.583
27582W        W92743  27.014   4.985   1.883
27583W        W92744   2.925  30.222  12.563
27584W        W92745  42.352  38.834  12.973
27585W        W92746  33.999  25.679   2.291
27586W        W92747  33.322  17.122  10.808
27587W        W92748  33.665   6.274   2.898
27588W        W92749  15.020  37.246   3.658
27589W        W92750  21.965  20.223  14.450
27590W        W92751  24.596   4.156   4.847
27591W        W92752  33.290   7.681   2.726
27592W        W92753   9.691   0.432  11.471
27593W        W92754  37.993  18.188  12.477
27594W        W92755  35.544  36.629  11.901
27595W        W92756   9.320  13.847   3.138
27596W        W92757   8.047   2.009  14.217
27597W        W92758  22.329  39.077  14.435
27598W        W92759  25.007  40.803   3.178
27599W        W92760  34.730  14.618   4.604
27600W        W92761  27.953  12.428   0.823
27601W        W92762  12.905   0.421   2.047
27602W        W92763  10.378  11.178   0.759
27603W        W92764  41.488  15.352  12.466
27604W        W92765  33.932  36.459   3.727
27605W        W92766  31.186  37.020   4.181
27606W        W92767  22.460   7.278  12.180
27607W        W92768   5.689  13.399   1.225
27608W        W92769  15.852  44.985   0.047
27609W        W92770  19.256  28.388   4.182
27610W        W92771  13.328   8.914  10.793
27611W        W92772  41.621   4.294   2.315
27612W        W92773  27.753  32.595   1.368
27613W        W92774   3.117   6.097   0.217
27614W        W92775  41.985   5.734   2.293
27615W        W92776   7.763  44.742  12.021
27616W        W92777   1.184   2.203   4.875
27617W        W92778  42.994  42.190  13.055
27618W        W92779   1.150  18.833   0.969
27619W        W92780  15.198   8.206  14.831
27620W        W92781   4.868  37.724   4.097
27621W        W92782   7.930  43.084  11.466
27622W        W92783  28.901   3.979  12.399
27623W        W92784  24.417  38.948   1.276
27624W        W92785  28.147  28.003   1.372
27625W        W92786  21.482  24.088   3.191
27626W        W92787   0.408  42.928   4.509
27627W        W92788  28.664  16.346   1.395
27628W        W92789  19.952  42.547  12.268
27629W        W92790  28.057  43.803   4.171
27630W        W92791   5.759  35.000   3.191
27631W        W92792  28.516  39.551   3.428
27632W        W92793  24.344  37.034  13.613
27633W        W92794   8.114  25.061   3.632
27634W        W92795  12.297  33.978   3.623
27635W        W92796   3.776  33.191   4.597
27636W        W92797   1.395   5.517  12.907
27637W        W92798  40.933  26.953  10.763
27638W        W92799  36.636  17.747  14.491
27639W        W92800  11.246  24.217  12.062
27640W        W92801  34.288  33.483   0.856
27641W        W92802  17.272   5.438   0.180
27642W        W92803  26.136  31.254  14.444
27643W        W92804  17.099  30.902  12.409
27644W        W92805  17.504  13.383   3.263
27645W        W92806  42.943  28.144   2.765
27646W        W92807  34.380  37.076  11.880
27647W        W92808  32.518  30.535   0.264
27648W        W92809  33.920   7.965  12.003
27649W        W92810  29.076   6.434  10.619
27650W        W92811  21.849  27.508   3.371
27651W        W92812  20.552  27.595  11.432
27652W        W92813  13.395  40.458   3.862
27653W        W92814   2.510  34.549   2.583
27654W        W92815  19.347  43.437   1.807
27655W        W92816  21.463  26.051  12.223
27656W        W92817  11.336  35.022   3.766
27657W        W92818  24.189  15.185  13.158
27658W        W92819  36.792   4.360   4.244
27659W        W92820  24.214  12.906  12.343
27660W        W92821  26.846  39.848  12.965
27661W        W92822  31.003   5.685   3.181
27662W        W92823   2.146  34.152  12.447
27663W        W92824  37.630  40.215   1.327
27664W        W92825  23.717  35.470  14.509
27665W        W92826  11.622  43.402  12.407
27666W        W92827   0.827   1.208   2.166
27667W        W92828  40.624  22.426  13.386
27668W        W92829  33.039  36.771  13.221
27669W        W92830   5.695  14.800  12.977
27670W        W92831   6.180   6.336   3.056
27671W        W92832  19.299  15.374  10.602
27672W        W92833   6.716  34.772   1.314
27673W        W92834  12.659  25.980   3.665
27674W        W92835  10.157  12.212   2.802
27675W        W92836  26.191  29.561   3.329
27676W        W92837  20.625  11.354   1.805
27677W        W92838  19.081  20.306   4.130
27678W        W92839  14.955  11.313   0.770
27679W        W92840  42.086  19.392  10.844
27680W        W92841  30.590   7.883   2.428
27681W        W92842  32.106   4.703  14.427
27682W        W92843   4.450  42.293  10.840
27683W        W92844  23.058  35.855  13.573
27684W        W92845  12.478  40.009   0.830
27685W        W92846  25.435   2.240  14.986
27686W        W92847  13.344  12.770   0.073
27687W        W92848  39.936   2.477   2.780
27688W        W92849  37.711  11.411  11.629
27689W        W92850  13.364  27.755  11.202
27690W        W92851  42.887   5.978   2.361
27691W        W92852  37.415   3.764   5.060
27692W        W92853  29.618  21.277   0.517
27693W        W92854  27.121  43.474  10.617
27694W        W92855   0.335  32.946   0.946
27695W        W92856  41.537  18.315   4.362
27696W        W92857  24.760  31.595  11.609
27697W        W92858  17.465  28.882   4.546
27698W        W92859  35.866   9.692   0.823
27699W        W92860   9.793  37.894   0.883
27700W        W92861  43.849  38.856  11.564
27701W        W92862   7.072   5.952  13.619
27702W        W92863   5.267  28.991   4.831
27703W        W92864  27.436  21.680   2.347
27704W        W92865   6.196  41.512  11.160
27705W        W92866  10.362  35.007  13.191
27706W        W92867  13.410  12.755  11.452
27707W        W92868  24.704  27.223   0.971
27708W        W92869  13.619  35.469   1.207
27709W        W92870  25.642  21.420  10.019
27710W        W92871  17.645  37.938   4.346
27711W        W92872  22.963  30.874   3.373
27712W        W92873  19.229  26.390   1.299
27713W        W92874  20.844   6.277  10.692
27714W        W92875   3.693  21.095   4.710
27715W        W92876   3.880   0.805   1.716
27716W        W92877  27.214  36.562   2.301
27717W        W92878   2.868  32.174   0.450
27718W        W92879  11.326  38.580   2.215
27719W        W92880  33.131  37.453  12.164
27720W        W92881  44.447  10.716   2.829
27721W        W92882   8.276  30.694   1.393
27722W        W92883   8.952  14.313   0.420
27723W        W92884  31.623   2.928  11.142
27724W        W92885  19.259  25.271   4.252
27725W        W92886  27.654  20.958  11.280
27726W        W92887   1.941  26.655  10.539
27727W        W92888  18.509  20.279   1.299
27728W        W92889  22.697  24.474   2.247
27729W        W92890  25.174  27.231   2.465
27730W        W92891  42.648  43.326  11.210
27731W        W92892  22.539  29.264  11.084
27732W        W92893  21.194   0.767   3.350
27733W        W92894  19.230  11.829  12.102
27734W        W92895  20.713  36.354   2.002
27735W        W92896   4.192   8.793   2.876
27736W        W92897  35.559  39.943  13.513
27737W        W92898  17.635  26.385  14.949
27738W        W92899  33.332  13.849  13.363
27739W        W92900  41.072  25.092  11.508
27740W        W92901  25.734  39.366  10.281
27741W        W92902   9.218  12.117   2.937
27742W        W92903  44.309   5.423   2.836
27743W        W92904  36.868   4.350  12.051
27744W        W92905   2.824  33.858  12.980
27745W        W92906  17.637  25.411   3.489
27746W        W92907   6.909  40.513   3.686
27747W        W92908  21.123  26.888  12.383
27748W        W92909  13.701  20.213  12.606
27749W        W92910   8.436  37.876  14.828
27750W        W92911  25.756   5.901  11.128
27751W        W92912  35.044   3.433   0.748
27752W        W92913  30.821  22.420   1.791
27753W        W92914  36.415  26.734  14.001
27754W        W92915  25.557  25.566  14.364
27755W        W92916  44.649  38.054   4.973
27756W        W92917  10.101   0.317   2.271
27757W        W92918  32.980  26.614   1.652
27758W        W92919  33.538   9.796  10.284
27759W        W92920  13.540  31.289   2.339
27760W        W92921  12.861  15.605  11.621
27761W        W92922  44.288  22.043   1.814
27762W        W92923  28.399   8.479  12.678
27763W        W92924  40.352  34.829   3.642
27764W        W92925  30.748  23.155   3.262
27765W        W92926   8.298  35.062  14.604
27766W        W92927  30.656  38.088  12.045
27767W        W92928  42.881  42.749   3.253
27768W        W92929  30.867  30.349  14.326
27769W        W92930  29.336  34.465  12.650
27770W        W92931  22.753  24.961  13.019
27771W        W92932   8.727  43.295  10.383
27772W        W92933  37.454  38.895   1.336
27773W        W92934  21.841  15.274   4.625
27774W        W92935  25.943   8.248  11.568
27775W        W92936  20.502  39.711   1.423
27776W        W92937  29.554  12.887   5.048
27777W        W92938  33.134  40.717   3.462
27778W        W92939  19.206  12.798  13.594
27779W        W92940   4.316  44.434  12.575
27780W        W92941  12.060   0.957  14.339
27781W        W92942  19.142  11.591  14.972
27782W        W92943  18.704   1.679   4.708
27783W        W92944  19.996   1.955   3.223
27784W        W92945  22.096  36.626  14.354
27785W        W92946  38.720  10.228   2.163
27786W        W92947  17.321  29.753  12.975
27787W        W92948   5.466  36.364   2.833
27788W        W92949  22.480   2.261   0.474
27789W        W92950  38.087  40.941  12.939
27790W        W92951   0.414  36.548  12.432
27791W        W92952  11.908  36.026   4.020
27792W        W92953   9.673  19.263  12.456
27793W        W92954   5.654  22.263  14.961
27794W        W92955  28.941  24.030  14.897
27795W        W92956  26.188  41.756   4.990
27796W        W92957   5.681  33.447  11.619
27797W        W92958  13.775  27.447   2.690
27798W        W92959  19.195   0.281  10.895
27799W        W92960   5.539  40.304   4.594
27800W        W92961   2.326  33.215  14.391
27801W        W92962  43.941   4.369  14.262
27802W        W92963  43.272   6.875  10.682
27803W        W92964   2.756  20.451   2.529
27804W        W92965  36.338   5.265   4.164
27805W        W92966   6.775  31.552   0.301
27806W        W92967  39.308  12.742  12.813
27807W        W92968  30.022  36.009  11.961
27808W        W92969   0.704  43.393  10.417
27809W        W92970  38.979  33.125  14.209
27810W        W92971  17.831  15.441  12.080
27811W        W92972  23.921   1.784   3.990
27812W        W92973  13.140  31.560   4.228
27813W        W92974  40.973  38.223   5.580
27814W        W92975   8.506  28.066   4.201
27815W        W92976  11.390   3.352   1.895
27816W        W92977  22.314  20.588   1.901
27817W        W92978   6.204  32.607   2.207
27818W        W92979  40.203   1.490   0.406
27819W        W92980   6.376   7.249   0.774
27820W        W92981  18.119  14.126  10.528
27821W        W92982  33.830   2.032  14.431
27822W        W92983  42.557  28.062  13.994
27823W        W92984  29.541  10.952  12.311
27824W        W92985   7.341  13.131   4.315
27825W        W92986   8.698   3.467   0.329
27826W        W92987  26.022  42.275  12.075
27827W        W92988   0.854  39.558   4.248
27828W        W92989  36.708  22.360  14.090
27829W        W92990  10.955  35.553  12.560
27830W        W92991  12.114  20.613  11.596
27831W        W92992   9.200  39.571   4.512
27832W        W92993  25.245  41.027   0.527
27833W        W92994   8.896  40.562  10.968
27834W        W92995  26.032  43.427   3.289
27835W        W92996   6.303  21.441  11.229
27836W        W92997  24.498  34.031  12.720
27837W        W92998  22.550  24.991   3.128
27838W        W92999  34.949   1.904  12.397
27839W        W93000  37.736  10.003   2.190
27840W        W93001  30.600  34.637   1.723
27841W        W93002  20.764  26.476  13.437
27842W        W93003   3.216   3.315   1.538
27843W        W93004  16.710  32.645   4.427
27844W        W93005  12.687  20.363   4.585
27845W        W93006   0.157   4.937  14.351
27846W        W93007  12.452  24.495  11.287
27847W        W93008  36.860   1.040  14.907
27848W        W93009  43.589  22.953  12.014
27849W        W93010  16.855  41.407   2.809
27850W        W93011  39.835  11.661   4.738
27851W        W93012   0.566  40.831   2.887
27852W        W93013   7.622  32.869   1.782
27853W        W93014   4.519  32.640  12.504
27854W        W93015  34.861  32.335   0.221
27855W        W93016  10.362  37.898   3.152
27856W        W93017  21.738  37.401  12.016
27857W        W93018  40.498  27.054   3.657
27858W        W93019  17.686  31.181  10.635
27859W        W93020  44.548  26.060   3.739
27860W        W93021  23.585  41.337   4.129
27861W        W93022   3.925  41.955   4.241
27862W        W93023  18.155  32.401  10.471
27863W        W93024   2.832  44.875   3.886
27864W        W93025   4.588  16.012   2.744
27865W        W93026  12.370   1.420  11.553
27866W        W93027  29.611  23.554   3.076
27867W        W93028  11.906  33.957   0.280
27868W        W93029  43.828  24.271  11.717
27869W        W93030  22.710   0.107  13.767
27870W        W93031  17.892  30.722  10.780
27871W        W93032  19.359  16.114  11.534
27872W        W93033   4.893  41.465  10.040
27873W        W93034   9.260   3.968  14.826
27874W        W93035  35.913  42.306   2.813
27875W        W93036   5.804  13.613  12.452
27876W        W93037  43.863   4.865   3.515
27877W        W93038  41.942  29.104  12.118
27878W        W93039  28.423  21.510   0.210
27879W        W93040  28.522   8.458  14.579
27880W        W93041   3.459  18.581  10.513
27881W        W93042  15.379  20.611   2.363
27882W        W93043  19.007  30.406   4.203
27883W        W93044  17.681  39.377  14.019
27884W        W93045  44.842  28.372  13.876
27885W        W93046  11.582  24.296   4.594
27886W        W93047  40.833   5.268   0.398
27887W        W93048  30.598  21.704  14.755
27888W        W93049  13.720  20.681  14.509
27889W        W93050  41.266   2.285  12.316
27890W        W93051  43.427  35.815  12.199
27891W        W93052  28.943  42.106  13.827
27892W        W93053  37.443  18.264  10.465
27893W        W93054   3.276  36.483  12.106
27894W        W93055  11.922  28.699  12.456
27895W        W93056  13.560  23.660   3.298
27896W        W93057   4.323   2.535   0.905
27897W        W93058  35.518  29.053   1.299
27898W        W93059   4.646  18.077  14.417
27899W        W93060   6.642  20.173   2.719
27900W        W93061  17.337  42.107   3.109
27901W        W93062  17.782  24.779  14.435
27902W        W93063  18.596  39.924  14.515
27903W        W93064  32.485  30.631   1.954
27904W        W93065  14.709  40.373  13.714
27905W        W93066  10.663  23.698   4.992
27906W        W93067  18.888  39.804  10.281
27907W        W93068  18.450   8.978  10.930
27908W        W93069  14.104  36.105  13.321
27909W        W93070  32.541   0.215   4.230
27910W        W93071  19.379  10.750  12.464
27911W        W93072   0.333   7.848  10.973
27912W        W93073  37.999   5.799   4.424
27913W        W93074  43.041  31.380   4.775
27914W        W93075  21.231  32.041   0.960
27915W        W93076   7.584  35.664  11.625
27916W        W93077   2.685  12.277   2.375
27917W        W93078  39.145  37.383  12.084
27918W        W93079  31.446  13.865  14.826
27919W        W93080  18.398  38.991   1.669
27920W        W93081  27.021  43.723   1.697
27921W        W93082  23.660  12.143  14.017
27922W        W93083  42.816   9.080   2.893
27923W        W93084  21.238   3.842   0.822
27924W        W93085   4.729  44.523  13.844
27925W        W93086  22.328  16.066  12.542
27926W        W93087   9.333  13.190   1.939
27927W        W93088  16.612  12.298  13.609
27928W        W93089   8.871  36.378   1.214
27929W        W93090  40.943  15.791  12.975
27930W        W93091  42.477  27.986   4.996
27931W        W93092  35.123  27.420   4.300
27932W        W93093   0.296  11.665  14.770
27933W        W93094  14.682  42.222   4.162
27934W        W93095   3.706  17.764   4.573
27935W        W93096  29.721   8.256  13.124
27936W        W93097  40.026  19.979   3.976
27937W        W93098  13.178  19.139  10.707
27938W        W93099   5.760  12.135   4.354
27939W        W93100   9.437  40.297  11.040
27940W        W93101  43.072  43.211  13.093
27941W        W93102   9.240  14.072   2.275
27942W        W93103  15.639  20.751  12.659
27943W        W93104  33.287   8.223  12.426
27944W        W93105  43.995  13.218   0.187
27945W        W93106  23.205  14.108   3.733
27946W        W93107  22.009  35.483   1.162
27947W        W93108  14.127  15.007   4.364
27948W        W93109  22.311  40.332  13.512
27949W        W93110  43.933  33.218  14.410
27950W        W93111  18.319  32.294   1.445
27951W        W93112   7.778   9.294  13.576
27952W        W93113  14.750   1.268  12.624
27953W        W93114   4.499  23.473   9.978
27954W        W93115   6.431  42.866  12.042
27955W        W93116  29.139  39.808  12.611
27956W        W93117   5.746  11.629  10.509
27957W        W93118   0.749  32.022   4.172
27958W        W93119  23.758   6.260  10.504
27959W        W93120   2.856  32.379  13.735
27960W        W93121  42.686   9.751   1.251
27961W        W93122  29.113  10.084  14.008
27962W        W93123  22.170  14.626  13.536
27963W        W93124   3.223  25.584   2.166
27964W        W93125  13.074  14.155  12.039
27965W        W93126  32.923  30.951  12.508
27966W        W93127  37.961  42.215   4.063
27967W        W93128   6.393  44.546   2.774
27968W        W93129  10.773  22.058   4.356
27969W        W93130  28.436  33.465  13.852
27970W        W93131  25.466  36.120   3.534
27971W        W93132  27.053   7.881   2.769
27972W        W93133  34.655  21.770  11.031
27973W        W93134  23.629   1.438   3.666
27974W        W93135  43.106  22.892  10.718
27975W        W93136  31.484  42.255  14.126
27976W        W93137  23.404  36.020  13.220
27977W        W93138  38.240  44.896   0.323
27978W        W93139   5.736  21.788   0.129
27979W        W93140  30.092  31.883  13.346
27980W        W93141  25.057  43.418   3.452
27981W        W93142  14.673  13.870   0.045
27982W        W93143  44.155  33.658   0.348
27983W        W93144   0.905  15.258   0.499
27984W        W93145  44.383   0.954   2.970
27985W        W93146  38.982  39.936   3.865
27986W        W93147  18.718  32.555   3.642
27987W        W93148   9.001  23.746  11.155
27988W        W93149   4.168  26.001   0.290
27989W        W93150  26.280  17.690   3.161
27990W        W93151  13.124  30.970  12.123
27991W        W93152   8.812  44.639  12.937
27992W        W93153   2.657   6.099  14.990
27993W        W93154  40.331  30.133   1.298
27994W        W93155  31.979  25.430   2.325
27995W        W93156   0.390   7.924   0.857
27996W        W93157   4.620  41.549  14.342
27997W        W93158  26.899  33.612  11.327
27998W        W93159  18.314  11.823   0.427
27999W        W93160  15.868   2.698   3.270
28000W        W93161  26.432   9.414   3.584
28001W        W93162  36.656   3.827  12.016
28002W        W93163  41.575  16.251  12.469
28003W        W93164  12.414  22.250   0.696
28004W        W93165  41.610  28.314  11.880
28005W        W93166   1.875  35.269  13.474
28006W        W93167   3.807  22.290  11.558
28007W        W93168  20.738  36.065   0.237
28008W        W93169  28.327  22.559   2.760
28009W        W93170   2.434  20.659   3.604
28010W        W93171  36.383  21.138   2.809
28011W        W93172   8.430  36.342  10.817
28012W        W93173  20.047  18.861   5.071
28013W        W93174   6.471  42.445  13.960
28014W        W93175   1.940  15.665  10.970
28015W        W93176  41.310   7.201  14.848
28016W        W93177  27.144  35.546   2.124
28017W        W93178  38.564  24.210   4.432
28018W        W93179  22.187   1.787  14.912
28019W        W93180  24.275   4.862  12.712
28020W        W93181  38.880  15.740  12.877
28021W        W93182   4.469  11.510  12.438
28022W        W93183   7.301  24.236  11.588
28023W        W93184   9.694  29.027  11.202
28024W        W93185  22.691   7.831   4.397
28025W        W93186  44.326  39.327   1.912
28026W        W93187  10.742   8.693   2.363
28027W        W93188  37.410  30.135  13.163
28028W        W93189   9.690  11.156   3.705
28029W        W93190  11.602  29.926  13.642
28030W        W93191  25.200  15.547   4.120
28031W        W93192  21.213  31.818   2.307
28032W        W93193  26.655  38.578  14.538
28033W        W93194  15.217  14.635  12.124
28034W        W93195   8.278  37.760   1.912
28035W        W93196   2.516  43.047   3.136
28036W        W93197  34.370   8.395  13.253
28037W        W93198  30.890   8.368   1.792
28038W        W93199  13.318  36.058   4.536
28039W        W93200  37.990   2.883  13.133
28040W        W93201   9.839   1.446  10.633
28041W        W93202  40.084   5.458  10.932
28042W        W93203   4.744  17.761  10.847
28043W        W93204  22.615  23.245   3.110
28044W        W93205   3.605  17.542   2.352
28045W        W93206   9.853  39.443   3.700
28046W        W93207   4.487  35.451   0.021
28047W        W93208  42.525  14.093  11.570
28048W        W93209  34.833  14.672  11.551
28049W        W93210  41.485   5.854  13.901
28050W        W93211  17.642  21.736  14.873
28051W        W93212  30.315  37.666   0.803
28052W        W93213  24.125   6.541  10.725
28053W        W93214   1.735  40.927  14.049
28054W        W93215   0.263  41.956  12.883
28055W        W93216  30.854   4.762   1.818
28056W        W93217  21.554  34.838   2.060
28057W        W93218  13.010   6.629   4.163
28058W        W93219  28.158  34.423   2.400
28059W        W93220  40.430  22.552   3.180
28060W        W93221  23.783  22.088   1.703
28061W        W93222   1.746  14.076  10.747
28062W        W93223  22.600  31.818   4.209
28063W        W93224   2.059  37.543  14.621
28064W        W93225  29.049  29.255   1.849
28065W        W93226  13.990  43.745  12.426
28066W        W93227   8.750  13.194   4.491
28067W        W93228   3.092  17.466   2.272
28068W        W93229  33.023  16.363   0.049
28069W        W93230  20.769  15.213  12.462
28070W        W93231   4.328  14.178   1.804
28071W        W93232   7.501  31.910   5.098
28072W        W93233  14.455  31.391   1.104
28073W        W93234  10.240  22.971   1.301
28074W        W93235  40.306   7.903   5.010
28075W        W93236  40.037  12.127   2.250
28076W        W93237  43.448   6.425   2.842
28077W        W93238  24.659  11.907  13.073
28078W        W93239   9.199  11.792   3.359
28079W        W93240   8.174  17.113  13.800
28080W        W93241  32.031  37.931   1.817
28081W        W93242  44.102  26.810  14.049
28082W        W93243  19.788  14.849  13.025
28083W        W93244  27.031  43.363  13.480
28084W        W93245  31.843  14.312   3.659
28085W        W93246  44.351   9.134  13.249
28086W        W93247  15.935  17.726  10.988
28087W        W93248  10.136  28.253   1.738
28088W        W93249  20.248  38.281   0.798
28089W        W93250  34.069  13.409  13.521
28090W        W93251  10.915  31.706   1.651
28091W        W93252   5.115  26.731  12.326
28092W        W93253  43.243   9.088   1.742
28093W        W93254  13.838  17.656  13.069
28094W        W93255  24.712  16.775  14.308
28095W        W93256  35.819  14.878  10.546
28096W        W93257   2.082   6.389  11.328
28097W        W93258  15.682  43.722   4.050
28098W        W93259   1.385  16.283   2.411
28099W        W93260   3.389  14.055   2.212
28100W        W93261  22.524  29.978   0.408
28101W        W93262   5.271  31.896   1.524
28102W        W93263   9.811  12.553   3.797
28103W        W93264   6.681   0.822  12.474
28104W        W93265  31.183  21.478   2.308
28105W        W93266   4.499  12.250   1.878
28106W        W93267  17.959  28.546   0.864
28107W        W93268  20.501  11.641   4.359
28108W        W93269  11.090  27.197  14.351
28109W        W93270  34.131  33.973   3.507
28110W        W93271  44.863  35.856  13.117
28111W        W93272  38.652  29.986   4.471
28112W        W93273   4.132  16.691  11.000
28113W        W93274  34.679  32.195  11.108
28114W        W93275  42.431  19.285  14.257
28115W        W93276  22.821  24.461  14.380
28116W        W93277   9.477  20.930  14.495
28117W        W93278  35.631  32.350   4.161
28118W        W93279  25.687  11.229  13.813
28119W        W93280  26.605  14.736  10.777
28120W        W93281  42.101  37.381   2.935
28121W        W93282   8.270   2.031   2.173
28122W        W93283   5.362  17.762   0.521
28123W        W93284  32.841  32.878   2.974
28124W        W93285  28.233   1.620   3.059
28125W        W93286  28.407   8.074   4.931
28126W        W93287  35.550   2.925   4.634
28127W        W93288  33.235  35.982  10.690
28128W        W93289  22.348  19.645  10.113
28129W        W93290   3.877  37.474   2.867
28130W        W93291  36.508  11.796  12.021
28131W        W93292  15.811  13.762  14.429
28132W        W93293  23.481   7.270   1.337
28133W        W93294   1.039  22.174   1.219
28134W        W93295   8.663  39.518   1.775
28135W        W93296  30.774   4.917  11.695
28136W        W93297  20.628  24.718   2.848
28137W        W93298  29.661   6.003  12.468
28138W        W93299  29.954  18.089   0.332
28139W        W93300  33.901  15.517   2.825
28140W        W93301   6.376   9.591   2.809
28141W        W93302  18.577  38.801  14.835
28142W        W93303  22.072  34.268  14.660
28143W        W93304  33.600  25.677  11.455
28144W        W93305  35.226  11.587   2.828
28145W        W93306  33.925  31.726  11.989
28146W        W93307  34.941  23.008   2.731
28147W        W93308  36.260  43.560   4.661
28148W        W93309  38.226  20.901   1.857
28149W        W93310  39.619   4.788   4.096
28150W        W93311  23.019  42.266  14.310
28151W        W93312   7.027  19.344   4.510
28152W        W93313  17.606  41.560  12.043
28153W        W93314   4.789   6.185  10.751
28154W        W93315   2.902   1.764   3.436
28155W        W93316  26.008  27.861   1.453
28156W        W93317   7.747  41.938   2.662
28157W        W93318   2.286   6.860   1.234
28158W        W93319  44.777   3.792   1.796
28159W        W93320  28.545  30.438   3.321
28160W        W93321  10.711  10.324   1.783
28161W        W93322  17.584  35.569   0.175
28162W        W93323  26.255   0.429  12.224
28163W        W93324  44.477   9.683   4.777
28164W        W93325  31.954  28.676   1.148
28165W        W93326  16.692  11.263   2.420
28166W        W93327  35.332   7.758   0.801
28167W        W93328   5.507  20.540  11.539
28168W        W93329  20.281   7.199   3.493
28169W        W93330   6.192  24.566   1.364
28170W        W93331  24.714   3.224   5.475
28171W        W93332  16.165   0.514  12.088
28172W        W93333  29.159  27.901  10.769
28173W        W93334  16.077  27.521  13.858
28174W        W93335  16.723  22.294  10.684
28175W        W93336  16.118  27.003  13.780
28176W        W93337   7.975  26.446   9.859
28177W        W93338   8.693  43.895  14.481
28178W        W93339  41.350  37.483  10.218
28179W        W93340  24.512  31.676   3.464
28180W        W93341  32.555  13.000   0.330
28181W        W93342  28.790   2.597  13.554
28182W        W93343   8.919  27.073   3.704
28183W        W93344  33.661  10.827  11.927
28184W        W93345   3.205  41.462  10.744
28185W        W93346  39.313   7.368   2.284
28186W        W93347   2.532  27.120  12.153
28187W        W93348   4.367  22.440   2.744
28188W        W93349  26.663  39.395   9.942
28189W        W93350  10.564  23.512   0.867
28190W        W93351  25.159  27.557   4.405
28191W        W93352   7.195  38.443  12.157
28192W        W93353   2.740  31.199   3.748
28193W        W93354  40.761  20.575   3.330
28194W        W93355  11.743  20.098   3.602
28195W        W93356  14.636  27.964  14.823
28196W        W93357  18.739  15.610  12.006
28197W        W93358  10.668  24.043  14.964
28198W        W93359  25.064  25.083  14.712
28199W        W93360  35.912  14.892  14.918
28200W        W93361   9.351  16.693   0.517
28201W        W93362  20.159  29.947  11.430
28202W        W93363  21.636   8.205   0.786
28203W        W93364  25.651  26.130  14.748
28204W        W93365  31.863   5.807  13.011
28205W        W93366  24.093  17.582   1.429
28206W        W93367  40.423   3.876  14.082
28207W        W93368  10.237  20.035   0.222
28208W        W93369   4.272  34.965   1.773
28209W        W93370  41.184  30.023  13.670
28210W        W93371   3.373   4.186   1.234
28211W        W93372  26.672  34.590  13.170
28212W        W93373   9.678  32.011   1.162
28213W        W93374  40.456  42.685  14.323
28214W        W93375  40.613  42.450  13.879
28215W        W93376  10.602  25.642   2.355
28216W        W93377  42.417  27.765  13.525
28217W        W93378  28.232  23.060   1.720
28218W        W93379  44.367  41.972  11.967
28219W        W93380  44.934  18.994  13.404
28220W        W93381  36.933  37.376   3.596
28221W        W93382  35.041  11.176  13.803
28222W        W93383   0.753   2.760  10.763
28223W        W93384  13.460  27.742   5.274
28224W        W93385   9.190  11.110  13.061
28225W        W93386  25.727  41.707   3.692
28226W        W93387  17.421  10.830  11.922
28227W        W93388  21.339  12.933  14.518
28228W        W93389  10.166  25.567   1.252
28229W        W93390  37.366   4.428  13.438
28230W        W93391   0.217  41.441  12.924
28231W        W93392  39.693  44.729   4.112
28232W        W93393  27.699  29.677  13.902
28233W        W93394  36.860   5.246  12.050
28234W        W93395  41.865  21.215  13.864
28235W        W93396  37.476  30.915   1.964
28236W        W93397  12.107   5.005  11.207
28237W        W93398  30.675  38.313  13.418
28238W        W93399   1.798  31.013   4.095
28239W        W93400  23.012  14.248   2.022
28240W        W93401  20.623   9.539  14.016
28241W        W93402  38.525  15.687   2.874
28242W        W93403  33.378   9.012   3.520
28243W        W93404  39.013  27.904   1.135
28244W        W93405   6.206  40.767  11.581
28245W        W93406  25.887   2.000  13.568
28246W        W93407  27.713  24.730  13.436
28247W        W93408  18.479  24.170   1.920
28248W        W93409  21.473  38.859  14.901
28249W        W93410  32.204  17.557  13.948
28250W        W93411   3.722  13.967   2.928
28251W        W93412  38.899  18.044  10.778
28252W        W93413  30.706  23.810   3.053
28253W        W93414  13.246  14.367  11.554
28254W        W93415  42.884  25.465  12.459
28255W        W93416  15.806  23.178  14.331
28256W        W93417  25.205  27.689   2.253
28257W        W93418  42.894  34.202   3.388
28258W        W93419   2.729  40.110   4.121
28259W        W93420  24.248   7.303  12.172
28260W        W93421  30.599  10.103   0.239
28261W        W93422   3.425   2.744  11.195
28262W        W93423   2.244   1.018   1.412
28263W        W93424  32.635   0.714  10.817
28264W        W93425  10.611  10.764  13.890
28265W        W93426   2.441  10.335   1.898
28266W        W93427   8.345  38.265  12.875
28267W        W93428  18.624  25.566   3.320
28268W        W93429  12.414  38.509  14.716
28269W        W93430   3.406  12.119  12.305
28270W        W93431   6.046   9.854   1.526
28271W        W93432  14.162  37.525   3.666
28272W        W93433  34.178  41.352  10.918
28273W        W93434   5.255  23.538  11.078
28274W        W93435  31.671  17.516   0.225
28275W        W93436  27.091  22.512   1.747
28276W        W93437  44.822  23.484  11.881
28277W        W93438  15.985  24.096  13.262
28278W        W93439  23.957  10.746   1.274
28279W        W93440  23.757  22.261  12.417
28280W        W93441  40.516  25.540   1.374
28281W        W93442  22.250  32.978  13.487
28282W        W93443  39.595   7.811   3.254
28283W        W93444  25.220  41.057  13.941
28284W        W93445   6.889  31.822  10.096
28285W        W93446  38.065   5.942  14.464
28286W        W93447   3.214  33.897   2.478
28287W        W93448  21.212  42.667   4.534
28288W        W93449  27.626  38.583  13.516
28289W        W93450  18.102  44.743   4.516
28290W        W93451  38.185  23.390  12.125
28291W        W93452  20.257   1.818   2.800
28292W        W93453  17.156  15.362  14.424
28293W        W93454  39.325  31.581   0.937
28294W        W93455  44.829  24.949  13.861
28295W        W93456  39.916  20.170  14.566
28296W        W93457   3.795  34.334  11.027
28297W        W93458  38.369  43.324  12.983
28298W        W93459  13.751   5.415  14.503
28299W        W93460  44.888  11.429   1.393
28300W        W93461  10.215   6.320   2.857
28301W        W93462  37.106  22.924  13.282
28302W        W93463  10.600  25.222   3.255
28303W        W93464  18.199  40.648  13.260
28304W        W93465  15.554  16.571   0.757
28305W        W93466  43.525  32.953  10.965
28306W        W93467  34.572   7.634   2.061
28307W        W93468  16.582   7.354   3.158
28308W        W93469   5.482  32.469   2.740
28309W        W93470  27.445  29.031  11.283
28310W        W93471  16.326  10.127   2.877
28311W        W93472  43.890  41.718  11.960
28312W        W93473  36.993  11.624  14.066
28313W        W93474   3.475  34.302  12.593
28314W        W93475  31.778  10.491  14.797
28315W        W93476  32.586   3.176   1.408
28316W        W93477  19.350  26.958  10.759
28317W        W93478   4.780  27.880   0.286
28318W        W93479   5.915   4.252   3.372
28319W        W93480  11.955  36.702   0.855
28320W        W93481  37.639  17.795  11.499
28321W        W93482  34.388   4.519  11.327
28322W        W93483  22.064  40.956  12.125
28323W        W93484   6.392   1.964  11.234
28324W        W93485  36.943  41.303   1.375
28325W        W93486  27.006   2.875   0.228
28326W        W93487   0.816  35.310  10.677
28327W        W93488  17.625  33.097  13.534
28328W        W93489  32.684  35.366   3.451
28329W        W93490  11.485  29.975   0.323
28330W        W93491   5.968  32.168  11.095
28331W        W93492  16.144  16.823   2.349
28332W        W93493  13.776  17.677   4.587
28333W        W93494  26.775  29.136  12.428
28334W        W93495  12.899  17.143   2.349
28335W        W93496  29.276  21.566  14.423
28336W        W93497  28.561   6.066   2.023
28337W        W93498  20.190  37.367   1.023
28338W        W93499  26.474  15.128  12.412
28339W        W93500  28.449   6.554  13.298
28340W        W93501  30.725  20.436  11.475
28341W        W93502  38.791  32.915  10.291
28342W        W93503  14.782  20.188  14.623
28343W        W93504  17.329  42.605   3.215
28344W        W93505   9.585  24.858  10.115
28345W        W93506  40.036  16.531   2.680
28346W        W93507  39.865  11.325  13.917
28347W        W93508  32.552  15.630   4.925
28348W        W93509  16.592  15.352  12.537
28349W        W93510  28.597  12.319   4.540
28350W        W93511  40.899  44.346  14.007
28351W        W93512   1.002  10.202  14.661
28352W        W93513  43.077  43.032   2.397
28353W        W93514   8.649  15.795  14.871
28354W        W93515  18.771   8.816  11.861
28355W        W93516  13.965  22.510  11.505
28356W        W93517  12.722  19.101  11.576
28357W        W93518  30.557   9.472   2.403
28358W        W93519  38.385  21.457   3.993
28359W        W93520  25.726  41.925  11.234
28360W        W93521  28.140  25.847  12.853
28361W        W93522  27.987  20.079  13.086
28362W        W93523  27.429   1.007  11.988
28363W        W93524  20.527  23.123  10.698
28364W        W93525  43.321  15.077  10.623
28365W        W93526   2.127  37.108   3.704
28366W        W93527  12.998  42.872   3.837
28367W        W93528  33.692  29.711   4.208
28368W        W93529  13.753  34.144   1.347
28369W        W93530  16.755  12.172  12.023
28370W        W93531  22.711  12.188   2.879
28371W        W93532   6.426  41.946   4.049
28372W        W93533  44.799   9.369  12.373
28373W        W93534   2.277  30.350  11.046
28374W        W93535   0.511   2.057  13.050
28375W        W93536  16.355   5.950   2.850
28376W        W93537  25.663   7.340  12.499
28377W        W93538  14.837   6.653   4.770
28378W        W93539  26.361  35.816  12.433
28379W        W93540   9.101   8.178  12.661
28380W        W93541  14.721  20.990  14.826
28381W        W93542   4.685  23.674   2.662
28382W        W93543   1.185  29.538   1.666
28383W        W93544  41.948  27.951  13.391
28384W        W93545  23.984  31.072  14.406
28385W        W93546  37.364   3.657  10.843
28386W        W93547  42.812  43.433  11.684
28387W        W93548  41.338  27.600   3.736
28388W        W93549  38.404  17.036   2.343
28389W        W93550   8.235  42.506  13.399
28390W        W93551  25.666  14.223  14.500
28391W        W93552   1.456  35.510  10.640
28392W        W93553  35.193   2.393  13.611
28393W        W93554   3.629  38.793   3.218
28394W        W93555  29.447   2.776   1.770
28395W        W93556   4.944  33.101   2.358
28396W        W93557  44.237  20.113  13.543
28397W        W93558  19.809  38.686  13.149
28398W        W93559   0.485  21.654  10.894
28399W        W93560  10.224  20.548   2.189
28400W        W93561  30.066   3.800  14.600
28401W        W93562  25.994  15.557  13.954
28402W        W93563  34.028  11.641   1.374
28403W        W93564   1.279  27.221   4.529
28404W        W93565   4.659  39.593  11.896
28405W        W93566  38.744  44.240  14.844
28406W        W93567  21.602  13.756   1.881
28407W        W93568  14.240  21.754   4.584
28408W        W93569  40.317  42.674   2.830
28409W        W93570  10.286  44.839   3.150
28410W        W93571  37.996  23.048  12.994
28411W        W93572  14.283  10.775  13.322
28412W        W93573   0.731  26.123   4.841
28413W        W93574  20.529  35.328  13.942
28414W        W93575  40.152  32.341  12.012
28415W        W93576  24.639   0.764  10.497
28416W        W93577  21.016  15.978  12.986
28417W        W93578  11.053  24.299  14.238
28418W        W93579  34.839  10.657  13.535
28419W        W93580  43.446   3.299  11.169
28420W        W93581  27.970   8.435  14.305
28421W        W93582   5.156  42.242   3.177
28422W        W93583  38.925  30.951  12.053
28423W        W93584  31.045  40.523   0.694
28424W        W93585  30.796  34.910  12.532
28425W        W93586  34.983  22.261  11.244
28426W        W93587  25.360  40.261   1.700
28427W        W93588  35.332  11.208  10.696
28428W        W93589  37.805  19.102  12.600
28429W        W93590  28.845  35.428  11.186
28430W        W93591  30.082  16.290   2.831
28431W        W93592  42.776  29.733   5.141
28432W        W93593  17.549   7.436   0.617
28433W        W93594  22.972  26.604  13.942
28434W        W93595  22.896  26.540   2.605
28435W        W93596  32.109   6.477  10.962
28436W        W93597  28.363  22.063  10.941
28437W        W93598  12.128   6.441  11.984
28438W        W93599  29.933  31.887   1.842
28439W        W93600   2.276  12.393  13.878
28440W        W93601  40.909   7.676   2.776
28441W        W93602  20.163  32.807  12.151
28442W        W93603  28.658  39.861  12.893
28443W        W93604   4.287  24.627  12.531
28444W        W93605   2.778  11.821  12.955
28445W        W93606   7.757   8.935  14.803
28446W        W93607   7.118  20.247  11.637
28447W        W93608  29.528  35.257   0.979
28448W        W93609  14.699   2.792   4.706
28449W        W93610   5.126  42.213   1.311
28450W        W93611  10.625   7.769  13.451
28451W        W93612  22.902  32.995   3.325
28452W        W93613  17.048   8.574  13.426
28453W        W93614  38.967  44.618  11.557
28454W        W93615   1.387   6.710  14.974
28455W        W93616  34.985  41.002  12.927
28456W        W93617   3.387  10.664  12.053
28457W        W93618  19.323  39.809   9.986
28458W        W93619  21.816   2.994  12.519
28459W        W93620  39.264  25.608   2.456
28460W        W93621  43.791  32.543  12.166
28461W        W93622  39.269  28.626  12.972
28462W        W93623   3.717  12.282   4.264
28463W        W93624  10.879  39.462  12.940
28464W        W93625   1.331  33.984   4.136
28465W        W93626  21.668  20.020   4.390
28466W        W93627  18.194  32.507  11.497
28467W        W93628  39.994   5.398  12.112
28468W        W93629  16.937  11.697  13.857
28469W        W93630   2.041  10.370  11.958
28470W        W93631  27.258  35.078  11.613
28471W        W93632  18.557   0.003   3.794
28472W        W93633  44.279  27.714   4.087
28473W        W93634  12.085  31.284   0.816
28474W        W93635   2.917  44.858  10.794
28475W        W93636   5.834   2.404   4.122
28476W        W93637  28.912  22.712  12.445
28477W        W93638  13.773  29.940   3.741
28478W        W93639  12.828   5.303  13.446
28479W        W93640  10.687  41.541  12.942
28480W        W93641  39.968  43.741  12.594
28481W        W93642  41.924  31.643  12.589
28482W        W93643   8.615  38.957   2.643
28483W        W93644  42.411  20.137  11.003
28484W        W93645   8.987  36.121   3.153
28485W        W93646  28.796  14.632   4.498
28486W        W93647  30.561  32.574  14.741
28487W        W93648  19.351  23.351  13.532
28488W        W93649  12.557  25.467  12.644
28489W        W93650  17.243  10.913  10.929
28490W        W93651  30.236  29.668  13.925
28491W        W93652   3.643   3.882  11.111
28492W        W93653  28.944  10.524   9.635
28493W        W93654  30.633  31.893   1.486
28494W        W93655   5.944  19.592  10.748
28495W        W93656  25.603  37.016   0.005
28496W        W93657  31.557  29.422  13.360
28497W        W93658  11.353  33.076  10.632
28498W        W93659  10.615  26.265   3.934
28499W        W93660  21.967  10.357  12.906
28500W        W93661  17.844  32.083  10.757
28501W        W93662  20.193   5.180   3.282
28502W        W93663  21.160   9.838  14.892
28503W        W93664  15.725  27.384  14.994
28504W        W93665   3.252   4.323  14.818
28505W        W93666  38.942  38.345   2.644
28506W        W93667  35.966  27.501  14.379
28507W        W93668  30.428   0.872   1.221
28508W        W93669  33.930  20.081  13.271
28509W        W93670   8.724  33.103   0.391
28510W        W93671   5.307  34.593   1.439
28511W        W93672  38.901   3.930   1.370
28512W        W93673  29.191  40.354   3.215
28513W        W93674  18.364  44.264  11.909
28514W        W93675  16.147  16.892  14.015
28515W        W93676  31.515   9.418  12.244
28516W        W93677  18.548  11.108  14.457
28517W        W93678  18.364  17.684  10.194
28518W        W93679   9.769  36.619   2.257
28519W        W93680  42.851   5.417  12.620
28520W        W93681  33.383  33.468   4.602
28521W        W93682  36.178  27.020   1.627
28522W        W93683  35.118  31.902   2.607
28523W        W93684  23.720  39.145  14.540
28524W        W93685   3.554  14.327  11.098
28525W        W93686  12.604   8.433   4.642
28526W        W93687   1.565  14.834  10.724
28527W        W93688  10.439  41.573  14.412
28528W        W93689  42.896  27.093   3.464
28529W        W93690  26.925  44.941   2.441
28530W        W93691  14.111   7.298  14.889
28531W        W93692  22.311   8.598   2.880
28532W        W93693  14.231  13.098   2.570
28533W        W93694  25.022   1.612  12.588
28534W        W93695  35.039   1.246   4.669
28535W        W93696  28.477  10.659   9.794
28536W        W93697  30.176  18.071  13.400
28537W        W93698  40.391  28.109   4.952
28538W        W93699   1.436   0.940   1.230
28539W        W93700  20.604  14.264   1.527
28540W        W93701  34.591   8.908   2.302
28541W        W93702   4.434  44.233   4.239
28542W        W93703  17.977   8.571  12.184
28543W        W93704  41.428  10.360   0.395
28544W        W93705  24.222  29.601  12.518
28545W        W93706   4.053  20.345   4.238
28546W        W93707   3.175  17.195   1.282
28547W        W93708  17.794  40.740  12.921
28548W        W93709  23.176  42.065   3.243
28549W        W93710  37.494  11.302   2.336
28550W        W93711  27.881  42.338  13.435
28551W        W93712   8.331  34.539   3.439
28552W        W93713  41.793   0.967  14.146
28553W        W93714   4.109  20.588  10.731
28554W        W93715  12.966  25.690   1.090
28555W        W93716  35.024  43.948  14.894
28556W        W93717  13.822   9.386  13.020
28557W        W93718  14.895   6.717  12.905
28558W        W93719   4.287   4.223  10.526
28559W        W93720  44.659  27.496  13.495
28560W        W93721  44.268  17.871   3.687
28561W        W93722   8.891   1.558   2.864
28562W        W93723  13.786  30.046  13.416
28563W        W93724   0.863   9.681   3.671
28564W        W93725  21.396  41.249   3.898
28565W        W93726   8.614  15.665  10.115
28566W        W93727  30.653  33.438   0.194
28567W        W93728  39.050  29.980   2.670
28568W        W93729  20.780  20.144  12.360
28569W        W93730  10.546  36.301   2.862
28570W        W93731  12.641  19.320   4.588
28571W        W93732   3.713   9.936   1.412
28572W        W93733  12.230  10.302  13.851
28573W        W93734   1.053  39.021  11.157
28574W        W93735  44.781  36.844   1.494
28575W        W93736  24.563  31.210   2.709
28576W        W93737  14.350  43.184   0.034
28577W        W93738  41.903  30.622   4.702
28578W        W93739  28.733  14.581  13.282
28579W        W93740  11.925  21.298  14.482
28580W        W93741  35.179   3.673  11.693
28581W        W93742  22.697  19.222  11.623
28582W        W93743  23.965  36.502  13.442
28583W        W93744  35.022   8.991  10.575
28584W        W93745  22.178   9.969   1.366
28585W        W93746   4.804  26.185  13.059
28586W        W93747  42.271  24.146   1.250
28587W        W93748  13.358  28.158  12.499
28588W        W93749  27.218   5.823   4.114
28589W        W93750  14.347  14.185   3.473
28590W        W93751   4.686  30.260   1.837
28591W        W93752   5.701  33.857  13.988
28592W        W93753   6.146  40.169   0.766
28593W        W93754  28.667  20.698   3.632
28594W        W93755  26.912  17.214   1.449
28595W        W93756  28.535   5.517   0.890
28596W        W93757   0.579  26.655  10.312
28597W        W93758  44.930  24.779   1.325
28598W        W93759  37.328  40.023   2.001
28599W        W93760  30.205  18.202  14.846
28600W        W93761  18.798  31.999  13.780
28601W        W93762  42.807  36.664  14.517
28602W        W93763  23.530  33.318   2.773
28603W        W93764  24.636  29.200   1.661
28604W        W93765  25.728  23.651  14.758
28605W        W93766  16.564  16.042  12.016
28606W        W93767  41.519   7.830  11.797
28607W        W93768  37.647   5.789   0.073
28608W        W93769  32.137  14.308  13.400
28609W        W93770  43.502  35.333  12.232
28610W        W93771  12.245  15.597   3.796
28611W        W93772  13.614  34.803  12.050
28612W        W93773  13.576  25.071  14.013
28613W        W93774  20.574   3.317  13.036
28614W        W93775  29.621  11.846   0.022
28615W        W93776   9.864  23.045   1.642
28616W        W93777   8.020   4.829  11.648
28617W        W93778  25.002  34.066  12.470
28618W        W93779  15.811   3.290  11.100
28619W        W93780  27.123   6.461  11.753
28620W        W93781  40.039  25.209   2.691
28621W        W93782  42.910   7.849   0.462
28622W        W93783   3.412   3.883   4.130
28623W        W93784  20.015  40.812  13.440
28624W        W93785  29.715  24.219  14.788
28625W        W93786  36.866  40.048  12.086
28626W        W93787  35.755  28.659  12.775
28627W        W93788  26.968  17.660   0.980
28628W        W93789  10.243  34.464  10.772
28629W        W93790  29.923  30.599   2.278
28630W        W93791  38.442  21.666  13.033
28631W        W93792  37.388   8.375   4.390
28632W        W93793  24.936  15.040   2.034
28633W        W93794  14.812  11.835  10.809
28634W        W93795  21.375  17.518   3.693
28635W        W93796  39.044  14.280   4.761
28636W        W93797  32.909  30.978  11.641
28637W        W93798  42.478  37.976   0.691
28638W        W93799  18.800  14.988   4.608
28639W        W93800  37.924  17.968  14.485
28640W        W93801   6.469  16.922   0.993
28641W        W93802  24.847  15.843   2.361
28642W        W93803   5.379  25.439   4.543
28643W        W93804  44.619  15.838  10.700
28644W        W93805   7.673  24.702  13.277
28645W        W93806  25.580   2.729  10.918
28646W        W93807  23.708  11.005   0.526
28647W        W93808  25.198  34.341   1.927
28648W        W93809   8.126  25.137   3.099
28649W        W93810  13.414  17.104   2.330
28650W        W93811  22.427  20.148   9.977
28651W        W93812  26.188  43.323   1.798
28652W        W93813  25.962  15.929   4.687
28653W        W93814  29.949   3.534   0.430
28654W        W93815  31.231  10.928  12.029
28655W        W93816  12.363   9.078   2.469
28656W        W93817  39.542  37.039   4.047
28657W        W93818  28.199  13.302   2.716
28658W        W93819  31.177  17.257  11.946
28659W        W93820  28.612   9.264   0.886
28660W        W93821  39.477   7.428   3.603
28661W        W93822  10.745  44.864   0.407
28662W        W93823  29.145  26.166   2.252
28663W        W93824  12.634  23.173   2.675
28664W        W93825  15.359  40.263  12.396
28665W        W93826  44.943  33.908  14.382
28666W        W93827   9.689   3.681  13.932
28667W        W93828  15.047  36.418   0.372
28668W        W93829  14.657  14.223  12.644
28669W        W93830  25.874  43.651   2.091
28670W        W93831  15.685   4.241  14.088
28671W        W93832  43.455   8.183   4.779
28672W        W93833  27.952  32.544  14.789
28673W        W93834  30.888  18.702  12.042
28674W        W93835  42.286   6.758   0.546
28675W        W93836  38.012  39.280   3.004
28676W        W93837  17.781  16.279  14.239
28677W        W93838  11.911  12.557  13.538
28678W        W93839  25.969  32.315  10.820
28679W        W93840  25.939   3.858   3.296
28680W        W93841  11.272  24.728   1.375
28681W        W93842  29.688  22.774  13.822
28682W        W93843  41.238  25.924   4.307
28683W        W93844   7.397  17.318   0.735
28684W        W93845   3.204   2.222  14.544
28685W        W93846  15.374  32.911   1.822
28686W        W93847  28.873   2.372   2.354
28687W        W93848  34.012  11.685   4.384
28688W        W93849  26.764   5.868  11.518
28689W        W93850  43.432  43.892  12.119
28690W        W93851   0.170  13.827  11.212
28691W        W93852  19.747  34.966   0.170
28692W        W93853  32.919   3.891   2.979
28693W        W93854  14.920   9.663   4.184
28694W        W93855  39.127  31.348   0.443
28695W        W93856  16.262  22.507   4.238
28696W        W93857  34.886  37.471  11.102
28697W        W93858  25.831  23.018   4.078
28698W        W93859   8.390  24.497   0.180
28699W        W93860  21.742  20.547   0.364
28700W        W93861  21.090  14.132   0.899
28701W        W93862  25.459  37.942  14.371
28702W        W93863   0.039  21.184   2.732
28703W        W93864   1.759  14.793   0.454
28704W        W93865  17.326  42.108   0.835
28705W        W93866  14.634  10.297  12.653
28706W        W93867  30.358  30.148   0.602
28707W        W93868  19.033   6.435   2.284
28708W        W93869  42.270  12.528  11.629
28709W        W93870  38.043   8.124   2.506
28710W        W93871  16.396   1.668   0.662
28711W        W93872   4.015  17.304  11.598
28712W        W93873  21.657  21.344  13.406
28713W        W93874  43.784  19.777  10.756
28714W        W93875  20.772  28.146  11.141
28715W        W93876  30.571  21.236  14.476
28716W        W93877  22.194  32.863   0.016
28717W        W93878  41.825  12.890  14.822
28718W        W93879   8.700   6.828  12.505
28719W        W93880  18.030   7.420   4.607
28720W        W93881  24.718  34.959   0.982
28721W        W93882   0.522  44.936  13.394
28722W        W93883   7.213   1.956  14.273
28723W        W93884  18.282  25.505  12.482
28724W        W93885  41.056  30.706   3.567
28725W        W93886   4.821  32.427   0.528
28726W        W93887   8.880  40.497   4.196
28727W        W93888  16.528   4.933   2.344
28728W        W93889  29.538   8.868  12.415
28729W        W93890  32.970  22.258  12.037
28730W        W93891   5.858   1.257  11.566
28731W        W93892  37.926  18.451  14.358
28732W        W93893  43.338  33.627  12.897
28733W        W93894  29.053  39.808  10.829
28734W        W93895  43.286  16.332   2.362
28735W        W93896  11.281   3.443  12.091
28736W        W93897  11.657  44.929   2.895
28737W        W93898  29.234  28.951  13.436
28738W        W93899  29.674  19.867  10.917
28739W        W93900   2.371  12.890  13.572
28740W        W93901  12.403   1.538   4.427
28741W        W93902   0.413   5.295  11.689
28742W        W93903  20.707   9.865   1.748
28743W        W93904  35.172  44.739   4.470
28744W        W93905   1.884  28.504  10.965
28745W        W93906  13.115   7.015   3.374
28746W        W93907   2.792  32.122   4.155
28747W        W93908  38.431  27.883  13.562
28748W        W93909   7.702  23.988  11.312
28749W        W93910   5.782   5.782   4.809
28750W        W93911  25.745  35.280   0.394
28751W        W93912   3.226  32.155   1.833
28752W        W93913  41.654  35.138  12.472
28753W        W93914  34.667  25.909   3.469
28754W        W93915  10.296  33.041   4.179
28755W        W93916  33.280   7.595  12.990
28756W        W93917   0.455   0.528   4.654
28757W        W93918  12.542   2.331   2.766
28758W        W93919  36.512  43.501   3.252
28759W        W93920  19.642  34.600  11.967
28760W        W93921  19.522   0.008   1.526
28761W        W93922   2.391  44.380  13.260
28762W        W93923  17.226  22.869  12.932
28763W        W93924   5.822  11.256   2.143
28764W        W93925  40.704  14.256  10.554
28765W        W93926  30.094  23.912  14.478
28766W        W93927  30.723  31.871   2.101
28767W        W93928  43.920   0.786  12.129
28768W        W93929  12.107  21.685   4.775
28769W        W93930  21.261  16.260  14.515
28770W        W93931  15.109  42.617   1.635
28771W        W93932  19.720  11.604  13.469
28772W        W93933  19.190  15.305   3.375
28773W        W93934  16.852  29.163  12.246
28774W        W93935   9.626  18.052   2.724
28775W        W93936  36.625  25.637   1.672
28776W        W93937  30.643   5.057  11.229
28777W        W93938  40.766  39.395  14.225
28778W        W93939  15.311  28.146   0.871
28779W        W93940   9.912  15.058   3.540
28780W        W93941   5.504  24.728   2.744
28781W        W93942  26.878  40.394   1.860
28782W        W93943  21.026  36.275   3.705
28783W        W93944  35.857  26.008  14.757
28784W        W93945   7.309  29.647   3.313
28785W        W93946  10.314   8.612  11.408
28786W        W93947   2.230  24.791  13.002
28787W        W93948  14.558  14.616  13.457
28788W        W93949  23.528   1.805  11.217
28789W        W93950   0.821  23.421  14.958
28790W        W93951  19.743  11.558   0.330
28791W        W93952   5.001  31.236  14.456
28792W        W93953  11.358  15.211   3.744
28793W        W93954  24.528  31.892  11.233
28794W        W93955  22.672  21.673  14.789
28795W        W93956  17.812  24.855   2.399
28796W        W93957  42.805  34.491   2.410
28797W        W93958  31.530   9.276   4.452
28798W        W93959  44.387  33.846   4.698
28799W        W93960   5.780   5.404   2.857
28800W        W93961  31.896  30.971   4.531
28801W        W93962  18.973  29.116   2.545
28802W        W93963   2.987  29.445  12.043
28803W        W93964   1.210  38.901  11.832
28804W        W93965  43.271   4.581  10.288
28805W        W93966   4.240  28.061  13.154
28806W        W93967  21.973  36.108  14.416
28807W        W93968  24.917  22.966  12.813
28808W        W93969  17.214  35.616  12.567
28809W        W93970  36.403   0.242  13.909
28810W        W93971  25.120  12.872   2.921
28811W        W93972  36.280  42.574   4.753
28812W        W93973  41.065  13.709  14.440
28813W        W93974  16.711  39.452  12.575
28814W        W93975  29.007  29.616   0.985
28815W        W93976  36.631   4.959  14.309
28816W        W93977   4.925  39.543   0.426
28817W        W93978  29.569  11.707   2.627
28818W        W93979  23.277  44.998   2.404
28819W        W93980  12.814  40.474  10.700
28820W        W93981   0.151  34.072   1.851
28821W        W93982  27.280  36.342  13.947
28822W        W93983   1.791  40.620   4.144
28823W        W93984  17.599  31.075   2.716
28824W        W93985  27.623  27.095   1.388
28825W        W93986  23.124  14.751   0.297
28826W        W93987  36.350   5.265  12.137
28827W        W93988  13.408  17.176   1.410
28828W        W93989  27.637  21.675   0.921
28829W        W93990   5.339  22.282  13.046
28830W        W93991  41.486  22.798  11.625
28831W        W93992  20.919  18.322  14.820
28832W        W93993  33.338   8.438  11.115
28833W        W93994  32.415   5.844   3.279
28834W        W93995  40.981  41.736  11.187
28835W        W93996  14.824  20.247   0.590
28836W        W93997  18.270  39.044   3.565
28837W        W93998  14.044  16.285  14.869
28838W        W93999  11.417  20.151  13.974
28839W        W94000  26.359  28.373   1.825
28840W        W94001  14.487   6.718  11.434
28841W        W94002  25.955  44.801   3.809
28842W        W94003  43.306  16.066   3.666
28843W        W94004  18.120  28.115   0.077
28844W        W94005   7.989  20.721   3.883
28845W        W94006  26.207  32.571   3.307
28846W        W94007  13.806  29.731   2.388
28847W        W94008  21.885  19.068   4.214
28848W        W94009  15.133  14.675   3.101
28849W        W94010   5.262  32.594   0.914
28850W        W94011  19.714  17.715   3.321
28851W        W94012  19.356  43.973  14.990
28852W        W94013  42.502  17.690  13.341
28853W        W94014  34.371  37.049  14.831
28854W        W94015   0.370  17.572  13.578
28855W        W94016  21.345  29.570  11.629
28856W        W94017   3.821  24.065   3.663
28857W        W94018  44.727  41.564  14.742
28858W        W94019  20.936  17.747   3.523
28859W        W94020  30.498  24.285  11.178
28860W        W94021  39.122  20.174  12.186
28861W        W94022  35.947  35.427   1.901
28862W        W94023  27.477  15.800  11.128
28863W        W94024  36.870  29.368  11.127
28864W        W94025  13.758  15.595   4.879
28865W        W94026  13.655   2.414   3.710
28866W        W94027  28.509  38.642  13.471
28867W        W94028  43.942  10.832  11.905
28868W        W94029  16.320   3.411  11.540
28869W        W94030  26.894   3.056  12.605
28870W        W94031   4.030  28.507  12.949
28871W        W94032  17.802  24.047  12.116
28872W        W94033  26.447   6.932   0.446
28873W        W94034   2.032  34.384  10.088
28874W        W94035   4.651  29.283  13.998
28875W        W94036  38.116  40.452  13.826
28876W        W94037  34.299   0.325  14.857
28877W        W94038  12.809  12.537   1.834
28878W        W94039  24.876   3.253  12.794
28879W        W94040   5.715  21.061  13.583
28880W        W94041  23.719   3.348   0.727
28881W        W94042  21.992   9.804  12.168
28882W        W94043  23.554   3.285   0.232
28883W        W94044   6.163  11.084  11.605
28884W        W94045  41.198  40.859  10.716
28885W        W94046  10.630  36.884   0.363
28886W        W94047  18.706  36.422  10.683
28887W        W94048  42.290  29.533   4.697
28888W        W94049  36.106  20.476   4.187
28889W        W94050  18.143  10.807  14.566
28890W        W94051  17.760  38.396   4.587
28891W        W94052  35.062   6.974  10.787
28892W        W94053  17.365   0.200  11.596
28893W        W94054  31.529  36.127   4.242
28894W        W94055  27.453  16.502  10.573
28895W        W94056  14.444  11.156   0.764
28896W        W94057  21.999  42.826   3.446
28897W        W94058  25.826  16.321   2.569
28898W        W94059  12.731  28.990   4.477
28899W        W94060   8.912   1.938   3.791
28900W        W94061  39.079  39.571  13.816
28901W        W94062  38.483   7.026  11.666
28902W        W94063   9.597   0.130  14.210
28903W        W94064   0.274  20.773  10.689
28904W        W94065   8.694  13.250   3.084
28905W        W94066  17.350   8.866  12.939
28906W        W94067  36.193  26.004   4.559
28907W        W94068  35.738   8.074   2.678
28908W        W94069  38.680  30.111  11.102
28909W        W94070   3.461  40.361   1.718
28910W        W94071  40.335  26.815  13.587
28911W        W94072  34.845  33.607  14.322
28912W        W94073  37.857  15.377  13.860
28913W        W94074  11.944  42.265  11.476
28914W        W94075   6.239  30.900   2.836
28915W        W94076  28.025  35.564  12.925
28916W        W94077  39.918  26.586  12.262
28917W        W94078  25.008  34.082   0.209
28918W        W94079  38.251  30.882  10.829
28919W        W94080  12.039   4.423   4.790
28920W        W94081  30.387   7.892  11.237
28921W        W94082  31.579  35.637   0.952
28922W        W94083  13.047  13.301   3.299
28923W        W94084   1.810  35.410  14.722
28924W        W94085  39.092  43.748  12.440
28925W        W94086   5.184  35.829   4.037
28926W        W94087  13.087   9.656   1.208
28927W        W94088  23.570  21.724  14.394
28928W        W94089  42.808  23.080   2.254
28929W        W94090  37.753   7.292  10.693
28930W        W94091  33.402   7.254   3.329
28931W        W94092  24.362   8.661   1.457
28932W        W94093  36.624   0.407  14.334
28933W        W94094  25.377  43.774   2.268
28934W        W94095   4.048   2.482   3.192
28935W        W94096  12.726  44.966   1.872
28936W        W94097   6.980  30.279  14.308
28937W        W94098  37.825  11.655   0.913
28938W        W94099  25.353  26.562  12.456
28939W        W94100  13.469  25.483  12.819
28940W        W94101  44.798  27.673   4.161
28941W        W94102   4.203   8.795  10.670
28942W        W94103  23.769   0.855   0.315
28943W        W94104  15.020   9.120   3.794
28944W        W94105  16.748  29.978   0.205
28945W        W94106  12.394  24.928   3.250
28946W        W94107  21.938  31.252   1.353
28947W        W94108  32.062   9.651   1.221
28948W        W94109  42.082  43.664   3.768
28949W        W94110  26.725  16.913   0.304
28950W        W94111  42.996  28.024   5.068
28951W        W94112   4.586  27.591  13.186
28952W        W94113   5.923   1.006  11.105
28953W        W94114  27.036  39.903   1.937
28954W        W94115  12.229   9.888  14.558
28955W        W94116   2.649  24.025  14.841
28956W        W94117  39.578  13.449   1.233
28957W        W94118  33.514  32.995  12.574
28958W        W94119  15.721  23.521  10.101
28959W        W94120   7.927   4.729   3.754
28960W        W94121  39.388  36.842   2.712
28961W        W94122  38.937  40.857   3.688
28962W        W94123  37.559  20.320  12.880
28963W        W94124  35.152  12.178   4.721
28964W        W94125   2.031   3.231  14.435
28965W        W94126  34.128  20.601   1.818
28966W        W94127  27.817  15.025   4.533
28967W        W94128  30.477   5.147  12.125
28968W        W94129   3.325  20.720   3.720
28969W        W94130  10.135  25.415   2.313
28970W        W94131  12.541  14.726  10.336
28971W        W94132  35.321   6.703   2.660
28972W        W94133  39.569  28.435   1.693
28973W        W94134   5.732  41.889   2.244
28974W        W94135  27.553  13.155  14.791
28975W        W94136  31.462  15.780   2.853
28976W        W94137  30.089   9.657   2.587
28977W        W94138  13.617  13.693  14.988
28978W        W94139  23.267  26.207  14.082
28979W        W94140   1.446  22.471   2.387
28980W        W94141  19.241  23.689  12.212
28981W        W94142  21.976  21.755  14.427
28982W        W94143  11.641  34.511   4.582
28983W        W94144   5.645   0.568  11.153
28984W        W94145  41.076  16.828  14.778
28985W        W94146  15.713  22.267  11.562
28986W        W94147  40.681  25.650  12.186
28987W        W94148  30.637  29.423  13.347
28988W        W94149   7.194   9.603  12.100
28989W        W94150  18.771  10.712  11.648
28990W        W94151  11.758  13.056  13.646
28991W        W94152  41.020  41.481   4.906
28992W        W94153  41.780   8.396   1.316
28993W        W94154  40.388  44.263  14.129
28994W        W94155  25.908   5.159  12.279
28995W        W94156  30.612  43.137   4.185
28996W        W94157  16.821  20.623   0.281
28997W        W94158  29.006  37.066  12.829
28998W        W94159  32.532  29.001   3.087
28999W        W94160  42.426  40.725   1.353
29000W        W94161  43.520  23.035   1.826
29001W        W94162  41.008  39.926  10.797
29002W        W94163  11.165  38.341   4.052
29003W        W94164  18.141  35.907   3.206
29004W        W94165  32.582  14.197   3.150
29005W        W94166  23.394   3.860   1.884
29006W        W94167   4.763   0.248   1.940
29007W        W94168  19.295  34.156  11.604
29008W        W94169   1.955   0.923   4.496
29009W        W94170   6.179  22.556  14.487
29010W        W94171  31.587  40.928  13.130
29011W        W94172  20.158  18.217   1.327
29012W        W94173  27.909  26.336   1.728
29013W        W94174   8.549  10.493   4.670
29014W        W94175  20.602  43.035  10.610
29015W        W94176  35.570   9.870  10.767
29016W        W94177  12.921  44.814  11.989
29017W        W94178  30.595  21.979  11.478
29018W        W94179   3.285  42.996   2.701
29019W        W94180   8.064  33.368   0.295
29020W        W94181  39.201  19.626   3.824
29021W        W94182  19.543  11.845   2.657
29022W        W94183  42.038  35.882   5.037
29023W        W94184  18.754  33.916  13.815
29024W        W94185  17.493  22.535  11.148
29025W        W94186   3.747  32.402   0.860
29026W        W94187  24.124  35.070   0.949
29027W        W94188  19.479  15.521   1.233
29028W        W94189  10.183  15.432   3.323
29029W        W94190  28.783  36.189  14.982
29030W        W94191  13.775  40.970   2.257
29031W        W94192   5.612  16.810   3.699
29032W        W94193  35.407  41.069  13.833
29033W        W94194  23.424   1.878   3.912
29034W        W94195   7.715  34.078  13.605
29035W        W94196   0.359   5.392   1.007
29036W        W94197  29.026  22.185  12.499
29037W        W94198  44.033   9.888   3.084
29038W        W94199  31.570  33.063   2.643
29039W        W94200  17.574   2.727   3.324
29040W        W94201  41.143  29.381  14.943
29041W        W94202  13.711  11.885   4.579
29042W        W94203  15.644   3.891  12.497
29043W        W94204  27.292  26.799   3.433
29044W        W94205  22.019  42.769   1.427
29045W        W94206  35.094  26.091   2.692
29046W        W94207  26.070  19.183   2.240
29047W        W94208  20.997   8.199  14.859
29048W        W94209  33.381   0.366   3.622
29049W        W94210  17.150   0.503   4.827
29050W        W94211  35.302   3.420   2.856
29051W        W94212  40.144  42.074   0.336
29052W        W94213   2.936  32.633   4.131
29053W        W94214   8.219  14.079  13.353
29054W        W94215  41.511  16.759   1.648
29055W        W94216   4.139  44.408  10.717
29056W        W94217   0.661  35.966   0.382
29057W        W94218   3.357  44.369  13.353
29058W        W94219  22.727  30.867   4.263
29059W        W94220  43.306  20.275  13.315
29060W        W94221   2.559  37.504  14.462
29061W        W94222  35.820  33.082  12.415
29062W        W94223  19.160  37.982  13.256
29063W        W94224   8.203  26.553  12.477
29064W        W94225  32.875  10.660  14.305
29065W        W94226  23.678  10.670  14.099
29066W        W94227  11.426  40.878  11.004
29067W        W94228  36.465   0.926  12.615
29068W        W94229  10.869   5.868  12.378
29069W        W94230   4.267  35.671   2.888
29070W        W94231  10.050  37.440  11.076
29071W        W94232   9.414  28.003  11.061
29072W        W94233   6.806  18.236   1.394
29073W        W94234  14.261  44.754   2.735
29074W        W94235  30.684   0.877   2.119
29075W        W94236  11.712  20.789  10.382
29076W        W94237  25.024  42.833   2.808
29077W        W94238   7.754  32.060   2.754
29078W        W94239  14.983  13.087  10.997
29079W        W94240  13.189  18.065  13.774
29080W        W94241   8.310  30.458  11.531
29081W        W94242  43.894   7.494   4.292
29082W        W94243   2.251   0.960   3.751
29083W        W94244  23.241   5.390   4.752
29084W        W94245   4.382  23.689   1.818
29085W        W94246  34.485  14.114  14.731
29086W        W94247  39.479  31.474  13.618
29087W        W94248  13.204  41.984   1.397
29088W        W94249  17.831  34.550   2.578
29089W        W94250  13.204  30.024  14.674
29090W        W94251  23.648  32.690  12.535
29091W        W94252  30.978   8.631  10.202
29092W        W94253  10.134  11.501  12.106
29093W        W94254  17.713  35.998  11.500
29094W        W94255  13.301  39.241  14.503
29095W        W94256  29.720  37.402   4.960
29096W        W94257  10.922   4.778  11.796
29097W        W94258  30.631  36.654  12.204
29098W        W94259  18.796   9.542  14.515
29099W        W94260  44.289  12.151   0.321
29100W        W94261  15.980  39.315  12.157
29101W        W94262  25.754  11.684   1.762
29102W        W94263  10.762  39.467  14.760
29103W        W94264  44.594   3.489   9.987
29104W        W94265   8.871   9.651   4.511
29105W        W94266  42.375  36.940   2.814
29106W        W94267   6.719  40.762   0.248
29107W        W94268  44.439  13.331  12.456
29108W        W94269  33.533  43.878   4.815
29109W        W94270   9.904  20.601  10.935
29110W        W94271  26.259  32.496   3.807
29111W        W94272  23.993   9.395  12.036
29112W        W94273   4.911  22.485   3.933
29113W        W94274  39.026   3.758   2.315
29114W        W94275  22.021  31.136   1.876
29115W        W94276  19.115  29.565   4.515
29116W        W94277  35.471  40.331  10.633
29117W        W94278  36.406   5.103  12.991
29118W        W94279  16.334  13.105  13.700
29119W        W94280   8.738   3.279  10.973
29120W        W94281   3.454   2.932  11.680
29121W        W94282   4.264  28.062   2.017
29122W        W94283  30.429  40.711   3.249
29123W        W94284   2.994  33.587  14.317
29124W        W94285  37.889  36.548  11.094
29125W        W94286  32.529   3.633  11.989
29126W        W94287  43.758  16.254  10.205
29127W        W94288  13.760  33.504  11.945
29128W        W94289  16.206  31.261  11.074
29129W        W94290  35.993  41.242   4.500
29130W        W94291  25.153  24.555  11.402
29131W        W94292  43.542  10.637   3.685
29132W        W94293  24.094   2.900   0.687
29133W        W94294  30.438  11.278   0.973
29134W        W94295  19.189  11.150   0.905
29135W        W94296  33.553  16.463  11.615
29136W        W94297  44.830  18.567   2.817
29137W        W94298  23.945   0.344  11.834
29138W        W94299  34.784  44.258   4.555
29139W        W94300   0.959  12.159   0.913
29140W        W94301   5.695  36.105  13.939
29141W        W94302   2.567   3.918   1.255
29142W        W94303  41.979  18.611   4.329
29143W        W94304  12.181   7.360  12.022
29144W        W94305  18.218  19.468   0.784
29145W        W94306  18.329  28.546  11.175
29146W        W94307  24.115  31.486  12.645
29147W        W94308  14.133  40.949   5.468
29148W        W94309  35.883  44.359   1.681
29149W        W94310   0.272  39.240   2.739
29150W        W94311   7.355  30.110  10.709
29151W        W94312   7.764  10.053   1.229
29152W        W94313   2.848  37.906  10.740
29153W        W94314  28.051  40.785  11.963
29154W        W94315  28.009  12.786   1.759
29155W        W94316   2.041  36.466   1.337
29156W        W94317  23.032  13.080   1.255
29157W        W94318   8.078  12.492  14.795
29158W        W94319  14.708  18.219  14.833
29159W        W94320  16.326  41.806  14.903
29160W        W94321  25.108   2.017  12.267
29161W        W94322  13.012  11.876   2.743
29162W        W94323   3.241  21.020   1.845
29163W        W94324  26.772  32.160  13.994
29164W        W94325  14.017  39.657   4.994
29165W        W94326  44.505  10.078  10.140
29166W        W94327  32.446  16.259   4.209
29167W        W94328   2.553  17.620  11.521
29168W        W94329  38.012   5.230   3.108
29169W        W94330  35.471  16.363  11.594
29170W        W94331  23.155  20.659  11.092
29171W        W94332  29.632  17.775  10.789
29172W        W94333  22.160  30.032  11.631
29173W        W94334  29.201  35.059  11.093
29174W        W94335  32.703  37.267  12.386
29175W        W94336   1.753  35.910  14.574
29176W        W94337  17.509  42.506   2.732
29177W        W94338  21.479  29.111  12.452
29178W        W94339  36.517  33.180  11.951
29179W        W94340  44.377  13.831   3.660
29180W        W94341  11.387  39.393  12.945
29181W        W94342  42.811  10.239  12.542
29182W        W94343  38.571   2.064  12.265
29183W        W94344   8.249  30.316   2.630
29184W        W94345  26.911  15.661  13.486
29185W        W94346   7.810  44.205  12.442
29186W        W94347  16.858  26.414  11.939
29187W        W94348  31.610  28.724  13.797
29188W        W94349   8.221  30.653  11.996
29189W        W94350  28.075  37.136  11.686
29190W        W94351  41.432   3.859  12.044
29191W        W94352  17.265  34.802   3.287
29192W        W94353  34.594  21.232   1.244
29193W        W94354  21.801   6.152  13.433
29194W        W94355  33.464  40.896  12.423
29195W        W94356  18.215  32.917   3.105
29196W        W94357  16.203   2.286  14.307
29197W        W94358  19.011  34.473   1.278
29198W        W94359   7.757  14.510   4.071
29199W        W94360   5.442   2.351  14.916
29200W        W94361   5.855  27.921   3.207
29201W        W94362   8.455   3.291  12.166
29202W        W94363  10.569  18.835  12.872
29203W        W94364  38.326  16.267   1.741
29204W        W94365  40.608  44.712  10.997
29205W        W94366  11.365  24.737   1.896
29206W        W94367  14.907  43.872   5.384
29207W        W94368  39.277  10.261  13.015
29208W        W94369  10.913  25.968  11.136
29209W        W94370  36.490  15.993   4.791
29210W        W94371   0.230   8.232  14.092
29211W        W94372  27.458  18.290   3.885
29212W        W94373   7.060  25.618   2.747
29213W        W94374   5.947  27.606   3.653
29214W        W94375   8.791  24.113   4.701
29215W        W94376   9.558  29.473   3.021
29216W        W94377  12.863  43.788  14.454
29217W        W94378  11.858  44.954   1.427
29218W        W94379  29.166  14.008   3.333
29219W        W94380  26.984   8.544   0.231
29220W        W94381  12.383  27.400  10.375
29221W        W94382  30.683  34.041   4.855
29222W        W94383   8.648  43.409  13.574
29223W        W94384  19.970  37.040   2.258
29224W        W94385  10.202  32.649   0.020
29225W        W94386  26.662  35.748   4.138
29226W        W94387  16.174  26.158  14.327
29227W        W94388  37.930  14.848  14.742
29228W        W94389  37.772   6.235  14.843
29229W        W94390   7.168  23.384  13.507
29230W        W94391  43.669  13.635   0.190
29231W        W94392  29.556  16.296  14.516
29232W        W94393  30.320  15.091   3.244
29233W        W94394   0.916  33.901  14.406
29234W        W94395  17.668  19.148   4.098
29235W        W94396  10.691  21.209  11.170
29236W        W94397  44.732  34.837   4.036
29237W        W94398  29.234  35.693   4.996
29238W        W94399   1.828  19.238   4.534
29239W        W94400   4.430   9.235   2.754
29240W        W94401  29.459  30.440  11.782
29241W        W94402   1.280   7.772   3.338
29242W        W94403  38.077  15.284  12.531
29243W        W94404  34.149  12.652  12.658
29244W        W94405  37.115  34.486  13.583
29245W        W94406   0.536  31.813  14.940
29246W        W94407   8.576  13.328  11.536
29247W        W94408  32.507  27.959   9.867
29248W        W94409  32.067  26.083  14.489
29249W        W94410  11.237  38.779   3.734
29250W        W94411  24.209  37.150   0.643
29251W        W94412  31.154  30.590   2.163
29252W        W94413  30.024  44.749  11.999
29253W        W94414  12.561  16.665  13.041
29254W        W94415  35.600  44.896  12.457
29255W        W94416  10.679   3.238  11.557
29256W        W94417   4.257  41.394  13.366
29257W        W94418  23.077   0.535  12.135
29258W        W94419  10.613  13.561   2.113
29259W        W94420  31.698  32.703   1.691
29260W        W94421   4.967  30.155   0.065
29261W        W94422  37.081  43.184  10.351
29262W        W94423  11.416  18.597   4.629
29263W        W94424  40.229  23.455  12.575
29264W        W94425  32.621  39.019   1.902
29265W        W94426  21.719  31.387   0.412
29266W        W94427  31.165   6.151   2.235
29267W        W94428  17.688  21.137   3.702
29268W        W94429  40.016   0.908  10.590
29269W        W94430  41.475  37.354  12.829
29270W        W94431   1.568  43.736   1.312
29271W        W94432  36.760  19.808  14.834
29272W        W94433  26.601  32.242   0.874
29273W        W94434  29.906  32.290  13.621
29274W        W94435  27.418  40.549  12.509
29275W        W94436  44.154  10.188   2.678
29276W        W94437  34.056  27.723  14.766
29277W        W94438  40.965  12.246  14.790
29278W        W94439  36.810  20.581   3.693
29279W        W94440  14.187   6.844   0.185
29280W        W94441  32.530  23.803   0.294
29281W        W94442  18.021  32.322  14.827
29282W        W94443   9.144  14.854  14.481
29283W        W94444  18.787  21.257  10.855
29284W        W94445  38.806  32.979  13.726
29285W        W94446  32.531  38.166   2.526
29286W        W94447  15.558  16.072  12.601
29287W        W94448   1.309  34.243  14.373
29288W        W94449   8.086   2.422  13.274
29289W        W94450  40.461  28.914  12.284
29290W        W94451  35.080  40.021  14.462
29291W        W94452  42.914  34.982  11.825
29292W        W94453  34.555  12.716   4.357
29293W        W94454   0.007  13.203   2.311
29294W        W94455  10.123  44.422   0.765
29295W        W94456  12.207  19.184   0.024
29296W        W94457  31.130  16.522   2.685
29297W        W94458  33.897   8.296  14.032
29298W        W94459   9.044  37.187  12.496
29299W        W94460  44.523   4.859   2.913
29300W        W94461   2.502  37.286   4.174
29301W        W94462  20.276  39.184   2.012
29302W        W94463   2.951  18.763   1.411
29303W        W94464  44.441  17.001  12.648
29304W        W94465  42.535   9.318  11.986
29305W        W94466  23.191   8.198   0.915
29306W        W94467   8.396  16.829   3.354
29307W        W94468  19.475  34.420  12.445
29308W        W94469  40.477  35.179  13.435
29309W        W94470  12.069  11.857   1.742
29310W        W94471  44.456  41.299  10.914
29311W        W94472  24.495  33.629   4.762
29312W        W94473  44.344  35.986   4.489
29313W        W94474  25.241   1.492  13.973
29314W        W94475   3.212  42.179   3.980
29315W        W94476  31.434  41.177   0.003
29316W        W94477   3.973  44.472   4.158
29317W        W94478  41.155  24.677   2.916
29318W        W94479  32.552  37.801  11.125
29319W        W94480   3.777  20.808   0.816
29320W        W94481   1.984   1.047   1.874
29321W        W94482  23.458  16.803   0.953
29322W        W94483   7.372  30.936   3.899
29323W        W94484  34.587  26.911   3.802
29324W        W94485  36.631   5.693   4.039
29325W        W94486  25.568  43.943   4.453
29326W        W94487   4.765  30.632   0.105
29327W        W94488  17.066  28.426  14.714
29328W        W94489   9.920  41.547  14.106
29329W        W94490  33.344  42.574  13.542
29330W        W94491  25.752  20.765   4.553
29331W        W94492   9.767  38.553   4.116
29332W        W94493  33.380  23.958   3.734
29333W        W94494  41.995  18.096   4.177
29334W        W94495   5.420  23.641   0.722
29335W        W94496  24.909  23.013   0.266
29336W        W94497   6.585  10.369  10.498
29337W        W94498   2.536  28.191  11.538
29338W        W94499  37.827  12.706  11.091
29339W        W94500  20.761  30.608   4.108
29340W        W94501  34.592  24.558   1.315
29341W        W94502  37.658  38.333  12.836
29342W        W94503  23.280  13.818   4.167
29343W        W94504  33.971  43.829  14.957
29344W        W94505  32.358  29.747   4.207
29345W        W94506   7.714  23.447  13.463
29346W        W94507  11.636  25.675   2.386
29347W        W94508  20.275  27.269   2.103
29348W        W94509  26.740  44.901  10.243
29349W        W94510  33.991  44.048   1.074
29350W        W94511  36.787  40.331  10.118
29351W        W94512  38.590  11.201  11.392
29352W        W94513  21.202  23.719   0.956
29353W        W94514  31.325  32.471   0.416
29354W        W94515  23.553  31.907   1.979
29355W        W94516   2.423  16.972   2.281
29356W        W94517  39.342  43.975  13.823
29357W        W94518  44.244  10.609   0.588
29358W        W94519  11.992  36.022  13.201
29359W        W94520  22.084   3.762   0.364
29360W        W94521  35.953  20.784  10.757
29361W        W94522   5.657  19.271   2.723
29362W        W94523  28.552  20.448  12.594
29363W        W94524  18.656   7.628   2.354
29364W        W94525  17.064  44.834   5.349
29365W        W94526  12.581  18.590   3.627
29366W        W94527   4.682  38.500  13.654
29367W        W94528  42.265  41.586   3.089
29368W        W94529  11.971  35.714  11.085
29369W        W94530  27.650  26.070   1.366
29370W        W94531  40.872  30.910   1.264
29371W        W94532  11.423   3.033   3.901
29372W        W94533  34.635  42.351  14.151
29373W        W94534  31.763  36.984   0.366
29374W        W94535   5.966  41.830  14.392
29375W        W94536  16.510   5.395   0.921
29376W        W94537  44.367  13.020  12.845
29377W        W94538  26.146  17.668  14.472
29378W        W94539  37.629  33.863   0.917
29379W        W94540  31.077  15.124  12.022
29380W        W94541  36.877  33.869  12.229
29381W        W94542  11.212   0.661  11.654
29382W        W94543  25.466  32.122  14.015
29383W        W94544  12.616  13.306  11.691
29384W        W94545  18.272   2.113   2.875
29385W        W94546  12.170  28.240  14.956
29386W        W94547  16.244  10.274  12.363
29387W        W94548  27.681   6.312  11.158
29388W        W94549   4.259  21.172  14.556
29389W        W94550  30.162  25.679   2.959
29390W        W94551  17.284  24.284   0.289
29391W        W94552  38.732   2.013  12.745
29392W        W94553  28.494  29.558  11.193
29393W        W94554   1.752  32.548  12.169
29394W        W94555  31.152   2.647   3.238
29395W        W94556  13.377   1.260  10.752
29396W        W94557  14.342   9.815   1.798
29397W        W94558  37.298  25.549   0.190
29398W        W94559   0.727  30.375  13.963
29399W        W94560   0.769  38.975   1.899
29400W        W94561   2.690  29.555   3.264
29401W        W94562  30.394  22.327  10.236
29402W        W94563  17.625  16.259   2.828
29403W        W94564  26.186  22.047  13.537
29404W        W94565  37.678  31.995   5.033
29405W        W94566  34.308  35.438   2.604
29406W        W94567  41.539  42.801   1.357
29407W        W94568  34.897   1.747  14.431
29408W        W94569  18.468  25.735  12.920
29409W        W94570   5.661   9.360   4.585
29410W        W94571  40.041  33.867   1.523
29411W        W94572  26.590  19.734   4.080
29412W        W94573  19.263  34.835   5.192
29413W        W94574  39.867  16.175  11.660
29414W        W94575  44.043  36.338   2.454
29415W        W94576  10.472  18.822   4.116
29416W        W94577  17.834  27.238  14.629
29417W        W94578  16.739   2.551  12.958
29418W        W94579  26.444  41.408  10.305
29419W        W94580   0.679  35.379   3.117
29420W        W94581  10.119   7.789  12.528
29421W        W94582  35.918  13.318  14.877
29422W        W94583  29.883  43.284  14.093
29423W        W94584  37.931   5.874  12.899
29424W        W94585   0.725  44.230  14.490
29425W        W94586  39.418  35.865   3.816
29426W        W94587  15.168   4.133   5.014
29427W        W94588   0.457  26.610   4.667
29428W        W94589  28.033  24.012   1.617
29429W        W94590  11.918  40.294   1.419
29430W        W94591   3.510  24.309   3.008
29431W        W94592  15.816  43.357  12.169
29432W        W94593  12.095  29.598   4.706
29433W        W94594  41.590   7.616   5.020
29434W        W94595  19.550  19.270  12.446
29435W        W94596  38.574  32.094   4.407
29436W        W94597  20.087  15.364  14.920
29437W        W94598  14.028  12.197  10.994
29438W        W94599  21.059  17.169  10.278
29439W        W94600  43.841  19.393  12.077
29440W        W94601  22.679   8.672   4.959
29441W        W94602  43.548  15.753   4.010
29442W        W94603  33.850  34.566  11.028
29443W        W94604  10.160  39.445  13.443
29444W        W94605  31.418  22.179  11.447
29445W        W94606  33.561   5.858  11.448
29446W        W94607  21.021  24.546   2.561
29447W        W94608  32.456  13.134   4.109
29448W        W94609  12.661   6.648  12.911
29449W        W94610   8.367  15.180   0.479
29450W        W94611  29.871  14.200  10.935
29451W        W94612  39.852  18.131   3.283
29452W        W94613  24.126  44.438  13.540
29453W        W94614  22.618  38.131  14.022
29454W        W94615  14.388  12.619  14.849
29455W        W94616  24.680   8.696  12.910
29456W        W94617  10.602  18.640   2.148
29457W        W94618  15.711  10.273  11.146
29458W        W94619  14.109  34.459  14.438
29459W        W94620   1.973  27.586  11.270
29460W        W94621  12.541   4.422   4.583
29461W        W94622  42.408  16.235  14.456
29462W        W94623  33.887  33.335  11.435
29463W        W94624  28.943  15.185  11.828
29464W        W94625  43.489  14.404   1.921
29465W        W94626  43.398  17.197  10.692
29466W        W94627   2.259  33.961   4.369
29467W        W94628  10.677  15.665  10.211
29468W        W94629  18.003   7.697  12.621
29469W        W94630   5.336  19.281  12.917
29470W        W94631  29.880  13.312   4.911
29471W        W94632  28.054   6.398  11.497
29472W        W94633  26.916  14.339  10.046
29473W        W94634   1.812  13.443   4.535
29474W        W94635  38.566  43.398   2.363
29475W        W94636   2.423  38.227   1.933
29476W        W94637  12.143  44.865   0.683
29477W        W94638  43.563   7.374   3.469
29478W        W94639  14.276  28.877   4.228
29479W        W94640  26.678  30.237  14.837
29480W        W94641  16.457  14.304   1.723
29481W        W94642  24.075   6.918   3.786
29482W        W94643  30.848  20.566   2.232
29483W        W94644  34.995   7.194   2.174
29484W        W94645  30.189   4.569   2.834
29485W        W94646   2.907  24.168   4.140
29486W        W94647  39.082  32.037  11.212
29487W        W94648  14.611   4.458  11.942
29488W        W94649  42.521  23.077  12.129
29489W        W94650  25.873  16.529   1.418
29490W        W94651  37.144  18.695   3.248
29491W        W94652  22.418  22.662   2.013
29492W        W94653  23.894  16.980  12.912
29493W        W94654  43.781  38.059   3.121
29494W        W94655   5.740  11.766  12.096
29495W        W94656  40.588  36.356  11.196
29496W        W94657  40.948  36.090  10.192
29497W        W94658   0.777  14.417   2.178
29498W        W94659  28.180  20.297   3.135
29499W        W94660  30.462  11.699   2.385
29500W        W94661  37.017  22.660  13.810
29501W        W94662   7.830   1.175  13.079
29502W        W94663   0.067  14.128   4.652
29503W        W94664  10.215  33.572   3.817
29504W        W94665   6.413  40.408   3.923
29505W        W94666  29.033   7.856   3.249
29506W        W94667   8.020  36.681  14.396
29507W        W94668  32.062   2.156  11.491
29508W        W94669  36.692   6.418  12.938
29509W        W94670  23.685  33.089  11.593
29510W        W94671  28.440   5.319   3.618
29511W        W94672  39.347   8.376  12.682
29512W        W94673  14.251  23.154  12.644
29513W        W94674  41.831  19.065  12.568
29514W        W94675  43.489  39.875  12.919
29515W        W94676  37.078   2.343   4.887
29516W        W94677   4.819  30.687   0.651
29517W        W94678   8.282  38.444   3.099
29518W        W94679  26.297  42.294   4.074
29519W        W94680  34.923  22.786   0.890
29520W        W94681  33.169  10.226   0.173
29521W        W94682  15.198  43.224  12.073
29522W        W94683   1.440  23.539  14.520
29523W        W94684   3.197  44.214  13.971
29524W        W94685  35.054  34.331   5.421
29525W        W94686  35.641  10.708  12.917
29526W        W94687  24.652  16.457   3.230
29527W        W94688  37.049  13.698   0.850
29528W        W94689  17.219  42.923  12.704
29529W        W94690  31.702  13.743   1.886
29530W        W94691  31.625   7.875   3.189
29531W        W94692  29.674   0.505   3.181
29532W        W94693   3.957   6.971  13.393
29533W        W94694  40.232   6.851  11.997
29534W        W94695   0.309  26.155  10.377
29535W        W94696  32.412  35.876   3.843
29536W        W94697  24.568   1.231   2.113
29537W        W94698  44.589  10.793  12.865
29538W        W94699  21.973   3.257   4.579
29539W        W94700  36.227   1.586   9.972
29540W        W94701  15.247  17.097   3.533
29541W        W94702  18.823  21.912   4.112
29542W        W94703  42.541  41.098   2.738
29543W        W94704  34.960  12.407   2.953
29544W        W94705  36.403  40.097   1.699
29545W        W94706  37.323  10.241  10.723
29546W        W94707  26.082  25.936   4.778
29547W        W94708  37.400  21.604  14.026
29548W        W94709   4.307  41.286   3.641
29549W        W94710  11.211  18.777   3.473
29550W        W94711  33.046  37.045   2.721
29551W        W94712  18.806  21.259  13.904
29552W        W94713   4.334  24.802  10.252
29553W        W94714  25.965  38.030  14.983
29554W        W94715   2.185  32.851  13.393
29555W        W94716   7.699  37.958   3.659
29556W        W94717  43.698  38.376  11.462
29557W        W94718   1.713  36.657   5.310
29558W        W94719  39.402   6.667   0.847
29559W        W94720  12.528  22.736  12.427
29560W        W94721  44.716  14.752   4.060
29561W        W94722  24.532  13.709  14.050
29562W        W94723  21.383  21.368  13.850
29563W        W94724  17.198  29.413  11.778
29564W        W94725  17.263  32.400  11.480
29565W        W94726  10.179  44.954  11.448
29566W        W94727   0.946   2.574   0.907
29567W        W94728  23.710  13.576   2.001
29568W        W94729   3.234  16.630   4.087
29569W        W94730  39.724   2.004   2.801
29570W        W94731  35.284   5.319   1.035
29571W        W94732  31.278  34.479   0.468
29572W        W94733  13.349  20.177  11.781
29573W        W94734  32.904  43.808   3.305
29574W        W94735  31.833   9.264  12.960
29575W        W94736  17.824  17.746   3.524
29576W        W94737  39.237   1.102   3.683
29577W        W94738  43.477  34.111   0.907
29578W        W94739  36.113   3.329   1.724
29579W        W94740   3.922  25.007  12.825
29580W        W94741  11.793  21.529   2.256
29581W        W94742   0.985  14.827   1.339
29582W        W94743  33.958   9.520  12.433
29583W        W94744  11.260  40.387   4.662
29584W        W94745  15.829  24.449   1.357
29585W        W94746  21.060  24.981   0.958
29586W        W94747  40.542  14.881   1.984
29587W        W94748  15.545  42.565  12.984
29588W        W94749  38.543  35.541   3.212
29589W        W94750   1.167  43.326   0.443
29590W        W94751  40.541   6.929  11.591
29591W        W94752   8.819  16.222  12.372
29592W        W94753  26.008  18.900   0.347
29593W        W94754  37.359  42.046   3.207
29594W        W94755   5.217  42.314   3.685
29595W        W94756   0.258  15.676   2.161
29596W        W94757  21.402  42.763  13.266
29597W        W94758   3.450  17.033  10.630
29598W        W94759  39.036  40.495   2.681
29599W        W94760  39.768  14.779   0.513
29600W        W94761  29.378  27.593  11.162
29601W        W94762  14.471  39.735   5.236
29602W        W94763  43.915   3.289  13.428
29603W        W94764   7.411   7.828  10.406
29604W        W94765   3.605   1.919   0.800
29605W        W94766   4.545  31.385  13.539
29606W        W94767  33.783  19.581   4.069
29607W        W94768  39.584  10.131   1.567
29608W        W94769  36.267  42.314  14.848
29609W        W94770  22.041  10.089   1.893
29610W        W94771  12.854  42.319  14.345
29611W        W94772   8.408  42.429   2.465
29612W        W94773  25.458  26.952  15.000
29613W        W94774  11.075  33.116  11.073
29614W        W94775  15.443  33.533  11.108
29615W        W94776  14.794  15.690  12.436
29616W        W94777  38.628  19.581  11.571
29617W        W94778  12.816  28.517  11.143
29618W        W94779  17.208  34.820   0.460
29619W        W94780  42.904  13.407  12.953
29620W        W94781  34.151  11.844  13.454
29621W        W94782  38.818  44.849   2.295
29622W        W94783  26.832   3.503  14.661
29623W        W94784   1.181  28.482   2.466
29624W        W94785   5.809   7.035   1.956
29625W        W94786   1.952  42.008  10.757
29626W        W94787  14.881  33.334   2.877
29627W        W94788  20.713  22.176   5.034
29628W        W94789  39.327  28.512  14.322
29629W        W94790   9.589  31.502  12.645
29630W        W94791  36.768  38.367   5.086
29631W        W94792  30.520  16.636  11.579
29632W        W94793  40.860  30.983   2.714
29633W        W94794  26.500  32.389  11.626
29634W        W94795   4.824  33.127  14.293
29635W        W94796  44.946  20.831   2.368
29636W        W94797   6.107  29.103   3.590
29637W        W94798  19.183  35.043   0.402
29638W        W94799  19.234  24.291   0.889
29639W        W94800  29.838  32.793  13.388
29640W        W94801   2.475  12.509  14.347
29641W        W94802  42.560   6.046   3.649
29642W        W94803  41.035   9.359   2.319
29643W        W94804  32.561  21.344   0.343
29644W        W94805  23.273  22.176  11.547
29645W        W94806  31.301  32.089  10.723
29646W        W94807   9.827  11.452   2.280
29647W        W94808  41.442  38.781  13.138
29648W        W94809  31.582  22.013  10.976
29649W        W94810  15.029   4.758   0.483
29650W        W94811  17.314   0.661   1.887
29651W        W94812   3.302  36.267   3.273
29652W        W94813  36.870   4.835  12.517
29653W        W94814  15.765  22.658   4.104
29654W        W94815  31.587  21.943  12.966
29655W        W94816  33.640  37.185   4.573
29656W        W94817  42.722   9.646   2.221
29657W        W94818  18.243  42.377  13.312
29658W        W94819  44.268  39.637  12.614
29659W        W94820  37.910  41.270   4.905
29660W        W94821  40.374  40.354  10.470
29661W        W94822  27.378  39.160  14.093
29662W        W94823  41.104  28.608   0.670
29663W        W94824  33.444  22.209   2.481
29664W        W94825   9.073   9.911  14.259
29665W        W94826  17.473  14.233   0.874
29666W        W94827   6.609  19.961  12.598
29667W        W94828  14.860  33.935  11.460
29668W        W94829   6.595  31.370   1.966
29669W        W94830  44.400  30.101  11.054
29670W        W94831   4.936  25.829   1.779
29671W        W94832  18.143  26.474   3.202
29672W        W94833  40.492  15.662  11.666
29673W        W94834   1.973  37.555   2.251
29674W        W94835   6.927   7.683  12.118
29675W        W94836   5.199  15.116   3.678
29676W        W94837  32.543   9.806   3.030
29677W        W94838  14.376  40.417  12.506
29678W        W94839   1.117  29.934  13.116
29679W        W94840  32.938  17.072   2.758
29680W        W94841  35.490  35.462   2.207
29681W        W94842  21.484  16.657   3.581
29682W        W94843  20.000  35.918  13.039
29683W        W94844  17.559  23.530  13.854
29684W        W94845  11.628  14.996  12.486
29685W        W94846   0.415  22.259  13.949
29686W        W94847  15.656  22.004   4.166
29687W        W94848  26.685  41.738  14.587
29688W        W94849  37.060   5.976  10.837
29689W        W94850  41.849   5.905  14.695
29690W        W94851  44.508  16.270   3.371
29691W        W94852  18.183  26.884   4.149
29692W        W94853  28.578  21.760   1.041
29693W        W94854  27.897  27.453   4.769
29694W        W94855  34.941  11.584  11.999
29695W        W94856  44.612   4.848  13.034
29696W        W94857   6.686  44.738  13.016
29697W        W94858  41.250  41.465  11.513
29698W        W94859  11.820  24.525   1.803
29699W        W94860   8.701  28.489  10.749
29700W        W94861  34.539  43.400  12.520
29701W        W94862   5.650   4.211   1.533
29702W        W94863  39.892   7.695  12.843
29703W        W94864  39.343  33.043  12.504
29704W        W94865  18.255  24.605   1.722
29705W        W94866  40.255  31.564  12.442
29706W        W94867  37.174  42.148   1.288
29707W        W94868  27.931  15.288   2.830
29708W        W94869  23.986  42.750  12.940
29709W        W94870  21.527  21.041   4.645
29710W        W94871  40.496  27.038  14.017
29711W        W94872  40.101   8.865   1.791
29712W        W94873  20.651  13.120   2.819
29713W        W94874  35.392  29.058  12.824
29714W        W94875  32.254   3.234  11.057
29715W        W94876  29.237   3.192  12.097
29716W        W94877   8.422  43.738   0.783
29717W        W94878  32.425  31.461  14.006
29718W        W94879   6.102   4.759   0.503
29719W        W94880   2.533   2.229   2.098
29720W        W94881  36.830   3.858   3.099
29721W        W94882  23.047   4.394  12.869
29722W        W94883  21.185  18.252  11.239
29723W        W94884   6.372  32.415  13.917
29724W        W94885  39.863   4.434   1.245
29725W        W94886  13.800  14.939   2.189
29726W        W94887  22.343  24.981   1.708
29727W        W94888  20.782  22.104   2.719
29728W        W94889  31.957   9.616   3.371
29729W        W94890   9.460  35.981   0.322
29730W        W94891  33.173  38.348   1.278
29731W        W94892  16.208  18.591   1.435
29732W        W94893  34.580   4.306   2.009
29733W        W94894   4.752  10.903   2.961
29734W        W94895  19.513   6.962  13.489
29735W        W94896   3.834  28.722   3.801
29736W        W94897  32.470  34.006   1.667
29737W        W94898   1.521   1.794  14.722
29738W        W94899   6.685   9.570   3.663
29739W        W94900  21.290   9.486  11.822
29740W        W94901  41.863   1.310  14.982
29741W        W94902  15.092  39.157   5.567
29742W        W94903  39.049   7.323  13.379
29743W        W94904  16.311  21.210   3.646
29744W        W94905  10.369   2.355   4.389
29745W        W94906  38.628  19.621   2.695
29746W        W94907   7.270  18.982   1.370
29747W        W94908   9.241   2.319  14.001
29748W        W94909  30.451   9.297   4.884
29749W        W94910   8.702  13.144   3.583
29750W        W94911  30.415  14.774   1.877
29751W        W94912  11.210  19.409  12.561
29752W        W94913  19.105  41.742  14.322
29753W        W94914   6.448  22.137   4.328
29754W        W94915  13.719  37.932   3.177
29755W        W94916  44.817   2.149   1.893
29756W        W94917  30.521  39.013  12.039
29757W        W94918  37.529   1.857  13.349
29758W        W94919  43.423  40.370   2.311
29759W        W94920  39.229  38.942   2.276
29760W        W94921  44.665  20.079   1.880
29761W        W94922  12.835  15.835  13.370
29762W        W94923  32.936  17.141   0.300
29763W        W94924   6.851   1.727  12.968
29764W        W94925   4.286  44.468   2.694
29765W        W94926  33.145   2.643   0.916
29766W        W94927  18.741  18.548   1.323
29767W        W94928  20.082  20.506   1.066
29768W        W94929  20.089  42.136  10.109
29769W        W94930  32.237  34.071  14.365
29770W        W94931  24.494   1.848  14.520
29771W        W94932   7.173  35.448  10.695
29772W        W94933  38.376   4.235  11.216
29773W        W94934  27.537  31.639  11.103
29774W        W94935  34.668  28.648   4.555
29775W        W94936   9.746  33.923   1.948
29776W        W94937   4.946  31.473  11.575
29777W        W94938  17.227  14.635   2.766
29778W        W94939  34.028  41.802  14.336
29779W        W94940   2.803   1.984  13.392
29780W        W94941   2.025  11.657  12.449
29781W        W94942  17.614  34.524   1.595
29782W        W94943  39.809  14.285  13.298
29783W        W94944  25.938  34.114  14.746
29784W        W94945   8.323  22.433   2.504
29785W        W94946  25.737  31.896  13.349
29786W        W94947  30.909   2.170  12.909
29787W        W94948  36.407   8.015  14.481
29788W        W94949  30.389   9.207  14.992
29789W        W94950   0.745  19.359  14.322
29790W        W94951  40.764  36.472  10.533
29791W        W94952   2.233  41.766   0.238
29792W        W94953  38.571   6.653   1.269
29793W        W94954  10.262  44.981  14.891
29794W        W94955  24.106  13.725   0.246
29795W        W94956  39.985   0.941  14.842
29796W        W94957  30.983  41.770   3.263
29797W        W94958  19.661  29.540  13.314
29798W        W94959   3.029  35.282   9.806
29799W        W94960  34.426  34.275   3.191
29800W        W94961   7.219  32.979  14.136
29801W        W94962  30.621  31.180  13.468
29802W        W94963  31.288  20.568   3.312
29803W        W94964  19.601  23.570   1.001
29804W        W94965   1.200  15.841  12.137
29805W        W94966  18.586   4.389  14.598
29806W        W94967  38.865  11.712  12.689
29807W        W94968  10.941  12.357  12.537
29808W        W94969   7.697  34.889  12.708
29809W        W94970  20.259  35.441   2.642
29810W        W94971  40.550   4.323   2.250
29811W        W94972   1.197   7.191  14.960
29812W        W94973  42.257  17.755  14.815
29813W        W94974  18.189  22.996  12.983
29814W        W94975  19.952  20.710   1.966
29815W        W94976  30.875  11.182  12.368
29816W        W94977   2.518   9.319  14.729
29817W        W94978  16.445  43.596   3.301
29818W        W94979   4.204   6.456   3.259
29819W        W94980  28.615   6.036   0.704
29820W        W94981  18.258  32.943   3.619
29821W        W94982   7.387   2.920   2.693
29822W        W94983  29.531   3.444  10.437
29823W        W94984   4.825   3.707   2.589
29824W        W94985  14.621  14.367  12.113
29825W        W94986   3.428  32.115   2.334
29826W        W94987   4.376  40.998  13.063
29827W        W94988  18.571  18.629  13.835
29828W        W94989  28.185  30.373   4.065
29829W        W94990  20.910  39.041   3.644
29830W        W94991  26.206  25.682  10.684
29831W        W94992  40.448  40.269   2.644
29832W        W94993  24.004  34.975   5.070
29833W        W94994  39.591  22.830   0.017
29834W        W94995   2.859  38.267  11.164
29835W        W94996  44.825   4.031   2.580
29836W        W94997  19.544  16.503   2.711
29837W        W94998   1.413  34.088  11.606
29838W        W94999  31.318  11.791  11.678
29839W        W95000  19.302  18.635   3.483
29840W        W95001  42.097  17.023  13.497
29841W        W95002  43.747  19.357   0.300
29842W        W95003  41.440  33.567   3.891
29843W        W95004   7.491  23.936   2.278
29844W        W95005  36.071  37.035  14.346
29845W        W95006   3.449   0.926  11.133
29846W        W95007   7.836  40.746  14.237
29847W        W95008  22.175  33.140   1.720
29848W        W95009   2.718  40.790   3.521
29849W        W95010   5.572  33.352  13.261
29850W        W95011  11.277  13.332  12.423
29851W        W95012   3.009  12.259  11.994
29852W        W95013  10.310  41.899  11.723
29853W        W95014   2.191  19.640  10.171
29854W        W95015  30.868  44.095  14.794
29855W        W95016   5.844  17.800   3.078
29856W        W95017   1.431  24.502   3.523
29857W        W95018  17.732  16.686   1.525
29858W        W95019  41.606  31.784  12.992
29859W        W95020  30.978  29.696   1.792
29860W        W95021   7.717  20.701   0.705
29861W        W95022  10.210   1.720   9.968
29862W        W95023  18.240  27.149  14.938
29863W        W95024  41.984  16.706   1.892
29864W        W95025  11.855   8.608  14.466
29865W        W95026  34.413  15.072   1.786
29866W        W95027  31.096  40.439  11.586
29867W        W95028  30.581  26.107  14.272
29868W        W95029  43.401  16.547  12.048
29869W        W95030   6.809  19.642   2.249
29870W        W95031   0.028  32.347  13.706
29871W        W95032   1.778  20.035   1.291
29872W        W95033  37.496  41.059  11.016
29873W        W95034  43.543  21.540   0.813
29874W        W95035  28.693  16.702  14.866
29875W        W95036  42.264  20.459  11.882
29876W        W95037  40.278   2.423  13.902
29877W        W95038  21.182  26.856   1.375
29878W        W95039  30.244   1.772  14.138
29879W        W95040  15.352   6.352   2.118
29880W        W95041  15.752  44.471   3.567
29881W        W95042  25.649   7.841  12.615
29882W        W95043  27.899  15.724   1.499
29883W        W95044  17.677  21.252  13.117
29884W        W95045  16.154  14.303  10.537
29885W        W95046   5.386   4.969  13.433
29886W        W95047  38.400  24.444  12.132
29887W        W95048  19.698  19.012  12.978
29888W        W95049   5.245  12.793   4.765
29889W        W95050   4.345  29.887  12.880
29890W        W95051  26.760  28.236  12.684
29891W        W95052  40.935  38.612   4.700
29892W        W95053  22.789  29.734  11.124
29893W        W95054   5.394   8.332  11.467
29894W        W95055  20.215  15.226   2.189
29895W        W95056  37.957  40.546  12.570
29896W        W95057  10.708   2.727  11.561
29897W        W95058  17.912   2.593  14.566
29898W        W95059  15.805  16.127   3.315
29899W        W95060  30.655  30.606  14.854
29900W        W95061  44.384   6.844   4.583
29901W        W95062   6.983  21.340   1.295
29902W        W95063  13.203  26.168   4.766
29903W        W95064  20.948  22.636  12.103
29904W        W95065  38.019   5.037   0.637
29905W        W95066   0.839  37.946  14.067
29906W        W95067  21.075  12.134   1.647
29907W        W95068  32.503  18.339  12.865
29908W        W95069  25.581  30.857   3.109
29909W        W95070  23.071   3.227   2.204
29910W        W95071  43.958   2.336  11.515
29911W        W95072  32.599  13.002   3.643
29912W        W95073  44.180  21.022   3.786
29913W        W95074  40.585   4.241  13.208
29914W        W95075   5.613   2.503   3.286
29915W        W95076   0.566  23.102  12.058
29916W        W95077  31.137  36.322   3.477
29917W        W95078  26.712   0.960   4.078
29918W        W95079  37.325  43.364   4.713
29919W        W95080  31.471  10.706   0.530
29920W        W95081  40.237  44.790   4.064
29921W        W95082   4.902  17.332  11.662
29922W        W95083  32.530  12.209  12.035
29923W        W95084  28.051  12.992  14.937
29924W        W95085   2.164  44.330  14.209
29925W        W95086  12.267  30.172   2.605
29926W        W95087   0.295   1.978  11.239
29927W        W95088  33.574  18.055  10.741
29928W        W95089  10.250  20.879  11.191
29929W        W95090   5.353   5.879   3.775
29930W        W95091  16.777  24.584  11.855
29931W        W95092   6.392  34.404  12.058
29932W        W95093  17.718  36.938  14.483
29933W        W95094  18.537  30.181  11.651
29934W        W95095  15.775  23.555  13.471
29935W        W95096   0.927  40.682  10.692
29936W        W95097  29.387  34.444  14.519
29937W        W95098  34.993   1.815   2.006
29938W        W95099   5.033  33.306   1.242
29939W        W95100  27.035  26.989  10.491
29940W        W95101  25.791  33.604   1.833
29941W        W95102  40.002  40.503   2.726
29942W        W95103  15.797  26.994  14.683
29943W        W95104   2.596   9.828  10.789
29944W        W95105  27.573  37.982   0.486
29945W        W95106  28.977  27.158  12.090
29946W        W95107  21.601   5.034   0.398
29947W        W95108  31.845  31.894   1.869
29948W        W95109  44.985  14.201  13.655
29949W        W95110  28.301   5.211  10.169
29950W        W95111  23.781  42.865  13.856
29951W        W95112   8.763   8.540  12.933
29952W        W95113  13.991  22.557   3.788
29953W        W95114  28.193  19.150  12.445
29954W        W95115  44.838  34.821   2.312
29955W        W95116   8.932  17.136   1.815
29956W        W95117  11.287  38.521  12.033
29957W        W95118  19.879  27.644   2.135
29958W        W95119   5.644  21.072  11.628
29959W        W95120  26.669  27.525  14.545
29960W        W95121  29.668  43.337   3.826
29961W        W95122  27.451  25.098  12.088
29962W        W95123  34.828   0.201   2.947
29963W        W95124  28.978   2.744  12.065
29964W        W95125  18.049  36.941  11.700
29965W        W95126  15.803  35.194  11.681
29966W        W95127  24.909  24.624   0.029
29967W        W95128  24.489   6.992   0.354
29968W        W95129   3.470  35.468  11.525
29969W        W95130  16.338   2.870   2.350
29970W        W95131  44.442  40.495   2.293
29971W        W95132  33.835   6.377  12.594
29972W        W95133  43.836  29.499   0.092
29973W        W95134  43.266   2.141  13.251
29974W        W95135  30.497  30.952   1.095
29975W        W95136  40.716  44.285  14.526
29976W        W95137   8.175  26.141  13.785
29977W        W95138   4.965  33.076  10.255
29978W        W95139  37.180   9.635  12.483
29979W        W95140  12.190  25.892   2.304
29980W        W95141  16.395  21.578  14.390
29981W        W95142  14.471  16.137  10.757
29982W        W95143   7.486  14.649   2.716
29983W        W95144  28.665  10.963   5.362
29984W        W95145  39.293  37.789  13.478
29985W        W95146   3.284  16.814   2.701
29986W        W95147  21.587   6.349  11.006
29987W        W95148  43.913  35.137   3.780
29988W        W95149  38.777  39.730   5.011
29989W        W95150  35.653  44.481  12.100
29990W        W95151  13.883  37.340  13.566
29991W        W95152  19.098  10.887  14.345
29992W        W95153  41.141  32.183  13.920
29993W        W95154  24.104   6.143  11.069
29994W        W95155  19.081  12.804  12.238
29995W        W95156  40.067  41.509   4.658
29996W        W95157  17.611  19.558   3.783
29997W        W95158  15.594  15.542  14.306
29998W        W95159   2.937   6.676   0.891
29999W        W95160  32.572  24.516  12.041
30000W        W95161  41.471  43.250  12.863
30001W        W95162   7.665  26.241   2.178
30002W        W95163  18.078   1.823  14.937
30003W        W95164  27.841  21.340  10.422
30004W        W95165  38.466  38.000  10.457
30005W        W95166  10.996  33.469  10.690
30006W        W95167  22.261  15.126   3.705
30007W        W95168  26.599   3.848  10.530
30008W        W95169  25.797  43.885   3.172
30009W        W95170  14.445  21.154   1.499
30010W        W95171  25.103  35.109  14.269
30011W        W95172  12.814  39.214  12.020
30012W        W95173  33.988  16.159  11.518
30013W        W95174  14.281  31.849  14.645
30014W        W95175   7.355  27.418  13.296
30015W        W95176  21.960  40.473  10.704
30016W        W95177   9.838  26.524  14.856
30017W        W95178  16.202  11.367   2.259
30018W        W95179  26.076   6.370   3.043
30019W        W95180  42.776  10.384   0.435
30020W        W95181  34.394  27.927   1.220
30021W        W95182  31.196  25.902   4.461
30022W        W95183  27.060  26.197  14.737
30023W        W95184  36.972   0.667   3.701
30024W        W95185   9.058  17.852  14.968
30025W        W95186  25.298  10.071  10.327
30026W        W95187   8.170  42.382   1.075
30027W        W95188  44.416   1.153  14.252
30028W        W95189  16.996  16.109  13.938
30029W        W95190  41.822   6.968   0.698
30030W        W95191  27.954  31.599   3.688
30031W        W95192  34.681  12.593  13.509
30032W        W95193  11.440  40.838   1.818
30033W        W95194  26.911  32.602   1.132
30034W        W95195  27.945  16.017   0.045
30035W        W95196  24.793   1.272  13.942
30036W        W95197  21.080   8.069   2.080
30037W        W95198  20.570  14.558   3.873
30038W        W95199  22.325  21.267   4.521
30039W        W95200  23.079  40.239  10.717
30040W        W95201  30.604  32.622   3.820
30041W        W95202   5.828  14.578   3.264
30042W        W95203  43.420  24.401   2.216
30043W        W95204  10.804  37.026  11.369
30044W        W95205  35.042  14.264   0.846
30045W        W95206  13.677  40.272  12.035
30046W        W95207  41.099  19.500  14.255
30047W        W95208  26.652  38.267  14.122
30048W        W95209   7.410  29.569   2.798
30049W        W95210  36.142  37.914   3.187
30050W        W95211  34.180  31.798   0.629
30051W        W95212   3.253  38.527   1.379
30052W        W95213   6.475  12.464  12.047
30053W        W95214  10.921  21.244  14.125
30054W        W95215  13.820   1.031  10.831
30055W        W95216  21.148  37.909   2.271
30056W        W95217   3.365  38.461  10.283
30057W        W95218  36.614  30.002  12.002
30058W        W95219  17.843  44.343  12.894
30059W        W95220  31.703  26.528   2.460
30060W        W95221  24.440  39.041   3.055
30061W        W95222  25.063  43.326   2.953
30062W        W95223   0.368  29.539   4.009
30063W        W95224  42.898  19.235  14.049
30064W        W95225  35.849  24.587   0.755
30065W        W95226  17.338   4.654  13.979
30066W        W95227   0.116  43.055   4.052
30067W        W95228  16.885  23.115  14.094
30068W        W95229  21.308  34.046   3.435
30069W        W95230   1.990  23.544  11.147
30070W        W95231  40.067  12.737  13.334
30071W        W95232   8.604  19.646   1.790
30072W        W95233  33.966   5.261   2.382
30073W        W95234  36.253  20.144  11.574
30074W        W95235  29.580  24.682   0.271
30075W        W95236  15.328  41.606   3.705
30076W        W95237   7.837  26.496   3.507
30077W        W95238  10.421   8.265   1.363
30078W        W95239  13.309  22.027  14.357
30079W        W95240  34.603  36.419   2.853
30080W        W95241  20.353  44.355   4.737
30081W        W95242  36.711   0.231   4.040
30082W        W95243   7.484  36.273   2.811
30083W        W95244   1.761  35.689  11.007
30084W        W95245  25.773  38.955   0.513
30085W        W95246  12.629   5.400  12.555
30086W        W95247  11.895  18.558   0.671
30087W        W95248   6.577  37.056  11.519
30088W        W95249  21.617   2.343  13.744
30089W        W95250  10.265  19.130  11.404
30090W        W95251  44.812  32.062   4.837
30091W        W95252  19.627  17.967   0.700
30092W        W95253  36.501  23.764   0.825
30093W        W95254  38.188   3.456   2.807
30094W        W95255   6.435  14.869  11.536
30095W        W95256   9.738  32.386   0.210
30096W        W95257   4.188  23.505   1.390
30097W        W95258  14.107   0.470   0.229
30098W        W95259  43.811  36.924   2.114
30099W        W95260   0.854   6.177   3.665
30100W        W95261  39.457  32.826  12.953
30101W        W95262  22.212  36.461   0.867
30102W        W95263   4.372   9.269   1.191
30103W        W95264   8.285  20.586  14.509
30104W        W95265  22.537  18.666   3.190
30105W        W95266   0.267  21.764  10.444
30106W        W95267  27.591  39.103   0.478
30107W        W95268   2.373  36.975  10.475
30108W        W95269  24.854  41.848  11.434
30109W        W95270  28.968  16.839  12.531
30110W        W95271  36.800  38.334  14.692
30111W        W95272  39.429  41.277   1.826
30112W        W95273  27.044  39.985   4.160
30113W        W95274  33.447  34.058  14.495
30114W        W95275  34.440  42.110  13.154
30115W        W95276   1.067  28.183  14.461
30116W        W95277  14.561  32.569  11.735
30117W        W95278  17.361  44.143   9.792
30118W        W95279  25.029  14.100  11.667
30119W        W95280  13.290   9.769   1.740
30120W        W95281  26.551  36.601   0.529
30121W        W95282  36.077   4.192   1.378
30122W        W95283  28.757  34.465   0.437
30123W        W95284  31.365  34.156  14.571
30124W        W95285  23.002  17.654   4.506
30125W        W95286  31.328   4.364  14.008
30126W        W95287  26.717  17.027  11.538
30127W        W95288  21.336  35.443  11.201
30128W        W95289  13.769  38.721  13.655
30129W        W95290  39.555  24.201   4.874
30130W        W95291  16.566   5.145  13.844
30131W        W95292  19.582  27.706   3.935
30132W        W95293  27.504  41.094  13.396
30133W        W95294  15.716  28.651   3.128
30134W        W95295  19.356  31.988  11.691
30135W        W95296  44.307   0.136  11.284
30136W        W95297  30.179  21.174  10.774
30137W        W95298  16.000  27.504  14.387
30138W        W95299  15.726  16.847  11.154
30139W        W95300  28.994  43.882   1.757
30140W        W95301  38.436  20.196   0.580
30141W        W95302  44.366  44.735   4.228
30142W        W95303  10.313  32.518  10.723
30143W        W95304  21.245  12.200   2.639
30144W        W95305  20.053   2.322  14.503
30145W        W95306   6.669  16.824  11.893
30146W        W95307  14.554  40.414   9.760
30147W        W95308  28.815  26.523   2.074
30148W        W95309  30.935   2.730  12.839
30149W        W95310  21.633  37.271   2.657
30150W        W95311  30.864  29.497   3.175
30151W        W95312  13.831   6.388   4.989
30152W        W95313  23.714  44.247   3.673
30153W        W95314  19.798  14.647   0.831
30154W        W95315   8.148  26.074   2.227
30155W        W95316   5.841  22.531   2.113
30156W        W95317  26.682  19.653  11.819
30157W        W95318  19.278  26.551  12.567
30158W        W95319  15.197  33.332  10.708
30159W        W95320  34.623  16.960  14.096
30160W        W95321  15.986  43.855   2.777
30161W        W95322  34.374   4.060  14.665
30162W        W95323  39.980  35.540   2.286
30163W        W95324  28.180  26.196   2.750
30164W        W95325   9.765   1.236  12.131
30165W        W95326  34.196   8.932   3.239
30166W        W95327   2.909  42.207   0.098
30167W        W95328  21.690  29.170   3.176
30168W        W95329  27.437   6.494  14.828
30169W        W95330  19.139  24.145   1.392
30170W        W95331  38.211  34.880  11.426
30171W        W95332   1.764  26.263  14.914
30172W        W95333  23.645  40.018   3.204
30173W        W95334  22.545  19.355   2.039
30174W        W95335  33.720   6.406  14.097
30175W        W95336  32.649  42.797   2.278
30176W        W95337   1.442  30.937   0.482
30177W        W95338   3.908  38.301  13.748
30178W        W95339   8.194  20.285  14.942
30179W        W95340   0.291  30.989  11.642
30180W        W95341  12.375  21.740   0.837
30181W        W95342  33.572  15.739  11.153
30182W        W95343   1.513  30.648  14.276
30183W        W95344   3.410  26.447   0.893
30184W        W95345  13.912   9.144   2.803
30185W        W95346  27.433   2.868  14.873
30186W        W95347   0.453  31.085  13.364
30187W        W95348  21.978   2.968   2.649
30188W        W95349  19.114  19.856  11.145
30189W        W95350  31.976   6.777  12.348
30190W        W95351   9.949  25.761  11.953
30191W        W95352  32.908  28.925  12.051
30192W        W95353  44.985  14.156   3.688
30193W        W95354  19.502  34.035   2.882
30194W        W95355  22.305  16.298   3.480
30195W        W95356  15.516  10.110  13.103
30196W        W95357  24.698  24.721  13.113
30197W        W95358  17.589  26.636  14.010
30198W        W95359  20.047  28.745  14.731
30199W        W95360  29.135  34.249   4.118
30200W        W95361  33.453  33.793   1.799
30201W        W95362   6.877  32.385   3.208
30202W        W95363   4.685  22.998   0.247
30203W        W95364  38.440  31.612   1.229
30204W        W95365  39.773  24.651  13.946
30205W        W95366  39.516  18.718   3.671
30206W        W95367  14.656  35.924   3.143
30207W        W95368  14.749   4.345   0.341
30208W        W95369  37.324  28.515  10.712
30209W        W95370  14.283  40.913   0.995
30210W        W95371  38.854  41.174  10.980
30211W        W95372  28.967  43.216  11.972
30212W        W95373  22.736  31.167   0.730
30213W        W95374  37.396  14.969   2.105
30214W        W95375  31.486  43.973   4.482
30215W        W95376  43.379  27.557  11.021
30216W        W95377  25.465  25.250   4.925
30217W        W95378  38.093  33.147  14.394
30218W        W95379  27.124  10.316   1.572
30219W        W95380  41.478  41.932   0.357
30220W        W95381  14.823   4.986   3.627
30221W        W95382  31.989  43.802   2.533
30222W        W95383  11.253  34.848   2.782
30223W        W95384  20.586  29.374   1.967
30224W        W95385  40.816   9.907   3.846
30225W        W95386  27.132  10.368   4.066
30226W        W95387  21.272  19.622   1.321
30227W        W95388   7.701  34.536   2.124
30228W        W95389  32.563  32.079   2.546
30229W        W95390  22.652  16.658   2.708
30230W        W95391  16.677   5.827   0.218
30231W        W95392  35.114  24.484  11.065
30232W        W95393   7.465  12.188  12.512
30233W        W95394  18.119  11.969  13.613
30234W        W95395  29.914  27.827   5.659
30235W        W95396  20.244  31.172  12.325
30236W        W95397  16.856  26.692   0.361
30237W        W95398  20.799  20.054  12.905
30238W        W95399  37.479  36.849  13.962
30239W        W95400  21.749  30.920   2.552
30240W        W95401  21.748  23.659  11.794
30241W        W95402  41.799  33.038  13.147
30242W        W95403  41.636  40.363  12.068
30243W        W95404  25.057  31.053   1.831
30244W        W95405  13.553  27.471  14.773
30245W        W95406  17.201  41.428   4.985
30246W        W95407  31.116  34.502   1.866
30247W        W95408  10.422  25.675  11.728
30248W        W95409  12.655  12.876  11.980
30249W        W95410  41.855  31.054  12.107
30250W        W95411   6.257  13.718   3.574
30251W        W95412  16.227  15.130  11.371
30252W        W95413  24.573   0.019   2.766
30253W        W95414  18.197  12.553  10.735
30254W        W95415  13.599  12.076   3.301
30255W        W95416   8.800  14.686   2.450
30256W        W95417  12.915   2.421  14.997
30257W        W95418  10.344  18.525   3.714
30258W        W95419  10.804  27.519   4.629
30259W        W95420  43.894   9.293  11.108
30260W        W95421  13.497  39.936  12.430
30261W        W95422  18.478   3.322  13.490
30262W        W95423  21.822  13.700   0.843
30263W        W95424  13.428  14.210   1.550
30264W        W95425  12.164  15.145  10.377
30265W        W95426  33.516  32.535  12.340
30266W        W95427  22.059  11.610  11.874
30267W        W95428  12.165  24.226  10.540
30268W        W95429   6.795   8.759  14.010
30269W        W95430   8.861  32.757  11.394
30270W        W95431  36.943  19.502   3.773
30271W        W95432  31.681  12.174   1.922
30272W        W95433  11.784  13.970  13.418
30273W        W95434  27.205  15.207   0.291
30274W        W95435  21.036  19.199   0.189
30275W        W95436  35.008   7.538   1.780
30276W        W95437   0.208  34.501   3.134
30277W        W95438  20.615  39.303  14.023
30278W        W95439  35.622  22.100  13.000
30279W        W95440  37.832  41.968   2.336
30280W        W95441   9.654  10.282   1.639
30281W        W95442  14.566  13.645   0.868
30282W        W95443   5.243  11.666  14.653
30283W        W95444   5.580  42.453  14.859
30284W        W95445  18.420  23.480  10.656
30285W        W95446  12.159   2.986  11.691
30286W        W95447  44.058  24.941  13.483
30287W        W95448  28.466   5.969  13.243
30288W        W95449  20.809  39.600  14.965
30289W        W95450  38.382  37.090  10.703
30290W        W95451  36.927  33.592   2.458
30291W        W95452  38.090  15.398  11.564
30292W        W95453   5.426  37.385   2.619
30293W        W95454  36.007  28.287   0.383
30294W        W95455  34.284  39.380   1.096
30295W        W95456   3.836  44.976  13.065
30296W        W95457  20.152  18.683   5.548
30297W        W95458  31.453   4.583  11.244
30298W        W95459  40.718  38.978  12.519
30299W        W95460  27.747  43.300   5.053
30300W        W95461  22.336  21.608  13.567
30301W        W95462   7.383  28.528  13.566
30302W        W95463   3.090   6.694   1.486
30303W        W95464  17.015  20.036  14.216
30304W        W95465  26.147  19.294  12.560
30305W        W95466  44.023  26.066  14.047
30306W        W95467  23.797   7.332   0.873
30307W        W95468  15.774   1.250  12.852
30308W        W95469  12.564  28.191   1.253
30309W        W95470  29.407  42.345   4.334
30310W        W95471   6.169  42.990   2.853
30311W        W95472  21.437   2.340   0.191
30312W        W95473   8.941  16.279   4.844
30313W        W95474  20.250  42.345   0.777
30314W        W95475  25.923  31.051   4.267
30315W        W95476   0.040  19.594  13.891
30316W        W95477  23.144   6.619  11.806
30317W        W95478  32.452   0.904   2.923
30318W        W95479  38.077  32.032   2.141
30319W        W95480   3.887  30.926  10.737
30320W        W95481   6.668  34.475  14.458
30321W        W95482  30.662  24.520   0.248
30322W        W95483   2.225  37.755   1.840
30323W        W95484  24.187  16.152  12.641
30324W        W95485   6.478  41.686   4.981
30325W        W95486   3.863  19.761  12.929
30326W        W95487  36.428  35.953  13.779
30327W        W95488  30.690  23.621  13.609
30328W        W95489  29.939  40.417   4.560
30329W        W95490  41.798   1.923   2.834
30330W        W95491  39.941  29.499   4.805
30331W        W95492  10.839  25.173  14.793
30332W        W95493  35.400  10.376  14.533
30333W        W95494   2.360   7.193  13.907
30334W        W95495   2.396  35.374  13.502
30335W        W95496  19.578  31.009  14.857
30336W        W95497  42.579  33.849   3.707
30337W        W95498  40.234  10.056   0.300
30338W        W95499   9.626   6.646   3.266
30339W        W95500  42.204  37.899   3.088
30340W        W95501   5.762  28.137   4.222
30341W        W95502  18.736  39.932   2.782
30342W        W95503  35.884  12.914  12.000
30343W        W95504  44.738  30.980  13.888
30344W        W95505  20.469  14.783   2.167
30345W        W95506  11.859  22.967   2.219
30346W        W95507  35.642  26.229  14.300
30347W        W95508  21.134  37.386   4.771
30348W        W95509  37.154  15.189   1.265
30349W        W95510  39.157  29.756  13.856
30350W        W95511  22.462  34.430  13.357
30351W        W95512  42.063  40.903   2.702
30352W        W95513  37.316  21.540   1.764
30353W        W95514  22.471  27.253  12.957
30354W        W95515  38.488  41.543  12.447
30355W        W95516   5.252  38.345  12.638
30356W        W95517  20.972   2.962   1.756
30357W        W95518  38.078  13.138  14.061
30358W        W95519  36.327  31.561   2.896
30359W        W95520  14.717   8.027   4.016
30360W        W95521  14.674  12.239   4.205
30361W        W95522  19.259  20.604   2.377
30362W        W95523  26.723  34.029  10.419
30363W        W95524  13.841  10.893   3.563
30364W        W95525  13.862  15.924  13.401
30365W        W95526  13.099  10.339  14.238
30366W        W95527  37.354   3.705   3.026
30367W        W95528  35.145  40.305  13.581
30368W        W95529  31.473  31.703  14.489
30369W        W95530  44.293   6.838  11.696
30370W        W95531  40.574  12.605   0.980
30371W        W95532  14.797  40.969   2.332
30372W        W95533  11.269  32.075  10.407
30373W        W95534  20.533  32.872   0.034
30374W        W95535  31.145  20.510  14.045
30375W        W95536  30.461  42.810   2.745
30376W        W95537  34.565  11.640  10.823
30377W        W95538  28.891   5.344  11.466
30378W        W95539  18.929  35.453   3.102
30379W        W95540  28.249  23.186   3.103
30380W        W95541  33.826  20.701   0.359
30381W        W95542  36.584  38.661  11.963
30382W        W95543  13.969  18.673  14.869
30383W        W95544   5.141   5.675  14.353
30384W        W95545  30.439   1.320   3.173
30385W        W95546  31.422  15.050  12.571
30386W        W95547  33.664  29.926   0.306
30387W        W95548  37.965  17.350   3.215
30388W        W95549  16.347  11.246  12.636
30389W        W95550  22.474  28.102  13.547
30390W        W95551  20.906  34.532  14.347
30391W        W95552  41.223  29.646   0.374
30392W        W95553  34.044  13.618  14.003
30393W        W95554  20.787  34.165   4.367
30394W        W95555  13.588  26.718   3.647
30395W        W95556   6.365  37.809  11.164
30396W        W95557  17.298  32.072   3.216
30397W        W95558  19.041   8.397  12.070
30398W        W95559  24.250  12.754   3.546
30399W        W95560  10.111  32.424   1.811
30400W        W95561  14.402  10.636   0.755
30401W        W95562  12.722  18.125   2.349
30402W        W95563   6.174   9.992  10.672
30403W        W95564  22.996   2.339  11.707
30404W        W95565  15.990  10.397   3.151
30405W        W95566  37.007   1.963   0.772
30406W        W95567  12.694   7.936  12.405
30407W        W95568  21.908  27.624   4.737
30408W        W95569  23.620  34.794  12.054
30409W        W95570   4.814  27.597   4.648
30410W        W95571  42.558  24.229   4.622
30411W        W95572  22.115  24.951   2.694
30412W        W95573  42.836  26.507  11.638
30413W        W95574  39.953  28.910  12.025
30414W        W95575  42.958   2.235   0.440
30415W        W95576  32.810   2.232  13.844
30416W        W95577  20.122  25.038   0.414
30417W        W95578  27.272   2.348  14.344
30418W        W95579  21.428  23.639  14.268
30419W        W95580   3.214  42.457  12.373
30420W        W95581   4.514  20.972  10.761
30421W        W95582  44.367  17.175   2.753
30422W        W95583   7.190  35.461   4.172
30423W        W95584  42.353   2.869   0.915
30424W        W95585  24.563   4.487   3.496
30425W        W95586  19.914  40.435  13.075
30426W        W95587  40.619  39.043   2.743
30427W        W95588  38.108   7.984  12.771
30428W        W95589  15.878   0.006   0.979
30429W        W95590  15.716   3.709   1.738
30430W        W95591  27.932   5.297  10.545
30431W        W95592  37.275  27.495   0.427
30432W        W95593  29.004  11.135   2.013
30433W        W95594  18.203   1.643   2.157
30434W        W95595  27.625  43.044  12.899
30435W        W95596  13.006  39.887   3.225
30436W        W95597   7.309  39.380   0.495
30437W        W95598  32.446  44.985   3.299
30438W        W95599  41.003  38.212   2.774
30439W        W95600  22.229   7.264  11.443
30440W        W95601  34.258  28.955   2.850
30441W        W95602  14.014   2.074  10.758
30442W        W95603  20.204  18.224  14.459
30443W        W95604   0.292  10.837  13.626
30444W        W95605   8.142  19.485   1.662
30445W        W95606  20.720  37.782  13.896
30446W        W95607  42.309  10.084  10.890
30447W        W95608   0.995  24.991  12.900
30448W        W95609  27.733  40.365   2.201
30449W        W95610  17.376  10.883  10.013
30450W        W95611  44.456  42.775   1.986
30451W        W95612  41.025  35.889   5.138
30452W        W95613   1.202  11.452  13.550
30453W        W95614  10.571   9.686   3.303
30454W        W95615  43.587  41.314   0.885
30455W        W95616  15.659  30.853  14.259
30456W        W95617  35.011  41.658  13.465
30457W        W95618  44.140   0.165   0.975
30458W        W95619  38.900  38.057   1.761
30459W        W95620   5.619  29.543  13.958
30460W        W95621  19.625  38.948  14.889
30461W        W95622  38.858  23.158  14.980
30462W        W95623  21.131  11.826   0.411
30463W        W95624  29.997  14.480  13.500
30464W        W95625  29.542   4.289  13.432
30465W        W95626  28.371  11.862   5.003
30466W        W95627  31.895  13.038   3.131
30467W        W95628  27.186   3.157  11.122
30468W        W95629  28.566  15.495   3.733
30469W        W95630  32.654  19.260  10.808
30470W        W95631   0.962   9.194  12.039
30471W        W95632  32.442   0.342   3.724
30472W        W95633  21.668   3.490  14.373
30473W        W95634  24.102  13.832  12.497
30474W        W95635  19.861  14.096  12.085
30475W        W95636  22.983  23.633  10.915
30476W        W95637   4.780  20.190  14.780
30477W        W95638  38.410  44.291   4.777
30478W        W95639   7.829  18.361  13.594
30479W        W95640  13.803  17.123   4.755
30480W        W95641  17.332  20.578   0.402
30481W        W95642   5.119  14.251   4.570
30482W        W95643  35.614  20.479   4.997
30483W        W95644  16.851  27.733  13.836
30484W        W95645  23.634  13.174  14.024
30485W        W95646  34.277  36.565  14.104
30486W        W95647  39.884   6.158   4.573
30487W        W95648  21.060  32.465  12.090
30488W        W95649   8.291  18.605   1.327
30489W        W95650  36.242  18.241   3.987
30490W        W95651  34.890  24.946  11.155
30491W        W95652  28.072  16.603   3.214
30492W        W95653  23.583  41.986  14.051
30493W        W95654  22.554  13.166   2.899
30494W        W95655  21.089  26.606   2.389
30495W        W95656  25.956   1.842   2.692
30496W        W95657  44.234   0.226   4.127
30497W        W95658  36.205   6.244  12.062
30498W        W95659  11.630   5.039  10.984
30499W        W95660  26.595  14.782  12.039
30500W        W95661  27.630   1.465  14.198
30501W        W95662   4.939   8.054  10.627
30502W        W95663  38.033  23.764   3.403
30503W        W95664  29.706   7.343   4.481
30504W        W95665  32.004  19.388   3.253
30505W        W95666  23.146   7.305   0.045
30506W        W95667  33.854   7.941   0.967
30507W        W95668  12.250  35.633  10.665
30508W        W95669  11.259  19.672  14.115
30509W        W95670  18.103   8.423   4.596
30510W        W95671   1.899   5.878  13.580
30511W        W95672  39.505  33.661  10.621
30512W        W95673  23.656  25.756  12.929
30513W        W95674  41.875  19.310   2.259
30514W        W95675  38.108  19.843  14.744
30515W        W95676   4.784   1.636  11.752
30516W        W95677  31.905   2.289  10.631
30517W        W95678  43.485  31.626  10.341
30518W        W95679  30.558  15.798   4.641
30519W        W95680   2.888   8.808  12.066
30520W        W95681  34.054  30.674   4.745
30521W        W95682  15.599   1.710   0.115
30522W        W95683  10.631   0.299   2.291
30523W        W95684  31.579   3.264   3.890
30524W        W95685  38.121  13.647   2.014
30525W        W95686   4.300   9.850  13.044
30526W        W95687  23.341  16.007   3.682
30527W        W95688  14.887  12.181  12.510
30528W        W95689  25.525  38.043  11.932
30529W        W95690  44.506   1.692  11.482
30530W        W95691   1.014  21.637   2.172
30531W        W95692  22.000  18.513   4.196
30532W        W95693   7.805  43.868   4.335
30533W        W95694   5.180  28.329  13.517
30534W        W95695  37.888   4.811   2.815
30535W        W95696  41.329  37.395   3.507
30536W        W95697  24.222  39.126   2.324
30537W        W95698   9.895  13.055  10.829
30538W        W95699  33.626   0.911  12.078
30539W        W95700  42.538  38.405   0.965
30540W        W95701   6.790  18.831  12.871
30541W        W95702  39.735  33.058   0.248
30542W        W95703  21.082  22.930   2.737
30543W        W95704  13.809  16.016  12.078
30544W        W95705  15.830  35.451  12.115
30545W        W95706  15.860  44.001   4.454
30546W        W95707  16.489   3.905  14.398
30547W        W95708  35.967  32.129   3.164
30548W        W95709  23.783  31.543  14.459
30549W        W95710  28.893  42.728  11.698
30550W        W95711   5.512  33.874   0.732
30551W        W95712  25.841  27.423   1.268
30552W        W95713  33.239  44.291  14.091
30553W        W95714  44.798   7.860   4.368
30554W        W95715  14.256  27.214  11.242
30555W        W95716  42.241  33.099  12.855
30556W        W95717   7.826   4.712   2.156
30557W        W95718   0.644  40.307   1.310
30558W        W95719  44.092   3.224  14.953
30559W        W95720   1.530  36.249   5.606
30560W        W95721  42.607   0.840  12.516
30561W        W95722  24.623  32.485  14.914
30562W        W95723  15.638  11.793  10.687
30563W        W95724  13.143   2.409   3.811
30564W        W95725  44.524   2.909   4.747
30565W        W95726  12.652   3.580  14.315
30566W        W95727  28.989   9.303  14.405
30567W        W95728  39.939  14.199   1.710
30568W        W95729   3.082   7.683   5.222
30569W        W95730   3.367  13.152   1.320
30570W        W95731  10.417  10.665   0.860
30571W        W95732  11.744  29.964   0.800
30572W        W95733  24.030  18.993  10.512
30573W        W95734  20.218  11.805   9.871
30574W        W95735   5.933  15.092   3.224
30575W        W95736  16.705  13.432  10.863
30576W        W95737  31.245   1.702   4.524
30577W        W95738   1.044   1.341   0.390
30578W        W95739   3.914  42.068  12.003
30579W        W95740  40.934  28.096   4.909
30580W        W95741  38.086   1.324   4.498
30581W        W95742  22.015  30.041  10.579
30582W        W95743  23.674  25.295   1.457
30583W        W95744  19.397  34.854   3.769
30584W        W95745  32.881  15.454   0.498
30585W        W95746  39.804   0.535   1.886
30586W        W95747  12.784  38.936   0.901
30587W        W95748  39.393  18.688  11.952
30588W        W95749  12.492   0.476   2.790
30589W        W95750  40.925   0.056  13.073
30590W        W95751  41.573   6.236  10.919
30591W        W95752  28.408   5.920   0.236
30592W        W95753  27.399   7.451  12.044
30593W        W95754  37.008   0.325   2.311
30594W        W95755   5.831  36.843   0.912
30595W        W95756  13.161  37.938  12.978
30596W        W95757  39.317  32.503  12.567
30597W        W95758   4.380  42.228  11.348
30598W        W95759  13.332  10.096  12.421
30599W        W95760  43.981  30.868  12.497
30600W        W95761  36.498  19.524   2.203
30601W        W95762  21.315  40.913   2.597
30602W        W95763  36.412  40.810   4.951
30603W        W95764   1.904  11.892  11.114
30604W        W95765  38.245  28.553   4.631
30605W        W95766  40.727  19.331  11.546
30606W        W95767  18.167  34.381   0.243
30607W        W95768  37.305  35.791  11.451
30608W        W95769   0.478   4.819   2.163
30609W        W95770  14.093  20.058   3.105
30610W        W95771  38.602  40.024   0.531
30611W        W95772   3.362  22.611  11.363
30612W        W95773  29.397   7.919   4.003
30613W        W95774  40.777   6.432   4.427
30614W        W95775  13.787  24.941   0.991
30615W        W95776  15.594   0.820  12.622
30616W        W95777  25.441  14.084   2.646
30617W        W95778   3.062  11.790  12.507
30618W        W95779  15.764  34.797   3.992
30619W        W95780  24.078   9.282   3.639
30620W        W95781  14.549  28.947   2.852
30621W        W95782  38.789  30.605  12.885
30622W        W95783  41.103  13.284  14.012
30623W        W95784  13.916  14.155   0.646
30624W        W95785  36.388   7.005   0.718
30625W        W95786  21.268   5.269  11.803
30626W        W95787  29.267  40.826  13.334
30627W        W95788  34.569  17.613   3.892
30628W        W95789  39.156  15.109  10.700
30629W        W95790  26.412  21.617   2.264
30630W        W95791  24.532  38.979   0.765
30631W        W95792   1.272   4.881  12.517
30632W        W95793  28.983  17.320  10.624
30633W        W95794  33.321  27.790  11.422
30634W        W95795   2.906  34.578  11.219
30635W        W95796   5.969  24.726   9.806
30636W        W95797  28.318   3.415  13.589
30637W        W95798  35.791  42.901  14.348
30638W        W95799  18.109  14.440  14.270
30639W        W95800  10.865  38.498  12.928
30640W        W95801  31.947   4.691   2.013
30641W        W95802   7.988  19.304  11.997
30642W        W95803  18.701  17.975  12.909
30643W        W95804   8.818  26.195  13.519
30644W        W95805  14.068  26.664   2.921
30645W        W95806   4.951  23.667  14.259
30646W        W95807  38.071   1.373  10.845
30647W        W95808  29.466  27.210  13.236
30648W        W95809  37.046  41.880   1.890
30649W        W95810  21.682  40.267   3.658
30650W        W95811   4.717   0.673   1.435
30651W        W95812  11.418   4.369  13.872
30652W        W95813  24.983  11.747   3.677
30653W        W95814  12.065  22.060   4.213
30654W        W95815  29.731  26.451   0.282
30655W        W95816   6.442   1.157   4.120
30656W        W95817  42.671   4.743   2.842
30657W        W95818  43.036  25.610   2.788
30658W        W95819  41.958  23.129  14.082
30659W        W95820  27.586  35.792   4.355
30660W        W95821  12.810  15.089  14.571
30661W        W95822  42.407  13.634  13.047
30662W        W95823   0.028  19.432   3.095
30663W        W95824   2.467  37.579   2.908
30664W        W95825  38.763   1.301   0.073
30665W        W95826   2.033  12.396  11.190
30666W        W95827   7.328   4.680   3.120
30667W        W95828  30.910  31.469   0.455
30668W        W95829  12.896  32.111  14.816
30669W        W95830  13.625  29.967  11.473
30670W        W95831   4.271   6.218  10.720
30671W        W95832  40.261   5.177   1.812
30672W        W95833   2.493  18.293   0.451
30673W        W95834   2.677  17.702  14.977
30674W        W95835   8.969  37.845  13.779
30675W        W95836  35.578  34.179  11.022
30676W        W95837  24.491  44.248   0.421
30677W        W95838  32.419  28.986   0.767
30678W        W95839  38.105  38.344  10.634
30679W        W95840  13.282  19.619   3.131
30680W        W95841  12.334   8.586  14.674
30681W        W95842   2.014  22.124  12.424
30682W        W95843  42.032  44.456  10.975
30683W        W95844  14.858   7.519  11.252
30684W        W95845  13.889  12.445   0.673
30685W        W95846   7.943   4.349   0.359
30686W        W95847  16.258  36.973  11.898
30687W        W95848   3.639  12.771  10.248
30688W        W95849  40.955  34.978  11.977
30689W        W95850  19.040  10.832   2.178
30690W        W95851  33.437  43.216   1.852
30691W        W95852  41.387  44.526  12.511
30692W        W95853  17.914  42.412   9.787
30693W        W95854  25.942  11.835   2.632
30694W        W95855  16.802  10.918   2.779
30695W        W95856   6.741  17.142  14.893
30696W        W95857  10.075  38.804   4.550
30697W        W95858  35.775  28.179   0.913
30698W        W95859  11.072   1.266  13.031
30699W        W95860  10.125  19.391  11.811
30700W        W95861  27.939  24.450   5.236
30701W        W95862  30.468  39.858   2.151
30702W        W95863   0.085  34.581  12.994
30703W        W95864   3.600  20.599  11.914
30704W        W95865  38.728  33.801  11.619
30705W        W95866  23.260  42.109  12.374
30706W        W95867  41.931   8.384   4.611
30707W        W95868  42.850  11.309  12.094
30708W        W95869  30.706  13.151  12.962
30709W        W95870  17.181   8.270  11.017
30710W        W95871  15.108  33.863  14.271
30711W        W95872   9.973  43.705   1.840
30712W        W95873  21.248   4.213  11.571
30713W        W95874  13.659  26.468   2.677
30714W        W95875  33.992   7.384  14.017
30715W        W95876  27.883  13.982  11.619
30716W        W95877  31.996  21.071   0.095
30717W        W95878  36.367  21.139   9.918
30718W        W95879  32.590  26.594  12.951
30719W        W95880  30.717   5.304  14.435
30720W        W95881  27.023   0.692   4.647
30721W        W95882  35.566  26.001  13.394
30722W        W95883   6.276  30.577  12.818
30723W        W95884  26.075   0.336   2.922
30724W        W95885   8.871  17.098  13.071
30725W        W95886  23.653   4.149  14.786
30726W        W95887   1.933  29.478  10.188
30727W        W95888  30.462   8.865   0.975
30728W        W95889  41.675  10.200  11.561
30729W        W95890  34.860   6.320   1.995
30730W        W95891   9.820  37.831   2.833
30731W        W95892  12.942  17.666   2.339
30732W        W95893  30.976  21.162  14.804
30733W        W95894  34.864  43.504   2.462
30734W        W95895  39.232  29.661   4.701
30735W        W95896  44.447  29.224  14.877
30736W        W95897   9.787  40.002   4.571
30737W        W95898   2.784   4.717   4.735
30738W        W95899   2.857  32.903   3.625
30739W        W95900  32.451  16.261   3.698
30740W        W95901  39.549   5.228   2.148
30741W        W95902   8.926  25.012   2.695
30742W        W95903  31.853  16.106  11.989
30743W        W95904  22.579  41.260  12.447
30744W        W95905   8.851  14.582   4.587
30745W        W95906  29.976  36.116   4.572
30746W        W95907  37.484  18.662  11.269
30747W        W95908  35.337   2.950   1.958
30748W        W95909  27.230  37.345  13.600
30749W        W95910  31.880  30.113  13.681
30750W        W95911  11.383  34.988   4.633
30751W        W95912  31.222   0.234   3.080
30752W        W95913  11.959  21.983  14.337
30753W        W95914   4.199  12.816   5.566
30754W        W95915   3.150  22.249  13.903
30755W        W95916  40.780  30.615  11.261
30756W        W95917  41.227  41.914  13.556
30757W        W95918   2.630  25.872   0.377
30758W        W95919   1.337  42.798   1.777
30759W        W95920  16.253  24.674   1.705
30760W        W95921  23.029  20.649   0.784
30761W        W95922  44.781   8.354  12.839
30762W        W95923  13.445   0.415   2.721
30763W        W95924   6.693  31.898   4.733
30764W        W95925  19.289  39.522   1.779
30765W        W95926  38.937   8.343   2.748
30766W        W95927  17.134  16.407   2.679
30767W        W95928  41.529   8.611  13.320
30768W        W95929  15.602  32.595  11.980
30769W        W95930   0.013   7.336  11.588
30770W        W95931  11.990   9.125  11.890
30771W        W95932  26.394  31.992   2.713
30772W        W95933  41.201  41.935   0.912
30773W        W95934  10.738   1.161  14.862
30774W        W95935   8.797   1.841   0.453
30775W        W95936  21.169  33.444   5.072
30776W        W95937  12.699   8.690  13.413
30777W        W95938  42.989  21.532  14.042
30778W        W95939  42.716  26.660   3.697
30779W        W95940   8.707  39.332  13.629
30780W        W95941  40.380  19.445  12.577
30781W        W95942  32.104  33.024  11.946
30782W        W95943  19.135   5.341  12.843
30783W        W95944   4.183  14.696  13.640
30784W        W95945  31.904  17.273  14.354
30785W        W95946  13.757  25.868  13.497
30786W        W95947   3.186   2.215  13.097
30787W        W95948   6.257   8.086   0.173
30788W        W95949  37.670  18.840  11.731
30789W        W95950  31.442  11.581   2.740
30790W        W95951  32.609  10.753  12.972
30791W        W95952   4.272  30.362   2.728
30792W        W95953  26.010  19.698   0.968
30793W        W95954  20.254  27.405   2.611
30794W        W95955  44.661  11.844   1.681
30795W        W95956  19.602   2.334  13.128
30796W        W95957  21.293  37.031   4.004
30797W        W95958  31.117  31.953  14.782
30798W        W95959   7.249  29.413  14.336
30799W        W95960  16.086  20.149  14.265
30800W        W95961  11.370  20.087   2.805
30801W        W95962  42.671  10.204   5.095
30802W        W95963  15.233  11.601   1.839
30803W        W95964  20.873  20.184  13.421
30804W        W95965  17.697   3.290   1.302
30805W        W95966  14.786  25.966   0.754
30806W        W95967  36.089  37.759   3.668
30807W        W95968   3.150   1.573   4.477
30808W        W95969  38.521  11.685   3.735
30809W        W95970  26.907  10.864  14.729
30810W        W95971  35.843  10.744   3.611
30811W        W95972  43.304  15.613   2.637
30812W        W95973  19.374  20.324  13.378
30813W        W95974  42.226  23.626  12.514
30814W        W95975  14.763  40.041   3.087
30815W        W95976   5.678  24.643   0.494
30816W        W95977  10.362  36.780  11.575
30817W        W95978  27.510  30.597   1.470
30818W        W95979  15.736  33.019   0.055
30819W        W95980  27.558  22.641   4.996
30820W        W95981  31.613  16.725   2.380
30821W        W95982  28.622  33.995  14.413
30822W        W95983  13.384  34.989   2.859
30823W        W95984   8.997   4.902   2.745
30824W        W95985  17.107   2.978  11.290
30825W        W95986  15.744  19.445  14.426
30826W        W95987  44.404  39.130  10.750
30827W        W95988   1.031  29.928   2.844
30828W        W95989  27.433  36.942  14.469
30829W        W95990  23.594  40.832   4.322
30830W        W95991  10.673   0.737  13.781
30831W        W95992  21.242  33.677  11.582
30832W        W95993  11.543  10.399  14.939
30833W        W95994   6.609   4.380   3.586
30834W        W95995   8.275  24.306   0.662
30835W        W95996   2.888  19.039  11.632
30836W        W95997  23.046  39.380  12.797
30837W        W95998  29.167  42.521  14.479
30838W        W95999  37.123  27.871   2.979
30839W        W96000  23.356   9.649   4.492
30840W        W96001  26.003  26.571   1.815
30841W        W96002  34.404   2.382   4.474
30842W        W96003  38.256  13.799   4.619
30843W        W96004  12.407  42.040   0.398
30844W        W96005  15.051   6.216  14.035
30845W        W96006  11.280  29.381  10.963
30846W        W96007  35.966  27.566  11.013
30847W        W96008  28.934   8.921   3.263
30848W        W96009   8.235   9.142  14.914
30849W        W96010  35.933  21.152  12.732
30850W        W96011   2.927  35.949   0.361
30851W        W96012   1.009  19.238   4.096
30852W        W96013  25.359  10.103   1.776
30853W        W96014  35.384  28.505   1.092
30854W        W96015   1.033   7.254   4.534
30855W        W96016   9.024  40.715  13.349
30856W        W96017  21.719  25.451   1.237
30857W        W96018   3.361   8.766  11.841
30858W        W96019   9.420  18.980  13.282
30859W        W96020  44.345  34.349  13.832
30860W        W96021  32.896  11.186  13.087
30861W        W96022  21.191  35.285   0.943
30862W        W96023  10.908  33.529  13.968
30863W        W96024   0.073  26.658   0.436
30864W        W96025   6.845  21.126   4.276
30865W        W96026  38.364  14.357   0.927
30866W        W96027  15.147  36.517  10.665
30867W        W96028   1.863   9.559  11.564
30868W        W96029  14.620   2.898   0.251
30869W        W96030  10.896  14.405  11.905
30870W        W96031  35.779  16.226   0.844
30871W        W96032  36.088  23.035   4.105
30872W        W96033   7.849  39.691   1.320
30873W        W96034  10.790  26.529  12.802
30874W        W96035  42.330  26.002  10.754
30875W        W96036  28.652  43.688  11.443
30876W        W96037  31.467   3.875  13.869
30877W        W96038   4.697  10.771   1.742
30878W        W96039  28.128  22.270   0.294
30879W        W96040  27.131  24.784   3.690
30880W        W96041  26.149   7.152  12.456
30881W        W96042  34.327  23.254   1.983
30882W        W96043  14.982   4.286   3.735
30883W        W96044  33.884  36.918  14.117
30884W        W96045   0.680  29.347   1.663
30885W        W96046   5.049  17.541  11.209
30886W        W96047   1.874  16.473   1.766
30887W        W96048  10.402  33.182   4.660
30888W        W96049  28.773  36.929   4.113
30889W        W96050  24.283  32.528   2.348
30890W        W96051  10.807  14.103  14.811
30891W        W96052  28.583  43.507   1.748
30892W        W96053  40.944  22.138   4.814
30893W        W96054   5.887  13.920   1.203
30894W        W96055  37.530  11.087  13.482
30895W        W96056   9.381  11.746   1.297
30896W        W96057   6.465  39.718  11.027
30897W        W96058  13.709   3.541  12.157
30898W        W96059  22.664  44.887   1.243
30899W        W96060  43.527  16.773  14.342
30900W        W96061  28.651  21.272  13.008
30901W        W96062  27.042  18.371   1.724
30902W        W96063   8.468  14.698   2.868
30903W        W96064  15.770  32.111   1.973
30904W        W96065  38.582  29.031   4.619
30905W        W96066  26.464  36.071  14.246
30906W        W96067   6.355  43.878   2.196
30907W        W96068  17.069   0.395   3.791
30908W        W96069  21.128  34.624  10.369
30909W        W96070  20.912  32.031   4.989
30910W        W96071  41.152   3.398   0.408
30911W        W96072  32.472  42.862  11.987
30912W        W96073   1.749  34.037  14.676
30913W        W96074   2.702  26.700  13.784
30914W        W96075  35.474  16.782  12.614
30915W        W96076  14.828  34.933  11.652
30916W        W96077  25.427  39.644   4.523
30917W        W96078  18.366  28.630  13.050
30918W        W96079  22.523  40.477   1.891
30919W        W96080   1.247  17.734  12.691
30920W        W96081  30.675  39.045   2.807
30921W        W96082  30.178   8.245   4.170
30922W        W96083  20.619  13.345   3.307
30923W        W96084  37.411   7.418   0.477
30924W        W96085  10.686  25.605  14.492
30925W        W96086  29.907  30.732  11.826
30926W        W96087  17.072  25.539   5.060
30927W        W96088  25.903  24.445  11.198
30928W        W96089  34.643  23.638  14.414
30929W        W96090  20.141   5.028   2.773
30930W        W96091  40.053  23.226  14.292
30931W        W96092  16.546  32.138  11.478
30932W        W96093   1.406  16.323  11.956
30933W        W96094  27.344   3.495  10.774
30934W        W96095  36.076  26.752  12.021
30935W        W96096  27.595  12.834  13.776
30936W        W96097  23.998  38.366  11.687
30937W        W96098   6.483  40.335   0.378
30938W        W96099   1.777  24.389  14.297
30939W        W96100  18.193  14.039  13.948
30940W        W96101  14.558  22.194   1.593
30941W        W96102  14.436  35.299  12.030
30942W        W96103   0.995  23.564  14.242
30943W        W96104   4.333   0.328  10.659
30944W        W96105  13.466   1.416   0.336
30945W        W96106  28.551  17.057   0.236
30946W        W96107   1.352   0.280  13.322
30947W        W96108  28.373  10.587   5.042
30948W        W96109  40.649  16.301  13.711
30949W        W96110  24.001  44.410   0.367
30950W        W96111  43.387  33.823  12.013
30951W        W96112  17.532   6.314   3.319
30952W        W96113  10.188  32.149   4.496
30953W        W96114  10.837  10.049  10.459
30954W        W96115  42.757   4.431   0.306
30955W        W96116  34.002  29.618   4.613
30956W        W96117  38.378   9.655   1.750
30957W        W96118  36.890  37.999  14.022
30958W        W96119  27.730   8.692  12.481
30959W        W96120  42.527  14.618  11.499
30960W        W96121  19.169  22.206   1.946
30961W        W96122  42.046  24.568   3.364
30962W        W96123  12.631   1.666   3.115
30963W        W96124  38.928  37.049   1.811
30964W        W96125   9.557  13.205   0.444
30965W        W96126  34.414  42.224   0.454
30966W        W96127  36.819  18.972  10.976
30967W        W96128  14.425  10.130   0.862
30968W        W96129  16.604   4.278  14.023
30969W        W96130   7.480  25.325   3.319
30970W        W96131   0.659  32.510  14.860
30971W        W96132  24.628  24.390   3.751
30972W        W96133  34.133  10.073  13.387
30973W        W96134  28.491  10.191  13.247
30974W        W96135  13.355  26.434   5.188
30975W        W96136  34.514  39.786  12.473
30976W        W96137  34.617   9.812  11.992
30977W        W96138  10.208   1.378   0.854
30978W        W96139  14.318  41.438   3.720
30979W        W96140  30.916  39.833  13.414
30980W        W96141  34.640   1.099  13.389
30981W        W96142  36.064  11.284   1.876
30982W        W96143  35.981  28.000   2.368
30983W        W96144  18.688  27.233   0.291
30984W        W96145  17.223  43.341   4.677
30985W        W96146  11.211  25.230  12.961
30986W        W96147  41.803  39.087  11.873
30987W        W96148  31.594  24.948   2.653
30988W        W96149   7.331  41.981   4.454
30989W        W96150  43.734  38.646   4.176
30990W        W96151   2.204  38.888   0.005
30991W        W96152   8.381  31.332  13.395
30992W        W96153  11.567   8.905  14.790
30993W        W96154   2.668  13.500   2.292
30994W        W96155  15.212  43.783  12.622
30995W        W96156  19.175  26.226   4.993
30996W        W96157  33.056  14.723   0.801
30997W        W96158  17.826   0.064   4.934
30998W        W96159   2.288  13.676  12.005
30999W        W96160  42.348  38.377   3.250
31000W        W96161  22.755   8.267  10.689
31001W        W96162  26.708  15.714   0.031
31002W        W96163  15.856  33.194   3.653
31003W        W96164  26.231   6.344  11.837
31004W        W96165  10.630   7.820  12.568
31005W        W96166  34.582   1.245  13.959
31006W        W96167   8.800   9.678   0.186
31007W        W96168  30.862   1.242  13.055
31008W        W96169   7.718  37.141   0.099
31009W        W96170  21.241  25.397   2.845
31010W        W96171  26.201  22.107   1.188
31011W        W96172  14.065   1.827  13.489
31012W        W96173  32.651  11.577  14.830
31013W        W96174   2.194  32.536  12.949
31014W        W96175   7.216  39.087  10.659
31015W        W96176  36.106  41.279   0.840
31016W        W96177  18.061  25.154   3.326
31017W        W96178  26.734  10.134   2.751
31018W        W96179  31.855  43.458  12.861
31019W        W96180  44.427  16.057  11.138
31020W        W96181  29.941  25.088  13.891
31021W        W96182  18.628  33.198  14.446
31022W        W96183   6.830  33.729   1.333
31023W        W96184   2.726  38.220   5.466
31024W        W96185   5.313   0.738  14.083
31025W        W96186  39.285   4.729   2.685
31026W        W96187   7.802   9.823  12.127
31027W        W96188  14.625  13.737   1.794
31028W        W96189  15.534  16.871  10.259
31029W        W96190  24.060   9.543   2.924
31030W        W96191  29.513  24.305  13.885
31031W        W96192  17.286  41.404  14.322
31032W        W96193   1.430   7.282   4.154
31033W        W96194  36.378  27.379   4.328
31034W        W96195  16.648  12.497   3.135
31035W        W96196  34.575  10.970   4.102
31036W        W96197  28.879   8.736   4.434
31037W        W96198  40.860  40.514   2.393
31038W        W96199  20.990  40.308  14.832
31039W        W96200  29.096  25.467   4.191
31040W        W96201   5.301   6.765  12.190
31041W        W96202  22.255  31.605   1.693
31042W        W96203  35.600  26.707   0.878
31043W        W96204  40.845  24.144   0.451
31044W        W96205   1.431  15.328  13.900
31045W        W96206  30.517  37.821  12.458
31046W        W96207  16.796  17.696   2.719
31047W        W96208  36.150  30.577   1.840
31048W        W96209   3.507  39.883   2.654
31049W        W96210  36.069  39.978  10.487
31050W        W96211   1.868  43.098  12.057
31051W        W96212  34.421   2.509  13.914
31052W        W96213  30.733  26.254   2.916
31053W        W96214  15.993   3.980  10.960
31054W        W96215   6.356   6.615   4.515
31055W        W96216  26.480  28.514  11.975
31056W        W96217  28.833  31.148  10.981
31057W        W96218  23.205  32.521   0.450
31058W        W96219  34.054   9.122  11.378
31059W        W96220  29.105  44.795   4.110
31060W        W96221  19.736  10.315  11.075
31061W        W96222   8.297  44.214   3.713
31062W        W96223  18.318  36.610   2.724
31063W        W96224  37.369   7.490  12.653
31064W        W96225  25.902   0.329  13.113
31065W        W96226  41.826  17.071  14.344
31066W        W96227  14.178  36.289   0.749
31067W        W96228  21.098  17.099   5.599
31068W        W96229  15.995   6.929  14.984
31069W        W96230  33.819  15.708  13.503
31070W        W96231   0.849  14.063   0.678
31071W        W96232  11.664  36.412  11.611
31072W        W96233   2.464   3.000  14.823
31073W        W96234  17.854  23.790  13.420
31074W        W96235   3.355  41.230   4.054
31075W        W96236  38.875   9.350   0.777
31076W        W96237   8.923  21.595   0.782
31077W        W96238   3.925  32.968   2.273
31078W        W96239   7.046  22.688  12.764
31079W        W96240  26.576  11.548  12.249
31080W        W96241   6.845  32.070  10.595
31081W        W96242  16.104  40.495   1.362
31082W        W96243  12.976  25.006   0.323
31083W        W96244  18.971  39.839   5.703
31084W        W96245   8.236   8.387   1.763
31085W        W96246  34.492   4.567  13.838
31086W        W96247  24.776  26.362  10.719
31087W        W96248  44.300  23.535   3.749
31088W        W96249  44.342  31.131   1.711
31089W        W96250  26.438   1.726   2.798
31090W        W96251  41.490  35.117   0.855
31091W        W96252  25.434  39.791  13.117
31092W        W96253  40.397  10.457  14.056
31093W        W96254  27.727  37.926  10.236
31094W        W96255  27.719  19.236   4.557
31095W        W96256  29.991  23.941  12.573
31096W        W96257  36.288  28.922   2.900
31097W        W96258  33.465  23.250   2.341
31098W        W96259  42.012  34.380   2.387
31099W        W96260  18.604   4.655  12.592
31100W        W96261   2.464  18.270   2.421
31101W        W96262  32.057  41.456  13.371
31102W        W96263  36.498  37.327  10.498
31103W        W96264  25.873  25.926  13.492
31104W        W96265  33.264  14.610   2.197
31105W        W96266  14.722  33.732   4.182
31106W        W96267  16.706  18.103   2.397
31107W        W96268   9.206  18.909   4.668
31108W        W96269  30.185  33.048   3.265
31109W        W96270   1.190  32.393   2.382
31110W        W96271   6.661  15.566   4.644
31111W        W96272  16.703  24.133   2.858
31112W        W96273  41.277  14.858  11.213
31113W        W96274   5.437  41.249   1.474
31114W        W96275  23.341  11.229   9.703
31115W        W96276  44.944  19.080   2.722
31116W        W96277   6.444  29.720  14.402
31117W        W96278  33.460   8.988   2.198
31118W        W96279  28.920  13.379   0.542
31119W        W96280   2.429  38.530  11.133
31120W        W96281  35.165   0.645   3.184
31121W        W96282   4.362  21.108  12.151
31122W        W96283   8.134  14.696  12.174
31123W        W96284  14.972   9.291   2.957
31124W        W96285   0.979   7.304   0.432
31125W        W96286   5.319  37.519  11.876
31126W        W96287  20.574  12.804  13.714
31127W        W96288   6.158  14.043   2.332
31128W        W96289  19.523  22.979  10.582
31129W        W96290  44.309  36.587   2.802
31130W        W96291  23.585  36.745   4.501
31131W        W96292   2.893   6.750  14.311
31132W        W96293  38.216  29.106   1.006
31133W        W96294  31.347  28.593  14.205
31134W        W96295  20.531  35.915   1.271
31135W        W96296  19.615  23.721  12.549
31136W        W96297   6.505  36.479  13.559
31137W        W96298   4.669  27.835   1.768
31138W        W96299  10.715  33.800   0.118
31139W        W96300  10.259   2.217  14.464
31140W        W96301   9.562   9.601   2.237
31141W        W96302  20.798  31.505   0.809
31142W        W96303  42.311   0.658  11.924
31143W        W96304  19.339  34.449  14.779
31144W        W96305   8.223  17.513  14.413
31145W        W96306  31.790  23.590  13.769
31146W        W96307  39.928  36.615  12.186
31147W        W96308   7.815  38.327  11.485
31148W        W96309  18.949  26.612  10.727
31149W        W96310  38.905  29.065  12.009
31150W        W96311  29.885  16.665   2.176
31151W        W96312  42.534   8.839   1.214
31152W        W96313  33.102  32.391   0.629
31153W        W96314  21.066   0.449  13.059
31154W        W96315  13.765  33.083   0.314
31155W        W96316  40.721  18.089   1.343
31156W        W96317   2.169  15.688  12.140
31157W        W96318  35.054  25.675  14.619
31158W        W96319  32.922  33.260   1.185
31159W        W96320  23.320   8.493   1.327
31160W        W96321  18.521  18.062   4.339
31161W        W96322  24.392  25.574  11.098
31162W        W96323  37.164   3.930  12.089
31163W        W96324   9.135  38.396   1.982
31164W        W96325  37.320  30.355   4.840
31165W        W96326  12.613  36.986   4.772
31166W        W96327  43.014   3.157  13.400
31167W        W96328   5.813  18.339   3.064
31168W        W96329  19.856  10.563  12.553
31169W        W96330  31.628  27.732   9.622
31170W        W96331  34.722   2.161  13.689
31171W        W96332   6.562  15.961   0.890
31172W        W96333   8.409  21.610   0.479
31173W        W96334  19.147  17.848  10.719
31174W        W96335  32.986  44.773   0.978
31175W        W96336  11.807  22.944  12.953
31176W        W96337  26.604  11.121  13.902
31177W        W96338  40.894  17.147  10.819
31178W        W96339  19.169  31.591  10.744
31179W        W96340  24.053  34.066   1.262
31180W        W96341  32.937  28.676   2.991
31181W        W96342  21.200  11.314   4.145
31182W        W96343  11.178   7.180   4.537
31183W        W96344  39.616  12.671   3.624
31184W        W96345  33.312   0.137  10.510
31185W        W96346   3.738  37.646   4.657
31186W        W96347  41.255   3.149  13.485
31187W        W96348   7.366  37.688  11.011
31188W        W96349   1.168  38.952  13.665
31189W        W96350  31.446  44.637  14.433
31190W        W96351  43.099  44.381   1.852
31191W        W96352  28.663  28.488   0.825
31192W        W96353  32.896   3.857  11.038
31193W        W96354  22.022  16.876  13.406
31194W        W96355   8.378  24.839   0.558
31195W        W96356  34.462   2.900   3.202
31196W        W96357  28.155   6.368  14.507
31197W        W96358   0.009   5.000   2.804
31198W        W96359   8.938  22.675  14.071
31199W        W96360   5.290   4.648  14.519
31200W        W96361  12.196  22.613   3.000
31201W        W96362   9.088   9.832   2.172
31202W        W96363  28.600  10.838   1.876
31203W        W96364  13.448  44.935  11.949
31204W        W96365  39.348  40.763   1.736
31205W        W96366   4.959  24.490  11.177
31206W        W96367  16.422  17.841  10.944
31207W        W96368  22.946  19.533   2.318
31208W        W96369  10.860   6.129   2.229
31209W        W96370   9.882  37.057   3.268
31210W        W96371   6.750  16.082  12.797
31211W        W96372  20.953   8.777  12.475
31212W        W96373  16.219  10.440  12.840
31213W        W96374   2.444  22.615  14.407
31214W        W96375  28.980  42.400  10.857
31215W        W96376  38.775  11.174  13.940
31216W        W96377  23.152   7.222   0.925
31217W        W96378   0.498  12.113   2.673
31218W        W96379  38.344  32.326  14.322
31219W        W96380   3.281  33.692   0.978
31220W        W96381   0.834  17.423  12.507
31221W        W96382  18.113   5.707   1.803
31222W        W96383  19.649  41.803   4.475
31223W        W96384   2.353   3.830  11.532
31224W        W96385  44.978   4.430  14.453
31225W        W96386  30.284  27.591  14.932
31226W        W96387   4.932   6.855  13.437
31227W        W96388  38.890  25.934  14.118
31228W        W96389   0.930  32.145  12.135
31229W        W96390   8.464  44.317  10.343
31230W        W96391  33.153  27.466  14.840
31231W        W96392  38.957  10.866  11.475
31232W        W96393   9.919  39.421  14.792
31233W        W96394  22.600   5.845   1.757
31234W        W96395  43.281  43.799  14.984
31235W        W96396  28.104  41.590  14.828
31236W        W96397   5.773  11.593   0.753
31237W        W96398  33.953  42.234  13.409
31238W        W96399  22.018  27.169  10.579
31239W        W96400  29.093  17.318   1.907
31240W        W96401  29.276   1.836   1.749
31241W        W96402  26.095  15.700  10.975
31242W        W96403  43.659  42.567   4.587
31243W        W96404  40.877   4.227   4.807
31244W        W96405  29.493  21.483  13.362
31245W        W96406  20.071  14.671  14.326
31246W        W96407  24.746  31.388  12.964
31247W        W96408  42.397  11.413   4.156
31248W        W96409  11.268  41.956  12.423
31249W        W96410  30.369  15.946   3.090
31250W        W96411  30.440  39.230   0.984
31251W        W96412  26.837  31.928   1.845
31252W        W96413  11.321  44.746   3.715
31253W        W96414  20.138  41.480  14.823
31254W        W96415  23.448  34.231  12.414
31255W        W96416  37.068  44.984  13.533
31256W        W96417  17.265  34.342  11.021
31257W        W96418   4.642  22.183  13.489
31258W        W96419  22.959  30.302  11.377
31259W        W96420  25.166  28.646   3.078
31260W        W96421  27.401  30.397   3.402
31261W        W96422   8.231   4.703  12.952
31262W        W96423  42.463  37.591   4.491
31263W        W96424   4.018  11.427   2.437
31264W        W96425   7.415  20.861  14.356
31265W        W96426   3.558   2.722   0.401
31266W        W96427  20.673  20.642   0.364
31267W        W96428  33.391   8.461   3.754
31268W        W96429   9.785  27.477  12.814
31269W        W96430  37.018  26.267   4.568
31270W        W96431  41.974  21.292  10.815
31271W        W96432   9.343   2.594   0.510
31272W        W96433  32.183   1.918   2.165
31273W        W96434   7.205  28.901   2.250
31274W        W96435  33.649  19.566   2.724
31275W        W96436  34.127  37.015   5.438
31276W        W96437   1.634  28.213   4.663
31277W        W96438  29.462  17.787   2.768
31278W        W96439   4.465  30.972  13.880
31279W        W96440  42.598  29.574  11.027
31280W        W96441   8.724  25.992  12.908
31281W        W96442  40.820   7.456  13.773
31282W        W96443  33.040  31.316  14.891
31283W        W96444  37.563  31.859   1.256
31284W        W96445   8.761   0.200  10.329
31285W        W96446  13.710  38.561   3.663
31286W        W96447  42.015  40.965   2.156
31287W        W96448  11.882  16.645   4.229
31288W        W96449  22.163   5.012  14.791
31289W        W96450  41.804  28.141   3.232
31290W        W96451  30.586  33.623   1.771
31291W        W96452  11.119  39.344   0.864
31292W        W96453   7.066  37.060  11.491
31293W        W96454  16.033   2.307  10.696
31294W        W96455   2.006   4.960   1.332
31295W        W96456  31.544  27.824  11.247
31296W        W96457  35.928   2.270   1.400
31297W        W96458   4.126  37.536  11.684
31298W        W96459  24.290  23.689  12.833
31299W        W96460  44.031  14.794  12.048
31300W        W96461  18.146   5.162  13.388
31301W        W96462  10.684   4.385  10.469
31302W        W96463  18.312  35.164  11.896
31303W        W96464  44.388  17.724   2.681
31304W        W96465  29.320  37.707  14.014
31305W        W96466  24.377  16.839  11.273
31306W        W96467  34.150  29.388  11.841
31307W        W96468  35.197  17.710   0.315
31308W        W96469  29.987   2.604  11.944
31309W        W96470  18.194  28.876  13.930
31310W        W96471   1.309  12.824  12.503
31311W        W96472   9.752  23.177  14.194
31312W        W96473  22.594  38.538   3.690
31313W        W96474   9.344  35.376   2.395
31314W        W96475  40.011  19.294  14.004
31315W        W96476  28.711  28.068   2.225
31316W        W96477   3.585  10.708   2.455
31317W        W96478   6.773  17.134  13.386
31318W        W96479  26.545  12.047   3.229
31319W        W96480  28.743   6.043  10.533
31320W        W96481   3.653  25.482   4.625
31321W        W96482  36.969  29.891   0.660
31322W        W96483  37.041  28.171  12.475
31323W        W96484   6.035  24.125  10.679
31324W        W96485  26.199  35.515   0.425
31325W        W96486  10.064   1.314  14.478
31326W        W96487  41.364  41.153  13.999
31327W        W96488  19.088  33.773   2.167
31328W        W96489   5.666  18.758   3.373
31329W        W96490   3.970  21.293  11.367
31330W        W96491   6.758  10.132   2.216
31331W        W96492   0.145  18.874   3.583
31332W        W96493  17.510  14.804   1.176
31333W        W96494   0.567  24.833  12.647
31334W        W96495   9.145  27.799  11.593
31335W        W96496  36.829  37.627  13.296
31336W        W96497  24.547  10.908  13.553
31337W        W96498   3.702  40.716   3.161
31338W        W96499  42.558  14.158   1.869
31339W        W96500  42.453  14.550   4.147
31340W        W96501  24.762  32.421  12.053
31341W        W96502  29.537   6.402   2.938
31342W        W96503  11.812  25.829   1.482
31343W        W96504  15.825  25.014  12.499
31344W        W96505  41.600  21.981  14.710
31345W        W96506   8.961  40.218   1.060
31346W        W96507   5.218  38.988   1.201
31347W        W96508  35.613  16.784   0.297
31348W        W96509  25.551  14.950   2.813
31349W        W96510  23.002  23.921  12.544
31350W        W96511  17.109  34.728  11.394
31351W        W96512  10.591  40.787   1.401
31352W        W96513  30.171   1.703   0.161
31353W        W96514  34.632  31.820  14.524
31354W        W96515  32.472  31.050   1.147
31355W        W96516  28.462   1.853  11.099
31356W        W96517  28.412   3.894  13.373
31357W        W96518   5.190  16.570  12.251
31358W        W96519  32.515   4.299   3.692
31359W        W96520  11.336   0.904   5.205
31360W        W96521  12.420   7.691   2.233
31361W        W96522   8.238  20.711  13.024
31362W        W96523  33.028  27.901   3.570
31363W        W96524  15.281  32.589   4.085
31364W        W96525  36.380  36.900  13.809
31365W        W96526  39.588   4.998   0.498
31366W        W96527  19.642  28.906   4.687
31367W        W96528  28.177  25.617  14.267
31368W        W96529  36.734  10.060   0.958
31369W        W96530  38.282  16.350  14.980
31370W        W96531  43.203   9.067  14.919
31371W        W96532  15.827  37.318   0.754
31372W        W96533  34.170  35.061   0.521
31373W        W96534  39.347  11.285   3.847
31374W        W96535   6.168  22.657  10.828
31375W        W96536  28.136  28.625   0.010
31376W        W96537  33.540  20.685  10.250
31377W        W96538  12.130  24.186  11.927
31378W        W96539  36.407   6.840  12.977
31379W        W96540   1.352  31.497  14.115
31380W        W96541  18.231  13.363  14.452
31381W        W96542  11.160  14.051  11.621
31382W        W96543  30.980  34.690   2.876
31383W        W96544  11.287  35.326   0.988
31384W        W96545  37.090   7.908  14.857
31385W        W96546  19.105   2.228   2.028
31386W        W96547  29.663  20.502   1.798
31387W        W96548  39.321  41.042   4.533
31388W        W96549  28.514   1.359  14.112
31389W        W96550   8.347  31.099  10.658
31390W        W96551  30.739  34.128   1.751
31391W        W96552  12.593   8.073  11.568
31392W        W96553   6.282  38.298  12.986
31393W        W96554  38.837   1.096  12.504
31394W        W96555  14.823  18.203  11.520
31395W        W96556  14.843  21.281  11.672
31396W        W96557  10.688  26.502  14.707
31397W        W96558  37.462  38.176  13.264
31398W        W96559  43.643   5.130   1.784
31399W        W96560  32.182  24.349   2.332
31400W        W96561  26.129  15.361   3.957
31401W        W96562  15.233  11.687   3.790
31402W        W96563   3.910   3.918  14.273
31403W        W96564  32.869  36.458   1.688
31404W        W96565  43.876  15.407  12.904
31405W        W96566  42.456  32.860  12.427
31406W        W96567  14.744  18.531  13.003
31407W        W96568  29.145  36.649   4.948
31408W        W96569  34.487   6.016   4.106
31409W        W96570   0.778   8.645   1.193
31410W        W96571  23.589  17.836   3.851
31411W        W96572  25.203  23.224  12.459
31412W        W96573  43.852  26.516   2.707
31413W        W96574   2.394   1.908   3.571
31414W        W96575  38.952  13.332   3.801
31415W        W96576   3.886  40.139   0.942
31416W        W96577  21.190  40.396   3.798
31417W        W96578  34.164  31.171   4.841
31418W        W96579  12.250  31.809   3.646
31419W        W96580  19.150  26.124  11.971
31420W        W96581  13.002  21.606  13.456
31421W        W96582   2.447  26.073   3.958
31422W        W96583  20.220  28.626   2.410
31423W        W96584   2.405  18.251   2.925
31424W        W96585   6.246  32.072   3.685
31425W        W96586  14.869  33.660  14.736
31426W        W96587  15.424  42.515   1.131
31427W        W96588  41.786  18.835  13.087
31428W        W96589  25.079   2.448  12.526
31429W        W96590  10.664  34.491   2.019
31430W        W96591  18.344  24.619  12.643
31431W        W96592   5.893  14.319  13.052
31432W        W96593  25.958  40.158   0.054
31433W        W96594  25.697  32.969  10.766
31434W        W96595  31.569  14.385  11.945
31435W        W96596  40.272   1.469   2.854
31436W        W96597  25.148  15.960  14.305
31437W        W96598   1.733   4.613   4.580
31438W        W96599  43.373  31.891  11.095
31439W        W96600  28.944  37.286   0.479
31440W        W96601  25.050  11.872   2.294
31441W        W96602  36.059  28.600  11.510
31442W        W96603  26.417  19.735  12.673
31443W        W96604  13.478   3.357   4.808
31444W        W96605   5.417  24.563  14.924
31445W        W96606   0.382  16.091  13.391
31446W        W96607  27.040  24.989  11.465
31447W        W96608  15.672  14.782  12.290
31448W        W96609   1.206  24.160   3.224
31449W        W96610  40.115  39.377  11.653
31450W        W96611  15.165  26.606  13.360
31451W        W96612  41.027   2.548  13.217
31452W        W96613  20.725  11.055  13.802
31453W        W96614  24.591  38.396   0.255
31454W        W96615  41.862  27.856  11.826
31455W        W96616  13.793  38.138   2.668
31456W        W96617  23.210  31.010   4.401
31457W        W96618  26.637  33.537   4.796
31458W        W96619  11.777  28.413  14.621
31459W        W96620  39.546   3.468   0.919
31460W        W96621   7.665  30.482  10.327
31461W        W96622  23.032   0.827   3.673
31462W        W96623  22.201  14.613   0.426
31463W        W96624   2.117  43.131  11.579
31464W        W96625  43.265   2.805  11.150
31465W        W96626  34.555   8.295   3.657
31466W        W96627  17.467  10.355  13.091
31467W        W96628  38.329  16.249   4.523
31468W        W96629   4.712  12.324  11.359
31469W        W96630  42.987  28.062  10.650
31470W        W96631  42.346  25.029   2.596
31471W        W96632  41.954  26.063  11.585
31472W        W96633  41.306  20.189  12.484
31473W        W96634  19.536   2.465  13.607
31474W        W96635  23.790  38.030  14.386
31475W        W96636  15.296   3.628  12.217
31476W        W96637  13.261   7.371   1.414
31477W        W96638  13.662  41.340  10.222
31478W        W96639  36.951  19.907   1.677
31479W        W96640  22.107   3.485   2.701
31480W        W96641  34.548  18.778  14.272
31481W        W96642  32.881   3.872  12.396
31482W        W96643   4.779   4.315   3.831
31483W        W96644  40.396  43.728   1.243
31484W        W96645  36.586   6.398  13.976
31485W        W96646  22.200   5.880  11.498
31486W        W96647   2.845  41.842   3.802
31487W        W96648  15.287  31.262   2.791
31488W        W96649  30.413  17.399  14.461
31489W        W96650   7.841  32.539   0.380
31490W        W96651   0.537  41.261  11.649
31491W        W96652  37.452  39.773   1.562
31492W        W96653  24.642  19.018  12.593
31493W        W96654  19.202  24.229   2.347
31494W        W96655  22.186  16.842   2.782
31495W        W96656  19.471  43.564   0.429
31496W        W96657   9.580  44.367   2.242
31497W        W96658   7.657   1.017   1.290
31498W        W96659  16.547   8.305   4.211
31499W        W96660  41.061   2.604  12.691
31500W        W96661  42.831  29.913   3.554
31501W        W96662   7.894   8.820  12.369
31502W        W96663  11.689  28.538  11.978
31503W        W96664  12.254   1.311   0.862
31504W        W96665  44.921  18.259  12.121
31505W        W96666  26.550   9.220   3.113
31506W        W96667  12.409  13.857   3.068
31507W        W96668  27.575  39.910  13.501
31508W        W96669   1.523  40.868  13.153
31509W        W96670  13.772  10.780   1.338
31510W        W96671   7.296  30.680  14.353
31511W        W96672  13.675  34.007  14.542
31512W        W96673  34.453  27.649   4.593
31513W        W96674   7.190  32.884   1.286
31514W        W96675  37.145  11.101  10.762
31515W        W96676   9.237  27.115   2.025
31516W        W96677  35.910  22.684   3.224
31517W        W96678  25.368  38.841   3.552
31518W        W96679  13.000  11.876  14.575
31519W        W96680  17.791   5.563  14.156
31520W        W96681  33.197   2.749  13.068
31521W        W96682  43.436  28.697  14.795
31522W        W96683  12.908   2.124  12.101
31523W        W96684   5.913  18.982  11.599
31524W        W96685  42.837  32.416  11.730
31525W        W96686   3.752  39.466   1.806
31526W        W96687   5.721  34.591  14.404
31527W        W96688  33.626  43.634  14.504
31528W        W96689   2.966   7.038  12.023
31529W        W96690  12.074  23.943   1.376
31530W        W96691  42.055  32.944  12.121
31531W        W96692   0.910  11.895  11.138
31532W        W96693  38.130  26.603   2.277
31533W        W96694  34.778   0.485   3.990
31534W        W96695  12.080   3.554  11.053
31535W        W96696  10.172  35.962  10.253
31536W        W96697  30.038  20.580  14.045
31537W        W96698   4.650  15.691  12.079
31538W        W96699  26.267  19.696   4.518
31539W        W96700  39.014  35.624   2.363
31540W        W96701  33.085  28.770  14.770
31541W        W96702  41.320  12.351  13.560
31542W        W96703  12.538   3.844   1.336
31543W        W96704   7.740  12.983  12.703
31544W        W96705  28.131  12.212  10.737
31545W        W96706  15.184  38.134  13.408
31546W        W96707  13.633  33.202  13.988
31547W        W96708   8.232  39.217   1.773
31548W        W96709   1.636  16.224  10.243
31549W        W96710   9.654  37.107   2.361
31550W        W96711  33.906  13.694   4.970
31551W        W96712  16.362  39.419  13.891
31552W        W96713  15.196  15.850   4.823
31553W        W96714  16.364  39.436  14.431
31554W        W96715   1.842   5.265  12.930
31555W        W96716  28.021  10.338   4.678
31556W        W96717  24.579  35.465   2.643
31557W        W96718   1.485  37.428   2.086
31558W        W96719  13.791   1.659   1.299
31559W        W96720  19.729  38.354  13.544
31560W        W96721  44.914   1.052  13.531
31561W        W96722   8.104  24.413  13.400
31562W        W96723   8.702   7.626  12.854
31563W        W96724  35.717  39.148   0.988
31564W        W96725  14.705  15.813   2.702
31565W        W96726  20.742  14.186   0.503
31566W        W96727  28.600  19.596   4.563
31567W        W96728  13.391  42.405  12.169
31568W        W96729   8.705  20.728  13.317
31569W        W96730   8.775  28.117   0.315
31570W        W96731  26.017   9.415  13.786
31571W        W96732  20.019  29.162  13.276
31572W        W96733   0.758  17.458   4.229
31573W        W96734  44.600  26.872  11.995
31574W        W96735  26.399  29.531  14.355
31575W        W96736  14.670  19.054   0.354
31576W        W96737   7.300  21.633  11.465
31577W        W96738  28.290  42.998   3.117
31578W        W96739  36.113  35.923   1.956
31579W        W96740  28.580  35.026  12.609
31580W        W96741  26.900   1.438   3.961
31581W        W96742  36.965  21.503   3.886
31582W        W96743  23.150  33.453   3.379
31583W        W96744  30.490  28.555  12.373
31584W        W96745  41.382  42.596  14.765
31585W        W96746  17.196  10.161  11.376
31586W        W96747  21.082   2.984   4.255
31587W        W96748   3.866  27.664  10.733
31588W        W96749   8.845  16.182  13.406
31589W        W96750  22.002   6.868   4.702
31590W        W96751  20.078  33.994   4.765
31591W        W96752  10.183  29.437   1.404
31592W        W96753  32.105  14.828   5.003
31593W        W96754  29.515  41.001   0.054
31594W        W96755  21.626  17.251  12.842
31595W        W96756  18.536   5.385   1.747
31596W        W96757  12.174   5.687   1.004
31597W        W96758  25.559   6.880   2.255
31598W        W96759  39.944  32.409  13.810
31599W        W96760   5.127   5.552   3.161
31600W        W96761  37.385  30.453   4.303
31601W        W96762   8.190  13.913  11.608
31602W        W96763  27.428  21.739  14.828
31603W        W96764  26.621  20.772   4.139
31604W        W96765  26.194  35.932   4.059
31605W        W96766  15.160  37.863  11.913
31606W        W96767  38.684   6.041   1.213
31607W        W96768  31.141  17.001  14.778
31608W        W96769  23.185  36.091  14.932
31609W        W96770  24.486  26.515  11.116
31610W        W96771  26.574  20.361  14.407
31611W        W96772   9.794  35.227  11.243
31612W        W96773  31.548  29.511  10.486
31613W        W96774   0.911  18.445  14.534
31614W        W96775  21.770  39.976  10.634
31615W        W96776  41.813  18.310   2.196
31616W        W96777  14.280   1.437   1.359
31617W        W96778  16.198  42.834  12.857
31618W        W96779   2.206  19.048  14.409
31619W        W96780   1.988  14.925  11.716
31620W        W96781  12.158  19.766   0.878
31621W        W96782   2.461  33.536   2.765
31622W        W96783  21.161   0.434  11.626
31623W        W96784   7.290  14.379  11.503
31624W        W96785   5.717  11.743  11.574
31625W        W96786  12.345  28.377   4.133
31626W        W96787  18.729  33.335   2.964
31627W        W96788  41.006  44.536   2.401
31628W        W96789  36.293  20.011  14.834
31629W        W96790  38.038  42.082  13.129
31630W        W96791  24.137  14.723   3.457
31631W        W96792   9.345  37.293  12.950
31632W        W96793  26.394  15.325  11.968
31633W        W96794  23.736  24.136   0.409
31634W        W96795  43.900  22.338   3.520
31635W        W96796   8.256  26.438   1.564
31636W        W96797  21.659  31.911  10.753
31637W        W96798  19.610  32.426   3.158
31638W        W96799  20.494   3.403  11.718
31639W        W96800   2.181   7.228  10.792
31640W        W96801   4.385  39.331   0.942
31641W        W96802   8.190  27.870   2.815
31642W        W96803   7.292  13.258   1.228
31643W        W96804   6.918  18.832   4.519
31644W        W96805  12.521   8.385   0.466
31645W        W96806   3.489  32.480  13.588
31646W        W96807  26.101  37.038  13.753
31647W        W96808  22.468  28.163   3.871
31648W        W96809  11.632   4.686   2.209
31649W        W96810  16.722   5.609  11.638
31650W        W96811  17.686  32.468   2.599
31651W        W96812  25.959  40.679   0.369
31652W        W96813   8.445  25.436   3.533
31653W        W96814  28.152  42.339  14.427
31654W        W96815  39.038   0.303   2.180
31655W        W96816  11.685  11.717   1.407
31656W        W96817  38.832   7.879   1.768
31657W        W96818  29.433  40.401   4.597
31658W        W96819  27.483  39.717   2.791
31659W        W96820   6.958  41.020  11.195
31660W        W96821  38.912  21.569  14.990
31661W        W96822  42.204   9.468   3.338
31662W        W96823   0.577  20.607  13.865
31663W        W96824   5.776  19.505  12.200
31664W        W96825   2.606  21.549  11.823
31665W        W96826  43.701  37.427   0.925
31666W        W96827  27.526  43.287  13.349
31667W        W96828  16.754  44.053   3.261
31668W        W96829   2.519  23.016  14.033
31669W        W96830  29.571  15.236   4.563
31670W        W96831  44.568  37.843   4.452
31671W        W96832  40.995  29.059  14.030
31672W        W96833  30.929  37.138   3.380
31673W        W96834   4.265  15.626  13.866
31674W        W96835  42.167  20.592   4.077
31675W        W96836  23.178  20.392   2.026
31676W        W96837  11.019  36.273  13.043
31677W        W96838  25.082  28.008   1.509
31678W        W96839   1.812  27.614  12.206
31679W        W96840  23.172  44.717  12.993
31680W        W96841  36.955   2.171   2.896
31681W        W96842  43.072   8.397  13.468
31682W        W96843  31.443  32.847   4.689
31683W        W96844  21.974  23.050   2.854
31684W        W96845  14.230   4.548   5.061
31685W        W96846  38.954  26.507  12.494
31686W        W96847   1.858   3.837   4.161
31687W        W96848  30.523  40.600  11.573
31688W        W96849  34.486   1.565  13.548
31689W        W96850  39.422  34.838   3.727
31690W        W96851  11.693   7.163   3.302
31691W        W96852  43.521  38.020  11.138
31692W        W96853   9.858  17.175  14.879
31693W        W96854   5.348   0.733  13.068
31694W        W96855  25.797  10.113  10.491
31695W        W96856   0.553  11.497  14.084
31696W        W96857  31.115  26.525   2.278
31697W        W96858  43.520   5.839  13.963
31698W        W96859  22.790  20.534   0.349
31699W        W96860  32.570   3.036  14.954
31700W        W96861  42.724   5.769   4.566
31701W        W96862  21.698  12.297  12.366
31702W        W96863   6.899  42.674   0.140
31703W        W96864   9.059  43.891   2.889
31704W        W96865  29.756   2.339  14.426
31705W        W96866  30.504  24.736   0.725
31706W        W96867  36.392  40.501   0.564
31707W        W96868  32.653  34.054   3.191
31708W        W96869  11.421   6.336  14.976
31709W        W96870  31.363  30.371   4.206
31710W        W96871  40.350  37.994   4.498
31711W        W96872  19.203  12.369  12.004
31712W        W96873   8.848  29.959   3.301
31713W        W96874  36.850  21.389   0.917
31714W        W96875  13.656   9.732  11.110
31715W        W96876   6.298  41.602   3.084
31716W        W96877   3.838  40.297   0.376
31717W        W96878  32.395  38.134  12.471
31718W        W96879  35.299   1.433   1.869
31719W        W96880  14.033  26.562   3.834
31720W        W96881  36.714  42.339   1.482
31721W        W96882  44.985  39.462  14.762
31722W        W96883  34.075  39.065  13.864
31723W        W96884  31.299   7.543  10.902
31724W        W96885  38.293  18.518  12.959
31725W        W96886   8.334  44.029   0.338
31726W        W96887   0.015  34.117   3.465
31727W        W96888  13.048   8.736   4.605
31728W        W96889  10.742   1.762  14.856
31729W        W96890  13.596  16.060  14.663
31730W        W96891  44.060  31.105   0.306
31731W        W96892  44.015  44.879  11.906
31732W        W96893  33.449  36.770   2.888
31733W        W96894  29.817  23.262   2.239
31734W        W96895   6.231   4.678   3.385
31735W        W96896  36.899  12.133   0.855
31736W        W96897  39.506  32.089   4.467
31737W        W96898  22.783   6.861  11.042
31738W        W96899   4.513  26.258  13.494
31739W        W96900  18.689  42.858  12.568
31740W        W96901  12.426  16.529  14.389
31741W        W96902  24.213  42.584  13.353
31742W        W96903   5.155  15.193   0.362
31743W        W96904  36.025  14.078   3.915
31744W        W96905  35.310   4.306   0.779
31745W        W96906  41.311  15.403   4.463
31746W        W96907   3.983  31.597   1.159
31747W        W96908   8.023  39.332   0.031
31748W        W96909  15.573  21.639  12.118
31749W        W96910   9.217  15.084  14.950
31750W        W96911  15.236   2.163   0.267
31751W        W96912  18.504  44.837  11.199
31752W        W96913   9.175   4.358  10.774
31753W        W96914  24.848  31.412   0.696
31754W        W96915  19.445  18.754   0.923
31755W        W96916  10.182   9.591  12.491
31756W        W96917  41.947   9.207   3.843
31757W        W96918  28.536  27.423  11.967
31758W        W96919  33.068  11.883  14.876
31759W        W96920  28.224  31.202  13.358
31760W        W96921  30.430   8.664  11.636
31761W        W96922  24.980  38.555   2.348
31762W        W96923  12.229  14.246  11.543
31763W        W96924  19.788   5.684   1.128
31764W        W96925  34.029   4.298  13.773
31765W        W96926   8.947   0.649  14.060
31766W        W96927   9.942  34.348   1.703
31767W        W96928  21.757   2.068  14.890
31768W        W96929  34.561  16.994  11.071
31769W        W96930  41.480  26.188  12.462
31770W        W96931  38.113  34.412  11.654
31771W        W96932  43.871   6.099  11.987
31772W        W96933  23.353  25.325   3.742
31773W        W96934  37.762  23.490   0.385
31774W        W96935  21.344  17.714   1.877
31775W        W96936  10.511  12.833   3.221
31776W        W96937  10.435  42.421   0.541
31777W        W96938  22.776  10.136   3.971
31778W        W96939  40.145  14.566   1.993
31779W        W96940  16.564  27.891   3.727
31780W        W96941  18.636   1.044  10.608
31781W        W96942  41.604  39.360   0.103
31782W        W96943   4.418  12.047   3.610
31783W        W96944   5.461  35.406   3.855
31784W        W96945  14.950  38.341   2.916
31785W        W96946  17.833  22.578   3.900
31786W        W96947  18.007  20.199  13.879
31787W        W96948  38.373  26.615   0.259
31788W        W96949  29.160  27.436   2.980
31789W        W96950  17.632  18.505   2.103
31790W        W96951  28.905  18.650   3.836
31791W        W96952  19.584   9.727   0.769
31792W        W96953   0.977   0.680  14.557
31793W        W96954  22.229  17.642  13.929
31794W        W96955   4.934  33.430   5.083
31795W        W96956  43.893  17.421  13.611
31796W        W96957  14.966  28.076  14.391
31797W        W96958  19.688  34.902   1.667
31798W        W96959   2.189  24.700   2.215
31799W        W96960   0.323   8.125  14.594
31800W        W96961  20.943  21.070  12.400
31801W        W96962  22.128  38.031  13.522
31802W        W96963  21.227  17.722   4.942
31803W        W96964   9.905  40.915   3.352
31804W        W96965   6.993  41.684   1.717
31805W        W96966  15.288  31.566   4.122
31806W        W96967   1.326  30.796  11.548
31807W        W96968  37.336  23.803   4.141
31808W        W96969  39.688  23.708   3.250
31809W        W96970   6.699  26.740   3.644
31810W        W96971  22.974   3.879  11.101
31811W        W96972  43.650  44.575  12.602
31812W        W96973  40.972  27.059  14.265
31813W        W96974   2.894  43.382  14.142
31814W        W96975  42.819  36.811   0.854
31815W        W96976   7.605  30.619  10.862
31816W        W96977  24.858  19.287   3.177
31817W        W96978   4.848   0.972  12.357
31818W        W96979   6.433  19.134  11.545
31819W        W96980  40.019  44.420   4.392
31820W        W96981  43.225  33.487  11.040
31821W        W96982  15.264  44.361   3.326
31822W        W96983  30.496  21.626   5.120
31823W        W96984   5.363  38.824   3.624
31824W        W96985  27.523  28.559   2.368
31825W        W96986  34.005  34.970   2.630
31826W        W96987  10.683  29.495   4.414
31827W        W96988  20.330   6.417  11.544
31828W        W96989  36.630  29.055  10.741
31829W        W96990   7.443   5.700  14.873
31830W        W96991  19.670   2.740   4.766
31831W        W96992  36.597  39.038   4.510
31832W        W96993   2.328   8.310  11.777
31833W        W96994   6.247  43.503  10.407
31834W        W96995  19.756   2.872   4.150
31835W        W96996   4.451  20.387  12.945
31836W        W96997  10.436  16.175   0.062
31837W        W96998   8.588  10.141  14.039
31838W        W96999  10.494  33.604  13.173
31839W        W97000  41.501  29.357  11.987
31840W        W97001  14.732   0.438   3.919
31841W        W97002   0.581  29.718   2.584
31842W        W97003  33.684  42.844   2.272
31843W        W97004  37.710  16.143   3.721
31844W        W97005  20.734  30.821  13.495
31845W        W97006  27.627  32.023  14.078
31846W        W97007  11.592  16.652   1.466
31847W        W97008   7.326  29.949   9.964
31848W        W97009  19.785  32.919  13.904
31849W        W97010  27.766  22.722   3.731
31850W        W97011  41.068  27.559  14.170
31851W        W97012  40.342  25.611  12.567
31852W        W97013  41.967   9.722   3.853
31853W        W97014  29.465  15.648   3.225
31854W        W97015  20.756  27.094   1.271
31855W        W97016   2.715  22.735   1.950
31856W        W97017  26.348  22.505  12.330
31857W        W97018  29.231  29.058  14.367
31858W        W97019  41.135  17.192   3.812
31859W        W97020  17.702  21.194  12.603
31860W        W97021  16.161  32.077   3.218
31861W        W97022   9.072  31.378  14.060
31862W        W97023  23.056  22.234   2.220
31863W        W97024   7.730  33.864  14.066
31864W        W97025  38.409  27.100  11.142
31865W        W97026  26.668  37.502  12.423
31866W        W97027  15.816   8.778   2.855
31867W        W97028  20.251  39.080  10.791
31868W        W97029  23.619   9.534  13.340
31869W        W97030  39.532  13.088  14.945
31870W        W97031  36.891   0.836   2.822
31871W        W97032  31.110  12.555  10.978
31872W        W97033  21.290  20.313   0.785
31873W        W97034   9.058  32.476   0.193
31874W        W97035  16.126  31.853  11.663
31875W        W97036  37.573   2.218  10.589
31876W        W97037  14.285  10.219  13.978
31877W        W97038   2.256  31.163  14.613
31878W        W97039  20.230  39.026  14.387
31879W        W97040  11.333  31.696   1.985
31880W        W97041   3.371  29.612   0.865
31881W        W97042   8.818   7.230  10.327
31882W        W97043  32.812  24.716   1.318
31883W        W97044  22.581  18.504   4.914
31884W        W97045  23.156  33.519   1.962
31885W        W97046  27.683   9.990   2.354
31886W        W97047  37.064  32.003   2.115
31887W        W97048  41.306   5.452  11.580
31888W        W97049   2.310  38.853  11.644
31889W        W97050  43.513  43.426   4.597
31890W        W97051   5.869  34.085  14.437
31891W        W97052   3.335  12.909  14.105
31892W        W97053  25.643  42.844  13.750
31893W        W97054  27.084  29.676   0.722
31894W        W97055  32.178   3.817  10.352
31895W        W97056  33.320  10.358  12.034
31896W        W97057  20.601  36.465   2.484
31897W        W97058  19.096  20.672  12.084
31898W        W97059  19.722   3.705   2.669
31899W        W97060  24.987  15.277  12.793
31900W        W97061  30.839  34.230  11.977
31901W        W97062  38.181  21.951  12.683
31902W        W97063  29.928  44.663   2.684
31903W        W97064  35.912  34.406   1.887
31904W        W97065  23.190  41.783  11.960
31905W        W97066   4.399  29.144  13.569
31906W        W97067  11.850  44.380  13.615
31907W        W97068  40.833  35.452   1.265
31908W        W97069   9.898   7.045  10.981
31909W        W97070  38.043  34.923  14.007
31910W        W97071  16.367  15.213  13.019
31911W        W97072  13.872  36.688   4.184
31912W        W97073  18.271  19.655  13.390
31913W        W97074  36.705   8.899  12.906
31914W        W97075  29.522  11.869  11.167
31915W        W97076  14.189  39.557  12.089
31916W        W97077   4.732  24.470  10.211
31917W        W97078  16.680  43.431   4.670
31918W        W97079  31.352  31.743  13.556
31919W        W97080  23.801   8.091  12.823
31920W        W97081   7.741  31.687   3.954
31921W        W97082  26.836  28.184   1.788
31922W        W97083  36.334  21.592   0.250
31923W        W97084  43.092   8.710   0.787
31924W        W97085  15.632  33.994  11.924
31925W        W97086   1.815  12.516   2.703
31926W        W97087  33.572  14.147   2.882
31927W        W97088   3.581  14.619  10.672
31928W        W97089   1.502  25.191   2.018
31929W        W97090  43.458   0.373   0.060
31930W        W97091  29.391   4.834   0.463
31931W        W97092  27.490   3.385   4.627
31932W        W97093   2.537  36.323  13.507
31933W        W97094  28.972  33.899  14.791
31934W        W97095   3.473  16.160   4.162
31935W        W97096   2.287   7.957   0.954
31936W        W97097   8.569  32.047  12.925
31937W        W97098  32.610  33.580   3.415
31938W        W97099  28.302  10.862  12.009
31939W        W97100  20.504   2.065   4.623
31940W        W97101   1.636   6.119  11.407
31941W        W97102  33.665  10.362   0.187
31942W        W97103  37.439  17.642  12.095
31943W        W97104   6.192  21.621  10.713
31944W        W97105  42.083   5.330   1.387
31945W        W97106  12.550  32.686  12.112
31946W        W97107  32.413  14.298   4.513
31947W        W97108  28.543  38.079  10.806
31948W        W97109  11.078  15.350  11.890
31949W        W97110  10.370  34.956  11.355
31950W        W97111  29.197   0.978   2.145
31951W        W97112  15.437  39.776  12.619
31952W        W97113  29.073   9.706  11.791
31953W        W97114  24.588   1.357  14.392
31954W        W97115  43.683  10.118   3.800
31955W        W97116  13.063   8.621   2.592
31956W        W97117  23.604   8.135   0.635
31957W        W97118  41.509  16.176  13.404
31958W        W97119   3.877  38.515   0.799
31959W        W97120  41.755   7.894   4.592
31960W        W97121  40.827  10.602  12.906
31961W        W97122  32.474  20.919  12.871
31962W        W97123  13.113  37.355   4.190
31963W        W97124  34.975  35.593   2.310
31964W        W97125  20.868   5.877  11.953
31965W        W97126  43.362  17.686   2.094
31966W        W97127  13.404  29.144  14.369
31967W        W97128  10.942   0.756  12.939
31968W        W97129  41.992   3.943  14.038
31969W        W97130  18.205  22.222   3.150
31970W        W97131  33.917  12.088  11.611
31971W        W97132  39.853  19.169  13.489
31972W        W97133  22.638  21.031   1.337
31973W        W97134  22.135   1.818   0.447
31974W        W97135  31.147  25.241  13.543
31975W        W97136  16.400  32.111  11.992
31976W        W97137  25.694  27.078   9.918
31977W        W97138  39.921  26.633   4.160
31978W        W97139   0.349   6.130   3.166
31979W        W97140   5.411  37.212   0.859
31980W        W97141  24.666  33.922  10.464
31981W        W97142  27.955  38.672   2.601
31982W        W97143  21.008  29.951   3.328
31983W        W97144  35.310  39.830   9.871
31984W        W97145  24.399  28.091  11.469
31985W        W97146   9.853   9.205  10.674
31986W        W97147   5.663   4.753  12.909
31987W        W97148   4.420   7.461   0.424
31988W        W97149  34.342  40.377   2.633
31989W        W97150  34.347  27.613  11.114
31990W        W97151   4.188  20.829  12.933
31991W        W97152  16.343  42.855  10.316
31992W        W97153  22.040   4.753  13.482
31993W        W97154  15.645  37.448  14.148
31994W        W97155  25.523  37.441  11.550
31995W        W97156   8.173   8.634  14.977
31996W        W97157  42.755  14.878  12.634
31997W        W97158  44.398  21.892  14.330
31998W        W97159  32.821  32.960  14.826
31999W        W97160  16.595  24.035   4.880
32000W        W97161  30.840  26.515  11.561
32001W        W97162  35.295  34.127  12.511
32002W        W97163  40.002  28.941  13.975
32003W        W97164  34.869  35.107  14.931
32004W        W97165  41.088  12.490   4.389
32005W        W97166  43.029  13.164  13.827
32006W        W97167  16.705  24.835  12.740
32007W        W97168  11.877   3.813   0.958
32008W        W97169  18.467  35.316  11.404
32009W        W97170   4.754  21.483   1.046
32010W        W97171   2.545  10.520   3.123
32011W        W97172  25.104  27.529  13.330
32012W        W97173   9.696  22.869   0.858
32013W        W97174   4.951  24.258  12.815
32014W        W97175  16.832  14.718  12.943
32015W        W97176  22.054  31.409  13.404
32016W        W97177   7.715  43.008  12.826
32017W        W97178  12.750  14.947  11.099
32018W        W97179  43.192  11.073  11.434
32019W        W97180  26.346  43.181   9.765
32020W        W97181  25.241  28.461  11.570
32021W        W97182  38.110  26.133   0.426
32022W        W97183  33.463  28.015   1.297
32023W        W97184  19.151  28.734   0.490
32024W        W97185  44.744   2.485  13.416
32025W        W97186  37.348   1.261  12.561
32026W        W97187  34.114   6.418   1.710
32027W        W97188   2.136  21.241  13.893
32028W        W97189   3.216  25.110   2.759
32029W        W97190  42.982   3.976   0.461
32030W        W97191  39.287  33.728   3.183
32031W        W97192  20.924   4.248  13.003
32032W        W97193   9.343  18.309  14.276
32033W        W97194  34.692  42.855   4.115
32034W        W97195   2.459  18.078  13.905
32035W        W97196  23.065   8.641   0.650
32036W        W97197  34.607  11.440  14.545
32037W        W97198  20.244   5.259   2.278
32038W        W97199  44.734  43.849   2.695
32039W        W97200   7.995  40.758   2.251
32040W        W97201  42.614  35.050  14.992
32041W        W97202   4.287  40.933  11.290
32042W        W97203  10.908  19.118   4.105
32043W        W97204  37.627  26.881   1.521
32044W        W97205  35.064   4.109  11.994
32045W        W97206  36.818  15.649   4.535
32046W        W97207  13.525  33.858  13.046
32047W        W97208  20.336  44.951   2.393
32048W        W97209  27.653  18.609  14.296
32049W        W97210   3.969  16.215   3.254
32050W        W97211  10.178  20.094   3.342
32051W        W97212  17.766  33.650  12.123
32052W        W97213  13.182   4.267  13.957
32053W        W97214  34.596  16.705  12.463
32054W        W97215  39.060  15.403  13.503
32055W        W97216  41.058  39.400  10.747
32056W        W97217  15.277  27.901  11.580
32057W        W97218  15.292   8.908  10.751
32058W        W97219   1.541  31.663   1.452
32059W        W97220  13.141  43.649   4.117
32060W        W97221  43.489  36.137   2.607
32061W        W97222  11.120  35.593   1.424
32062W        W97223   4.241   4.910   4.870
32063W        W97224  10.625  44.968   2.719
32064W        W97225  38.065   2.218   0.796
32065W        W97226  27.550  30.500   0.944
32066W        W97227  43.790  13.789   4.593
32067W        W97228  22.492   1.382   1.016
32068W        W97229  10.833  25.599  10.772
32069W        W97230  21.263  25.541  11.993
32070W        W97231  44.601  26.162   0.794
32071W        W97232  38.905  37.801  10.299
32072W        W97233  41.297   6.804   1.363
32073W        W97234  22.189  38.054   0.317
32074W        W97235  26.228  16.017  14.036
32075W        W97236  39.931  33.012  13.018
32076W        W97237  11.927  21.013   1.561
32077W        W97238   5.892   1.478  13.668
32078W        W97239  24.711  36.282  13.948
32079W        W97240  41.998  15.341  12.536
32080W        W97241   3.390  33.214   0.752
32081W        W97242  32.714   0.707   4.404
32082W        W97243   7.562  16.690   1.938
32083W        W97244  33.948  18.195   1.903
32084W        W97245  25.235  15.640  13.063
32085W        W97246   7.675  22.000  14.911
32086W        W97247  36.642   5.508   1.777
32087W        W97248  17.618  16.776   2.746
32088W        W97249  17.651  25.184  10.866
32089W        W97250  41.106  32.805   5.031
32090W        W97251  10.596  39.240  12.534
32091W        W97252  30.425  11.115  10.694
32092W        W97253  12.659  13.171  11.205
32093W        W97254  24.663  38.608  14.759
32094W        W97255  20.635  43.060  13.899
32095W        W97256  44.753  10.185  12.049
32096W        W97257  29.052   5.764   4.371
32097W        W97258   6.759  10.580  12.909
32098W        W97259  41.987   3.802   3.348
32099W        W97260  29.359  24.215   2.258
32100W        W97261   5.442  25.000  10.688
32101W        W97262  18.220  22.142  13.635
32102W        W97263   4.288   1.394   0.937
32103W        W97264  19.681  32.132  12.981
32104W        W97265  35.861  17.126  14.105
32105W        W97266  34.085  37.835  14.433
32106W        W97267  31.138   9.799   1.442
32107W        W97268   6.968   3.278  13.897
32108W        W97269  28.578   8.128  14.974
32109W        W97270  37.497  15.261  12.154
32110W        W97271  10.418  44.230  11.536
32111W        W97272  22.272  24.541  13.473
32112W        W97273  18.706   4.298   4.408
32113W        W97274  20.780  42.336  11.995
32114W        W97275  20.903  29.416   2.373
32115W        W97276  31.121  26.039   3.967
32116W        W97277  23.504  35.798   1.738
32117W        W97278  30.105  40.668   2.083
32118W        W97279  40.333  21.509   2.136
32119W        W97280  10.649  30.381  12.053
32120W        W97281  38.515   0.286   4.556
32121W        W97282  38.531  44.019   2.912
32122W        W97283   2.741   7.628  14.500
32123W        W97284  14.034  44.575   4.398
32124W        W97285  32.341   8.127  14.906
32125W        W97286  37.654  22.090  14.227
32126W        W97287  38.480  16.178  14.518
32127W        W97288   3.712  37.850  11.544
32128W        W97289  29.206  12.921   2.162
32129W        W97290  12.702  29.370  10.523
32130W        W97291   6.557  41.445   4.500
32131W        W97292  23.896  23.143   2.748
32132W        W97293  41.087  14.902  13.475
32133W        W97294   6.900  17.117   3.242
32134W        W97295  30.592  16.706   0.413
32135W        W97296  29.464  38.152   4.818
32136W        W97297  25.916  28.147  11.945
32137W        W97298   4.891  40.015   2.918
32138W        W97299   0.729  16.189   0.770
32139W        W97300  16.186   4.458  10.990
32140W        W97301  28.818  25.163  12.525
32141W        W97302  31.641  33.679   1.782
32142W        W97303   5.660  41.989   0.881
32143W        W97304  36.559  31.341  14.988
32144W        W97305  12.032  17.781  11.228
32145W        W97306  22.043   1.206   1.277
32146W        W97307  29.948  37.796  11.973
32147W        W97308  35.553   0.333  14.932
32148W        W97309  20.293   0.820   0.737
32149W        W97310  14.139  28.398   4.120
32150W        W97311  21.565   0.956  13.913
32151W        W97312  23.612  37.014  14.891
32152W        W97313  36.366  33.110   1.735
32153W        W97314   5.886  10.460  13.613
32154W        W97315  24.367  15.222  10.991
32155W        W97316  16.817   9.300   4.286
32156W        W97317   6.696  42.123   1.326
32157W        W97318   9.877  32.451  11.907
32158W        W97319  22.393  18.294   1.214
32159W        W97320   0.032  12.166   0.041
32160W        W97321   1.965  41.111  13.062
32161W        W97322  18.954  28.805   1.531
32162W        W97323  40.522   5.487   4.605
32163W        W97324   1.905  39.143   4.353
32164W        W97325  24.902  36.782   4.826
32165W        W97326  33.985   6.420   0.902
32166W        W97327  41.010   4.708  14.098
32167W        W97328  24.684   9.075  10.858
32168W        W97329   9.173   2.668  12.031
32169W        W97330  10.884  13.104  12.059
32170W        W97331  43.839  28.170   0.308
32171W        W97332  36.106  36.584   4.161
32172W        W97333   4.693  29.828   0.915
32173W        W97334  33.965  44.991  12.985
32174W        W97335  13.390   2.011   2.030
32175W        W97336   7.339  18.494   1.222
32176W        W97337  39.465   9.694   0.639
32177W        W97338  19.766  39.129  13.414
32178W        W97339  20.047  19.268  11.444
32179W        W97340   1.026  34.143   1.360
32180W        W97341  30.903  34.905   2.365
32181W        W97342  24.211  43.114   5.015
32182W        W97343  20.219   0.955  11.008
32183W        W97344  44.084   4.659   0.219
32184W        W97345  24.287  19.697  10.080
32185W        W97346   6.867  11.779  14.217
32186W        W97347  35.310  28.690   2.114
32187W        W97348  36.502  10.704   4.845
32188W        W97349  32.388  17.474  14.446
32189W        W97350   7.038   5.519  11.079
32190W        W97351  24.404  18.619   4.172
32191W        W97352  13.811   8.358   0.690
32192W        W97353  25.030   4.559  13.991
32193W        W97354  31.481  38.377   1.414
32194W        W97355  21.268  40.871   4.496
32195W        W97356   8.409  16.826  12.361
32196W        W97357  31.532  12.631  11.614
32197W        W97358   7.273  22.120  13.948
32198W        W97359  32.347  39.951   2.719
32199W        W97360  38.108   8.940   1.280
32200W        W97361  11.095  13.924   2.744
32201W        W97362  34.629  14.584   0.875
32202W        W97363  12.244  42.703  12.230
32203W        W97364   1.530   7.616   1.406
32204W        W97365   9.318  25.266   3.666
32205W        W97366  31.586  31.958   2.444
32206W        W97367  34.012  14.363  13.584
32207W        W97368  17.487  40.198  11.159
32208W        W97369  44.465  34.873   1.249
32209W        W97370  26.180  26.015  13.939
32210W        W97371  41.174  25.522  12.048
32211W        W97372  35.936  35.461  12.931
32212W        W97373  36.985   9.208   0.379
32213W        W97374  14.657  22.678  13.931
32214W        W97375  17.296   4.347   4.638
32215W        W97376  22.702  30.959   2.476
32216W        W97377  13.648  31.486  12.598
32217W        W97378  38.504  38.014   4.657
32218W        W97379   3.473  13.824   1.767
32219W        W97380  12.368  32.913  14.198
32220W        W97381  13.256   3.813   4.615
32221W        W97382  39.554  27.988  10.820
32222W        W97383  10.764   5.081  13.738
32223W        W97384   4.974   3.001   0.477
32224W        W97385  29.220  13.711   4.665
32225W        W97386  19.120  23.277  10.630
32226W        W97387  16.100   7.211  12.426
32227W        W97388   8.643  13.832  13.111
32228W        W97389   9.285  38.358   0.276
32229W        W97390   0.396  20.846  12.515
32230W        W97391  13.097  10.784   4.553
32231W        W97392  17.107  41.830  14.529
32232W        W97393  21.073  26.378   0.526
32233W        W97394  32.577  42.079   1.774
32234W        W97395  15.166  39.277   2.818
32235W        W97396   5.917  22.123   3.993
32236W        W97397  22.713  44.491   2.367
32237W        W97398  32.823  41.369   2.196
32238W        W97399  14.291  19.392  13.827
32239W        W97400  25.066   7.289  11.513
32240W        W97401  25.094  15.993   2.792
32241W        W97402  27.717  23.032   1.646
32242W        W97403   4.108  27.198   3.077
32243W        W97404   8.165  31.954  11.247
32244W        W97405  44.203  25.298  14.473
32245W        W97406  26.223   4.380   3.071
32246W        W97407   1.378  40.430  10.589
32247W        W97408  30.053  24.755  12.171
32248W        W97409  19.791   0.856   4.466
32249W        W97410  37.988   0.492  10.887
32250W        W97411  41.014   0.480   1.493
32251W        W97412  40.944  10.340   4.611
32252W        W97413   4.340  30.387  14.388
32253W        W97414  21.682   4.296  12.402
32254W        W97415   6.642   3.229   4.723
32255W        W97416   7.502  11.541   0.188
32256W        W97417  15.514  38.992  12.969
32257W        W97418  22.008   7.618   2.162
32258W        W97419  18.340  36.978   3.927
32259W        W97420  20.244  11.100  11.021
32260W        W97421  24.518   0.888   2.496
32261W        W97422  31.639  28.453   1.667
32262W        W97423  35.403  24.569  13.235
32263W        W97424   8.778  34.076  13.469
32264W        W97425   1.346   2.972  12.942
32265W        W97426  11.018   0.241  11.418
32266W        W97427  17.761  16.570   0.037
32267W        W97428  23.489  43.121  14.651
32268W        W97429   6.141  28.428  13.562
32269W        W97430  13.410  42.932  14.377
32270W        W97431  17.505  24.488   4.635
32271W        W97432  37.441   1.959   5.025
32272W        W97433  33.904  43.421   2.842
32273W        W97434  24.551  31.887   0.691
32274W        W97435  36.559  30.394   1.494
32275W        W97436  32.316  13.754   1.028
32276W        W97437  22.660   5.914   1.246
32277W        W97438  43.848  29.789   1.830
32278W        W97439  12.176  24.314   0.014
32279W        W97440  34.653  11.368   0.339
32280W        W97441   0.755  44.957  10.877
32281W        W97442  26.280  16.118  10.720
32282W        W97443  18.105  38.738   2.631
32283W        W97444   6.283  44.242   0.876
32284W        W97445   5.873  31.042   1.443
32285W        W97446  18.730   5.761  14.929
32286W        W97447  27.613  22.061  14.376
32287W        W97448  32.087  25.737  11.146
32288W        W97449   0.045  18.984  12.612
32289W        W97450  19.260  30.663   1.083
32290W        W97451  14.320  19.214   2.064
32291W        W97452  27.539  37.145  14.000
32292W        W97453  35.882  13.187   2.308
32293W        W97454  41.593   6.475   3.735
32294W        W97455  18.292  28.578  14.872
32295W        W97456  26.489  20.744   0.348
32296W        W97457  30.192  38.314  10.816
32297W        W97458   6.862  24.605   4.065
32298W        W97459  32.488  36.012   1.708
32299W        W97460  24.717   7.322  11.081
32300W        W97461  43.049  20.721  12.400
32301W        W97462  36.588  13.370   0.595
32302W        W97463   5.817  26.900   1.845
32303W        W97464  21.972  22.096   3.137
32304W        W97465  22.913  14.117   1.519
32305W        W97466  15.627   5.742   4.759
32306W        W97467   4.335  14.404   3.231
32307W        W97468   9.761  35.330  13.781
32308W        W97469  17.235  10.834   4.839
32309W        W97470  39.197  17.604  10.694
32310W        W97471  29.511   5.498  12.479
32311W        W97472  33.842   0.762  11.538
32312W        W97473  29.379  45.000   1.251
32313W        W97474   7.226  15.729  10.954
32314W        W97475  40.322  23.767   3.661
32315W        W97476  36.418  42.698   3.700
32316W        W97477  21.755  19.966  14.051
32317W        W97478  18.624  11.830  12.336
32318W        W97479   4.450  35.626  13.887
32319W        W97480  33.361  34.156  10.681
32320W        W97481  27.679  16.545  14.798
32321W        W97482   9.316  33.150  10.419
32322W        W97483  25.695  28.684   3.148
32323W        W97484  15.282   8.816   4.133
32324W        W97485  18.076  22.590   0.762
32325W        W97486  24.239  33.019  10.582
32326W        W97487   2.971  27.263   2.159
32327W        W97488  41.587  14.344   2.733
32328W        W97489  11.703  16.102   3.207
32329W        W97490  44.883  20.729  13.411
32330W        W97491  26.316   3.431  14.867
32331W        W97492  25.586   8.356  10.762
32332W        W97493  12.128  16.191   0.943
32333W        W97494  34.675  26.989  14.156
32334W        W97495  28.052   3.694  11.923
32335W        W97496   0.268  15.229   2.816
32336W        W97497   2.862  38.593  11.541
32337W        W97498   7.945  25.203  10.624
32338W        W97499  29.626  13.868   4.945
32339W        W97500   2.885  17.005   4.159
32340W        W97501   1.806   6.111   4.584
32341W        W97502  27.209  36.141  12.493
32342W        W97503  15.714   8.307  10.825
32343W        W97504   6.383  16.741   3.862
32344W        W97505  32.310  21.607  11.263
32345W        W97506  30.009  18.490   4.605
32346W        W97507   2.871   2.002   4.307
32347W        W97508  23.465  19.403   2.247
32348W        W97509  42.568  43.688   4.217
32349W        W97510  12.655   9.153   4.228
32350W        W97511  35.648   3.001  13.061
32351W        W97512  14.468  39.180  10.314
32352W        W97513   6.913  29.889  12.056
32353W        W97514   7.339  17.496   4.714
32354W        W97515   7.770  31.065   0.208
32355W        W97516  25.524  39.713   3.626
32356W        W97517  11.265  24.063  10.807
32357W        W97518  15.119  29.994  14.779
32358W        W97519  25.651   8.590  13.709
32359W        W97520  31.840  33.433  12.094
32360W        W97521   5.505  40.832   2.309
32361W        W97522  11.660  26.483  12.978
32362W        W97523  23.307  19.308   1.306
32363W        W97524   1.587  41.381   1.594
32364W        W97525  18.646   9.813  10.880
32365W        W97526  43.088  30.949   5.132
32366W        W97527   3.014  23.653  14.834
32367W        W97528  43.413  20.753   1.264
32368W        W97529  11.540   8.118  14.582
32369W        W97530  27.699  18.802  11.087
32370W        W97531  30.178  41.562  14.976
32371W        W97532  32.659  22.726  14.130
32372W        W97533  39.769  24.477  11.901
32373W        W97534  23.221   2.484   0.919
32374W        W97535  29.928  16.823   3.296
32375W        W97536  28.047  35.816   2.130
32376W        W97537  24.056  29.147   4.288
32377W        W97538  43.603   1.350   3.645
32378W        W97539  24.545   3.547   0.415
32379W        W97540   9.845  17.599  14.486
32380W        W97541  44.031  26.148  10.914
32381W        W97542  25.725   9.653  12.041
32382W        W97543  20.298  35.744   5.009
32383W        W97544  13.622   2.603   1.863
32384W        W97545  28.115  38.929  12.143
32385W        W97546  21.962  24.135  13.352
32386W        W97547   7.670  35.583   0.783
32387W        W97548   2.314  19.673   1.487
32388W        W97549  20.666   0.346  14.327
32389W        W97550  32.512   6.311  13.065
32390W        W97551  31.548  14.244   4.111
32391W        W97552  30.044  10.632   2.855
32392W        W97553  44.529   7.607   1.388
32393W        W97554   4.892  17.589   0.328
32394W        W97555   6.627  20.776   4.639
32395W        W97556   6.268   8.543  12.661
32396W        W97557   6.188  44.395   4.287
32397W        W97558  10.728  16.428  10.886
32398W        W97559  17.833  15.171   4.098
32399W        W97560   1.760  14.032  11.601
32400W        W97561  44.574   5.775   3.144
32401W        W97562   0.790  22.383  14.316
32402W        W97563   1.561  41.332  11.547
32403W        W97564  30.604  38.543  10.651
32404W        W97565   8.062   7.051  11.888
32405W        W97566  37.832  36.555   1.887
32406W        W97567   6.439  16.726  14.977
32407W        W97568  35.410  29.554   1.129
32408W        W97569  23.909   9.911  12.017
32409W        W97570  16.004   5.497   0.888
32410W        W97571  11.825  26.728  12.524
32411W        W97572  16.685  36.569  12.706
32412W        W97573  16.554   1.765   3.754
32413W        W97574  25.468  42.948   4.634
32414W        W97575  25.893  42.790  12.725
32415W        W97576  36.419  27.026   3.347
32416W        W97577  31.518  32.655   0.867
32417W        W97578   5.683  44.464  11.475
32418W        W97579  23.496  13.215   3.007
32419W        W97580   5.418  35.925  12.131
32420W        W97581   4.867   7.734  13.667
32421W        W97582  13.258   2.892   4.621
32422W        W97583  21.905  16.173  10.362
32423W        W97584  41.841   2.323   1.385
32424W        W97585   5.936   9.775  12.938
32425W        W97586  29.611  37.834   5.227
32426W        W97587  21.577  10.708   3.772
32427W        W97588  13.178   7.816   4.573
32428W        W97589   2.836  20.146   4.158
32429W        W97590   2.217   0.932  12.623
32430W        W97591  33.739  14.224  11.937
32431W        W97592  41.042  26.761  12.957
32432W        W97593   9.255   4.994  14.806
32433W        W97594  17.691   6.188   2.638
32434W        W97595  38.349  10.386   3.274
32435W        W97596  30.916   6.813  10.826
32436W        W97597  43.801  13.313  12.052
32437W        W97598  41.962  26.437   1.693
32438W        W97599  14.384  27.708   0.803
32439W        W97600  23.435  39.549  10.696
32440W        W97601  29.952  10.776  11.383
32441W        W97602  32.906  36.046   1.362
32442W        W97603   0.819  27.418  14.084
32443W        W97604  39.652  12.044  14.942
32444W        W97605  23.227  28.832   2.157
32445W        W97606  23.136  23.997   1.920
32446W        W97607  32.483  13.371   0.708
32447W        W97608   6.157  27.541  13.930
32448W        W97609  33.564  26.203  10.234
32449W        W97610  14.296   9.357  12.829
32450W        W97611  34.247  32.868   4.498
32451W        W97612  36.481  12.540   5.035
32452W        W97613  21.716  42.801  14.229
32453W        W97614  15.736   4.534  10.760
32454W        W97615  31.932  44.207  12.329
32455W        W97616  24.644  16.622   1.244
32456W        W97617  22.078  19.719  14.410
32457W        W97618  12.257  41.863   3.470
32458W        W97619  10.275  29.750   1.841
32459W        W97620  41.075   8.863   1.550
32460W        W97621  40.638  43.069  10.052
32461W        W97622  36.579   4.101   1.290
32462W        W97623   0.788   3.891  14.781
32463W        W97624  20.029  27.196   0.188
32464W        W97625  10.928  41.517   4.756
32465W        W97626  13.465  30.685  11.905
32466W        W97627  28.162  38.260   2.797
32467W        W97628  14.526  28.010   2.567
32468W        W97629  12.393   0.943   3.219
32469W        W97630  36.635  38.418  14.190
32470W        W97631   9.594  30.903  14.976
32471W        W97632  13.251  37.380   4.730
32472W        W97633  42.327  35.030  13.137
32473W        W97634  31.407  35.378   4.655
32474W        W97635  37.765   3.728  14.036
32475W        W97636   7.385  17.496   2.433
32476W        W97637  21.196  25.059   2.433
32477W        W97638  26.159   1.825   4.356
32478W        W97639  35.373  30.141   4.652
32479W        W97640   0.127  15.983  11.573
32480W        W97641  42.295   2.412  10.725
32481W        W97642  14.764   5.899   1.908
32482W        W97643   9.348  40.120  13.932
32483W        W97644  35.889  15.694  11.039
32484W        W97645  37.636   9.673   0.398
32485W        W97646  25.460  20.705  11.891
32486W        W97647  41.618  38.435   1.853
32487W        W97648  17.348  14.154  14.499
32488W        W97649  23.137  32.444   4.696
32489W        W97650  36.301  13.506   2.318
32490W        W97651  19.086  42.329   0.481
32491W        W97652   0.236  38.920   1.974
32492W        W97653  21.010  24.100   4.022
32493W        W97654  36.406  39.018  11.577
32494W        W97655  16.629  25.647   1.679
32495W        W97656  29.991  12.406   4.206
32496W        W97657  33.097  24.180   1.945
32497W        W97658  40.710   3.182   4.151
32498W        W97659  39.480  36.205   1.872
32499W        W97660  17.039  40.598  12.912
32500W        W97661  26.788  21.035  13.866
32501W        W97662  11.270  22.790  14.701
32502W        W97663  30.456  33.575   0.652
32503W        W97664  23.888  19.057   9.982
32504W        W97665  13.356  35.144   0.713
32505W        W97666   8.603  15.646  11.179
32506W        W97667   2.007   5.020   1.862
32507W        W97668   1.837   9.205   0.777
32508W        W97669  37.021   2.687   3.725
32509W        W97670  36.613  15.493   4.036
32510W        W97671   7.392  42.430   0.192
32511W        W97672  14.255  29.968   2.366
32512W        W97673  30.606   0.041   2.358
32513W        W97674  18.775  27.483  12.115
32514W        W97675   8.918  30.097  14.124
32515W        W97676  12.685  42.687   0.975
32516W        W97677  39.237  22.939   4.218
32517W        W97678  17.016  44.275  11.586
32518W        W97679  43.916  17.111  11.431
32519W        W97680  20.150  43.305  11.551
32520W        W97681  35.807  23.030   1.660
32521W        W97682   7.788  11.344   4.541
32522W        W97683   1.293   7.581  10.684
32523W        W97684  31.069  14.141  14.568
32524W        W97685  35.351  22.677   1.382
32525W        W97686   8.439  35.613   0.335
32526W        W97687   1.785  40.526   2.174
32527W        W97688   1.592   9.118  10.749
32528W        W97689  41.989  44.731   4.613
32529W        W97690  23.554  23.135  13.419
32530W        W97691  28.881  14.235  11.592
32531W        W97692  17.153  43.929  11.240
32532W        W97693  29.595   8.888  10.083
32533W        W97694  29.676  14.712   3.756
32534W        W97695  10.259  25.629   3.312
32535W        W97696  15.510  16.076  14.878
32536W        W97697   9.205  32.062   4.524
32537W        W97698  30.030   4.399   4.158
32538W        W97699  40.940  13.211   1.827
32539W        W97700  25.166   8.383  11.976
32540W        W97701  11.154   7.551  11.108
32541W        W97702   7.548   4.284  11.078
32542W        W97703  29.938  34.065   0.074
32543W        W97704  31.022  22.419   0.398
32544W        W97705   1.272  30.084   1.452
32545W        W97706  21.704   4.898   3.660
32546W        W97707  23.211   9.697  14.032
32547W        W97708  42.521   2.472  11.190
32548W        W97709  30.924  25.920   4.949
32549W        W97710  10.686  42.015  13.604
32550W        W97711  16.768  26.522  13.620
32551W        W97712  27.900  17.791  12.406
32552W        W97713  14.633  29.477  12.345
32553W        W97714  19.709  32.920  11.407
32554W        W97715   9.150  42.721  14.514
32555W        W97716  31.479  31.604  10.679
32556W        W97717  43.024  13.350   3.740
32557W        W97718   3.784  34.908   4.158
32558W        W97719   6.273  41.128   3.226
32559W        W97720  32.465   8.409  12.120
32560W        W97721  22.283  40.440   3.389
32561W        W97722   5.800  20.543   4.597
32562W        W97723   5.653  23.335   0.328
32563W        W97724  36.587  26.695   2.399
32564W        W97725  38.401  20.961  12.343
32565W        W97726  43.436  30.986   0.870
32566W        W97727  42.461   7.257  10.921
32567W        W97728   8.609  17.630   4.364
32568W        W97729   9.748  17.094   4.253
32569W        W97730  21.123  42.419   0.237
32570W        W97731   3.366  44.989   0.919
32571W        W97732  11.855  11.928   2.278
32572W        W97733  31.493  43.361  13.235
32573W        W97734   0.907  39.959   4.637
32574W        W97735   5.461   3.193   0.558
32575W        W97736  40.729  11.811   4.141
32576W        W97737  44.787   3.736  13.241
32577W        W97738  41.600  35.943   1.155
32578W        W97739  24.199   4.520  10.842
32579W        W97740   1.433  44.891  14.687
32580W        W97741  42.308  31.406  12.364
32581W        W97742  15.104   0.387   2.114
32582W        W97743  18.780  41.001   3.591
32583W        W97744  31.627  20.181   3.515
32584W        W97745   4.836  15.193   0.775
32585W        W97746  18.300  21.163  14.825
32586W        W97747   7.585   0.811  13.402
32587W        W97748  37.949  41.443  10.923
32588W        W97749   3.010  25.564   3.556
32589W        W97750  31.512  37.848   1.455
32590W        W97751  27.139   3.489   3.663
32591W        W97752  34.999  39.116  13.916
32592W        W97753  19.129  32.366  11.404
32593W        W97754  36.086  38.886   0.740
32594W        W97755  35.898  14.853  14.394
32595W        W97756  11.415  31.686   3.781
32596W        W97757  28.457  14.535   1.601
32597W        W97758  23.134  23.499   2.803
32598W        W97759  13.457   7.967  14.213
32599W        W97760  21.340  31.546   0.789
32600W        W97761  37.371   4.664   3.705
32601W        W97762  36.192  14.709  12.388
32602W        W97763  41.697  14.703   0.382
32603W        W97764   3.954   5.840   0.299
32604W        W97765  13.349  17.374   4.603
32605W        W97766  28.161  42.411  13.906
32606W        W97767  36.771  30.824  11.160
32607W        W97768  27.134   1.155  14.884
32608W        W97769  43.445   0.035   0.476
32609W        W97770  33.476   2.137  10.121
32610W        W97771  14.231   9.662   0.881
32611W        W97772   9.072   0.984   0.498
32612W        W97773   2.617   7.343   4.632
32613W        W97774  38.886  28.179   2.593
32614W        W97775  23.513  17.161   1.963
32615W        W97776  12.242  15.146  11.090
32616W        W97777  31.401  31.839  11.168
32617W        W97778  19.722  42.237  10.753
32618W        W97779  43.381  28.422   2.903
32619W        W97780  30.038   2.694  12.878
32620W        W97781  34.560  34.398  13.222
32621W        W97782  33.430   4.798  12.409
32622W        W97783  41.303  24.626   1.733
32623W        W97784  26.598  22.687  11.226
32624W        W97785   0.914  25.605   2.698
32625W        W97786  29.265  40.841   0.928
32626W        W97787   3.103  44.575  12.078
32627W        W97788  25.689  23.033  10.505
32628W        W97789  35.926  42.609   3.847
32629W        W97790   7.733  40.634  12.807
32630W        W97791  42.916  39.492   0.566
32631W        W97792  31.395  34.440   4.531
32632W        W97793  22.108   3.722  14.458
32633W        W97794  17.258  20.524   1.770
32634W        W97795   1.386  43.404   4.882
32635W        W97796  38.598   3.794  11.921
32636W        W97797  27.122  29.287  12.056
32637W        W97798  25.144  36.886  14.738
32638W        W97799  15.084   4.980  12.264
32639W        W97800   5.277  16.164   3.221
32640W        W97801   7.498  10.407  11.099
32641W        W97802  13.682  44.778  11.514
32642W        W97803  35.420  38.760   1.221
32643W        W97804  32.481  33.412   1.431
32644W        W97805  20.718  36.899   0.877
32645W        W97806   1.494  13.043   1.365
32646W        W97807  13.340   3.024  14.677
32647W        W97808   2.666  35.134  10.964
32648W        W97809  40.416  17.797  13.521
32649W        W97810  18.519   5.968  11.526
32650W        W97811  44.933   7.527   2.314
32651W        W97812  14.787  27.240  13.985
32652W        W97813   0.636   1.690  10.379
32653W        W97814  44.346  15.657   0.537
32654W        W97815   7.123  42.819  11.179
32655W        W97816   8.222  35.510  14.317
32656W        W97817   0.088  41.799   2.214
32657W        W97818  42.018  40.440  11.697
32658W        W97819  36.935  31.495  12.861
32659W        W97820  17.571  17.778  12.004
32660W        W97821  36.477   2.220  13.927
32661W        W97822  29.723  27.997  14.532
32662W        W97823  30.046   0.067   1.777
32663W        W97824  18.547  38.247  11.481
32664W        W97825   3.826  26.118  11.857
32665W        W97826  18.999  43.832  11.214
32666W        W97827  10.128  24.737  14.874
32667W        W97828   0.324  28.631   2.349
32668W        W97829  32.025  40.121   0.851
32669W        W97830  30.447  14.983  13.979
32670W        W97831   1.673  15.791   3.187
32671W        W97832  27.136  29.443   0.280
32672W        W97833  39.448  29.198  12.006
32673W        W97834   2.466  27.493  11.235
32674W        W97835  21.232  13.213   4.467
32675W        W97836  34.675  10.278  11.722
32676W        W97837  22.166  30.979  12.498
32677W        W97838   2.407  44.404   3.748
32678W        W97839   0.722   5.196   3.325
32679W        W97840  29.022  41.489  14.444
32680W        W97841   4.668  14.414   0.383
32681W        W97842   9.773  35.855  11.960
32682W        W97843  28.070  10.154  14.860
32683W        W97844  37.485  37.951   2.104
32684W        W97845  44.058   2.495  14.309
32685W        W97846  15.935  23.476   4.893
32686W        W97847   3.407  43.454   3.667
32687W        W97848   9.651  39.347  10.951
32688W        W97849  13.132  12.686   4.524
32689W        W97850  43.229  28.999   1.731
32690W        W97851  14.663   4.268  13.553
32691W        W97852   2.177  21.070  11.450
32692W        W97853  10.702  29.606  10.652
32693W        W97854   9.329  43.033   3.202
32694W        W97855  34.876   3.383  14.948
32695W        W97856   1.594  43.594   0.345
32696W        W97857   2.674  33.080  13.439
32697W        W97858   0.217  35.954   1.161
32698W        W97859  14.667  31.054  14.505
32699W        W97860  19.780  25.501  14.283
32700W        W97861  38.712  28.583  10.129
32701W        W97862  30.416  40.332  14.249
32702W        W97863  42.501  31.397  10.758
32703W        W97864  24.176  10.188   3.630
32704W        W97865  26.643  12.350  10.392
32705W        W97866   1.626   2.892  13.355
32706W        W97867  32.923  43.177  11.232
32707W        W97868  35.267  19.688   1.700
32708W        W97869  34.065  36.704  11.100
32709W        W97870  39.512   7.045   4.067
32710W        W97871   3.417  23.463  12.003
32711W        W97872   0.938  19.824  14.339
32712W        W97873   0.786  15.380   2.839
32713W        W97874  25.308  25.136  10.804
32714W        W97875  43.978  32.317   0.391
32715W        W97876  11.745  41.935   4.775
32716W        W97877  39.527  10.462   1.142
32717W        W97878  40.942  17.820  11.318
32718W        W97879   0.021  41.928   3.197
32719W        W97880  39.214  30.345   1.929
32720W        W97881  36.351  34.654   3.294
32721W        W97882  21.048  40.870   4.031
32722W        W97883  15.233  15.162   3.332
32723W        W97884   5.693  37.131  14.026
32724W        W97885  38.565   8.766   4.345
32725W        W97886   0.714  30.109  12.421
32726W        W97887  25.033  40.349   0.524
32727W        W97888  31.476  14.205  13.139
32728W        W97889  34.350  27.577   0.732
32729W        W97890   3.543  28.083  10.730
32730W        W97891  32.848  34.271   1.322
32731W        W97892  11.623  33.975   0.750
32732W        W97893   1.747  20.152   4.593
32733W        W97894   0.854   4.878  12.837
32734W        W97895   2.352  32.328   2.113
32735W        W97896  22.919   6.690   1.893
32736W        W97897  31.252  24.676   2.122
32737W        W97898   5.986  30.866   3.285
32738W        W97899  26.287  34.479   3.095
32739W        W97900  34.976  21.551  14.048
32740W        W97901  21.142  15.732   3.825
32741W        W97902  28.110  41.741  11.474
32742W        W97903  26.412  31.767  13.914
32743W        W97904  26.495  28.476   2.738
32744W        W97905  17.283  24.869   2.366
32745W        W97906  34.125  16.310  12.493
32746W        W97907  21.565  26.484   4.148
32747W        W97908  11.250  26.464   3.394
32748W        W97909   2.297  10.723  11.634
32749W        W97910  31.633  15.486  14.406
32750W        W97911  42.463  23.748  11.590
32751W        W97912  32.366  43.238   0.971
32752W        W97913  13.356   4.845  10.522
32753W        W97914  12.593  18.292   0.954
32754W        W97915  41.169   9.346  13.658
32755W        W97916  16.964  25.184  14.897
32756W        W97917  18.040  38.305  11.446
32757W        W97918  41.394   6.145   1.919
32758W        W97919   8.625  28.589  13.949
32759W        W97920  38.879  16.368   3.278
32760W        W97921  12.544  40.704  14.796
32761W        W97922  23.975  38.841   3.186
32762W        W97923   5.459  42.373  13.739
32763W        W97924  27.114  20.136  12.141
32764W        W97925  24.640  29.703   1.763
32765W        W97926   3.463  38.531  13.871
32766W        W97927  21.438  22.106   3.048
32767W        W97928  26.876   7.933  14.929
32768W        W97929  14.639  42.526  11.708
32769W        W97930  15.301  36.527   4.280
32770W        W97931   0.083   7.123   3.140
32771W        W97932   9.276  39.827   2.881
32772W        W97933  25.400  19.010   0.790
32773W        W97934  33.354  33.468  13.819
32774W        W97935  37.961   6.566   1.742
32775W        W97936  13.411  39.407  10.298
32776W        W97937  42.482  33.942  11.970
32777W        W97938  37.457   3.522  13.289
32778W        W97939  23.525  13.714  12.412
32779W        W97940  18.774  31.489  14.744
32780W        W97941   2.958  27.369  11.256
32781W        W97942   4.314  16.829   2.869
32782W        W97943  40.020  35.804   4.826
32783W        W97944   0.028  29.977   2.812
32784W        W97945  30.505  42.465   3.724
32785W        W97946  30.161  13.405   1.174
32786W        W97947  18.611  30.705   0.609
32787W        W97948  34.171  40.922   5.323
32788W        W97949  31.490   5.731   4.258
32789W        W97950  41.028   6.161   1.365
32790W        W97951  16.482  12.258   3.972
32791W        W97952  27.426   8.465   0.925
32792W        W97953  33.917   2.932  13.716
32793W        W97954  26.030  31.624  12.994
32794W        W97955  18.346   4.730  11.083
32795W        W97956  13.392  35.768  14.019
32796W        W97957  35.338  26.709  12.575
32797W        W97958  27.300  14.145   4.411
32798W        W97959  16.138   3.979   1.588
32799W        W97960  44.392   2.285  10.704
32800W        W97961   9.766   4.330   0.785
32801W        W97962  14.282   1.899   2.152
32802W        W97963  20.870  35.418   2.316
32803W        W97964  27.880  17.559  12.867
32804W        W97965  38.958  18.110   0.957
32805W        W97966   5.618  41.537   1.868
32806W        W97967   8.619  24.187  12.993
32807W        W97968  17.240  13.058   0.937
32808W        W97969  17.735  26.628   4.114
32809W        W97970  28.388  40.439   1.836
32810W        W97971  29.523  43.954   4.615
32811W        W97972   5.755  36.229  11.861
32812W        W97973  44.875   8.483  12.380
32813W        W97974  33.093  15.739  11.748
32814W        W97975   0.766  34.346   2.248
32815W        W97976  25.753  19.308  13.627
32816W        W97977  18.699  25.296  12.967
32817W        W97978  29.691  19.706  14.435
32818W        W97979   9.908  20.010  14.385
32819W        W97980  24.921  43.435   4.324
32820W        W97981  25.103   9.395  10.813
32821W        W97982  37.438  14.105   4.616
32822W        W97983  25.906  28.118   1.880
32823W        W97984  22.203  44.205  13.711
32824W        W97985   8.052  15.717  11.896
32825W        W97986   2.810  33.895   1.633
32826W        W97987  24.993  40.535   0.036
32827W        W97988  34.828  24.165   3.688
32828W        W97989  13.705   5.427  13.602
32829W        W97990   1.625  24.563   4.343
32830W        W97991  43.326  26.247   1.784
32831W        W97992  27.086  21.134   1.630
32832W        W97993  32.941   5.796   0.747
32833W        W97994  33.097   5.424   2.294
32834W        W97995   3.466  41.535   1.662
32835W        W97996   5.868   0.232  10.822
32836W        W97997  15.179  32.363  13.517
32837W        W97998  35.901  27.228  12.253
32838W        W97999  14.560  13.084  12.875
32839W        W98000  22.930  21.157   3.158
32840W        W98001  11.634   8.418  11.508
32841W        W98002  38.985  12.988   4.205
32842W        W98003  22.584  38.074   2.134
32843W        W98004  20.223  12.357   0.530
32844W        W98005  14.759  35.439  12.571
32845W        W98006  35.376  21.821  11.517
32846W        W98007  35.990  18.624  12.054
32847W        W98008  24.283  25.433  14.440
32848W        W98009  36.264  38.522  11.573
32849W        W98010   4.951  10.625  13.174
32850W        W98011  41.801  40.907  12.643
32851W        W98012  44.532  18.608   1.604
32852W        W98013  10.813  32.898  11.528
32853W        W98014  14.505  22.700   3.785
32854W        W98015  36.826   4.030  12.462
32855W        W98016  43.832  42.270   2.119
32856W        W98017   7.442  22.543  13.696
32857W        W98018  39.113  43.370   0.429
32858W        W98019  30.792  39.804   4.725
32859W        W98020  31.609  37.646  12.060
32860W        W98021  44.942  39.969  11.055
32861W        W98022   1.526   6.809  13.251
32862W        W98023  17.349   6.295   3.831
32863W        W98024  25.618  14.092   1.841
32864W        W98025  28.969   7.730   3.773
32865W        W98026  37.565  22.566   5.072
32866W        W98027  40.290   3.802   3.343
32867W        W98028  23.780  16.766  12.020
32868W        W98029  10.213   9.646  10.605
32869W        W98030   0.998  32.071  14.887
32870W        W98031  35.681  15.715   1.818
32871W        W98032  44.798  43.778   4.388
32872W        W98033  27.062  13.880  14.772
32873W        W98034  14.203   3.866   4.362
32874W        W98035  37.120  34.547   4.912
32875W        W98036  21.679   0.034  14.803
32876W        W98037  21.280  18.737  11.090
32877W        W98038   6.748  32.039  12.952
32878W        W98039  28.908   2.402   3.329
32879W        W98040   7.398  33.512  10.760
32880W        W98041  21.068  13.265  13.014
32881W        W98042  23.709   0.851  12.487
32882W        W98043  28.046  21.895  12.530
32883W        W98044  43.735   0.860   3.754
32884W        W98045   9.017  16.771   4.708
32885W        W98046  16.597  43.864  13.780
32886W        W98047  15.648  34.552  14.233
32887W        W98048  38.851  18.165  11.273
32888W        W98049   4.298   2.029   3.789
32889W        W98050  37.415  42.894  10.695
32890W        W98051  33.195  19.491  13.428
32891W        W98052   1.940  28.623   1.456
32892W        W98053  22.098  26.925   3.130
32893W        W98054  27.534   6.724   1.653
32894W        W98055  33.963  20.140  11.859
32895W        W98056  33.498  42.894  13.936
32896W        W98057  25.410  24.290  11.049
32897W        W98058  30.988  32.617   4.555
32898W        W98059  40.374  33.853   2.437
32899W        W98060  41.314  10.530  14.865
32900W        W98061  12.469  35.931   1.953
32901W        W98062  29.519  29.420   0.978
32902W        W98063  34.525   5.071  13.919
32903W        W98064  15.831  34.570  11.090
32904W        W98065  22.169  33.648  10.655
32905W        W98066   6.498  36.984  14.449
32906W        W98067  12.928  19.172  12.901
32907W        W98068  36.861  31.395  14.503
32908W        W98069  20.673   3.059  10.841
32909W        W98070  21.175  26.237   3.371
32910W        W98071  40.746  29.307   4.051
32911W        W98072  39.878  26.249  12.724
32912W        W98073  35.138  29.534  12.862
32913W        W98074  36.388   2.726  11.585
32914W        W98075  43.603  28.366  14.402
32915W        W98076  29.591  38.423  12.352
32916W        W98077  18.294  38.917  13.368
32917W        W98078  38.046  14.059  12.907
32918W        W98079  14.298  11.220   1.955
32919W        W98080  44.495   6.775  13.243
32920W        W98081  37.791  33.889  13.340
32921W        W98082  14.771  37.451  11.607
32922W        W98083  29.547   5.343  12.980
32923W        W98084  19.037   5.361   0.895
32924W        W98085  33.712  15.759  12.970
32925W        W98086  20.407  34.605  14.500
32926W        W98087   9.735  29.216   2.155
32927W        W98088  28.843  33.958   3.727
32928W        W98089  38.987  17.173  10.517
32929W        W98090  34.041  36.554  12.877
32930W        W98091  39.753  37.787   3.626
32931W        W98092  18.020  35.592   1.007
32932W        W98093  12.873  20.945   3.666
32933W        W98094  42.038  32.225  14.847
32934W        W98095  36.423  27.587  13.621
32935W        W98096  32.399   6.872  13.164
32936W        W98097   4.790  28.771  11.630
32937W        W98098  37.802   1.547   1.688
32938W        W98099  28.104   4.976   1.902
32939W        W98100  26.011  18.540   2.958
32940W        W98101  17.639  42.524   0.861
32941W        W98102  35.104  24.608   1.399
32942W        W98103  20.521  19.123  12.329
32943W        W98104  18.546  30.807  13.348
32944W        W98105  17.478  27.917   3.568
32945W        W98106   4.225  31.077   0.099
32946W        W98107  31.498  34.445   3.242
32947W        W98108  25.192  24.258   3.716
32948W        W98109   5.755   7.627  14.291
32949W        W98110  18.113   1.925   4.181
32950W        W98111   0.722  26.082   1.316
32951W        W98112  34.346  22.279   2.541
32952W        W98113  30.638   8.243   0.102
32953W        W98114   3.389  28.670  13.701
32954W        W98115   0.292  12.351  11.828
32955W        W98116  32.876  36.994   1.319
32956W        W98117  34.316  11.160  10.761
32957W        W98118  17.133  30.813   2.811
32958W        W98119   9.157  43.856  11.410
32959W        W98120  19.331  30.669  10.741
32960W        W98121  21.945  15.692  11.980
32961W        W98122  21.176  35.452  12.780
32962W        W98123  24.919  16.573  14.909
32963W        W98124  32.554  40.206  13.545
32964W        W98125  34.137  16.755  10.840
32965W        W98126  26.153  10.688  13.071
32966W        W98127  11.870  21.812   0.877
32967W        W98128  13.742  17.737  14.391
32968W        W98129  13.234  31.150  14.999
32969W        W98130   9.497  28.658  11.996
32970W        W98131  11.809  26.157  13.734
32971W        W98132  19.576  25.212   3.833
32972W        W98133  11.571  23.265   3.663
32973W        W98134   4.209  21.075  13.547
32974W        W98135  37.327  24.078  14.884
32975W        W98136  34.020  24.827  13.393
32976W        W98137  38.489  20.463  12.274
32977W        W98138  15.708   4.915   2.698
32978W        W98139   3.495  35.344   2.179
32979W        W98140  10.639  20.038   1.288
32980W        W98141   7.641  30.091   0.952
32981W        W98142  16.726  18.671   4.108
32982W        W98143  37.339   2.469   1.157
32983W        W98144  27.594  24.988   2.793
32984W        W98145   4.442  29.495   4.694
32985W        W98146  22.552  32.186  12.242
32986W        W98147  10.328  34.589  13.523
32987W        W98148   5.176  30.747  14.389
32988W        W98149  31.581  44.998   3.365
32989W        W98150  11.712  13.256  11.174
32990W        W98151  20.441  28.400   1.588
32991W        W98152   3.693  11.792  13.608
32992W        W98153   8.602  31.948  10.492
32993W        W98154  28.005  34.712   0.766
32994W        W98155  17.069  12.053  10.367
32995W        W98156   2.610  44.925   2.905
32996W        W98157  42.524  16.179   4.812
32997W        W98158  26.199  43.962  13.769
32998W        W98159  30.123  15.528   2.386
32999W        W98160  18.015  26.466   4.521
33000W        W98161   9.900  21.947  12.887
33001W        W98162  35.853  42.927  11.656
33002W        W98163   5.456   0.911   1.004
33003W        W98164  20.162  41.952   0.056
33004W        W98165   8.216  30.888   0.509
33005W        W98166  35.200  27.547   4.836
33006W        W98167   0.803  16.364  11.129
33007W        W98168  20.865  20.614  10.624
33008W        W98169  15.817  30.066   3.626
33009W        W98170  15.390  18.215  12.554
33010W        W98171  31.980  27.001  14.563
33011W        W98172  35.855  22.655   1.293
33012W        W98173  26.525   2.895  12.927
33013W        W98174   2.776  30.864   4.663
33014W        W98175  25.523  33.407  10.286
33015W        W98176  13.830  27.409  13.441
33016W        W98177  16.123  35.296   1.975
33017W        W98178  12.752  21.427  14.228
33018W        W98179  25.955  28.095   0.997
33019W        W98180  21.757  36.037   1.335
33020W        W98181  30.118  28.756   2.193
33021W        W98182   8.439  20.885   4.087
33022W        W98183  34.782  34.824  14.052
33023W        W98184   9.757  16.656  12.109
33024W        W98185  14.644   8.423   4.358
33025W        W98186   3.425   0.457   2.786
33026W        W98187  15.350  44.414   1.892
33027W        W98188   7.972  11.644  12.088
33028W        W98189   6.025  38.690  13.742
33029W        W98190  29.342   4.726  14.448
33030W        W98191  25.638  22.467  13.497
33031W        W98192  10.846  21.319   3.275
33032W        W98193  42.332  31.384  14.823
33033W        W98194  20.464  26.477   3.763
33034W        W98195  22.351  30.491   3.289
33035W        W98196  27.021  33.670   2.827
33036W        W98197   2.391  37.426  10.218
33037W        W98198  27.776  38.694  11.757
33038W        W98199  18.642  22.118  14.405
33039W        W98200  40.560  13.131  12.955
33040W        W98201  34.393  35.074   4.653
33041W        W98202  29.494  30.867  11.466
33042W        W98203  42.563  21.997  13.526
33043W        W98204   3.633  36.523   1.850
33044W        W98205  17.276  30.058  11.265
33045W        W98206  19.598   9.595  10.536
33046W        W98207  34.375  23.886   4.612
33047W        W98208  30.989  43.844   4.475
33048W        W98209  19.126  16.866  12.538
33049W        W98210  44.199  30.264   4.046
33050W        W98211  40.925  20.447  14.063
33051W        W98212  32.367  36.193   4.307
33052W        W98213  19.303   5.575   1.307
33053W        W98214  32.664   2.285   0.325
33054W        W98215   8.302  24.940  10.860
33055W        W98216   4.641  34.748  11.161
33056W        W98217   1.422  12.190   2.792
33057W        W98218   4.949  20.546  12.864
33058W        W98219  21.755  44.340  11.082
33059W        W98220  25.425  19.555  11.060
33060W        W98221  17.862   5.501   0.876
33061W        W98222  40.477  15.880   1.681
33062W        W98223  34.365  31.947   2.793
33063W        W98224  10.792  42.349  14.018
33064W        W98225   5.563  16.568  12.613
33065W        W98226  30.898  41.183   2.075
33066W        W98227  25.477  17.006  10.645
33067W        W98228  11.077   2.450   0.061
33068W        W98229  14.545  31.149   0.031
33069W        W98230  14.220  28.727  13.447
33070W        W98231  23.561   5.339   3.379
33071W        W98232  36.082   6.177   0.898
33072W        W98233   4.034  25.007  13.929
33073W        W98234  35.025  36.946   0.920
33074W        W98235  38.866  28.112   9.901
33075W        W98236  23.136  14.898   4.286
33076W        W98237  26.178  35.067   5.135
33077W        W98238  41.148  11.251  10.737
33078W        W98239  21.630  35.081   1.151
33079W        W98240   6.674  11.239   3.672
33080W        W98241  13.380  20.350  13.505
33081W        W98242  41.278  26.800  13.497
33082W        W98243  42.871   4.862  12.817
33083W        W98244  41.605  19.818   2.302
33084W        W98245  25.751  25.425  10.796
33085W        W98246  41.841  18.050   0.188
33086W        W98247  13.040  17.506   5.010
33087W        W98248  24.151  22.285  13.339
33088W        W98249   1.011  39.081   9.600
33089W        W98250  10.086  43.884   0.559
33090W        W98251  21.694  37.563  11.521
33091W        W98252  12.870  35.092  13.435
33092W        W98253  20.712  40.244   2.347
33093W        W98254  14.802  12.466   0.206
33094W        W98255  33.494  14.362   3.362
33095W        W98256  37.443   4.731   1.339
33096W        W98257  22.339  38.406  11.042
33097W        W98258   5.405   7.686   4.193
33098W        W98259  25.985  43.579  11.124
33099W        W98260  29.102  20.208  12.061
33100W        W98261  31.546  36.600   2.868
33101W        W98262  31.066  39.899  11.959
33102W        W98263  26.174  29.663  10.891
33103W        W98264  44.336  36.652  11.194
33104W        W98265  32.752  16.852  13.275
33105W        W98266   8.787  25.143  10.966
33106W        W98267  31.641  11.598   3.581
33107W        W98268  17.060  24.608   4.373
33108W        W98269  21.592  32.669  11.285
33109W        W98270  21.948  10.483  11.500
33110W        W98271  32.099   9.702  13.442
33111W        W98272   9.859  17.539   1.806
33112W        W98273   9.778  26.586  12.543
33113W        W98274  10.979   1.740  10.721
33114W        W98275  28.935  38.868  11.134
33115W        W98276  40.283  30.224  13.410
33116W        W98277  31.945   7.221   2.592
33117W        W98278  40.420  11.385  14.780
33118W        W98279  13.749   0.623   1.941
33119W        W98280  39.443  31.697  11.944
33120W        W98281  39.592  34.987   0.728
33121W        W98282  28.500   3.719  12.198
33122W        W98283  11.630  29.977  14.512
33123W        W98284  11.766  35.087  11.585
33124W        W98285  25.070  18.532  12.860
33125W        W98286  24.032   3.246   4.644
33126W        W98287  11.795  26.382   1.451
33127W        W98288  37.080  40.318   3.712
33128W        W98289  20.526  39.202  14.783
33129W        W98290  26.571  33.548   3.666
33130W        W98291  16.059   8.167   1.803
33131W        W98292  18.580   7.793   1.421
33132W        W98293   8.199  18.265  10.549
33133W        W98294  24.757   4.384  11.984
33134W        W98295  38.672   3.214   0.939
33135W        W98296   1.337   1.984  13.822
33136W        W98297  11.785  19.429   0.791
33137W        W98298  33.793   5.502  14.832
33138W        W98299  15.194  36.591  12.409
33139W        W98300   6.974  17.811   2.674
33140W        W98301  40.253  13.620   1.852
33141W        W98302   9.929   4.791   4.571
33142W        W98303  24.451  34.877   4.287
33143W        W98304  26.057   3.844  13.769
33144W        W98305   9.075  12.428   3.312
33145W        W98306  27.450   0.506   0.912
33146W        W98307  34.381  34.357  11.553
33147W        W98308  21.533  30.260   1.208
33148W        W98309   9.443  10.220   4.350
33149W        W98310  22.693  31.469  10.111
33150W        W98311   0.332  17.556   2.739
33151W        W98312  24.442  35.433  12.451
33152W        W98313  28.562  44.285   3.375
33153W        W98314  27.845  34.614  11.605
33154W        W98315  24.010  39.270   2.772
33155W        W98316  31.612   3.753   2.479
33156W        W98317  36.570  20.175  13.252
33157W        W98318  18.157  43.949   2.378
33158W        W98319   9.913  22.159   4.552
33159W        W98320  27.703  34.996   4.680
33160W        W98321   3.457  18.636   4.462
33161W        W98322  35.473  26.532   4.679
33162W        W98323  38.889  41.840  12.615
33163W        W98324   1.818  16.593   3.572
33164W        W98325  40.612  17.239   3.635
33165W        W98326  37.251  34.103   0.347
33166W        W98327  17.151  21.806   0.060
33167W        W98328  19.504  14.589   2.398
33168W        W98329  21.533  22.074  14.540
33169W        W98330   1.309  40.503   1.244
33170W        W98331   0.655  31.913  11.341
33171W        W98332   8.028  22.146  13.148
33172W        W98333  42.269  13.828  14.995
33173W        W98334  26.522  15.781   4.149
33174W        W98335  41.392   4.379  14.292
33175W        W98336  39.276  31.323   3.239
33176W        W98337  34.959  30.593  11.589
33177W        W98338  28.545  35.934   0.384
33178W        W98339  28.669  33.434   0.365
33179W        W98340  33.415  15.316   2.935
33180W        W98341  25.133  33.860  14.332
33181W        W98342  26.023   0.295  14.029
33182W        W98343   8.587   2.397   4.306
33183W        W98344  20.219  40.895   4.630
33184W        W98345  35.615  15.679   4.129
33185W        W98346   9.158  24.537   2.836
33186W        W98347   3.258  35.033   0.959
33187W        W98348  29.892  35.064   2.240
33188W        W98349   3.984  34.155   0.599
33189W        W98350   2.801   9.651   1.297
33190W        W98351   9.595   6.902  13.188
33191W        W98352   0.283  20.578  14.285
33192W        W98353   2.505   0.960  13.629
33193W        W98354  20.462  24.636   0.916
33194W        W98355  33.139  21.755  10.823
33195W        W98356   4.966  41.430   3.187
33196W        W98357  27.907   2.364   2.826
33197W        W98358  40.333  43.485  11.463
33198W        W98359  40.506  32.796   3.778
33199W        W98360  33.433  20.707   4.606
33200W        W98361  30.510  34.576   2.664
33201W        W98362  20.582   7.933  13.287
33202W        W98363  42.336  43.319   2.134
33203W        W98364  38.219  33.718   2.337
33204W        W98365  37.436  15.110   0.838
33205W        W98366  10.896   0.428   2.709
33206W        W98367  18.336  18.208  11.104
33207W        W98368   7.328  32.024  13.962
33208W        W98369   9.002  37.281   1.412
33209W        W98370  13.175  27.969  10.755
33210W        W98371  13.614  21.549  14.042
33211W        W98372  36.925  42.148  12.467
33212W        W98373  12.191   4.603  14.804
33213W        W98374  27.874  14.215   0.404
33214W        W98375  23.430  10.856  10.460
33215W        W98376  26.431  34.033  12.783
33216W        W98377   4.905  35.777   0.880
33217W        W98378  19.638  25.723   2.967
33218W        W98379   9.558   2.243  12.089
33219W        W98380   7.443  13.387  12.554
33220W        W98381  21.887  23.730   4.509
33221W        W98382  33.088  40.931  11.683
33222W        W98383   6.628  41.857   0.837
33223W        W98384  23.339   1.998  10.773
33224W        W98385  32.066  20.307  13.447
33225W        W98386  40.537  42.828   3.302
33226W        W98387   8.649   0.772  13.333
33227W        W98388  17.163  26.433   0.838
33228W        W98389  40.781  25.360  12.681
33229W        W98390  17.727  13.181  14.516
33230W        W98391  35.374  42.308  11.943
33231W        W98392  42.897  15.323   3.285
33232W        W98393  13.697   8.884   0.822
33233W        W98394  19.130  30.877   2.451
33234W        W98395  12.543  17.148  13.265
33235W        W98396   6.820  19.544   3.186
33236W        W98397   5.515  38.368   2.423
33237W        W98398  16.645   7.667   3.603
33238W        W98399  26.108  18.354  10.710
33239W        W98400  17.483   3.319  14.986
33240W        W98401  43.026  31.501  12.967
33241W        W98402  37.483  20.240  14.378
33242W        W98403  22.546  18.799   1.328
33243W        W98404  36.924  34.797   1.231
33244W        W98405  26.583  40.762   4.963
33245W        W98406  43.145  20.475  12.864
33246W        W98407  13.662  23.030  10.593
33247W        W98408   6.164   4.714  13.104
33248W        W98409  22.144  11.830  14.740
33249W        W98410  43.455  17.608  12.050
33250W        W98411  33.073  15.662  11.250
33251W        W98412  44.412  33.160  10.689
33252W        W98413  26.601  39.448   3.511
33253W        W98414  37.381   6.851   3.077
33254W        W98415  26.518   6.915   4.615
33255W        W98416  13.060  38.036  12.077
33256W        W98417   6.201  10.904  12.084
33257W        W98418  23.055  39.895  11.938
33258W        W98419  35.624  34.357   4.600
33259W        W98420  41.471  40.812  14.424
33260W        W98421  30.584  13.689  11.355
33261W        W98422   6.427  19.845   3.099
33262W        W98423   2.472   3.920   2.166
33263W        W98424  36.875  32.359   4.553
33264W        W98425  36.457   5.844  11.492
33265W        W98426   3.667  12.223  11.060
33266W        W98427  23.759  24.023  14.215
33267W        W98428  43.790  30.604   2.288
33268W        W98429  26.408  16.289   0.836
33269W        W98430   1.573  34.685   3.683
33270W        W98431  21.296   3.851  10.647
33271W        W98432  23.658  42.882   0.447
33272W        W98433  14.162  17.758  12.185
33273W        W98434  32.435  26.595   1.716
33274W        W98435  17.151   7.137   0.765
33275W        W98436  24.096  10.607  10.728
33276W        W98437   0.642  31.655   4.551
33277W        W98438  44.909   4.054  12.858
33278W        W98439  19.885  15.011  11.269
33279W        W98440   9.905   4.417  11.081
33280W        W98441  44.574  31.480   3.486
33281W        W98442  17.796   3.861  13.877
33282W        W98443   2.810  34.915   0.701
33283W        W98444  28.615  37.471   4.198
33284W        W98445  37.017   3.675   2.615
33285W        W98446  24.064  22.250  11.998
33286W        W98447   7.083  16.520   4.606
33287W        W98448   6.819  42.178   1.842
33288W        W98449   1.562   8.212  12.933
33289W        W98450   1.600  10.908   9.717
33290W        W98451   8.672  41.111   0.297
33291W        W98452   3.010  36.248   3.705
33292W        W98453  16.277   9.456  14.495
33293W        W98454   3.656  12.083  14.044
33294W        W98455  28.660  20.107   3.315
33295W        W98456  14.376  33.959  13.913
33296W        W98457   9.179  19.694   2.474
33297W        W98458  39.298  22.090  10.609
33298W        W98459   3.481  13.653  13.392
33299W        W98460  34.884  15.824   0.407
33300W        W98461  23.561  36.149   0.373
33301W        W98462  35.590  22.008   2.112
33302W        W98463  19.067  22.095  12.089
33303W        W98464  34.423  30.064   1.459
33304W        W98465  29.176  30.557  12.475
33305W        W98466  11.205  27.936  13.533
33306W        W98467  40.534  40.078   3.698
33307W        W98468  37.805  11.843   4.856
33308W        W98469  19.723  29.028  12.617
33309W        W98470  24.422  18.223  11.528
33310W        W98471  40.297   3.239  14.844
33311W        W98472  34.016  40.128  14.827
33312W        W98473  18.154  20.337  12.904
33313W        W98474  24.722   2.031   3.242
33314W        W98475  40.692  22.080  11.534
33315W        W98476  32.481  32.546  11.086
33316W        W98477  44.581   3.152  10.667
33317W        W98478  19.275  23.743  10.477
33318W        W98479  38.244  14.423   4.086
33319W        W98480  38.110  16.835  10.579
33320W        W98481  18.236  19.133   0.378
33321W        W98482   9.433  44.248  11.572
33322W        W98483  12.149  17.462   3.283
33323W        W98484  21.101  43.404  11.998
33324W        W98485   8.467  25.407  11.271
33325W        W98486  12.051  23.425   2.304
33326W        W98487  14.678  31.494  10.659
33327W        W98488  24.172  36.028  12.854
33328W        W98489  18.141  43.003   3.382
33329W        W98490  13.719  22.484   0.907
33330W        W98491  21.547  32.719  12.118
33331W        W98492  24.065   9.127  11.575
33332W        W98493  22.363  16.422   0.423
33333W        W98494   1.914  41.054   3.312
33334W        W98495  20.175  11.537   0.786
33335W        W98496  38.970  42.318  14.115
33336W        W98497  36.925  17.703   4.161
33337W        W98498   1.325  18.985   2.821
33338W        W98499  26.652  21.201  12.486
33339W        W98500  19.467   2.950  10.713
33340W        W98501  13.443   8.220  11.175
33341W        W98502  41.973  23.002  11.610
33342W        W98503   4.951  19.241  14.544
33343W        W98504  28.612  25.738   4.079
33344W        W98505  39.498   0.520   3.703
33345W        W98506   5.226   3.735   0.910
33346W        W98507  21.521  33.658   4.777
33347W        W98508  20.859   1.362  14.417
33348W        W98509  16.659   9.929  12.563
33349W        W98510  36.514  14.788   0.598
33350W        W98511  23.503   4.833   4.113
33351W        W98512  16.849  41.029  13.128
33352W        W98513  16.358  22.514  12.897
33353W        W98514  39.406  44.885  11.537
33354W        W98515  15.438   3.444  11.412
33355W        W98516   1.010  28.087  12.507
33356W        W98517  36.535  41.521   1.032
33357W        W98518  34.371  18.844  12.027
33358W        W98519  27.922   6.444   4.532
33359W        W98520  30.446  31.976   4.528
33360W        W98521  25.388  33.506   1.361
33361W        W98522  32.044  24.258  12.226
33362W        W98523   9.787  28.538  12.849
33363W        W98524  35.961  31.458  14.272
33364W        W98525   3.400   3.681  12.898
33365W        W98526  44.923  27.096  13.750
33366W        W98527  18.184  22.062  13.123
33367W        W98528  26.923  21.038  13.357
33368W        W98529  37.912   6.895   3.168
33369W        W98530   4.003  12.667   4.062
33370W        W98531  13.831  13.672   0.451
33371W        W98532  38.555  31.676  10.506
33372W        W98533  32.832  11.265  13.604
33373W        W98534   9.201  28.561  11.591
33374W        W98535  25.570  23.395  10.877
33375W        W98536  24.005   7.898   0.846
33376W        W98537  12.355  12.804   3.659
33377W        W98538  41.004   4.425   1.489
33378W        W98539  25.586  26.266  11.171
33379W        W98540   0.110   2.839   2.526
33380W        W98541  24.200  16.718  10.782
33381W        W98542  10.709  41.006   0.217
33382W        W98543  39.085  12.628   0.743
33383W        W98544  10.182  10.265   5.051
33384W        W98545  41.372   5.851  14.414
33385W        W98546  11.870  44.341   2.736
33386W        W98547  16.715  18.843  14.934
33387W        W98548   1.086  17.886   0.880
33388W        W98549  15.677  14.152   0.057
33389W        W98550  13.812  21.247  11.141
33390W        W98551  16.181  14.553   5.090
33391W        W98552  30.663   8.257  12.949
33392W        W98553  11.592  44.349   3.159
33393W        W98554  44.695   6.951  10.690
33394W        W98555   2.237  23.247   1.447
33395W        W98556   9.174  32.036   3.610
33396W        W98557   7.755  32.822  13.940
33397W        W98558   9.385  26.253  14.812
33398W        W98559  10.477  30.863   4.232
33399W        W98560  43.281  42.854   0.910
33400W        W98561  33.215   0.752   4.563
33401W        W98562   2.921  19.523  11.423
33402W        W98563   1.702  12.781  12.032
33403W        W98564  37.823  16.172  11.119
33404W        W98565  36.601  25.319   0.764
33405W        W98566   7.861  40.915  12.387
33406W        W98567   9.519   3.208  13.769
33407W        W98568  42.851  30.673   0.900
33408W        W98569  22.688  43.947   3.224
33409W        W98570  37.882  25.563  14.230
33410W        W98571   5.814  18.070  11.538
33411W        W98572  40.610  38.334  10.805
33412W        W98573  35.323  36.351  13.827
33413W        W98574  22.434  42.964  13.503
33414W        W98575  38.568  35.586  11.549
33415W        W98576  27.556  38.473  14.537
33416W        W98577   9.974   4.385   4.234
33417W        W98578  38.106   0.415  11.375
33418W        W98579  27.851  29.676   4.513
33419W        W98580   7.436  38.177  11.143
33420W        W98581   0.215   6.374  14.567
33421W        W98582  23.658  28.540  13.569
33422W        W98583  37.903  40.559   1.032
33423W        W98584  25.396  21.585   2.258
33424W        W98585  41.813  42.410  10.584
33425W        W98586  14.321   3.288   2.330
33426W        W98587  39.875  27.050   1.174
33427W        W98588  34.928   2.665   3.204
33428W        W98589   6.264  37.391  12.174
33429W        W98590   6.423   3.429   0.323
33430W        W98591  25.049  18.423   0.265
33431W        W98592   2.199  37.453   0.398
33432W        W98593  41.782  27.690   1.294
33433W        W98594  14.683  36.873  10.784
33434W        W98595   2.023   0.420   0.887
33435W        W98596   2.406   6.412  13.584
33436W        W98597  43.627  10.063   4.316
33437W        W98598   3.012  12.742   1.302
33438W        W98599   0.449   4.923   0.775
33439W        W98600  21.048  38.125  10.427
33440W        W98601  21.475  14.774  14.949
33441W        W98602  23.722  10.925   5.228
33442W        W98603  22.245  34.417   2.311
33443W        W98604  18.751  25.744   2.852
33444W        W98605  25.507   2.168  12.637
33445W        W98606   6.867   0.690   1.894
33446W        W98607  11.353  23.698  12.022
33447W        W98608  35.122  24.946   1.826
33448W        W98609   2.770  29.743   2.290
33449W        W98610  44.465  22.260  13.973
33450W        W98611  32.366   3.222   2.458
33451W        W98612  41.709   7.690  10.748
33452W        W98613  24.378  15.757   2.526
33453W        W98614   8.539   6.379  11.755
33454W        W98615   3.258  17.564   4.426
33455W        W98616  19.673   4.170   3.085
33456W        W98617  44.212  24.507   1.832
33457W        W98618   5.990  27.486   0.921
33458W        W98619  36.342  11.325  13.012
33459W        W98620  40.110  14.895   3.457
33460W        W98621  18.039  28.985   0.264
33461W        W98622  42.428  26.709  14.550
33462W        W98623  43.399  21.565   1.696
33463W        W98624  34.051  26.087  12.363
33464W        W98625  29.316  33.985  13.833
33465W        W98626  29.673  15.252   2.266
33466W        W98627  13.339  35.347   4.607
33467W        W98628  18.085  39.884  12.078
33468W        W98629  31.089   6.439  11.186
33469W        W98630  42.454  32.126  11.543
33470W        W98631  31.334  33.451  12.003
33471W        W98632  26.082  29.486   3.935
33472W        W98633   4.388  33.841  14.313
33473W        W98634  24.421   9.861   1.499
33474W        W98635  30.466  22.087  12.878
33475W        W98636  35.067  15.629   0.896
33476W        W98637  31.069  15.686  12.892
33477W        W98638  21.115  35.208   4.875
33478W        W98639   2.040  11.296  14.723
33479W        W98640   3.743  16.601  10.701
33480W        W98641  35.159  43.568   3.330
33481W        W98642  26.224  14.826  13.288
33482W        W98643  11.930   3.428   1.905
33483W        W98644   0.901   5.750  10.107
33484W        W98645   3.266   6.347   1.160
33485W        W98646  35.701  15.189   3.880
33486W        W98647  25.834  12.109  13.659
33487W        W98648  21.398   0.119   5.085
33488W        W98649  28.605  27.136  12.903
33489W        W98650  17.500  20.010  14.469
33490W        W98651  13.346  42.333   0.161
33491W        W98652  37.058   5.695   3.732
33492W        W98653  33.790  43.575   1.990
33493W        W98654  25.683  23.524   3.311
33494W        W98655  40.690  15.909  11.072
33495W        W98656  28.238  32.956   4.593
33496W        W98657   2.835  44.438   4.750
33497W        W98658  21.596  10.716  12.022
33498W        W98659  35.072  16.815   0.301
33499W        W98660   3.285   4.897   4.712
33500W        W98661  29.860   1.774  12.407
33501W        W98662  43.437  33.241  14.156
33502W        W98663  18.322   9.283   2.220
33503W        W98664  44.089   3.166   0.466
33504W        W98665   4.773  20.066   1.802
33505W        W98666  15.074  39.876  14.934
33506W        W98667  22.135  11.393   4.973
33507W        W98668   0.448  42.643   4.088
33508W        W98669  24.696  16.116  12.515
33509W        W98670   0.999  39.478   1.938
33510W        W98671   5.849   4.501  12.049
33511W        W98672  40.330  27.631  10.721
33512W        W98673  29.892  19.204  13.842
33513W        W98674   3.388  22.719  13.863
33514W        W98675  21.194  39.839  14.189
33515W        W98676  15.206  34.072   1.199
33516W        W98677   3.635  25.753  12.653
33517W        W98678  12.714  13.644   1.314
33518W        W98679  35.470  37.789  14.933
33519W        W98680  10.622  31.517  14.816
33520W        W98681  40.178  11.160  13.018
33521W        W98682  37.075  36.564   2.990
33522W        W98683  25.821  10.363  13.784
33523W        W98684  17.497  15.110  13.628
33524W        W98685   6.381  37.521   1.400
33525W        W98686   9.270  34.476   3.398
33526W        W98687   7.310  42.077  11.915
33527W        W98688  42.096   2.398   0.950
33528W        W98689  40.839   2.963   2.647
33529W        W98690  28.938  10.314   0.031
33530W        W98691  38.929  17.397   0.510
33531W        W98692  27.211  19.991  12.617
33532W        W98693  15.690  28.644  14.504
33533W        W98694  20.292  12.989   4.579
33534W        W98695  31.534   4.187  14.871
33535W        W98696  13.346  37.279  13.558
33536W        W98697  32.363  13.112  14.846
33537W        W98698  14.721  27.163   2.432
33538W        W98699   4.878  44.695   1.149
33539W        W98700   2.373   3.192  10.917
33540W        W98701  37.515  44.242  13.921
33541W        W98702  18.566  17.641   4.657
33542W        W98703  39.552  13.253  10.656
33543W        W98704   5.398  41.240  11.709
33544W        W98705  18.421   9.337  14.924
33545W        W98706  31.871  10.999  14.867
33546W        W98707  10.824  14.287   1.820
33547W        W98708  40.760  13.889   4.101
33548W        W98709  11.207   5.192  12.846
33549W        W98710  20.579  39.255   3.228
33550W        W98711  44.899  22.544   4.262
33551W        W98712  15.596  37.954   3.739
33552W        W98713   6.862  19.690  14.625
33553W        W98714   8.688  24.650   2.992
33554W        W98715   7.202   7.634   2.716
33555W        W98716  19.848  42.533  10.330
33556W        W98717   6.082  35.987  14.361
33557W        W98718  31.868  12.475   2.922
33558W        W98719  42.809   5.959   0.586
33559W        W98720  22.450  30.448  13.951
33560W        W98721   4.156  22.120   4.192
33561W        W98722  34.561  39.624   1.475
33562W        W98723  18.210  24.062  14.048
33563W        W98724  15.600  31.430  14.364
33564W        W98725  10.059  32.897  13.136
33565W        W98726  20.059   2.247   0.042
33566W        W98727   4.865   9.887  11.164
33567W        W98728  31.281   8.840  10.614
33568W        W98729   2.087   1.954   2.238
33569W        W98730  17.620  37.944  10.629
33570W        W98731  37.121  18.686  10.662
33571W        W98732  11.879  40.425  12.039
33572W        W98733  24.217   4.018   4.246
33573W        W98734  39.353  14.456  13.516
33574W        W98735  17.406  18.639   4.586
33575W        W98736   5.783   0.048   0.826
33576W        W98737  27.815  37.372   2.092
33577W        W98738  28.266  15.391   1.412
33578W        W98739   6.230  43.418  10.969
33579W        W98740  44.380   1.466   2.438
33580W        W98741  19.110  10.378  14.462
33581W        W98742  22.178   4.366  12.574
33582W        W98743   5.896   3.731  10.609
33583W        W98744   8.805  33.079  14.382
33584W        W98745  13.119  40.611   4.445
33585W        W98746  23.050  14.589   5.083
33586W        W98747  42.977   3.494  13.822
33587W        W98748   3.587  39.901  12.676
33588W        W98749  25.530  26.898   5.104
33589W        W98750  26.904  12.318   0.840
33590W        W98751  31.981  30.213  12.873
33591W        W98752  24.528   5.782   0.033
33592W        W98753   2.515  35.555  13.967
33593W        W98754  15.128  42.068  11.099
33594W        W98755  30.705   2.010   0.420
33595W        W98756  39.861  12.809  10.700
33596W        W98757  22.236   8.280  14.284
33597W        W98758  11.320  34.506   0.446
33598W        W98759  25.115  32.953   0.832
33599W        W98760  11.660  40.893   2.288
33600W        W98761  17.695  18.314   0.695
33601W        W98762  19.666  38.552   1.867
33602W        W98763  22.480  20.282   4.129
33603W        W98764  34.449  36.329   3.331
33604W        W98765  22.785   7.753   1.754
33605W        W98766  17.229  17.816  10.626
33606W        W98767  37.305  21.403  11.561
33607W        W98768  21.755  40.943  12.554
33608W        W98769  13.549  26.508  14.766
33609W        W98770  43.160  24.701   1.850
33610W        W98771  25.065  25.074  13.179
33611W        W98772  33.531   7.076  10.798
33612W        W98773  44.314   0.582   1.318
33613W        W98774  13.816  41.345  11.924
33614W        W98775  20.065   7.260  11.135
33615W        W98776  23.227  43.300   3.599
33616W        W98777   8.156  22.058   1.271
33617W        W98778  38.567  34.537  13.303
33618W        W98779  18.221  34.907   3.331
33619W        W98780  38.501  44.760   4.595
33620W        W98781   6.197  44.325  11.551
33621W        W98782  26.166  18.353   1.929
33622W        W98783  28.411  11.314  12.886
33623W        W98784  34.462   4.029   1.179
33624W        W98785  17.310   1.849   2.083
33625W        W98786  37.125   4.802  12.042
33626W        W98787   0.791  43.942  12.992
33627W        W98788  13.788  42.592   4.765
33628W        W98789  19.670  39.636  13.449
33629W        W98790   1.405  41.942   0.733
33630W        W98791  27.479  19.607   1.299
33631W        W98792  29.488   4.791   1.861
33632W        W98793  14.015  37.549  11.266
33633W        W98794   3.438   1.812  10.635
33634W        W98795  21.210  37.085   1.611
33635W        W98796   7.307  37.333  13.104
33636W        W98797  17.060   4.831  12.194
33637W        W98798  10.281  41.426   2.788
33638W        W98799  34.354  44.700   0.430
33639W        W98800  33.446  36.604  14.179
33640W        W98801  44.654  23.429  14.741
33641W        W98802  20.555  41.908   0.889
33642W        W98803  13.505  10.222   4.083
33643W        W98804  18.307  15.395   3.502
33644W        W98805   8.229  41.332   3.576
33645W        W98806  16.905   3.009   3.298
33646W        W98807  16.758  36.419   1.827
33647W        W98808  29.470  10.457  13.138
33648W        W98809  29.156  11.602   1.803
33649W        W98810  22.254  25.442  14.397
33650W        W98811   4.685   6.316   3.042
33651W        W98812  44.050  43.780   0.353
33652W        W98813  12.470  36.635  12.524
33653W        W98814   5.080  20.972  14.396
33654W        W98815  16.730   6.116  11.555
33655W        W98816  24.763   1.489   1.392
33656W        W98817  43.537   5.640   4.515
33657W        W98818  38.386  31.268   0.802
33658W        W98819  25.006  15.141   0.001
33659W        W98820   1.219   2.248   1.997
33660W        W98821  42.910  12.065  11.506
33661W        W98822   3.355  35.469   4.774
33662W        W98823  24.071  14.602  11.579
33663W        W98824   5.706  40.995   3.643
33664W        W98825   3.707  32.116   3.822
33665W        W98826  10.453  40.527  12.043
33666W        W98827   5.755  35.096   0.527
33667W        W98828  32.563  43.901  14.748
33668W        W98829   9.885  38.012   1.912
33669W        W98830   4.247   2.000  11.195
33670W        W98831  15.772  16.333   0.265
33671W        W98832   5.847  44.524   0.913
33672W        W98833  41.496  29.093  13.821
33673W        W98834  30.596  24.634  12.477
33674W        W98835  29.359  33.578  14.607
33675W        W98836  17.569  11.882  10.379
33676W        W98837  39.907   9.739   4.379
33677W        W98838  32.831  28.479   1.440
33678W        W98839  19.826  43.852   0.152
33679W        W98840  19.524  26.190  11.623
33680W        W98841  30.071  14.407   2.037
33681W        W98842  21.247  21.811   0.816
33682W        W98843  24.687  33.863   4.073
33683W        W98844  24.755  40.050  10.844
33684W        W98845  12.135  43.498  12.458
33685W        W98846  33.120  13.816  10.681
33686W        W98847   6.267   2.399  13.251
33687W        W98848   9.103  34.082  14.866
33688W        W98849   6.380  40.569  14.900
33689W        W98850   3.770  16.280   1.456
33690W        W98851  25.734   6.528  11.942
33691W        W98852  24.615  33.815  12.261
33692W        W98853   0.570  38.603   3.275
33693W        W98854  17.179  12.304   4.641
33694W        W98855  41.952  25.235  13.842
33695W        W98856  13.820  32.780   2.308
33696W        W98857  22.101  17.536  11.704
33697W        W98858  31.477  23.662   3.510
33698W        W98859  13.550  19.545   1.809
33699W        W98860   9.314  28.034  12.037
33700W        W98861  10.905  24.750  12.507
33701W        W98862  41.825   0.542  12.827
33702W        W98863  11.834  32.161   3.246
33703W        W98864  17.833  17.546  14.757
33704W        W98865  18.789  36.272  11.176
33705W        W98866  34.577  22.798   3.588
33706W        W98867  21.310  21.416  12.515
33707W        W98868  19.511   6.353   3.160
33708W        W98869  13.029   5.460  14.333
33709W        W98870  37.409  41.011   3.472
33710W        W98871  15.756  31.479   2.756
33711W        W98872   6.502  19.634  10.806
33712W        W98873   5.242  10.225  10.928
33713W        W98874  30.868  23.290  12.075
33714W        W98875  14.702  33.480  12.794
33715W        W98876   7.935  13.372  12.376
33716W        W98877  42.033  41.454  14.366
33717W        W98878  24.262  22.522   1.356
33718W        W98879   4.839  27.633   3.125
33719W        W98880  39.663  42.190   1.041
33720W        W98881   7.397  41.269  13.491
33721W        W98882  22.922  41.793   2.888
33722W        W98883  23.710   2.774   2.427
33723W        W98884  33.919  19.174   4.490
33724W        W98885  27.341  12.451   9.880
33725W        W98886  24.597  24.702  12.124
33726W        W98887   0.255  23.541   1.209
33727W        W98888  13.627  28.049   4.850
33728W        W98889  37.618  10.888   3.783
33729W        W98890  15.550  21.172  11.885
33730W        W98891  35.589  32.594   0.860
33731W        W98892   7.673  18.920  11.945
33732W        W98893   1.408  44.321   2.173
33733W        W98894  33.291  39.483   1.219
33734W        W98895  34.566  26.128   0.272
33735W        W98896   5.210   0.836  10.585
33736W        W98897  28.220  41.318  11.179
33737W        W98898  33.918  16.729   3.169
33738W        W98899  34.743   8.982   9.833
33739W        W98900  31.471   9.169   1.797
33740W        W98901  32.798  36.364  10.313
33741W        W98902  25.173   5.254   1.631
33742W        W98903   9.376  23.785  12.437
33743W        W98904  13.478  24.605  13.009
33744W        W98905  28.003  39.641   2.777
33745W        W98906  24.005  41.457   3.206
33746W        W98907  39.829  14.760  12.007
33747W        W98908  37.984  35.603  12.608
33748W        W98909  11.371  10.773  10.639
33749W        W98910  14.156   8.874   3.176
33750W        W98911  23.174  27.201   3.987
33751W        W98912  34.694   8.321   4.157
33752W        W98913  16.789  23.663  13.438
33753W        W98914   9.673   3.827   2.138
33754W        W98915  39.106   0.578  14.414
33755W        W98916  35.094  13.136   1.886
33756W        W98917   8.886  17.060   3.160
33757W        W98918   2.770  38.022  13.938
33758W        W98919  40.392   1.619  12.257
33759W        W98920  21.971  17.356  13.593
33760W        W98921  10.611   6.227   3.179
33761W        W98922  23.015  42.523   0.799
33762W        W98923  15.611  41.466   3.279
33763W        W98924   8.095  30.118   4.541
33764W        W98925   8.644  20.240  10.944
33765W        W98926   7.870   4.003   4.205
33766W        W98927  30.460  34.856  14.885
33767W        W98928  31.337  25.238  14.019
33768W        W98929  24.057  43.698   2.655
33769W        W98930  27.041  40.890  13.099
33770W        W98931   2.861   4.880   1.377
33771W        W98932  31.943   5.210  14.807
33772W        W98933  34.804   7.655  13.082
33773W        W98934   6.669  18.611  13.874
33774W        W98935  38.408   7.183   1.336
33775W        W98936  24.126  17.784  14.928
33776W        W98937   8.762  40.432  12.689
33777W        W98938  34.309   2.574   1.303
33778W        W98939   9.168   1.462  12.942
33779W        W98940  14.989   4.431  13.957
33780W        W98941  25.092  10.642  14.906
33781W        W98942  25.216  20.622  12.928
33782W        W98943  43.425   2.841   2.396
33783W        W98944  25.763  35.926  14.913
33784W        W98945  41.130  42.306   3.265
33785W        W98946  44.678  10.432   9.769
33786W        W98947   8.930   8.361   2.153
33787W        W98948  33.119  18.197   2.859
33788W        W98949   5.306  34.031   2.259
33789W        W98950   4.299   8.810   3.377
33790W        W98951  18.240  18.287   1.275
33791W        W98952  20.505  44.873  14.498
33792W        W98953  37.563  39.458   4.348
33793W        W98954  27.630  22.854   4.536
33794W        W98955  37.366  14.555   0.386
33795W        W98956   2.487  29.646   4.494
33796W        W98957  31.459  15.886  12.220
33797W        W98958   5.003  35.037   1.312
33798W        W98959  26.548  34.672   1.232
33799W        W98960  41.136  30.635  12.103
33800W        W98961  30.283  32.696  13.703
33801W        W98962  15.774   3.319  12.165
33802W        W98963   7.828  24.837  13.752
33803W        W98964  35.590   9.235   0.796
33804W        W98965  37.412  10.796   2.341
33805W        W98966  44.261  44.061   4.660
33806W        W98967  36.685   3.971  14.062
33807W        W98968  41.373   6.956  13.933
33808W        W98969  13.177  28.959   4.152
33809W        W98970  30.662  38.707   4.079
33810W        W98971  11.504  13.939  12.012
33811W        W98972   9.271   7.422   3.379
33812W        W98973   8.768  36.331   0.705
33813W        W98974   3.414  26.901  13.141
33814W        W98975  21.175  35.933  11.592
33815W        W98976  28.723   1.893  11.561
33816W        W98977   6.722  44.938   0.431
33817W        W98978  18.759  18.509  11.127
33818W        W98979   4.426  41.629  13.797
33819W        W98980  25.124  11.072  14.530
33820W        W98981  38.932  32.871   3.100
33821W        W98982  33.043   1.229  14.807
33822W        W98983  41.252  27.574  13.093
33823W        W98984  29.151  14.541   2.032
33824W        W98985  37.564  41.514  11.279
33825W        W98986  18.277  35.930   1.335
33826W        W98987   8.837  41.003   3.325
33827W        W98988  38.334   8.746  14.738
33828W        W98989   5.276  43.934   0.702
33829W        W98990   9.900   1.786   0.785
33830W        W98991  23.671  27.486  11.234
33831W        W98992   4.864  29.311  14.858
33832W        W98993  20.066  22.745   1.950
33833W        W98994  35.073  25.665  10.668
33834W        W98995   1.597  27.180   3.022
33835W        W98996  31.584  18.123   3.941
33836W        W98997  21.247   0.681  12.102
33837W        W98998  16.828   2.221   2.809
33838W        W98999  33.820   7.667  11.598
33839W        W99000  13.141  28.429   0.920
33840W        W99001  22.769  22.727   1.257
33841W        W99002   7.780  28.443  11.594
33842W        W99003  21.923   1.969   4.963
33843W        W99004   4.419  14.281  13.319
33844W        W99005  26.302  29.888   4.518
33845W        W99006  42.968  18.216   1.118
33846W        W99007  33.844  30.111   4.585
33847W        W99008   9.847  44.425   2.678
33848W        W99009  35.032  35.566   1.321
33849W        W99010  22.818  38.954   4.184
33850W        W99011  37.202  19.989   0.701
33851W        W99012  11.661  24.778   4.424
33852W        W99013  38.109  27.490   0.854
33853W        W99014   0.389  42.532   2.216
33854W        W99015  37.880   3.088  11.446
33855W        W99016  11.857  42.330  14.789
33856W        W99017   8.482  41.975   0.165
33857W        W99018  36.289  23.213  13.773
33858W        W99019  33.053  11.553  12.527
33859W        W99020  11.335   8.901  14.308
33860W        W99021   2.756   4.954   3.153
33861W        W99022  34.294   5.099   0.938
33862W        W99023   0.734  44.312  13.325
33863W        W99024  14.087  36.326  10.827
33864W        W99025  42.258   6.841   3.302
33865W        W99026  38.312  27.876  14.353
33866W        W99027   6.573  10.919   2.490
33867W        W99028  22.103  35.139  12.158
33868W        W99029  10.919  37.897   3.793
33869W        W99030  44.781  11.368   0.365
33870W        W99031  26.639  25.093  13.898
33871W        W99032  32.705  17.044   1.242
33872W        W99033  26.282   6.522   4.856
33873W        W99034  13.748  23.580   2.809
33874W        W99035   8.709  29.893  13.115
33875W        W99036  15.840  44.241   1.350
33876W        W99037   2.856  30.861  10.785
33877W        W99038  35.197  16.165  14.419
33878W        W99039   3.035  20.900   2.739
33879W        W99040  33.627  18.505  14.710
33880W        W99041  39.522   0.997   2.795
33881W        W99042  38.852  42.397   0.660
33882W        W99043  19.457  15.343   0.747
33883W        W99044  38.282  20.052  12.592
33884W        W99045  34.338  39.380   2.328
33885W        W99046   7.427  39.497  12.825
33886W        W99047   5.083  22.027   2.278
33887W        W99048  39.719  38.855  12.429
33888W        W99049  34.915  27.514  11.176
33889W        W99050   8.458  17.260  14.791
33890W        W99051  21.024  13.180  14.895
33891W        W99052  10.676   3.664   3.705
33892W        W99053  18.284  30.055  13.860
33893W        W99054  32.164   3.295  12.347
33894W        W99055   6.872   3.771  11.852
33895W        W99056   4.486  11.383  14.029
33896W        W99057  16.663  23.534  14.336
33897W        W99058   2.959  19.620   2.688
33898W        W99059  25.978  26.015   3.290
33899W        W99060  21.775  18.097  14.794
33900W        W99061  24.544  10.427  13.380
33901W        W99062  28.419  30.873   4.081
33902W        W99063   4.384   7.134  12.614
33903W        W99064  42.353  37.771  13.860
33904W        W99065  23.879  36.338   3.258
33905W        W99066   6.701  37.043   2.375
33906W        W99067  10.416  34.526   2.622
33907W        W99068  19.828   8.033   3.794
33908W        W99069   9.783   1.227  14.908
33909W        W99070  17.520  42.460   4.451
33910W        W99071   0.720  26.671  12.441
33911W        W99072  40.121   8.868   1.230
33912W        W99073  22.025   2.899  12.050
33913W        W99074  12.385   3.285   2.733
33914W        W99075  22.397  42.929   5.020
33915W        W99076  17.759  22.767  11.620
33916W        W99077  24.462   5.382   0.352
33917W        W99078   7.314  19.135   3.925
33918W        W99079  33.546  26.004   2.728
33919W        W99080   9.374  36.985  13.759
33920W        W99081  41.203  15.744   0.137
33921W        W99082  22.044  31.985  12.111
33922W        W99083   6.818   9.203  13.350
33923W        W99084  39.141   8.774   0.954
33924W        W99085   4.752  24.287   0.676
33925W        W99086   7.319  43.658   3.727
33926W        W99087  43.852  11.327  13.852
33927W        W99088  31.610  42.327   3.702
33928W        W99089  31.134  34.820  11.219
33929W        W99090  36.575  14.655  11.135
33930W        W99091  11.175  44.597  13.915
33931W        W99092  41.072  28.109  11.715
33932W        W99093  15.176  23.075   1.476
33933W        W99094  30.019  12.341   3.273
33934W        W99095  19.798  37.523   2.231
33935W        W99096  27.540  35.493   1.290
33936W        W99097   9.593   9.646  11.231
33937W        W99098  18.741  29.935   3.616
33938W        W99099  39.265  32.671  10.337
33939W        W99100  24.557  43.274   2.182
33940W        W99101  19.875  20.168  12.408
33941W        W99102  22.583  43.961   2.248
33942W        W99103   9.264  18.338   0.316
33943W        W99104  35.805   3.346   1.297
33944W        W99105  11.023  33.401   2.637
33945W        W99106  33.043  13.040  12.227
33946W        W99107  36.564  17.255   1.745
33947W        W99108  15.552  22.122   0.228
33948W        W99109   1.680   5.900   1.789
33949W        W99110  31.527  15.576  12.640
33950W        W99111   3.795  42.462   3.266
33951W        W99112  39.105  21.672   0.471
33952W        W99113  23.957  42.989  14.944
33953W        W99114  16.009   1.908   2.539
33954W        W99115  11.421  35.317   0.096
33955W        W99116   6.853   6.977  13.825
33956W        W99117  44.830  24.552   1.808
33957W        W99118  33.307   3.547   2.881
33958W        W99119  28.631  38.160   0.225
33959W        W99120  26.663   4.165   4.040
33960W        W99121  11.370  29.170   2.808
33961W        W99122  38.836  26.007   3.255
33962W        W99123  11.470  42.333   0.474
33963W        W99124  31.880  40.768   3.648
33964W        W99125  17.401  14.240  12.485
33965W        W99126   2.429  42.847   3.614
33966W        W99127  27.689  10.693   3.566
33967W        W99128  27.528  12.572  11.200
33968W        W99129  19.603  20.913  14.366
33969W        W99130  19.653  22.952  11.891
33970W        W99131  25.555  31.707   0.847
33971W        W99132  17.961   2.439  12.675
33972W        W99133  11.815  25.108  13.853
33973W        W99134   7.113  44.108  10.994
33974W        W99135  30.658  20.755   0.272
33975W        W99136  33.072  24.268   1.436
33976W        W99137  17.078  30.171   1.938
33977W        W99138  26.514  14.592   4.573
33978W        W99139  33.356  36.115   3.450
33979W        W99140   3.396   2.395   0.766
33980W        W99141  29.863  42.441  14.898
33981W        W99142  10.417   6.849   1.737
33982W        W99143  21.756  28.431   3.194
33983W        W99144  13.660   9.412   4.319
33984W        W99145   2.376  10.905  14.857
33985W        W99146  27.731  24.133   4.445
33986W        W99147  10.415   8.765   1.465
33987W        W99148  30.372  36.692   5.052
33988W        W99149   1.785  12.568  14.750
33989W        W99150  26.342   0.912   2.921
33990W        W99151  28.569  25.584   0.766
33991W        W99152  17.634   2.838  12.691
33992W        W99153  24.788  23.848   1.381
33993W        W99154  23.576  36.276  14.211
33994W        W99155   6.140  37.749  12.535
33995W        W99156  19.275  31.848   2.383
33996W        W99157   4.635  19.494   4.112
33997W        W99158  19.261  33.601  14.309
33998W        W99159   6.343  27.811   2.838
33999W        W99160   8.606  17.006  11.347
34000W        W99161  13.167  36.347  13.311
34001W        W99162   7.933  20.915  14.316
34002W        W99163   9.053   7.381  10.764
34003W        W99164   9.747  22.624   1.918
34004W        W99165   2.264  28.417  14.960
34005W        W99166   2.621  22.121   2.188
34006W        W99167  34.651  16.734   1.362
34007W        W99168  36.370  32.326   0.431
34008W        W99169   8.412  21.198   4.945
34009W        W99170  26.798   0.590  14.045
34010W        W99171  21.313  37.021  12.064
34011W        W99172  15.049  27.008  13.045
34012W        W99173  21.445  24.648   0.819
34013W        W99174  16.841  16.838  11.738
34014W        W99175  30.977  11.511  13.312
34015W        W99176  38.802  28.461  14.311
34016W        W99177  10.338  37.129   4.125
34017W        W99178   4.490  19.341  12.044
34018W        W99179  16.873  15.811  12.482
34019W        W99180  28.649  25.032  14.991
34020W        W99181  41.776  38.901  14.929
34021W        W99182  24.398  17.169   2.445
34022W        W99183  15.242   9.304  14.301
34023W        W99184   6.821   9.473   1.589
34024W        W99185  19.366  32.670  14.772
34025W        W99186  23.085  44.381  12.597
34026W        W99187  17.055  37.608  11.056
34027W        W99188  13.557  24.493  14.838
34028W        W99189  40.294  21.703  12.634
34029W        W99190  20.154  36.843   1.782
34030W        W99191  23.477  16.715  13.677
34031W        W99192  32.572  41.298   2.948
34032W        W99193  17.974  12.997   2.782
34033W        W99194   6.940  20.553  12.410
34034W        W99195  39.028  22.493  10.370
34035W        W99196  17.964   2.895  11.774
34036W        W99197  10.331   8.234  13.930
34037W        W99198  23.280   7.330   2.646
34038W        W99199  41.864  14.575  12.278
34039W        W99200   6.419  39.282  12.610
34040W        W99201  15.380  29.959  13.313
34041W        W99202  39.366  39.800  11.122
34042W        W99203   8.567  30.909   1.772
34043W        W99204  24.084  18.805   0.758
34044W        W99205   0.568  31.129  14.382
34045W        W99206  44.370  25.138  10.763
34046W        W99207  19.355  24.568  10.904
34047W        W99208  34.429  37.502  12.158
34048W        W99209  30.933  34.554  14.449
34049W        W99210  27.213  23.535   1.543
34050W        W99211  38.308  16.691  11.929
34051W        W99212  24.721  41.568   1.130
34052W        W99213  29.214  18.645  12.866
34053W        W99214  41.368   0.798  13.853
34054W        W99215  12.312  16.180  12.958
34055W        W99216   4.334   5.368  12.011
34056W        W99217   3.744  15.004   4.551
34057W        W99218  16.489  40.779  12.860
34058W        W99219   6.137  16.328  11.623
34059W        W99220  30.897  20.034  13.515
34060W        W99221   2.265  16.869   2.751
34061W        W99222  30.996  21.296  11.958
34062W        W99223  22.355   9.395   0.783
34063W        W99224  18.711  22.075  13.864
34064W        W99225  37.804  26.307  11.133
34065W        W99226  18.680  31.013   0.212
34066W        W99227  39.387  33.987   2.743
34067W        W99228  32.471   5.849   0.216
34068W        W99229  22.630   5.182  14.653
34069W        W99230  27.195  17.800  10.743
34070W        W99231  25.068  29.560   2.310
34071W        W99232  18.491  35.434   1.258
34072W        W99233  29.452  31.984  13.620
34073W        W99234  19.287   0.241  14.392
34074W        W99235  21.156  28.076   4.447
34075W        W99236   4.572   5.374   3.151
34076W        W99237  39.770  24.230  14.440
34077W        W99238  28.146  35.289  12.486
34078W        W99239  28.516  16.273   3.250
34079W        W99240  31.803  31.693   2.903
34080W        W99241  24.441   0.995   3.984
34081W        W99242   1.697  18.338  14.149
34082W        W99243  27.895  36.370   4.075
34083W        W99244  40.988   1.725  13.666
34084W        W99245  35.162  37.800   3.577
34085W        W99246  24.492   6.481  12.303
34086W        W99247  15.904   7.010  14.391
34087W        W99248  10.385  20.175   4.142
34088W        W99249  38.441   3.332   3.633
34089W        W99250  26.529  28.942  11.107
34090W        W99251   0.993  43.731   1.818
34091W        W99252  33.313   9.463   3.156
34092W        W99253  18.688  39.706  14.984
34093W        W99254  35.642  19.285  14.086
34094W        W99255  43.790  13.202   3.015
34095W        W99256   9.727  27.119  10.665
34096W        W99257  41.948  35.616  10.634
34097W        W99258  37.903  16.020   2.831
34098W        W99259  32.316  17.319  13.432
34099W        W99260  33.901  17.984  13.565
34100W        W99261  26.658  19.259  12.495
34101W        W99262  15.121   6.788   0.915
34102W        W99263   8.235  17.444   4.677
34103W        W99264   3.922  34.047   3.980
34104W        W99265   0.722   7.006  12.899
34105W        W99266   8.344   8.849   0.995
34106W        W99267  41.417  23.873  14.823
34107W        W99268  33.110  23.478   2.825
34108W        W99269   8.928  28.330  14.279
34109W        W99270  37.767  26.848  12.003
34110W        W99271  19.178  23.169   2.411
34111W        W99272  33.891   0.777   1.146
34112W        W99273   7.324  32.518  14.840
34113W        W99274  12.100  41.737  12.409
34114W        W99275  36.777   3.111   1.116
34115W        W99276  23.669  10.408   2.871
34116W        W99277   2.418   2.637   1.774
34117W        W99278  29.410  27.080  11.100
34118W        W99279   4.054  27.386   5.029
34119W        W99280  42.749   6.856  10.714
34120W        W99281   7.806  19.190   0.518
34121W        W99282  25.653  17.073   0.668
34122W        W99283  44.816   0.031  11.400
34123W        W99284  41.787   1.032   1.788
34124W        W99285  25.793  43.202  14.889
34125W        W99286   6.721  24.251  14.455
34126W        W99287   9.272  32.483  11.654
34127W        W99288  20.817  16.685  14.033
34128W        W99289  34.814  43.436  14.886
34129W        W99290  39.499  44.585  10.307
34130W        W99291  36.464  32.784  13.632
34131W        W99292  41.549  29.699  13.504
34132W        W99293  11.207  40.590  14.868
34133W        W99294  41.753   7.286   3.978
34134W        W99295  44.279  24.115  11.514
34135W        W99296   9.216  34.922   2.653
34136W        W99297  27.183   5.797   2.368
34137W        W99298  34.451  20.727   1.232
34138W        W99299  13.440  19.020  12.897
34139W        W99300  29.257  11.434   0.008
34140W        W99301  11.354  27.087  13.895
34141W        W99302  30.909  18.385   1.375
34142W        W99303  29.127   9.769   2.166
34143W        W99304   5.675  34.397  13.917
34144W        W99305  26.264  31.229  11.553
34145W        W99306  38.035  30.219   2.671
34146W        W99307  34.368  17.019  13.043
34147W        W99308  31.234   9.078  14.436
34148W        W99309   3.199   8.345  14.764
34149W        W99310  36.560  37.805   2.332
34150W        W99311   8.443  10.038   2.913
34151W        W99312  40.740  10.768   4.343
34152W        W99313  32.303  37.677   0.179
34153W        W99314  19.751  18.384   2.597
34154W        W99315  37.644  41.810  12.936
34155W        W99316   3.606  34.015  12.209
34156W        W99317  26.490   0.879  13.455
34157W        W99318  39.504  29.718   0.685
34158W        W99319  15.710   8.419  13.626
34159W        W99320   2.075  32.928   1.341
34160W        W99321  13.461  15.669   5.267
34161W        W99322  31.434   5.978  14.617
34162W        W99323   2.278  26.024   9.497
34163W        W99324   6.143   1.481  11.171
34164W        W99325  10.619   3.634   4.558
34165W        W99326  24.678  28.924   4.790
34166W        W99327  25.589  38.491   0.247
34167W        W99328  29.137  29.585  12.819
34168W        W99329  28.179  22.510   2.244
34169W        W99330  28.558  38.214   4.342
34170W        W99331   9.064  30.181  14.674
34171W        W99332   9.663  22.689  14.884
34172W        W99333  43.100  20.220   4.097
34173W        W99334  25.198  31.078   2.852
34174W        W99335  39.848  34.457  11.147
34175W        W99336  32.695  21.252  12.482
34176W        W99337  35.894  24.441  11.506
34177W        W99338  16.082   9.727  12.590
34178W        W99339  18.799  28.547   3.269
34179W        W99340  33.869  16.022  14.547
34180W        W99341  35.051   5.748  11.075
34181W        W99342  22.830  41.546   0.400
34182W        W99343  27.232   1.883   1.984
34183W        W99344   9.825   5.320  13.895
34184W        W99345  19.886  30.606   3.376
34185W        W99346  41.313  21.315   2.966
34186W        W99347   0.829  15.071  13.019
34187W        W99348  37.883   2.902  12.583
34188W        W99349  29.991   8.845  13.903
34189W        W99350  31.925  13.888   4.155
34190W        W99351   3.014  28.750   1.455
34191W        W99352  13.886   0.511   2.960
34192W        W99353  30.165  14.707   0.194
34193W        W99354   0.224  28.499  13.556
34194W        W99355  30.009  41.930   0.679
34195W        W99356   9.363  24.462   4.724
34196W        W99357   7.235   4.966  10.424
34197W        W99358  39.080  40.570  10.282
34198W        W99359  27.187  43.341  12.963
34199W        W99360  19.636  41.809  12.831
34200W        W99361  37.104  25.493   3.677
34201W        W99362  25.733  18.543   3.636
34202W        W99363  35.475  16.233   1.721
34203W        W99364  36.851  23.776   1.204
34204W        W99365  40.518  34.035  14.317
34205W        W99366  26.646   3.864   4.486
34206W        W99367   0.449  44.494   0.367
34207W        W99368  11.259  37.981  13.644
34208W        W99369  23.137   8.443   5.080
34209W        W99370   0.055  26.053   0.581
34210W        W99371  14.156  14.100  12.500
34211W        W99372  21.737  20.774  13.399
34212W        W99373  21.765   9.625   0.489
34213W        W99374  17.276   0.199  12.943
34214W        W99375   6.374  32.821  11.598
34215W        W99376   7.884  18.118  13.117
34216W        W99377  11.692  24.492  12.107
34217W        W99378  24.677  30.528  12.948
34218W        W99379  35.887   0.440  10.528
34219W        W99380  41.350  10.734   2.163
34220W        W99381  37.827  43.881   2.220
34221W        W99382  29.077  37.265   2.451
34222W        W99383  18.201   8.603  13.088
34223W        W99384  28.283  10.536  10.264
34224W        W99385  19.708  33.093   1.885
34225W        W99386  41.321  19.192   3.413
34226W        W99387   8.756  32.723  12.687
34227W        W99388  36.816   4.207   1.746
34228W        W99389  44.052  44.377   1.968
34229W        W99390   7.106  38.415   4.265
34230W        W99391  38.490  13.308  13.802
34231W        W99392  15.787  37.451  12.581
34232W        W99393  27.888  27.873   1.873
34233W        W99394  40.431   4.837   2.205
34234W        W99395  12.827   0.724   4.319
34235W        W99396  42.349  38.309  12.947
34236W        W99397  39.009  40.300   1.304
34237W        W99398  28.540   1.994  12.968
34238W        W99399  38.088  14.805  14.234
34239W        W99400   8.902  27.025   4.736
34240W        W99401   7.270   3.873   1.271
34241W        W99402  41.944  10.603   0.477
34242W        W99403   6.513  44.072   0.443
34243W        W99404   8.935  22.288   0.387
34244W        W99405  10.909  17.785   3.274
34245W        W99406   4.531  28.686  14.788
34246W        W99407   1.381   5.178   3.135
34247W        W99408  14.255  20.331  12.882
34248W        W99409  43.316  11.426   2.192
34249W        W99410   8.298  40.703  13.965
34250W        W99411  23.665  13.152   1.685
34251W        W99412  15.323  23.243  14.111
34252W        W99413  38.430  43.507   2.858
34253W        W99414  29.384  24.117   2.815
34254W        W99415  10.926  42.537  13.002
34255W        W99416   0.344  27.553   4.209
34256W        W99417   2.849  39.341   0.403
34257W        W99418  10.189  19.486   4.950
34258W        W99419  44.422  43.967  12.747
34259W        W99420  32.874  18.238  14.601
34260W        W99421  19.975  24.116  13.918
34261W        W99422  10.284  25.403   1.783
34262W        W99423  37.844   9.114   2.181
34263W        W99424  26.633  19.856  14.340
34264W        W99425  31.459   1.806  13.440
34265W        W99426  19.449  15.532   4.217
34266W        W99427  11.380  24.651  14.498
34267W        W99428  28.469  24.183  10.675
34268W        W99429  11.888  36.470   2.247
34269W        W99430   0.751  26.815   2.450
34270W        W99431  20.204  25.839   2.358
34271W        W99432  35.388  23.037  10.524
34272W        W99433  28.919  13.245  10.080
34273W        W99434  33.596   9.623   0.794
34274W        W99435  27.443  33.245   0.824
34275W        W99436   6.158  43.283   3.799
34276W        W99437  16.253  29.810   3.654
34277W        W99438   9.421  26.682  13.962
34278W        W99439   6.722  31.583  14.316
34279W        W99440  37.268  38.035   3.074
34280W        W99441   6.582  11.895   0.962
34281W        W99442   8.681   7.857   1.228
34282W        W99443  18.020  10.292   4.146
34283W        W99444   8.075   1.228   4.056
34284W        W99445  22.915  27.347   1.988
34285W        W99446  31.954  42.112   4.056
34286W        W99447  40.634  15.728  10.305
34287W        W99448  10.907  19.138   3.203
34288W        W99449  15.768  14.601   4.808
34289W        W99450  21.885  33.910   2.220
34290W        W99451  30.684  10.664   3.291
34291W        W99452  30.724  21.274  12.492
34292W        W99453  41.367  18.067  11.237
34293W        W99454  18.633  15.086  12.070
34294W        W99455  43.278   3.109  10.317
34295W        W99456   0.522  43.979   3.967
34296W        W99457  10.735  10.171  13.060
34297W        W99458   5.165  18.102  14.462
34298W        W99459  15.647  42.367   2.344
34299W        W99460  42.696  18.497  13.447
34300W        W99461  27.056   3.213   3.220
34301W        W99462  12.274  43.186  14.851
34302W        W99463  12.379   5.200   1.018
34303W        W99464  10.000  41.488   3.702
34304W        W99465  40.975  33.891   2.289
34305W        W99466  18.110  13.675   2.241
34306W        W99467  22.299  20.590  14.492
34307W        W99468  12.596  39.469  12.465
34308W        W99469  32.306  35.398  13.969
34309W        W99470  41.826  27.505   1.907
34310W        W99471  36.587   4.634  12.938
34311W        W99472  21.383  41.941  12.421
34312W        W99473  42.905  23.636   2.690
34313W        W99474  35.219  25.165  10.698
34314W        W99475  42.641  42.061  11.675
34315W        W99476  10.739   6.378  11.623
34316W        W99477  16.243  35.096   4.663
34317W        W99478  41.930  21.573  13.428
34318W        W99479  20.816  19.638   3.767
34319W        W99480   7.854   7.828   4.438
34320W        W99481  16.287   7.379   4.449
34321W        W99482   4.019   0.262  13.814
34322W        W99483  27.798  18.645   2.779
34323W        W99484  18.659  24.101   3.250
34324W        W99485  43.908  44.881   2.724
34325W        W99486   8.299  38.386  14.721
34326W        W99487   9.599  25.612  11.361
34327W        W99488  36.044  35.881  13.429
34328W        W99489  41.869  12.926   0.730
34329W        W99490  30.727  21.594   1.305
34330W        W99491  28.941  15.631  11.548
34331W        W99492  14.315   0.958  10.972
34332W        W99493  38.426  14.755  10.861
34333W        W99494  11.285  17.790   0.225
34334W        W99495  30.125   2.734  14.298
34335W        W99496  42.377  15.183   0.154
34336W        W99497  24.100  33.596  13.414
34337W        W99498  42.528  34.976   3.359
34338W        W99499  37.963  12.713  14.907
34339W        W99500  40.758  25.685  13.770
34340W        W99501  39.733   4.348  11.127
34341W        W99502   4.410   6.258   1.278
34342W        W99503  15.039  16.771   0.745
34343W        W99504  44.234  14.503  14.303
34344W        W99505   8.368  34.126   3.755
34345W        W99506  37.897  25.082   1.892
34346W        W99507   5.804  11.306  11.321
34347W        W99508  36.120  22.098  14.643
34348W        W99509  24.237  39.551  12.516
34349W        W99510  28.182  37.495  10.545
34350W        W99511   9.277  36.140  10.849
34351W        W99512   3.361  35.766   3.132
34352W        W99513  38.345  28.577  11.619
34353W        W99514  21.436  25.024  11.278
34354W        W99515   1.472  16.835  13.938
34355W        W99516  18.314   8.798   2.764
34356W        W99517   4.672   1.414  10.891
34357W        W99518  39.084  44.208   0.940
34358W        W99519  31.068  13.046   2.817
34359W        W99520  19.247  31.648   4.549
34360W        W99521  42.461  23.009  13.946
34361W        W99522  41.950  39.662   0.845
34362W        W99523   6.491  35.451  13.073
34363W        W99524  19.168  22.577   3.680
34364W        W99525   6.968  36.282   2.829
34365W        W99526  36.476   0.838   1.367
34366W        W99527  38.596  11.886   3.248
34367W        W99528  40.088  26.438  14.028
34368W        W99529  11.387  15.305   0.090
34369W        W99530  25.653  22.387  11.773
34370W        W99531  35.530  31.577  13.345
34371W        W99532  34.086  18.839  13.860
34372W        W99533  13.456  26.002   2.742
34373W        W99534  13.641  44.485   4.753
34374W        W99535   8.468  20.591  11.336
34375W        W99536  28.488   0.897  14.374
34376W        W99537  10.315  12.938   1.497
34377W        W99538   6.192  25.482   1.170
34378W        W99539  33.668  11.140   0.626
34379W        W99540  16.082  30.937  12.560
34380W        W99541  42.142   0.472   0.832
34381W        W99542  29.411   4.680  11.124
34382W        W99543   0.964  36.397  13.458
34383W        W99544  28.054  31.454   1.867
34384W        W99545  13.583   4.139  14.580
34385W        W99546  37.588  26.063  11.523
34386W        W99547  31.580  21.687   0.635
34387W        W99548  35.028  39.621  12.429
34388W        W99549   5.792  22.403   2.745
34389W        W99550  36.360   1.802   4.746
34390W        W99551  19.269  10.055  11.190
34391W        W99552  42.856  40.996  11.508
34392W        W99553  12.110  25.979  12.383
34393W        W99554  10.610  25.556  11.242
34394W        W99555   5.786  16.668   4.197
34395W        W99556  39.485  24.196   4.338
34396W        W99557   7.513  43.982  10.677
34397W        W99558  15.859  29.493   3.664
34398W        W99559   6.472   8.329   4.617
34399W        W99560  12.564   5.250   2.858
34400W        W99561  29.640  31.581  13.351
34401W        W99562  22.649  14.885   0.519
34402W        W99563  39.637  37.187   2.340
34403W        W99564  16.326  28.557   3.162
34404W        W99565  10.423  10.862   2.930
34405W        W99566  24.004  26.422  14.965
34406W        W99567  10.796  37.093   3.251
34407W        W99568  37.824   9.181  12.466
34408W        W99569  13.089  15.282  14.970
34409W        W99570  26.753  34.903   4.633
34410W        W99571  41.446  24.706  14.543
34411W        W99572  36.218   4.669   0.853
34412W        W99573  26.615  12.221  14.243
34413W        W99574  25.657  35.446   2.765
34414W        W99575  18.513   3.075  14.092
34415W        W99576   0.929  14.319   1.639
34416W        W99577   5.795  36.243  12.907
34417W        W99578  22.555  18.904   3.669
34418W        W99579  30.954  16.936   3.632
34419W        W99580  30.545  33.056  14.516
34420W        W99581  24.687   2.342  14.320
34421W        W99582   8.731   5.396  12.685
34422W        W99583  25.267  19.152   2.821
34423W        W99584  27.923  30.265   0.551
34424W        W99585  14.471  36.224   2.292
34425W        W99586  18.120   5.649   3.261
34426W        W99587  24.626  18.765  12.138
34427W        W99588  30.933  10.211   3.956
34428W        W99589  16.343  22.513   2.817
34429W        W99590  25.226  41.941  11.094
34430W        W99591  35.995  38.413  13.452
34431W        W99592  23.664  31.153   0.818
34432W        W99593  30.085   0.874   3.336
34433W        W99594   4.900  20.473  14.332
34434W        W99595  43.420  35.038   5.117
34435W        W99596  36.498   0.693  13.091
34436W        W99597  39.089  38.957   4.369
34437W        W99598  30.097  43.304  13.152
34438W        W99599  19.020  35.895   4.601
34439W        W99600  42.018   6.929   1.677
34440W        W99601  13.230  42.463   3.119
34441W        W99602  37.326  16.464   4.521
34442W        W99603  34.866  43.538   1.250
34443W        W99604  10.000   7.725  14.851
34444W        W99605  15.608   8.492  11.790
34445W        W99606  17.106   0.223  12.048
34446W        W99607  12.272  37.902  11.400
34447W        W99608  25.571  35.785   0.386
34448W        W99609   0.755  10.313   1.142
34449W        W99610  28.414   5.854   3.702
34450W        W99611   3.258  19.745   3.652
34451W        W99612   4.708   1.268  11.380
34452W        W99613   6.760  13.171  13.901
34453W        W99614  31.321  24.125   0.473
34454W        W99615  42.039  24.146   2.176
34455W        W99616   9.860  29.432  14.698
34456W        W99617  41.849  37.216   4.183
34457W        W99618  21.410  19.534  11.499
34458W        W99619  22.629  15.297  11.619
34459W        W99620  37.370   7.869  11.507
34460W        W99621   6.405   8.890  14.826
34461W        W99622  42.735  24.127  14.762
34462W        W99623  16.269  39.171  12.560
34463W        W99624   8.941  27.191   0.372
34464W        W99625  27.052  10.568  13.389
34465W        W99626  20.108  43.051   1.474
34466W        W99627  35.812   0.834  13.972
34467W        W99628   3.647   5.478   1.202
34468W        W99629  10.064  26.964   1.702
34469W        W99630  33.016   7.914   3.278
34470W        W99631  30.188  30.935   4.491
34471W        W99632  35.087  18.198  10.203
34472W        W99633   3.214  17.514   3.184
34473W        W99634   0.024  40.822  10.658
34474W        W99635   6.672  11.043   2.006
34475W        W99636   7.795   9.453  14.901
34476W        W99637  20.726  25.226  13.877
34477W        W99638   2.809  43.241   4.318
34478W        W99639   7.492  39.314   1.435
34479W        W99640  31.473  20.172   4.568
34480W        W99641  42.320  19.197   3.138
34481W        W99642  42.037  10.620   3.680
34482W        W99643  28.396  38.322  10.386
34483W        W99644   9.858  43.895   2.336
34484W        W99645  42.644  12.854  12.513
34485W        W99646  13.575  43.680   2.307
34486W        W99647  13.565  20.504  12.207
34487W        W99648  30.039  32.931  12.456
34488W        W99649   0.440  37.935   1.385
34489W        W99650  26.466  31.218  13.952
34490W        W99651  36.278  42.000   2.303
34491W        W99652   0.538  15.279   2.367
34492W        W99653  43.816  44.942  11.428
34493W        W99654  17.756  15.068   1.542
34494W        W99655  35.650  41.047  14.683
34495W        W99656  16.851   8.731  12.973
34496W        W99657  42.780  29.573   1.104
34497W        W99658  18.181  42.051   2.481
34498W        W99659   8.841  35.996  13.308
34499W        W99660  25.437  29.275   2.063
34500W        W99661  40.443  30.812   4.105
34501W        W99662  24.619  15.880  11.500
34502W        W99663  22.811   9.723   2.289
34503W        W99664   1.819  12.759  12.941
34504W        W99665  20.237  13.689   2.103
34505W        W99666  39.645   4.841  14.491
34506W        W99667  28.025   4.463   3.746
34507W        W99668  31.850  30.003   4.035
34508W        W99669   1.059  14.101  13.024
34509W        W99670  33.116   2.909  10.604
34510W        W99671  31.602  27.224   3.184
34511W        W99672  30.911   5.386  11.968
34512W        W99673   3.625  35.850  11.139
34513W        W99674  32.610  15.317   4.226
34514W        W99675  14.035  43.320   3.225
34515W        W99676  23.296  34.001   4.523
34516W        W99677   9.903  34.847  11.555
34517W        W99678   6.053   8.607   1.501
34518W        W99679  36.276   3.945   0.894
34519W        W99680  14.282  40.323  14.454
34520W        W99681   4.501   1.296   4.199
34521W        W99682  35.160  10.622   4.800
34522W        W99683  42.079  34.459   0.433
34523W        W99684   4.887  23.836  13.786
34524W        W99685  25.040  16.951   1.845
34525W        W99686  28.873  37.825   3.265
34526W        W99687  17.219  33.229   4.118
34527W        W99688  22.280  24.763  13.003
34528W        W99689   1.028  27.448  11.513
34529W        W99690  13.321   7.388   0.910
34530W        W99691  20.481  37.325   2.858
34531W        W99692  30.450  18.674   4.846
34532W        W99693  11.691   1.907   0.236
34533W        W99694  24.901  41.318  12.319
34534W        W99695  24.884   9.958   1.685
34535W        W99696  22.222   9.438  13.414
34536W        W99697  30.705   4.615   0.925
34537W        W99698   8.247   9.660   4.294
34538W        W99699  41.001  41.440  13.717
34539W        W99700   7.356  23.192  12.603
34540W        W99701  44.426  10.714   1.050
34541W        W99702  12.237  30.639   2.318
34542W        W99703   9.636  12.326   1.798
34543W        W99704  28.181  26.601   3.121
34544W        W99705  34.458  16.504  11.166
34545W        W99706  30.545  24.167  14.374
34546W        W99707  42.001  38.290   2.759
34547W        W99708  12.070  29.411  10.941
34548W        W99709  15.113  44.362  11.561
34549W        W99710  42.923  36.765   1.899
34550W        W99711  12.778  35.888  11.375
34551W        W99712  41.786  20.335   3.837
34552W        W99713  34.035  13.859  11.155
34553W        W99714   5.079   4.519  11.644
34554W        W99715  38.801   0.329  14.035
34555W        W99716  32.105  27.919   1.880
34556W        W99717   1.434  34.464   0.988
34557W        W99718  23.843  21.092  13.802
34558W        W99719  27.835  26.632  12.817
34559W        W99720  31.101  14.562  12.853
34560W        W99721  41.564   6.177   0.785
34561W        W99722  26.674  44.639  10.693
34562W        W99723  43.202  13.631  13.939
34563W        W99724  30.611  27.218  14.129
34564W        W99725  12.718  27.642  12.986
34565W        W99726   1.749   9.679  14.515
34566W        W99727  14.773  29.491  14.357
34567W        W99728   3.552  20.134   0.832
34568W        W99729   0.793   4.678   3.940
34569W        W99730  21.803  25.303   0.372
34570W        W99731  31.901  21.434  11.520
34571W        W99732  38.288   5.710   2.417
34572W        W99733  23.767   0.271  10.984
34573W        W99734  39.640  18.318  13.912
34574W        W99735  40.510   8.951  10.542
34575W        W99736  14.109   2.037  11.602
34576W        W99737  25.707  17.204  12.464
34577W        W99738  31.617  39.532  14.440
34578W        W99739  10.799  10.457  13.508
34579W        W99740  39.010  14.086  11.624
34580W        W99741   1.921  10.541  14.261
34581W        W99742  20.149   3.377   2.753
34582W        W99743  30.963  19.034   1.199
34583W        W99744  10.207  30.532  14.433
34584W        W99745   4.122  31.119   2.003
34585W        W99746  21.631  14.248  14.937
34586W        W99747  13.643   0.451  14.443
34587W        W99748  31.661  26.024   2.749
34588W        W99749  22.442  34.130   2.677
34589W        W99750  37.828  17.796   0.864
34590W        W99751  41.586  19.030  11.258
34591W        W99752  24.540  26.916   5.037
34592W        W99753  39.391   7.404  12.954
34593W        W99754   7.515  31.866  10.012
34594W        W99755  43.210  23.244  14.479
34595W        W99756   5.682   3.016  14.249
34596W        W99757  16.868  36.078   3.482
34597W        W99758   3.585   7.625  11.552
34598W        W99759  11.535  14.068   4.231
34599W        W99760  20.622  27.349  10.959
34600W        W99761  33.926  21.269   1.785
34601W        W99762  32.513  20.182   4.301
34602W        W99763  36.888  19.650  12.042
34603W        W99764  41.263  39.897   4.140
34604W        W99765  31.545  10.103   1.873
34605W        W99766   0.464  12.421   2.220
34606W        W99767  33.403  32.646  11.185
34607W        W99768  13.562  10.547  11.537
34608W        W99769  41.777  29.478  14.929
34609W        W99770   4.755   2.293   3.697
34610W        W99771  18.465  39.178   0.229
34611W        W99772  34.191  30.827  13.021
34612W        W99773   4.781  19.099  11.194
34613W        W99774  13.624   7.451   2.719
34614W        W99775  22.029  17.088  10.297
34615W        W99776  41.276  25.068   4.173
34616W        W99777  24.481   1.965   1.400
34617W        W99778  29.965  38.761   1.561
34618W        W99779  17.292  42.952   4.347
34619W        W99780  41.001  37.706   2.633
34620W        W99781  23.272  40.114  11.532
34621W        W99782   8.004  36.102   0.966
34622W        W99783  12.868   3.709  13.482
34623W        W99784  14.624  33.320  10.700
34624W        W99785  23.045  37.360  11.607
34625W        W99786  33.414  36.339   0.200
34626W        W99787  32.180  31.858   4.095
34627W        W99788  44.897  13.937  14.240
34628W        W99789  12.199  31.071   2.596
34629W        W99790  10.293  35.815  13.177
34630W        W99791  11.654  19.941   0.076
34631W        W99792  43.738  28.517   2.410
34632W        W99793  11.230  42.759  10.651
34633W        W99794  37.591  30.322   0.008
34634W        W99795  37.906  43.401  13.897
34635W        W99796  37.897   1.209   2.612
34636W        W99797  40.252   8.442   1.468
34637W        W99798  17.140  24.940   2.848
34638W        W99799  33.021  16.077  14.580
34639W        W99800  38.539  15.409  11.801
34640W        W99801  28.439  39.035   0.237
34641W        W99802  28.108  39.558  13.959
34642W        W99803  21.012  15.093   2.604
34643W        W99804  14.770  15.210  10.722
34644W        W99805  15.676  29.363  10.472
34645W        W99806  23.307  16.003   5.399
34646W        W99807   8.966  27.720  14.900
34647W        W99808   1.052  18.705   0.468
34648W        W99809  26.959  26.353  12.995
34649W        W99810   4.127  35.435   1.453
34650W        W99811  38.494  41.428   0.273
34651W        W99812  37.874   2.489   1.227
34652W        W99813  30.353  18.717   3.839
34653W        W99814  29.717  15.340  13.539
34654W        W99815  33.202  31.395   1.713
34655W        W99816   7.677  12.691  10.737
34656W        W99817  29.042  30.223  12.021
34657W        W99818   2.176  15.513  10.511
34658W        W99819  26.634  19.486   3.204
34659W        W99820  20.070  23.122   0.042
34660W        W99821  20.656  19.177   3.568
34661W        W99822  34.621   6.332  11.499
34662W        W99823  13.080  17.688   3.210
34663W        W99824  35.537  30.972   4.340
34664W        W99825   6.459  28.067  13.819
34665W        W99826  44.014  30.952  11.136
34666W        W99827  37.885   6.314   4.636
34667W        W99828  42.384  20.198   0.231
34668W        W99829  12.580  43.939   1.269
34669W        W99830  39.496  30.861   3.295
34670W        W99831   6.792   9.724  14.930
34671W        W99832  11.633  35.990   2.283
34672W        W99833   9.335  24.395   1.951
34673W        W99834  42.339  16.672   4.734
34674W        W99835  12.783  37.833   2.349
34675W        W99836  28.047  33.529   3.900
34676W        W99837  35.839  11.116  10.731
34677W        W99838  11.154  32.352   2.707
34678W        W99839  24.005   3.523  12.478
34679W        W99840   4.788  36.109   0.493
34680W        W99841  16.034   9.240   2.835
34681W        W99842  24.953  39.900   0.828
34682W        W99843  17.846  33.315  10.914
34683W        W99844   8.290  32.444  12.699
34684W        W99845   6.254  36.794  14.870
34685W        W99846  34.866  20.702   2.296
34686W        W99847  44.016   1.964   3.044
34687W        W99848  40.832  40.789   1.765
34688W        W99849   9.286   9.701   1.154
34689W        W99850   0.398  40.791  11.845
34690W        W99851  22.204  40.769   2.403
34691W        W99852  30.668  28.609   2.838
34692W        W99853  35.031  37.996   3.122
34693W        W99854  27.221  31.793  12.412
34694W        W99855  10.853  37.551   0.047
34695W        W99856  42.297  13.371  12.001
34696W        W99857  33.429  39.290   0.234
34697W        W99858  42.086  26.994  11.455
34698W        W99859  19.712  13.786   0.931
34699W        W99860   7.563   2.510  11.126
34700W        W99861  30.081  10.701   0.768
34701W        W99862   4.876  33.972   0.297
34702W        W99863  44.680  17.741  14.972
34703W        W99864  27.706   0.348  12.009
34704W        W99865  42.820  18.220   3.114
34705W        W99866  39.459  16.876  13.712
34706W        W99867  17.520   1.881   3.890
34707W        W99868  30.560  25.732   0.849
34708W        W99869  22.763  41.922  12.789
34709W        W99870   2.098  38.496   2.712
34710W        W99871  20.037  41.544  12.641
34711W        W99872   8.910   6.486  12.085
34712W        W99873  44.059  16.039   3.189
34713W        W99874  16.608  15.494  14.332
34714W        W99875  25.228  13.714   2.938
34715W        W99876  17.047   4.393  10.871
34716W        W99877   9.307  35.394   0.329
34717W        W99878  35.904  39.784  14.901
34718W        W99879   4.870  35.463  14.678
34719W        W99880  36.790  27.295  13.431
34720W        W99881  40.676  31.176  11.156
34721W        W99882  24.591  36.070   2.207
34722W        W99883  17.742  23.740   1.776
34723W        W99884  44.012   0.213  13.027
34724W        W99885   3.633  39.216   4.233
34725W        W99886   4.724  44.167  12.448
34726W        W99887  37.006  41.239  10.623
34727W        W99888  19.331   3.297   1.094
34728W        W99889  42.360  19.490  12.061
34729W        W99890   5.106   1.487   2.832
34730W        W99891  33.249  27.637   3.149
34731W        W99892  12.219  38.442   3.844
34732W        W99893  38.298  16.070  10.889
34733W        W99894  21.255  27.334  12.214
34734W        W99895  18.615  30.479   4.540
34735W        W99896  16.016  36.466  14.049
34736W        W99897  20.707   5.318  11.747
34737W        W99898  25.575   4.434   4.581
34738W        W99899  42.241  16.944  11.718
34739W        W99900  44.406   3.414   0.875
34740W        W99901  10.044   0.304  11.101
34741W        W99902  43.295  40.760  13.853
34742W        W99903  38.349  29.523   4.599
34743W        W99904   3.287  22.659  12.405
34744W        W99905   2.207   5.519   2.963
34745W        W99906  23.594  42.088   1.974
34746W        W99907   6.289  12.276  10.711
34747W        W99908  31.759  34.872  11.969
34748W        W99909  35.908   5.004   2.306
34749W        W99910   4.955   6.742   0.305
34750W        W99911  21.535   5.970  13.024
34751W        W99912  19.712   6.564   0.391
34752W        W99913  19.077  41.450   3.602
34753W        W99914  10.651  29.012   1.153
34754W        W99915   8.800   4.405   0.165
34755W        W99916  32.873  39.038  13.578
34756W        W99917  16.479  18.176  13.665
34757W        W99918  29.455  28.818  13.918
34758W        W99919  20.616  12.404  14.855
34759W        W99920  38.449  19.026   3.106
34760W        W99921  11.693  10.304   4.271
34761W        W99922  42.453  26.872   3.287
34762W        W99923  15.236  14.456  13.143
34763W        W99924   6.006  44.840  11.622
34764W        W99925  44.313  35.128   0.353
34765W        W99926  33.153  11.198  14.385
34766W        W99927   2.856  37.765  12.157
34767W        W99928  35.791   9.527   4.388
34768W        W99929  42.512  37.989   4.168
34769W        W99930  44.264  32.417  12.966
34770W        W99931  29.953  19.724   3.089
34771W        W99932  35.021  33.476   0.347
34772W        W99933  26.457  32.972   1.739
34773W        W99934  32.892  34.019  11.573
34774W        W99935  25.191  43.411   1.952
34775W        W99936   6.046  18.754   2.243
34776W        W99937  40.937  31.867   2.281
34777W        W99938  28.440  22.100   2.429
34778W        W99939  21.332  14.614   0.877
34779W        W99940  23.106   3.377   3.246
34780W        W99941  37.848  24.725   4.260
34781W        W99942  35.355  24.019   0.025
34782W        W99943  14.659   1.533   2.129
34783W        W99944  36.133   8.806   0.398
34784W        W99945  39.144  30.636   1.050
34785W        W99946  42.853  29.428   3.288
34786W        W99947   7.741  40.258   4.301
34787W        W99948   3.661  38.601  13.403
34788W        W99949  17.148  31.971   2.361
34789W        W99950  41.767  42.945   2.715
34790W        W99951  34.945  15.996  14.888
34791W        W99952  10.884   6.208   3.689
34792W        W99953  24.915  28.760  13.902
34793W        W99954  30.693  39.819   3.171
34794W        W99955  35.794  29.889  14.393
34795W        W99956   8.653   9.271  13.029
34796W        W99957  14.050  30.063   0.774
34797W        W99958  34.384  32.962   2.732
34798W        W99959   4.977   6.370  14.885
34799W        W99960  21.160  11.140  14.093
34800W        W99961  16.121  12.118   1.704
34801W        W99962  44.943  36.359   1.388
34802W        W99963   6.183  24.623   0.469
34803W        W99964  36.425  39.339   2.274
34804W        W99965  23.138   1.206  14.894
34805W        W99966   1.804  36.476   2.255
34806W        W99967  25.159   9.252   2.673
34807W        W99968  13.054  22.665   4.141
34808W        W99969  37.215  11.865  13.678
34809W        W99970   3.640  27.190  10.770
34810W        W99971  10.311  37.611   2.737
34811W        W99972  22.483  26.666  13.997
34812W        W99973   6.442  30.134   0.393
34813W        W99974   1.624  21.298  13.719
34814W        W99975  41.501  24.635  13.016
34815W        W99976  19.118   8.258   4.492
34816W        W99977  18.824  11.176  14.905
34817W        W99978  33.654   4.899   4.660
34818W        W99979  34.532  22.305   3.749
34819W        W99980  33.849  32.451   2.200
34820W        W99981  41.686  14.191  14.043
34821W        W99982  38.099  41.438  12.807
34822W        W99983   4.136  23.638  14.130
34823W        W99984   0.236  27.732   2.475
34824W        W99985   4.648  40.388  11.956
34825W        W99986  23.554  24.449   0.826
34826W        W99987  10.871  33.967  10.607
34827W        W99988  35.995  36.314   3.705
34828W        W99989  26.423   2.585  10.973
34829W        W99990  13.889  25.139  11.492
34830W        W99991   6.188  39.850   4.089
34831W        W99992  10.365  14.291  11.201
34832W        W99993  41.302  20.816   0.758
34833W        W99994  16.781  19.529  11.607
34834W        W99995   3.954  44.067  14.863
34835W        W99996  43.857  15.045  11.555
34836W        W99997  23.838  41.228   0.345
34837W        W99998   9.809  13.924   3.402
34838W        W99999  27.047  11.290  13.764
34839W        W    0  42.308  36.885   2.302
34840W        W    1  43.254   3.354  12.543
34841W        W    2   4.535  36.094   2.789
34842W        W    3  36.564  43.206   3.665
34843W        W    4  21.129  22.012  13.325
34844W        W    5   2.409  17.520   4.433
34845W        W    6   2.949  11.344   1.357
34846W        W    7   4.488  20.721  12.498
34847W        W    8   7.740  21.024   4.229
34848W        W    9   8.419  30.185   1.313
34849W        W   10  11.906   1.395  14.563
34850W        W   11   8.267  19.152   3.820
34851W        W   12   9.965  36.480  12.150
34852W        W   13  41.877  41.901   4.746
34853W        W   14  26.674   4.483   2.230
34854W        W   15   4.886  44.417   3.160
34855W        W   16  21.110  12.971   3.492
34856W        W   17  43.663  13.352  10.199
34857W        W   18   9.864  20.645  11.442
34858W        W   19   2.410   4.608   1.421
34859W        W   20  10.817  26.609   3.612
34860W        W   21  43.459  36.920  14.488
34861W        W   22   2.406  12.048  11.206
34862W        W   23  27.047   9.346   1.758
34863W        W   24  12.739  13.409   2.426
34864W        W   25   4.922   5.597  13.833
34865W        W   26  43.987   8.019   4.235
34866W        W   27  30.422  24.521   1.617
34867W        W   28  40.925  28.690  13.669
34868W        W   29  27.707  28.623   2.853
34869W        W   30  34.134  25.130  12.456
34870W        W   31  31.226  21.189  13.452
34871W        W   32  10.633  21.234   3.745
34872W        W   33  15.271  14.794   4.740
34873W        W   34   9.349   3.134   3.265
34874W        W   35  43.795  32.453  13.502
34875W        W   36  22.240  15.957  11.645
34876W        W   37  23.057  16.665   3.772
34877W        W   38  16.222  25.173  10.622
34878W        W   39  38.994  29.963   3.628
34879W        W   40  30.740  22.994  12.900
34880W        W   41  23.162  30.994  12.020
34881W        W   42  12.620   6.570  11.094
34882W        W   43  22.235   1.542   2.621
34883W        W   44  20.081  44.853   4.613
34884W        W   45   9.168  36.826  12.841
34885W        W   46  41.290  28.688   2.100
34886W        W   47  30.679  42.658  10.301
34887W        W   48  32.020  14.676  11.955
34888W        W   49  15.771   8.910   1.159
34889W        W   50   7.151  43.361  11.234
34890W        W   51   8.220   6.473   0.571
34891W        W   52  43.428  17.794   3.156
34892W        W   53  27.511  28.867   4.436
34893W        W   54  14.397  27.476  11.666
34894W        W   55  23.605  20.680  14.968
34895W        W   56  42.149  18.480   0.207
34896W        W   57  30.640  42.428   4.564
34897W        W   58  17.099  39.283   3.643
34898W        W   59  22.697  26.884   1.859
34899W        W   60  35.884   3.770   1.626
34900W        W   61  29.692  15.291  14.424
34901W        W   62  15.302  41.263   4.443
34902W        W   63  34.690  12.702   2.602
34903W        W   64  30.852  34.480   0.796
34904W        W   65  43.913  42.866  12.634
34905W        W   66  41.248  29.880   4.648
34906W        W   67  23.698  28.750   1.361
34907W        W   68   7.879  37.137  14.591
34908W        W   69  31.524  36.583  13.340
34909W        W   70  27.608   3.703   3.763
34910W        W   71  34.997  15.175   4.734
34911W        W   72  33.902  14.567   2.796
34912W        W   73   1.367   1.303   2.302
34913W        W   74  12.661  18.526   5.141
34914W        W   75  25.052  16.054   1.660
34915W        W   76  30.954  15.510   0.753
34916W        W   77  24.664  35.381  11.122
34917W        W   78  31.112  11.086   3.780
34918W        W   79  11.888   1.772   4.128
34919W        W   80  10.112  34.450  11.810
34920W        W   81  15.335   8.667   1.216
34921W        W   82  22.654  21.603  11.945
34922W        W   83   0.500   1.325   4.074
34923W        W   84  36.150  43.154  10.450
34924W        W   85   9.352  30.044   3.170
34925W        W   86  12.084   3.839  12.045
34926W        W   87  31.601  26.688  12.048
34927W        W   88  38.485  23.332  13.498
34928W        W   89  25.514  17.769   2.880
34929W        W   90  17.650  38.376   0.953
34930W        W   91  22.443  42.602  13.884
34931W        W   92  44.901  11.283  12.030
34932W        W   93   4.131   3.482  14.059
34933W        W   94  44.388   9.188  13.757
34934W        W   95  12.868   5.935   1.807
34935W        W   96  39.078  34.997  11.946
34936W        W   97  36.777  13.644  13.115
34937W        W   98  37.361  33.985  13.060
34938W        W   99  39.167   7.298   0.510
34939W        W  100  30.509  10.225  14.240
34940W        W  101   5.979  17.669  11.238
34941W        W  102  16.859  31.388  13.370
34942W        W  103  18.745  37.568   0.732
34943W        W  104   0.517  18.351   1.453
34944W        W  105  36.995  32.830   3.554
34945W        W  106  28.096  34.293  13.558
34946W        W  107  28.204  13.369  13.383
34947W        W  108  11.612  34.889  12.571
34948W        W  109  30.033  13.535  11.153
34949W        W  110  16.055  34.566  14.550
34950W        W  111   1.754  22.527  11.246
34951W        W  112   4.784  37.151  14.004
34952W        W  113  42.259  43.298   1.101
34953W        W  114  13.984  42.212   0.872
34954W        W  115   2.902   8.767   1.916
34955W        W  116   2.410  41.560   3.877
34956W        W  117   2.312  41.436  12.382
34957W        W  118  39.512  29.031  14.743
34958W        W  119   9.729   7.297  14.965
34959W        W  120  23.515  27.995   4.645
34960W        W  121  33.930  43.399  11.582
34961W        W  122  17.247  30.976   2.309
34962W        W  123   5.935  14.890  10.897
34963W        W  124  31.699  44.907  11.622
34964W        W  125   2.712  11.743   2.244
34965W        W  126  24.248   4.325   1.630
34966W        W  127  13.586   4.284  12.455
34967W        W  128  42.001  31.586   4.858
34968W        W  129   6.594  40.205  12.409
34969W        W  130  10.650  42.783   0.235
34970W        W  131  26.450   1.507  13.867
34971W        W  132  12.384   2.770  12.587
34972W        W  133  38.796  11.357   2.706
34973W        W  134  30.594   5.428   2.215
34974W        W  135  40.385   9.428  13.891
34975W        W  136  21.515  20.533   2.170
34976W        W  137   5.384   0.411   4.558
34977W        W  138  20.938  22.357   3.151
34978W        W  139   4.770  10.251   3.694
34979W        W  140  22.446  35.101   0.494
34980W        W  141  30.615  14.100  14.833
34981W        W  142  28.543  27.740  14.137
34982W        W  143  38.366  20.060   2.868
34983W        W  144   6.391  17.441   0.976
34984W        W  145  18.062  24.572  13.940
34985W        W  146  37.369  20.650  11.176
34986W        W  147  13.870  28.077   1.766
34987W        W  148  28.690  36.808  11.077
34988W        W  149  25.885  21.120   0.731
34989W        W  150   5.363  11.071  11.232
34990W        W  151  34.336   5.002   2.678
34991W        W  152  12.479   8.185  13.308
34992W        W  153  44.232   3.774   1.652
34993W        W  154  33.842   3.472  10.733
34994W        W  155  27.014   3.582  10.335
34995W        W  156  20.071  32.647  11.197
34996W        W  157  11.828   7.618   3.565
34997W        W  158  27.997  23.220   3.654
34998W        W  159   4.030  35.305  12.127
34999W        W  160  42.753  13.077  14.973
35000W        W  161  27.284  15.273   2.182
35001W        W  162  17.376  23.492   4.909
35002W        W  163  26.078  38.929  10.566
35003W        W  164  15.066   7.553   4.615
35004W        W  165   8.982  40.970  10.653
35005W        W  166  15.663  10.712  12.603
35006W        W  167  31.089   6.373   1.356
35007W        W  168  41.445  43.809   1.210
35008W        W  169  27.022  12.942  11.970
35009W        W  170  18.196  10.714  11.070
35010W        W  171   5.221  37.544   2.171
35011W        W  172  41.497  25.742  14.452
35012W        W  173  25.115  30.179   1.261
35013W        W  174  27.935   5.390  12.332
35014W        W  175   2.388  44.221  11.575
35015W        W  176   9.818  17.955  13.819
35016W        W  177  20.577  15.643  14.480
35017W        W  178   5.142  41.933   2.190
35018W        W  179   9.895  34.631   0.849
35019W        W  180  13.533  18.931  14.969
35020W        W  181  15.528  22.134   1.254
35021W        W  182  22.125  25.444   2.859
35022W        W  183   3.891  41.005  10.986
35023W        W  184  31.791  22.274  12.589
35024W        W  185  10.406  40.849   3.272
35025W        W  186  16.362  29.539   1.617
35026W        W  187  20.950  36.393   0.901
35027W        W  188  25.994  35.454  14.935
35028W        W  189  27.200  27.977   4.517
35029W        W  190  42.057  32.443   0.318
35030W        W  191  22.747  15.878   1.396
35031W        W  192  43.368  28.630   4.617
35032W        W  193  38.303  39.091  13.886
35033W        W  194  43.829  10.676  10.907
35034W        W  195  40.078   7.127  14.511
35035W        W  196  10.284  44.503   1.753
35036W        W  197   8.465  34.983   5.017
35037W        W  198  16.144  19.285   3.071
35038W        W  199  29.572  43.224  11.505
35039W        W  200   9.099  33.051  13.848
35040W        W  201  11.144  23.545   0.317
35041W        W  202  44.726  26.475  10.069
35042W        W  203  24.591  40.413  14.746
35043W        W  204   1.619  37.172   5.411
35044W        W  205  11.207  42.789  11.567
35045W        W  206  22.392  24.939  12.094
35046W        W  207  42.890  26.526   0.485
35047W        W  208  17.982  13.787   1.361
35048W        W  209  30.646  35.455  11.645
35049W        W  210  15.821  29.505  11.678
35050W        W  211  42.492   0.312   0.115
35051W        W  212  10.284  16.019   0.533
35052W        W  213  24.736   2.978  14.786
35053W        W  214   0.019  44.062   1.800
35054W        W  215  18.728  19.199  13.087
35055W        W  216  42.420  11.635  14.755
35056W        W  217  29.071  19.834   1.899
35057W        W  218  37.043   6.884   1.505
35058W        W  219  23.538  28.497   0.377
35059W        W  220  13.168  28.934   3.254
35060W        W  221  33.977  31.512   2.455
35061W        W  222  28.634  30.557   0.791
35062W        W  223  33.563  36.511  10.991
35063W        W  224   7.698  19.501  10.278
35064W        W  225  44.465  27.177  12.408
35065W        W  226  41.317   9.351  11.543
35066W        W  227  13.808   3.779   4.802
35067W        W  228  31.117   8.790  14.013
35068W        W  229  44.854   7.636  11.171
35069W        W  230  24.582   8.813   0.815
35070W        W  231  29.231  23.405   1.303
35071W        W  232   5.972  26.350  12.002
35072W        W  233  20.627  32.958   2.958
35073W        W  234  31.045   5.853   1.739
35074W        W  235  27.437  10.597   5.378
35075W        W  236  17.575  28.934  12.798
35076W        W  237  41.079   7.205  12.053
35077W        W  238  42.259   2.306   4.858
35078W        W  239  35.322  12.708  11.145
35079W        W  240   1.966   5.283  10.757
35080W        W  241  42.383  39.792   3.340
35081W        W  242   7.118   9.123  10.891
35082W        W  243   1.872  10.310  13.757
35083W        W  244  41.296  15.789   0.665
35084W        W  245  34.019  43.002   4.507
35085W        W  246   0.355  43.583  13.140
35086W        W  247  20.753  14.554   2.547
35087W        W  248   0.688  29.374  13.788
35088W        W  249   3.194  12.585   3.685
35089W        W  250  24.065  25.151   1.149
35090W        W  251  26.587  35.917  12.887
35091W        W  252   6.993   8.828  12.996
35092W        W  253  15.785  11.727   0.397
35093W        W  254  42.044   8.720  10.622
35094W        W  255  27.608  26.997   2.252
35095W        W  256  17.387   4.598  12.940
35096W        W  257  12.206  24.531  13.754
35097W        W  258  43.301   8.286   1.269
35098W        W  259  25.590  17.746   0.196
35099W        W  260  20.974  14.886   3.840
35100W        W  261  26.654  16.789  14.281
35101W        W  262  20.065  18.184  12.673
35102W        W  263   5.051   6.118   1.601
35103W        W  264  17.574  13.665  14.699
35104W        W  265  21.527  20.647  11.032
35105W        W  266   0.727  32.740  12.789
35106W        W  267  36.961   1.870   4.716
35107W        W  268  25.388  26.160   4.143
35108W        W  269  40.963  21.379   3.841
35109W        W  270  17.035  38.117   4.745
35110W        W  271  21.988  39.328   4.668
35111W        W  272  35.077  44.228  10.254
35112W        W  273  41.396  27.137   2.661
35113W        W  274  39.245  34.009  11.615
35114W        W  275   0.171  15.382   3.655
35115W        W  276  29.900  42.161   2.230
35116W        W  277  18.750  35.829  13.420
35117W        W  278  22.311   4.253   0.327
35118W        W  279  18.656   4.341   3.389
35119W        W  280   7.603  28.189   4.470
35120W        W  281  38.061  37.440   2.843
35121W        W  282  42.372  23.123  14.440
35122W        W  283  15.203  16.541   1.168
35123W        W  284  31.219  30.520   1.257
35124W        W  285  43.020  44.309   0.725
35125W        W  286  17.123  23.069   3.252
35126W        W  287  24.802  16.382  13.424
35127W        W  288  10.012  16.381   1.035
35128W        W  289  14.534  41.741   4.102
35129W        W  290  40.790  43.484   2.431
35130W        W  291   6.446  17.469  13.094
35131W        W  292  17.535  13.751  13.748
35132W        W  293   3.702  18.905   4.871
35133W        W  294  26.868  19.150  12.003
35134W        W  295  39.246  41.753   1.460
35135W        W  296  38.006  25.689   0.744
35136W        W  297  15.988  30.224   0.805
35137W        W  298   3.316  39.756  11.872
35138W        W  299  25.194  21.078  12.162
35139W        W  300  39.390  26.143  12.915
35140W        W  301   7.558   9.738  14.490
35141W        W  302  12.220   6.450  14.428
35142W        W  303  38.999   7.322   3.363
35143W        W  304  40.458  23.553  14.373
35144W        W  305   4.628  15.901  10.734
35145W        W  306  32.564  36.329   0.215
35146W        W  307  15.108   1.688   3.743
35147W        W  308   6.259  33.055  14.317
35148W        W  309  44.996  17.139  13.485
35149W        W  310   2.935   3.336   4.722
35150W        W  311  38.343  44.698   2.192
35151W        W  312   0.424  19.838  12.438
35152W        W  313  10.832   5.486  13.420
35153W        W  314  33.187   5.803  10.183
35154W        W  315   5.178  33.084  13.915
35155W        W  316  14.953  12.966  13.924
35156W        W  317  15.699   6.351  11.436
35157W        W  318  11.751  24.339   1.335
35158W        W  319   4.743  35.563   0.451
35159W        W  320  22.363  35.959  11.868
35160W        W  321  19.029  32.417  10.408
35161W        W  322  31.916  38.561   5.045
35162W        W  323   8.370   3.688   4.417
35163W        W  324   6.360  17.502  12.572
35164W        W  325  12.797  34.000   3.820
35165W        W  326  40.023  38.674  14.248
35166W        W  327  39.478  29.947  14.814
35167W        W  328  39.623  22.617  13.432
35168W        W  329  11.352  30.700   4.595
35169W        W  330   7.442   8.701   4.532
35170W        W  331   7.686   8.268   0.965
35171W        W  332   8.086  21.751  13.995
35172W        W  333  36.116  29.408   2.855
35173W        W  334  28.995  22.276  10.780
35174W        W  335  16.046  22.259  14.355
35175W        W  336   2.532  31.982  11.174
35176W        W  337   5.966  23.638   3.254
35177W        W  338  39.001  11.686  14.044
35178W        W  339  29.661  18.822   4.374
35179W        W  340  15.306  17.688   0.460
35180W        W  341  33.699  34.430   0.241
35181W        W  342   0.946  26.447   0.261
35182W        W  343   1.967  15.299   4.118
35183W        W  344   6.183  17.989  12.573
35184W        W  345  28.698  18.802  12.013
35185W        W  346  44.948   9.588   0.503
35186W        W  347  34.025  28.648  10.671
35187W        W  348  31.280  17.777   3.168
35188W        W  349  18.080  40.222  12.929
35189W        W  350  41.503  35.169  13.433
35190W        W  351  37.947  19.784   4.617
35191W        W  352  20.932   6.993  13.445
35192W        W  353  29.009  19.782   2.798
35193W        W  354  18.830  34.758   1.721
35194W        W  355   4.703  23.313   3.046
35195W        W  356  37.044  12.253  13.119
35196W        W  357  40.358  21.572   4.486
35197W        W  358   3.213  44.275   1.523
35198W        W  359  19.623  36.643   2.242
35199W        W  360  23.985  12.649  11.946
35200W        W  361  17.111  11.327   3.650
35201W        W  362  43.919  18.238   1.067
35202W        W  363   7.640   2.366   4.636
35203W        W  364  19.131  31.752  14.496
35204W        W  365  29.496  26.038   1.901
35205W        W  366  20.197  18.159   3.459
35206W        W  367  19.960  41.310  10.504
35207W        W  368  36.087   6.467  13.858
35208W        W  369  15.540  19.437   2.016
35209W        W  370  37.922  24.792  10.970
35210W        W  371  33.684  35.796   1.644
35211W        W  372  26.139  12.530   1.294
35212W        W  373  15.362  22.578  10.651
35213W        W  374  12.772  25.189   4.155
35214W        W  375  29.943  36.815   1.246
35215W        W  376  36.397  33.521   4.693
35216W        W  377  24.596  37.005  11.527
35217W        W  378  28.887  11.142  13.596
35218W        W  379  37.997  29.933  14.256
35219W        W  380   0.348   8.034   4.541
35220W        W  381  38.906  25.554  13.350
35221W        W  382  13.766  17.769  12.541
35222W        W  383  31.110  26.519   1.728
35223W        W  384   7.837  16.165  12.899
35224W        W  385  36.605  19.579   4.137
35225W        W  386  25.988  37.262   0.644
35226W        W  387  18.988  25.192  14.912
35227W        W  388  13.194   9.558  13.441
35228W        W  389   8.270  26.196  11.612
35229W        W  390  32.106   3.008   1.222
35230W        W  391   6.293  26.670   1.917
35231W        W  392  10.488   5.319   4.198
35232W        W  393   5.963  16.024  13.461
35233W        W  394  42.358   5.749   1.336
35234W        W  395  41.988  31.997  11.737
35235W        W  396  17.548  30.960  13.566
35236W        W  397  23.467  15.500   3.601
35237W        W  398  12.558   6.139   0.429
35238W        W  399   4.824  24.586  10.709
35239W        W  400  31.534   1.293  11.501
35240W        W  401  38.793  17.808   5.016
35241W        W  402   5.941  26.453   9.714
35242W        W  403  40.316  42.768   3.762
35243W        W  404  15.100  35.229  14.770
35244W        W  405   7.432  22.427   0.030
35245W        W  406  15.183   4.773  13.598
35246W        W  407  16.267  19.696  14.027
35247W        W  408  28.166  33.767  13.529
35248W        W  409  19.761  33.352   4.262
35249W        W  410   6.988  30.635   5.070
35250W        W  411   7.993  42.337  12.512
35251W        W  412  27.798  33.025  12.060
35252W        W  413  11.703  27.992  10.863
35253W        W  414  33.950   6.575  14.693
35254W        W  415  34.957  29.754  11.158
35255W        W  416  38.148  41.557   4.513
35256W        W  417  35.944   1.880  13.852
35257W        W  418  36.829  14.856   1.012
35258W        W  419   8.555  18.800  13.039
35259W        W  420  40.476  10.848   1.278
35260W        W  421   6.955  38.062  12.926
35261W        W  422  15.734   2.296  14.049
35262W        W  423  36.256  38.343   4.959
35263W        W  424  23.405  15.748   3.051
35264W        W  425  33.086  28.658  11.647
35265W        W  426   2.426   8.602   1.768
35266W        W  427  33.264   6.082   4.853
35267W        W  428  10.199  11.112   0.269
35268W        W  429  25.624  13.354   5.190
35269W        W  430  10.958  19.010   2.186
35270W        W  431  26.383  33.175   4.492
35271W        W  432   5.855  32.392  13.829
35272W        W  433  14.538   0.421  14.292
35273W        W  434  32.938  25.725  11.700
35274W        W  435  36.572  23.100   4.317
35275W        W  436  35.496   1.087  14.314
35276W        W  437  41.813   5.320   4.408
35277W        W  438  27.324  44.080  10.356
35278W        W  439  37.009  42.035   4.105
35279W        W  440  27.439   9.605  12.448
35280W        W  441  29.807   8.886   4.548
35281W        W  442  22.098  35.831  11.437
35282W        W  443   4.303  23.891   3.809
35283W        W  444   4.031  30.909  12.872
35284W        W  445  10.357   1.462  14.074
35285W        W  446   0.640  35.459   1.223
35286W        W  447  30.453   1.036  12.785
35287W        W  448  41.384  39.837   0.204
35288W        W  449  41.523  34.101   2.232
35289W        W  450  35.362   2.229   0.316
35290W        W  451  12.543  20.056   0.680
35291W        W  452   2.898  21.052  14.452
35292W        W  453   8.455  28.402  11.190
35293W        W  454  21.748   8.790  13.784
35294W        W  455  42.908  20.195  11.665
35295W        W  456  19.827  27.035   1.001
35296W        W  457   3.059  41.009   0.504
35297W        W  458  11.174  11.415  11.120
35298W        W  459  33.597   8.710   0.520
35299W        W  460   6.699  32.882  11.127
35300W        W  461  25.283   9.406  12.053
35301W        W  462  30.100  27.643   0.801
35302W        W  463  16.452  23.362   4.791
35303W        W  464   7.349  37.381  10.571
35304W        W  465   4.319  25.968   0.795
35305W        W  466  19.723   0.369  13.076
35306W        W  467  34.125  16.909  14.282
35307W        W  468  33.058   6.266   4.365
35308W        W  469   0.886  22.655  12.125
35309W        W  470   6.168  42.459   2.235
35310W        W  471  20.990  11.077   1.261
35311W        W  472  29.474  39.159   1.400
35312W        W  473   0.728  37.255  14.885
35313W        W  474  23.912  33.133   2.450
35314W        W  475  20.127  14.343   1.328
35315W        W  476   2.403  43.304  14.360
35316W        W  477   1.789  23.161   1.198
35317W        W  478  33.157  23.651  12.156
35318W        W  479  12.585  15.136  10.663
35319W        W  480  35.511  11.625  13.086
35320W        W  481  13.132   2.179  10.732
35321W        W  482  16.777  23.263  12.479
35322W        W  483  19.765  22.218   2.788
35323W        W  484  39.253  35.368   1.471
35324W        W  485  13.430  18.914   3.714
35325W        W  486  20.012  26.923   1.676
35326W        W  487  10.354  30.560  13.504
35327W        W  488  36.614  26.653   0.955
35328W        W  489  32.880  25.163   3.492
35329W        W  490  40.493  38.798   4.017
35330W        W  491  31.218  18.090  11.457
35331W        W  492   7.492  23.501  11.214
35332W        W  493  17.512  22.108   0.281
35333W        W  494  14.179  35.417   2.867
35334W        W  495  24.411   1.831  11.491
35335W        W  496   7.243  34.883   1.282
35336W        W  497   6.885  10.353   1.199
35337W        W  498   2.330  14.850   2.586
35338W        W  499  44.123  40.875   5.039
35339W        W  500  23.215  21.019  10.671
35340W        W  501  27.245  28.623   0.805
35341W        W  502  28.297  10.258   1.329
35342W        W  503   9.133   8.671   0.454
35343W        W  504  34.931  43.128  11.740
35344W        W  505  24.306  42.804  11.164
35345W        W  506  40.482  11.107  14.343
35346W        W  507  16.303  21.033   4.547
35347W        W  508  25.965  25.558   2.499
35348W        W  509  16.461  37.493  14.476
35349W        W  510  41.455  18.433  13.100
35350W        W  511   1.532  10.316  11.971
35351W        W  512  13.025  42.433   2.659
35352W        W  513  19.490  13.856   0.286
35353W        W  514  21.725  34.492   4.578
35354W        W  515   7.901  41.486  11.495
35355W        W  516  12.089  20.748  14.209
35356W        W  517  28.437  20.528   0.391
35357W        W  518   6.530   7.610   1.491
35358W        W  519  14.769   7.116   4.520
35359W        W  520  13.998  38.395  11.121
35360W        W  521  22.512  16.771  11.317
35361W        W  522  16.851  28.998  13.311
35362W        W  523  37.621  40.090  12.507
35363W        W  524  21.988   2.360  11.576
35364W        W  525  29.712  41.498   0.532
35365W        W  526   5.029  17.999   3.164
35366W        W  527  21.698  40.666   2.350
35367W        W  528  18.824  39.289   4.087
35368W        W  529   4.694  10.041  14.870
35369W        W  530  23.252   2.211   3.158
35370W        W  531  35.861   3.449  10.698
35371W        W  532  17.166  36.434  14.667
35372W        W  533  24.970  38.907   3.162
35373W        W  534  15.581  25.702   1.708
35374W        W  535  27.202  34.108   1.410
35375W        W  536  29.135  31.419  14.265
35376W        W  537  43.791  31.824  14.665
35377W        W  538  24.465  36.788   5.077
35378W        W  539  43.979  44.494  10.456
35379W        W  540  39.327   3.763   4.098
35380W        W  541  19.204  32.132   3.231
35381W        W  542  13.298   2.514   2.328
35382W        W  543  31.435  43.564   1.813
35383W        W  544  43.377  18.340  11.581
35384W        W  545  36.497  12.217   4.059
35385W        W  546  21.097  27.396  10.031
35386W        W  547  14.582  14.689  10.672
35387W        W  548  21.743  35.343  13.903
35388W        W  549  10.886   6.895  10.962
35389W        W  550   9.356   3.319  14.235
35390W        W  551  10.758  22.903   2.658
35391W        W  552   3.475  40.247   5.113
35392W        W  553  10.842  21.114   4.219
35393W        W  554  28.135  43.584  14.507
35394W        W  555  11.896  32.328   4.223
35395W        W  556  27.893  14.187   3.600
35396W        W  557   6.898  17.842   2.159
35397W        W  558   0.929  19.127  13.886
35398W        W  559  21.488  33.216  11.305
35399W        W  560   8.724   9.676  11.638
35400W        W  561   1.186   6.588  10.675
35401W        W  562  41.840   6.555   3.284
35402W        W  563   5.488  28.033   2.813
35403W        W  564   9.247  16.711   3.127
35404W        W  565  37.939  31.157   2.708
35405W        W  566  26.014  43.027  11.672
35406W        W  567   3.554   1.432  11.898
35407W        W  568  44.492  32.047   3.708
35408W        W  569  15.655  16.108  10.671
35409W        W  570   1.996  28.892  12.558
35410W        W  571  11.380  19.225  13.040
35411W        W  572   1.636   9.960  12.943
35412W        W  573   1.906  14.572   5.462
35413W        W  574  22.891  36.506   2.253
35414W        W  575  20.757  37.808   1.421
35415W        W  576  18.456  31.861  13.406
35416W        W  577   7.426  40.920  14.495
35417W        W  578  43.543   7.281   0.348
35418W        W  579  16.708  19.239   0.256
35419W        W  580  42.528  34.126  12.890
35420W        W  581  26.715  16.203   1.314
35421W        W  582   4.550   6.821   1.310
35422W        W  583  28.990  18.190   4.103
35423W        W  584  12.204  35.340  12.005
35424W        W  585   7.179   8.238  10.658
35425W        W  586  23.756   2.998   1.471
35426W        W  587  19.529   4.916  10.197
35427W        W  588  39.370   0.820  12.902
35428W        W  589  44.406  10.257   3.640
35429W        W  590   9.781  30.138  11.873
35430W        W  591  43.058  16.439  10.230
35431W        W  592  18.141   0.140   0.536
35432W        W  593   6.839  25.402   1.866
35433W        W  594  44.202  38.850  12.045
35434W        W  595  34.464  30.196   2.469
35435W        W  596   3.854  38.958  11.898
35436W        W  597  17.304  29.145  13.562
35437W        W  598  24.728  28.524  11.465
35438W        W  599  15.266  26.767  11.832
35439W        W  600  30.837  30.987  12.634
35440W        W  601  22.510   2.475   1.923
35441W        W  602  36.884  38.862  11.608
35442W        W  603  22.761  20.214  14.880
35443W        W  604  36.460  42.380  12.633
35444W        W  605  37.959  10.776  12.922
35445W        W  606  22.281  42.333   1.372
35446W        W  607  40.584  13.286  10.728
35447W        W  608  34.350   4.579   0.853
35448W        W  609  15.797   6.234  11.935
35449W        W  610   9.015  44.215   4.188
35450W        W  611  12.756  13.890   2.672
35451W        W  612  40.333  29.668  11.696
35452W        W  613  17.071  27.544   0.264
35453W        W  614  31.367  13.611  13.446
35454W        W  615  31.878  31.788  13.505
35455W        W  616  26.239  37.083  10.635
35456W        W  617  39.521  37.015   0.012
35457W        W  618  25.688  23.142  12.546
35458W        W  619  41.221  23.039   1.302
35459W        W  620  37.688  17.574  11.024
35460W        W  621  16.788   8.345  12.611
35461W        W  622  15.853  41.597  12.797
35462W        W  623  22.751  19.369  13.801
35463W        W  624  36.326  28.607   1.112
35464W        W  625   2.326  36.960  12.921
35465W        W  626  23.327  43.429  11.704
35466W        W  627  44.953  26.090   3.467
35467W        W  628  24.617  35.205   9.476
35468W        W  629   2.498  15.914   5.030
35469W        W  630  20.056  38.005   3.306
35470W        W  631  27.748  22.228   3.913
35471W        W  632  22.641  26.920   0.395
35472W        W  633  11.439  29.439   4.076
35473W        W  634  15.239   2.258  13.853
35474W        W  635  30.911  18.681   3.083
35475W        W  636  23.778   9.084   0.668
35476W        W  637  40.299   8.721   2.758
35477W        W  638   8.842   4.547   2.374
35478W        W  639  14.524  37.505   0.452
35479W        W  640   5.993  32.503   2.675
35480W        W  641  32.112  15.146   4.232
35481W        W  642  35.130  41.066   3.352
35482W        W  643  43.342  30.307   3.079
35483W        W  644   0.015  38.591   4.508
35484W        W  645   6.381  34.877  12.532
35485W        W  646  30.011  25.927  14.345
35486W        W  647   0.278  18.723   4.059
35487W        W  648  14.508   3.340  13.464
35488W        W  649   8.202  34.325   4.274
35489W        W  650   5.956  17.181  10.919
35490W        W  651  40.350  30.319  11.137
35491W        W  652  30.691   9.363   3.894
35492W        W  653  29.257  31.660   2.856
35493W        W  654  22.634  41.989  11.959
35494W        W  655   9.679  16.728   3.388
35495W        W  656  31.475  35.062  11.592
35496W        W  657   0.184   7.370  12.094
35497W        W  658   6.352  41.010  10.565
35498W        W  659   2.638  41.435   2.707
35499W        W  660   1.368  41.284  14.019
35500W        W  661  14.194  29.614  12.099
35501W        W  662  17.509  14.723   3.184
35502W        W  663  29.263   6.380  11.090
35503W        W  664  31.636  36.093   0.031
35504W        W  665   2.106  12.193   1.144
35505W        W  666  29.938  18.736  10.675
35506W        W  667  20.151   6.066  14.301
35507W        W  668  16.578  22.981   0.584
35508W        W  669  21.032  27.489  11.213
35509W        W  670  17.606  11.718  10.878
35510W        W  671   2.452  17.582  13.745
35511W        W  672  23.456  11.268   3.743
35512W        W  673  27.923  29.508  13.464
35513W        W  674  33.826  16.568  11.198
35514W        W  675  27.697   2.908   4.573
35515W        W  676  42.533  28.367  10.663
35516W        W  677  12.435   6.884   4.961
35517W        W  678  21.637  42.404   0.556
35518W        W  679  10.186  22.818  11.207
35519W        W  680   5.552  26.156   2.814
35520W        W  681  29.688  26.047   0.618
35521W        W  682  41.801  19.757  14.734
35522W        W  683   3.440  25.759  10.118
35523W        W  684  11.358  18.274  13.811
35524W        W  685   5.502  18.661  11.482
35525W        W  686  40.577  41.511   4.568
35526W        W  687  34.064   7.989   3.099
35527W        W  688  26.273  38.918   0.418
35528W        W  689  18.188  44.369  13.428
35529W        W  690   8.539   3.990   0.434
35530W        W  691  26.410  22.031  12.141
35531W        W  692  42.970  40.547   1.206
35532W        W  693   3.838  17.851   1.920
35533W        W  694   8.205  31.556  11.570
35534W        W  695   0.478  13.194   0.271
35535W        W  696  18.718   5.599  12.454
35536W        W  697  33.876  38.298  14.258
35537W        W  698  31.035   6.335   0.341
35538W        W  699  19.207  32.113  14.108
35539W        W  700  25.434  11.743   2.749
35540W        W  701  29.380  19.683  13.073
35541W        W  702  19.357  36.983  11.049
35542W        W  703  16.774  12.660   4.166
35543W        W  704   2.319  32.691  14.357
35544W        W  705  13.631  25.761   3.876
35545W        W  706   9.253  19.963  13.425
35546W        W  707   8.402  35.503   4.367
35547W        W  708  36.370   7.266   1.170
35548W        W  709  37.001  27.586  11.622
35549W        W  710  39.535  42.449  13.739
35550W        W  711   5.082  27.164  12.607
35551W        W  712  12.136   5.547   1.951
35552W        W  713   6.395  17.229  11.187
35553W        W  714  43.296  42.458   3.261
35554W        W  715   4.310  20.510  13.853
35555W        W  716  20.613  10.843   3.451
35556W        W  717  43.791   4.610   1.746
35557W        W  718   5.284  20.039   1.037
35558W        W  719  26.241  33.437   3.182
35559W        W  720  29.188  10.238   2.425
35560W        W  721   8.671   0.211   2.385
35561W        W  722  14.279  39.568  13.677
35562W        W  723  10.753   6.646   0.518
35563W        W  724  14.361  11.612  11.057
35564W        W  725   5.453  31.244  12.154
35565W        W  726   6.085  28.005   0.816
35566W        W  727  33.170  26.563  10.334
35567W        W  728   6.996  39.557   3.762
35568W        W  729  43.509  30.493   4.936
35569W        W  730  28.072  44.425   3.278
35570W        W  731  39.441  44.542  13.821
35571W        W  732  11.316   2.228  12.050
35572W        W  733  38.016  21.604   1.310
35573W        W  734  18.313  12.646   1.735
35574W        W  735  34.939  42.280   4.123
35575W        W  736  18.628  40.507   3.538
35576W        W  737  36.124  38.436  10.857
35577W        W  738  13.813  21.480  13.000
35578W        W  739  18.043  19.275   2.273
35579W        W  740  18.151  35.286   2.024
35580W        W  741  33.931  40.589  12.437
35581W        W  742  22.929  41.777   5.490
35582W        W  743  13.629  35.347   3.752
35583W        W  744  41.667  19.071   4.490
35584W        W  745  31.057  41.041   4.233
35585W        W  746  26.691  32.614  12.948
35586W        W  747  17.259   9.267  10.234
35587W        W  748  27.123  41.544   3.322
35588W        W  749   8.821  25.682   0.398
35589W        W  750  21.660  29.959   0.726
35590W        W  751   5.724   0.731  10.685
35591W        W  752   6.385   0.734   1.005
35592W        W  753   3.932  36.536   2.847
35593W        W  754   1.141  25.616   0.633
35594W        W  755  12.252  18.644   2.977
35595W        W  756  37.452   3.883   2.029
35596W        W  757   7.614  23.142  14.342
35597W        W  758  37.036  29.864  11.162
35598W        W  759  12.388  39.339   3.806
35599W        W  760  21.560  17.125  13.353
35600W        W  761  44.084  43.597   1.671
35601W        W  762  21.463  42.171   0.993
35602W        W  763  19.883   3.137   5.052
35603W        W  764  15.274   0.667   0.301
35604W        W  765   7.770  23.514  12.538
35605W        W  766  24.530   4.525  12.434
35606W        W  767  11.643  39.460   3.316
35607W        W  768  17.230  35.320   3.255
35608W        W  769  26.193   0.513  11.244
35609W        W  770  21.151   3.941   4.608
35610W        W  771  36.282  24.314   1.791
35611W        W  772  29.144  20.174   3.101
35612W        W  773  42.422  33.046   3.230
35613W        W  774   0.399  27.210  13.898
35614W        W  775  24.616   9.711   0.045
35615W        W  776  39.304  42.457  11.359
35616W        W  777  20.529  28.627   4.439
35617W        W  778  43.344  30.528   3.969
35618W        W  779   5.695  23.017   0.837
35619W        W  780   3.771  32.223   4.818
35620W        W  781  25.020  26.779   2.952
35621W        W  782  33.364  34.521  14.244
35622W        W  783  11.991   7.742  10.790
35623W        W  784  19.182  21.606  12.259
35624W        W  785  31.429   3.423   4.379
35625W        W  786  21.476   3.205   0.345
35626W        W  787  37.801   4.274   1.981
35627W        W  788  38.051  20.980  14.313
35628W        W  789  21.940  35.922   0.868
35629W        W  790   3.212   5.468   4.207
35630W        W  791  34.147  34.982   4.216
35631W        W  792   2.901  41.063  10.638
35632W        W  793   7.725   4.399  14.394
35633W        W  794  18.765   1.999  13.380
35634W        W  795   1.668  40.104  14.948
35635W        W  796  28.565  16.775  11.482
35636W        W  797  41.365  26.431   4.875
35637W        W  798  19.901   8.899  10.174
35638W        W  799  32.007  30.151   3.535
35639W        W  800   0.717  33.473   3.649
35640W        W  801   9.709  18.666   0.315
35641W        W  802  21.047   7.480  13.375
35642W        W  803   0.791   9.903   0.022
35643W        W  804   2.191  13.693   2.100
35644W        W  805  17.569  25.648  12.026
35645W        W  806  28.662  44.885   0.756
35646W        W  807  26.659   0.197   3.621
35647W        W  808   0.267  32.510  14.518
35648W        W  809  32.342   5.254  13.901
35649W        W  810  22.598  35.049   2.530
35650W        W  811  26.407  36.935   3.300
35651W        W  812   7.935  19.751   0.773
35652W        W  813  10.783  11.431   0.506
35653W        W  814  25.038  32.616  13.432
35654W        W  815   4.747  28.124   1.236
35655W        W  816  26.305  18.390  13.368
35656W        W  817  37.077  42.969  12.758
35657W        W  818  10.570  19.159   3.716
35658W        W  819  21.605  20.756   3.136
35659W        W  820  43.542  35.475   2.337
35660W        W  821  11.239  10.658  14.556
35661W        W  822   7.291  31.983  10.841
35662W        W  823   9.308  31.609   0.916
35663W        W  824  17.816   7.784   2.087
35664W        W  825  27.947  30.352  13.097
35665W        W  826  16.549  20.370  11.616
35666W        W  827  10.099  39.212  12.605
35667W        W  828  14.727  26.423  11.166
35668W        W  829  20.341  18.236   4.694
35669W        W  830  41.877   2.057  10.713
35670W        W  831  33.421  23.041  14.419
35671W        W  832  10.091  30.070  13.508
35672W        W  833  15.919  24.660  11.205
35673W        W  834  34.197  28.901   2.334
35674W        W  835   1.332  24.985   1.470
35675W        W  836  38.361  15.998   1.260
35676W        W  837  10.197   3.327  11.373
35677W        W  838   3.805  43.433  10.642
35678W        W  839  38.106  21.045   2.719
35679W        W  840  43.567   3.373  10.662
35680W        W  841  35.616  44.257   0.523
35681W        W  842  38.061  26.123  13.485
35682W        W  843  37.581  37.619   2.847
35683W        W  844  11.654  33.965  14.832
35684W        W  845   7.322  39.101  13.502
35685W        W  846   2.336   8.910   2.180
35686W        W  847   0.686  43.182  13.284
35687W        W  848  16.630  18.617  13.409
35688W        W  849  18.891  38.895   0.288
35689W        W  850  18.556   0.676   4.521
35690W        W  851  21.350   5.244   2.326
35691W        W  852  24.115  26.644  14.499
35692W        W  853  41.381  29.541   2.464
35693W        W  854  23.271  41.085   1.361
35694W        W  855  32.838  43.056   3.760
35695W        W  856  34.019  18.285  14.973
35696W        W  857   2.887  13.951  11.327
35697W        W  858   7.748   5.713   4.439
35698W        W  859  12.265   5.215  13.391
35699W        W  860   2.453  38.786  13.215
35700W        W  861  30.491   6.695   0.010
35701W        W  862   5.216  15.189   2.766
35702W        W  863  44.696  26.969  10.680
35703W        W  864  35.931   6.018   4.538
35704W        W  865   0.938   0.203  13.610
35705W        W  866  31.841  20.639   3.390
35706W        W  867  24.157  29.982   3.829
35707W        W  868  42.491   9.551   2.912
35708W        W  869  22.685  43.421  14.934
35709W        W  870   6.880  33.973  14.678
35710W        W  871  28.667  15.746   2.222
35711W        W  872  30.527  44.729  14.204
35712W        W  873   8.877   0.305  13.474
35713W        W  874   5.689  16.085   2.923
35714W        W  875  43.237  39.923  11.048
35715W        W  876  20.431  41.761   3.864
35716W        W  877  39.082  13.860   3.774
35717W        W  878  38.353  43.353  11.676
35718W        W  879  35.306  18.305  13.981
35719W        W  880  28.058   4.734   1.434
35720W        W  881   3.650   8.313  13.893
35721W        W  882  10.904  43.908   1.926
35722W        W  883  30.777  27.165  12.743
35723W        W  884  34.575  37.411  10.685
35724W        W  885  28.227  43.458   4.563
35725W        W  886  41.465   0.788   2.131
35726W        W  887  19.999   3.690  13.853
35727W        W  888   8.682  36.655  12.909
35728W        W  889  36.865  42.015  10.718
35729W        W  890  30.014  12.230  14.063
35730W        W  891  21.651  39.474   3.889
35731W        W  892  13.122  32.201   2.745
35732W        W  893  39.970  35.308   0.915
35733W        W  894  19.590  19.150   5.072
35734W        W  895  20.363  28.409  13.407
35735W        W  896  14.439   2.248   4.145
35736W        W  897   6.963  34.358   2.692
35737W        W  898   9.439  19.073  12.026
35738W        W  899  29.606  14.769  14.337
35739W        W  900  21.664  37.352  10.617
35740W        W  901   2.333  20.085  10.429
35741W        W  902  10.159  34.608  12.284
35742W        W  903  31.858   5.764   3.827
35743W        W  904  29.463  15.109   0.854
35744W        W  905  36.538  15.143  14.824
35745W        W  906  40.347  36.429  12.965
35746W        W  907  41.982  29.562  13.265
35747W        W  908  23.473  27.694   1.174
35748W        W  909  30.593  41.411   2.592
35749W        W  910  16.237  12.198   3.096
35750W        W  911  11.700  32.336  13.252
35751W        W  912  25.599  23.525   0.793
35752W        W  913  43.367  12.031   0.273
35753W        W  914  31.777  29.227   5.389
35754W        W  915  16.687  19.294  10.272
35755W        W  916  22.809  16.235   3.624
35756W        W  917  32.310  14.507   1.360
35757W        W  918  15.532  42.436  13.910
35758W        W  919  34.810  44.144   3.686
35759W        W  920  33.287  30.506  10.974
35760W        W  921  25.739  34.565   4.431
35761W        W  922  42.265  38.940   4.862
35762W        W  923  16.339  40.679   3.698
35763W        W  924  28.134  41.278   3.688
35764W        W  925  35.122  22.633   0.440
35765W        W  926  44.486  30.169   2.716
35766W        W  927   0.280   8.285  12.671
35767W        W  928  20.061   1.221   4.727
35768W        W  929  13.477  39.615  14.088
35769W        W  930  14.903  40.169  14.159
35770W        W  931  34.957  40.321   0.528
35771W        W  932  33.435  23.691   4.177
35772W        W  933  42.540  17.322  11.589
35773W        W  934  17.165   1.847  14.474
35774W        W  935  33.922   1.417  12.988
35775W        W  936  18.043  14.341  11.457
35776W        W  937  30.440  16.885   3.461
35777W        W  938   7.965  39.158   1.314
35778W        W  939  40.511   0.382  12.072
35779W        W  940  33.523   7.263  13.813
35780W        W  941  19.062  13.331   1.975
35781W        W  942  33.688  26.497   0.535
35782W        W  943  33.084  34.956  14.904
35783W        W  944   3.258  30.997   4.536
35784W        W  945   4.170   7.359  13.075
35785W        W  946  12.501  17.093  11.512
35786W        W  947  37.510   9.166   0.371
35787W        W  948  13.685  26.117  11.641
35788W        W  949  15.192   7.711  13.914
35789W        W  950  43.869  39.376  11.413
35790W        W  951  43.671  10.148   2.806
35791W        W  952  29.637  23.761   2.197
35792W        W  953  15.143  21.823   2.363
35793W        W  954   7.135  19.744  11.417
35794W        W  955  44.750  38.840  14.109
35795W        W  956  32.254  29.886   2.789
35796W        W  957  29.436  16.626   1.895
35797W        W  958   9.159  16.202   3.257
35798W        W  959   4.320  25.468   2.755
35799W        W  960   2.858  21.260   0.931
35800W        W  961   1.855   1.527  14.358
35801W        W  962  15.712   5.660  14.058
35802W        W  963  31.778  14.653  14.203
35803W        W  964   6.614  16.136  11.504
35804W        W  965   8.174  14.875  10.692
35805W        W  966  29.916  40.366   2.814
35806W        W  967   7.452  39.382  11.027
35807W        W  968   9.084  26.625  10.009
35808W        W  969  20.057  20.037  14.843
35809W        W  970  22.622  25.599   0.284
35810W        W  971  14.473  12.320  13.364
35811W        W  972  21.041   4.298   3.800
35812W        W  973  13.736   4.212  13.350
35813W        W  974  39.988  32.109  11.581
35814W        W  975   4.405  35.433  10.722
35815W        W  976   6.155   1.495   1.180
35816W        W  977  10.777  41.243   1.249
35817W        W  978   2.777   7.009   1.243
35818W        W  979  35.898  44.429   1.171
35819W        W  980   4.343  37.688  12.693
35820W        W  981  18.716  20.672  11.700
35821W        W  982  16.667   9.261   2.273
35822W        W  983  21.000  25.516   0.984
35823W        W  984  30.474  27.600   2.840
35824W        W  985   5.290   2.195   1.013
35825W        W  986  19.633  40.044  14.418
35826W        W  987   9.303  36.289   1.488
35827W        W  988   4.368  37.583  11.197
35828W        W  989  38.383  37.883  12.848
35829W        W  990  44.481  31.708  12.548
35830W        W  991  15.537   0.502   2.388
35831W        W  992  16.355   2.031   2.149
35832W        W  993  40.249  42.171   0.877
35833W        W  994   0.851  40.662  11.602
35834W        W  995   5.773  25.946   2.393
35835W        W  996  29.401   0.560   1.285
35836W        W  997  12.146  21.225  10.942
35837W        W  998  30.450  26.539   3.769
35838W        W  999  44.740  17.334  12.425
35839W        W 1000  41.239  42.459  11.531
35840W        W 1001   9.133  27.456   1.366
35841W        W 1002  32.426  24.548   3.969
35842W        W 1003  23.194  14.196  11.837
35843W        W 1004  10.211  37.565  11.975
35844W        W 1005  21.930  33.202  12.953
35845W        W 1006  29.961  29.017  11.427
35846W        W 1007  11.200   3.477   0.474
35847W        W 1008  37.319   3.303   2.350
35848W        W 1009  13.219   8.310  12.887
35849W        W 1010   0.468   5.830  13.887
35850W        W 1011   9.447  32.522  12.145
35851W        W 1012   7.746  26.952  10.721
35852W        W 1013  23.686   8.576   0.367
35853W        W 1014  36.962  23.002  12.157
35854W        W 1015  16.827  23.648   1.632
35855W        W 1016  25.653  15.283   2.467
35856W        W 1017   2.459   1.064  14.988
35857W        W 1018   9.340  12.695  14.756
35858W        W 1019  39.468  22.664  14.477
35859W        W 1020  25.730  25.406   0.417
35860W        W 1021  23.180  14.646   3.810
35861W        W 1022  14.834  28.723   1.273
35862W        W 1023  22.393  25.565  12.589
35863W        W 1024  38.113  25.961  11.537
35864W        W 1025  27.539  15.125   3.643
35865W        W 1026  33.293  27.004  10.566
35866W        W 1027  40.757  19.093  13.424
35867W        W 1028  15.624  41.574   0.782
35868W        W 1029  33.136  37.277   5.305
35869W        W 1030  44.698  16.870  12.197
35870W        W 1031  18.673  18.821   4.780
35871W        W 1032  10.612  15.643  13.981
35872W        W 1033   5.983  14.858   2.743
35873W        W 1034  10.666  37.030  12.845
35874W        W 1035  14.068   1.505  12.834
35875W        W 1036  25.195  38.414   3.332
35876W        W 1037   0.675  25.941  11.739
35877W        W 1038  22.167  27.546   0.683
35878W        W 1039  18.668  38.478   1.207
35879W        W 1040   8.192   7.654  11.125
35880W        W 1041  34.490  25.278   4.204
35881W        W 1042   0.803  43.053   1.213
35882W        W 1043  30.663   2.054  14.055
35883W        W 1044  15.798  22.141  13.417
35884W        W 1045  34.897  32.269   4.939
35885W        W 1046  39.882  13.796  13.058
35886W        W 1047  35.349  20.406  11.548
35887W        W 1048  11.451  22.117  14.265
35888W        W 1049  39.526  11.677  14.089
35889W        W 1050  37.968   9.848  10.510
35890W        W 1051  13.950  44.970  11.075
35891W        W 1052   8.737  23.283  11.153
35892W        W 1053  14.173   5.430  11.139
35893W        W 1054   8.355  23.607  13.192
35894W        W 1055  29.510  39.048   3.624
35895W        W 1056  19.820   1.958  13.425
35896W        W 1057  14.683  34.565   0.347
35897W        W 1058  33.865  11.110   3.693
35898W        W 1059   8.149  38.271   4.514
35899W        W 1060  28.214   7.587  13.438
35900W        W 1061  12.372  27.875   4.090
35901W        W 1062  38.839  23.440   3.376
35902W        W 1063  29.388  24.317   4.903
35903W        W 1064  16.095  14.285  12.879
35904W        W 1065  35.054  38.919  12.942
35905W        W 1066  24.617   6.329   2.167
35906W        W 1067  25.463   5.324   2.662
35907W        W 1068   4.167  30.884  11.585
35908W        W 1069  43.163  18.757  13.458
35909W        W 1070   6.617   7.067   4.382
35910W        W 1071  38.633  27.068   0.215
35911W        W 1072  18.155  20.441   3.897
35912W        W 1073   2.638  27.504   0.941
35913W        W 1074   4.066  16.311  14.950
35914W        W 1075   9.633  38.490   1.889
35915W        W 1076   9.165  36.089  12.447
35916W        W 1077  38.379   8.345   4.103
35917W        W 1078   2.542  14.576   2.185
35918W        W 1079  20.059  38.268   1.703
35919W        W 1080   8.495  25.940   2.627
35920W        W 1081  39.607  36.001   4.273
35921W        W 1082   9.789  24.989  11.949
35922W        W 1083  30.848   8.719  14.453
35923W        W 1084  32.000  28.707   0.383
35924W        W 1085  29.385   7.752  11.138
35925W        W 1086  19.050  31.043   1.357
35926W        W 1087  24.121   8.886  12.952
35927W        W 1088  30.370  12.831   0.338
35928W        W 1089  29.594  22.539   1.497
35929W        W 1090  10.301   5.097  13.990
35930W        W 1091  27.803  23.075  14.285
35931W        W 1092  34.364  37.319   3.392
35932W        W 1093  18.717  23.718   4.999
35933W        W 1094  29.676  21.291  10.758
35934W        W 1095   4.870  23.930  12.404
35935W        W 1096  10.872  12.809   5.258
35936W        W 1097  28.167  32.212  12.086
35937W        W 1098  44.375  20.916  12.675
35938W        W 1099  42.916  17.085  12.334
35939W        W 1100  44.057  17.764   0.838
35940W        W 1101   6.030   4.825  10.746
35941W        W 1102   1.997  30.112   1.842
35942W        W 1103  44.818  42.237  12.969
35943W        W 1104   4.368   6.154  12.417
35944W        W 1105  12.389  27.463  12.581
35945W        W 1106  19.695  23.431  13.908
35946W        W 1107  29.081  27.283   2.316
35947W        W 1108   7.321  29.966  14.566
35948W        W 1109  15.543  24.247   0.826
35949W        W 1110  14.590  17.309  14.494
35950W        W 1111   8.489  10.537   2.833
35951W        W 1112  20.576  40.813  12.164
35952W        W 1113  12.338   6.639  12.431
35953W        W 1114  11.400  37.989   4.378
35954W        W 1115  14.304  39.821   0.991
35955W        W 1116  32.374  40.491  11.990
35956W        W 1117  16.729  35.296   4.606
35957W        W 1118  32.098   7.004  10.998
35958W        W 1119  11.828  34.423   0.496
35959W        W 1120   9.826  21.213  14.825
35960W        W 1121  34.776  43.068  14.267
35961W        W 1122  42.571   1.122   1.446
35962W        W 1123  22.571  29.588   3.116
35963W        W 1124  44.792   3.583   2.294
35964W        W 1125  24.970   1.216   3.216
35965W        W 1126  17.309  33.928   0.746
35966W        W 1127  44.759  20.569  14.242
35967W        W 1128  23.610  10.219  12.947
35968W        W 1129  15.437  10.289   4.796
35969W        W 1130  42.882  39.738   2.851
35970W        W 1131  13.768  19.157  12.455
35971W        W 1132   7.519  30.803  12.446
35972W        W 1133  18.056  38.828  11.603
35973W        W 1134   5.686  44.776  13.568
35974W        W 1135  33.946  26.040   4.015
35975W        W 1136   6.212  12.724  13.341
35976W        W 1137  17.687  37.814   2.687
35977W        W 1138  13.584   0.196  13.487
35978W        W 1139   9.192  33.398  12.225
35979W        W 1140   0.854  35.506   1.722
35980W        W 1141  36.800   2.264  14.557
35981W        W 1142   3.552   0.409  14.318
35982W        W 1143  31.529   9.895  12.031
35983W        W 1144  19.343  16.940  13.387
35984W        W 1145  12.340  43.434   1.243
35985W        W 1146  14.844  11.672   4.585
35986W        W 1147  17.882  34.851   1.920
35987W        W 1148  31.814  13.323  12.352
35988W        W 1149  39.042  43.430  11.085
35989W        W 1150  36.150  19.308  14.287
35990W        W 1151   6.248  10.443  13.998
35991W        W 1152  16.658  13.723  14.968
35992W        W 1153  26.730  23.257  12.554
35993W        W 1154  33.572  40.377  14.094
35994W        W 1155   9.046  31.514   4.625
35995W        W 1156   8.811  25.684   3.104
35996W        W 1157  17.206  25.671   0.219
35997W        W 1158  25.137  37.608  11.225
35998W        W 1159  25.351  20.177   3.152
35999W        W 1160   0.100  20.308  13.014
36000W        W 1161  21.199  40.474   2.312
36001W        W 1162  36.619  19.252   0.517
36002W        W 1163  38.181   6.283  13.787
36003W        W 1164   5.173  10.163   0.558
36004W        W 1165   5.178  20.484  11.128
36005W        W 1166  17.868  19.900   0.786
36006W        W 1167  25.985  28.537   2.742
36007W        W 1168  23.217   5.245  10.667
36008W        W 1169  36.287   2.228  14.422
36009W        W 1170  13.068  12.736   0.924
36010W        W 1171   4.269   2.574   4.591
36011W        W 1172   5.431  19.818   2.349
36012W        W 1173  17.558   1.414   3.181
36013W        W 1174  16.703  32.987  13.871
36014W        W 1175  23.447  42.509   3.188
36015W        W 1176  23.001   9.238   2.809
36016W        W 1177  44.730  44.994   0.814
36017W        W 1178  18.506   3.238   0.881
36018W        W 1179   7.762  38.946   4.134
36019W        W 1180  10.291  24.999  12.986
36020W        W 1181  34.977  39.322   1.518
36021W        W 1182   5.253  38.625   0.696
36022W        W 1183  40.764  32.429   0.132
36023W        W 1184  34.587  11.870   1.481
36024W        W 1185  17.168  27.911  11.095
36025W        W 1186  14.393  25.067   4.071
36026W        W 1187  12.715  22.666   2.771
36027W        W 1188  19.077   4.419   3.724
36028W        W 1189   4.346   0.524   1.777
36029W        W 1190   2.048  14.695   2.150
36030W        W 1191  34.826  17.469   0.824
36031W        W 1192   7.341   2.197   0.702
36032W        W 1193  13.991   0.275  12.561
36033W        W 1194  19.750  40.125   4.591
36034W        W 1195  23.675  24.446   3.740
36035W        W 1196  43.014  38.300  14.366
36036W        W 1197  11.980  21.627  13.090
36037W        W 1198  42.883  39.059  12.631
36038W        W 1199  14.937   5.380  11.655
36039W        W 1200   1.006  10.358  11.866
36040W        W 1201  36.610   7.626   4.102
36041W        W 1202  19.684   2.412   0.357
36042W        W 1203  18.930   7.429   4.145
36043W        W 1204  30.067   3.299   2.322
36044W        W 1205  33.158   0.917  12.948
36045W        W 1206  44.066  29.949   2.251
36046W        W 1207   7.218  38.380   2.018
36047W        W 1208  22.767  30.546  14.354
36048W        W 1209  14.078  36.376  13.844
36049W        W 1210  23.722  15.763  11.567
36050W        W 1211  35.011  31.388   1.250
36051W        W 1212  17.934  22.137   0.580
36052W        W 1213  42.360   7.213  11.431
36053W        W 1214  30.392  29.186  12.924
36054W        W 1215  37.227   9.181  11.620
36055W        W 1216  18.984   3.024   3.732
36056W        W 1217   9.359  21.599   2.988
36057W        W 1218  34.056  42.333  12.914
36058W        W 1219  27.726  25.098  13.934
36059W        W 1220  40.046  16.561   1.708
36060W        W 1221  18.629  27.242  11.666
36061W        W 1222  36.972  11.080   3.158
36062W        W 1223  10.666  30.042   0.809
36063W        W 1224  21.092  11.673  11.997
36064W        W 1225  25.853  38.454   2.292
36065W        W 1226  18.384  23.480  12.065
36066W        W 1227  43.316   4.667  11.145
36067W        W 1228   7.344  25.243   1.901
36068W        W 1229   2.774  14.704   1.232
36069W        W 1230  36.526  39.261  14.326
36070W        W 1231  13.326  37.429   2.407
36071W        W 1232  30.986   7.897  13.903
36072W        W 1233  17.760  38.019   3.339
36073W        W 1234  22.963  31.883  13.135
36074W        W 1235  43.310   7.878  12.292
36075W        W 1236  42.472  11.305   3.299
36076W        W 1237   0.376  17.956   4.591
36077W        W 1238  44.024  30.339  13.444
36078W        W 1239  22.484  29.992   3.898
36079W        W 1240  23.426  20.513  12.039
36080W        W 1241  28.847  21.166   1.478
36081W        W 1242   7.107  22.224  10.831
36082W        W 1243  25.762  18.627   0.727
36083W        W 1244   4.567  18.777   0.380
36084W        W 1245  13.368   3.427   3.581
36085W        W 1246  31.017  15.004   0.675
36086W        W 1247   9.960  23.290   4.600
36087W        W 1248  18.782  28.174   4.960
36088W        W 1249  16.072   2.869   0.169
36089W        W 1250  38.980  33.606  12.898
36090W        W 1251  22.741  29.603   5.119
36091W        W 1252  26.898  15.174  12.073
36092W        W 1253  16.360  28.653  12.830
36093W        W 1254   8.927   2.720   0.798
36094W        W 1255   3.916  29.393   0.062
36095W        W 1256  23.276  31.586  14.400
36096W        W 1257   0.493   6.810  13.314
36097W        W 1258  19.706  20.745  14.855
36098W        W 1259  21.700  44.930   1.214
36099W        W 1260  41.583   3.387  12.246
36100W        W 1261   6.586  33.670  11.592
36101W        W 1262  40.189  41.157   5.085
36102W        W 1263  20.649  15.813   2.738
36103W        W 1264  35.387  19.670  12.121
36104W        W 1265  26.488  41.835  13.575
36105W        W 1266   8.785  18.477  12.627
36106W        W 1267  11.026  41.719  13.288
36107W        W 1268  44.433   4.075  13.498
36108W        W 1269  39.396  29.635   3.669
36109W        W 1270  20.789  26.090  13.762
36110W        W 1271  23.577   1.544   0.886
36111W        W 1272  25.471  13.628  12.176
36112W        W 1273  21.197   2.924   1.276
36113W        W 1274  37.831  10.539   2.233
36114W        W 1275  33.442   4.087   3.732
36115W        W 1276  23.026  40.365   3.621
36116W        W 1277  23.406  25.515  12.513
36117W        W 1278  16.105   0.405   1.818
36118W        W 1279  10.572  44.417   1.276
36119W        W 1280  35.930  35.329   3.814
36120W        W 1281  37.132  18.364  13.263
36121W        W 1282  19.147  20.812   0.427
36122W        W 1283  21.258  14.224   0.422
36123W        W 1284  39.395  24.473   3.843
36124W        W 1285  17.792  34.374  12.892
36125W        W 1286   4.039   7.851  13.639
36126W        W 1287   3.661  14.997   3.721
36127W        W 1288  37.911  30.579   1.229
36128W        W 1289  27.134  24.230  11.974
36129W        W 1290  15.876  16.819   3.838
36130W        W 1291   9.350  25.489  13.139
36131W        W 1292   9.833  43.821  14.338
36132W        W 1293  36.445  11.261  11.502
36133W        W 1294  29.303  32.069   0.857
36134W        W 1295  27.014  14.793  13.786
36135W        W 1296  44.030  39.527   2.311
36136W        W 1297  38.594   8.914  13.522
36137W        W 1298   8.491  22.545  13.846
36138W        W 1299  41.764  25.732  11.252
36139W        W 1300  34.606  18.975   4.137
36140W        W 1301  23.825  44.847  13.544
36141W        W 1302  39.234   7.557  14.494
36142W        W 1303   5.923   3.422   0.453
36143W        W 1304  28.912  11.077   1.503
36144W        W 1305   7.255  26.491  14.262
36145W        W 1306   6.468  29.499   3.700
36146W        W 1307   0.813   1.999  13.993
36147W        W 1308  44.739  36.689   1.991
36148W        W 1309  19.042  42.587  11.957
36149W        W 1310  19.453  40.251  11.830
36150W        W 1311  41.044   2.510   0.899
36151W        W 1312  40.812  33.340  14.827
36152W        W 1313  32.643  22.851  12.941
36153W        W 1314  22.525   7.789   1.210
36154W        W 1315  15.153  18.849   0.370
36155W        W 1316  41.592  29.539  14.107
36156W        W 1317  21.672   3.454   3.098
36157W        W 1318  43.019  38.241   1.869
36158W        W 1319  31.716  19.167  14.819
36159W        W 1320  14.293  32.370  11.030
36160W        W 1321  19.268   3.958   2.847
36161W        W 1322  17.318  32.222   1.283
36162W        W 1323  22.775  30.526  10.158
36163W        W 1324   9.816  25.056   1.013
36164W        W 1325  25.746  33.632   3.182
36165W        W 1326  18.680  13.883   1.807
36166W        W 1327  22.215  26.643  13.444
36167W        W 1328  26.082  39.447  10.661
36168W        W 1329   4.152  14.595  14.518
36169W        W 1330   0.246  34.095  12.740
36170W        W 1331  43.823   0.413   1.352
36171W        W 1332  14.555  33.047   3.788
36172W        W 1333  15.770  19.777   4.149
36173W        W 1334  42.812  25.465  11.608
36174W        W 1335  19.250  26.475  14.374
36175W        W 1336   8.286  18.725   3.296
36176W        W 1337  15.459  30.388   0.664
36177W        W 1338  18.220  23.299  11.586
36178W        W 1339  35.950  41.876  14.854
36179W        W 1340  43.471  25.616   4.496
36180W        W 1341  22.601  41.324  13.550
36181W        W 1342  39.844  29.986   3.154
36182W        W 1343  31.531   0.760   3.816
36183W        W 1344  31.290  38.477   2.791
36184W        W 1345  16.412  31.663  11.297
36185W        W 1346  23.302   6.357   3.293
36186W        W 1347  12.935  40.336  12.922
36187W        W 1348  29.028  35.811  11.451
36188W        W 1349   4.528   7.303   2.393
36189W        W 1350   0.801  10.871  13.559
36190W        W 1351  32.770  32.400  14.290
36191W        W 1352  14.108  26.969   4.690
36192W        W 1353  41.427  28.433  12.349
36193W        W 1354  26.337   2.260  10.504
36194W        W 1355  33.568   8.384  12.019
36195W        W 1356   4.484  17.055   3.304
36196W        W 1357  31.931  27.100   2.287
36197W        W 1358  17.678  11.702  12.873
36198W        W 1359  11.417  44.959  11.138
36199W        W 1360  14.782   1.350  11.587
36200W        W 1361  34.059   8.277   0.593
36201W        W 1362   4.903  34.114   3.283
36202W        W 1363  31.182   1.696  10.809
36203W        W 1364  15.210  38.473  13.826
36204W        W 1365   8.258  41.490   1.244
36205W        W 1366  39.469  23.383   0.849
36206W        W 1367   6.172  30.962  13.357
36207W        W 1368   5.485  14.671  11.619
36208W        W 1369   3.706  12.526   3.657
36209W        W 1370  34.984   1.405  13.646
36210W        W 1371  25.811  18.208  13.387
36211W        W 1372  27.768   1.745   1.039
36212W        W 1373  24.203   9.816   4.411
36213W        W 1374  30.106  44.848   3.141
36214W        W 1375   5.003  21.912   9.942
36215W        W 1376  26.546  43.414   3.256
36216W        W 1377  15.694  34.167   1.412
36217W        W 1378  27.033   8.426  12.997
36218W        W 1379  37.071  30.063  12.360
36219W        W 1380   7.413  41.536  10.770
36220W        W 1381  29.941   5.927   1.746
36221W        W 1382  19.025  13.825  14.669
36222W        W 1383  26.003  12.031   3.202
36223W        W 1384  43.968   6.602  14.450
36224W        W 1385  25.985   9.348  12.401
36225W        W 1386   7.288  18.582  11.964
36226W        W 1387  41.668  21.617   3.189
36227W        W 1388  43.350  38.976   2.926
36228W        W 1389  14.452   5.828   2.910
36229W        W 1390  10.162  20.036   1.067
36230W        W 1391   1.248  15.372  11.850
36231W        W 1392   9.711  30.152   0.916
36232W        W 1393   4.068  11.284  10.875
36233W        W 1394  15.396  14.335   1.877
36234W        W 1395  16.407   6.936  14.559
36235W        W 1396  40.069  36.275  12.556
36236W        W 1397  38.951  34.582  11.152
36237W        W 1398  39.551  13.488  11.937
36238W        W 1399  21.231  22.734   2.259
36239W        W 1400  19.991  32.450  13.979
36240W        W 1401  41.587  39.929   2.844
36241W        W 1402  19.644  11.067   3.603
36242W        W 1403  32.170  44.831   4.916
36243W        W 1404  15.448  36.432  11.989
36244W        W 1405  41.414   1.167  10.688
36245W        W 1406  18.830  39.175  11.994
36246W        W 1407   6.507   0.295  13.822
36247W        W 1408  14.718  10.130   4.216
36248W        W 1409   0.871  35.948   3.893
36249W        W 1410  22.000  38.830  14.885
36250W        W 1411   1.906  26.007   9.872
36251W        W 1412   2.988  13.171   2.590
36252W        W 1413  20.360  23.470   0.394
36253W        W 1414  39.969  40.586  12.052
36254W        W 1415  37.635  16.713  14.365
36255W        W 1416  33.536   0.166   0.393
36256W        W 1417  22.436  11.924   0.444
36257W        W 1418  42.611  34.828   1.661
36258W        W 1419  28.912  36.388   1.439
36259W        W 1420   2.018  20.223  12.783
36260W        W 1421  41.364  24.139   0.291
36261W        W 1422  21.726  26.430  10.740
36262W        W 1423   3.504  27.998  12.444
36263W        W 1424  30.086  11.645   2.760
36264W        W 1425  40.874  10.028  11.820
36265W        W 1426  28.724  27.386   2.698
36266W        W 1427  29.385  38.675  13.243
36267W        W 1428  34.799  11.716  14.980
36268W        W 1429  20.524  29.653   4.191
36269W        W 1430   2.515  36.338   3.631
36270W        W 1431   5.554  24.226  10.519
36271W        W 1432  13.718  39.755  12.005
36272W        W 1433   9.277   9.938   0.241
36273W        W 1434  26.095  25.110   1.831
36274W        W 1435   6.396  20.688   0.654
36275W        W 1436  42.690  21.919  10.656
36276W        W 1437  36.053  27.101   2.633
36277W        W 1438  33.704  19.243  13.991
36278W        W 1439  27.921  30.153   1.067
36279W        W 1440  21.461   4.863  12.088
36280W        W 1441   1.952  44.791  10.782
36281W        W 1442   1.979  31.894   1.281
36282W        W 1443  10.854   5.213   3.841
36283W        W 1444  32.407  29.016   2.561
36284W        W 1445   0.029  42.442   3.276
36285W        W 1446  23.661  39.908  11.254
36286W        W 1447  28.020   4.961   4.491
36287W        W 1448  13.331  13.293  14.892
36288W        W 1449  23.992  41.945   3.708
36289W        W 1450  14.341   7.393  13.053
36290W        W 1451  34.188  35.893   0.814
36291W        W 1452  14.059  20.575  12.432
36292W        W 1453  23.528  18.987   4.483
36293W        W 1454  39.948  23.554   2.852
36294W        W 1455  20.656  26.991  12.559
36295W        W 1456  27.298  13.895  12.252
36296W        W 1457  18.159  18.732   0.032
36297W        W 1458   8.791  21.826  12.915
36298W        W 1459   1.870   5.592   4.577
36299W        W 1460   9.706  17.989  11.420
36300W        W 1461  38.558  20.328   1.074
36301W        W 1462  38.204   4.998  13.350
36302W        W 1463   8.705  10.779  11.100
36303W        W 1464  34.350  35.883   2.306
36304W        W 1465  34.329  10.672  10.499
36305W        W 1466  29.444   4.228   4.610
36306W        W 1467  22.092  18.851  12.140
36307W        W 1468  27.911  37.055  12.156
36308W        W 1469   3.667  16.517  11.213
36309W        W 1470  25.543  11.670  12.986
36310W        W 1471  43.182   1.212  11.856
36311W        W 1472  41.063  10.405   1.178
36312W        W 1473   1.430  32.692  14.318
36313W        W 1474   7.728   0.954   4.342
36314W        W 1475  15.349  20.054   2.716
36315W        W 1476  44.812  31.104  14.745
36316W        W 1477  23.581  39.635  14.717
36317W        W 1478  40.831  35.234   1.870
36318W        W 1479  12.689  22.158   4.562
36319W        W 1480  11.191   5.156  14.423
36320W        W 1481   7.808  36.058   4.537
36321W        W 1482   4.735  29.035   1.199
36322W        W 1483  34.430   3.009   0.659
36323W        W 1484  13.276   0.916  13.951
36324W        W 1485  19.667   5.725  14.814
36325W        W 1486  27.584  20.999  14.382
36326W        W 1487  18.462  14.588  12.020
36327W        W 1488  39.034  10.624   2.178
36328W        W 1489   9.612  33.859  12.264
36329W        W 1490  23.120  27.074  11.997
36330W        W 1491  15.043  41.230  10.805
36331W        W 1492   6.748  15.884  11.081
36332W        W 1493  33.872  32.049  10.687
36333W        W 1494  14.208   3.949   1.711
36334W        W 1495   9.753  18.131   0.340
36335W        W 1496  11.347  44.633   4.210
36336W        W 1497  41.040   1.699   2.743
36337W        W 1498   0.907  13.485   2.526
36338W        W 1499  29.665  33.442   1.638
36339W        W 1500  42.522   3.508  14.666
36340W        W 1501  23.955  25.380  13.151
36341W        W 1502   4.935  30.899   4.691
36342W        W 1503  38.134   9.673  11.476
36343W        W 1504  17.125  34.793   4.588
36344W        W 1505  15.502  20.618  11.683
36345W        W 1506  43.638  33.491  13.302
36346W        W 1507  23.985  30.157  14.889
36347W        W 1508   8.176  36.457   4.609
36348W        W 1509  37.154   8.125   1.717
36349W        W 1510  23.851  17.444   3.588
36350W        W 1511  33.517  14.710  12.019
36351W        W 1512  18.943  22.110   2.451
36352W        W 1513  42.367  44.175  12.135
36353W        W 1514  20.548  16.543  12.416
36354W        W 1515  41.967   1.512  12.967
36355W        W 1516  14.776   1.491  14.032
36356W        W 1517  40.977   2.373  10.539
36357W        W 1518  19.768  12.569   0.739
36358W        W 1519  34.006  25.123  10.254
36359W        W 1520  33.551   4.834  11.842
36360W        W 1521  41.890  16.261   2.382
36361W        W 1522   9.219  16.485   0.059
36362W        W 1523   3.924  40.810  11.633
36363W        W 1524  16.735  21.102  13.014
36364W        W 1525  40.807  13.758  14.881
36365W        W 1526  14.657   6.976  10.515
36366W        W 1527  39.219   1.825   2.767
36367W        W 1528  34.602  22.475   2.126
36368W        W 1529  18.576   5.764   4.555
36369W        W 1530  25.513  36.508  12.801
36370W        W 1531   7.748  32.459   4.548
36371W        W 1532  32.543   0.305  14.956
36372W        W 1533  40.890  13.029   2.703
36373W        W 1534  23.290  16.663   4.265
36374W        W 1535   6.496   0.448   2.964
36375W        W 1536  10.583  32.967  11.985
36376W        W 1537  13.655  15.255  11.431
36377W        W 1538   7.271   1.270   4.480
36378W        W 1539  26.508  24.067  13.299
36379W        W 1540  31.484  34.611   2.766
36380W        W 1541  38.756  30.615   4.775
36381W        W 1542  19.671  22.572  13.011
36382W        W 1543  33.351  40.747   1.712
36383W        W 1544  22.832  23.514  12.778
36384W        W 1545  15.176  40.623   3.365
36385W        W 1546  24.503  14.313   3.331
36386W        W 1547  35.562  28.962   0.701
36387W        W 1548  31.539   1.386  10.989
36388W        W 1549  21.693  43.914   4.563
36389W        W 1550  13.594  20.707  12.671
36390W        W 1551  39.624   8.308   3.715
36391W        W 1552  20.717  43.445   3.750
36392W        W 1553  32.111  22.560   1.399
36393W        W 1554  21.866  39.498   1.267
36394W        W 1555  39.864  34.645  14.123
36395W        W 1556  11.776   2.654  13.937
36396W        W 1557  31.971  18.239  13.151
36397W        W 1558  39.251  21.206  11.979
36398W        W 1559  24.153  44.481  14.423
36399W        W 1560  39.027  19.233  12.343
36400W        W 1561   1.009  17.604  10.649
36401W        W 1562  29.999   0.026   0.557
36402W        W 1563   5.835   1.102   4.588
36403W        W 1564  17.669  13.387   1.461
36404W        W 1565   9.350  39.437   0.445
36405W        W 1566   7.311  18.050  14.258
36406W        W 1567  13.677  13.400   2.761
36407W        W 1568  17.927   3.672   2.761
36408W        W 1569  31.723   3.983   2.019
36409W        W 1570   0.736  25.129  14.707
36410W        W 1571   0.507  28.755  11.172
36411W        W 1572  27.494  32.325  13.395
36412W        W 1573  31.681   3.251  13.441
36413W        W 1574  35.093   6.705  12.142
36414W        W 1575  41.089  35.406  13.253
36415W        W 1576  12.093  10.010  11.737
36416W        W 1577   5.804   2.090   4.642
36417W        W 1578  12.020  44.327  14.543
36418W        W 1579  34.151  12.345  11.971
36419W        W 1580  20.716  17.875   2.550
36420W        W 1581  19.511   5.271   4.457
36421W        W 1582  17.529  37.264   0.454
36422W        W 1583   1.071  35.120   4.217
36423W        W 1584  25.269   6.774  14.501
36424W        W 1585  39.971  19.269  12.001
36425W        W 1586   3.256  44.850  14.940
36426W        W 1587  34.014  17.530  11.443
36427W        W 1588   9.303   9.173  13.591
36428W        W 1589   5.673  10.391  11.186
36429W        W 1590   0.386  38.341   2.745
36430W        W 1591  15.120  19.433   4.601
36431W        W 1592   0.290  11.762   0.292
36432W        W 1593  28.021  32.194  13.379
36433W        W 1594  14.618  33.636  14.276
36434W        W 1595  22.603  17.592  10.549
36435W        W 1596  27.963  24.230  10.714
36436W        W 1597  34.472  20.848  12.032
36437W        W 1598   4.387  34.673   2.908
36438W        W 1599  29.455  27.636  13.551
36439W        W 1600  18.891   8.755   0.207
36440W        W 1601  40.815  29.609   4.814
36441W        W 1602  35.389  25.884  12.864
36442W        W 1603   2.482  10.516  10.280
36443W        W 1604  14.936  24.351  14.824
36444W        W 1605  24.204  12.108   2.115
36445W        W 1606  11.336   0.818   2.413
36446W        W 1607  15.725   8.674   4.958
36447W        W 1608  19.187  29.860   2.287
36448W        W 1609   8.732  19.916   2.792
36449W        W 1610   4.874  32.336  13.349
36450W        W 1611  10.337   5.872  12.892
36451W        W 1612  30.040  16.160  14.790
36452W        W 1613  14.709  23.180  11.969
36453W        W 1614  16.280  18.430   3.657
36454W        W 1615  42.965  14.313   0.484
36455W        W 1616  38.293   9.196   4.301
36456W        W 1617  27.630  43.013   3.763
36457W        W 1618   1.349  15.382   0.739
36458W        W 1619   3.475  42.497   0.785
36459W        W 1620  39.396  25.243   4.246
36460W        W 1621   3.700   8.709   2.744
36461W        W 1622  15.292  37.944  10.998
36462W        W 1623  19.113   0.024   4.555
36463W        W 1624   1.393   7.743  13.142
36464W        W 1625  44.852  24.174   2.742
36465W        W 1626  42.838  44.800   2.009
36466W        W 1627  38.086   9.688   0.129
36467W        W 1628  24.458  14.898   2.237
36468W        W 1629   5.476  18.339   3.814
36469W        W 1630  32.837   4.414  10.493
36470W        W 1631  42.255  29.839  11.789
36471W        W 1632   7.880  29.985  14.420
36472W        W 1633  22.911   2.396   2.250
36473W        W 1634  22.027  19.533   0.775
36474W        W 1635  36.096  17.164  11.958
36475W        W 1636  17.201  38.892   2.861
36476W        W 1637  11.920   2.430  12.108
36477W        W 1638  42.889  44.113  12.057
36478W        W 1639  20.765   3.875   3.616
36479W        W 1640  17.749  11.940   2.678
36480W        W 1641  22.653  11.296  10.289
36481W        W 1642   1.963  20.483  11.647
36482W        W 1643  31.891   4.333   3.188
36483W        W 1644  38.819   6.818  13.505
36484W        W 1645  21.798   6.347   2.152
36485W        W 1646   1.217  19.796   1.860
36486W        W 1647  39.339   2.293  11.358
36487W        W 1648  11.240  10.129   0.333
36488W        W 1649  43.060  33.618  12.420
36489W        W 1650  14.512  41.958   3.646
36490W        W 1651  37.531   0.980   0.484
36491W        W 1652  18.278  27.209   3.749
36492W        W 1653  31.969  30.700   2.802
36493W        W 1654  38.558  37.321   2.709
36494W        W 1655   6.854  29.405  12.819
36495W        W 1656   1.866   0.217  14.064
36496W        W 1657  34.573   3.715  13.306
36497W        W 1658  31.573   7.048  12.603
36498W        W 1659  36.947  40.929  11.841
36499W        W 1660  38.530  15.751   4.397
36500W        W 1661   7.405  38.008   0.752
36501W        W 1662  27.257  41.409  13.792
36502W        W 1663  41.051  29.536   3.692
36503W        W 1664  38.410  13.784   2.633
36504W        W 1665  28.628  30.178  11.375
36505W        W 1666  33.013  23.059  13.263
36506W        W 1667  14.035   5.805  14.393
36507W        W 1668  20.199   2.333   4.955
36508W        W 1669  16.323  37.407   0.800
36509W        W 1670  23.735  27.573   4.892
36510W        W 1671  24.040  37.524   2.040
36511W        W 1672  35.346  43.922  10.595
36512W        W 1673  29.794  31.551   3.720
36513W        W 1674   4.627  16.310   4.913
36514W        W 1675  15.396  15.115  11.974
36515W        W 1676   6.310  27.566  12.019
36516W        W 1677   3.216  24.303   1.290
36517W        W 1678  23.002  26.664   4.796
36518W        W 1679  10.802  33.431  12.603
36519W        W 1680  29.163  22.007  13.070
36520W        W 1681  22.671  42.314   4.871
36521W        W 1682  15.826  27.712  13.021
36522W        W 1683  27.593  25.456  13.053
36523W        W 1684   7.937  42.419   2.687
36524W        W 1685  41.331  19.195   1.554
36525W        W 1686   2.314  39.838  10.753
36526W        W 1687   1.090  40.825   3.075
36527W        W 1688  30.954   3.646  12.792
36528W        W 1689  40.481  35.581  11.568
36529W        W 1690  30.846   0.490   4.516
36530W        W 1691  43.441  19.095   4.313
36531W        W 1692  15.523  22.507  12.580
36532W        W 1693   3.436   0.460   2.255
36533W        W 1694  39.125  38.510  10.417
36534W        W 1695  16.530  39.853  14.782
36535W        W 1696  29.905  36.661  13.548
36536W        W 1697  39.922  42.273  11.911
36537W        W 1698  37.491  16.132   2.159
36538W        W 1699   5.765  37.245  11.789
36539W        W 1700   5.520  12.100   1.469
36540W        W 1701  10.046  26.380   4.097
36541W        W 1702  13.245  26.712   2.420
36542W        W 1703  30.727  14.127  10.043
36543W        W 1704  35.616  28.619   0.172
36544W        W 1705  44.596  41.744  12.367
36545W        W 1706   9.836  24.651  14.034
36546W        W 1707   1.820  17.394  14.468
36547W        W 1708   8.252  36.078  12.187
36548W        W 1709  31.883  37.068  12.928
36549W        W 1710   0.364  26.538   1.789
36550W        W 1711  29.989   7.081  11.214
36551W        W 1712  43.415  21.682  13.717
36552W        W 1713  10.120  23.527   2.640
36553W        W 1714  29.010   7.877   4.333
36554W        W 1715  35.915  38.385   3.079
36555W        W 1716  37.010  23.107   4.612
36556W        W 1717   1.456  25.417   3.352
36557W        W 1718  35.097  35.433   1.832
36558W        W 1719  41.918  22.743   0.350
36559W        W 1720  18.158  43.970  13.059
36560W        W 1721  10.705  30.803   2.483
36561W        W 1722  39.519  31.327   0.080
36562W        W 1723  10.823  27.606   0.315
36563W        W 1724  28.953  44.880   0.281
36564W        W 1725  41.258  15.803   3.671
36565W        W 1726  43.734  23.097  14.406
36566W        W 1727  11.416  38.337   0.113
36567W        W 1728  18.056  37.391  12.064
36568W        W 1729  33.900  16.802  12.119
36569W        W 1730  20.335   1.865  11.190
36570W        W 1731  37.095  10.411   4.088
36571W        W 1732  16.238   5.725  14.991
36572W        W 1733  43.012  44.501  13.803
36573W        W 1734  43.880  19.520   4.109
36574W        W 1735   7.968  10.238   0.166
36575W        W 1736  44.128  10.105   4.072
36576W        W 1737   6.691  39.719   4.176
36577W        W 1738  43.260   9.741   4.110
36578W        W 1739   6.270  20.001   4.892
36579W        W 1740   6.659  21.261   3.122
36580W        W 1741  13.277  10.630   1.302
36581W        W 1742   9.729  39.452   4.557
36582W        W 1743  42.257  35.351  12.317
36583W        W 1744  11.102  16.199   1.818
36584W        W 1745  33.892  12.633  13.117
36585W        W 1746   2.491   1.392   0.402
36586W        W 1747  26.688  35.137  14.491
36587W        W 1748  44.182  11.176  11.600
36588W        W 1749   7.702  30.621   2.021
36589W        W 1750   2.993  31.503  11.735
36590W        W 1751  23.363  41.389   0.426
36591W        W 1752   1.549  14.269   2.756
36592W        W 1753  37.249   4.880   2.218
36593W        W 1754  28.719  41.576  14.040
36594W        W 1755   6.616  11.750   3.741
36595W        W 1756  31.183  19.042   4.301
36596W        W 1757  42.063  32.921   2.377
36597W        W 1758   1.954  13.769   3.338
36598W        W 1759  29.164  18.277  14.226
36599W        W 1760   7.542  43.440   4.258
36600W        W 1761  14.360  29.731  14.086
36601W        W 1762   9.930  35.334  14.282
36602W        W 1763  21.660   6.259   2.719
36603W        W 1764   6.758   2.232  13.109
36604W        W 1765  24.252  24.643  11.469
36605W        W 1766   5.618  42.281  13.006
36606W        W 1767  43.784  32.633   2.928
36607W        W 1768  36.835  44.043   0.050
36608W        W 1769  22.465   9.302  11.317
36609W        W 1770  10.189   2.042   3.461
36610W        W 1771  14.260  32.926  13.382
36611W        W 1772  15.368  34.596   4.715
36612W        W 1773  21.950  43.020   2.955
36613W        W 1774  32.081  40.921   4.530
36614W        W 1775  43.448   3.817  14.555
36615W        W 1776  33.322   2.207  14.473
36616W        W 1777  35.440  31.688   1.245
36617W        W 1778  35.563  34.605  11.816
36618W        W 1779  35.945  37.421   0.872
36619W        W 1780  13.996  23.837   1.843
36620W        W 1781  32.091  28.633   4.775
36621W        W 1782  15.118  27.709   3.165
36622W        W 1783  38.414  27.353  12.393
36623W        W 1784  22.544  32.676   3.126
36624W        W 1785   5.465   5.460  14.894
36625W        W 1786  23.137  15.335  12.495
36626W        W 1787  18.047  42.462   3.682
36627W        W 1788  19.527  10.095  14.407
36628W        W 1789   8.887   2.368   0.394
36629W        W 1790   2.867  34.101   2.119
36630W        W 1791  28.279  13.122  12.426
36631W        W 1792  42.800  40.996  12.413
36632W        W 1793  26.065  32.067   4.044
36633W        W 1794   8.673  19.362  10.769
36634W        W 1795   3.281  23.238   0.384
36635W        W 1796   3.542  26.806   0.497
36636W        W 1797  22.421  42.945   2.750
36637W        W 1798  27.605  11.156  11.611
36638W        W 1799  15.712  16.157   4.675
36639W        W 1800   4.840  16.711  10.515
36640W        W 1801  28.190   6.909  14.465
36641W        W 1802   7.742  19.035  10.567
36642W        W 1803  33.486  40.073  12.242
36643W        W 1804  23.314  26.543   0.932
36644W        W 1805  31.875  22.087  12.069
36645W        W 1806  26.691   7.836   0.403
36646W        W 1807  33.587  36.917  11.299
36647W        W 1808  43.353  25.632  14.470
36648W        W 1809  39.985  44.961   4.490
36649W        W 1810  37.003  22.701  11.018
36650W        W 1811  25.590  30.918   4.653
36651W        W 1812  25.128  14.646   0.819
36652W        W 1813  11.430  37.448   3.681
36653W        W 1814  38.189  20.458   0.018
36654W        W 1815  26.423   9.801   2.390
36655W        W 1816   1.329  15.244  12.337
36656W        W 1817  33.906   3.882   3.379
36657W        W 1818   6.458  32.059  10.262
36658W        W 1819  35.413  34.605  12.324
36659W        W 1820   2.345   6.664  12.053
36660W        W 1821  19.348  29.220   0.050
36661W        W 1822  13.732   4.287   0.146
36662W        W 1823  34.041   8.752   0.296
36663W        W 1824   4.917  17.787   3.849
36664W        W 1825   6.937  29.788  14.226
36665W        W 1826  34.958  37.901  14.703
36666W        W 1827  26.238  37.368   3.572
36667W        W 1828  11.762  20.806  10.892
36668W        W 1829   6.187   3.120  11.615
36669W        W 1830  32.212  34.446   2.251
36670W        W 1831  35.554  30.616   4.719
36671W        W 1832  25.322  35.815   0.927
36672W        W 1833  26.713  28.093  12.189
36673W        W 1834  35.963  41.542  12.035
36674W        W 1835  41.548  25.306   2.687
36675W        W 1836  37.907  22.868   3.172
36676W        W 1837  18.334  10.155   0.721
36677W        W 1838   6.670  25.257   2.799
36678W        W 1839  20.081  28.504  13.884
36679W        W 1840  24.249  10.306  11.995
36680W        W 1841  35.023  35.510   0.368
36681W        W 1842  35.579   1.155   1.193
36682W        W 1843  12.129  18.530   1.163
36683W        W 1844   3.723  42.250   4.697
36684W        W 1845   6.145  44.361   4.797
36685W        W 1846   0.243  27.965   4.493
36686W        W 1847  17.315  40.141   1.307
36687W        W 1848  17.544  12.889   1.342
36688W        W 1849  39.258  10.221   3.170
36689W        W 1850   9.375   5.289  12.283
36690W        W 1851  27.576  18.614   3.265
36691W        W 1852  18.247  22.450   3.623
36692W        W 1853  15.897  17.841   1.777
36693W        W 1854  11.128   6.346   3.262
36694W        W 1855  13.287  10.915  10.732
36695W        W 1856  24.107   3.804   0.325
36696W        W 1857  13.451  31.446  12.022
36697W        W 1858   8.455  11.003   3.095
36698W        W 1859  22.355  11.453  11.457
36699W        W 1860  23.307  37.294  12.058
36700W        W 1861   5.930  20.950   3.768
36701W        W 1862  17.550  17.006  13.028
36702W        W 1863  16.633  27.627   4.182
36703W        W 1864  37.914  27.710   2.795
36704W        W 1865  23.032  15.024   2.722
36705W        W 1866  19.281   7.712  11.159
36706W        W 1867  31.550  16.784   2.927
36707W        W 1868  37.208   9.715  12.999
36708W        W 1869  15.122   1.794  14.913
36709W        W 1870  27.160  22.296   1.150
36710W        W 1871  26.352  15.142  12.892
36711W        W 1872  21.570   2.970   2.979
36712W        W 1873  18.093  40.896   1.238
36713W        W 1874   2.925   4.259  12.898
36714W        W 1875   3.443  31.104  13.885
36715W        W 1876  18.152  43.790   1.353
36716W        W 1877   9.234  16.756  10.289
36717W        W 1878  27.448  17.380   3.431
36718W        W 1879  34.378   6.736   2.538
36719W        W 1880  17.270   8.237   1.435
36720W        W 1881   2.732  29.397  14.492
36721W        W 1882  41.757  29.721   0.380
36722W        W 1883  30.090  43.827  13.197
36723W        W 1884  29.860  25.485   2.587
36724W        W 1885  17.322  27.158  14.543
36725W        W 1886   8.667  19.102   0.697
36726W        W 1887  18.050  24.252  11.713
36727W        W 1888   3.795  32.087  13.487
36728W        W 1889  25.457  13.244   2.220
36729W        W 1890  30.779  33.378  11.047
36730W        W 1891  20.755  10.430   5.071
36731W        W 1892  42.854  39.031   2.346
36732W        W 1893   3.640  25.908  11.275
36733W        W 1894  19.743   9.682  13.478
36734W        W 1895  36.421   1.365   3.634
36735W        W 1896  11.950  40.084   0.848
36736W        W 1897   2.291   5.572  12.886
36737W        W 1898  43.832  34.325   1.395
36738W        W 1899  20.086   7.910  14.521
36739W        W 1900  44.190  27.903   0.581
36740W        W 1901  22.399   3.996   3.642
36741W        W 1902  19.098  14.194   2.743
36742W        W 1903  17.210  12.369   1.891
36743W        W 1904  17.827  19.445   3.241
36744W        W 1905  36.498  10.589   1.835
36745W        W 1906  13.390  13.239   3.700
36746W        W 1907  27.104  14.847   3.681
36747W        W 1908  25.364  33.873   1.740
36748W        W 1909   4.236  20.205  13.438
36749W        W 1910  31.561  24.950   0.328
36750W        W 1911  19.255  22.358   4.864
36751W        W 1912  37.288  22.444  13.418
36752W        W 1913  27.153  20.613   2.879
36753W        W 1914  16.081  36.024   3.760
36754W        W 1915  20.975  13.628  11.584
36755W        W 1916  25.209  30.037  14.796
36756W        W 1917  15.668  19.264   2.906
36757W        W 1918  36.549  39.306  13.070
36758W        W 1919   5.209  31.461   0.314
36759W        W 1920   0.983  43.367   4.570
36760W        W 1921  24.036  24.966  14.464
36761W        W 1922  44.237  15.568  12.543
36762W        W 1923  11.789  22.816  11.477
36763W        W 1924  37.828  34.604   1.731
36764W        W 1925   7.131  16.229   4.122
36765W        W 1926  25.543  30.267   4.092
36766W        W 1927  39.012  10.599  10.250
36767W        W 1928  28.316  14.821   4.568
36768W        W 1929  15.413  20.783  13.481
36769W        W 1930  39.033  44.243   0.300
36770W        W 1931   4.495   4.252   2.996
36771W        W 1932  15.797  31.588   0.881
36772W        W 1933  13.713  29.649  14.425
36773W        W 1934  39.834  43.281  12.048
36774W        W 1935  26.747   1.703   2.382
36775W        W 1936   3.123  36.563  13.033
36776W        W 1937   1.998  43.870  13.446
36777W        W 1938   6.057  28.233  13.101
36778W        W 1939  27.962  43.824  14.950
36779W        W 1940  43.943  34.883   3.332
36780W        W 1941  14.119  27.558  10.719
36781W        W 1942   1.396   8.572   2.353
36782W        W 1943   0.342  36.401  13.827
36783W        W 1944  42.773  29.828   4.069
36784W        W 1945  20.616  22.995   4.306
36785W        W 1946  25.982  25.439   4.869
36786W        W 1947   8.489  25.924  12.007
36787W        W 1948   3.048   5.681  14.916
36788W        W 1949  23.320  24.192  14.478
36789W        W 1950  27.410   1.062  10.681
36790W        W 1951  21.767  15.178  12.166
36791W        W 1952   8.798   6.419   4.340
36792W        W 1953  28.148   7.731  11.664
36793W        W 1954   1.967  38.773   1.441
36794W        W 1955   3.406   5.060   1.754
36795W        W 1956  13.450   4.956   2.820
36796W        W 1957  39.344   6.203   2.256
36797W        W 1958  28.048  20.508  12.415
36798W        W 1959  38.029  25.579   3.816
36799W        W 1960  19.638  39.917  13.901
36800W        W 1961  40.026  21.128   3.829
36801W        W 1962  25.085  20.875  11.595
36802W        W 1963  10.659  14.609  11.491
36803W        W 1964  36.661   7.503  12.094
36804W        W 1965  29.830  43.801  11.943
36805W        W 1966  38.518  16.509   3.667
36806W        W 1967  22.515  38.609   2.305
36807W        W 1968  42.054  36.043   1.954
36808W        W 1969  16.726  24.283  12.845
36809W        W 1970   8.759  19.102   0.191
36810W        W 1971   7.947  41.866   0.406
36811W        W 1972  25.711  22.258   1.154
36812W        W 1973  10.184  44.785  12.467
36813W        W 1974  25.385  22.722  12.700
36814W        W 1975  19.896  23.739  11.047
36815W        W 1976  17.779  28.660   3.207
36816W        W 1977  31.435  21.531   4.719
36817W        W 1978  33.155  29.676   1.020
36818W        W 1979  19.625   6.148  12.015
36819W        W 1980  33.133   8.377  11.571
36820W        W 1981  30.492   3.035   2.663
36821W        W 1982  37.707  37.956   4.268
36822W        W 1983   0.520  23.702  13.635
36823W        W 1984  42.587  43.323   0.199
36824W        W 1985  34.890  11.375  12.854
36825W        W 1986  38.942   9.204  13.822
36826W        W 1987  33.627  32.092   4.890
36827W        W 1988   0.353  41.662  11.959
36828W        W 1989  23.000  30.589   4.612
36829W        W 1990   7.727  19.193   1.016
36830W        W 1991  41.014  17.751   2.702
36831W        W 1992  30.617   8.361  11.273
36832W        W 1993  16.746  37.766   4.986
36833W        W 1994  15.529  31.606  12.918
36834W        W 1995  13.896  41.305   1.450
36835W        W 1996   1.242   9.579   3.133
36836W        W 1997  28.063  34.008  10.434
36837W        W 1998  30.931   7.292  10.601
36838W        W 1999   6.775  39.920   0.233
36839W        W 2000  25.423   3.951   4.440
36840W        W 2001  22.784  25.110  10.641
36841W        W 2002  21.794  31.981  12.581
36842W        W 2003  16.045  32.079  11.206
36843W        W 2004  34.565  36.847   3.322
36844W        W 2005   3.412  32.964   2.259
36845W        W 2006   3.817  12.738   4.548
36846W        W 2007  42.414  18.990   0.252
36847W        W 2008  12.278  22.129  13.944
36848W        W 2009  39.133   2.855   2.094
36849W        W 2010  15.704  12.049  14.148
36850W        W 2011  31.341  38.279  13.793
36851W        W 2012  19.189  33.219   3.238
36852W        W 2013  38.472   5.999  13.391
36853W        W 2014   8.787  16.126  10.838
36854W        W 2015  25.532   7.175   4.531
36855W        W 2016  18.837   6.861  11.035
36856W        W 2017  32.344   6.292   4.479
36857W        W 2018   3.991  41.941  10.828
36858W        W 2019  19.068   0.910   2.865
36859W        W 2020  43.812  30.618   0.450
36860W        W 2021  32.504  39.471   3.133
36861W        W 2022  34.907  32.787   2.635
36862W        W 2023  33.183  44.043  13.020
36863W        W 2024  42.239  36.549   3.597
36864W        W 2025  10.104  24.223  12.815
36865W        W 2026  31.346  20.492   2.126
36866W        W 2027   1.065   3.029  11.621
36867W        W 2028  11.614  21.632  14.074
36868W        W 2029  25.149  14.229   1.697
36869W        W 2030  17.061  20.163   0.263
36870W        W 2031   4.680  13.766  13.899
36871W        W 2032  35.092  15.079  11.780
36872W        W 2033  13.358  18.955   2.054
36873W        W 2034  29.965  39.330   1.609
36874W        W 2035  12.172   1.520   3.321
36875W        W 2036   1.237  39.547  11.097
36876W        W 2037  17.033  20.686  12.887
36877W        W 2038  20.502   1.078   1.793
36878W        W 2039   3.470  35.495   0.761
36879W        W 2040   3.745   1.171   1.332
36880W        W 2041   5.848  13.562  13.531
36881W        W 2042  15.262  37.609  12.602
36882W        W 2043  16.668  25.100   2.987
36883W        W 2044  39.528  31.648   4.727
36884W        W 2045  29.444  26.962   4.092
36885W        W 2046  16.791  30.590  12.115
36886W        W 2047  15.171  41.127   3.593
36887W        W 2048  35.607  44.403  10.710
36888W        W 2049  13.821  33.655  14.958
36889W        W 2050  36.701   6.736  13.397
36890W        W 2051  38.736  21.539  14.084
36891W        W 2052  32.455  41.862   4.044
36892W        W 2053  30.893   9.842  10.662
36893W        W 2054   7.419  20.135   3.193
36894W        W 2055  24.331  22.818  14.279
36895W        W 2056   0.893   7.714  13.894
36896W        W 2057  13.313  21.224   3.694
36897W        W 2058   3.855  10.769  14.555
36898W        W 2059  23.496  20.540   3.250
36899W        W 2060   9.727  19.648   5.127
36900W        W 2061  18.786  25.592  12.544
36901W        W 2062  27.732  41.281   2.264
36902W        W 2063  32.470  22.409   3.282
36903W        W 2064  38.865  12.485   4.065
36904W        W 2065   5.292  31.462  11.166
36905W        W 2066   5.334  24.601   3.237
36906W        W 2067  40.513  31.114  12.485
36907W        W 2068  41.809  32.650  13.510
36908W        W 2069   1.134  18.302  11.174
36909W        W 2070  25.275  32.445   1.560
36910W        W 2071  44.094  40.273  10.284
36911W        W 2072  13.576  34.678  10.812
36912W        W 2073  10.013  34.855  10.991
36913W        W 2074  40.966  28.677   4.577
36914W        W 2075  31.017   9.278  13.835
36915W        W 2076  41.975  44.521  13.022
36916W        W 2077  26.563  12.386  10.903
36917W        W 2078  19.543   0.380   2.248
36918W        W 2079  28.483  22.663   5.026
36919W        W 2080  25.543  19.200   2.381
36920W        W 2081  43.901  26.023   2.466
36921W        W 2082  11.616   9.478   4.632
36922W        W 2083  27.929  19.570  13.881
36923W        W 2084  35.471  31.235   0.964
36924W        W 2085   6.840   9.965  11.981
36925W        W 2086  34.880  15.756   1.394
36926W        W 2087  19.419  32.265   1.717
36927W        W 2088  32.915  34.128   4.172
36928W        W 2089   0.988  33.143  10.741
36929W        W 2090  15.836  28.018   1.729
36930W        W 2091  27.181  31.715   2.747
36931W        W 2092  37.869  32.095  11.871
36932W        W 2093  18.130  10.930  13.580
36933W        W 2094  39.961  23.039   1.926
36934W        W 2095  16.325   5.255  12.508
36935W        W 2096  12.216  30.391  13.872
36936W        W 2097  15.357  16.716   0.297
36937W        W 2098  33.869  37.127  14.948
36938W        W 2099   4.548  32.015  14.916
36939W        W 2100   0.473  25.712  13.873
36940W        W 2101   4.355  37.194  12.505
36941W        W 2102  18.730   3.283  10.248
36942W        W 2103  11.549   0.842  14.403
36943W        W 2104  27.018  30.541  12.925
36944W        W 2105  10.711   5.587   0.308
36945W        W 2106  18.787  32.830  13.476
36946W        W 2107  39.487   3.208   2.936
36947W        W 2108  14.830  12.283   2.823
36948W        W 2109  24.033   0.179  13.899
36949W        W 2110   8.231   4.262  14.517
36950W        W 2111   4.894  16.096  14.465
36951W        W 2112  33.890  29.879  13.141
36952W        W 2113  38.904   5.449   3.262
36953W        W 2114  24.623  32.567   4.618
36954W        W 2115  16.189  28.867   1.277
36955W        W 2116  43.466  29.694  13.873
36956W        W 2117  43.450  33.156  11.423
36957W        W 2118  41.418  43.150   3.185
36958W        W 2119   4.064  28.548   1.892
36959W        W 2120  23.537  44.414   1.294
36960W        W 2121  18.098  25.531   1.469
36961W        W 2122   8.199  28.084  14.493
36962W        W 2123  32.016  38.946  12.293
36963W        W 2124   7.270  34.424  12.049
36964W        W 2125  11.088   6.401   4.129
36965W        W 2126   5.077  36.025  14.579
36966W        W 2127  27.959   1.832  11.093
36967W        W 2128  26.379  13.048   3.264
36968W        W 2129  32.496  11.227  11.826
36969W        W 2130   6.163  21.734   0.789
36970W        W 2131   3.333  37.970   0.078
36971W        W 2132  16.514  33.897   4.305
36972W        W 2133  10.339   5.645  12.027
36973W        W 2134  44.857  29.608  14.085
36974W        W 2135  18.999  44.854   0.242
36975W        W 2136  31.939   0.993  14.359
36976W        W 2137  41.467   0.521  12.453
36977W        W 2138  38.092   9.351  13.027
36978W        W 2139  21.496  20.702  14.939
36979W        W 2140  11.946   6.240   3.627
36980W        W 2141  25.362   8.710   0.466
36981W        W 2142  41.924   5.468  11.106
36982W        W 2143  10.979  18.186   4.619
36983W        W 2144  43.494   4.812   3.157
36984W        W 2145  32.387   1.370  12.943
36985W        W 2146  20.252  20.007   1.788
36986W        W 2147  42.926  19.620  14.891
36987W        W 2148  10.090   7.287   2.811
36988W        W 2149  15.109  35.333  13.854
36989W        W 2150  44.680  34.824   4.541
36990W        W 2151  29.875  31.991  10.424
36991W        W 2152  28.294  10.651   3.358
36992W        W 2153  36.615  32.374  12.933
36993W        W 2154  19.723  13.764   1.954
36994W        W 2155   4.687   2.473   2.711
36995W        W 2156  19.199   6.994   0.099
36996W        W 2157  31.703  40.037  12.939
36997W        W 2158   9.779   8.853   4.911
36998W        W 2159  19.065  24.170  11.659
36999W        W 2160   1.188  43.879   0.574
37000W        W 2161  30.581  11.530  14.050
37001W        W 2162  39.098  18.771   5.051
37002W        W 2163  11.153  24.050   4.432
37003W        W 2164   3.242  43.537   1.893
37004W        W 2165  44.280   4.117   0.184
37005W        W 2166   7.175  24.208  13.865
37006W        W 2167   3.334  10.882  12.906
37007W        W 2168  15.094  23.787  14.123
37008W        W 2169   1.807  18.193  11.408
37009W        W 2170  43.759  33.321  12.824
37010W        W 2171   0.850  33.438   2.025
37011W        W 2172  37.377  44.290  13.007
37012W        W 2173  22.711  29.222   0.845
37013W        W 2174   7.462  10.360   0.932
37014W        W 2175  23.440  29.630  11.985
37015W        W 2176  25.664   3.130  14.560
37016W        W 2177   5.815   9.679  11.927
37017W        W 2178   4.721  16.599  14.530
37018W        W 2179  33.931  41.144   3.463
37019W        W 2180   2.668  13.831   1.439
37020W        W 2181  13.719  35.876  14.531
37021W        W 2182  14.367   7.919   2.218
37022W        W 2183   0.929   8.686  12.165
37023W        W 2184  44.909  29.442   2.747
37024W        W 2185  15.237   0.064  14.543
37025W        W 2186  17.361   9.694  10.584
37026W        W 2187  44.912  19.170  11.690
37027W        W 2188  26.478  14.233  14.867
37028W        W 2189  16.806   4.583   9.779
37029W        W 2190  21.205   3.698  11.714
37030W        W 2191  36.985  16.252  10.778
37031W        W 2192  43.011  40.913   0.310
37032W        W 2193   4.229   5.308   4.079
37033W        W 2194  17.742  16.519  13.637
37034W        W 2195  39.829  11.073   3.460
37035W        W 2196  44.383  12.763   0.908
37036W        W 2197  40.754  29.953   0.376
37037W        W 2198  37.976  15.610  12.915
37038W        W 2199   0.982  41.928   4.277
37039W        W 2200  29.607  26.652   1.420
37040W        W 2201  31.628  21.459  14.342
37041W        W 2202  16.250   2.694   0.645
37042W        W 2203  20.637  38.661  13.289
37043W        W 2204  34.364  42.305  11.969
37044W        W 2205  41.887  43.413   3.214
37045W        W 2206   3.361  33.195   1.796
37046W        W 2207  32.392  11.362  13.834
37047W        W 2208   8.822  26.219   3.192
37048W        W 2209  13.654  36.919   3.692
37049W        W 2210  31.892  42.144  13.167
37050W        W 2211  40.986   5.524   4.335
37051W        W 2212   5.426  26.597  10.904
37052W        W 2213  21.305  19.515  13.785
37053W        W 2214  20.083  39.065   3.368
37054W        W 2215  26.154  24.052  11.457
37055W        W 2216   9.770  15.169  11.571
37056W        W 2217   3.389  41.009  13.388
37057W        W 2218  38.940  22.607   4.535
37058W        W 2219  14.607  15.794  12.947
37059W        W 2220  23.187  25.184  10.966
37060W        W 2221  22.476   7.384  13.042
37061W        W 2222  36.015  21.286   4.736
37062W        W 2223  21.463   0.308   0.931
37063W        W 2224  15.557  30.904  12.626
37064W        W 2225   6.350   1.317  13.911
37065W        W 2226  31.631  33.884  12.169
37066W        W 2227   6.039  26.573  10.219
37067W        W 2228  37.972  29.598   1.642
37068W        W 2229   6.218   0.524   1.466
37069W        W 2230   7.734  15.364  12.112
37070W        W 2231  31.316  21.168   1.731
37071W        W 2232  21.542  25.509  13.942
37072W        W 2233  42.313  35.163  13.634
37073W        W 2234  41.087  12.586   1.804
37074W        W 2235  13.177  28.581   1.815
37075W        W 2236   6.262  44.992   3.082
37076W        W 2237  36.284  36.467   2.322
37077W        W 2238   0.873  26.947  10.692
37078W        W 2239   1.420  24.663  12.083
37079W        W 2240  21.424  14.042   1.330
37080W        W 2241  14.742   1.228  13.137
37081W        W 2242   2.636  37.690   1.513
37082W        W 2243  34.937  33.132  14.540
37083W        W 2244   9.335   0.400  13.831
37084W        W 2245   2.029  22.257   1.378
37085W        W 2246   1.723  36.131   9.991
37086W        W 2247  34.524   7.924  13.437
37087W        W 2248  42.444   6.532  10.393
37088W        W 2249  33.547  26.767   3.910
37089W        W 2250  33.551  25.474   4.531
37090W        W 2251  23.155  18.803   1.256
37091W        W 2252  35.385  27.407  13.083
37092W        W 2253  28.409   6.827  11.939
37093W        W 2254  29.272  31.602   3.686
37094W        W 2255   9.624  32.262  13.858
37095W        W 2256  26.203  27.310  14.492
37096W        W 2257  11.696  17.238  12.934
37097W        W 2258  20.281  44.428   1.163
37098W        W 2259  43.462   6.895   3.776
37099W        W 2260  10.693  10.507   2.613
37100W        W 2261  11.772  43.363  10.944
37101W        W 2262  12.975  20.647  11.084
37102W        W 2263  38.529  32.488   3.113
37103W        W 2264  15.024  36.730   3.605
37104W        W 2265  32.343  15.758  13.659
37105W        W 2266  39.587  10.303  12.430
37106W        W 2267  23.523  43.992  10.633
37107W        W 2268  14.277  31.819  10.195
37108W        W 2269  32.558  28.263  14.095
37109W        W 2270  21.507  39.924  13.464
37110W        W 2271  31.279   4.206  13.510
37111W        W 2272  18.706  33.568   2.496
37112W        W 2273  21.404  19.093   0.532
37113W        W 2274  24.232   3.984  12.513
37114W        W 2275  18.292  34.311  14.752
37115W        W 2276  30.284  38.582   1.173
37116W        W 2277  11.110   5.477   2.888
37117W        W 2278  17.876   4.281  10.770
37118W        W 2279   4.976  29.539  14.350
37119W        W 2280  37.378  40.555   0.326
37120W        W 2281  20.094  11.700  14.849
37121W        W 2282   6.863  30.694  14.021
37122W        W 2283  13.294  17.510  10.040
37123W        W 2284   1.855  40.600   4.655
37124W        W 2285  21.344  29.703   2.391
37125W        W 2286  14.494  24.594  12.904
37126W        W 2287  29.488   1.311  11.522
37127W        W 2288  38.885  33.742  10.799
37128W        W 2289  14.700  41.495   0.963
37129W        W 2290  19.144   1.208  14.523
37130W        W 2291  16.143  42.797   0.721
37131W        W 2292  42.070   1.208   4.578
37132W        W 2293  24.726   0.342  14.450
37133W        W 2294  30.086  28.083  14.885
37134W        W 2295  16.168  24.025   3.161
37135W        W 2296  11.875  32.413  10.929
37136W        W 2297  16.193  36.984   2.418
37137W        W 2298   8.437  20.757  12.536
37138W        W 2299  34.892  43.884   0.423
37139W        W 2300  16.153  42.119  12.097
37140W        W 2301  37.408  17.993  13.559
37141W        W 2302   5.202  35.833   0.379
37142W        W 2303   8.390  17.065  10.737
37143W        W 2304  23.656  33.886   0.952
37144W        W 2305   9.677  33.420  11.991
37145W        W 2306  36.785   9.213  12.448
37146W        W 2307  26.480  40.181  13.411
37147W        W 2308  18.166  15.353   0.184
37148W        W 2309  38.061   3.844  13.092
37149W        W 2310  33.989   8.946   4.091
37150W        W 2311  29.184   3.414  13.824
37151W        W 2312   1.259  20.123   0.404
37152W        W 2313  35.539   8.191  11.564
37153W        W 2314  28.498  36.769  13.792
37154W        W 2315  18.958  28.141  14.397
37155W        W 2316   4.985   5.069   3.108
37156W        W 2317  38.070  36.580  12.548
37157W        W 2318  43.016   1.702  10.732
37158W        W 2319  17.567  35.573   4.868
37159W        W 2320  37.405  11.789   3.531
37160W        W 2321  24.039  22.413  14.204
37161W        W 2322   9.129  26.484   0.203
37162W        W 2323  12.614  15.747   1.233
37163W        W 2324  13.424  23.353   2.453
37164W        W 2325  36.042   6.388   2.700
37165W        W 2326  29.525   8.105   1.994
37166W        W 2327  36.819  10.929   4.478
37167W        W 2328  31.986  37.509   3.938
37168W        W 2329  32.407  34.815  10.555
37169W        W 2330  12.832  25.119  14.835
37170W        W 2331  24.424  16.139   0.329
37171W        W 2332  33.850   6.219  13.494
37172W        W 2333  16.256  44.835   2.042
37173W        W 2334  44.470  23.973   0.248
37174W        W 2335  24.516   0.866  13.349
37175W        W 2336  32.210  22.506   4.774
37176W        W 2337  41.871  13.764  11.974
37177W        W 2338  21.054  42.756  11.425
37178W        W 2339  25.067   2.457   0.945
37179W        W 2340  29.391  35.566  11.144
37180W        W 2341  39.571  29.168  13.781
37181W        W 2342   3.287   8.681   4.985
37182W        W 2343  43.740  43.550  12.365
37183W        W 2344  12.280  12.189  13.440
37184W        W 2345   4.641  23.365  13.915
37185W        W 2346   1.985  24.684  14.676
37186W        W 2347  11.197  41.570   1.304
37187W        W 2348  33.449   5.000   4.199
37188W        W 2349  26.927   9.267   0.766
37189W        W 2350  26.347  34.893   2.196
37190W        W 2351  37.082  17.000  14.877
37191W        W 2352  25.976   0.650   0.583
37192W        W 2353  15.026  31.058  14.871
37193W        W 2354  32.737   1.598  13.835
37194W        W 2355  14.411  44.853   4.640
37195W        W 2356   1.352  28.681   4.350
37196W        W 2357  41.052  38.146   1.015
37197W        W 2358  34.838   6.921   4.310
37198W        W 2359  38.081  42.308  10.513
37199W        W 2360  32.829  20.711   2.220
37200W        W 2361  42.304   3.918  11.928
37201W        W 2362  37.437  43.290   0.932
37202W        W 2363  26.979   6.377  14.128
37203W        W 2364  32.446  32.628   3.807
37204W        W 2365  14.330   0.920   1.393
37205W        W 2366   6.950  31.842  13.517
37206W        W 2367  42.587  33.391   1.727
37207W        W 2368   8.795  18.582   3.439
37208W        W 2369   5.030   1.403  14.793
37209W        W 2370  21.995   0.443  13.402
37210W        W 2371  36.282  17.619  10.892
37211W        W 2372  14.055  31.633   1.565
37212W        W 2373  12.648   2.886  11.553
37213W        W 2374  19.512  30.230   3.342
37214W        W 2375  40.961  40.074   4.632
37215W        W 2376  15.848  10.826   1.519
37216W        W 2377   7.798  26.736  14.702
37217W        W 2378   9.060  20.743  12.001
37218W        W 2379  21.960  29.119  12.590
37219W        W 2380   9.420  26.438   3.241
37220W        W 2381  16.547   1.595   2.349
37221W        W 2382   1.351   9.399   0.867
37222W        W 2383  11.773  11.786   0.358
37223W        W 2384   9.937   2.707  10.894
37224W        W 2385  39.979  13.876  13.585
37225W        W 2386  16.716  37.187  11.889
37226W        W 2387  11.030  25.213  14.309
37227W        W 2388  44.169  29.016  11.104
37228W        W 2389  26.975   5.950   2.822
37229W        W 2390  19.022  44.762   3.729
37230W        W 2391  36.570  15.478   4.959
37231W        W 2392   2.295  36.930   0.434
37232W        W 2393  13.373   0.971   2.197
37233W        W 2394   1.566  12.864  14.345
37234W        W 2395   2.885  34.708  12.962
37235W        W 2396   1.316  29.571   0.303
37236W        W 2397  34.871   7.071  13.785
37237W        W 2398  11.020  36.425   2.676
37238W        W 2399  14.582   4.565  14.874
37239W        W 2400   2.814  27.948   0.715
37240W        W 2401   9.228   7.163   3.818
37241W        W 2402  37.914  31.114  13.423
37242W        W 2403  23.094   1.919   2.154
37243W        W 2404  14.920  44.010   2.439
37244W        W 2405   0.760  17.860   2.671
37245W        W 2406  33.001   1.279   3.655
37246W        W 2407   5.243  20.148   0.550
37247W        W 2408   7.061  39.986  13.862
37248W        W 2409   2.047   7.077   2.319
37249W        W 2410  35.303   3.251  14.695
37250W        W 2411  33.125  44.525   2.765
37251W        W 2412  11.313  42.729  13.312
37252W        W 2413  10.786  20.752  10.431
37253W        W 2414  26.503  37.830   3.297
37254W        W 2415  30.490  18.711  11.610
37255W        W 2416   9.588  10.293  13.063
37256W        W 2417  10.463   6.939   0.961
37257W        W 2418  42.058  35.224   4.085
37258W        W 2419  10.407  30.746   3.245
37259W        W 2420  30.668  33.564  13.363
37260W        W 2421  30.940   3.674  12.248
37261W        W 2422   0.397   4.316   1.381
37262W        W 2423  13.213  37.548   3.253
37263W        W 2424   3.189  29.658   3.302
37264W        W 2425  34.414  42.712   2.752
37265W        W 2426  34.024  19.834  10.566
37266W        W 2427  11.897  28.111   4.017
37267W        W 2428   8.695   9.716  10.796
37268W        W 2429  32.877  43.472   4.482
37269W        W 2430  28.554  43.313   1.256
37270W        W 2431  12.095  12.368  11.522
37271W        W 2432  35.048  23.152   0.491
37272W        W 2433   0.380  25.485  13.418
37273W        W 2434  16.961  15.622  11.646
37274W        W 2435  44.360   6.160  10.494
37275W        W 2436   4.721  31.489  12.176
37276W        W 2437  26.191   4.717   0.169
37277W        W 2438  28.256  40.091  13.978
37278W        W 2439  21.232  17.005   2.365
37279W        W 2440   1.507  28.142  11.609
37280W        W 2441  26.594  11.616  12.754
37281W        W 2442  18.281  18.705  10.903
37282W        W 2443  36.550  22.248  10.455
37283W        W 2444  23.678  12.996  13.546
37284W        W 2445  18.352   6.462   0.364
37285W        W 2446  37.558  28.710  14.988
37286W        W 2447  37.412  42.509  11.571
37287W        W 2448  43.416  42.080   4.550
37288W        W 2449  37.159   0.000   4.475
37289W        W 2450  26.859   4.840  12.926
37290W        W 2451   0.349  12.466  13.955
37291W        W 2452  14.807  42.527   0.057
37292W        W 2453  11.963  19.752   1.831
37293W        W 2454  36.653  41.563  13.795
37294W        W 2455  37.012  33.594  11.739
37295W        W 2456  10.717  32.524  14.912
37296W        W 2457  34.814  28.235  12.521
37297W        W 2458  19.072  28.481   3.710
37298W        W 2459  26.046  37.246   4.999
37299W        W 2460  18.259  38.574   3.786
37300W        W 2461   9.839  12.134  13.545
37301W        W 2462  37.363  17.172  14.443
37302W        W 2463  16.658  18.741   1.673
37303W        W 2464  34.844  21.820  13.178
37304W        W 2465  35.441  18.251  12.632
37305W        W 2466   3.227  21.094   4.528
37306W        W 2467  27.389   7.811   4.303
37307W        W 2468  24.523  37.625   2.318
37308W        W 2469   1.926  37.389   5.053
37309W        W 2470  35.394  40.407   0.289
37310W        W 2471  41.721  28.610  10.721
37311W        W 2472  17.239  42.834  10.500
37312W        W 2473   8.009   5.910   2.514
37313W        W 2474  16.799  29.813  11.065
37314W        W 2475  36.062  22.978  12.059
37315W        W 2476  16.573  27.598   3.261
37316W        W 2477   9.809   6.435  11.947
37317W        W 2478   0.309  31.734   3.267
37318W        W 2479  11.933   2.338  13.458
37319W        W 2480  18.901  36.960  12.010
37320W        W 2481  38.669  20.130  11.931
37321W        W 2482   6.189  12.297  14.682
37322W        W 2483  43.992  42.068  13.875
37323W        W 2484   8.229  10.533   3.283
37324W        W 2485  36.885   8.500  14.017
37325W        W 2486  44.360   2.336   3.001
37326W        W 2487  22.784   0.919  12.643
37327W        W 2488   3.225  14.531   1.421
37328W        W 2489  22.337  36.997   0.737
37329W        W 2490  28.112  36.266  10.413
37330W        W 2491  26.278  33.121   3.647
37331W        W 2492  10.728  33.961   1.441
37332W        W 2493   5.827  40.791   0.191
37333W        W 2494  35.325  17.376  11.589
37334W        W 2495  30.684  32.951   2.307
37335W        W 2496  14.795  29.236  12.865
37336W        W 2497  11.670  41.952  13.940
37337W        W 2498   6.462  23.652   3.230
37338W        W 2499   6.162  16.488  13.314
37339W        W 2500  34.151  16.093   1.711
37340W        W 2501  11.366  38.791  12.475
37341W        W 2502   2.411  14.308   1.217
37342W        W 2503   5.938  29.479  10.700
37343W        W 2504  29.165   3.680   0.748
37344W        W 2505  42.195  14.772  11.926
37345W        W 2506  37.573  34.788   4.934
37346W        W 2507  15.586   6.731  12.118
37347W        W 2508  11.046  13.797  11.019
37348W        W 2509  21.263  13.616  14.726
37349W        W 2510  18.125  44.430   3.182
37350W        W 2511   7.851  10.421  14.536
37351W        W 2512  42.441  32.951   2.027
37352W        W 2513  18.351   0.168  11.612
37353W        W 2514  36.496  23.094  14.874
37354W        W 2515   5.765   5.408  14.474
37355W        W 2516  20.788  27.605   1.236
37356W        W 2517  15.393  12.145  12.462
37357W        W 2518   3.853  21.267   2.574
37358W        W 2519  26.870  29.531  13.408
37359W        W 2520  40.589  19.205   2.866
37360W        W 2521  39.836   5.715   4.310
37361W        W 2522  12.390  38.068  14.989
37362W        W 2523  19.603   0.775   0.449
37363W        W 2524  40.954  22.713   0.086
37364W        W 2525  43.827  37.574   0.058
37365W        W 2526  14.245  43.393   2.369
37366W        W 2527  40.868  23.022   1.981
37367W        W 2528  35.632   4.996   4.928
37368W        W 2529   5.012  28.944   2.735
37369W        W 2530   8.788  19.710   4.619
37370W        W 2531  13.707  27.706   0.778
37371W        W 2532  36.864  19.085   2.915
37372W        W 2533  35.157  11.889  11.653
37373W        W 2534  31.381  37.344   0.321
37374W        W 2535   8.311  29.644  11.857
37375W        W 2536  19.076   6.608  14.364
37376W        W 2537  11.186   6.356   0.431
37377W        W 2538  24.287   3.861   2.357
37378W        W 2539  44.571  42.717   3.225
37379W        W 2540   1.550  36.389   3.721
37380W        W 2541  38.216  41.742  14.344
37381W        W 2542  18.581  15.770   2.271
37382W        W 2543  42.842  44.887   1.106
37383W        W 2544  21.292  19.973  13.095
37384W        W 2545   0.874  19.742   0.170
37385W        W 2546   8.088  32.128  13.073
37386W        W 2547  24.807   4.195   0.973
37387W        W 2548   2.437  29.475  11.206
37388W        W 2549  21.480   7.676  14.013
37389W        W 2550  37.936   7.760  10.628
37390W        W 2551  17.493   7.788  12.506
37391W        W 2552  22.987  35.381  12.330
37392W        W 2553  15.066  39.168  12.027
37393W        W 2554  12.614  19.650   0.334
37394W        W 2555  43.447  23.659   2.747
37395W        W 2556  23.835  16.269   4.574
37396W        W 2557  38.563  19.186   3.580
37397W        W 2558  28.618   4.608  10.951
37398W        W 2559  21.732  42.568   1.871
37399W        W 2560   0.563  14.696  14.920
37400W        W 2561  23.556  28.665  14.069
37401W        W 2562   7.975  26.654  13.722
37402W        W 2563  36.490  27.743  11.705
37403W        W 2564   2.799   2.370  14.915
37404W        W 2565  29.103  40.454  10.355
37405W        W 2566  34.179  13.237  14.325
37406W        W 2567  27.128  37.036   3.477
37407W        W 2568  18.544   7.279   4.482
37408W        W 2569  44.765   1.764  10.313
37409W        W 2570  19.293  19.233  13.370
37410W        W 2571   6.327  34.912   2.425
37411W        W 2572  34.806  11.041   1.698
37412W        W 2573  20.211   7.552  12.000
37413W        W 2574  14.283  27.184   2.775
37414W        W 2575   5.128  34.893  13.081
37415W        W 2576  23.780  35.131   0.522
37416W        W 2577  27.173  32.477   3.285
37417W        W 2578  24.665  30.658  11.428
37418W        W 2579   6.854  39.191  12.230
37419W        W 2580  30.442  43.286   1.825
37420W        W 2581  32.994  18.012  11.152
37421W        W 2582   7.960   5.683  13.155
37422W        W 2583  19.937  29.983  12.273
37423W        W 2584  18.643  20.316   1.819
37424W        W 2585  39.905   7.880   2.840
37425W        W 2586  18.263   0.524  11.259
37426W        W 2587  19.843  40.033   3.660
37427W        W 2588   6.871  39.596   2.854
37428W        W 2589  21.581  16.275   5.463
37429W        W 2590  37.861  34.951   0.353
37430W        W 2591  13.345  26.165  12.073
37431W        W 2592   6.392  32.946  13.810
37432W        W 2593  11.745  14.418  12.257
37433W        W 2594   3.532  41.479  12.955
37434W        W 2595  23.141   9.164  10.582
37435W        W 2596  13.315  39.471   3.674
37436W        W 2597  26.666  39.290   1.233
37437W        W 2598   7.275  13.270  13.897
37438W        W 2599   8.598  21.497  11.180
37439W        W 2600   6.409  25.035   4.104
37440W        W 2601   9.165  26.522  14.378
37441W        W 2602  14.716  29.715   2.307
37442W        W 2603   1.924  32.100  13.071
37443W        W 2604  30.420  25.501   4.502
37444W        W 2605  26.949  26.174  14.230
37445W        W 2606  29.000  11.424  12.021
37446W        W 2607  13.649  13.138   1.743
37447W        W 2608  20.010  16.194   0.243
37448W        W 2609  12.702  29.912  14.522
37449W        W 2610  26.105  15.611  12.912
37450W        W 2611  10.329   4.731   0.277
37451W        W 2612  17.890   7.231   0.256
37452W        W 2613   5.225   8.756   1.750
37453W        W 2614  43.436   5.846   0.474
37454W        W 2615   2.245  38.776  13.668
37455W        W 2616  24.053  22.526  14.771
37456W        W 2617   7.799  35.250  14.508
37457W        W 2618  44.641  29.197  11.095
37458W        W 2619  43.971  31.010   4.379
37459W        W 2620  25.820  15.086  14.044
37460W        W 2621  25.237   6.396  12.428
37461W        W 2622   1.048   0.517   3.330
37462W        W 2623  10.041  24.870  11.488
37463W        W 2624  14.035  44.751   3.665
37464W        W 2625  16.655   6.977   2.216
37465W        W 2626  12.172  25.760  10.941
37466W        W 2627  23.122  21.245   1.471
37467W        W 2628  14.901  30.477   9.891
37468W        W 2629  26.775  15.742   3.328
37469W        W 2630  33.293   0.952   2.326
37470W        W 2631  33.521   5.014   0.995
37471W        W 2632  10.194  22.683   0.873
37472W        W 2633  13.073   8.651  11.148
37473W        W 2634  38.919   8.250   3.679
37474W        W 2635   5.389  20.771   3.325
37475W        W 2636  41.886  38.021  13.912
37476W        W 2637   6.045   3.724   1.718
37477W        W 2638  24.325  12.791   3.033
37478W        W 2639  34.771  41.386   2.786
37479W        W 2640  11.787   8.912  10.568
37480W        W 2641  21.514  42.394  14.490
37481W        W 2642  18.460  40.571   2.269
37482W        W 2643  30.578  18.193   4.641
37483W        W 2644   5.760  39.871   0.947
37484W        W 2645  11.858  11.001   4.565
37485W        W 2646  35.544  25.027  13.065
37486W        W 2647  20.026  28.217  10.691
37487W        W 2648   4.709  38.493  12.646
37488W        W 2649   5.416   3.136   5.168
37489W        W 2650  19.023  14.675   2.235
37490W        W 2651  43.211  37.855   4.869
37491W        W 2652  39.777  38.969  10.716
37492W        W 2653  43.135  29.692  14.285
37493W        W 2654   5.847  30.685  10.555
37494W        W 2655  16.320  26.261  14.802
37495W        W 2656  37.853   9.417   1.241
37496W        W 2657  44.580   9.152  12.789
37497W        W 2658  37.366  23.374  13.463
37498W        W 2659   7.975  12.232   0.218
37499W        W 2660  14.062  32.863   1.372
37500W        W 2661  22.807  23.159  12.176
37501W        W 2662  36.435   6.299   0.506
37502W        W 2663  23.301   1.167   4.688
37503W        W 2664  25.236  12.922  14.271
37504W        W 2665   9.652  29.629  14.276
37505W        W 2666  14.362   7.386  11.274
37506W        W 2667  36.423  37.853  13.868
37507W        W 2668   9.807  22.628   1.318
37508W        W 2669  34.566  19.602   3.639
37509W        W 2670  23.794   3.629  14.893
37510W        W 2671  28.450  22.938  10.486
37511W        W 2672  33.967  39.019   2.367
37512W        W 2673  25.333  26.886   1.672
37513W        W 2674  18.491  28.207  10.814
37514W        W 2675   0.950  25.600  14.933
37515W        W 2676   2.687  21.199   1.906
37516W        W 2677  39.824  44.075  12.946
37517W        W 2678   6.046  12.855   3.691
37518W        W 2679  42.706  15.701   0.332
37519W        W 2680   3.359   1.991  14.084
37520W        W 2681   2.625  37.465   1.993
37521W        W 2682  16.330  20.993   1.384
37522W        W 2683   7.765  12.767  12.210
37523W        W 2684  44.031  34.468  13.028
37524W        W 2685  39.419  40.783  13.182
37525W        W 2686   8.142  12.903  13.036
37526W        W 2687  21.433  22.727  13.000
37527W        W 2688  36.384  38.893  12.791
37528W        W 2689   9.094  36.341  12.997
37529W        W 2690  17.206  10.337  13.889
37530W        W 2691  22.168  15.148   1.907
37531W        W 2692  44.431  15.720   0.036
37532W        W 2693  24.133  11.573  13.885
37533W        W 2694  42.792   1.313  12.779
37534W        W 2695  44.908  37.478  12.063
37535W        W 2696  44.006  18.700   2.427
37536W        W 2697  15.034   3.541  12.658
37537W        W 2698  10.187  30.159   1.142
37538W        W 2699   5.024  41.065   4.186
37539W        W 2700  15.541   6.948   2.429
37540W        W 2701   1.424  44.954   3.737
37541W        W 2702  34.425   3.519   1.377
37542W        W 2703   9.160  19.744   4.214
37543W        W 2704  40.405   7.347   2.815
37544W        W 2705  35.674  16.027  14.603
37545W        W 2706  41.765  10.182   3.718
37546W        W 2707  33.677   6.255  11.736
37547W        W 2708  18.761  10.440  12.943
37548W        W 2709  15.735  18.755  10.261
37549W        W 2710  41.427  30.084   0.499
37550W        W 2711  28.558  37.023  11.537
37551W        W 2712  15.731   1.286  13.873
37552W        W 2713  20.532  12.630   2.081
37553W        W 2714   3.023  31.170   2.319
37554W        W 2715  26.034  34.009  11.013
37555W        W 2716  39.345  39.528   3.812
37556W        W 2717  10.214  28.211   0.778
37557W        W 2718  40.421  32.425   2.821
37558W        W 2719  36.770   4.344  11.138
37559W        W 2720  33.991   8.153   2.406
37560W        W 2721  15.444   2.476   3.439
37561W        W 2722  37.650  28.239   3.940
37562W        W 2723  36.175  40.084   3.386
37563W        W 2724  38.425  35.454  13.328
37564W        W 2725  29.895  10.567   4.203
37565W        W 2726  28.102  31.305   1.348
37566W        W 2727  20.545   2.390  13.164
37567W        W 2728  36.914   9.613   1.343
37568W        W 2729   9.508  41.445   4.886
37569W        W 2730  15.924  43.356  11.651
37570W        W 2731   7.669  22.107  12.215
37571W        W 2732  21.233  33.531  12.451
37572W        W 2733  21.666  14.503  13.529
37573W        W 2734   8.983  30.013  12.608
37574W        W 2735  14.543   2.061   0.759
37575W        W 2736  44.928  25.760  11.089
37576W        W 2737  22.064  15.765   4.352
37577W        W 2738  25.436   7.316   1.341
37578W        W 2739   4.069   5.364   3.280
37579W        W 2740   2.456  29.407  14.969
37580W        W 2741  32.356  25.680   0.316
37581W        W 2742  23.141  14.131  11.320
37582W        W 2743  28.120  23.351  13.950
37583W        W 2744  12.627  19.131   0.352
37584W        W 2745  24.061  13.777   3.565
37585W        W 2746  20.520  32.429  12.053
37586W        W 2747  19.310   5.467  11.353
37587W        W 2748  20.531  32.656   0.520
37588W        W 2749  26.515   0.716   4.509
37589W        W 2750  29.976  16.957   4.302
37590W        W 2751   7.600  20.790   4.707
37591W        W 2752  42.945   6.804   3.846
37592W        W 2753  37.174  18.083   4.428
37593W        W 2754   8.459  23.583   2.126
37594W        W 2755  17.669  24.604   4.167
37595W        W 2756  17.611  14.047   1.646
37596W        W 2757   0.826  25.523  11.450
37597W        W 2758  15.339  12.522   0.315
37598W        W 2759  23.228   8.279   2.426
37599W        W 2760  41.017   8.228   3.728
37600W        W 2761   6.459  41.427  10.255
37601W        W 2762  27.680  41.449   1.331
37602W        W 2763  13.767  38.052   2.146
37603W        W 2764  37.904  25.800  11.087
37604W        W 2765  31.650   7.014   0.677
37605W        W 2766  23.533   7.060   2.288
37606W        W 2767   2.902  23.278   4.268
37607W        W 2768   0.123  19.653  11.621
37608W        W 2769   9.092   1.492   1.385
37609W        W 2770  28.489  20.229   3.813
37610W        W 2771   1.456  42.730   4.110
37611W        W 2772  14.317  28.549   0.494
37612W        W 2773  39.340   4.984  10.363
37613W        W 2774  35.075   9.279   0.883
37614W        W 2775   6.178   3.528   2.758
37615W        W 2776  43.710  20.474   2.588
37616W        W 2777  32.751  27.630   3.104
37617W        W 2778   9.029  41.365  14.508
37618W        W 2779  10.855   0.447   0.379
37619W        W 2780  34.613   7.845  12.611
37620W        W 2781   0.795  24.278   1.524
37621W        W 2782  18.801  11.662   3.331
37622W        W 2783  38.246   8.065   3.238
37623W        W 2784  12.638  18.160   3.884
37624W        W 2785  40.502  11.974  14.028
37625W        W 2786   1.219  43.745  13.185
37626W        W 2787  35.169  41.009   0.504
37627W        W 2788  12.012  15.035   4.521
37628W        W 2789  34.944   4.564  12.185
37629W        W 2790  13.753  20.604  11.752
37630W        W 2791  19.263  38.603  11.074
37631W        W 2792   9.850  24.612   1.929
37632W        W 2793  40.308  12.838  13.796
37633W        W 2794   1.417  44.698  14.197
37634W        W 2795   2.302  42.314  12.006
37635W        W 2796   1.203  15.787  13.974
37636W        W 2797  37.031   8.871   1.864
37637W        W 2798  33.664  13.170  14.354
37638W        W 2799  36.644   7.036   3.265
37639W        W 2800  18.588  26.612   2.229
37640W        W 2801  22.521   3.259  10.682
37641W        W 2802  30.409  31.792  11.142
37642W        W 2803  23.145  22.257  13.275
37643W        W 2804   6.368  12.554   0.673
37644W        W 2805   8.748  20.518   4.278
37645W        W 2806  44.525  43.782   1.383
37646W        W 2807   5.757  37.873   3.309
37647W        W 2808  21.724   2.630  12.885
37648W        W 2809  35.458   1.748   2.250
37649W        W 2810   8.343  35.814  10.772
37650W        W 2811  42.272  19.779   2.629
37651W        W 2812  15.628  16.536  12.816
37652W        W 2813   8.928  36.740   0.433
37653W        W 2814  41.928  30.916   1.193
37654W        W 2815  43.303  24.685   0.724
37655W        W 2816  17.084   5.838   1.462
37656W        W 2817  20.025   3.961  14.753
37657W        W 2818   9.638  19.832   2.290
37658W        W 2819  24.255  12.185  12.133
37659W        W 2820   1.445  28.760  10.780
37660W        W 2821  39.075  29.937   4.173
37661W        W 2822  17.806  26.492  13.568
37662W        W 2823  19.762  18.211  14.730
37663W        W 2824  44.892   5.928   1.348
37664W        W 2825  33.809  37.842  12.740
37665W        W 2826  38.366   4.172   4.075
37666W        W 2827  11.815  43.016   1.404
37667W        W 2828   5.821   1.949  12.837
37668W        W 2829  17.699  31.607  10.930
37669W        W 2830  36.996  17.594   3.211
37670W        W 2831  20.136  28.541   0.211
37671W        W 2832  11.742   8.626  13.415
37672W        W 2833  42.019  15.760  13.910
37673W        W 2834  12.092  13.270   3.583
37674W        W 2835  21.824  18.715  14.235
37675W        W 2836  18.732   6.963  13.041
37676W        W 2837   7.883   7.112  12.777
37677W        W 2838  41.744  34.907   1.273
37678W        W 2839   9.184  19.415  10.983
37679W        W 2840   0.924  21.858  11.084
37680W        W 2841  30.031  12.728  14.901
37681W        W 2842  14.969  36.972  11.456
37682W        W 2843  33.284  38.031  14.095
37683W        W 2844  44.288  16.861   3.616
37684W        W 2845   7.735  42.219   2.239
37685W        W 2846  25.601   9.141   0.200
37686W        W 2847  19.270  22.568   2.312
37687W        W 2848  29.033  20.747   2.665
37688W        W 2849  42.574  14.798   1.304
37689W        W 2850  42.573  20.705  12.572
37690W        W 2851  37.962   3.342  13.393
37691W        W 2852  14.397  11.963  11.969
37692W        W 2853  43.997  28.976  14.864
37693W        W 2854  37.268  21.219   3.169
37694W        W 2855   1.902  17.745   4.149
37695W        W 2856  12.882  23.474  10.785
37696W        W 2857  25.975  16.475  14.123
37697W        W 2858  40.230  41.656  14.399
37698W        W 2859  40.885  12.869  11.576
37699W        W 2860  37.951  26.022   4.081
37700W        W 2861   8.319  17.729  11.948
37701W        W 2862  15.704  23.207   4.090
37702W        W 2863  20.033  37.860  14.542
37703W        W 2864  42.799  38.537  12.933
37704W        W 2865  14.821  44.532  13.792
37705W        W 2866   8.750   6.478   3.835
37706W        W 2867  44.827  15.911  11.994
37707W        W 2868  30.372  11.227  12.563
37708W        W 2869  29.166  14.069  11.967
37709W        W 2870  20.202  34.471  12.545
37710W        W 2871  37.988  21.261   0.926
37711W        W 2872  36.605  26.539   3.313
37712W        W 2873   4.159  25.931  12.294
37713W        W 2874  17.865  30.674   0.307
37714W        W 2875  16.485  16.344   0.213
37715W        W 2876   8.911  42.319  10.653
37716W        W 2877  28.622  27.195  11.508
37717W        W 2878  37.982   6.898  10.996
37718W        W 2879   1.275   8.446   1.835
37719W        W 2880  12.796   9.537   0.306
37720W        W 2881   5.321  29.598  10.289
37721W        W 2882  12.764   3.799  14.882
37722W        W 2883  20.440  13.726   0.236
37723W        W 2884  32.180  39.945  13.856
37724W        W 2885  10.337  11.021   3.478
37725W        W 2886  27.075  22.003   9.724
37726W        W 2887  28.329  32.935   3.619
37727W        W 2888  42.556  32.158   0.319
37728W        W 2889  41.021  30.063   2.899
37729W        W 2890   6.668  35.145  10.759
37730W        W 2891  36.749  34.597   2.139
37731W        W 2892  34.504  32.249  14.848
37732W        W 2893   5.837  43.310   2.212
37733W        W 2894  35.543  17.118  13.032
37734W        W 2895   6.445  13.292   4.371
37735W        W 2896  37.825  25.449   2.281
37736W        W 2897   6.470  36.340   2.646
37737W        W 2898  15.454   3.853  14.355
37738W        W 2899   0.463  33.014  14.426
37739W        W 2900  32.704   9.185  13.422
37740W        W 2901  38.058  17.366   1.047
37741W        W 2902  31.932  14.331  11.533
37742W        W 2903  16.820  35.580   4.141
37743W        W 2904  11.668   1.265   3.229
37744W        W 2905  44.504  15.062  11.192
37745W        W 2906  10.160  39.452   3.284
37746W        W 2907   8.883   3.721   0.738
37747W        W 2908  18.555  20.611   2.753
37748W        W 2909  23.458   3.188   4.696
37749W        W 2910  20.729  37.028  12.636
37750W        W 2911  24.052  39.821  14.011
37751W        W 2912  35.063  33.585  14.822
37752W        W 2913   9.101  27.529   2.296
37753W        W 2914  35.854  42.000  13.908
37754W        W 2915  15.683  36.252   3.486
37755W        W 2916  14.810  30.391  13.610
37756W        W 2917  26.483   1.852  14.420
37757W        W 2918  11.229  22.881  12.452
37758W        W 2919   8.395  40.441  11.054
37759W        W 2920  43.920   1.967   1.639
37760W        W 2921  12.070   4.455   0.332
37761W        W 2922  18.718   0.542  13.577
37762W        W 2923  37.413  40.472   1.733
37763W        W 2924   1.828  37.020  11.576
37764W        W 2925  12.158  26.234  10.707
37765W        W 2926  27.975  32.943  13.822
37766W        W 2927  27.187  41.431   1.156
37767W        W 2928  26.655  17.753  14.438
37768W        W 2929  29.135  22.959  12.047
37769W        W 2930  29.914  30.216   4.070
37770W        W 2931   7.330  12.606   1.886
37771W        W 2932  21.917  17.568   1.497
37772W        W 2933   0.720  27.924   5.164
37773W        W 2934  38.997  30.386   4.393
37774W        W 2935  41.476  10.322   4.588
37775W        W 2936  42.359  20.288  12.357
37776W        W 2937  23.720  40.340   0.367
37777W        W 2938  10.773  35.055   2.770
37778W        W 2939  15.289  20.142  14.775
37779W        W 2940  14.814  37.153   9.679
37780W        W 2941  25.037  38.291  13.584
37781W        W 2942  28.942  31.077  12.437
37782W        W 2943  36.212  38.524  10.344
37783W        W 2944  37.585  25.423  13.837
37784W        W 2945  24.878  36.029  12.355
37785W        W 2946  22.501  37.911  14.896
37786W        W 2947  33.674   8.240   3.382
37787W        W 2948  11.378  18.736   2.093
37788W        W 2949  32.742  42.488   0.456
37789W        W 2950   0.820  17.753  13.070
37790W        W 2951  20.006  30.394   0.322
37791W        W 2952  14.351  36.653  11.148
37792W        W 2953  30.397   1.470  13.071
37793W        W 2954  12.662  12.660   4.061
37794W        W 2955  24.228  35.671   4.321
37795W        W 2956  21.729  16.817  14.057
37796W        W 2957  28.671  21.798  14.801
37797W        W 2958  33.218   6.850   1.758
37798W        W 2959  32.824  35.644  13.118
37799W        W 2960  44.681  15.587  12.833
37800W        W 2961  41.356  44.365   1.333
37801W        W 2962  36.000  22.782   5.092
37802W        W 2963  35.859  30.518   4.253
37803W        W 2964  10.795  23.964  12.067
37804W        W 2965  32.336   8.794   1.801
37805W        W 2966  44.839   7.109  13.474
37806W        W 2967  35.075  40.569   2.437
37807W        W 2968  43.859  33.578   4.657
37808W        W 2969  18.120   6.118  11.821
37809W        W 2970  36.920  19.164  11.828
37810W        W 2971  26.235  20.976  11.535
37811W        W 2972  40.927   6.883  14.658
37812W        W 2973  35.290  23.712  12.807
37813W        W 2974   7.548  29.692  12.372
37814W        W 2975  35.086  16.645   4.226
37815W        W 2976  38.138  19.986  11.101
37816W        W 2977  15.240  32.119   3.241
37817W        W 2978  12.350  43.047  13.398
37818W        W 2979   8.365  38.095   0.785
37819W        W 2980  34.439  21.308  11.205
37820W        W 2981  15.683   1.523  10.415
37821W        W 2982  12.721  42.432   3.118
37822W        W 2983  36.862   4.755   3.534
37823W        W 2984  40.422   5.366   3.157
37824W        W 2985   0.233  16.619  12.291
37825W        W 2986  35.080  34.418  14.206
37826W        W 2987  25.461   1.725   2.635
37827W        W 2988  44.510  30.421  11.828
37828W        W 2989  31.905  19.759   2.267
37829W        W 2990  38.786  24.291   1.269
37830W        W 2991  11.397  42.810  14.192
37831W        W 2992  40.829  21.172   4.729
37832W        W 2993   1.529  38.958  12.729
37833W        W 2994   1.478  12.398   3.574
37834W        W 2995  23.494  43.895  14.035
37835W        W 2996  41.835  20.060   2.915
37836W        W 2997  34.472   0.175   0.316
37837W        W 2998  14.013  44.499  10.218
37838W        W 2999  32.443  36.358  10.703
37839W        W 3000  15.247  30.120   4.836
37840W        W 3001  20.998  15.938  11.876
37841W        W 3002  13.302   0.915  12.048
37842W        W 3003   4.828   6.498   4.020
37843W        W 3004  44.506  28.730   3.187
37844W        W 3005  17.117  22.334  14.997
37845W        W 3006   7.360  30.846   1.290
37846W        W 3007  39.453  33.964   0.748
37847W        W 3008  33.491   8.133  10.719
37848W        W 3009  11.708  30.686   4.224
37849W        W 3010  18.155   5.156   4.133
37850W        W 3011  37.848   4.650  13.905
37851W        W 3012  28.194  21.050  13.063
37852W        W 3013  22.645  42.139  13.965
37853W        W 3014  17.625  27.751   4.025
37854W        W 3015   0.981  26.697  11.994
37855W        W 3016  23.631  29.629   1.156
37856W        W 3017  17.704  38.990   2.827
37857W        W 3018  35.046  37.570   2.780
37858W        W 3019  27.862  11.344   0.627
37859W        W 3020  33.537  21.105  14.022
37860W        W 3021  38.752  11.529  13.560
37861W        W 3022  16.634  20.149   3.141
37862W        W 3023  42.204   5.872  11.702
37863W        W 3024  33.696  30.225  13.498
37864W        W 3025  24.591   5.861  11.998
37865W        W 3026  28.114  39.107   4.546
37866W        W 3027  37.252  20.004  14.834
37867W        W 3028  33.977  37.984  11.729
37868W        W 3029   9.843  14.461   2.703
37869W        W 3030  34.332   7.165   1.325
37870W        W 3031  27.646  13.213   4.040
37871W        W 3032   6.047  27.515  11.537
37872W        W 3033  21.795  36.982  14.902
37873W        W 3034  16.195  37.477  12.956
37874W        W 3035  27.414  23.364   1.981
37875W        W 3036  30.853  24.970  13.968
37876W        W 3037  38.126  14.016  10.184
37877W        W 3038  19.672  12.133   4.201
37878W        W 3039  35.372  41.003  12.497
37879W        W 3040  34.380  40.301  12.539
37880W        W 3041  38.952  21.797   1.379
37881W        W 3042  23.123   5.441   0.476
37882W        W 3043  20.163   1.963   3.707
37883W        W 3044  13.122  31.983   0.264
37884W        W 3045  11.747   6.284  14.596
37885W        W 3046  38.926  17.841   1.429
37886W        W 3047  17.141   7.041   1.738
37887W        W 3048  43.938  17.678   4.930
37888W        W 3049  33.893  26.214   1.753
37889W        W 3050   6.867  37.504   1.205
37890W        W 3051  15.191   0.307   3.138
37891W        W 3052  33.243  35.115   0.438
37892W        W 3053  44.312   6.953  13.683
37893W        W 3054  27.761   8.274   1.285
37894W        W 3055  24.017  18.952   0.266
37895W        W 3056  21.098  37.274   5.286
37896W        W 3057  17.925  23.227   4.398
37897W        W 3058  12.232  19.546  13.587
37898W        W 3059   1.517  25.064   4.264
37899W        W 3060  43.750  15.315   1.860
37900W        W 3061  34.293  16.514  12.957
37901W        W 3062  30.693  25.258   4.059
37902W        W 3063  29.050  37.342   3.966
37903W        W 3064  27.524  19.566   2.254
37904W        W 3065  17.655  40.377   0.952
37905W        W 3066  15.607   7.182  13.442
37906W        W 3067  33.169  38.886  14.008
37907W        W 3068  29.376  43.816  14.794
37908W        W 3069  32.396   1.352  14.149
37909W        W 3070  39.438  11.178  12.512
37910W        W 3071   0.782  15.549  12.125
37911W        W 3072  25.741  37.565  11.993
37912W        W 3073  15.160  40.720  12.748
37913W        W 3074  16.202  38.532   9.848
37914W        W 3075  23.359   4.110   2.614
37915W        W 3076  24.807  24.564  14.526
37916W        W 3077  11.190  14.589  11.207
37917W        W 3078  15.888  43.308   2.295
37918W        W 3079  29.269  18.023  13.306
37919W        W 3080  13.696   2.856   4.347
37920W        W 3081  26.464   8.646  14.395
37921W        W 3082  33.073  14.617   1.715
37922W        W 3083   3.572  13.265  11.916
37923W        W 3084   2.388  32.188  14.476
37924W        W 3085  43.312   3.364   4.880
37925W        W 3086  26.539  24.631  14.597
37926W        W 3087  15.284  21.564  11.674
37927W        W 3088  16.121  16.816  11.969
37928W        W 3089  44.771  28.358   2.931
37929W        W 3090  16.286   0.894  10.701
37930W        W 3091  43.499  14.592  14.296
37931W        W 3092  10.938  31.684  13.064
37932W        W 3093  26.710  11.835  13.669
37933W        W 3094  24.795   6.298   4.531
37934W        W 3095   2.875  11.254  12.386
37935W        W 3096  27.701  40.304   4.096
37936W        W 3097  21.125  29.543  13.103
37937W        W 3098  10.388  18.310  13.098
37938W        W 3099  24.456  23.737   2.266
37939W        W 3100  33.425  12.549   4.587
37940W        W 3101  21.807  37.069  13.525
37941W        W 3102  19.056  26.756  12.986
37942W        W 3103  42.707  28.870  12.559
37943W        W 3104  30.713  38.891   0.687
37944W        W 3105   4.296  32.658   4.472
37945W        W 3106  38.104   7.235   2.761
37946W        W 3107  31.053   7.394   5.119
37947W        W 3108  27.698  36.498  14.264
37948W        W 3109  19.271  21.526  12.748
37949W        W 3110   7.749   3.834   2.665
37950W        W 3111  12.211   8.641   2.196
37951W        W 3112  11.257  40.290  12.758
37952W        W 3113  38.442  36.439  14.295
37953W        W 3114  28.140  13.603   1.466
37954W        W 3115  34.511  32.830  14.409
37955W        W 3116   3.201  23.966  14.410
37956W        W 3117   5.014  25.078  11.656
37957W        W 3118  33.495  12.077   1.758
37958W        W 3119  40.578  37.204  10.225
37959W        W 3120  39.471   1.277   3.235
37960W        W 3121  43.928   1.248  12.427
37961W        W 3122  24.726  42.477   3.659
37962W        W 3123   1.173  30.109   4.436
37963W        W 3124  34.822  19.783  14.412
37964W        W 3125  17.050   8.820  10.446
37965W        W 3126  31.653  36.449   0.429
37966W        W 3127  36.161   2.690   4.382
37967W        W 3128  12.424  35.916   2.853
37968W        W 3129  12.846   3.568   2.274
37969W        W 3130  17.072  39.370   1.320
37970W        W 3131  36.438  14.293   1.938
37971W        W 3132   2.314   6.930  14.826
37972W        W 3133   2.634  25.137   3.536
37973W        W 3134  14.062  38.740  10.731
37974W        W 3135  19.102  27.231   2.693
37975W        W 3136  38.610  36.904   3.526
37976W        W 3137  16.263  41.331  11.571
37977W        W 3138  36.875  19.098  10.460
37978W        W 3139   9.630  30.858   4.814
37979W        W 3140  18.568  38.995   1.172
37980W        W 3141  26.988  26.676   3.848
37981W        W 3142  19.474  16.732  12.896
37982W        W 3143   9.722  38.243  14.074
37983W        W 3144  19.211  33.141  14.066
37984W        W 3145   9.801  32.268   4.149
37985W        W 3146  17.226  34.158  14.758
37986W        W 3147  16.071  22.701  13.542
37987W        W 3148  26.055  27.201  13.017
37988W        W 3149  29.637   2.875   2.308
37989W        W 3150  24.736   2.543   3.248
37990W        W 3151   5.370  13.663   3.734
37991W        W 3152  33.966  14.304   2.012
37992W        W 3153  41.635  12.210   0.308
37993W        W 3154  27.483  10.862   9.911
37994W        W 3155  33.558   2.220  10.648
37995W        W 3156   4.136  23.635   4.444
37996W        W 3157  22.265  36.947   1.799
37997W        W 3158  43.013  25.700  12.898
37998W        W 3159  23.556  10.777  11.399
37999W        W 3160  25.064  19.897  11.211
38000W        W 3161   4.186   3.280  11.567
38001W        W 3162  35.011  13.340   4.260
38002W        W 3163  18.525  13.403   0.036
38003W        W 3164  43.369  44.803  11.653
38004W        W 3165  22.511  41.055   0.924
38005W        W 3166  41.008   3.502   3.265
38006W        W 3167  29.467  18.754  11.526
38007W        W 3168   3.383  18.733   2.286
38008W        W 3169   7.846  44.231   3.085
38009W        W 3170  20.074  17.906   4.397
38010W        W 3171  12.562  15.341   2.170
38011W        W 3172  16.543  38.423   1.915
38012W        W 3173   6.194  27.436  13.036
38013W        W 3174  42.717   8.010   4.880
38014W        W 3175  22.095  44.684  13.818
38015W        W 3176  15.229   2.179   3.789
38016W        W 3177  36.107  15.634   5.039
38017W        W 3178  10.783  30.867  12.182
38018W        W 3179  32.532   7.755   3.196
38019W        W 3180  20.508  43.841  13.574
38020W        W 3181  35.207  20.128   1.404
38021W        W 3182  44.094  12.599   3.713
38022W        W 3183  27.490  24.103   3.963
38023W        W 3184   7.814  39.631   0.420
38024W        W 3185  28.161  25.945   3.755
38025W        W 3186  28.177   6.627   4.127
38026W        W 3187  10.358   4.784  11.164
38027W        W 3188  13.986   7.903  11.235
38028W        W 3189  11.223  19.100   4.512
38029W        W 3190  11.322  11.734  14.666
38030W        W 3191  31.227  43.814   0.331
38031W        W 3192  22.486  30.214  12.563
38032W        W 3193  25.699  28.918  14.534
38033W        W 3194  27.849  33.550   0.984
38034W        W 3195  29.071  38.572  11.977
38035W        W 3196  20.335  40.202   1.984
38036W        W 3197   1.045   0.267   4.640
38037W        W 3198  18.769  36.450   0.045
38038W        W 3199  26.076  29.042   4.236
38039W        W 3200   4.834   7.456   1.995
38040W        W 3201  16.209  19.077  12.933
38041W        W 3202  41.261  28.272  14.358
38042W        W 3203  13.720  43.310  12.292
38043W        W 3204  43.983   2.557  14.845
38044W        W 3205   3.856  27.191  14.608
38045W        W 3206   5.298  14.601  14.209
38046W        W 3207  17.037  37.457  13.603
38047W        W 3208  23.621  42.400  10.786
38048W        W 3209  38.059  38.012   0.386
38049W        W 3210   6.086  10.415  10.359
38050W        W 3211  43.578  10.302  13.347
38051W        W 3212  40.231  26.054  10.673
38052W        W 3213   1.395  36.856  11.827
38053W        W 3214  39.082  27.391   4.697
38054W        W 3215  13.562   2.393   2.874
38055W        W 3216  11.675  28.665   3.213
38056W        W 3217  16.341   1.803   4.228
38057W        W 3218  14.823  43.520   3.736
38058W        W 3219  43.812  29.379  11.118
38059W        W 3220  39.500  33.589  13.539
38060W        W 3221  26.096  29.687   1.872
38061W        W 3222  22.509   0.991   1.366
38062W        W 3223  33.734  39.149   3.713
38063W        W 3224   5.878  10.803  14.054
38064W        W 3225  29.802  24.890  11.729
38065W        W 3226  25.211  36.464  12.259
38066W        W 3227  33.176  16.041   1.832
38067W        W 3228  38.090   6.391   0.239
38068W        W 3229  15.633  30.229  12.914
38069W        W 3230   5.451  11.747   4.160
38070W        W 3231  37.499  39.281   3.122
38071W        W 3232  16.868  15.237  12.970
38072W        W 3233   6.199  14.857   0.327
38073W        W 3234   3.670  33.381   1.145
38074W        W 3235  29.719  43.985   0.474
38075W        W 3236  30.523  37.406  11.209
38076W        W 3237  22.119   0.888   0.330
38077W        W 3238  21.928  29.037  14.978
38078W        W 3239  28.436  32.531  14.358
38079W        W 3240  20.224  11.345   0.241
38080W        W 3241  18.156   6.804   1.161
38081W        W 3242  23.585   3.761  13.402
38082W        W 3243  16.631  37.923   4.500
38083W        W 3244  18.904  37.835  11.932
38084W        W 3245   6.415   4.292   3.113
38085W        W 3246  26.584  26.524  11.085
38086W        W 3247  19.508   1.692   2.532
38087W        W 3248  38.553  20.940  11.475
38088W        W 3249  36.094   3.445   3.131
38089W        W 3250  40.938   5.929   1.808
38090W        W 3251  34.918  41.218   1.006
38091W        W 3252   1.455  41.012  14.496
38092W        W 3253  15.153  14.238  12.451
38093W        W 3254  27.642  40.288  13.174
38094W        W 3255  36.945  33.367  12.192
38095W        W 3256  38.488  42.892   4.438
38096W        W 3257   1.164  38.249  11.284
38097W        W 3258  44.981  35.336  12.500
38098W        W 3259   7.151  14.267   1.801
38099W        W 3260  22.571  32.443   2.291
38100W        W 3261  20.340  20.086  12.628
38101W        W 3262  30.900  20.839  12.216
38102W        W 3263   2.563  22.719   3.749
38103W        W 3264  12.174  18.551  10.655
38104W        W 3265  13.261  18.137  10.698
38105W        W 3266   4.842  12.872  12.685
38106W        W 3267  14.814  14.851  11.107
38107W        W 3268  42.462  37.570  12.507
38108W        W 3269   8.622   6.311  10.735
38109W        W 3270  44.443   1.917   2.181
38110W        W 3271   2.722  33.183   0.242
38111W        W 3272  24.100  41.414   4.061
38112W        W 3273  24.826  16.814   4.053
38113W        W 3274   8.508   3.897  14.291
38114W        W 3275  17.313  34.821  10.786
38115W        W 3276  43.810   6.767  13.666
38116W        W 3277  33.521   5.292   1.433
38117W        W 3278  13.447   8.142  13.577
38118W        W 3279  44.763  15.045  13.015
38119W        W 3280  10.779  12.535  10.819
38120W        W 3281  38.319  37.474  13.364
38121W        W 3282  19.031  43.304   0.459
38122W        W 3283  27.107   9.833   0.782
38123W        W 3284  41.089  35.301  11.582
38124W        W 3285  27.984  38.840  12.620
38125W        W 3286  22.795  20.724  10.756
38126W        W 3287  34.327  44.958  14.465
38127W        W 3288  36.086  31.440   0.272
38128W        W 3289  19.241  33.603  13.771
38129W        W 3290  36.103  15.622  13.007
38130W        W 3291  17.184   6.897  12.448
38131W        W 3292   9.135  15.666   3.302
38132W        W 3293  30.497   9.407   0.928
38133W        W 3294  38.701   9.738  10.012
38134W        W 3295  33.264  34.594   1.186
38135W        W 3296  18.019   9.308   1.209
38136W        W 3297   7.277  14.192   3.565
38137W        W 3298  35.288  39.959   3.085
38138W        W 3299  44.287  42.699   4.435
38139W        W 3300  37.840  30.353   4.529
38140W        W 3301  16.138  19.821   0.888
38141W        W 3302   3.909   1.766   1.633
38142W        W 3303  41.572  20.677   2.302
38143W        W 3304  11.711  21.862   1.384
38144W        W 3305  41.673  12.537  10.331
38145W        W 3306  26.598   3.740   2.653
38146W        W 3307   6.558  34.417   4.568
38147W        W 3308  21.928   0.926   1.695
38148W        W 3309  31.532   7.555  12.649
38149W        W 3310  23.105  37.401   3.573
38150W        W 3311  15.822  40.747  14.252
38151W        W 3312  19.714  22.210   1.463
38152W        W 3313  27.448  23.747  11.060
38153W        W 3314  15.690  32.746  14.047
38154W        W 3315  28.925  40.061   0.518
38155W        W 3316   5.885  12.453   1.398
38156W        W 3317  38.061  33.478   4.402
38157W        W 3318  22.412  21.532   1.266
38158W        W 3319  25.279   1.889   3.881
38159W        W 3320  23.848  22.920  14.079
38160W        W 3321  18.723  10.847   0.844
38161W        W 3322   5.119  19.877  13.403
38162W        W 3323  32.450  42.695  14.175
38163W        W 3324  35.075   1.878  13.428
38164W        W 3325  16.199  19.195   4.737
38165W        W 3326  40.743   3.347  14.603
38166W        W 3327  29.002  22.099   1.038
38167W        W 3328  41.529  22.294  11.525
38168W        W 3329   7.442  13.769   4.494
38169W        W 3330  39.495   6.309   1.243
38170W        W 3331   9.746  17.121   3.730
38171W        W 3332  29.990  41.391  11.468
38172W        W 3333  42.852  35.903   3.385
38173W        W 3334  39.388  13.969  13.322
38174W        W 3335  19.172  29.733  13.453
38175W        W 3336  40.856  10.234  13.871
38176W        W 3337  36.689  22.756   1.872
38177W        W 3338  31.074  19.819  10.916
38178W        W 3339  35.347  38.002   2.721
38179W        W 3340  23.241  28.282   2.146
38180W        W 3341   0.004  43.398  10.510
38181W        W 3342  33.462   4.601   2.920
38182W        W 3343  31.404   1.284  12.001
38183W        W 3344  23.202   6.511  13.217
38184W        W 3345  42.363  41.037   3.230
38185W        W 3346  23.172  24.286  12.913
38186W        W 3347  14.714  17.555  11.024
38187W        W 3348   8.230  24.908  13.411
38188W        W 3349  16.365  36.478  13.602
38189W        W 3350  13.608  38.852   1.321
38190W        W 3351  23.556  22.668  12.648
38191W        W 3352  26.877  31.572  13.940
38192W        W 3353  28.312  19.234  11.119
38193W        W 3354  20.510  13.723  12.409
38194W        W 3355   3.204  20.083  13.510
38195W        W 3356   9.239   1.208  11.421
38196W        W 3357  40.677  21.707  14.810
38197W        W 3358  29.888  16.664  12.012
38198W        W 3359  32.502  42.604   1.815
38199W        W 3360  27.493  32.885  13.568
38200W        W 3361  34.519  32.458   2.788
38201W        W 3362  43.424  14.153  14.579
38202W        W 3363  33.769  13.732  11.576
38203W        W 3364   6.333   2.730   2.168
38204W        W 3365   1.006  32.973  14.375
38205W        W 3366  18.060  25.094  11.484
38206W        W 3367  18.238  37.141  14.432
38207W        W 3368   3.342  19.246  11.288
38208W        W 3369   1.830   8.215  11.925
38209W        W 3370  22.128  18.302  13.365
38210W        W 3371  16.206  32.107   2.242
38211W        W 3372  20.054   2.925  12.408
38212W        W 3373  16.588  15.189   4.528
38213W        W 3374  36.808  40.801  13.404
38214W        W 3375  39.288  14.711   0.859
38215W        W 3376  35.822   5.004  13.983
38216W        W 3377  24.176   7.139  14.862
38217W        W 3378  22.475   1.803   2.217
38218W        W 3379  30.939   9.213   3.167
38219W        W 3380  42.820   8.904   0.314
38220W        W 3381  11.979  40.021  13.655
38221W        W 3382  19.309  26.173  14.991
38222W        W 3383  25.631  14.261   4.067
38223W        W 3384   4.441   6.917   0.321
38224W        W 3385   5.745  25.757  14.954
38225W        W 3386  17.109  30.679   1.877
38226W        W 3387   9.432  21.105   3.024
38227W        W 3388  39.855  33.525  13.158
38228W        W 3389  26.638  23.966   0.887
38229W        W 3390  18.068   7.629  13.132
38230W        W 3391  36.926   8.888   2.374
38231W        W 3392  11.911  42.983  12.491
38232W        W 3393   3.776  22.821  11.598
38233W        W 3394  34.212  30.177  13.433
38234W        W 3395  23.166  29.054   0.654
38235W        W 3396  36.935  40.411  14.827
38236W        W 3397  38.027  39.792   3.664
38237W        W 3398  25.803   9.230   4.630
38238W        W 3399   3.887  17.614  11.968
38239W        W 3400  23.039  43.120   4.030
38240W        W 3401  43.445  17.305  11.614
38241W        W 3402  11.652  40.495  12.501
38242W        W 3403  37.759  20.215  14.820
38243W        W 3404  20.103  26.559  12.978
38244W        W 3405   8.330  32.384   0.816
38245W        W 3406  12.729   3.033  12.070
38246W        W 3407   8.324  26.616   1.072
38247W        W 3408   8.318   0.334   4.535
38248W        W 3409   1.021   4.815  14.385
38249W        W 3410  10.104   8.204  12.850
38250W        W 3411  34.431  13.812  12.340
38251W        W 3412  40.297   8.986   4.649
38252W        W 3413  31.383  15.615  13.981
38253W        W 3414   7.887  33.140  13.537
38254W        W 3415  43.019  38.342   0.064
38255W        W 3416   3.422  28.934  12.521
38256W        W 3417   0.244  39.571  10.962
38257W        W 3418  41.453  11.180  12.063
38258W        W 3419  31.647   3.318  12.213
38259W        W 3420  36.039  10.815   1.146
38260W        W 3421  31.624  42.567  11.567
38261W        W 3422  24.120   0.898   0.698
38262W        W 3423  16.109  11.213   3.048
38263W        W 3424  14.233  14.012  11.345
38264W        W 3425  22.244  41.325  12.932
38265W        W 3426  41.470  32.684   3.888
38266W        W 3427  38.039  29.041   4.636
38267W        W 3428   6.421  31.258   0.518
38268W        W 3429  37.332  12.732   4.629
38269W        W 3430  21.452  23.069  13.651
38270W        W 3431   4.225  22.986   1.299
38271W        W 3432  38.104  38.491  13.872
38272W        W 3433  23.803  20.765   1.332
38273W        W 3434   3.770  26.614  14.752
38274W        W 3435  38.448  43.781  14.302
38275W        W 3436  37.982   4.803   4.869
38276W        W 3437  39.323  43.765  14.306
38277W        W 3438  11.258  13.104  13.813
38278W        W 3439  43.558  39.011  11.144
38279W        W 3440  31.509  33.738  14.847
38280W        W 3441  40.997  16.255  13.335
38281W        W 3442  28.923  43.862  10.999
38282W        W 3443   6.370  31.589   5.009
38283W        W 3444  14.676  39.312  13.470
38284W        W 3445  37.034  39.558   3.176
38285W        W 3446  44.863  44.734   2.719
38286W        W 3447  10.450  14.781  12.760
38287W        W 3448   4.315  25.560   2.195
38288W        W 3449   2.339   5.818  10.736
38289W        W 3450   6.715  11.537   1.989
38290W        W 3451   0.041  17.731  12.398
38291W        W 3452  17.743   5.737  12.445
38292W        W 3453  43.669  37.938  12.407
38293W        W 3454  33.422  35.031   0.945
38294W        W 3455  43.442  29.460   1.833
38295W        W 3456  28.246  38.900  10.714
38296W        W 3457   9.187   3.451   4.582
38297W        W 3458  23.569  19.493   4.530
38298W        W 3459  40.993  42.374   4.592
38299W        W 3460  39.501  26.804   3.336
38300W        W 3461  34.286  29.863  10.621
38301W        W 3462  23.304  16.581   1.919
38302W        W 3463  18.933  40.437   9.480
38303W        W 3464  40.596  13.307  13.875
38304W        W 3465  26.324  25.460   5.236
38305W        W 3466  31.253  19.795  14.438
38306W        W 3467  32.009  24.273   9.565
38307W        W 3468  20.967  35.232  12.375
38308W        W 3469  36.449  13.711  14.351
38309W        W 3470  37.061  35.012   2.226
38310W        W 3471   8.360  36.693   2.862
38311W        W 3472   8.742   5.741   1.804
38312W        W 3473   8.381  37.560   0.878
38313W        W 3474  19.029  22.224   0.912
38314W        W 3475  43.192  40.128  10.303
38315W        W 3476  26.102  34.020   1.819
38316W        W 3477   3.595  11.677  12.611
38317W        W 3478   6.400   2.366  14.811
38318W        W 3479  13.361   5.380  11.680
38319W        W 3480  34.068  43.281  12.689
38320W        W 3481  25.474  20.848  14.381
38321W        W 3482   0.728   8.162  14.261
38322W        W 3483   8.073  14.881   3.841
38323W        W 3484  32.925   2.293  12.948
38324W        W 3485  20.620  38.125  11.147
38325W        W 3486  40.263  25.120   3.164
38326W        W 3487   4.742   2.874   0.946
38327W        W 3488  15.712  25.058  13.033
38328W        W 3489  36.080  37.594   2.169
38329W        W 3490  39.811  22.602  12.152
38330W        W 3491   1.105  37.303  10.211
38331W        W 3492  20.275  26.750   4.599
38332W        W 3493  13.690  31.373   0.023
38333W        W 3494  32.799   8.645   4.597
38334W        W 3495  12.656   7.906   0.637
38335W        W 3496  19.263  38.510   3.751
38336W        W 3497   8.401   1.424   2.752
38337W        W 3498   8.799   7.720   0.402
38338W        W 3499  19.234  15.200   3.872
38339W        W 3500   9.718  28.146  10.650
38340W        W 3501  40.278  19.875  10.359
38341W        W 3502  21.073  22.215  13.801
38342W        W 3503  41.511  23.363  14.825
38343W        W 3504   5.871  36.024   2.858
38344W        W 3505  39.955  16.404  11.190
38345W        W 3506  13.715  37.456   3.426
38346W        W 3507  17.470  27.274   4.102
38347W        W 3508  39.100  22.579   2.722
38348W        W 3509   2.232   1.233   2.751
38349W        W 3510   9.230   4.479  12.556
38350W        W 3511  22.745  19.454  11.178
38351W        W 3512  37.096   7.267  11.869
38352W        W 3513  40.274   0.501  10.287
38353W        W 3514  26.681  35.967  11.604
38354W        W 3515  10.266   3.054   3.171
38355W        W 3516  32.942   7.863   0.695
38356W        W 3517  38.410  44.107   4.287
38357W        W 3518  35.680  43.664  13.324
38358W        W 3519  29.064  44.349   4.879
38359W        W 3520  29.991   7.287   2.129
38360W        W 3521  16.802  23.216  11.440
38361W        W 3522  11.975  14.186  11.089
38362W        W 3523  42.945  17.505  13.151
38363W        W 3524  38.555  33.411  11.326
38364W        W 3525   4.949  24.835   9.887
38365W        W 3526   9.408  35.404   1.349
38366W        W 3527  42.929  42.700  14.920
38367W        W 3528   5.409  10.719  10.854
38368W        W 3529  15.588  26.411   3.531
38369W        W 3530   4.267   4.861   3.313
38370W        W 3531  43.981   0.488  14.974
38371W        W 3532   0.212  25.270  13.977
38372W        W 3533  20.701  12.836   0.137
38373W        W 3534  15.271   9.273   3.371
38374W        W 3535  13.317  11.789  13.846
38375W        W 3536  38.666  17.201  13.835
38376W        W 3537  40.073  19.328   1.224
38377W        W 3538  35.315   4.489  11.340
38378W        W 3539  35.863  34.375  14.883
38379W        W 3540  41.886  24.086   0.264
38380W        W 3541  32.462  28.558   2.791
38381W        W 3542  31.203  31.829  10.280
38382W        W 3543  21.184  36.278  12.427
38383W        W 3544  12.223  31.619  10.788
38384W        W 3545  16.455   0.705  12.506
38385W        W 3546   8.305  42.827  11.664
38386W        W 3547  21.126   0.312   3.612
38387W        W 3548  20.551  22.666   5.200
38388W        W 3549  20.748  19.049   1.608
38389W        W 3550  11.855   9.792   4.236
38390W        W 3551   3.091  33.199   1.168
38391W        W 3552   3.414  40.420   3.885
38392W        W 3553   9.824  41.248   0.221
38393W        W 3554  28.032   8.541   1.648
38394W        W 3555  21.805  22.508  12.158
38395W        W 3556  30.871  30.232  12.110
38396W        W 3557   9.805   5.058   2.315
38397W        W 3558  12.928   0.784  13.372
38398W        W 3559   0.370  16.080  12.410
38399W        W 3560  27.699  25.537  11.996
38400W        W 3561   8.743   8.929   4.001
38401W        W 3562  18.619  43.808  13.850
38402W        W 3563   8.757   9.820   1.249
38403W        W 3564   5.489  30.669  13.928
38404W        W 3565   5.672  14.021   0.224
38405W        W 3566  17.794  21.745  11.520
38406W        W 3567  25.568   1.202   3.650
38407W        W 3568  30.949  34.662  10.744
38408W        W 3569  23.648  33.040   1.997
38409W        W 3570   2.089  12.940   2.726
38410W        W 3571  44.526  30.203  13.419
38411W        W 3572   0.258  20.471  12.144
38412W        W 3573  19.048  18.053  10.257
38413W        W 3574  20.306  29.206   0.920
38414W        W 3575   9.709  44.400   4.501
38415W        W 3576   1.524  25.690   0.995
38416W        W 3577  13.827  22.555  10.465
38417W        W 3578   9.437   5.675   1.249
38418W        W 3579   1.318  24.004   1.415
38419W        W 3580  21.514  38.879  12.194
38420W        W 3581  34.661  41.157   5.430
38421W        W 3582  16.114  17.283   5.075
38422W        W 3583   4.182  27.660  13.517
38423W        W 3584  24.207  12.696   0.308
38424W        W 3585   0.759   7.923   3.165
38425W        W 3586  39.873  39.881  14.796
38426W        W 3587  22.538  39.519  10.716
38427W        W 3588   7.432  16.314  10.741
38428W        W 3589  21.981  14.069  11.537
38429W        W 3590  19.767  26.705  13.449
38430W        W 3591  12.886  23.770   1.258
38431W        W 3592  21.231  10.407   4.163
38432W        W 3593  30.170  14.574  12.062
38433W        W 3594  23.952  15.820   2.242
38434W        W 3595   9.765  27.206  13.281
38435W        W 3596   2.372  43.718   2.826
38436W        W 3597   9.111  27.561   3.816
38437W        W 3598   6.715  19.220   2.738
38438W        W 3599  30.505  17.673   4.639
38439W        W 3600   0.324  25.428  11.461
38440W        W 3601  11.233  17.194  12.112
38441W        W 3602  25.170  36.935   3.885
38442W        W 3603  29.090   6.751   2.253
38443W        W 3604   1.806  32.356  12.638
38444W        W 3605  20.513  43.027  12.277
38445W        W 3606  13.016  21.120  10.886
38446W        W 3607  20.642   9.215   3.696
38447W        W 3608  42.938  28.057   1.311
38448W        W 3609  33.726  21.289   5.058
38449W        W 3610  38.798  29.693  12.488
38450W        W 3611  16.231  16.671  11.134
38451W        W 3612  19.993  10.334  10.600
38452W        W 3613  12.809  26.221   3.212
38453W        W 3614  19.162  34.499   2.715
38454W        W 3615  27.976  29.729   0.785
38455W        W 3616  32.101  14.318   4.935
38456W        W 3617  40.953  28.139  10.732
38457W        W 3618   7.444  31.631   1.690
38458W        W 3619  18.552   1.439   0.688
38459W        W 3620   3.358   1.288  14.818
38460W        W 3621  35.970  13.338  13.390
38461W        W 3622  12.097   2.821   0.880
38462W        W 3623  40.084  15.332   3.129
38463W        W 3624  33.674   6.293   0.475
38464W        W 3625  39.407  12.977   1.309
38465W        W 3626  16.762  42.699   1.858
38466W        W 3627  22.498  44.517   3.275
38467W        W 3628  17.114   5.508   1.881
38468W        W 3629   6.798  12.800   2.764
38469W        W 3630  24.062  34.935   2.885
38470W        W 3631  36.542   1.336  10.325
38471W        W 3632  15.200  14.164  10.885
38472W        W 3633  23.998   3.824   0.847
38473W        W 3634  32.795  20.653   3.170
38474W        W 3635  32.922  37.867   1.422
38475W        W 3636  33.459  15.287   3.897
38476W        W 3637   0.587  22.247   4.051
38477W        W 3638   9.159   8.384   2.902
38478W        W 3639  17.198  36.595   4.692
38479W        W 3640  39.273  38.513   3.904
38480W        W 3641   4.930   9.222   1.851
38481W        W 3642  36.357  43.400   4.104
38482W        W 3643   6.088   1.325  12.020
38483W        W 3644  24.624   9.926   3.685
38484W        W 3645  41.165  34.916  12.476
38485W        W 3646  42.851  22.714  12.000
38486W        W 3647  14.575  32.526   1.632
38487W        W 3648  38.964  29.112   2.656
38488W        W 3649  17.519  35.805   2.816
38489W        W 3650  43.906  35.488  11.196
38490W        W 3651  24.135  28.462   3.105
38491W        W 3652  43.764  33.602  13.985
38492W        W 3653  23.672  18.752   1.398
38493W        W 3654  17.029  43.853   3.661
38494W        W 3655   6.248  41.047  12.521
38495W        W 3656  28.530  37.053  13.375
38496W        W 3657  17.291  38.165   1.900
38497W        W 3658  13.084  15.809   3.281
38498W        W 3659  18.024  42.052   1.957
38499W        W 3660  34.213   2.294  13.462
38500W        W 3661  14.330   3.465   3.363
38501W        W 3662  43.890  12.587   2.834
38502W        W 3663  16.126  33.987  14.484
38503W        W 3664  43.725  36.184  14.034
38504W        W 3665   5.970  30.726   4.084
38505W        W 3666   9.931  21.022   3.115
38506W        W 3667  19.246   1.926   2.925
38507W        W 3668   7.255  44.961   2.201
38508W        W 3669  18.771   3.729  14.701
38509W        W 3670   6.365  22.083  14.507
38510W        W 3671  21.618  35.325  10.784
38511W        W 3672  29.976   2.206  13.957
38512W        W 3673   9.493  23.107   3.343
38513W        W 3674  21.151  13.765   4.607
38514W        W 3675  36.010  25.710  11.627
38515W        W 3676  11.199  10.195   1.996
38516W        W 3677   2.876  37.285  14.823
38517W        W 3678   9.552  30.434   4.034
38518W        W 3679  19.147   4.244  13.904
38519W        W 3680   8.871  19.830  10.728
38520W        W 3681  41.627   0.822  13.394
38521W        W 3682  12.930   1.238   4.513
38522W        W 3683  10.123  24.111  10.666
38523W        W 3684   2.633  43.273  13.571
38524W        W 3685  35.449  29.744  12.443
38525W        W 3686  19.282  28.540  14.501
38526W        W 3687  19.643  12.319   1.342
38527W        W 3688   5.897  42.845   2.434
38528W        W 3689  29.543   5.035  14.077
38529W        W 3690  21.603  37.066  11.632
38530W        W 3691  29.487  10.491  12.616
38531W        W 3692  28.168   8.660  13.877
38532W        W 3693   3.383   4.499   2.227
38533W        W 3694  27.988  19.645  13.356
38534W        W 3695  32.167  25.582  12.841
38535W        W 3696  28.898   5.563   3.549
38536W        W 3697  25.556   0.379   2.876
38537W        W 3698   8.244   8.815   0.481
38538W        W 3699  21.829  30.517   3.292
38539W        W 3700  41.093  28.055  13.150
38540W        W 3701  31.006  28.638  12.234
38541W        W 3702  27.602  31.356   2.865
38542W        W 3703   2.901   4.859   0.444
38543W        W 3704  30.191  43.925  14.183
38544W        W 3705  43.379  36.313  12.261
38545W        W 3706  19.310  26.997   0.915
38546W        W 3707  17.745   5.269  12.666
38547W        W 3708  17.051  31.923   4.486
38548W        W 3709   6.817   7.644  11.092
38549W        W 3710  41.516  35.673  13.358
38550W        W 3711  37.085  39.515   1.864
38551W        W 3712   0.207  18.773  13.783
38552W        W 3713  31.695  21.990  14.346
38553W        W 3714   9.604  12.387  12.128
38554W        W 3715  14.306  42.992  11.185
38555W        W 3716  21.593   2.127  12.854
38556W        W 3717  36.271   9.932  11.288
38557W        W 3718  33.874  13.269  11.975
38558W        W 3719  24.025  23.064  12.254
38559W        W 3720  33.382  32.086  13.514
38560W        W 3721  22.576  16.169  14.527
38561W        W 3722  25.971  23.264   4.979
38562W        W 3723  15.789  21.217  12.340
38563W        W 3724  31.380  39.229  10.166
38564W        W 3725   2.327   6.221   0.405
38565W        W 3726  25.213  16.656   0.345
38566W        W 3727  11.851   3.847   2.259
38567W        W 3728  44.705  24.219  13.512
38568W        W 3729   1.171  24.236   1.860
38569W        W 3730  16.531   1.457   3.152
38570W        W 3731  29.430  31.460   2.164
38571W        W 3732   7.809  18.780   2.744
38572W        W 3733   6.193  20.204  11.559
38573W        W 3734  35.467  27.592   3.082
38574W        W 3735  25.480  44.262   5.293
38575W        W 3736  34.382   6.725  13.005
38576W        W 3737  29.354  32.981  13.444
38577W        W 3738  14.572  14.739   2.744
38578W        W 3739  34.190  13.275   4.325
38579W        W 3740  10.341  17.603  12.027
38580W        W 3741  22.009  35.548   1.676
38581W        W 3742  24.564  16.285   0.825
38582W        W 3743   5.919  10.709   1.478
38583W        W 3744   2.221  15.017   0.660
38584W        W 3745  10.814  33.938   1.937
38585W        W 3746  44.868  38.077  11.738
38586W        W 3747  31.116  41.060  13.308
38587W        W 3748  34.710  17.155   3.202
38588W        W 3749  15.546  32.336   1.030
38589W        W 3750  15.177  24.920  14.318
38590W        W 3751  19.173   6.232   0.944
38591W        W 3752   6.139  33.516   2.361
38592W        W 3753  23.876   8.241  11.726
38593W        W 3754  42.454   4.623  14.716
38594W        W 3755  37.606  31.187  14.047
38595W        W 3756  44.503  16.236   2.336
38596W        W 3757  25.444  29.363  12.281
38597W        W 3758  40.712  37.868   1.907
38598W        W 3759  12.364  11.920   2.372
38599W        W 3760   0.433  20.327  12.597
38600W        W 3761  10.264   8.891   4.166
38601W        W 3762   7.528   4.904  11.723
38602W        W 3763  16.221  44.327  14.762
38603W        W 3764  41.795  14.615  11.101
38604W        W 3765  23.027  17.121   1.213
38605W        W 3766   7.475  44.426   3.414
38606W        W 3767  11.633  15.718   0.282
38607W        W 3768  18.157   9.811   4.880
38608W        W 3769  37.635  24.044   3.207
38609W        W 3770  33.041  20.150  14.916
38610W        W 3771   9.233   1.594   4.117
38611W        W 3772  24.750   1.891  11.886
38612W        W 3773  37.952  40.297  11.411
38613W        W 3774  19.789  32.770   3.577
38614W        W 3775  24.098  30.855   0.976
38615W        W 3776  43.396   9.266  13.324
38616W        W 3777  10.097  12.039   0.847
38617W        W 3778   3.369   5.471   2.058
38618W        W 3779  43.503  24.994  14.823
38619W        W 3780  29.516  38.938  12.258
38620W        W 3781  35.601  35.631  13.429
38621W        W 3782  43.862  26.889  13.586
38622W        W 3783  15.333  15.229   0.356
38623W        W 3784  40.516  32.216   2.349
38624W        W 3785  28.912  32.679  13.446
38625W        W 3786  11.241  33.407   4.123
38626W        W 3787  11.689  35.881  14.746
38627W        W 3788  36.882  37.683  12.230
38628W        W 3789   1.943  13.380   1.728
38629W        W 3790  31.021  26.519  14.036
38630W        W 3791  22.780   5.670  12.606
38631W        W 3792  14.854  31.546   2.795
38632W        W 3793  16.240  31.346   2.797
38633W        W 3794  21.942  16.101  12.888
38634W        W 3795  25.143  36.362   2.649
38635W        W 3796  38.322  43.854  12.929
38636W        W 3797   3.403  25.904  14.078
38637W        W 3798  18.484   8.766   4.620
38638W        W 3799  15.588  25.440  12.264
38639W        W 3800  19.807  20.670  12.558
38640W        W 3801  26.560  43.024   1.072
38641W        W 3802  36.617  11.653   3.384
38642W        W 3803  31.351  26.602  14.428
38643W        W 3804  40.279   3.241  12.450
38644W        W 3805  34.376  15.735   0.346
38645W        W 3806  38.286  19.566   2.262
38646W        W 3807  26.648  16.796  11.081
38647W        W 3808  36.824   3.344  11.998
38648W        W 3809  39.917  44.326  13.372
38649W        W 3810  38.290  37.437  14.275
38650W        W 3811  30.365  37.027   3.194
38651W        W 3812   9.672  38.997  12.788
38652W        W 3813  38.278  29.704  12.417
38653W        W 3814   9.587  19.182  10.738
38654W        W 3815  28.217  34.014   2.768
38655W        W 3816  37.149  35.439  13.875
38656W        W 3817   9.250  34.188   0.704
38657W        W 3818  36.465  28.556   2.585
38658W        W 3819  19.139  15.829   1.492
38659W        W 3820  32.875  29.847  10.415
38660W        W 3821  36.019  11.166   4.980
38661W        W 3822  33.477   1.987  13.532
38662W        W 3823  41.493  10.160   3.271
38663W        W 3824  41.801  31.478   3.225
38664W        W 3825  14.123  40.929   3.623
38665W        W 3826  13.153  13.072  11.080
38666W        W 3827  44.739  44.261   1.422
38667W        W 3828  30.441   7.855   3.292
38668W        W 3829  38.939  18.073  12.526
38669W        W 3830  14.880  26.478   4.917
38670W        W 3831   9.131  23.987   1.702
38671W        W 3832  14.719  29.185   2.332
38672W        W 3833  23.150  30.501  10.534
38673W        W 3834  34.515  43.289   0.321
38674W        W 3835  16.948  11.388   1.024
38675W        W 3836  22.256   5.341  12.857
38676W        W 3837  30.202  13.189  13.870
38677W        W 3838  41.943  40.192   0.759
38678W        W 3839  15.572  27.479  10.784
38679W        W 3840  35.597  35.375   4.347
38680W        W 3841  19.498   8.305   1.054
38681W        W 3842  44.449   8.623  14.498
38682W        W 3843   3.389  42.013  13.319
38683W        W 3844   6.699  21.400   2.358
38684W        W 3845   7.576  39.944  14.009
38685W        W 3846  34.598  17.901   1.296
38686W        W 3847  25.419  34.414   0.391
38687W        W 3848  18.694  27.750  11.657
38688W        W 3849  19.771  19.100   3.061
38689W        W 3850  36.794  10.443  13.473
38690W        W 3851   0.026  40.931   4.155
38691W        W 3852  37.926  39.742  11.374
38692W        W 3853   0.242  34.108  14.930
38693W        W 3854  14.396  10.414  11.942
38694W        W 3855  17.715  12.350  13.718
38695W        W 3856   5.984   6.881   1.467
38696W        W 3857  44.313   6.788  12.230
38697W        W 3858  23.527   0.485   3.658
38698W        W 3859  32.681  44.000  14.253
38699W        W 3860  10.322  12.955  11.971
38700W        W 3861   8.886  38.779   3.562
38701W        W 3862  21.623  29.373  12.896
38702W        W 3863  22.650  18.027   0.860
38703W        W 3864   7.315  38.952  12.042
38704W        W 3865  12.791   0.715  13.929
38705W        W 3866  27.653  29.276   4.144
38706W        W 3867  37.449  21.978  10.699
38707W        W 3868   8.166  14.627   1.205
38708W        W 3869  13.233  29.086  14.851
38709W        W 3870  20.612  33.469  11.204
38710W        W 3871  37.718  27.563   2.321
38711W        W 3872  33.294  28.408  14.490
38712W        W 3873  43.073  19.934  12.097
38713W        W 3874   4.450  21.470  14.976
38714W        W 3875  13.883   2.014  12.059
38715W        W 3876  21.743  13.852   3.915
38716W        W 3877  16.092  26.632   0.780
38717W        W 3878  12.388  21.204   1.412
38718W        W 3879  22.067  34.312  12.517
38719W        W 3880  19.529   2.162   1.747
38720W        W 3881  39.928   4.699   4.513
38721W        W 3882  30.928  35.830  12.019
38722W        W 3883  42.036  34.959  12.060
38723W        W 3884   6.090  10.446  10.887
38724W        W 3885  12.821   6.311   4.631
38725W        W 3886  14.392  32.720  14.934
38726W        W 3887  35.393  41.847  14.277
38727W        W 3888   1.912  32.985   3.147
38728W        W 3889  43.479  22.298   2.418
38729W        W 3890  12.121   3.307   3.260
38730W        W 3891  37.057  40.888   0.571
38731W        W 3892  29.601  43.797  12.406
38732W        W 3893  33.301   0.166   1.201
38733W        W 3894  29.330  12.118   3.715
38734W        W 3895  37.053  43.415  11.365
38735W        W 3896   2.762  33.628  11.652
38736W        W 3897   5.344  36.502   2.329
38737W        W 3898   0.526   4.252   1.894
38738W        W 3899   2.352  34.108  12.939
38739W        W 3900   0.368  25.137  10.651
38740W        W 3901  26.238  31.988  12.118
38741W        W 3902   7.282  15.726  14.967
38742W        W 3903  16.031  21.715  11.184
38743W        W 3904  12.640  23.678  14.928
38744W        W 3905  29.419  16.730   3.314
38745W        W 3906  34.502   7.976  11.189
38746W        W 3907  39.771   8.336   3.203
38747W        W 3908  17.144  28.079  13.587
38748W        W 3909   1.923  19.356  11.152
38749W        W 3910   4.919  42.915   4.178
38750W        W 3911  21.637  39.759  14.868
38751W        W 3912  43.355   4.663   1.157
38752W        W 3913  40.820  19.932  14.117
38753W        W 3914  31.831  37.983   3.698
38754W        W 3915  25.499  33.354  14.964
38755W        W 3916  13.634  38.963  11.537
38756W        W 3917   3.454  26.454   2.609
38757W        W 3918  43.762  44.436   3.839
38758W        W 3919  21.517  12.881  10.988
38759W        W 3920  43.224   7.620  14.461
38760W        W 3921  17.224   0.714  12.143
38761W        W 3922  31.757  27.537   5.776
38762W        W 3923  35.924  27.026  13.194
38763W        W 3924  18.216   4.769  14.546
38764W        W 3925  44.574  40.659  12.546
38765W        W 3926  39.356  38.589  11.455
38766W        W 3927  39.546  44.218   0.102
38767W        W 3928   8.226  32.895   0.400
38768W        W 3929  23.911  29.663  12.914
38769W        W 3930  34.065  21.715   3.230
38770W        W 3931  27.966   9.434  13.581
38771W        W 3932  33.615  11.357   0.153
38772W        W 3933  15.528  24.174  14.100
38773W        W 3934  24.090  35.047  14.629
38774W        W 3935  11.107  40.151   4.242
38775W        W 3936  28.059  38.637  13.073
38776W        W 3937  10.447   2.701  10.750
38777W        W 3938  33.902  40.357   1.314
38778W        W 3939   9.276  39.822   1.942
38779W        W 3940  29.122  11.726  14.064
38780W        W 3941  10.306  41.196  10.680
38781W        W 3942  31.880  39.869  14.767
38782W        W 3943   3.798  10.322   4.069
38783W        W 3944  36.916  23.139  14.584
38784W        W 3945  16.744   8.904   1.695
38785W        W 3946  24.976  42.263  10.785
38786W        W 3947  33.847  16.283  12.003
38787W        W 3948   2.778  29.716  12.449
38788W        W 3949  30.954  44.933  10.969
38789W        W 3950  31.636   9.505  11.238
38790W        W 3951  24.810  23.213  10.301
38791W        W 3952  27.001  26.099  10.712
38792W        W 3953  33.227  17.845   3.572
38793W        W 3954  26.371  27.865   1.840
38794W        W 3955  41.403  25.522  10.969
38795W        W 3956  19.992   0.535  11.851
38796W        W 3957  44.452  18.742   0.659
38797W        W 3958  20.502  10.704  14.747
38798W        W 3959  39.516  17.234  11.677
38799W        W 3960  20.890  22.259   0.914
38800W        W 3961  26.093  12.444   4.079
38801W        W 3962  15.140  15.997  11.493
38802W        W 3963  33.187  15.899  13.013
38803W        W 3964  25.644  30.861   0.199
38804W        W 3965   5.542  30.009  11.672
38805W        W 3966   6.482  24.138   1.440
38806W        W 3967  13.849  27.540  11.231
38807W        W 3968  19.862  44.863   3.310
38808W        W 3969   8.777  29.334  14.464
38809W        W 3970  25.278  36.077   2.215
38810W        W 3971  37.539  39.609  14.339
38811W        W 3972  32.659   1.701   1.903
38812W        W 3973  29.790  33.044   3.675
38813W        W 3974   6.360  26.505   0.845
38814W        W 3975  13.801  39.343   1.411
38815W        W 3976  35.242  35.499   4.710
38816W        W 3977  20.593  41.787  12.076
38817W        W 3978  19.596  18.711  12.074
38818W        W 3979  35.118  34.276   3.714
38819W        W 3980  31.205  33.067   0.358
38820W        W 3981  11.467   4.445   1.700
38821W        W 3982   9.018  28.157  10.057
38822W        W 3983   5.227  37.427  12.863
38823W        W 3984   9.518  23.510  12.000
38824W        W 3985  24.539  38.854  12.242
38825W        W 3986  31.038  39.130   0.333
38826W        W 3987  16.428  34.826  13.935
38827W        W 3988   6.759  43.000  13.607
38828W        W 3989   5.568  27.703   3.971
38829W        W 3990   8.222  42.240   2.014
38830W        W 3991  33.405  19.388  11.197
38831W        W 3992  32.488  10.624   2.067
38832W        W 3993  22.142  36.387  12.571
38833W        W 3994   0.233  44.334  11.992
38834W        W 3995   3.417  19.971  13.986
38835W        W 3996  27.927  18.722  13.329
38836W        W 3997  16.277  38.865  14.377
38837W        W 3998  32.357  29.655   1.937
38838W        W 3999   8.155  41.884   0.904
38839W        W 4000   9.460  27.427  10.357
38840W        W 4001  32.914   2.247  11.692
38841W        W 4002  34.398  44.844  11.165
38842W        W 4003  42.764   5.473   1.528
38843W        W 4004  13.225  27.098   0.520
38844W        W 4005  19.045  21.307   9.801
38845W        W 4006   3.775  31.564  11.110
38846W        W 4007  29.602  14.206   1.321
38847W        W 4008  13.544  41.983   0.889
38848W        W 4009  19.553  13.418  11.109
38849W        W 4010  39.337  14.713  12.964
38850W        W 4011  43.996  36.851  14.830
38851W        W 4012   5.172  33.945   3.723
38852W        W 4013  29.286  41.075   4.264
38853W        W 4014   8.403   8.934  10.744
38854W        W 4015  23.808  16.493  14.953
38855W        W 4016  17.756  31.535  11.956
38856W        W 4017  38.980  38.658  13.374
38857W        W 4018  21.913  12.098  11.908
38858W        W 4019  22.250  38.346   1.381
38859W        W 4020  18.343  37.797  11.292
38860W        W 4021  35.955  17.057   1.412
38861W        W 4022  19.707   1.749  14.977
38862W        W 4023  43.562   5.128  11.117
38863W        W 4024  10.391  17.092   1.806
38864W        W 4025  21.980  34.044  12.084
38865W        W 4026   9.122   3.953  11.637
38866W        W 4027  44.395   7.631   0.893
38867W        W 4028   1.791  10.909   2.888
38868W        W 4029  43.987  35.681   9.950
38869W        W 4030  42.114  17.149   3.523
38870W        W 4031   4.511  44.434   0.878
38871W        W 4032  22.730  38.236   2.899
38872W        W 4033  21.605  25.163  12.581
38873W        W 4034  37.913  32.399   4.846
38874W        W 4035  30.856  16.594  14.968
38875W        W 4036  42.921  41.231  11.059
38876W        W 4037  32.405  42.832   2.741
38877W        W 4038  27.897  31.932  12.922
38878W        W 4039  13.178  35.656   0.806
38879W        W 4040  43.985  38.588   9.968
38880W        W 4041  15.785  10.550  13.085
38881W        W 4042  36.231  18.128  13.073
38882W        W 4043   8.868  11.871  13.374
38883W        W 4044  27.653  42.722  12.466
38884W        W 4045  11.500  30.053   1.241
38885W        W 4046  23.491  12.120  13.520
38886W        W 4047   9.211  38.008   4.650
38887W        W 4048  40.328  36.374   3.829
38888W        W 4049   2.863   9.320  11.987
38889W        W 4050  18.298  10.334  14.168
38890W        W 4051  26.911  18.622  11.998
38891W        W 4052  28.641   6.568   4.356
38892W        W 4053   4.192  30.384  13.050
38893W        W 4054  26.789  33.046  11.944
38894W        W 4055  28.021  12.871  12.033
38895W        W 4056  42.522  19.266  12.510
38896W        W 4057  26.740   7.849  11.631
38897W        W 4058   2.762  38.954  13.796
38898W        W 4059  10.532  15.473  13.065
38899W        W 4060  30.928  37.084  14.492
38900W        W 4061   2.559  21.597   2.255
38901W        W 4062  27.069  26.196   5.014
38902W        W 4063  21.997  12.310   3.217
38903W        W 4064   0.808  39.132  11.604
38904W        W 4065   2.994  41.513  13.899
38905W        W 4066  44.678  12.072  12.790
38906W        W 4067  30.438  22.102   2.834
38907W        W 4068   1.827   9.193  12.013
38908W        W 4069  41.591  13.318  10.762
38909W        W 4070  13.849   7.052  10.667
38910W        W 4071  41.274   7.254   4.845
38911W        W 4072  42.484  11.211  13.413
38912W        W 4073  23.730  18.144   1.422
38913W        W 4074  15.825   7.624  10.238
38914W        W 4075  29.519  10.926  12.905
38915W        W 4076  26.702  31.358  13.453
38916W        W 4077  22.300  30.606  12.815
38917W        W 4078  37.316  27.457   2.669
38918W        W 4079   8.843  16.631   0.423
38919W        W 4080   3.209  13.542   2.260
38920W        W 4081  34.865  28.670   4.076
38921W        W 4082   2.608  39.281  12.489
38922W        W 4083   3.780  32.878   1.786
38923W        W 4084  29.724  40.604  13.376
38924W        W 4085  31.067  12.393  11.471
38925W        W 4086  19.853  35.424  12.311
38926W        W 4087  21.549  35.602  12.440
38927W        W 4088  37.783  24.903   0.368
38928W        W 4089  42.372  38.863  13.903
38929W        W 4090  21.112   4.693  13.922
38930W        W 4091  11.685  32.503  12.291
38931W        W 4092  31.983  42.782   1.853
38932W        W 4093   8.857  44.594  13.877
38933W        W 4094   9.770   2.701  14.787
38934W        W 4095  36.608  15.748   3.107
38935W        W 4096  39.987   8.827   0.732
38936W        W 4097  14.726  40.822   9.488
38937W        W 4098  34.847   4.240   4.562
38938W        W 4099  36.997  24.652   2.378
38939W        W 4100  43.399  35.867  14.427
38940W        W 4101  41.748  22.756   0.841
38941W        W 4102  38.388  15.945   2.187
38942W        W 4103  22.553  30.032   2.859
38943W        W 4104  10.334  27.420   0.355
38944W        W 4105  43.620  12.733   3.923
38945W        W 4106  36.408  27.050  12.260
38946W        W 4107  42.501  41.454   3.521
38947W        W 4108  21.506   1.734   1.880
38948W        W 4109  20.577  11.839  14.091
38949W        W 4110  17.783  10.758   3.742
38950W        W 4111  33.532  40.385   3.492
38951W        W 4112  36.734  33.834  11.308
38952W        W 4113  27.254   5.319   0.005
38953W        W 4114  17.628  26.303  13.006
38954W        W 4115  44.327  14.849  11.623
38955W        W 4116  38.904  36.350   0.192
38956W        W 4117  36.443  12.967   3.063
38957W        W 4118  28.541  33.393   3.745
38958W        W 4119  13.365   5.307   1.169
38959W        W 4120  24.700  32.523  12.975
38960W        W 4121   8.452  43.312   2.744
38961W        W 4122   4.821  44.530   2.676
38962W        W 4123  38.759  41.684  10.757
38963W        W 4124  41.802   5.576   3.289
38964W        W 4125  10.314   9.644   1.777
38965W        W 4126  23.059  21.015   0.307
38966W        W 4127  34.812   1.744   5.087
38967W        W 4128  34.420   2.982  12.862
38968W        W 4129  16.099  22.042   2.656
38969W        W 4130  35.037  22.232   2.306
38970W        W 4131  39.677  21.127   5.196
38971W        W 4132  15.218   5.976   4.076
38972W        W 4133  17.855  38.588  13.386
38973W        W 4134  29.290   3.137   5.033
38974W        W 4135  19.220  19.293  11.115
38975W        W 4136   7.391   0.227   4.512
38976W        W 4137  32.941  37.819   1.938
38977W        W 4138  36.406  35.480   2.208
38978W        W 4139   3.546  27.802  11.166
38979W        W 4140  44.401  18.433   4.617
38980W        W 4141   2.528   9.848   2.123
38981W        W 4142   1.229  18.318   4.410
38982W        W 4143  29.039  43.871  14.387
38983W        W 4144  29.361  26.213  14.597
38984W        W 4145   8.784  30.099   2.742
38985W        W 4146   5.421   5.410  13.859
38986W        W 4147  16.132  14.749  11.691
38987W        W 4148   2.493  33.303  10.733
38988W        W 4149  21.371  27.575   3.242
38989W        W 4150  17.993   3.350   1.727
38990W        W 4151  19.588  37.206   3.087
38991W        W 4152  29.115  30.038   3.394
38992W        W 4153  21.478   7.848   1.299
38993W        W 4154   7.676   9.056   4.240
38994W        W 4155  32.054   6.085   1.461
38995W        W 4156   9.293  21.694  14.887
38996W        W 4157  27.891  29.573   2.210
38997W        W 4158  34.306  35.449  13.712
38998W        W 4159  38.463  28.690  13.980
38999W        W 4160  31.089   8.611  13.070
39000W        W 4161  23.140  21.775  11.230
39001W        W 4162   2.192  41.531  10.665
39002W        W 4163  35.525  15.235   4.795
39003W        W 4164   5.653  16.521   3.241
39004W        W 4165  38.982  13.903   1.511
39005W        W 4166  21.073  17.629   0.299
39006W        W 4167   5.577  10.620   2.768
39007W        W 4168  18.304   7.800  12.171
39008W        W 4169   4.210  39.356   3.018
39009W        W 4170  10.603  33.659   4.584
39010W        W 4171  21.014  41.991   1.175
39011W        W 4172  18.012  39.000  13.820
39012W        W 4173  12.113  23.068  10.711
39013W        W 4174  19.359  13.065   4.067
39014W        W 4175   4.648  30.828   1.220
39015W        W 4176  12.427  39.992  13.371
39016W        W 4177  12.468  12.311   1.381
39017W        W 4178  14.578  42.979   2.443
39018W        W 4179  18.316  16.261   2.267
39019W        W 4180  25.164  44.371   3.845
39020W        W 4181  41.835   2.659   4.182
39021W        W 4182  38.085  27.171  11.560
39022W        W 4183  41.582   7.880  13.950
39023W        W 4184  10.723  23.760   4.497
39024W        W 4185  39.884   0.864  13.853
39025W        W 4186  22.146   0.338  12.055
39026W        W 4187  20.901  29.554   4.582
39027W        W 4188  10.660  19.709   4.963
39028W        W 4189   5.113  39.371  11.153
39029W        W 4190  21.248  13.372  14.262
39030W        W 4191   0.962   1.701  11.598
39031W        W 4192   4.167  25.022   0.259
39032W        W 4193   8.139  14.353   1.638
39033W        W 4194  39.497   4.375  14.314
39034W        W 4195  16.158   8.945  10.671
39035W        W 4196  31.538   8.408   4.432
39036W        W 4197   5.973  44.201   3.123
39037W        W 4198  28.894   8.659  12.946
39038W        W 4199  19.137  19.436  13.846
39039W        W 4200  39.336  35.425  11.194
39040W        W 4201  18.785   9.987   0.446
39041W        W 4202  44.308  44.544   1.545
39042W        W 4203  38.355  15.746   1.711
39043W        W 4204   7.210   0.951  12.466
39044W        W 4205   4.454  20.196  14.328
39045W        W 4206  31.626  16.407  13.520
39046W        W 4207  19.079   8.478   2.375
39047W        W 4208  27.057  37.457  11.126
39048W        W 4209  35.991  22.478  12.096
39049W        W 4210  39.245  16.154   0.878
39050W        W 4211  36.324  25.996  11.952
39051W        W 4212  17.298  28.859   3.297
39052W        W 4213  18.763  38.945  14.347
39053W        W 4214  38.802  32.482  13.510
39054W        W 4215   5.292  34.459   0.570
39055W        W 4216  20.556  21.653   2.829
39056W        W 4217  23.441  11.973  11.745
39057W        W 4218  42.358   2.455   4.367
39058W        W 4219  14.690  39.668  11.894
39059W        W 4220  36.396  38.362   3.287
39060W        W 4221  17.409  30.100   0.957
39061W        W 4222   3.300  37.954  11.969
39062W        W 4223   9.354  36.356   4.887
39063W        W 4224   6.042  16.606   0.978
39064W        W 4225  20.937  43.689   3.256
39065W        W 4226  37.656  17.778  13.155
39066W        W 4227  18.279  26.081   4.797
39067W        W 4228  44.428  35.489  14.977
39068W        W 4229  44.948  42.285   2.361
39069W        W 4230  32.475  44.875  12.430
39070W        W 4231   0.554  13.976   4.750
39071W        W 4232  42.450  32.229  13.010
39072W        W 4233  26.560  35.546  13.485
39073W        W 4234  30.236  20.041   2.784
39074W        W 4235  30.312  24.915   1.282
39075W        W 4236  35.553   6.231   1.348
39076W        W 4237  30.432  41.624  11.189
39077W        W 4238   5.229  40.929  13.492
39078W        W 4239  27.217   8.154   4.751
39079W        W 4240  31.570  31.552  13.102
39080W        W 4241  17.163  35.580   4.533
39081W        W 4242  34.094  39.847  13.458
39082W        W 4243  15.762  18.248  11.128
39083W        W 4244   9.895  43.532  10.508
39084W        W 4245  38.939  25.488   4.139
39085W        W 4246  14.836  16.471   4.253
39086W        W 4247  27.622  21.201   0.715
39087W        W 4248  15.060  16.121  12.605
39088W        W 4249   3.844  28.621  12.468
39089W        W 4250  34.840  38.396  14.567
39090W        W 4251   6.147  11.419  10.080
39091W        W 4252  40.908  14.469  11.259
39092W        W 4253  12.111  32.954  14.663
39093W        W 4254   4.920  31.130   2.359
39094W        W 4255  14.750  30.196   4.094
39095W        W 4256  33.965  14.885  13.631
39096W        W 4257  28.818  31.566   3.914
39097W        W 4258  20.119  35.604  13.716
39098W        W 4259   5.400  39.969   2.117
39099W        W 4260  42.028   8.703  11.554
39100W        W 4261  35.141   1.030   3.999
39101W        W 4262  30.628  18.432  14.518
39102W        W 4263   3.886   4.948   1.882
39103W        W 4264  14.972   1.976   2.776
39104W        W 4265  10.790  18.907  11.503
39105W        W 4266  44.272  44.898  14.999
39106W        W 4267  21.280  16.398  11.709
39107W        W 4268   4.766  13.895   5.316
39108W        W 4269  17.889   9.973  11.939
39109W        W 4270  21.442  41.914  14.318
39110W        W 4271  19.588   9.700   2.889
39111W        W 4272  13.994  15.408   3.251
39112W        W 4273   7.879  29.514  13.309
39113W        W 4274  23.950  41.340  12.076
39114W        W 4275  25.157   3.514  13.858
39115W        W 4276   9.463  36.540  12.532
39116W        W 4277  16.274  19.684  12.389
39117W        W 4278  16.827   0.974  10.631
39118W        W 4279   4.024   3.842  12.281
39119W        W 4280  17.711  29.308   4.368
39120W        W 4281  28.590   4.979   3.218
39121W        W 4282   6.656  17.222   1.395
39122W        W 4283  27.639  44.826  11.959
39123W        W 4284  11.916   4.458  13.897
39124W        W 4285  16.963   6.694  13.406
39125W        W 4286  38.986   5.885   4.523
39126W        W 4287  13.148  27.695  14.988
39127W        W 4288  38.648  18.111  12.953
39128W        W 4289  36.138  42.942   4.159
39129W        W 4290  29.011  21.172   0.978
39130W        W 4291  34.381  43.845   0.312
39131W        W 4292  32.754   5.392  14.319
39132W        W 4293   8.351  33.121  11.535
39133W        W 4294  39.756   9.136  12.517
39134W        W 4295   1.536  34.363  11.163
39135W        W 4296  28.728  30.967   2.481
39136W        W 4297  21.241  42.760   1.917
39137W        W 4298  10.347  12.561   4.690
39138W        W 4299   5.937  17.072   2.223
39139W        W 4300  44.422   8.501   1.592
39140W        W 4301  15.533  38.955   4.117
39141W        W 4302  30.221  27.804   2.439
39142W        W 4303  11.783   4.723  12.318
39143W        W 4304  25.416   0.701   3.738
39144W        W 4305  36.134  23.355   4.509
39145W        W 4306   1.848  29.013   4.023
39146W        W 4307  21.876  27.902   3.940
39147W        W 4308  20.910  28.416   4.152
39148W        W 4309  27.336  42.276  11.122
39149W        W 4310   6.082   3.431  14.948
39150W        W 4311  13.253  19.612  13.958
39151W        W 4312  23.427  12.602  13.316
39152W        W 4313   7.926   9.343  11.795
39153W        W 4314  40.499  32.416   4.137
39154W        W 4315  30.943  20.343   0.843
39155W        W 4316  36.479   4.206   2.161
39156W        W 4317  19.466  17.727   5.057
39157W        W 4318  17.647  37.951   3.837
39158W        W 4319   9.957  20.051  12.814
39159W        W 4320  39.377  26.417  10.489
39160W        W 4321  28.099  27.052  13.074
39161W        W 4322  24.138   2.116  12.357
39162W        W 4323  28.446  19.724   2.291
39163W        W 4324   2.729   2.750   0.780
39164W        W 4325   5.881   1.444  14.175
39165W        W 4326  41.786  43.063   9.789
39166W        W 4327  16.158  17.666  10.506
39167W        W 4328   8.239  31.410  12.502
39168W        W 4329  10.028   5.728  12.446
39169W        W 4330   3.215  43.776   2.359
39170W        W 4331  13.352  29.675  12.484
39171W        W 4332  22.715  11.051   4.213
39172W        W 4333  14.660  24.365   4.097
39173W        W 4334  18.670  40.647  13.044
39174W        W 4335  31.459  10.394  10.712
39175W        W 4336  12.410  39.330   2.767
39176W        W 4337  44.245  21.694   2.311
39177W        W 4338  44.821  11.727  11.115
39178W        W 4339  44.011  16.264  12.829
39179W        W 4340  20.649  37.167  10.710
39180W        W 4341  19.578  42.087   0.335
39181W        W 4342  26.777  10.669  12.512
39182W        W 4343  20.363  22.225   5.416
39183W        W 4344  44.336   5.423  12.037
39184W        W 4345  42.471  16.707   0.753
39185W        W 4346  35.424   3.174  10.622
39186W        W 4347  16.280  20.139   4.508
39187W        W 4348  30.884  28.618  10.673
39188W        W 4349  22.719  32.465  11.041
39189W        W 4350  43.426  19.562   4.548
39190W        W 4351  34.500  43.878  14.812
39191W        W 4352  20.832   5.266   1.396
39192W        W 4353  35.493  31.909   3.408
39193W        W 4354  41.609  17.944  13.018
39194W        W 4355   9.711   9.297   4.639
39195W        W 4356  28.641  35.487   0.992
39196W        W 4357  30.931  18.835  14.311
39197W        W 4358  42.541  36.434   2.087
39198W        W 4359   6.579  28.699   4.264
39199W        W 4360  32.008  28.065  10.235
39200W        W 4361  29.197  31.143  13.329
39201W        W 4362  25.548  16.848   1.151
39202W        W 4363   0.298  37.519  14.560
39203W        W 4364  12.682  11.582   3.281
39204W        W 4365  41.474  14.298  12.552
39205W        W 4366  16.571  10.319   3.893
39206W        W 4367  36.633  18.251  14.503
39207W        W 4368   6.393  21.274   4.496
39208W        W 4369  27.045  29.868  14.853
39209W        W 4370  34.272   5.609   1.061
39210W        W 4371  38.061   1.917  12.977
39211W        W 4372  39.570  24.650   1.549
39212W        W 4373  37.681   8.299  11.943
39213W        W 4374  18.710   6.706   0.059
39214W        W 4375  17.139   4.817  14.924
39215W        W 4376  38.104  18.718  10.625
39216W        W 4377  39.856  12.833  14.124
39217W        W 4378  30.381  18.171  10.497
39218W        W 4379  15.004   3.281  13.597
39219W        W 4380   7.491  14.728   4.961
39220W        W 4381  39.279   8.249   3.303
39221W        W 4382  36.438   9.694   4.814
39222W        W 4383  15.434  21.493   2.884
39223W        W 4384  18.514  20.006   2.405
39224W        W 4385  42.230   5.082   4.594
39225W        W 4386  36.835  35.746   2.428
39226W        W 4387  17.025  38.235   9.801
39227W        W 4388  22.835  21.105  11.962
39228W        W 4389  15.807  38.025   0.454
39229W        W 4390   2.037   0.411   1.822
39230W        W 4391  44.510  23.193   0.652
39231W        W 4392   3.381  10.030  10.273
39232W        W 4393  24.569  32.036   3.835
39233W        W 4394   1.874  43.356   4.714
39234W        W 4395  18.638  38.883  12.910
39235W        W 4396   8.108  34.905  11.942
39236W        W 4397   9.609  11.819   0.786
39237W        W 4398  34.096  34.620  11.915
39238W        W 4399  32.980   6.641   0.312
39239W        W 4400  18.849   9.276   3.795
39240W        W 4401   3.429  28.334   2.070
39241W        W 4402  26.587  15.237   4.175
39242W        W 4403   9.670  36.360   2.703
39243W        W 4404  32.698  44.488  12.954
39244W        W 4405  10.085  42.650  14.199
39245W        W 4406  23.198  33.486   1.436
39246W        W 4407   7.959  40.480  11.368
39247W        W 4408  29.902  23.695   1.742
39248W        W 4409  41.997  29.880  13.993
39249W        W 4410  23.660  27.132   1.629
39250W        W 4411   7.632   8.069   4.005
39251W        W 4412  24.758  41.407   1.785
39252W        W 4413  35.014  31.101   4.253
39253W        W 4414  21.746  42.883   4.502
39254W        W 4415   8.470  21.508  13.452
39255W        W 4416  43.477  12.882   2.699
39256W        W 4417  32.429  39.847   5.571
39257W        W 4418  10.632   3.368   1.214
39258W        W 4419   0.443  19.231   2.820
39259W        W 4420  24.912   1.464  14.811
39260W        W 4421  13.278  13.346  10.618
39261W        W 4422  16.766   1.947   1.435
39262W        W 4423   7.174  25.100   2.832
39263W        W 4424  24.251  16.324  13.429
39264W        W 4425  33.883  14.309  10.973
39265W        W 4426  21.707  11.216  13.448
39266W        W 4427  13.060  11.187  12.938
39267W        W 4428  16.310  26.630   3.958
39268W        W 4429  42.273  30.281  13.815
39269W        W 4430   3.882  30.095   3.388
39270W        W 4431   1.441   7.879  12.070
39271W        W 4432  19.588   7.604   3.949
39272W        W 4433  34.729   0.312   3.452
39273W        W 4434   1.185  12.139   1.380
39274W        W 4435  34.223  38.855   0.472
39275W        W 4436  29.410  37.220  13.814
39276W        W 4437  10.128  12.326  12.785
39277W        W 4438  31.629  36.323   3.302
39278W        W 4439  37.435   5.926  13.631
39279W        W 4440  16.116  35.574   4.574
39280W        W 4441  28.540  19.220  10.631
39281W        W 4442  21.437  18.331  12.075
39282W        W 4443  43.596  28.468   4.173
39283W        W 4444   7.625   1.842  10.001
39284W        W 4445   9.916  15.582   1.719
39285W        W 4446  27.917   5.599  14.093
39286W        W 4447  10.541  34.938   1.422
39287W        W 4448   8.434  26.442  12.033
39288W        W 4449  28.193  11.740   1.812
39289W        W 4450  32.429  40.431   1.510
39290W        W 4451   9.419  22.254  14.709
39291W        W 4452  20.638  29.131   3.778
39292W        W 4453  35.614  12.352   4.964
39293W        W 4454  10.316  30.238  11.159
39294W        W 4455  14.220  26.142  13.638
39295W        W 4456  11.159  42.050  11.131
39296W        W 4457  39.864  32.206  13.310
39297W        W 4458  39.301  16.999  13.240
39298W        W 4459  41.847  16.244  11.517
39299W        W 4460  29.175  32.964   4.570
39300W        W 4461  13.578  23.153   4.613
39301W        W 4462   0.198  28.483  10.843
39302W        W 4463  38.533  13.664  11.969
39303W        W 4464   0.707  22.831   2.770
39304W        W 4465  41.799  10.746   1.865
39305W        W 4466   0.332  11.620  11.176
39306W        W 4467  35.060  35.932  12.436
39307W        W 4468   5.235  21.256  13.519
39308W        W 4469  41.510  21.494  11.938
39309W        W 4470  37.441   4.103  12.634
39310W        W 4471   0.546  12.644   1.776
39311W        W 4472  35.105  36.378   2.731
39312W        W 4473  28.282   8.305  10.427
39313W        W 4474   4.322  13.655   5.387
39314W        W 4475  38.953  27.594  12.469
39315W        W 4476  20.215   0.545   4.232
39316W        W 4477  26.137  23.632  10.677
39317W        W 4478  19.980   2.788  10.844
39318W        W 4479  14.798  42.061  11.516
39319W        W 4480  17.837  13.073  11.085
39320W        W 4481   6.522   2.542  12.719
39321W        W 4482  39.511   9.429  12.892
39322W        W 4483   9.871  38.658  10.254
39323W        W 4484  40.465  18.725   3.477
39324W        W 4485  29.388  13.147   3.810
39325W        W 4486  24.240  15.163   3.248
39326W        W 4487   4.200  39.328  10.701
39327W        W 4488   5.248  25.794   2.398
39328W        W 4489  26.036  41.915   0.805
39329W        W 4490  34.375  32.192   0.369
39330W        W 4491  15.779  16.533  14.304
39331W        W 4492  22.478  16.526  12.380
39332W        W 4493  27.016  19.807   3.297
39333W        W 4494   1.917  18.025   1.831
39334W        W 4495  12.728   1.422   1.780
39335W        W 4496  10.711  29.448  12.148
39336W        W 4497  15.246  35.659   3.319
39337W        W 4498  25.460  25.513  14.933
39338W        W 4499  18.165  43.112  14.196
39339W        W 4500  34.033  10.778  14.384
39340W        W 4501   8.333  17.029  14.297
39341W        W 4502  13.212   1.192   1.732
39342W        W 4503  12.364   3.809   4.593
39343W        W 4504  20.550  31.149   1.508
39344W        W 4505   4.276  17.515  12.291
39345W        W 4506  17.446   2.436  12.069
39346W        W 4507   9.088   5.146  11.052
39347W        W 4508   8.175  13.733   2.214
39348W        W 4509  11.820   0.574   0.707
39349W        W 4510  23.699   1.131   2.183
39350W        W 4511   8.020  37.915  12.022
39351W        W 4512   3.011  11.408  11.449
39352W        W 4513  13.841  25.676  10.735
39353W        W 4514  12.455  18.070  12.087
39354W        W 4515  30.740  24.586  10.432
39355W        W 4516  14.729  33.029  12.577
39356W        W 4517   0.319   2.429  10.666
39357W        W 4518  28.948  21.367  11.166
39358W        W 4519  34.956  11.204   3.778
39359W        W 4520   9.375   5.765   3.952
39360W        W 4521  42.805  21.513   2.492
39361W        W 4522  35.283   8.314  13.009
39362W        W 4523  31.116   2.367   0.490
39363W        W 4524   9.239  17.664   2.198
39364W        W 4525  18.385  43.756  12.285
39365W        W 4526  43.634   6.200  11.205
39366W        W 4527  23.039  35.127   4.041
39367W        W 4528  39.633  36.583   2.294
39368W        W 4529  29.125  38.825  10.618
39369W        W 4530   5.798  16.736  11.641
39370W        W 4531  19.357  39.529   5.423
39371W        W 4532  40.072  35.496  13.391
39372W        W 4533   3.281  38.008  11.041
39373W        W 4534  14.414  13.708  10.443
39374W        W 4535  19.312  12.689  11.451
39375W        W 4536  40.293  29.501   4.036
39376W        W 4537  20.107  28.485  11.569
39377W        W 4538   0.686  26.063   2.828
39378W        W 4539  20.848  34.532   3.627
39379W        W 4540   9.915  43.293   0.457
39380W        W 4541  17.467   0.710  11.669
39381W        W 4542  21.524  34.576  11.636
39382W        W 4543  35.991  29.078   1.590
39383W        W 4544  14.093   6.954  11.163
39384W        W 4545  25.918  16.541   3.628
39385W        W 4546   6.190  43.860   0.102
39386W        W 4547  19.256  14.810  14.729
39387W        W 4548  26.200  18.293   4.378
39388W        W 4549   2.856   6.312  13.983
39389W        W 4550   8.864  19.565   3.255
39390W        W 4551  23.118   3.734   2.339
39391W        W 4552  24.576   4.356  14.728
39392W        W 4553  30.524  41.454  12.178
39393W        W 4554   8.071  27.112   2.218
39394W        W 4555   1.198   7.726   4.386
39395W        W 4556  14.473   2.860  10.489
39396W        W 4557  37.075  16.784  12.538
39397W        W 4558  43.577  43.816  14.120
39398W        W 4559   3.710  38.263  11.226
39399W        W 4560  44.389  37.324   2.246
39400W        W 4561  35.435  20.927   3.156
39401W        W 4562  26.172  22.121   2.192
39402W        W 4563  24.054  24.961   1.634
39403W        W 4564  10.558  36.658   4.178
39404W        W 4565  44.763  11.294   2.273
39405W        W 4566  20.345   9.805   2.599
39406W        W 4567  16.508  38.109   1.400
39407W        W 4568  35.901  20.204   2.835
39408W        W 4569  19.969  38.212  12.578
39409W        W 4570  23.201  20.269  13.769
39410W        W 4571   2.458   8.696   0.410
39411W        W 4572  21.684   3.755  10.957
39412W        W 4573  15.381  44.895   0.955
39413W        W 4574  18.371  32.332   4.495
39414W        W 4575  32.979  24.665   2.731
39415W        W 4576  29.037  21.657  13.467
39416W        W 4577   3.734  35.466   0.322
39417W        W 4578  17.266   1.734   2.582
39418W        W 4579  16.634   7.647  14.011
39419W        W 4580  18.190  14.408   0.495
39420W        W 4581  32.406   8.714  13.389
39421W        W 4582   5.488   5.176   3.220
39422W        W 4583  30.757  17.822   2.433
39423W        W 4584  42.250  15.116   1.572
39424W        W 4585  30.054  16.769   3.819
39425W        W 4586  41.814  19.545   0.670
39426W        W 4587  23.697  30.634   2.802
39427W        W 4588  29.628  14.813  12.831
39428W        W 4589  34.473  14.825   1.306
39429W        W 4590  40.956  23.324   4.735
39430W        W 4591  25.470  25.078  12.083
39431W        W 4592  25.131   6.182   0.477
39432W        W 4593   8.821  32.134  13.392
39433W        W 4594   4.061  22.632  10.371
39434W        W 4595  20.162  44.878  10.591
39435W        W 4596  40.457  21.251   0.761
39436W        W 4597  37.790  20.753  10.865
39437W        W 4598  26.635   2.387  12.953
39438W        W 4599  33.761  31.061  11.196
39439W        W 4600   0.932   8.724   2.174
39440W        W 4601  43.936  24.728  13.982
39441W        W 4602  18.314  43.941   3.319
39442W        W 4603  26.824  25.471  11.516
39443W        W 4604   3.919  36.745   0.517
39444W        W 4605  44.005   9.198  14.095
39445W        W 4606  39.488  32.733  12.051
39446W        W 4607   2.250   2.541  13.922
39447W        W 4608  36.029  24.619   4.611
39448W        W 4609  42.989  17.472  13.657
39449W        W 4610  37.680  14.153   1.973
39450W        W 4611  39.033  44.794   0.359
39451W        W 4612   7.343  19.346  10.656
39452W        W 4613  31.882  31.199   2.201
39453W        W 4614  38.906  25.166  12.957
39454W        W 4615   8.845  26.606   1.925
39455W        W 4616  12.843  18.623  10.620
39456W        W 4617  19.768  14.235  14.283
39457W        W 4618  32.406   3.411   0.344
39458W        W 4619  39.414   2.044  10.760
39459W        W 4620  19.599  19.986   3.710
39460W        W 4621  25.236   5.778  13.476
39461W        W 4622  15.345  42.067   4.132
39462W        W 4623  16.285  25.703  10.684
39463W        W 4624  33.666  41.651   1.923
39464W        W 4625  14.796  14.577   4.742
39465W        W 4626  41.820  37.625  14.993
39466W        W 4627  21.527  10.574   2.453
39467W        W 4628  40.542  23.993  11.300
39468W        W 4629  29.535  44.440   1.398
39469W        W 4630   4.379  11.305  13.524
39470W        W 4631  23.734  13.119  13.054
39471W        W 4632   7.261  34.035  13.339
39472W        W 4633   1.218   3.876  13.389
39473W        W 4634  29.416  14.232   0.204
39474W        W 4635   5.339  17.608   1.525
39475W        W 4636   7.771  44.222   2.542
39476W        W 4637   8.691   1.809   1.437
39477W        W 4638   1.284  17.607   1.317
39478W        W 4639   3.881  18.721   3.169
39479W        W 4640   4.844  29.138   2.283
39480W        W 4641  28.935   9.706   1.676
39481W        W 4642  15.691  26.112  14.522
39482W        W 4643  15.861  31.608  11.281
39483W        W 4644   8.499  14.253  14.376
39484W        W 4645  23.077  38.862   3.145
39485W        W 4646   2.857  18.947   4.352
39486W        W 4647  18.653  33.614  10.251
39487W        W 4648  37.394  25.065   3.702
39488W        W 4649   7.249  20.189  11.155
39489W        W 4650  24.329  19.196  14.459
39490W        W 4651  21.729   5.057   1.973
39491W        W 4652   2.360  40.856   4.643
39492W        W 4653  28.109  33.104   0.765
39493W        W 4654   7.887  40.229   3.079
39494W        W 4655  31.522  43.198  13.709
39495W        W 4656   5.275  32.735  10.523
39496W        W 4657  22.890  27.370   4.866
39497W        W 4658  21.408  27.380  14.391
39498W        W 4659   4.745  22.498   0.045
39499W        W 4660  21.332  14.982  11.892
39500W        W 4661  40.486  19.154   3.787
39501W        W 4662  17.655   7.352  10.766
39502W        W 4663   2.254  31.127   2.746
39503W        W 4664  14.307   7.277  10.767
39504W        W 4665  29.055  15.330   1.990
39505W        W 4666  19.024  35.439  11.975
39506W        W 4667  39.956  24.780   2.267
39507W        W 4668   5.164  35.297   2.539
39508W        W 4669  13.056  17.244  13.377
39509W        W 4670  11.041   6.612  12.899
39510W        W 4671  44.521   5.797   0.564
39511W        W 4672  44.079   9.206   4.250
39512W        W 4673   5.951  32.269   3.150
39513W        W 4674  41.130  21.516  12.952
39514W        W 4675  36.147  37.043   2.194
39515W        W 4676  41.454  19.219  13.887
39516W        W 4677  15.719  35.479  11.255
39517W        W 4678  11.985   0.762   1.176
39518W        W 4679  22.968  38.771  10.325
39519W        W 4680   4.337  30.882   0.567
39520W        W 4681  13.703   5.667  10.968
39521W        W 4682   1.243  14.568  14.343
39522W        W 4683  26.900  35.063   1.325
39523W        W 4684   0.098   9.167   1.885
39524W        W 4685  11.169  30.434   1.290
39525W        W 4686  35.734  37.872  14.111
39526W        W 4687  38.983  27.065  12.533
39527W        W 4688  18.706  22.070  12.831
39528W        W 4689  11.887  17.072   1.388
39529W        W 4690  22.472   4.237  13.906
39530W        W 4691  10.201  33.286   2.353
39531W        W 4692  43.773   1.872  11.213
39532W        W 4693  29.648  43.069  13.299
39533W        W 4694  39.866  11.333  12.267
39534W        W 4695   6.845  10.355  14.360
39535W        W 4696  27.635  42.604   0.380
39536W        W 4697  22.562   8.192  11.542
39537W        W 4698  44.321  36.896   3.898
39538W        W 4699  11.177  20.601  12.128
39539W        W 4700  34.651   9.813  13.903
39540W        W 4701  17.196  26.080   1.851
39541W        W 4702   9.798  18.917   2.025
39542W        W 4703  36.452  21.520  14.216
39543W        W 4704  31.205  16.909  12.383
39544W        W 4705   8.225  20.023  13.651
39545W        W 4706   9.165  26.722   2.369
39546W        W 4707  25.303  19.580   4.710
39547W        W 4708  38.474   9.261   2.908
39548W        W 4709  42.843  42.506  10.936
39549W        W 4710   4.391  27.945  14.050
39550W        W 4711  21.446  37.229   0.210
39551W        W 4712  33.958  17.295  12.807
39552W        W 4713  26.206  31.539   0.388
39553W        W 4714  41.550  29.070  12.938
39554W        W 4715   8.878  29.005  11.623
39555W        W 4716  30.553  36.145   2.818
39556W        W 4717  22.127  21.169  13.385
39557W        W 4718   9.408   7.948   4.801
39558W        W 4719  11.989   6.179   0.879
39559W        W 4720   2.988   7.497  11.719
39560W        W 4721  18.293   3.786   3.679
39561W        W 4722   0.738   7.409   1.773
39562W        W 4723  18.079  26.921  10.690
39563W        W 4724  30.041   3.217   2.842
39564W        W 4725  13.730   5.596   3.326
39565W        W 4726  23.623  21.275  12.432
39566W        W 4727   0.408  34.625  14.428
39567W        W 4728   2.677  24.770   2.283
39568W        W 4729  15.598  20.189   3.134
39569W        W 4730  19.148  22.108  10.396
39570W        W 4731  21.553  25.654   3.674
39571W        W 4732  43.298  35.766  11.699
39572W        W 4733   1.061  38.762   3.229
39573W        W 4734  16.121  29.582   2.296
39574W        W 4735  41.329  40.300   2.282
39575W        W 4736   9.336  28.909   1.987
39576W        W 4737  40.039  13.248  12.984
39577W        W 4738  26.993  40.341   3.244
39578W        W 4739  15.664  14.656  10.825
39579W        W 4740  43.040  30.546  12.871
39580W        W 4741  29.507  27.428  12.784
39581W        W 4742  13.351  33.095  11.430
39582W        W 4743  38.827  36.442  10.987
39583W        W 4744  38.838  13.613  12.915
39584W        W 4745  28.069   0.219   4.346
39585W        W 4746   3.986  24.215  13.995
39586W        W 4747  16.226  44.691   5.311
39587W        W 4748  23.479  12.649  14.905
39588W        W 4749  14.512  41.515  13.125
39589W        W 4750  17.556  24.581  13.016
39590W        W 4751   9.159  31.178  14.997
39591W        W 4752  14.203  44.515   3.185
39592W        W 4753  12.825  12.377   2.712
39593W        W 4754   9.551   1.346   2.277
39594W        W 4755  14.366  15.865  14.983
39595W        W 4756   7.014  21.734  13.169
39596W        W 4757   1.714  32.099   1.693
39597W        W 4758  17.921  29.497   3.371
39598W        W 4759  17.790  36.918  11.063
39599W        W 4760  34.128  14.689  14.968
39600W        W 4761  41.453  18.272   0.928
39601W        W 4762  21.964  19.653   2.231
39602W        W 4763   6.162  19.305  11.945
39603W        W 4764  16.311  20.671   4.178
39604W        W 4765   0.259   4.459  11.018
39605W        W 4766   5.319  36.090  13.068
39606W        W 4767  20.116  14.510   4.552
39607W        W 4768  28.109  33.056   5.105
39608W        W 4769  24.056  44.371   1.350
39609W        W 4770   8.410  17.892  13.068
39610W        W 4771  24.457  35.983   2.725
39611W        W 4772  18.571  29.131  11.955
39612W        W 4773  14.422   4.429  12.811
39613W        W 4774  20.489   2.542  12.238
39614W        W 4775   0.839   1.167  14.526
39615W        W 4776  29.033  13.793  12.620
39616W        W 4777  41.687  43.710  12.600
39617W        W 4778  22.547  39.329   0.355
39618W        W 4779  10.803   6.908   4.320
39619W        W 4780  37.109  27.001  14.062
39620W        W 4781   4.088   1.229   0.472
39621W        W 4782  29.082  15.804  10.540
39622W        W 4783   1.304  10.939  13.505
39623W        W 4784  22.708  28.585  12.160
39624W        W 4785   5.199   3.438   4.177
39625W        W 4786  41.763  27.491  13.225
39626W        W 4787  15.070  40.991  11.263
39627W        W 4788  37.859  36.445   0.280
39628W        W 4789   4.954  19.196   3.746
39629W        W 4790  27.644  22.169  12.225
39630W        W 4791  36.108  19.036   3.314
39631W        W 4792   2.798   2.137   3.805
39632W        W 4793  16.090  25.174  14.432
39633W        W 4794  27.479  24.641  13.903
39634W        W 4795  43.784  15.702   2.831
39635W        W 4796   0.113  34.899   4.818
39636W        W 4797  33.785  35.051  12.049
39637W        W 4798  30.645  44.184   0.755
39638W        W 4799  16.777  24.363   4.014
39639W        W 4800  31.203  17.879  14.966
39640W        W 4801  21.352   8.707  11.649
39641W        W 4802  13.585  35.119  12.901
39642W        W 4803   4.801  30.449  14.605
39643W        W 4804  33.818  23.132   4.919
39644W        W 4805  19.979   4.023  14.244
39645W        W 4806  19.557   4.438  12.008
39646W        W 4807  36.540  29.749  11.090
39647W        W 4808  14.610   9.404   2.116
39648W        W 4809  22.564  19.216  14.723
39649W        W 4810  38.051  43.492   3.736
39650W        W 4811   1.294  26.025   1.409
39651W        W 4812  38.994   7.350   2.838
39652W        W 4813  21.697   9.298  10.915
39653W        W 4814  29.508  17.160  13.236
39654W        W 4815  23.019   5.897  13.055
39655W        W 4816  18.206  31.794   1.281
39656W        W 4817  26.523  15.823   1.015
39657W        W 4818  12.287  17.277  13.728
39658W        W 4819  21.656  16.042  13.590
39659W        W 4820  37.158  43.940   2.803
39660W        W 4821  22.021   9.072  11.221
39661W        W 4822  18.755  38.416   3.803
39662W        W 4823  23.974  28.031   4.380
39663W        W 4824  17.122   6.946  13.901
39664W        W 4825   5.587  31.508  13.418
39665W        W 4826  35.976  16.879  14.932
39666W        W 4827  24.625  40.906   0.004
39667W        W 4828  12.926  20.062   4.216
39668W        W 4829   8.746   0.987   5.071
39669W        W 4830   6.192   8.841   4.205
39670W        W 4831  18.031  21.753   2.257
39671W        W 4832   1.055  39.367   0.327
39672W        W 4833  30.504   9.360  11.196
39673W        W 4834  40.981   0.543   3.247
39674W        W 4835  24.825  31.322   3.168
39675W        W 4836   5.502   9.760  13.271
39676W        W 4837   0.991  17.720  11.992
39677W        W 4838  15.659  13.584   4.529
39678W        W 4839  17.298  23.713  13.456
39679W        W 4840  33.294  43.348  10.881
39680W        W 4841   5.456  42.594  12.434
39681W        W 4842  15.969  17.458   4.191
39682W        W 4843  20.091  32.197   3.187
39683W        W 4844   0.285   5.379  14.102
39684W        W 4845  30.965  18.939   0.256
39685W        W 4846  36.465  31.053   2.953
39686W        W 4847   7.589  27.244  11.148
39687W        W 4848  43.100  37.447   0.315
39688W        W 4849  20.094  19.647   4.553
39689W        W 4850  37.800  28.926  12.026
39690W        W 4851  21.500  16.206  13.139
39691W        W 4852  34.674  39.925   0.343
39692W        W 4853  35.802  14.053   1.388
39693W        W 4854  41.077  11.527  12.121
39694W        W 4855  15.671   9.583   3.255
39695W        W 4856   3.709  16.107  13.173
39696W        W 4857  11.218  21.872  13.864
39697W        W 4858  30.119  42.587  11.064
39698W        W 4859   1.720   4.840   4.112
39699W        W 4860  11.609  35.553  11.406
39700W        W 4861   4.742  34.903  13.853
39701W        W 4862   7.671  41.872  12.631
39702W        W 4863  20.432  17.426   0.420
39703W        W 4864   7.890   7.229  14.438
39704W        W 4865  44.249   3.356   1.367
39705W        W 4866  30.503  27.045  13.273
39706W        W 4867  37.826  32.568  11.641
39707W        W 4868  44.474  20.111  12.905
39708W        W 4869   6.804  20.533  11.917
39709W        W 4870  13.589  19.706  11.646
39710W        W 4871  36.996   7.642   3.700
39711W        W 4872  18.237  23.208   1.949
39712W        W 4873   2.210  39.388   2.607
39713W        W 4874   9.331  30.648   9.873
39714W        W 4875  40.876   6.907   1.647
39715W        W 4876   7.424  13.359  13.066
39716W        W 4877  22.028  12.301  11.428
39717W        W 4878  35.201  23.390   3.706
39718W        W 4879  36.178   5.163   0.739
39719W        W 4880   2.943  35.078   0.220
39720W        W 4881  31.142  42.285   4.500
39721W        W 4882   1.154   6.930   3.313
39722W        W 4883  31.297  26.486  12.443
39723W        W 4884  16.357  18.176   5.496
39724W        W 4885  24.694  30.666   3.646
39725W        W 4886  20.303  16.356   2.057
39726W        W 4887  19.662  40.750  11.676
39727W        W 4888   4.251  27.065  12.982
39728W        W 4889  26.498  32.979   3.209
39729W        W 4890  19.619  32.217  12.070
39730W        W 4891  13.988  14.349  14.498
39731W        W 4892  35.840  27.455   2.284
39732W        W 4893   6.321   3.358  11.152
39733W        W 4894  42.044  23.146   1.720
39734W        W 4895  19.994   7.481  10.287
39735W        W 4896  42.461   3.692   2.191
39736W        W 4897   7.526  33.692   3.086
39737W        W 4898  29.157   2.929  12.551
39738W        W 4899   2.558   2.726   0.259
39739W        W 4900   4.239  41.017   4.264
39740W        W 4901  41.433  20.864  11.219
39741W        W 4902  19.711  31.392   4.611
39742W        W 4903  18.166  33.594   1.712
39743W        W 4904  44.039   1.296   0.393
39744W        W 4905  15.263  26.202   3.183
39745W        W 4906  41.873  36.514  14.171
39746W        W 4907   2.636   8.052   1.871
39747W        W 4908  38.270  31.623  12.427
39748W        W 4909  34.369  17.132   4.587
39749W        W 4910  22.415  19.117  10.286
39750W        W 4911  26.923   2.389  11.601
39751W        W 4912  35.811  24.061   3.694
39752W        W 4913  14.352   8.438   1.291
39753W        W 4914  21.566  40.345   0.867
39754W        W 4915  23.977  12.487  10.534
39755W        W 4916  35.064  23.784  14.674
39756W        W 4917   8.231  28.232  10.778
39757W        W 4918  19.070  35.940   3.222
39758W        W 4919  25.862   1.729  11.062
39759W        W 4920  28.458   2.146   3.602
39760W        W 4921  19.336  24.532  14.408
39761W        W 4922   1.110  28.262  10.414
39762W        W 4923  37.640  22.891  13.463
39763W        W 4924  27.753  28.026  14.368
39764W        W 4925   6.752  16.615  11.443
39765W        W 4926  20.609  20.997   2.258
39766W        W 4927   7.139   6.898  12.456
39767W        W 4928  40.784  44.195  11.450
39768W        W 4929   1.052  16.580   4.265
39769W        W 4930  18.472  42.760   2.499
39770W        W 4931  27.083  31.071   4.578
39771W        W 4932  40.008  35.386  11.610
39772W        W 4933  21.963  20.356  10.753
39773W        W 4934   0.241  36.864   1.217
39774W        W 4935  14.715  32.163  13.939
39775W        W 4936  43.935  15.985  14.323
39776W        W 4937  24.109  25.471   1.784
39777W        W 4938  38.316   3.115   4.135
39778W        W 4939  40.417  44.964  12.996
39779W        W 4940  12.634  44.881  11.526
39780W        W 4941   2.739  31.603  14.221
39781W        W 4942  38.467  23.486   0.715
39782W        W 4943   7.741   5.721   3.817
39783W        W 4944  41.427  37.453   4.983
39784W        W 4945  33.736   1.992  11.635
39785W        W 4946  22.959  42.567  13.902
39786W        W 4947  24.966  37.945   1.307
39787W        W 4948  20.553  27.736  11.939
39788W        W 4949  11.705  34.486  14.950
39789W        W 4950  34.909  42.686  14.615
39790W        W 4951  15.402   9.878   4.124
39791W        W 4952  16.948  28.665  11.466
39792W        W 4953  44.192  31.126   3.690
39793W        W 4954  22.226  15.612  10.669
39794W        W 4955  43.465  27.165  11.367
39795W        W 4956  39.045  21.537   1.809
39796W        W 4957  33.484   6.871   1.307
39797W        W 4958   7.281  41.096  10.556
39798W        W 4959   6.019  13.619   2.943
39799W        W 4960  25.496  40.991   3.208
39800W        W 4961  35.445  23.467  12.371
39801W        W 4962  12.188   9.351   0.989
39802W        W 4963   3.799  27.697   3.703
39803W        W 4964   8.871  39.741  12.006
39804W        W 4965   2.099  26.838   4.944
39805W        W 4966  17.492  22.716  14.963
39806W        W 4967  41.089   5.701   2.230
39807W        W 4968  26.106  23.895   3.240
39808W        W 4969  22.589   0.256   2.496
39809W        W 4970  26.283  14.337  10.677
39810W        W 4971  14.739  43.954  11.154
39811W        W 4972  23.705  44.875   4.529
39812W        W 4973  26.418  37.317   4.108
39813W        W 4974  33.309  25.493   2.810
39814W        W 4975  38.016   5.925  10.955
39815W        W 4976  28.068   4.675   2.338
39816W        W 4977  13.663  39.525   9.857
39817W        W 4978  18.659  32.063   1.127
39818W        W 4979  27.988  35.939   3.156
39819W        W 4980  12.842  20.121  14.194
39820W        W 4981  39.636   7.697  11.971
39821W        W 4982  40.891  40.969   3.647
39822W        W 4983   7.654   8.117  11.734
39823W        W 4984  19.601  41.755   0.802
39824W        W 4985  26.197  38.449  14.793
39825W        W 4986  34.885   6.232  13.479
39826W        W 4987  41.469  11.136   1.474
39827W        W 4988  11.302  32.624  13.100
39828W        W 4989  24.273  30.920  11.134
39829W        W 4990  30.725  24.013  11.554
39830W        W 4991  14.532  27.210   4.465
39831W        W 4992  39.471  44.470   2.711
39832W        W 4993   8.666  10.980   4.465
39833W        W 4994  19.273  31.095   4.724
39834W        W 4995  36.049  41.334  14.839
39835W        W 4996   4.235  44.382   0.456
39836W        W 4997  41.457  18.886   0.216
39837W        W 4998   3.721   7.380  13.595
39838W        W 4999  34.550  11.269  11.213
39839W        W 5000   9.820  18.097   4.065
39840W        W 5001  34.889  29.440  14.395
39841W        W 5002  36.911  28.687   4.223
39842W        W 5003   6.891   8.635  12.086
39843W        W 5004  17.153  25.131  12.441
39844W        W 5005  30.866   7.852   4.939
39845W        W 5006  36.855  33.776   1.271
39846W        W 5007  29.973  25.656  12.583
39847W        W 5008  23.456  19.013  14.832
39848W        W 5009  26.050   2.732   2.207
39849W        W 5010  25.420  31.861   4.630
39850W        W 5011   1.544  33.677  10.716
39851W        W 5012  36.221  24.716  13.465
39852W        W 5013  34.044  36.773   2.239
39853W        W 5014  12.572   9.768   3.171
39854W        W 5015  33.402   2.265  13.109
39855W        W 5016  27.352  18.988   4.280
39856W        W 5017   2.358  43.325   0.966
39857W        W 5018   9.626  43.297  10.908
39858W        W 5019   2.023  13.683   0.238
39859W        W 5020  14.291  15.045   1.433
39860W        W 5021  13.619   3.244   0.878
39861W        W 5022  30.191  43.474  13.645
39862W        W 5023  39.033   5.714  14.564
39863W        W 5024  10.593  37.470  11.130
39864W        W 5025  25.740  44.404  12.555
39865W        W 5026  34.732   4.914   0.762
39866W        W 5027   1.556  31.974  10.967
39867W        W 5028  20.264  24.449  13.643
39868W        W 5029  19.086  22.564  11.230
39869W        W 5030  11.736  36.545  12.622
39870W        W 5031  16.280  17.342  10.063
39871W        W 5032  42.277  19.928   4.624
39872W        W 5033  26.533  35.852   1.168
39873W        W 5034   4.772  10.019   1.386
39874W        W 5035  37.082  40.392  13.300
39875W        W 5036  33.073  44.445   1.866
39876W        W 5037  22.243  33.153   0.849
39877W        W 5038   8.349  36.033  11.238
39878W        W 5039  27.420  21.869  13.062
39879W        W 5040   0.148   3.361  11.061
39880W        W 5041   1.636   7.677   4.663
39881W        W 5042  36.259  44.902  10.747
39882W        W 5043   5.207  40.406   2.324
39883W        W 5044  35.085  19.692   0.307
39884W        W 5045  29.472  37.658   1.293
39885W        W 5046  17.592  20.869  14.445
39886W        W 5047  32.458  30.163   1.706
39887W        W 5048  44.336  33.587  10.402
39888W        W 5049  30.975  15.340  11.546
39889W        W 5050  21.600  42.691   1.148
39890W        W 5051  26.752   1.440  14.276
39891W        W 5052  26.154   5.765  12.399
39892W        W 5053  33.354  25.735  14.468
39893W        W 5054  43.478   4.765   2.129
39894W        W 5055  12.323  43.835   3.443
39895W        W 5056  24.272   0.234  10.847
39896W        W 5057   6.144  11.751  12.436
39897W        W 5058  24.215  40.168  10.730
39898W        W 5059  31.262  18.975   2.833
39899W        W 5060  28.369  17.600  11.636
39900W        W 5061  18.309   6.157   1.958
39901W        W 5062  23.265   0.276  14.942
39902W        W 5063  40.350  30.363  12.022
39903W        W 5064  37.249  25.064   2.762
39904W        W 5065  14.218   4.466   1.774
39905W        W 5066   2.478  29.607  12.042
39906W        W 5067  38.318  34.955  13.526
39907W        W 5068   2.311   9.744  11.703
39908W        W 5069  32.752  31.342   0.773
39909W        W 5070  40.045   0.137   1.375
39910W        W 5071  41.785  11.784   1.698
39911W        W 5072  26.030  40.958  12.898
39912W        W 5073  31.359   7.087   1.915
39913W        W 5074  23.738  24.688   5.067
39914W        W 5075  39.996  14.242   4.056
39915W        W 5076  21.260  33.262   0.902
39916W        W 5077  19.377  29.369   2.300
39917W        W 5078  36.677   5.815  13.463
39918W        W 5079   1.481  39.001   3.040
39919W        W 5080   3.155  34.154  12.012
39920W        W 5081  26.657  35.652  12.029
39921W        W 5082  15.903  26.240   5.021
39922W        W 5083  12.340  13.180  14.949
39923W        W 5084  41.552  31.045  14.412
39924W        W 5085  14.594  42.539  13.558
39925W        W 5086   6.968  35.851  13.178
39926W        W 5087   5.473  38.323   3.371
39927W        W 5088   8.357  28.570  13.366
39928W        W 5089  13.207   0.445  11.174
39929W        W 5090  39.553  13.991   4.033
39930W        W 5091  18.133  15.544  12.958
39931W        W 5092  13.875  12.751  11.175
39932W        W 5093  25.681   7.179   2.707
39933W        W 5094   4.838  32.494  10.416
39934W        W 5095  29.878  25.231  12.334
39935W        W 5096  26.172  38.233   1.916
39936W        W 5097   9.254  17.010   1.377
39937W        W 5098  25.747  16.554  10.628
39938W        W 5099  33.847  44.754  14.424
39939W        W 5100  11.911  25.176   3.271
39940W        W 5101  33.998   0.677  12.446
39941W        W 5102   0.893  16.296   2.176
39942W        W 5103   7.219  24.795   4.699
39943W        W 5104  24.575  27.696  11.151
39944W        W 5105  43.421   2.304  13.732
39945W        W 5106  29.968  35.501   3.340
39946W        W 5107  28.865   0.568  12.583
39947W        W 5108  19.724   7.214   1.373
39948W        W 5109  22.196   2.330  14.772
39949W        W 5110  16.909  10.358   0.787
39950W        W 5111  23.145  22.749   0.894
39951W        W 5112  10.560   4.018  12.128
39952W        W 5113  38.883  40.792   1.362
39953W        W 5114  33.670  18.104   3.714
39954W        W 5115  18.686   7.512  12.362
39955W        W 5116   9.491   2.598   4.008
39956W        W 5117  20.992   6.139  13.896
39957W        W 5118  21.496   9.129  10.470
39958W        W 5119  35.912   8.862   1.962
39959W        W 5120  31.578  22.569  12.200
39960W        W 5121  31.105   9.356  10.629
39961W        W 5122  25.609  25.014  14.825
39962W        W 5123   2.733  42.347  13.323
39963W        W 5124  27.283  27.871  11.470
39964W        W 5125  39.308  37.970   2.521
39965W        W 5126  38.637   4.701  13.492
39966W        W 5127   0.175  10.052   4.053
39967W        W 5128   1.177  31.586   2.421
39968W        W 5129   9.670  11.265   2.758
39969W        W 5130  42.987  14.046  11.798
39970W        W 5131   7.251  38.889   0.255
39971W        W 5132  33.214  13.159   3.224
39972W        W 5133   7.052  31.324  13.543
39973W        W 5134  26.572  43.546  13.766
39974W        W 5135  27.093  31.075   3.580
39975W        W 5136  31.085  35.336  12.569
39976W        W 5137  11.029  17.130   1.982
39977W        W 5138  13.949  19.151  12.931
39978W        W 5139  26.356  23.460   0.336
39979W        W 5140  29.915  30.061  13.847
39980W        W 5141  32.944  36.600  14.052
39981W        W 5142  42.841  33.832   0.098
39982W        W 5143  36.009  25.518  11.137
39983W        W 5144  43.886  13.124   4.213
39984W        W 5145  25.863  14.366   1.493
39985W        W 5146  36.085  22.661   3.706
39986W        W 5147  19.230  30.153   0.926
39987W        W 5148  43.747  43.571  14.892
39988W        W 5149  43.753   7.419   1.179
39989W        W 5150  23.758  35.027  11.623
39990W        W 5151  11.837  43.916   2.425
39991W        W 5152   6.421  27.185   1.080
39992W        W 5153  44.844  14.183  11.749
39993W        W 5154  19.072  20.800  13.917
39994W        W 5155  11.211   8.481   4.171
39995W        W 5156  15.393  18.157  10.589
39996W        W 5157  38.788  35.333   0.379
39997W        W 5158  32.930  35.834   5.179
39998W        W 5159   1.330  31.420   1.038
39999W        W 5160  41.902   8.460  14.934
40000W        W 5161  42.574  12.933   1.970
40001W        W 5162  39.837  30.913  11.941
40002W        W 5163  41.985  17.816   2.175
40003W        W 5164  32.957  32.190  13.827
40004W        W 5165   9.219  15.991   1.472
40005W        W 5166  30.632   9.573  13.685
40006W        W 5167  29.145  15.544   1.194
40007W        W 5168  42.767   9.653  14.816
40008W        W 5169  34.287  43.476  11.121
40009W        W 5170  19.827  27.245  13.433
40010W        W 5171  10.850   2.468   1.297
40011W        W 5172  33.441  17.316   1.503
40012W        W 5173  35.841  18.293   1.793
40013W        W 5174  19.746  12.122   0.439
40014W        W 5175   5.448  15.541  10.949
40015W        W 5176  30.050  32.547  12.134
40016W        W 5177  31.695  13.874   2.796
40017W        W 5178  29.572  16.788   0.302
40018W        W 5179  34.958  24.046   1.686
40019W        W 5180  37.926   6.226   4.130
40020W        W 5181  43.971  14.806   2.765
40021W        W 5182  38.913  25.753   2.819
40022W        W 5183   7.320  25.623  12.967
40023W        W 5184  26.857  27.169   1.732
40024W        W 5185  38.412  13.330  10.527
40025W        W 5186  20.687  16.448   3.216
40026W        W 5187  24.267  20.494   2.722
40027W        W 5188   9.620  18.086  10.923
40028W        W 5189  31.985  33.552  11.636
40029W        W 5190  44.725   1.955  14.412
40030W        W 5191   3.321  15.263  12.355
40031W        W 5192  22.923  21.179   2.272
40032W        W 5193  36.027  26.651  11.117
40033W        W 5194  39.299  28.937   1.822
40034W        W 5195  14.400  16.312  14.004
40035W        W 5196  36.009  42.004  11.130
40036W        W 5197  23.204  29.505  12.424
40037W        W 5198  32.225  34.580  12.665
40038W        W 5199  15.349  28.987  14.825
40039W        W 5200  36.924  17.299  11.607
40040W        W 5201   2.542  30.358   3.757
40041W        W 5202   0.274  43.177   1.318
40042W        W 5203  41.901  12.179  11.649
40043W        W 5204  33.285  41.061  14.933
40044W        W 5205  15.813  42.524  12.059
40045W        W 5206  33.166  28.234   1.720
40046W        W 5207  16.439  19.304  14.806
40047W        W 5208  16.524  24.181  11.545
40048W        W 5209  11.608  31.901   4.207
40049W        W 5210  19.558  24.977  12.043
40050W        W 5211   9.802  15.260  13.852
40051W        W 5212  26.256  10.760  13.931
40052W        W 5213  30.618  17.047  14.782
40053W        W 5214   3.615  43.465   0.430
40054W        W 5215  19.004  39.297  13.006
40055W        W 5216  29.131  21.267   2.637
40056W        W 5217  28.488   6.825   3.724
40057W        W 5218  13.526   1.484   2.044
40058W        W 5219  15.486  41.477  13.964
40059W        W 5220  25.133   0.685  14.479
40060W        W 5221  22.252  22.880   0.560
40061W        W 5222  24.012  31.128  13.001
40062W        W 5223  18.605   4.967  11.630
40063W        W 5224  18.609  35.523   3.857
40064W        W 5225  43.470   3.368  13.021
40065W        W 5226  39.226  43.247  14.304
40066W        W 5227   6.761   1.134   3.697
40067W        W 5228  11.569   3.775   0.034
40068W        W 5229  41.410  24.160  14.404
40069W        W 5230   3.688  36.677  12.335
40070W        W 5231  29.049  32.386   2.221
40071W        W 5232  12.697  38.024   0.589
40072W        W 5233   3.213  15.731  11.068
40073W        W 5234  28.704   3.649   1.011
40074W        W 5235   0.777  24.911   0.208
40075W        W 5236  40.030   1.940  14.028
40076W        W 5237  13.548  39.016  14.102
40077W        W 5238   0.206  32.611  11.117
40078W        W 5239  21.970  34.813  14.753
40079W        W 5240   1.883   3.752   2.943
40080W        W 5241  19.640  23.982  12.042
40081W        W 5242  35.909  26.368   0.510
40082W        W 5243  40.754   6.751  12.021
40083W        W 5244  23.747  43.277   2.752
40084W        W 5245   0.154  12.214   3.492
40085W        W 5246   6.835   2.188  12.550
40086W        W 5247  10.877   5.795   1.713
40087W        W 5248  42.795   5.222  14.361
40088W        W 5249  12.243  32.649   4.046
40089W        W 5250   0.765  37.957   2.708
40090W        W 5251   8.953  15.719  11.984
40091W        W 5252  28.265  19.706  11.935
40092W        W 5253  16.281  34.887  11.765
40093W        W 5254   2.341  39.404   0.058
40094W        W 5255  19.088  31.935  12.138
40095W        W 5256  30.151   3.716  13.999
40096W        W 5257  37.301  44.217  11.089
40097W        W 5258  18.690  23.203   0.277
40098W        W 5259   2.434   4.694   1.921
40099W        W 5260  30.239  25.480  13.488
40100W        W 5261  16.525  20.499  10.675
40101W        W 5262  39.924  37.307  11.419
40102W        W 5263  35.567   7.181  11.391
40103W        W 5264  26.471  42.309  11.285
40104W        W 5265  30.057  13.032   1.656
40105W        W 5266  22.214  32.593   4.299
40106W        W 5267  38.862   4.256  13.631
40107W        W 5268  42.530  11.803   3.368
40108W        W 5269  12.729  26.167   1.388
40109W        W 5270  13.278  22.495   1.210
40110W        W 5271  18.292   8.812   4.156
40111W        W 5272  10.889  25.204   0.753
40112W        W 5273  19.590   2.212  12.618
40113W        W 5274  37.058  24.714   4.527
40114W        W 5275  18.726  42.847   3.770
40115W        W 5276  24.704  19.040   4.079
40116W        W 5277  42.716   8.827   4.402
40117W        W 5278  16.756  10.804  10.717
40118W        W 5279  43.331  25.719   1.858
40119W        W 5280  33.997   8.463   1.999
40120W        W 5281  44.704  44.814  12.699
40121W        W 5282  28.113  17.902   2.197
40122W        W 5283  43.923  26.162  11.900
40123W        W 5284   2.836  16.308   0.360
40124W        W 5285  16.776  34.434  14.006
40125W        W 5286   7.727  19.436  14.631
40126W        W 5287  17.077  18.220  13.191
40127W        W 5288  21.603  37.125  12.460
40128W        W 5289  12.379  13.765  11.578
40129W        W 5290   0.397  25.057   1.271
40130W        W 5291  16.999  29.887  12.603
40131W        W 5292  18.964   8.752   0.717
40132W        W 5293  41.339  37.948   4.765
40133W        W 5294  31.565   4.839  13.512
40134W        W 5295  20.348  16.797   1.278
40135W        W 5296  35.070  34.479  13.219
40136W        W 5297  41.528  32.126   3.145
40137W        W 5298  42.936  23.839  13.305
40138W        W 5299  23.891  19.786   1.403
40139W        W 5300  37.760  44.495  11.514
40140W        W 5301   7.076  30.223  11.696
40141W        W 5302  31.603  20.006   5.022
40142W        W 5303   9.323  16.494   3.666
40143W        W 5304  12.248   4.641   4.114
40144W        W 5305  22.193  20.725  13.650
40145W        W 5306   5.311   8.451   3.163
40146W        W 5307  11.554   5.756  11.321
40147W        W 5308  24.558  36.518  11.706
40148W        W 5309  30.135  44.218  11.937
40149W        W 5310  39.785   0.811  11.949
40150W        W 5311  31.368  38.500  12.049
40151W        W 5312   7.792  35.931  12.013
40152W        W 5313  19.547   2.234  14.886
40153W        W 5314   2.740  30.399   0.050
40154W        W 5315  25.408   1.271   0.713
40155W        W 5316   5.930  37.345   0.884
40156W        W 5317  40.925  33.081  11.632
40157W        W 5318  36.488  34.394   4.194
40158W        W 5319  37.719  33.371  12.442
40159W        W 5320  16.693  22.707   4.700
40160W        W 5321   2.498  11.034   3.129
40161W        W 5322  28.078  28.937   3.405
40162W        W 5323  38.671  25.964   4.070
40163W        W 5324  33.906  18.309   2.393
40164W        W 5325  38.480  34.605  13.861
40165W        W 5326  39.529  27.314  14.648
40166W        W 5327  17.597  24.058   2.753
40167W        W 5328  26.077   2.448  13.782
40168W        W 5329  22.626   9.191  11.789
40169W        W 5330  43.230   1.071   2.843
40170W        W 5331   0.366  25.298   2.274
40171W        W 5332  31.098  24.592   3.623
40172W        W 5333  22.856  24.853   5.351
40173W        W 5334   1.818  29.406   0.318
40174W        W 5335   9.252   1.239  11.961
40175W        W 5336  10.121   6.654  10.724
40176W        W 5337  42.847  24.342  13.422
40177W        W 5338  19.024  43.523  14.066
40178W        W 5339  14.663   0.519  12.024
40179W        W 5340   8.824  10.198  10.674
40180W        W 5341   3.736  26.003  13.103
40181W        W 5342  30.022  42.458  13.489
40182W        W 5343  40.517  34.310  13.062
40183W        W 5344   6.565   4.813  11.588
40184W        W 5345  17.726  43.102   9.712
40185W        W 5346   9.697  23.678   2.885
40186W        W 5347  12.386  39.353   1.278
40187W        W 5348  11.624  31.330  13.409
40188W        W 5349  15.803   4.668   1.820
40189W        W 5350  12.636  22.909  13.378
40190W        W 5351  28.382  42.812   0.492
40191W        W 5352  24.939  25.586  12.566
40192W        W 5353  37.493  19.612   0.472
40193W        W 5354   6.283  30.026   2.792
40194W        W 5355  19.081  44.310  11.412
40195W        W 5356  16.556  25.532   2.703
40196W        W 5357  28.372  42.402  11.838
40197W        W 5358  12.820   0.386   1.538
40198W        W 5359   2.290  33.966   9.588
40199W        W 5360  37.758  16.344  14.030
40200W        W 5361  26.452  33.495  14.963
40201W        W 5362  20.951  39.772   2.704
40202W        W 5363  15.348   0.855   2.035
40203W        W 5364   2.494  41.778   4.346
40204W        W 5365  10.140  15.278   4.497
40205W        W 5366  23.438  39.042   3.493
40206W        W 5367  14.090  41.358  12.352
40207W        W 5368  29.240   2.994   1.335
40208W        W 5369  19.043  20.671   1.910
40209W        W 5370  19.969   0.904  10.543
40210W        W 5371  19.071  13.493  11.653
40211W        W 5372  21.207  18.034   2.388
40212W        W 5373  23.933  23.690   4.918
40213W        W 5374  24.807  34.522  12.654
40214W        W 5375  44.876  27.189   1.740
40215W        W 5376  23.091  32.597   4.196
40216W        W 5377  10.356  43.288   4.394
40217W        W 5378  33.411  27.189   2.363
40218W        W 5379  25.382  17.204   4.109
40219W        W 5380  22.096  29.648   3.746
40220W        W 5381  33.885  39.457   2.084
40221W        W 5382  33.454  27.704   2.317
40222W        W 5383  18.738  38.917   3.749
40223W        W 5384  40.388  15.347  13.954
40224W        W 5385   7.162  43.888  12.947
40225W        W 5386   5.843  32.867  14.953
40226W        W 5387  12.613  31.612   1.448
40227W        W 5388   1.689  26.347  11.322
40228W        W 5389   3.393   8.844   3.519
40229W        W 5390  28.814  24.928   4.844
40230W        W 5391  17.655   6.811  12.690
40231W        W 5392  31.298   5.677  11.728
40232W        W 5393  37.672   8.096   4.709
40233W        W 5394  38.004  37.049  14.590
40234W        W 5395  26.197  27.646   4.542
40235W        W 5396  35.416  42.497  14.492
40236W        W 5397  23.040  37.997   4.230
40237W        W 5398   7.961  39.478   4.132
40238W        W 5399  35.682   0.771   3.153
40239W        W 5400  37.457  40.633  12.516
40240W        W 5401   3.826  26.686   1.779
40241W        W 5402  10.472   5.752   3.009
40242W        W 5403  37.310  10.680  11.013
40243W        W 5404  31.652   1.707   0.500
40244W        W 5405  24.463  11.848   2.483
40245W        W 5406  24.738  40.610   4.031
40246W        W 5407  39.393  44.968  10.684
40247W        W 5408   7.307  15.644  11.947
40248W        W 5409  44.090  15.123   0.430
40249W        W 5410  16.779  42.960   4.482
40250W        W 5411  16.034  32.837   1.554
40251W        W 5412  10.141  14.993  13.549
40252W        W 5413  42.809  33.407  13.824
40253W        W 5414  21.533  30.331  11.178
40254W        W 5415  24.625  20.539   0.228
40255W        W 5416   8.705   3.204   0.760
40256W        W 5417  28.164  23.215  11.655
40257W        W 5418  38.931   0.326   0.369
40258W        W 5419  34.985  40.797   2.914
40259W        W 5420   3.407  29.722  11.181
40260W        W 5421  34.340  33.543   2.740
40261W        W 5422  33.537  37.678   2.139
40262W        W 5423  42.354  37.585  14.902
40263W        W 5424   3.794  44.287  14.259
40264W        W 5425   2.160   8.137   1.726
40265W        W 5426   1.462  38.520   4.465
40266W        W 5427  27.438   1.719   4.652
40267W        W 5428  12.119  30.560  10.784
40268W        W 5429  38.487   6.439  12.489
40269W        W 5430  43.456   8.044  14.248
40270W        W 5431  37.011  28.704  12.454
40271W        W 5432  18.036  10.268  10.832
40272W        W 5433  20.597  12.287  13.787
40273W        W 5434   4.899  21.164   3.726
40274W        W 5435   0.655  16.981   4.391
40275W        W 5436  19.134  27.904  13.954
40276W        W 5437  41.826  16.045   1.312
40277W        W 5438  17.013  17.781  14.184
40278W        W 5439   7.979   4.918  12.535
40279W        W 5440  16.101   4.954  14.047
40280W        W 5441  44.360  42.461   1.323
40281W        W 5442   4.304  27.563   3.948
40282W        W 5443  35.037  16.434   2.000
40283W        W 5444  31.910  32.581   1.227
40284W        W 5445  33.056  16.572   2.624
40285W        W 5446  26.187  11.276  13.651
40286W        W 5447  15.347   4.744   0.889
40287W        W 5448  27.466  13.633  14.995
40288W        W 5449  30.560  30.139   0.128
40289W        W 5450   8.236   1.427   1.875
40290W        W 5451  32.840   7.785  12.130
40291W        W 5452  32.368   5.795  13.039
40292W        W 5453  34.566   3.405   1.866
40293W        W 5454  44.261  38.842  13.910
40294W        W 5455  20.881  10.723  13.386
40295W        W 5456   7.338  18.523   4.580
40296W        W 5457  19.469  39.396  14.680
40297W        W 5458  22.612  32.201  14.859
40298W        W 5459   8.255  42.508   1.576
40299W        W 5460   1.181  35.426   3.311
40300W        W 5461  20.125  23.111  14.061
40301W        W 5462   8.327   9.225  13.512
40302W        W 5463  12.893  33.744  10.977
40303W        W 5464  29.637  36.868   4.932
40304W        W 5465   9.706  26.260   1.257
40305W        W 5466  27.182  10.175  10.007
40306W        W 5467  10.916  10.745   4.183
40307W        W 5468  17.596  12.157   1.584
40308W        W 5469  17.598   0.498  13.399
40309W        W 5470   9.276  34.620  14.027
40310W        W 5471  32.062   3.358   0.834
40311W        W 5472  10.648  27.454  14.424
40312W        W 5473   7.401   1.956   1.163
40313W        W 5474  42.318  15.349  13.630
40314W        W 5475  17.616  33.830  14.830
40315W        W 5476  40.407  31.099  13.333
40316W        W 5477  18.744  22.974   0.723
40317W        W 5478  34.095  11.384  12.872
40318W        W 5479   4.944  17.264   3.229
40319W        W 5480  10.567   1.220   3.248
40320W        W 5481   9.770   2.235  12.563
40321W        W 5482   1.754  25.228   3.704
40322W        W 5483   9.723   1.834  13.390
40323W        W 5484  14.754   0.492   2.937
40324W        W 5485   8.503   4.739   2.710
40325W        W 5486  37.525  24.656  12.144
40326W        W 5487  20.176  25.625  11.114
40327W        W 5488  20.632  40.304  11.024
40328W        W 5489   9.323   9.829   2.634
40329W        W 5490  27.050  41.770   3.787
40330W        W 5491  16.825  37.419  11.463
40331W        W 5492  32.155  39.986  12.044
40332W        W 5493   0.467  38.837   4.465
40333W        W 5494  44.916  20.719   1.377
40334W        W 5495  28.604   4.938  13.541
40335W        W 5496  43.970  43.737  12.795
40336W        W 5497   2.900  30.519  14.537
40337W        W 5498  19.758   5.082   2.110
40338W        W 5499  12.900  25.024  11.021
40339W        W 5500  27.609  31.025   0.158
40340W        W 5501  38.598  10.949  13.470
40341W        W 5502  43.797  30.818   3.813
40342W        W 5503  18.757  31.728   2.387
40343W        W 5504  44.070  39.788   5.106
40344W        W 5505  41.960  16.613   2.823
40345W        W 5506  29.436  23.926   0.812
40346W        W 5507  44.245  17.783  11.644
40347W        W 5508  41.173   8.158  11.154
40348W        W 5509  31.830  44.283  14.410
40349W        W 5510   4.626  30.774  10.340
40350W        W 5511  39.891  11.615   2.234
40351W        W 5512   0.865  30.194  11.933
40352W        W 5513  27.520   1.453   2.862
40353W        W 5514  19.240  14.212  13.400
40354W        W 5515   4.865  40.789  13.816
40355W        W 5516  40.001  36.618   1.429
40356W        W 5517   9.469   7.213  11.839
40357W        W 5518  35.836  10.643  13.867
40358W        W 5519  42.228   5.251  13.838
40359W        W 5520  43.352   7.225   1.440
40360W        W 5521   3.924  12.677  11.214
40361W        W 5522  35.464   5.339  13.820
40362W        W 5523  30.920  16.239  10.652
40363W        W 5524  36.068  37.242   3.730
40364W        W 5525  19.052  44.519   3.270
40365W        W 5526  26.735  10.608  13.801
40366W        W 5527  36.817  14.810  12.953
40367W        W 5528   8.592  31.390   4.411
40368W        W 5529  31.484  30.885   4.210
40369W        W 5530  40.433  28.444  12.480
40370W        W 5531  24.441  10.180  14.857
40371W        W 5532  25.023  43.877   1.755
40372W        W 5533  22.467  23.822  11.067
40373W        W 5534  14.657  39.399   1.939
40374W        W 5535  34.606  18.512   1.679
40375W        W 5536  30.669  36.264  12.529
40376W        W 5537  18.032   2.705  10.910
40377W        W 5538  19.969  26.391  10.735
40378W        W 5539  16.328  35.306  12.102
40379W        W 5540   5.790  16.755  10.651
40380W        W 5541  26.063  24.070  10.395
40381W        W 5542  42.848  32.188  14.418
40382W        W 5543  19.394  37.134  14.271
40383W        W 5544  36.089  42.552   0.263
40384W        W 5545  40.270   4.675  12.912
40385W        W 5546  26.580  25.957  12.396
40386W        W 5547   0.301   0.478   2.789
40387W        W 5548  11.956  19.434   1.287
40388W        W 5549  32.846   8.662  12.388
40389W        W 5550   2.973   0.007   0.348
40390W        W 5551   4.406  23.669   0.041
40391W        W 5552  34.490  16.239   1.338
40392W        W 5553  24.991  31.971   2.059
40393W        W 5554  17.656   1.833   2.876
40394W        W 5555  39.379  23.011   2.808
40395W        W 5556   5.770   7.293   3.783
40396W        W 5557   8.710   7.126  12.977
40397W        W 5558  26.940   4.804  11.231
40398W        W 5559   8.222  20.358  14.040
40399W        W 5560  13.676  14.779  11.706
40400W        W 5561   6.363  39.441  13.505
40401W        W 5562  20.189  32.444   1.404
40402W        W 5563  35.979  40.210   4.558
40403W        W 5564  11.221  36.851   1.851
40404W        W 5565  26.457  15.460  13.270
40405W        W 5566  16.165  34.601   3.696
40406W        W 5567   5.467  13.980   4.165
40407W        W 5568   5.594  36.417  13.359
40408W        W 5569  40.023  17.178  14.973
40409W        W 5570  17.092  23.945   5.140
40410W        W 5571  30.660  11.027  13.929
40411W        W 5572  25.732  28.090   2.728
40412W        W 5573  22.467  31.343  12.294
40413W        W 5574  42.007  44.181  13.454
40414W        W 5575  30.945   3.700  14.402
40415W        W 5576  39.702   2.904  13.949
40416W        W 5577  23.938  11.699   2.241
40417W        W 5578  29.704  14.776   1.284
40418W        W 5579  22.630  15.237  12.568
40419W        W 5580  27.178  23.584  10.641
40420W        W 5581   7.677  11.851   4.480
40421W        W 5582  29.701  15.177  11.253
40422W        W 5583  25.493  12.074  11.509
40423W        W 5584  36.599  43.295  10.681
40424W        W 5585  40.770  40.085   4.158
40425W        W 5586   9.933   6.560  11.189
40426W        W 5587   9.564  33.381   0.256
40427W        W 5588   2.332  33.092   3.909
40428W        W 5589   3.260  10.860   2.072
40429W        W 5590  25.534  19.058   3.706
40430W        W 5591  36.785  24.040  14.978
40431W        W 5592  15.029  12.929   0.251
40432W        W 5593  42.926  11.852   0.486
40433W        W 5594  39.465  42.360   2.765
40434W        W 5595   9.753  13.370   1.697
40435W        W 5596   6.436  24.756  12.930
40436W        W 5597  24.104   1.280   1.821
40437W        W 5598  15.034  30.900  12.653
40438W        W 5599   0.933  21.041   3.358
40439W        W 5600  21.080   9.879   3.886
40440W        W 5601  32.517   3.541  10.683
40441W        W 5602  37.492  36.013   1.402
40442W        W 5603  24.048  35.965   0.318
40443W        W 5604  15.626   7.630   3.873
40444W        W 5605  15.247  20.998  14.715
40445W        W 5606  27.988  23.565   4.989
40446W        W 5607  11.269   5.173  13.378
40447W        W 5608   7.787   2.191  11.972
40448W        W 5609  32.427  13.604  12.543
40449W        W 5610  27.933   6.772  11.164
40450W        W 5611  28.523   6.351  11.885
40451W        W 5612  40.099   3.063   3.645
40452W        W 5613  13.529  30.187  11.958
40453W        W 5614   5.844  30.091   1.296
40454W        W 5615  11.520  14.855   4.618
40455W        W 5616  17.844  15.235  11.609
40456W        W 5617  44.377  26.673  13.316
40457W        W 5618  20.268  32.166  10.419
40458W        W 5619  10.914   3.694  11.543
40459W        W 5620  23.973  12.789   0.767
40460W        W 5621   5.405   1.296  14.395
40461W        W 5622  13.812  23.467   1.519
40462W        W 5623   1.892  22.679  10.776
40463W        W 5624  16.030  12.164  11.112
40464W        W 5625  34.589   1.947  13.241
40465W        W 5626   4.954   4.628  13.435
40466W        W 5627  35.706  32.325  10.691
40467W        W 5628   3.959  31.502  12.669
40468W        W 5629  19.874  24.985   3.447
40469W        W 5630  29.068  18.888   1.001
40470W        W 5631  23.632  39.531   1.152
40471W        W 5632  10.536  33.564   2.103
40472W        W 5633   3.872  30.164  14.326
40473W        W 5634  25.469  28.002  11.712
40474W        W 5635  11.895  40.431   2.968
40475W        W 5636   8.461   9.692   1.661
40476W        W 5637  16.716  36.242  14.009
40477W        W 5638  38.827  24.094  12.077
40478W        W 5639  24.300  16.243   2.336
40479W        W 5640   2.357  37.072   2.893
40480W        W 5641   9.282  18.841   1.693
40481W        W 5642  17.780  35.863   1.432
40482W        W 5643  32.493   5.225  11.333
40483W        W 5644  32.186   9.198  13.378
40484W        W 5645  33.505   4.520   0.829
40485W        W 5646   2.501  27.976  14.816
40486W        W 5647  36.154  17.682  12.696
40487W        W 5648   2.205   3.925   5.024
40488W        W 5649  21.707  12.826  13.812
40489W        W 5650  20.839   8.575  11.544
40490W        W 5651  32.296   6.429   1.826
40491W        W 5652  23.908  36.535   2.082
40492W        W 5653  36.709   4.894   0.814
40493W        W 5654  44.030  22.104   4.189
40494W        W 5655   7.592  35.975  13.918
40495W        W 5656  37.126  11.620  10.772
40496W        W 5657  34.323  22.797   2.770
40497W        W 5658  25.526  13.805  11.686
40498W        W 5659  17.721  32.211  14.407
40499W        W 5660  17.625  43.497  10.199
40500W        W 5661  27.997  40.661   0.865
40501W        W 5662  24.152  19.199  12.354
40502W        W 5663  33.013   0.276   4.406
40503W        W 5664  23.534   6.877   0.933
40504W        W 5665  18.156   0.814  14.808
40505W        W 5666  38.546   0.951   3.180
40506W        W 5667   8.544  23.480  14.072
40507W        W 5668  37.683  24.134  11.673
40508W        W 5669  10.842  26.709   4.121
40509W        W 5670  41.641  40.620  14.870
40510W        W 5671   3.022  37.427   1.237
40511W        W 5672   2.323  26.696  10.882
40512W        W 5673  18.808  12.079  14.288
40513W        W 5674  13.155   9.269   4.270
40514W        W 5675   6.734   9.812  14.402
40515W        W 5676  39.148  17.231  12.064
40516W        W 5677  42.333  10.257  12.316
40517W        W 5678   0.368   1.834   2.667
40518W        W 5679  32.529  39.959  10.087
40519W        W 5680  25.897  28.052   4.531
40520W        W 5681   7.596  25.700   4.565
40521W        W 5682   5.758  16.343  10.953
40522W        W 5683  12.186  42.075  13.930
40523W        W 5684   2.454   7.761   2.705
40524W        W 5685  40.627  21.656  13.023
40525W        W 5686  32.360   0.907  11.228
40526W        W 5687  10.355  14.047  14.540
40527W        W 5688  23.001  14.132   2.523
40528W        W 5689  16.509  33.918   3.794
40529W        W 5690   9.698  43.815  11.585
40530W        W 5691  12.261  24.946  14.080
40531W        W 5692  13.199  30.761   1.458
40532W        W 5693  22.779  44.305   1.906
40533W        W 5694   0.883   5.724   1.549
40534W        W 5695  38.455  41.077  11.338
40535W        W 5696   5.701   5.750  11.124
40536W        W 5697  17.973  32.404   3.152
40537W        W 5698  36.471  28.118   4.702
40538W        W 5699  33.606  40.652   2.159
40539W        W 5700  36.534  32.659  12.020
40540W        W 5701  43.958  39.718  12.144
40541W        W 5702   9.282   8.625   2.474
40542W        W 5703  22.939  29.221   0.203
40543W        W 5704  33.357   9.355   1.300
40544W        W 5705  10.087  13.136   2.971
40545W        W 5706  28.910  20.092  10.710
40546W        W 5707  38.356  19.501  11.127
40547W        W 5708  37.237   5.489   2.219
40548W        W 5709  32.901  32.813   0.893
40549W        W 5710  35.121  35.532   3.233
40550W        W 5711  26.914  25.260  11.055
40551W        W 5712  22.000   0.225   0.830
40552W        W 5713  14.905  39.992   2.285
40553W        W 5714   2.736   8.146  14.936
40554W        W 5715  27.140  17.181   3.820
40555W        W 5716  40.744  41.304  12.886
40556W        W 5717  44.273  33.894   2.981
40557W        W 5718  33.885  19.612  12.973
40558W        W 5719   0.754  28.000   4.632
40559W        W 5720  17.187  16.134   3.546
40560W        W 5721  33.852  22.109  12.451
40561W        W 5722   3.459  32.403   1.397
40562W        W 5723  20.720  24.994  10.793
40563W        W 5724   1.096  25.993  14.531
40564W        W 5725  24.239   1.386  13.971
40565W        W 5726  40.962  22.872  10.790
40566W        W 5727  26.650  41.971   4.304
40567W        W 5728   5.917   5.189  14.016
40568W        W 5729   2.862  22.596  11.182
40569W        W 5730  19.246  10.358   2.248
40570W        W 5731  28.051   3.238  13.159
40571W        W 5732  43.497  22.519  11.044
40572W        W 5733  44.795  41.391   0.234
40573W        W 5734  32.712  34.902   2.663
40574W        W 5735  15.167  37.090   2.218
40575W        W 5736  21.461  21.568   1.233
40576W        W 5737  35.831   6.773  14.603
40577W        W 5738  24.822  28.591  12.788
40578W        W 5739  11.613  38.078  11.892
40579W        W 5740   9.700  35.715  14.559
40580W        W 5741  43.744  40.371  13.875
40581W        W 5742  44.835   5.793  14.256
40582W        W 5743  44.899  17.062  11.431
40583W        W 5744  16.755  25.114  10.784
40584W        W 5745  34.176  40.707  11.994
40585W        W 5746  21.630  38.416  13.991
40586W        W 5747  31.430   7.961   4.206
40587W        W 5748  44.419  21.123  10.259
40588W        W 5749  26.550  25.419   0.833
40589W        W 5750  33.129  19.319  11.624
40590W        W 5751  26.073  22.614   1.361
40591W        W 5752  16.031   4.697  10.258
40592W        W 5753  20.941  22.867  13.034
40593W        W 5754  29.160   5.968   3.388
40594W        W 5755  12.937  13.935  10.919
40595W        W 5756  21.295  20.545  11.481
40596W        W 5757  17.991  35.901  13.766
40597W        W 5758  15.705  33.663   5.161
40598W        W 5759  41.272  43.708   0.353
40599W        W 5760  18.879  16.644  13.548
40600W        W 5761  25.302  18.113  14.282
40601W        W 5762   5.338  35.059  12.593
40602W        W 5763  34.938  41.549   3.246
40603W        W 5764  14.661  14.686   1.262
40604W        W 5765  13.771   6.944   1.483
40605W        W 5766  25.800  15.094   4.604
40606W        W 5767  18.256  24.180  13.521
40607W        W 5768  40.014  16.351   3.639
40608W        W 5769  30.375   6.176   1.843
40609W        W 5770  42.089  13.272  10.708
40610W        W 5771   9.278  38.003   0.683
40611W        W 5772  21.756  36.828   4.137
40612W        W 5773  27.994   9.907   3.816
40613W        W 5774  42.946  34.703   3.497
40614W        W 5775  29.973   3.202  14.107
40615W        W 5776   1.845  20.933  11.839
40616W        W 5777  22.421  39.029   3.523
40617W        W 5778  37.435  38.974  14.928
40618W        W 5779  22.247  27.179   1.755
40619W        W 5780   9.387  15.259   0.470
40620W        W 5781  19.820  16.092  14.274
40621W        W 5782  29.526  41.704  10.078
40622W        W 5783  42.829  43.458   0.746
40623W        W 5784  32.084  36.880   0.782
40624W        W 5785   0.751  17.647   2.206
40625W        W 5786  36.387  25.483  11.885
40626W        W 5787  25.736  41.423  11.648
40627W        W 5788  28.500   0.847   1.409
40628W        W 5789  30.032  40.836   3.596
40629W        W 5790  32.689  15.974  11.481
40630W        W 5791   3.992  20.563  12.496
40631W        W 5792  22.369   5.326   2.372
40632W        W 5793  20.744  25.226   2.831
40633W        W 5794   4.694  43.548   3.382
40634W        W 5795   7.827   1.036  11.597
40635W        W 5796  41.479   1.904   2.041
40636W        W 5797  38.828  25.160  13.887
40637W        W 5798   6.012   9.623   1.979
40638W        W 5799  20.789  30.522  14.971
40639W        W 5800  35.398   6.238  13.408
40640W        W 5801  39.928  39.257  14.179
40641W        W 5802  26.984  38.982  12.628
40642W        W 5803  35.291  28.889  13.574
40643W        W 5804  22.507  20.941   4.906
40644W        W 5805  33.504   6.464  14.992
40645W        W 5806  16.282  12.807   4.934
40646W        W 5807  12.797  31.435   4.626
40647W        W 5808  31.034  33.984  14.935
40648W        W 5809  19.553  39.238   1.399
40649W        W 5810   1.264  40.746  13.866
40650W        W 5811  20.814  32.928   0.871
40651W        W 5812  39.738  42.753  12.004
40652W        W 5813   0.392  34.237  11.225
40653W        W 5814  18.071  11.120  10.723
40654W        W 5815  11.852   3.932  13.558
40655W        W 5816  17.346   3.822  14.938
40656W        W 5817  15.024   6.215  13.007
40657W        W 5818  22.185   5.486   2.853
40658W        W 5819  29.321  21.111   4.781
40659W        W 5820  16.792   9.934   1.834
40660W        W 5821  13.880  15.650  14.759
40661W        W 5822  14.967  39.180   4.585
40662W        W 5823  38.074  29.853   3.839
40663W        W 5824  41.728  11.176  11.646
40664W        W 5825  32.800  37.024  12.832
40665W        W 5826  19.987   1.756   2.359
40666W        W 5827  42.719  32.613   3.438
40667W        W 5828  28.208  21.962   4.009
40668W        W 5829   4.338  29.546  13.251
40669W        W 5830  24.169  44.996   2.409
40670W        W 5831  18.319   1.299  14.821
40671W        W 5832  29.103  33.449   2.272
40672W        W 5833  26.521  41.315  14.254
40673W        W 5834  26.761  34.133  11.350
40674W        W 5835  16.041   1.275   1.710
40675W        W 5836  28.452  17.290   0.699
40676W        W 5837  43.888   9.895  14.297
40677W        W 5838  21.603  13.066  12.835
40678W        W 5839  35.072   2.344  12.178
40679W        W 5840  28.842  14.167   1.444
40680W        W 5841  33.631   4.521  13.982
40681W        W 5842  13.615  38.264  13.416
40682W        W 5843  30.786   7.216  13.937
40683W        W 5844  25.596  43.735   0.817
40684W        W 5845  37.900   4.477   1.515
40685W        W 5846  39.761  16.010  13.907
40686W        W 5847   0.506  22.466   0.204
40687W        W 5848  28.674   5.960   1.231
40688W        W 5849   3.852  34.621  12.463
40689W        W 5850  31.674  22.984  13.011
40690W        W 5851  36.424  20.237   0.287
40691W        W 5852  43.968  17.850  10.971
40692W        W 5853  27.754  40.797   3.206
40693W        W 5854  27.756  16.112   3.735
40694W        W 5855  32.361   7.176   5.014
40695W        W 5856  30.386   8.340   1.887
40696W        W 5857  43.484  44.809  12.149
40697W        W 5858  11.304   5.884   2.035
40698W        W 5859   1.579  38.430  10.996
40699W        W 5860   8.867  31.153   2.408
40700W        W 5861   0.780   2.205  11.449
40701W        W 5862  27.662  25.641  14.353
40702W        W 5863  23.651  21.233  11.574
40703W        W 5864  27.910   5.994   2.748
40704W        W 5865  18.275  34.114  13.984
40705W        W 5866   6.216  33.046  11.149
40706W        W 5867   8.844  32.504   2.363
40707W        W 5868  28.410  42.435   0.832
40708W        W 5869  28.205  16.925  13.904
40709W        W 5870  25.002  20.583   3.873
40710W        W 5871  37.093  24.498   0.836
40711W        W 5872  14.711  25.977   1.685
40712W        W 5873  24.626  27.764   4.911
40713W        W 5874  44.771  27.532   2.320
40714W        W 5875   4.656  12.371   3.284
40715W        W 5876  42.410  41.052   1.757
40716W        W 5877  36.209  28.439  13.537
40717W        W 5878  18.603  13.348  10.528
40718W        W 5879  27.450  37.309   0.762
40719W        W 5880  16.501   3.320   1.335
40720W        W 5881  38.112   2.938   2.791
40721W        W 5882  43.520  40.266  10.756
40722W        W 5883  22.400  32.984  14.002
40723W        W 5884  39.241  31.057  14.744
40724W        W 5885  25.902  31.968   2.581
40725W        W 5886  10.768  31.761   0.274
40726W        W 5887  11.290  10.322  10.361
40727W        W 5888  16.968   7.652  10.837
40728W        W 5889   2.375   7.203  11.256
40729W        W 5890  39.738  39.727   4.612
40730W        W 5891  13.857   7.441  13.902
40731W        W 5892  20.022  20.389   5.030
40732W        W 5893  28.362   5.131   4.093
40733W        W 5894  18.476   3.844  11.497
40734W        W 5895  11.096  44.215   4.413
40735W        W 5896   0.282  31.798   4.189
40736W        W 5897  36.115  43.470   3.616
40737W        W 5898   2.536   6.327  10.704
40738W        W 5899  23.475  32.131  11.093
40739W        W 5900   2.918   1.032   1.732
40740W        W 5901   3.343  35.720  13.932
40741W        W 5902   5.365   0.916   3.833
40742W        W 5903  18.202  25.981  13.827
40743W        W 5904  23.405  12.640  12.326
40744W        W 5905  23.282  17.624   3.490
40745W        W 5906  20.561  35.376   3.291
40746W        W 5907  23.922  10.960  10.379
40747W        W 5908  27.532  34.787  12.921
40748W        W 5909   2.768  27.522  14.231
40749W        W 5910   7.012  11.486  11.205
40750W        W 5911  19.019   2.869  10.425
40751W        W 5912  42.407  26.051  11.269
40752W        W 5913  39.807  37.480   3.197
40753W        W 5914  44.516  23.211   2.225
40754W        W 5915  35.297  36.851  14.658
40755W        W 5916   5.350  22.012  10.555
40756W        W 5917  34.435  26.539  13.886
40757W        W 5918  40.446  39.093   3.603
40758W        W 5919   6.657   3.748  12.561
40759W        W 5920  34.340   0.694   4.183
40760W        W 5921  22.522  12.953  13.167
40761W        W 5922  44.802  28.945   4.503
40762W        W 5923  24.470   7.165  11.496
40763W        W 5924  18.777  35.840   1.452
40764W        W 5925  16.230  39.919  12.993
40765W        W 5926  43.853  35.924   0.900
40766W        W 5927   5.729  10.883   4.604
40767W        W 5928  16.124  31.303  10.549
40768W        W 5929  35.624  32.782  12.777
40769W        W 5930  36.974  26.904  13.088
40770W        W 5931   4.795  34.519  10.723
40771W        W 5932  19.207   1.244  13.138
40772W        W 5933  28.153  32.307   1.227
40773W        W 5934  29.379  17.565  14.891
40774W        W 5935  44.840  23.072   3.119
40775W        W 5936  42.431  26.785  11.758
40776W        W 5937  27.112  26.718   2.942
40777W        W 5938   8.902   3.348   4.061
40778W        W 5939  31.522  41.725  11.952
40779W        W 5940  11.121  33.633   4.698
40780W        W 5941  34.933  13.856  10.560
40781W        W 5942  42.223  41.429  14.894
40782W        W 5943  15.684  33.456  11.549
40783W        W 5944  15.772  22.662  14.533
40784W        W 5945  36.303   9.123  13.326
40785W        W 5946  40.511  21.143   3.047
40786W        W 5947   5.676  16.514  14.536
40787W        W 5948  12.455  23.253  11.178
40788W        W 5949   5.167  10.905   2.628
40789W        W 5950  18.810  39.236   0.669
40790W        W 5951   5.839   9.917  11.100
40791W        W 5952   9.622  27.127  13.779
40792W        W 5953  37.633  40.452  13.389
40793W        W 5954  12.381   9.348  13.451
40794W        W 5955   2.055   7.210   0.421
40795W        W 5956  10.068  30.580   4.975
40796W        W 5957  43.518  23.222  10.757
40797W        W 5958  33.917  27.791   3.903
40798W        W 5959  25.449  15.397   0.019
40799W        W 5960  43.651   8.017   0.982
40800W        W 5961  41.351  20.464  14.365
40801W        W 5962   0.040  23.935  13.941
40802W        W 5963  21.296   4.863   0.863
40803W        W 5964   5.920  44.879   1.301
40804W        W 5965  35.002   6.773   0.805
40805W        W 5966  42.109  24.613   2.396
40806W        W 5967  24.773  43.720   3.127
40807W        W 5968  42.357  18.277  12.589
40808W        W 5969  13.282  44.009  12.978
40809W        W 5970  35.021  32.346   2.894
40810W        W 5971   3.797   0.123  12.574
40811W        W 5972  17.223  11.768  13.425
40812W        W 5973  32.128  40.274  11.592
40813W        W 5974  25.571  21.701   5.537
40814W        W 5975   4.299  34.844  11.552
40815W        W 5976  31.959  18.932  14.411
40816W        W 5977  43.492  17.533   0.652
40817W        W 5978  41.862  10.659  13.393
40818W        W 5979  21.333  44.958  12.312
40819W        W 5980  37.869  14.207   0.690
40820W        W 5981  41.771   2.815   2.264
40821W        W 5982   3.197  24.657   2.176
40822W        W 5983  22.304  20.715  10.653
40823W        W 5984   1.028  27.652   0.888
40824W        W 5985  34.012   3.798   0.937
40825W        W 5986   9.144  32.597   4.812
40826W        W 5987  14.552   6.654   2.346
40827W        W 5988   8.529   2.973  11.449
40828W        W 5989  13.785  33.141   4.197
40829W        W 5990  16.341  34.654  11.096
40830W        W 5991  14.292  32.431   1.208
40831W        W 5992  35.468  39.231   1.435
40832W        W 5993  12.946  27.007  13.994
40833W        W 5994   6.749  25.712   2.304
40834W        W 5995  25.940  21.757  12.023
40835W        W 5996  39.474   0.025  13.541
40836W        W 5997  40.337   1.473  11.215
40837W        W 5998  42.550   6.221  11.893
40838W        W 5999   7.879  38.451   0.006
40839W        W 6000  13.957  38.500   1.124
40840W        W 6001   6.761  36.483  11.118
40841W        W 6002   2.840  11.094  13.073
40842W        W 6003  43.884   2.354   4.551
40843W        W 6004  18.751  26.547  12.599
40844W        W 6005  34.489   1.648   0.346
40845W        W 6006  29.124  24.279  14.463
40846W        W 6007  31.361  13.840  10.707
40847W        W 6008  31.869  40.430  12.025
40848W        W 6009  17.065  28.686   4.225
40849W        W 6010   2.073  10.678  10.651
40850W        W 6011  22.153   7.850  14.592
40851W        W 6012   2.827  15.240   1.369
40852W        W 6013  20.005  10.814  14.719
40853W        W 6014   7.446  19.696  13.836
40854W        W 6015  20.393  22.283   0.635
40855W        W 6016  19.812  18.023   3.798
40856W        W 6017   4.563  41.041   1.183
40857W        W 6018   4.998   9.879  14.454
40858W        W 6019   9.697  34.146  13.118
40859W        W 6020  43.756   3.899  14.099
40860W        W 6021  44.292   9.238  12.387
40861W        W 6022  37.087  12.792  14.486
40862W        W 6023  30.374  43.440  14.124
40863W        W 6024  16.699   1.353  11.505
40864W        W 6025  24.524  17.530  11.229
40865W        W 6026  16.699  21.203  10.945
40866W        W 6027  19.536  32.090   4.563
40867W        W 6028  33.367  27.142  14.345
40868W        W 6029  11.662  26.716   3.224
40869W        W 6030   5.511  23.507   2.318
40870W        W 6031  24.380  34.933   1.383
40871W        W 6032  41.410  25.786   1.916
40872W        W 6033  28.141  14.048   4.101
40873W        W 6034  33.957   1.751   3.417
40874W        W 6035  28.774  43.464  12.856
40875W        W 6036  27.917  23.174  13.052
40876W        W 6037  38.044  27.046   0.242
40877W        W 6038  38.089  26.438  13.077
40878W        W 6039   8.636  22.068   3.553
40879W        W 6040  31.566  42.992   4.289
40880W        W 6041  34.402  32.975  12.678
40881W        W 6042  42.966  10.257   1.893
40882W        W 6043  14.401  19.806  12.927
40883W        W 6044  39.887  15.491  13.864
40884W        W 6045  39.735  23.776   0.210
40885W        W 6046   4.408  28.477   0.508
40886W        W 6047  29.627  33.893  10.800
40887W        W 6048  32.151  27.663   4.993
40888W        W 6049  35.500  32.600  11.079
40889W        W 6050  23.076   5.399   3.197
40890W        W 6051  13.120  32.393  11.920
40891W        W 6052   1.829  39.090  11.571
40892W        W 6053  24.541  21.538   1.267
40893W        W 6054  29.951   6.425   1.626
40894W        W 6055   3.674  37.455   3.350
40895W        W 6056  35.913   4.493   3.740
40896W        W 6057  19.762  31.373  12.434
40897W        W 6058   3.386  30.513  13.391
40898W        W 6059   0.516  12.136  14.900
40899W        W 6060  10.719   4.990  14.391
40900W        W 6061   6.205  39.374   1.242
40901W        W 6062  15.700  16.264   1.171
40902W        W 6063  40.141  21.126  10.309
40903W        W 6064  21.233  30.228   3.694
40904W        W 6065  15.735   2.697  14.769
40905W        W 6066   1.465  24.719  13.810
40906W        W 6067  16.103   5.764  12.337
40907W        W 6068  30.532  31.339   3.121
40908W        W 6069   0.555   3.579   3.104
40909W        W 6070   9.610   2.341   2.716
40910W        W 6071  43.819  39.297  14.342
40911W        W 6072  25.557  18.253   0.408
40912W        W 6073   5.895   8.166   1.686
40913W        W 6074  44.579  16.611   1.984
40914W        W 6075   8.648  23.385   3.342
40915W        W 6076   8.831  18.214  12.167
40916W        W 6077  22.511  15.916   0.462
40917W        W 6078  32.865  33.328   0.627
40918W        W 6079  23.289   5.218  11.420
40919W        W 6080  12.857   8.813  14.043
40920W        W 6081  23.912   4.224  11.710
40921W        W 6082  33.807  23.447   5.509
40922W        W 6083   6.795  14.296   3.794
40923W        W 6084  44.729  31.581  11.243
40924W        W 6085   6.391  35.369  11.202
40925W        W 6086   6.672  25.882  14.584
40926W        W 6087  23.014  15.665   3.384
40927W        W 6088   0.416  23.252   4.223
40928W        W 6089  42.927  22.929  11.525
40929W        W 6090  22.667  39.374   3.801
40930W        W 6091  14.568  43.186   4.983
40931W        W 6092  19.810  21.214   2.741
40932W        W 6093   1.396  10.399  14.354
40933W        W 6094   1.534   8.066  10.764
40934W        W 6095  30.043   4.380  11.445
40935W        W 6096   5.697  28.605  13.353
40936W        W 6097  37.132  13.253   4.141
40937W        W 6098  19.122  11.079   2.618
40938W        W 6099   1.571   3.862  12.999
40939W        W 6100   7.466  42.337  13.884
40940W        W 6101   1.303  44.874  12.103
40941W        W 6102  36.074  22.374   0.920
40942W        W 6103  10.647  25.100  10.752
40943W        W 6104  36.456  42.229   2.754
40944W        W 6105  38.754  10.274   3.666
40945W        W 6106  24.149  36.965   3.817
40946W        W 6107  28.128  23.090   5.089
40947W        W 6108  31.425  17.236   2.381
40948W        W 6109   9.986  35.113   2.103
40949W        W 6110  15.330  16.574  13.990
40950W        W 6111   4.214  24.586   4.641
40951W        W 6112  16.119  27.116   3.792
40952W        W 6113  44.936  37.120  11.690
40953W        W 6114  31.295   2.490  11.204
40954W        W 6115  14.149  12.165  14.873
40955W        W 6116  12.019   3.923   0.365
40956W        W 6117  35.080  37.834   2.309
40957W        W 6118  36.036  10.167   2.879
40958W        W 6119  19.768   0.006  14.523
40959W        W 6120  22.285  29.661  10.350
40960W        W 6121  39.357  38.049  10.380
40961W        W 6122  28.649  23.025  14.563
40962W        W 6123  40.368  11.749   2.381
40963W        W 6124  43.879   7.246   2.724
40964W        W 6125  38.077   0.026   1.792
40965W        W 6126   4.048  44.779  14.034
40966W        W 6127  17.213  42.563   4.040
40967W        W 6128  14.552  29.963   0.907
40968W        W 6129  38.073  27.819   3.261
40969W        W 6130  44.896  23.163   3.605
40970W        W 6131  17.271   0.925   4.547
40971W        W 6132  12.837  33.634   0.648
40972W        W 6133   6.813  12.192   0.014
40973W        W 6134  37.770   0.967  12.973
40974W        W 6135   7.373  29.430  13.314
40975W        W 6136  28.373  20.745   2.217
40976W        W 6137   4.767  29.809  14.736
40977W        W 6138  44.815   4.356   4.206
40978W        W 6139   8.221  20.818   0.835
40979W        W 6140  16.634   7.124  13.843
40980W        W 6141  44.695  12.070   4.258
40981W        W 6142  14.746  18.800   4.138
40982W        W 6143   1.513  33.209  14.300
40983W        W 6144  42.839  19.088   2.320
40984W        W 6145  37.444  39.284   0.360
40985W        W 6146  14.991  37.147   4.921
40986W        W 6147   9.087  27.620  12.501
40987W        W 6148  29.792  44.358   9.804
40988W        W 6149  42.401  39.732   0.564
40989W        W 6150  20.005  28.642   3.719
40990W        W 6151  41.076  36.569  10.116
40991W        W 6152  14.305   6.635   4.762
40992W        W 6153  33.641  29.735   4.998
40993W        W 6154  30.922  20.505  14.891
40994W        W 6155  28.935  28.708  11.079
40995W        W 6156   2.333  37.416  12.681
40996W        W 6157  19.332  30.350   2.423
40997W        W 6158  35.305  36.145   3.179
40998W        W 6159  10.536  15.342  13.568
40999W        W 6160  28.210   8.866  12.402
41000W        W 6161   3.046  15.133   3.267
41001W        W 6162   2.037   3.237   0.820
41002W        W 6163  40.044   3.257   0.848
41003W        W 6164  21.908  18.991  10.305
41004W        W 6165  40.443  12.542  10.817
41005W        W 6166  16.469  27.356   2.796
41006W        W 6167  19.295  20.609  12.561
41007W        W 6168  28.954  24.152   3.591
41008W        W 6169  17.904   0.345   1.506
41009W        W 6170  34.408  31.235   2.209
41010W        W 6171  33.013  19.151   4.926
41011W        W 6172  30.661  21.141   1.032
41012W        W 6173  32.186  34.124   4.705
41013W        W 6174  32.133  16.139   0.806
41014W        W 6175  30.863  36.988  12.501
41015W        W 6176  13.278  27.617   0.472
41016W        W 6177  26.807   8.400   3.953
41017W        W 6178  14.030  42.610   3.004
41018W        W 6179  32.958  37.349   9.739
41019W        W 6180  30.367  28.557  10.614
41020W        W 6181  28.563  30.920  14.516
41021W        W 6182  37.314  24.237   1.741
41022W        W 6183  44.965  27.032  11.644
41023W        W 6184  39.246   6.101  10.688
41024W        W 6185  38.687  43.439   1.835
41025W        W 6186  40.510  15.451  13.012
41026W        W 6187   0.332  39.929   1.439
41027W        W 6188  20.622  11.819  13.581
41028W        W 6189  27.035  18.170   0.789
41029W        W 6190  14.358  15.098   3.430
41030W        W 6191  16.827  11.572  11.240
41031W        W 6192   0.996  44.659   3.586
41032W        W 6193  36.293  11.390  14.393
41033W        W 6194  40.077  24.270  11.285
41034W        W 6195  12.537  43.258   3.077
41035W        W 6196  21.715  17.581  14.748
41036W        W 6197  36.210   6.636   2.261
41037W        W 6198   3.410   3.789   1.542
41038W        W 6199  17.356  41.586   1.362
41039W        W 6200  22.111  41.912   3.892
41040W        W 6201  42.489   5.603   2.378
41041W        W 6202  19.187  14.080   4.253
41042W        W 6203  34.920  23.506   3.272
41043W        W 6204  21.949  10.437   1.515
41044W        W 6205   8.536  10.879  12.501
41045W        W 6206   7.384  16.129  13.566
41046W        W 6207  32.985  38.838  12.318
41047W        W 6208  32.124   2.203   5.037
41048W        W 6209  25.237  26.759  11.580
41049W        W 6210  21.532  11.552  11.616
41050W        W 6211   7.884  12.480  12.618
41051W        W 6212  38.025  14.412  13.832
41052W        W 6213  19.508  31.100  10.994
41053W        W 6214  33.289  27.026   4.702
41054W        W 6215  35.857  31.738  10.689
41055W        W 6216   5.658  42.604   0.349
41056W        W 6217  44.714  25.534   3.631
41057W        W 6218  41.858  26.715  13.053
41058W        W 6219  41.760  37.242  10.446
41059W        W 6220   7.309  44.775  13.901
41060W        W 6221  41.949   0.015   0.992
41061W        W 6222  36.977  29.373   1.476
41062W        W 6223  40.830  27.951   0.450
41063W        W 6224  39.979  39.138   1.491
41064W        W 6225  36.561  16.991   4.487
41065W        W 6226  16.717  43.772  11.008
41066W        W 6227   9.293  18.191   2.300
41067W        W 6228  26.010   3.705  14.260
41068W        W 6229  30.708   5.166   3.945
41069W        W 6230   8.474   3.494   2.058
41070W        W 6231  10.004  12.897   3.430
41071W        W 6232  17.090  29.910   5.043
41072W        W 6233   4.846  26.712   2.815
41073W        W 6234   3.821   8.847  12.124
41074W        W 6235  40.960  38.592  12.792
41075W        W 6236  18.057  26.417  14.085
41076W        W 6237  28.986  26.034  13.630
41077W        W 6238  19.794   4.856   4.683
41078W        W 6239  23.094  37.056   0.093
41079W        W 6240   6.431  35.921   0.897
41080W        W 6241  33.882  43.431   1.500
41081W        W 6242  44.002  14.845   1.311
41082W        W 6243  12.263  34.829   0.453
41083W        W 6244  15.330   9.546   0.978
41084W        W 6245  19.278  38.850  14.343
41085W        W 6246  15.810  16.457  10.344
41086W        W 6247   8.314   8.090  14.095
41087W        W 6248   2.265  42.791  10.284
41088W        W 6249  23.604  19.871   2.720
41089W        W 6250   7.936  42.509  13.895
41090W        W 6251  31.006   6.771  14.999
41091W        W 6252  11.829  10.180  12.179
41092W        W 6253  43.168  23.006  12.316
41093W        W 6254  20.523   2.979   2.934
41094W        W 6255   4.860  24.837  13.680
41095W        W 6256  30.591   2.005  14.913
41096W        W 6257   4.170  18.222   4.100
41097W        W 6258  40.294  24.809  12.109
41098W        W 6259  27.109   7.082   4.646
41099W        W 6260  41.361  13.941   1.787
41100W        W 6261  12.197  40.606   1.712
41101W        W 6262   0.776   5.316   0.689
41102W        W 6263  42.298  25.005  10.840
41103W        W 6264  18.563  33.159  11.063
41104W        W 6265   4.914   1.980  10.242
41105W        W 6266  33.426  38.240   5.401
41106W        W 6267  20.452  41.376   4.223
41107W        W 6268   4.516   0.006  13.898
41108W        W 6269  18.808   6.359   2.744
41109W        W 6270  20.581   2.616   0.882
41110W        W 6271  29.958  28.975   3.187
41111W        W 6272  20.631  29.651  12.930
41112W        W 6273  20.792  19.110  11.891
41113W        W 6274  42.480  42.452   2.580
41114W        W 6275  38.921  42.427   2.827
41115W        W 6276   9.568  30.033  13.461
41116W        W 6277  12.581  40.524  12.507
41117W        W 6278  29.440  32.076   4.575
41118W        W 6279  26.104   1.299  11.910
41119W        W 6280  19.175   8.282  13.756
41120W        W 6281  12.951   0.006   4.631
41121W        W 6282   3.373  14.784  12.173
41122W        W 6283  17.622   0.292  10.972
41123W        W 6284   4.257  35.407  12.607
41124W        W 6285  23.119  39.603   3.938
41125W        W 6286  44.027   6.372  12.387
41126W        W 6287  35.653   5.674  12.438
41127W        W 6288   4.324  18.969  12.347
41128W        W 6289  38.507  34.120   2.211
41129W        W 6290  26.422  30.030  12.541
41130W        W 6291   3.157  36.473   4.171
41131W        W 6292   9.661  21.805  13.329
41132W        W 6293  30.618   6.396  10.961
41133W        W 6294  12.653  29.892  10.806
41134W        W 6295  22.758  41.339   3.801
41135W        W 6296  16.358  24.028   2.282
41136W        W 6297  10.294  28.289   3.106
41137W        W 6298  30.589  31.870   3.190
41138W        W 6299  44.998  28.104  12.517
41139W        W 6300   3.573  23.628   3.780
41140W        W 6301  35.077   8.183   0.942
41141W        W 6302   3.961  43.952   4.205
41142W        W 6303  37.232  22.255  10.308
41143W        W 6304  24.491  12.357  13.382
41144W        W 6305  30.665   4.857   2.309
41145W        W 6306  40.988  11.703  13.902
41146W        W 6307  10.094   8.727   0.560
41147W        W 6308  21.755  21.272  14.908
41148W        W 6309  34.574  12.276   0.947
41149W        W 6310  28.884   7.875   4.834
41150W        W 6311  39.672   4.025  13.410
41151W        W 6312   5.363  29.719  12.059
41152W        W 6313  12.660  23.718  11.167
41153W        W 6314  17.211  44.451  11.071
41154W        W 6315  37.721  25.069   5.142
41155W        W 6316  19.805  30.867  10.614
41156W        W 6317  36.781  40.699   2.398
41157W        W 6318  23.302  42.581   1.410
41158W        W 6319  28.503   4.519  14.929
41159W        W 6320  30.514  32.941  11.110
41160W        W 6321   3.388   6.130  13.874
41161W        W 6322  19.762  31.075   4.180
41162W        W 6323   6.193  14.612  11.919
41163W        W 6324  35.722   6.663   3.042
41164W        W 6325  22.329   9.066  12.571
41165W        W 6326  14.131   8.194   1.734
41166W        W 6327  31.369  22.100  10.512
41167W        W 6328  14.194  42.702   3.904
41168W        W 6329  36.866  37.355  11.836
41169W        W 6330  13.986  25.209   0.520
41170W        W 6331  27.630  44.087  10.775
41171W        W 6332  37.114  33.884   0.825
41172W        W 6333  32.414  22.967  12.492
41173W        W 6334  20.998  24.094  11.664
41174W        W 6335  25.111   9.683  14.258
41175W        W 6336  41.230  44.361  14.438
41176W        W 6337  41.593  25.997   0.906
41177W        W 6338   7.303  21.477   3.554
41178W        W 6339  38.076   4.179  13.843
41179W        W 6340   8.711  21.979   4.075
41180W        W 6341  13.803  19.256   3.865
41181W        W 6342  35.931   4.501  13.849
41182W        W 6343  18.247  28.955   0.725
41183W        W 6344  18.220   9.323   4.447
41184W        W 6345   0.489  20.590  14.759
41185W        W 6346  22.142  30.950   3.335
41186W        W 6347  42.252   1.203  12.644
41187W        W 6348  44.737   1.928   1.438
41188W        W 6349   6.039   6.175   4.488
41189W        W 6350  37.405  12.636   1.915
41190W        W 6351  41.987  30.376   2.413
41191W        W 6352  19.881   3.998  12.674
41192W        W 6353  44.900  28.736  11.907
41193W        W 6354  31.445  16.496   1.329
41194W        W 6355  31.156   7.172   3.133
41195W        W 6356  16.561  34.626   3.085
41196W        W 6357  37.922   6.534  13.326
41197W        W 6358  20.997   6.724   2.281
41198W        W 6359   7.078  24.134   3.521
41199W        W 6360  40.987  18.191   0.721
41200W        W 6361  27.292  44.825   3.333
41201W        W 6362  34.032  17.629  10.531
41202W        W 6363  30.088  11.088   3.617
41203W        W 6364  22.651   9.762  11.467
41204W        W 6365   1.762   9.779  12.027
41205W        W 6366  10.735   5.980  11.296
41206W        W 6367  40.039  30.996   5.066
41207W        W 6368  28.778  19.752  11.863
41208W        W 6369   3.258   8.836   1.182
41209W        W 6370  35.304  35.355   3.899
41210W        W 6371  25.247   0.435   3.285
41211W        W 6372  29.667  30.561  14.964
41212W        W 6373  35.618  28.636  13.989
41213W        W 6374  25.492  18.678   1.182
41214W        W 6375  28.199  29.844   3.187
41215W        W 6376  11.682  29.438  12.013
41216W        W 6377  13.053   7.776   0.298
41217W        W 6378  28.594   7.532   2.331
41218W        W 6379   5.746  19.287  14.031
41219W        W 6380  29.701  29.140  13.575
41220W        W 6381  35.190  40.216  10.195
41221W        W 6382  20.846  21.360  12.852
41222W        W 6383   5.330  17.274   0.199
41223W        W 6384  12.642   9.091   1.209
41224W        W 6385   2.417  22.059   0.049
41225W        W 6386   2.228  33.516   0.975
41226W        W 6387  38.776  10.373  11.525
41227W        W 6388  14.160  15.621  12.081
41228W        W 6389  37.792  37.064   1.967
41229W        W 6390  33.806  23.315   4.101
41230W        W 6391   9.143  18.369   4.539
41231W        W 6392  12.014  24.781  11.400
41232W        W 6393  15.539  42.537  11.632
41233W        W 6394   5.661  30.106   2.775
41234W        W 6395  18.581  44.022   2.858
41235W        W 6396  20.362  17.475  14.062
41236W        W 6397  23.963  24.447   4.178
41237W        W 6398  32.858  38.796  14.462
41238W        W 6399   2.284  33.523  11.507
41239W        W 6400  17.829  20.239   4.652
41240W        W 6401  31.179  23.620  13.055
41241W        W 6402  26.954  21.478  14.687
41242W        W 6403   8.781  23.263   2.438
41243W        W 6404  25.568  19.248  13.140
41244W        W 6405   4.302  24.941   2.645
41245W        W 6406  26.157  22.620  11.485
41246W        W 6407  39.935  32.964   3.140
41247W        W 6408   2.044   6.838  12.430
41248W        W 6409  23.876  37.307   3.540
41249W        W 6410   6.201  25.022   5.134
41250W        W 6411  34.458  28.384   0.296
41251W        W 6412  39.799   7.179  11.644
41252W        W 6413  27.703  26.304  10.242
41253W        W 6414  39.318  27.069  12.927
41254W        W 6415  18.347  36.083  12.057
41255W        W 6416  11.390  28.755  14.797
41256W        W 6417  25.277  14.222  12.110
41257W        W 6418   3.055   2.383   2.422
41258W        W 6419   2.474   2.987  14.029
41259W        W 6420  34.064  28.572  13.959
41260W        W 6421   1.786  43.726  12.477
41261W        W 6422  20.608   3.151   0.786
41262W        W 6423   6.684   0.342  13.322
41263W        W 6424  30.671  16.686  10.720
41264W        W 6425  20.255  39.384  13.420
41265W        W 6426  44.070  23.208   0.934
41266W        W 6427  15.738  26.196   1.710
41267W        W 6428  28.449  30.850  10.771
41268W        W 6429   0.219  25.396   0.933
41269W        W 6430  18.284  25.484   2.909
41270W        W 6431  19.114  20.125  14.262
41271W        W 6432  16.291  24.441  11.987
41272W        W 6433  23.047  27.609   2.617
41273W        W 6434  26.656   1.967  13.917
41274W        W 6435  38.813  24.665  13.417
41275W        W 6436  24.497   1.083  14.810
41276W        W 6437  40.885  39.984  12.404
41277W        W 6438  17.769  30.642   4.055
41278W        W 6439  10.107  39.580  10.904
41279W        W 6440  25.090  25.014   3.144
41280W        W 6441   3.614  18.818   2.750
41281W        W 6442  18.457  41.321  13.841
41282W        W 6443   6.335  18.489  10.426
41283W        W 6444  35.286   7.022   3.587
41284W        W 6445  23.392  28.848  11.114
41285W        W 6446  39.741   4.526  13.515
41286W        W 6447  21.265  32.581  12.548
41287W        W 6448  22.957  25.715   0.716
41288W        W 6449  22.792  21.044   4.487
41289W        W 6450  40.899  35.165   0.225
41290W        W 6451  32.409   4.546  10.805
41291W        W 6452  36.377  37.237  11.968
41292W        W 6453  44.034  40.412   2.707
41293W        W 6454   3.371  41.361   3.555
41294W        W 6455   4.459  32.347  13.931
41295W        W 6456  18.248  10.894  12.427
41296W        W 6457  10.496  43.912  11.102
41297W        W 6458  31.424  27.868  13.564
41298W        W 6459  32.846  19.090   1.861
41299W        W 6460  30.122   6.164   0.669
41300W        W 6461   6.397  17.011  12.715
41301W        W 6462  31.617  34.694  13.697
41302W        W 6463  15.567   5.012  12.451
41303W        W 6464  23.714  23.427  14.909
41304W        W 6465   2.670   8.354  12.192
41305W        W 6466  14.924  34.627  14.900
41306W        W 6467  10.333  43.600  14.371
41307W        W 6468  44.788  28.127  12.035
41308W        W 6469   7.788  33.361   1.756
41309W        W 6470  25.989  19.553  13.011
41310W        W 6471  16.674  16.689   2.707
41311W        W 6472   6.662   4.169  14.396
41312W        W 6473  34.976  14.151   1.957
41313W        W 6474   1.221  39.622   2.881
41314W        W 6475  11.374  14.352   2.856
41315W        W 6476  22.969  19.229   1.736
41316W        W 6477  37.533  40.875   0.772
41317W        W 6478   1.998  13.360  14.103
41318W        W 6479  21.624   4.211   4.341
41319W        W 6480  39.702  26.137  12.190
41320W        W 6481   8.132  21.161  12.639
41321W        W 6482  39.894   0.444  14.198
41322W        W 6483  12.872  14.450   0.919
41323W        W 6484   7.330   2.990  10.772
41324W        W 6485  28.581  10.657  14.655
41325W        W 6486   4.014  33.445  10.598
41326W        W 6487  26.619  16.320   4.196
41327W        W 6488  34.963   8.594  12.719
41328W        W 6489  26.955   2.824   1.798
41329W        W 6490  35.522  14.747  12.043
41330W        W 6491  35.920  36.589   1.972
41331W        W 6492  26.270  41.558  11.583
41332W        W 6493  28.377  12.657  10.733
41333W        W 6494  36.537  39.899  10.226
41334W        W 6495   9.382  25.339  10.170
41335W        W 6496  32.870  15.122   1.901
41336W        W 6497  42.824  35.481  12.982
41337W        W 6498   5.943   9.091   1.931
41338W        W 6499  33.898  26.221  13.305
41339W        W 6500   3.714  19.921   0.376
41340W        W 6501   9.301   2.816  13.074
41341W        W 6502  33.805  15.050   2.665
41342W        W 6503  36.071  36.106  14.096
41343W        W 6504  33.981  16.438   1.299
41344W        W 6505  40.096  12.904  11.580
41345W        W 6506  34.840  26.179  14.809
41346W        W 6507   9.412  15.997   0.079
41347W        W 6508  13.068  11.158   2.298
41348W        W 6509  14.251  17.178   1.031
41349W        W 6510  12.380  31.881  11.208
41350W        W 6511  17.518   6.428   2.178
41351W        W 6512  27.988  12.018  10.282
41352W        W 6513  20.745  28.629   1.234
41353W        W 6514  25.257  36.965  10.636
41354W        W 6515  34.607  24.083   0.785
41355W        W 6516  43.903  16.477  14.163
41356W        W 6517  13.564  28.303  10.782
41357W        W 6518  10.373  18.809   1.696
41358W        W 6519  19.751  26.929  12.983
41359W        W 6520  33.929   2.239   3.622
41360W        W 6521  26.647  12.877  13.906
41361W        W 6522  17.024  30.136  12.170
41362W        W 6523  28.517  12.742   3.182
41363W        W 6524  32.579  28.495   3.327
41364W        W 6525   8.084  20.016   0.358
41365W        W 6526   0.380  18.501  11.976
41366W        W 6527  30.344  24.160   0.445
41367W        W 6528  13.683  43.648  11.528
41368W        W 6529  23.407   5.832   3.187
41369W        W 6530   6.960   6.711   4.515
41370W        W 6531  28.706  22.190   3.715
41371W        W 6532  39.997   5.269   4.518
41372W        W 6533  37.471   2.853  14.018
41373W        W 6534  40.930  35.487  12.023
41374W        W 6535  23.148  14.741  11.997
41375W        W 6536   9.690   0.626  13.470
41376W        W 6537  20.142  11.613   1.799
41377W        W 6538  17.236   1.244   2.744
41378W        W 6539  32.015  12.363   1.538
41379W        W 6540   5.542  27.401   5.238
41380W        W 6541   6.628  41.927  11.001
41381W        W 6542  41.555  17.130  12.455
41382W        W 6543  35.859  34.653  12.614
41383W        W 6544  34.446  33.186  12.168
41384W        W 6545  10.027  21.525  12.518
41385W        W 6546  26.039   7.711  10.628
41386W        W 6547  10.185  11.771  14.524
41387W        W 6548   3.982   6.895  12.882
41388W        W 6549  11.819  30.814   0.246
41389W        W 6550   1.391  32.963   3.070
41390W        W 6551  44.906  25.755   2.661
41391W        W 6552  33.955  25.746  10.707
41392W        W 6553   2.335   6.214   2.412
41393W        W 6554  42.307   4.564  11.227
41394W        W 6555  18.689  31.496   1.952
41395W        W 6556  17.798  22.556   3.377
41396W        W 6557  19.474  26.947  14.347
41397W        W 6558  21.124  38.458   4.228
41398W        W 6559   8.913  16.241   3.824
41399W        W 6560  25.976  23.569  11.150
41400W        W 6561   1.838  16.863   3.995
41401W        W 6562  16.009  28.717   3.532
41402W        W 6563  18.361  23.665  13.446
41403W        W 6564  16.032  19.668  13.499
41404W        W 6565  35.944   3.136  12.163
41405W        W 6566  31.132  29.113  10.555
41406W        W 6567  16.517  44.871  12.901
41407W        W 6568   0.376  21.589   2.882
41408W        W 6569  13.550  37.086   4.171
41409W        W 6570   1.528  42.794   2.294
41410W        W 6571  21.806  18.616  14.767
41411W        W 6572  30.520   1.049   0.751
41412W        W 6573  33.370   7.938   3.694
41413W        W 6574  22.038  19.329  12.452
41414W        W 6575  21.486   4.905   3.191
41415W        W 6576  21.135  42.251  10.709
41416W        W 6577  32.125  22.510  12.230
41417W        W 6578   5.381  41.650   2.537
41418W        W 6579  39.127  36.836  11.233
41419W        W 6580  37.502  19.511  10.721
41420W        W 6581  33.414   9.705  11.630
41421W        W 6582   9.711  26.928   2.136
41422W        W 6583  42.924  16.512   0.065
41423W        W 6584  30.229  34.200  12.631
41424W        W 6585   8.983   3.146   0.014
41425W        W 6586  31.498  44.068   1.781
41426W        W 6587  10.318  22.950  11.997
41427W        W 6588  10.591  20.237  11.659
41428W        W 6589  42.777  12.570  11.592
41429W        W 6590  32.400  16.228   0.346
41430W        W 6591   3.041  21.325  11.557
41431W        W 6592  37.899   4.265   3.231
41432W        W 6593  31.070  41.118   2.574
41433W        W 6594  11.825   8.321  12.026
41434W        W 6595  32.060   0.766   1.094
41435W        W 6596  31.949   1.957  14.248
41436W        W 6597   6.623  19.069  12.462
41437W        W 6598  20.495   0.566   1.787
41438W        W 6599  15.748  35.854  13.488
41439W        W 6600  38.212  10.650  12.434
41440W        W 6601  34.717  15.082  12.160
41441W        W 6602   2.483   9.226   1.326
41442W        W 6603   8.398   0.978  12.032
41443W        W 6604   2.465  22.048   0.907
41444W        W 6605  40.539   3.215  12.895
41445W        W 6606  33.324  29.377   1.776
41446W        W 6607   9.342  32.165   1.789
41447W        W 6608   5.303  43.843  14.785
41448W        W 6609  26.529  16.418   0.344
41449W        W 6610  20.979  17.198  14.101
41450W        W 6611  30.233  38.796  11.614
41451W        W 6612  41.443  30.873  13.483
41452W        W 6613  31.622   0.214  13.996
41453W        W 6614  24.219  15.348   4.588
41454W        W 6615  26.662  29.242  11.516
41455W        W 6616   8.212  43.615   4.612
41456W        W 6617  13.604  11.627   4.137
41457W        W 6618   1.164  19.616  10.793
41458W        W 6619   8.098   3.274   3.716
41459W        W 6620   9.261  37.993   2.796
41460W        W 6621  32.389  18.008  14.529
41461W        W 6622  17.565  25.040   1.251
41462W        W 6623  42.979   8.446   4.651
41463W        W 6624   1.315  11.643   1.467
41464W        W 6625   1.019  14.245  13.514
41465W        W 6626   0.835  44.945  11.902
41466W        W 6627  43.310  13.771   3.793
41467W        W 6628  18.790   9.294  14.048
41468W        W 6629  16.252   8.127  11.047
41469W        W 6630  12.087  23.642   0.940
41470W        W 6631  33.165  13.347  10.898
41471W        W 6632  44.707  15.611   4.343
41472W        W 6633  35.323  21.077   3.656
41473W        W 6634   6.832  15.875  11.948
41474W        W 6635  17.070  34.569   1.574
41475W        W 6636  27.484  32.642   0.045
41476W        W 6637  24.445  23.510   0.438
41477W        W 6638  32.626   2.630  11.945
41478W        W 6639  40.554  19.623   3.195
41479W        W 6640  20.944   7.685  13.985
41480W        W 6641   2.826  13.169  13.553
41481W        W 6642  26.663  20.656  13.109
41482W        W 6643  14.362  42.747  12.527
41483W        W 6644  13.084   7.478   3.612
41484W        W 6645   9.397  18.653   0.764
41485W        W 6646  35.070   0.433  13.573
41486W        W 6647   5.045   4.295  12.515
41487W        W 6648  27.743  14.303  14.256
41488W        W 6649   9.307  36.545  13.493
41489W        W 6650   6.195  15.835  11.557
41490W        W 6651   6.357  12.936  12.899
41491W        W 6652  27.937  37.514  13.935
41492W        W 6653  38.853  15.242  13.050
41493W        W 6654  17.184   1.163  13.978
41494W        W 6655  37.907  13.123   1.183
41495W        W 6656  15.545  34.063  14.072
41496W        W 6657  31.020  29.072  11.453
41497W        W 6658  22.988  11.248  13.100
41498W        W 6659  31.118  43.667  14.535
41499W        W 6660  43.740  12.531  11.691
41500W        W 6661  20.713  37.356   4.495
41501W        W 6662  18.691  41.871   3.581
41502W        W 6663  11.980  30.526  12.145
41503W        W 6664  44.751  10.856   0.124
41504W        W 6665  36.073  26.104  13.420
41505W        W 6666  24.504  42.022   3.669
41506W        W 6667  42.889  35.777  13.436
41507W        W 6668  35.608   0.054   0.963
41508W        W 6669  41.688  30.159   1.865
41509W        W 6670  19.119   0.941   4.641
41510W        W 6671  22.534  39.283  12.677
41511W        W 6672   7.885   5.213   0.947
41512W        W 6673  33.978  44.426   2.402
41513W        W 6674  35.084  36.037  14.162
41514W        W 6675  42.176  43.938  11.614
41515W        W 6676  40.014   8.396  14.938
41516W        W 6677   0.970   6.932   4.123
41517W        W 6678  40.283  25.247   0.515
41518W        W 6679  20.583  20.489  13.114
41519W        W 6680  17.455  36.310   0.099
41520W        W 6681  30.022  21.152   4.241
41521W        W 6682   9.268  24.590  14.670
41522W        W 6683  23.951  35.882  13.827
41523W        W 6684   9.137  19.722  12.901
41524W        W 6685  41.526  42.627  13.882
41525W        W 6686  29.572  34.336  11.643
41526W        W 6687  38.551   8.790  14.267
41527W        W 6688   8.706   0.654   4.052
41528W        W 6689  23.966   1.860  14.676
41529W        W 6690  39.632  25.097  14.430
41530W        W 6691  32.248  16.157  11.680
41531W        W 6692  40.392  31.307   3.649
41532W        W 6693  23.609   2.593   1.776
41533W        W 6694  26.921  44.755   3.689
41534W        W 6695   2.813  33.131   2.615
41535W        W 6696  13.658  16.925   2.775
41536W        W 6697  18.003  17.810  12.989
41537W        W 6698  32.126  22.119  12.965
41538W        W 6699  25.187   8.993   1.657
41539W        W 6700  42.247  29.930   2.292
41540W        W 6701  28.529   7.306  13.796
41541W        W 6702  19.958  26.419   3.669
41542W        W 6703  39.941  34.141  13.903
41543W        W 6704  16.246   6.245  11.695
41544W        W 6705   5.742  29.186   1.149
41545W        W 6706  32.959  16.672   0.891
41546W        W 6707  28.442  12.313   3.497
41547W        W 6708  43.072   7.512  13.670
41548W        W 6709   8.156  37.836  12.577
41549W        W 6710   7.668  21.094  12.428
41550W        W 6711   0.908  23.876   0.187
41551W        W 6712  27.975  27.092  14.442
41552W        W 6713  31.753   1.052  14.858
41553W        W 6714  18.666  35.429  14.827
41554W        W 6715  34.561  38.793  14.015
41555W        W 6716   5.979  38.375   0.983
41556W        W 6717  26.755  34.041  13.718
41557W        W 6718  16.394   8.932  11.997
41558W        W 6719  32.902  24.144  14.301
41559W        W 6720  31.875  10.406   3.000
41560W        W 6721  35.710  11.413  12.542
41561W        W 6722  37.551  15.710  14.134
41562W        W 6723  20.164  33.319  12.078
41563W        W 6724  16.112  11.677  12.487
41564W        W 6725  30.294   0.949   1.769
41565W        W 6726  22.754  39.600  13.859
41566W        W 6727   3.404  27.568   4.018
41567W        W 6728  33.124  11.944  13.627
41568W        W 6729  35.038   3.727  13.074
41569W        W 6730  37.003  37.316   1.113
41570W        W 6731  27.485  19.579   3.287
41571W        W 6732  25.446   0.783  12.991
41572W        W 6733   8.272   4.233  13.996
41573W        W 6734  11.329  13.533   1.837
41574W        W 6735  11.126   4.976   2.680
41575W        W 6736  34.552  11.561  11.665
41576W        W 6737   7.679  37.294   0.652
41577W        W 6738  10.912  16.165   3.675
41578W        W 6739  16.199   3.470   1.796
41579W        W 6740  27.629  16.382   4.241
41580W        W 6741  30.525   3.431   4.659
41581W        W 6742  14.208  20.495   0.370
41582W        W 6743  42.397   4.331   2.721
41583W        W 6744  24.818   0.713   3.280
41584W        W 6745  38.303  37.756   0.022
41585W        W 6746  28.282  13.537   2.278
41586W        W 6747  12.765  23.190  12.502
41587W        W 6748  17.881  18.740   4.332
41588W        W 6749   8.412  18.280   4.154
41589W        W 6750   5.864  36.427  14.524
41590W        W 6751  24.023  40.844  11.127
41591W        W 6752  23.712  33.461  11.194
41592W        W 6753  43.452  32.007   0.011
41593W        W 6754  27.399   3.384   1.366
41594W        W 6755   9.707   0.889   2.947
41595W        W 6756  24.585  12.190  14.275
41596W        W 6757   6.243  44.838   4.556
41597W        W 6758  37.326   4.392   4.182
41598W        W 6759  32.719  34.419  12.952
41599W        W 6760  24.441  25.261   4.254
41600W        W 6761  26.019  12.701  14.695
41601W        W 6762  19.089  41.865  12.072
41602W        W 6763  16.578   9.736   3.177
41603W        W 6764   0.589  26.579  12.933
41604W        W 6765  16.667   0.393   0.505
41605W        W 6766  36.227  23.561  11.167
41606W        W 6767  36.207  22.487  14.306
41607W        W 6768  16.256  15.675  13.832
41608W        W 6769   8.413  12.098  13.390
41609W        W 6770  44.601  12.535   3.610
41610W        W 6771   6.700  24.600   0.456
41611W        W 6772  15.680  42.881   4.012
41612W        W 6773  42.063  15.416  13.029
41613W        W 6774  18.390  35.056   3.883
41614W        W 6775  26.890  13.342  12.764
41615W        W 6776   4.790  42.238   4.570
41616W        W 6777  15.183  25.593   2.341
41617W        W 6778   3.539   1.679   1.269
41618W        W 6779   0.472  26.560   2.807
41619W        W 6780   3.369  27.003   0.925
41620W        W 6781  39.285  19.114  14.568
41621W        W 6782  44.391  42.508  13.915
41622W        W 6783  43.523  43.300  13.335
41623W        W 6784  37.963   4.549  14.793
41624W        W 6785   2.979  23.040  12.646
41625W        W 6786   5.273  12.120   9.710
41626W        W 6787  43.064  35.034   0.857
41627W        W 6788  11.725  24.405  13.147
41628W        W 6789   2.849   6.279  14.535
41629W        W 6790  27.986  27.082   3.097
41630W        W 6791  31.787  35.430  13.892
41631W        W 6792   8.708   0.898   4.525
41632W        W 6793   1.657  24.049   2.698
41633W        W 6794  10.191  31.670   4.285
41634W        W 6795  40.310  30.827  11.133
41635W        W 6796   1.336  11.053  10.336
41636W        W 6797   3.774  32.997  11.601
41637W        W 6798  35.684   6.404   2.288
41638W        W 6799  30.033  13.738   3.096
41639W        W 6800  22.519  42.834  11.654
41640W        W 6801  13.912  24.948   4.123
41641W        W 6802  17.286  39.682  14.343
41642W        W 6803   9.284  20.786   1.447
41643W        W 6804  12.772  39.323  14.446
41644W        W 6805  18.165  22.056   2.658
41645W        W 6806  17.065  44.511   3.258
41646W        W 6807  15.836   9.729  13.075
41647W        W 6808  32.036  12.466  12.001
41648W        W 6809   1.576  32.654   1.476
41649W        W 6810  24.079  20.550   0.966
41650W        W 6811   8.853  37.587   4.905
41651W        W 6812  16.656   2.411   0.878
41652W        W 6813  20.679  44.304  12.057
41653W        W 6814  17.162  13.195   1.464
41654W        W 6815  38.263  34.819  11.946
41655W        W 6816  28.434   2.815  11.120
41656W        W 6817   3.726  12.832   5.330
41657W        W 6818  44.487  28.166  12.537
41658W        W 6819  36.910  26.015  13.023
41659W        W 6820  15.552   0.202  13.481
41660W        W 6821  39.452  14.462   1.330
41661W        W 6822   2.643   8.764  13.502
41662W        W 6823   4.431  35.460   2.448
41663W        W 6824  30.464  27.683   0.427
41664W        W 6825  33.029  14.249  10.399
41665W        W 6826  41.018  20.716  12.513
41666W        W 6827  42.871  36.277   0.878
41667W        W 6828  36.063   4.199  12.459
41668W        W 6829  37.339  16.571  11.187
41669W        W 6830  36.551  33.924  10.640
41670W        W 6831   8.317  40.719  12.630
41671W        W 6832  28.101  21.020   0.763
41672W        W 6833   7.258   8.920  13.420
41673W        W 6834  27.941  41.759   2.372
41674W        W 6835  12.162  30.339  11.699
41675W        W 6836   1.514   9.330  14.878
41676W        W 6837  14.235   1.165  14.327
41677W        W 6838   3.661  36.920  11.331
41678W        W 6839   1.757  28.061   2.707
41679W        W 6840  36.926   8.312  13.526
41680W        W 6841  15.895  26.672   1.779
41681W        W 6842  19.193  37.443   3.341
41682W        W 6843  14.592  37.960  11.726
41683W        W 6844   0.233   2.626   4.103
41684W        W 6845  29.052  44.204   0.698
41685W        W 6846  26.560  27.469  11.152
41686W        W 6847   4.433  41.895  10.511
41687W        W 6848  42.803  41.308  12.829
41688W        W 6849  22.034   1.037  10.655
41689W        W 6850  14.362  10.928  12.069
41690W        W 6851  42.306   5.422  11.465
41691W        W 6852  10.228  28.674   4.528
41692W        W 6853  35.332  37.881  13.776
41693W        W 6854   6.290  28.959   5.022
41694W        W 6855  32.516  14.036   1.409
41695W        W 6856  21.320  40.470   0.274
41696W        W 6857   6.461  17.615   1.974
41697W        W 6858  27.097  13.712   2.857
41698W        W 6859  35.327  33.225  12.344
41699W        W 6860  32.138  33.516  13.604
41700W        W 6861  15.856   8.903  13.739
41701W        W 6862  27.110  24.754   5.400
41702W        W 6863  32.106  28.469  14.911
41703W        W 6864  11.663  35.410   1.598
41704W        W 6865  38.079  27.797   4.241
41705W        W 6866   2.054  41.784  14.137
41706W        W 6867  12.148  34.710   3.180
41707W        W 6868   5.708  43.229   4.758
41708W        W 6869   6.793  26.607   3.154
41709W        W 6870   4.610  34.812  13.142
41710W        W 6871  14.789  16.633  12.394
41711W        W 6872  14.678  34.067   0.486
41712W        W 6873  32.996  36.110  11.632
41713W        W 6874  42.213  29.493   0.255
41714W        W 6875  29.457  26.818  10.206
41715W        W 6876   7.415   5.691  12.232
41716W        W 6877  14.867  36.531   3.138
41717W        W 6878  11.439  14.239   1.000
41718W        W 6879  27.372  27.888  10.152
41719W        W 6880  43.637  30.728  11.975
41720W        W 6881  35.081  31.569  10.393
41721W        W 6882  28.057  21.795  14.344
41722W        W 6883   5.151   0.282  10.200
41723W        W 6884   6.993  28.895   2.715
41724W        W 6885   3.975  26.505   1.341
41725W        W 6886   7.697   9.415   1.815
41726W        W 6887  44.988  22.469   1.961
41727W        W 6888  43.195  21.540   2.159
41728W        W 6889  38.923   5.260  11.873
41729W        W 6890  10.666  18.552   1.177
41730W        W 6891   2.356  23.506  11.541
41731W        W 6892   2.216  41.755   2.780
41732W        W 6893  35.025  32.161  12.530
41733W        W 6894  17.073   2.434  14.983
41734W        W 6895   0.698  29.162   0.378
41735W        W 6896  32.379  30.120   4.901
41736W        W 6897   9.237  16.621  13.875
41737W        W 6898  10.565  17.075   2.707
41738W        W 6899  20.600  18.209   3.097
41739W        W 6900  18.386  39.439  12.119
41740W        W 6901  20.507   9.261  13.561
41741W        W 6902  29.586  23.894  12.263
41742W        W 6903  16.166  30.556   4.302
41743W        W 6904  13.651   2.911   0.454
41744W        W 6905   7.398  14.568  13.560
41745W        W 6906  31.152  28.914   0.337
41746W        W 6907  31.065  15.569  14.386
41747W        W 6908  31.968  26.636   3.387
41748W        W 6909  28.902  12.684  11.582
41749W        W 6910  31.201  22.511  14.513
41750W        W 6911   9.871  40.255  12.849
41751W        W 6912  18.807  29.859   0.916
41752W        W 6913  18.773  14.784  13.809
41753W        W 6914  43.467  34.965   1.169
41754W        W 6915   1.572   3.246   4.183
41755W        W 6916  26.803  33.070   3.647
41756W        W 6917  12.420   4.796   3.656
41757W        W 6918  44.206  23.530   0.381
41758W        W 6919   5.403  12.131  13.400
41759W        W 6920   6.863  16.201   0.555
41760W        W 6921  41.318  14.598  13.820
41761W        W 6922  30.091  29.677  12.529
41762W        W 6923  38.966  14.308   1.104
41763W        W 6924  30.288  34.817  12.636
41764W        W 6925   8.617  23.374  12.022
41765W        W 6926  11.803  18.257  12.900
41766W        W 6927  40.761  16.741  13.425
41767W        W 6928   7.755  43.250   2.413
41768W        W 6929  20.661  15.626   0.409
41769W        W 6930  34.470  16.185   2.682
41770W        W 6931  15.367   1.778  12.127
41771W        W 6932   7.449  10.815   0.687
41772W        W 6933   5.206  24.398   9.945
41773W        W 6934   0.651  23.795  10.843
41774W        W 6935   2.844  28.925   2.841
41775W        W 6936   9.196  41.021  14.098
41776W        W 6937  23.234  31.652   0.320
41777W        W 6938  36.968   4.478  10.682
41778W        W 6939  43.220  16.100  14.890
41779W        W 6940   1.559  14.584  11.615
41780W        W 6941  20.129  39.639   3.793
41781W        W 6942  17.016   4.688   2.360
41782W        W 6943   8.339  43.206   2.220
41783W        W 6944  13.997  30.948   0.762
41784W        W 6945   4.209  17.428   1.782
41785W        W 6946  42.907  27.214   4.418
41786W        W 6947  17.589   3.556   0.846
41787W        W 6948  25.752   4.227  13.581
41788W        W 6949  27.520  13.733  13.082
41789W        W 6950  36.103  12.151  13.043
41790W        W 6951  30.984  18.225  11.885
41791W        W 6952   0.247   4.390   3.438
41792W        W 6953  29.985  38.289  11.795
41793W        W 6954  40.450  14.834   0.070
41794W        W 6955  10.419   9.405  14.449
41795W        W 6956  21.231  17.802  13.517
41796W        W 6957  14.043  39.896  14.252
41797W        W 6958   9.387   6.763  14.253
41798W        W 6959  18.015   3.362  14.997
41799W        W 6960  14.373   9.852   0.419
41800W        W 6961  26.077   4.650  12.429
41801W        W 6962  16.017  17.700  13.085
41802W        W 6963   6.861  39.338  13.583
41803W        W 6964  24.053  16.690   3.822
41804W        W 6965  44.157  32.371  11.209
41805W        W 6966  43.722  33.599  11.096
41806W        W 6967  29.011  34.376   0.908
41807W        W 6968  29.436   1.534   3.096
41808W        W 6969  20.220  29.497   2.917
41809W        W 6970  14.319  15.758  14.003
41810W        W 6971  18.366   3.973  10.701
41811W        W 6972  17.110  21.703   2.467
41812W        W 6973   4.368  19.248  13.378
41813W        W 6974  36.758  17.656   2.313
41814W        W 6975  25.292   6.364  13.582
41815W        W 6976  27.878  17.476  11.632
41816W        W 6977   0.461  14.146   2.826
41817W        W 6978  15.980  15.207  13.960
41818W        W 6979   9.136  15.809   5.031
41819W        W 6980  17.765  19.768  14.013
41820W        W 6981  32.389  35.310   0.301
41821W        W 6982  15.520   3.303   4.937
41822W        W 6983   2.934   9.643  11.126
41823W        W 6984  26.679  24.588   4.614
41824W        W 6985  24.911  10.088   0.830
41825W        W 6986   0.983   3.496  10.680
41826W        W 6987  21.954   1.479   1.708
41827W        W 6988  34.293  15.218   0.496
41828W        W 6989  36.107  18.569   1.404
41829W        W 6990  28.203   9.875  13.528
41830W        W 6991   6.224  16.756  10.389
41831W        W 6992   1.670  18.686   2.372
41832W        W 6993  28.743  30.131   0.428
41833W        W 6994  10.733  42.737   2.752
41834W        W 6995  32.958  39.354  12.191
41835W        W 6996  21.952   5.229  10.993
41836W        W 6997  32.671  40.879   2.207
41837W        W 6998  20.098   7.647   4.053
41838W        W 6999  18.258  20.105   3.521
41839W        W 7000  37.906  40.605   1.558
41840W        W 7001  40.570  39.111  11.616
41841W        W 7002  19.730  14.584  12.570
41842W        W 7003  31.692   1.805  10.675
41843W        W 7004  24.322  31.467   0.878
41844W        W 7005  38.560  14.619  11.357
41845W        W 7006  25.056  36.065   1.325
41846W        W 7007  43.459  21.482   4.150
41847W        W 7008  38.583  41.191   1.232
41848W        W 7009  19.755  34.014   4.228
41849W        W 7010  35.883  35.614  10.753
41850W        W 7011  15.789   7.892  11.126
41851W        W 7012  19.044   6.778  11.502
41852W        W 7013  28.859  36.298  11.172
41853W        W 7014  42.961  38.816   1.879
41854W        W 7015  36.369  12.645   3.548
41855W        W 7016  10.049   2.643   2.818
41856W        W 7017  37.352  38.767   0.440
41857W        W 7018   7.744  19.191   3.649
41858W        W 7019  26.205  10.321   1.451
41859W        W 7020  21.410  16.781  14.840
41860W        W 7021  41.226  11.125  14.980
41861W        W 7022  14.282  32.891   3.359
41862W        W 7023  38.887   3.965   2.780
41863W        W 7024  42.178  24.551   1.863
41864W        W 7025  38.281  32.091   3.428
41865W        W 7026  38.335  39.987  13.846
41866W        W 7027   1.759  41.502  12.020
41867W        W 7028  37.396  30.654   1.007
41868W        W 7029  16.665  34.647   1.245
41869W        W 7030  36.132  22.045  12.880
41870W        W 7031  35.115   2.319   1.910
41871W        W 7032   8.673  42.287  14.102
41872W        W 7033  11.746  36.885  10.491
41873W        W 7034   2.933  42.653  12.945
41874W        W 7035  38.042  16.739   4.582
41875W        W 7036  38.960  15.622  14.913
41876W        W 7037   8.213   7.855   2.004
41877W        W 7038  42.077  15.690  10.816
41878W        W 7039   7.770  17.838  13.543
41879W        W 7040   0.266  44.245   1.352
41880W        W 7041  29.617  42.575  10.863
41881W        W 7042  16.019  36.359   2.209
41882W        W 7043  14.125  42.749   0.231
41883W        W 7044  44.256  27.639   2.249
41884W        W 7045   4.623  33.896  14.787
41885W        W 7046  10.623   4.677   2.343
41886W        W 7047  25.414   1.721   0.946
41887W        W 7048  16.569  14.637  14.505
41888W        W 7049   9.307   8.654  13.600
41889W        W 7050  19.320  44.748  12.598
41890W        W 7051  25.718  32.660   3.550
41891W        W 7052  11.388  43.430  12.852
41892W        W 7053  40.114   8.227  12.116
41893W        W 7054  16.786  26.685   1.307
41894W        W 7055  19.174  42.054   1.714
41895W        W 7056  29.118  18.203  14.876
41896W        W 7057   7.308  39.315  14.219
41897W        W 7058  24.720  36.562   1.309
41898W        W 7059  44.397   6.280  13.146
41899W        W 7060   9.729  37.346   0.140
41900W        W 7061   6.304  40.194  11.113
41901W        W 7062  21.866   1.365   0.381
41902W        W 7063  16.716   9.109  14.342
41903W        W 7064   8.239   7.534  11.912
41904W        W 7065  38.154  43.872   1.182
41905W        W 7066  19.550  21.260   0.733
41906W        W 7067  29.216  17.294  12.594
41907W        W 7068  40.757  10.633   1.634
41908W        W 7069  30.103  12.676  12.343
41909W        W 7070   7.803  24.837   0.428
41910W        W 7071  19.638  29.941   0.608
41911W        W 7072  33.070   9.611  10.417
41912W        W 7073  43.886  18.169   0.545
41913W        W 7074  10.715  25.468  12.116
41914W        W 7075  19.701  22.684  14.316
41915W        W 7076  32.880  38.070   4.851
41916W        W 7077  13.069   5.290  12.851
41917W        W 7078  33.616  34.088   2.800
41918W        W 7079  31.206   4.461  12.187
41919W        W 7080   2.941  16.857  10.625
41920W        W 7081  13.020  22.792   0.234
41921W        W 7082  18.073  12.814   1.277
41922W        W 7083   0.190  42.358   4.486
41923W        W 7084  35.529  38.135  13.343
41924W        W 7085  13.022   5.771  11.541
41925W        W 7086  25.716  26.840   0.438
41926W        W 7087  19.422  25.905   1.315
41927W        W 7088  20.004  12.010   2.773
41928W        W 7089  36.829  16.895  13.076
41929W        W 7090  44.882   0.777   2.261
41930W        W 7091  19.176   4.667  10.795
41931W        W 7092  28.875  43.560  13.860
41932W        W 7093  27.194  44.583  10.228
41933W        W 7094  24.409  12.323   3.274
41934W        W 7095  37.824  41.226  11.840
41935W        W 7096  38.911  36.203  14.353
41936W        W 7097  44.621  42.836   4.057
41937W        W 7098  27.646  19.105   1.993
41938W        W 7099  24.866  10.203   2.144
41939W        W 7100  35.605  37.442  13.883
41940W        W 7101  42.075  36.593  11.608
41941W        W 7102  13.065  19.667  13.004
41942W        W 7103  16.824  29.145   2.437
41943W        W 7104   1.071  30.398  14.346
41944W        W 7105  28.900  12.640  10.723
41945W        W 7106  10.605  38.338  11.174
41946W        W 7107  22.100  33.278  14.749
41947W        W 7108   2.564  36.894  14.971
41948W        W 7109  38.657  31.132   1.340
41949W        W 7110   2.180   4.702  11.572
41950W        W 7111  30.278  42.437   2.436
41951W        W 7112  27.453  44.330   1.197
41952W        W 7113  10.238   5.716   0.540
41953W        W 7114  43.235  35.347   4.730
41954W        W 7115   1.033  31.592   1.454
41955W        W 7116  29.002  41.983   1.255
41956W        W 7117   0.658   7.953   1.763
41957W        W 7118  23.135   7.335  13.954
41958W        W 7119  36.011  12.683  14.612
41959W        W 7120  12.149  14.054  14.755
41960W        W 7121  23.792  42.528   1.266
41961W        W 7122   6.206  27.071  11.327
41962W        W 7123  13.120  39.435   4.477
41963W        W 7124  36.369   1.375  12.339
41964W        W 7125  44.023  19.511   1.150
41965W        W 7126  23.763   0.469   4.107
41966W        W 7127  29.485  43.338  12.031
41967W        W 7128  13.220  20.731  11.900
41968W        W 7129  14.525  32.170  11.424
41969W        W 7130   4.402  34.360  14.351
41970W        W 7131  32.105   5.732  14.813
41971W        W 7132  16.862   1.004  11.940
41972W        W 7133  42.800  33.949  13.324
41973W        W 7134   5.288  30.429   2.333
41974W        W 7135   0.120  13.438  14.318
41975W        W 7136  31.606  15.421  10.811
41976W        W 7137  37.588  33.945  12.497
41977W        W 7138  25.310  41.455  14.749
41978W        W 7139   0.279   3.790   1.641
41979W        W 7140  29.562  23.790  13.842
41980W        W 7141   2.190  27.485   4.217
41981W        W 7142  18.724  40.114   2.307
41982W        W 7143  41.233   1.798  11.108
41983W        W 7144  40.758  34.096   2.752
41984W        W 7145  41.097  17.988  10.787
41985W        W 7146  35.056   1.892  12.901
41986W        W 7147  17.698   1.210   0.534
41987W        W 7148  19.721   3.283   3.120
41988W        W 7149   0.001  33.818  13.545
41989W        W 7150  30.904   7.625   0.714
41990W        W 7151   6.201  17.260  14.083
41991W        W 7152   5.229  21.246   0.989
41992W        W 7153  44.091  10.251  11.666
41993W        W 7154   8.912  26.556  13.925
41994W        W 7155  15.011  13.734  12.528
41995W        W 7156  21.815  10.329  14.733
41996W        W 7157   9.631   1.785   4.406
41997W        W 7158  23.539  19.798  10.721
41998W        W 7159  15.233   2.775  13.724
41999W        W 7160  17.747  33.635   2.918
42000W        W 7161  39.403  12.198   0.790
42001W        W 7162  18.589  23.462  13.876
42002W        W 7163  25.385  40.514   5.396
42003W        W 7164  38.893  31.979  13.604
42004W        W 7165  37.019  41.946   4.955
42005W        W 7166  28.902   3.195   0.924
42006W        W 7167   4.790  26.352   3.164
42007W        W 7168   8.901   7.401   1.296
42008W        W 7169   9.562  15.963   1.860
42009W        W 7170  25.634  43.684  14.828
42010W        W 7171  26.004  33.803   0.495
42011W        W 7172   5.940  24.137   1.218
42012W        W 7173  31.972   6.831   4.902
42013W        W 7174  35.454  18.080  11.042
42014W        W 7175  28.202  21.726   4.472
42015W        W 7176  44.301  25.979   0.269
42016W        W 7177   9.123  44.439   1.105
42017W        W 7178  43.853  34.629  12.105
42018W        W 7179  38.477  10.416  11.094
42019W        W 7180  18.083  21.074  12.252
42020W        W 7181  33.550   4.599   3.746
42021W        W 7182  41.995   0.763   2.188
42022W        W 7183  15.227  42.688  12.061
42023W        W 7184  17.672  20.565  11.441
42024W        W 7185   2.652  34.345  14.807
42025W        W 7186  34.701  34.685  10.696
42026W        W 7187  14.197  39.296   0.985
42027W        W 7188  14.199  43.260  12.506
42028W        W 7189  36.085  12.706   1.038
42029W        W 7190  20.595  37.817  13.205
42030W        W 7191  24.476  42.914   3.705
42031W        W 7192   3.779  27.219   3.943
42032W        W 7193  43.119  21.920  14.598
42033W        W 7194  41.582   1.339  13.337
42034W        W 7195  31.332   9.674  13.714
42035W        W 7196  30.667   4.431  12.622
42036W        W 7197  32.563  25.025  11.589
42037W        W 7198  38.285  11.791  13.562
42038W        W 7199  37.551   2.660   3.685
42039W        W 7200  13.077  43.335   0.535
42040W        W 7201  19.644  44.511   2.446
42041W        W 7202  26.566  18.269   5.180
42042W        W 7203  37.665   1.005  14.399
42043W        W 7204  38.923  25.244   2.768
42044W        W 7205  21.351   4.857  10.678
42045W        W 7206  39.494  37.765  14.021
42046W        W 7207   8.688  22.218   4.703
42047W        W 7208  37.954   3.785   1.886
42048W        W 7209  34.922  37.549  14.262
42049W        W 7210  24.760   8.748  14.019
42050W        W 7211  10.871   4.245   2.802
42051W        W 7212  20.431  39.222   3.745
42052W        W 7213  42.573  16.075   3.890
42053W        W 7214  17.706   4.290   3.297
42054W        W 7215  39.876  21.189  14.426
42055W        W 7216  16.011  25.031   0.348
42056W        W 7217  30.691  37.051   1.862
42057W        W 7218  27.555  20.476   4.680
42058W        W 7219  15.032  37.016   3.181
42059W        W 7220   3.271   4.214   1.803
42060W        W 7221   1.150  23.500  12.764
42061W        W 7222  22.204  17.392  14.711
42062W        W 7223  36.817  16.292   0.877
42063W        W 7224  27.748  41.868   1.760
42064W        W 7225  37.155  44.933   2.731
42065W        W 7226  37.321  37.384  10.164
42066W        W 7227  11.178  14.885   2.029
42067W        W 7228  23.184  19.823   5.377
42068W        W 7229  14.120  22.543   4.293
42069W        W 7230   8.265  38.500  10.612
42070W        W 7231  30.013  19.476   4.896
42071W        W 7232  30.982  43.338   0.398
42072W        W 7233   3.463   5.569  11.666
42073W        W 7234  11.641  30.894  14.378
42074W        W 7235  25.526   8.431   2.313
42075W        W 7236  21.682   9.575  14.094
42076W        W 7237   3.751  20.034  10.946
42077W        W 7238  37.465  31.106   3.516
42078W        W 7239  16.275  10.262  13.722
42079W        W 7240  33.071   4.204   0.725
42080W        W 7241  43.929  27.065   1.559
42081W        W 7242  39.322  36.025  14.056
42082W        W 7243  19.707  36.693   0.947
42083W        W 7244  14.816  18.808  12.536
42084W        W 7245   3.715  31.118  11.669
42085W        W 7246  16.763  38.471  10.557
42086W        W 7247  32.036  34.371   1.057
42087W        W 7248   0.536  30.455   4.109
42088W        W 7249  34.972  21.478  14.584
42089W        W 7250  42.439  31.885  14.852
42090W        W 7251   0.224  37.372  12.466
42091W        W 7252  32.096  22.525   2.789
42092W        W 7253   6.188  34.994   2.909
42093W        W 7254  32.863  33.476   4.644
42094W        W 7255  35.809  32.029   1.974
42095W        W 7256   3.758  43.713   4.611
42096W        W 7257  24.742  18.212   4.134
42097W        W 7258  18.376  23.330   0.838
42098W        W 7259  11.895  38.467  12.931
42099W        W 7260   4.724   7.256   0.020
42100W        W 7261  33.828  42.138  10.671
42101W        W 7262  18.208  21.192  13.060
42102W        W 7263   4.888  31.547  14.913
42103W        W 7264   7.842  20.288  13.369
42104W        W 7265  12.565  35.029  11.135
42105W        W 7266   6.357  43.965   4.049
42106W        W 7267   6.799   2.947   2.414
42107W        W 7268  40.442  38.006  13.770
42108W        W 7269  33.153  31.918  11.098
42109W        W 7270  38.761  31.790  12.490
42110W        W 7271  40.919   5.653   1.373
42111W        W 7272  20.695  26.007  14.801
42112W        W 7273  41.411  12.324  11.738
42113W        W 7274   1.974  30.498  13.419
42114W        W 7275   4.265  20.042   1.278
42115W        W 7276   3.613  22.222  13.649
42116W        W 7277   1.840  40.648  10.745
42117W        W 7278  10.598   1.943  13.532
42118W        W 7279  23.318  33.121  14.833
42119W        W 7280  13.443   4.408  12.965
42120W        W 7281   8.295  26.201   0.771
42121W        W 7282  29.822  25.705  14.804
42122W        W 7283  36.696  17.284   0.745
42123W        W 7284  37.309  27.002   4.658
42124W        W 7285  10.721  36.148  10.920
42125W        W 7286  33.915  29.895   2.154
42126W        W 7287   7.010  39.085   2.852
42127W        W 7288   6.355  20.181   0.462
42128W        W 7289  14.588  42.090  11.982
42129W        W 7290  25.578  21.085  13.591
42130W        W 7291  43.810  32.369   2.201
42131W        W 7292  34.851  14.454   1.342
42132W        W 7293  23.443  10.183  13.944
42133W        W 7294  30.712  37.505  11.669
42134W        W 7295   9.886   8.363  12.389
42135W        W 7296  23.899  31.426  11.067
42136W        W 7297   0.290  44.931  11.186
42137W        W 7298  14.355  37.483   4.175
42138W        W 7299  30.471  35.265   4.526
42139W        W 7300  17.588  23.411   3.629
42140W        W 7301  44.723   1.807  12.842
42141W        W 7302   9.178  38.445  11.091
42142W        W 7303   4.188  33.678   3.199
42143W        W 7304  19.868   9.020   2.418
42144W        W 7305  20.048  44.870   1.937
42145W        W 7306  13.548  27.114   1.860
42146W        W 7307  38.596  13.106   2.638
42147W        W 7308  42.762   1.438   1.793
42148W        W 7309  36.999  25.697  10.774
42149W        W 7310  38.617  14.284   2.743
42150W        W 7311  28.126  29.113  10.730
42151W        W 7312   6.345  10.242  12.861
42152W        W 7313  17.869  32.095  11.575
42153W        W 7314  30.494  37.361  14.425
42154W        W 7315  44.980  33.968   0.820
42155W        W 7316  36.942  38.972  10.691
42156W        W 7317  21.126   3.805  12.793
42157W        W 7318   6.204  27.019  13.973
42158W        W 7319  15.620  33.514   0.265
42159W        W 7320  21.101  17.372  12.077
42160W        W 7321  35.842  20.299  12.558
42161W        W 7322  18.664   3.720   1.221
42162W        W 7323   9.710  17.863   2.191
42163W        W 7324  21.677  17.559   4.745
42164W        W 7325  39.010  41.587   1.906
42165W        W 7326  22.738  10.604   2.415
42166W        W 7327   3.724   0.653   1.236
42167W        W 7328   8.696  22.365  12.195
42168W        W 7329   3.854  41.359   3.313
42169W        W 7330  24.820  21.789  10.980
42170W        W 7331   0.657  33.116  12.098
42171W        W 7332   4.712  28.552  11.184
42172W        W 7333   7.162  15.743  13.861
42173W        W 7334  31.384  43.229  11.120
42174W        W 7335  24.193  32.365  11.422
42175W        W 7336  16.629  39.464   9.634
42176W        W 7337  15.537  44.928   3.704
42177W        W 7338  12.536   1.194  11.997
42178W        W 7339  43.041   0.993   1.274
42179W        W 7340  32.874  40.032   2.755
42180W        W 7341  26.190  16.605  10.912
42181W        W 7342  32.169   3.820   0.027
42182W        W 7343  29.533  29.617   2.310
42183W        W 7344  15.380  31.000  10.687
42184W        W 7345  43.042   2.880   3.329
42185W        W 7346  23.191  23.253  11.779
42186W        W 7347  40.862  12.846  10.635
42187W        W 7348  11.741   2.926   1.988
42188W        W 7349  30.096  25.079   0.843
42189W        W 7350  13.270   5.835  10.651
42190W        W 7351   5.512  32.907  13.543
42191W        W 7352   5.783  43.019  11.384
42192W        W 7353  41.939  36.125  12.557
42193W        W 7354  16.852  24.435   1.220
42194W        W 7355  40.850  25.065  10.472
42195W        W 7356  41.935  39.840   1.708
42196W        W 7357  40.575   7.879  14.004
42197W        W 7358  13.145  29.451   0.720
42198W        W 7359  11.124   8.188  12.849
42199W        W 7360   6.376   4.714   0.926
42200W        W 7361   3.937  11.489   2.924
42201W        W 7362  11.517  36.313   2.724
42202W        W 7363   2.164   6.677  10.850
42203W        W 7364  21.537  14.550   3.245
42204W        W 7365  12.084  22.230   1.113
42205W        W 7366  20.626  16.265  12.848
42206W        W 7367  44.989  24.005   4.517
42207W        W 7368  38.375  17.947   3.769
42208W        W 7369  39.528  31.189  12.644
42209W        W 7370  21.050  26.460  11.568
42210W        W 7371  23.565  39.773  12.921
42211W        W 7372  30.592  20.768   3.991
42212W        W 7373  16.161   3.194   0.912
42213W        W 7374  27.639  37.059  13.499
42214W        W 7375  15.505  20.623   4.637
42215W        W 7376  10.286   9.113  12.328
42216W        W 7377   8.352  32.879  13.535
42217W        W 7378  26.701   5.483   0.739
42218W        W 7379  15.091  33.034   1.297
42219W        W 7380  19.637   5.261  12.626
42220W        W 7381  12.743  24.540   3.166
42221W        W 7382   3.138   9.714  11.636
42222W        W 7383  20.443  40.393  14.738
42223W        W 7384   1.467  14.793  13.941
42224W        W 7385  13.917  27.229  11.661
42225W        W 7386   6.425  16.334   1.234
42226W        W 7387  39.084  32.524   1.353
42227W        W 7388  24.072  21.211   0.384
42228W        W 7389  20.017  31.326   2.770
42229W        W 7390   2.824  40.582   3.081
42230W        W 7391  26.850  19.829  12.960
42231W        W 7392   9.095  19.123  10.564
42232W        W 7393  20.701  39.103  11.547
42233W        W 7394  25.042  22.809   5.096
42234W        W 7395  18.272  26.490   0.388
42235W        W 7396  32.974   9.857  11.939
42236W        W 7397  32.150  22.734  14.285
42237W        W 7398  31.605  42.261  11.134
42238W        W 7399  18.174  41.528   2.484
42239W        W 7400  44.740  40.236   3.158
42240W        W 7401  41.130  11.947   4.478
42241W        W 7402   5.014  26.329  13.524
42242W        W 7403  34.123   7.782  12.459
42243W        W 7404  21.539   2.895   4.051
42244W        W 7405  33.715  11.556  12.555
42245W        W 7406  26.933  20.089  14.721
42246W        W 7407  43.863   9.200   1.319
42247W        W 7408  40.251  15.101   4.879
42248W        W 7409   2.156  41.544   4.657
42249W        W 7410  14.811   8.768  10.891
42250W        W 7411  40.103   0.286   2.261
42251W        W 7412  26.115  44.103  11.144
42252W        W 7413  23.134   5.076   1.909
42253W        W 7414  35.074  12.326  13.283
42254W        W 7415   1.355   4.825  14.872
42255W        W 7416   0.615  35.181   4.531
42256W        W 7417  25.210  17.556  12.131
42257W        W 7418   7.380  25.161   0.477
42258W        W 7419  19.287  24.576  11.433
42259W        W 7420  21.815  15.954  12.412
42260W        W 7421  36.738  21.131   2.396
42261W        W 7422  30.022  23.029   2.668
42262W        W 7423   9.900  12.541  10.837
42263W        W 7424  39.207  19.262   0.088
42264W        W 7425   6.637   4.905  13.050
42265W        W 7426  12.289   7.657   4.496
42266W        W 7427  24.071  21.231   1.283
42267W        W 7428  14.349   4.742  11.581
42268W        W 7429  40.957  40.857  11.968
42269W        W 7430  40.003  44.493   0.242
42270W        W 7431  42.746  41.414   3.089
42271W        W 7432  32.019  34.511   3.784
42272W        W 7433  32.444   5.257  12.570
42273W        W 7434  10.807   2.305   2.291
42274W        W 7435  39.578  35.560   4.677
42275W        W 7436  29.192  37.850  12.621
42276W        W 7437  37.339   1.443   1.990
42277W        W 7438  20.173   5.225  11.124
42278W        W 7439   3.423  14.272  12.130
42279W        W 7440  31.521  15.438  13.514
42280W        W 7441  23.497  39.511   3.268
42281W        W 7442  24.279  22.262   2.646
42282W        W 7443  31.732  40.738   0.073
42283W        W 7444  14.881   2.465   2.486
42284W        W 7445  34.016  26.244  10.696
42285W        W 7446  16.541  39.063   3.048
42286W        W 7447  40.405  20.203  12.929
42287W        W 7448  27.005  36.066   1.211
42288W        W 7449  20.455  18.158  12.293
42289W        W 7450  16.089  18.219  10.141
42290W        W 7451  31.395  32.871  14.487
42291W        W 7452  24.750  25.584   4.532
42292W        W 7453  44.714  39.606   0.173
42293W        W 7454  23.431  27.160   1.162
42294W        W 7455  11.324  32.288   3.196
42295W        W 7456   1.516  12.180   1.820
42296W        W 7457  30.733   6.868   3.182
42297W        W 7458  17.868  19.841   4.318
42298W        W 7459  21.126  21.190   1.205
42299W        W 7460   9.907  40.800   4.155
42300W        W 7461  33.927  10.752   1.430
42301W        W 7462   0.226  23.565   4.608
42302W        W 7463   6.177  44.907   3.578
42303W        W 7464  18.875   5.614  11.102
42304W        W 7465   6.822   2.380   3.244
42305W        W 7466   2.726   4.862   2.314
42306W        W 7467  13.772  15.133  10.475
42307W        W 7468  38.871  44.054  14.349
42308W        W 7469  32.046  17.010   4.072
42309W        W 7470  37.580  27.962   4.396
42310W        W 7471  33.903  10.861  10.730
42311W        W 7472  43.466   3.838   0.360
42312W        W 7473  36.609   8.705  13.363
42313W        W 7474   1.425  11.635   5.352
42314W        W 7475  42.864  11.788  11.914
42315W        W 7476  41.848  36.987   2.683
42316W        W 7477   7.475  16.148   3.720
42317W        W 7478   7.420   7.717  11.960
42318W        W 7479  14.904   7.893  12.369
42319W        W 7480  24.627   7.869  14.517
42320W        W 7481   3.682   8.328  12.026
42321W        W 7482  14.246  30.494   3.251
42322W        W 7483  13.926   3.479  10.235
42323W        W 7484  41.514  40.524   4.920
42324W        W 7485  10.069  40.860  13.737
42325W        W 7486  39.487  42.142   3.671
42326W        W 7487   7.814  38.812   4.657
42327W        W 7488  10.766  17.883   0.400
42328W        W 7489  15.953   0.436  12.551
42329W        W 7490  36.559  18.814   3.223
42330W        W 7491  33.461  36.504  13.440
42331W        W 7492  12.903  24.283   5.065
42332W        W 7493  35.924  19.089  10.422
42333W        W 7494   6.454  19.724  12.090
42334W        W 7495  11.749   7.307  12.395
42335W        W 7496   2.764  21.052   4.347
42336W        W 7497  21.715   5.731   2.736
42337W        W 7498  19.491  41.564  10.512
42338W        W 7499  13.857  34.224  11.001
42339W        W 7500  41.368  28.764  13.333
42340W        W 7501  32.664  21.834   2.671
42341W        W 7502  29.953  44.954  11.062
42342W        W 7503   4.319  15.560   0.961
42343W        W 7504  32.963   5.148   3.286
42344W        W 7505  14.135  15.296   1.011
42345W        W 7506  38.778   4.810   2.438
42346W        W 7507   9.880  42.854   2.704
42347W        W 7508  18.474  39.477   1.444
42348W        W 7509  27.298  23.850   4.389
42349W        W 7510  37.456   9.162   3.752
42350W        W 7511  24.187  39.838   2.007
42351W        W 7512  35.057   3.176   4.491
42352W        W 7513  38.578  13.925   2.170
42353W        W 7514  37.143  29.577  14.049
42354W        W 7515  32.979  15.531   3.889
42355W        W 7516  14.699  25.543  13.868
42356W        W 7517  14.420  41.736  11.479
42357W        W 7518   6.591  30.086   5.030
42358W        W 7519  24.013  19.172   4.509
42359W        W 7520   2.393  30.236  14.569
42360W        W 7521  40.342  39.423  13.909
42361W        W 7522   6.822  40.083  11.100
42362W        W 7523  41.286  31.564   1.692
42363W        W 7524  16.846   3.105   0.461
42364W        W 7525  42.719  41.260  14.968
42365W        W 7526  35.995   3.235   4.038
42366W        W 7527  11.705  38.992   2.210
42367W        W 7528  24.428  37.838  12.832
42368W        W 7529  19.038  16.552  11.660
42369W        W 7530   3.204  34.882  14.795
42370W        W 7531   9.823   0.441   2.704
42371W        W 7532  10.982   5.371  12.399
42372W        W 7533   4.999   3.253   3.285
42373W        W 7534  29.125  10.291  11.086
42374W        W 7535  12.851  13.349   3.768
42375W        W 7536  43.248  10.252   3.537
42376W        W 7537  24.272  42.461  11.605
42377W        W 7538  35.122  43.235   3.832
42378W        W 7539  22.638  28.494   4.245
42379W        W 7540  14.380   8.872  11.603
42380W        W 7541  23.139   9.468  13.557
42381W        W 7542  16.035  12.939   1.444
42382W        W 7543  21.654   0.051  10.700
42383W        W 7544  42.732  33.552  11.114
42384W        W 7545  19.349  44.439  11.005
42385W        W 7546  35.981  33.156  11.613
42386W        W 7547   7.917  44.489   4.610
42387W        W 7548  27.509  18.258   1.008
42388W        W 7549  16.100  28.371   1.133
42389W        W 7550  39.059   8.173  11.237
42390W        W 7551  21.806  37.927   4.612
42391W        W 7552  33.623  17.000  12.526
42392W        W 7553  10.191  32.720  12.244
42393W        W 7554   6.730  36.635  14.789
42394W        W 7555  25.015  38.085  14.085
42395W        W 7556   6.238  12.792   0.217
42396W        W 7557  31.502  18.213   3.437
42397W        W 7558   0.452  25.651  12.601
42398W        W 7559  25.284   6.356   4.694
42399W        W 7560  27.157   4.412   2.821
42400W        W 7561  39.797  13.314   1.840
42401W        W 7562  35.848  18.516  14.472
42402W        W 7563  39.677  30.520  11.631
42403W        W 7564  30.083  35.948   2.665
42404W        W 7565  38.488  43.337  10.248
42405W        W 7566  39.348   6.785  11.256
42406W        W 7567  40.528  16.585  10.496
42407W        W 7568  11.738  16.506  12.544
42408W        W 7569   2.971  25.550   0.630
42409W        W 7570  43.431   1.050  11.412
42410W        W 7571  13.866   2.716  12.567
42411W        W 7572  14.696   7.573   4.250
42412W        W 7573  32.119  11.301   3.769
42413W        W 7574  41.060  10.589  12.438
42414W        W 7575  31.183  19.186  14.825
42415W        W 7576   5.637  36.923  13.539
42416W        W 7577  26.991  41.561  14.222
42417W        W 7578  21.702  13.489  14.464
42418W        W 7579   5.046  40.361   4.677
42419W        W 7580  15.243   6.436  12.589
42420W        W 7581  38.042  23.746  11.627
42421W        W 7582   9.777  28.239  12.023
42422W        W 7583  22.606   6.925  10.543
42423W        W 7584  26.174  40.555  13.640
42424W        W 7585  36.371   4.258  12.009
42425W        W 7586  43.279  16.844   2.376
42426W        W 7587  42.459  37.678   2.190
42427W        W 7588  20.647   8.249   4.564
42428W        W 7589  43.854   5.861  11.530
42429W        W 7590  11.909  37.977  12.793
42430W        W 7591   8.504   3.827  11.099
42431W        W 7592  26.746  41.425  13.777
42432W        W 7593   6.495  12.133   2.863
42433W        W 7594   9.441  30.478  12.893
42434W        W 7595   4.644  16.650  10.019
42435W        W 7596  34.284  44.398   4.579
42436W        W 7597  12.419  38.498  10.675
42437W        W 7598  21.103  12.658  11.205
42438W        W 7599  22.816  24.554   3.327
42439W        W 7600  10.147  26.454  13.506
42440W        W 7601  42.436  41.042  11.146
42441W        W 7602   0.664  28.555  13.294
42442W        W 7603  19.532  22.040   0.665
42443W        W 7604  37.084  36.428   4.034
42444W        W 7605   6.362   2.197   2.224
42445W        W 7606  33.912   4.844   0.681
42446W        W 7607   7.775  39.737   3.100
42447W        W 7608  16.983  40.287  11.176
42448W        W 7609  33.836  23.559  13.902
42449W        W 7610  23.356  30.151   3.926
42450W        W 7611   0.377  15.590  13.475
42451W        W 7612  22.250   0.370  12.962
42452W        W 7613   5.121  39.085  11.569
42453W        W 7614  29.521  40.896   3.250
42454W        W 7615  28.219  40.067  12.554
42455W        W 7616   0.928  38.151   1.589
42456W        W 7617  32.514  25.975  12.808
42457W        W 7618   2.173  20.056  13.456
42458W        W 7619  41.564  15.701  11.677
42459W        W 7620   5.890  36.502  11.286
42460W        W 7621  15.549   3.765  11.048
42461W        W 7622   7.720   4.844   0.215
42462W        W 7623  40.859  12.872  13.776
42463W        W 7624  21.720   2.888   1.316
42464W        W 7625   5.867  24.942  12.020
42465W        W 7626  41.583  13.148  13.097
42466W        W 7627  12.252   5.239  10.774
42467W        W 7628  25.919  16.032   5.197
42468W        W 7629  40.428  24.580   2.242
42469W        W 7630   2.971   1.256   2.640
42470W        W 7631  25.680  40.334  13.964
42471W        W 7632  31.384  38.876   0.006
42472W        W 7633  32.612  26.841  14.015
42473W        W 7634  30.514  35.875   2.391
42474W        W 7635  12.196  27.411  14.059
42475W        W 7636  36.314   1.914  12.120
42476W        W 7637   3.643  13.192   0.730
42477W        W 7638  35.233  32.882   3.134
42478W        W 7639  41.746  17.798  11.059
42479W        W 7640  39.346   9.945   2.007
42480W        W 7641   0.178  44.942  12.556
42481W        W 7642  35.146  10.703   1.414
42482W        W 7643  37.819  20.573   1.879
42483W        W 7644  24.209  26.019  11.267
42484W        W 7645  43.874  23.633   1.207
42485W        W 7646   7.613  17.412  13.295
42486W        W 7647   1.332  22.095  13.089
42487W        W 7648  44.150   2.128   3.528
42488W        W 7649  23.144   6.994  11.442
42489W        W 7650  27.120  31.179   2.238
42490W        W 7651   8.209   7.616   4.131
42491W        W 7652  26.112  39.721  14.802
42492W        W 7653  27.149  40.456   1.284
42493W        W 7654   9.844  28.327  11.126
42494W        W 7655  20.535  14.683   1.208
42495W        W 7656   8.696  31.953   3.095
42496W        W 7657   4.434  34.002   4.031
42497W        W 7658  23.300   5.317   2.337
42498W        W 7659  40.583  23.086  11.104
42499W        W 7660  34.015  29.243  12.396
42500W        W 7661  34.057   0.553  10.600
42501W        W 7662  35.815  38.523  11.333
42502W        W 7663   5.240   3.651  14.361
42503W        W 7664  34.437  35.781  12.907
42504W        W 7665  34.064   5.936   3.106
42505W        W 7666   1.321  38.047   4.277
42506W        W 7667  10.813  12.880   0.324
42507W        W 7668   6.330  11.879   2.157
42508W        W 7669  22.229  28.421  12.349
42509W        W 7670   9.610  18.970   3.970
42510W        W 7671  26.335  29.942  12.000
42511W        W 7672  31.965  44.222  13.492
42512W        W 7673   1.652  36.481   9.538
42513W        W 7674   5.988  11.624  10.969
42514W        W 7675  13.892  23.570  10.646
42515W        W 7676  41.395  38.893  12.123
42516W        W 7677  13.761  44.262   3.164
42517W        W 7678  39.868  43.058   3.685
42518W        W 7679  31.871  34.679  10.723
42519W        W 7680   6.879  26.058  12.125
42520W        W 7681  16.204  35.505  11.036
42521W        W 7682   1.226  38.931  13.154
42522W        W 7683   1.872  38.555  11.621
42523W        W 7684  27.652  17.782  13.678
42524W        W 7685  11.217  21.112  11.349
42525W        W 7686  29.626  17.656   4.628
42526W        W 7687  33.526  36.349  11.576
42527W        W 7688   9.604  22.829   3.758
42528W        W 7689  10.073  11.383  12.941
42529W        W 7690  43.398  19.129   1.421
42530W        W 7691   0.390  33.477  13.477
42531W        W 7692  13.659   7.395   1.753
42532W        W 7693  31.350  24.681   4.093
42533W        W 7694  19.549  24.253  12.498
42534W        W 7695   4.209  14.673   0.397
42535W        W 7696  26.658  32.199   4.505
42536W        W 7697  40.791  15.037  14.722
42537W        W 7698  16.246  27.609  11.369
42538W        W 7699  36.381  44.756   0.083
42539W        W 7700  13.942  40.559   3.982
42540W        W 7701  18.696   6.873   1.277
42541W        W 7702   8.840  16.555  11.112
42542W        W 7703  13.175  23.016  10.758
42543W        W 7704  25.562   9.237  10.249
42544W        W 7705  24.123   1.417   4.361
42545W        W 7706  32.473  18.168   2.052
42546W        W 7707  19.197   9.153   0.480
42547W        W 7708  30.896  41.341   3.012
42548W        W 7709  24.224  12.662  10.953
42549W        W 7710   2.000  27.669  13.081
42550W        W 7711  37.527  28.893  13.804
42551W        W 7712  40.090  25.751  12.070
42552W        W 7713  17.678  27.578   4.518
42553W        W 7714  14.338   8.712  11.120
42554W        W 7715  38.790   9.245  12.456
42555W        W 7716   4.368  15.426  14.727
42556W        W 7717  39.005  30.189  13.662
42557W        W 7718  26.040  20.152   3.146
42558W        W 7719   5.662  20.257  11.121
42559W        W 7720  21.233   6.779  12.599
42560W        W 7721  12.200  28.561  11.950
42561W        W 7722  10.252  32.543  11.248
42562W        W 7723  24.974   1.763   2.887
42563W        W 7724   1.124  16.380  10.262
42564W        W 7725  23.527  32.329  12.114
42565W        W 7726  31.285  15.101  14.301
42566W        W 7727  11.188  43.293   4.959
42567W        W 7728  18.821  32.934   1.850
42568W        W 7729  28.554  10.434  10.699
42569W        W 7730  39.196   9.915  10.985
42570W        W 7731  22.074  41.861   1.239
42571W        W 7732   8.673  44.713  11.449
42572W        W 7733  20.338  30.955  11.509
42573W        W 7734  20.093  44.094   4.093
42574W        W 7735   5.426  26.211  13.786
42575W        W 7736  11.102  40.947  13.907
42576W        W 7737  18.133  21.496  14.407
42577W        W 7738  30.887  14.260   3.523
42578W        W 7739  27.259  21.034  14.766
42579W        W 7740  27.067  24.026   1.731
42580W        W 7741   2.270   0.037   4.113
42581W        W 7742  35.206  39.137   0.911
42582W        W 7743  23.182   6.759  12.303
42583W        W 7744  32.520  43.326  13.482
42584W        W 7745  32.213  19.214  14.903
42585W        W 7746  34.591  43.037   0.917
42586W        W 7747  40.963  24.341   2.489
42587W        W 7748  26.617   2.534   5.083
42588W        W 7749  14.788   6.566   1.286
42589W        W 7750  23.210  32.531   1.502
42590W        W 7751  29.408   5.297  10.596
42591W        W 7752  44.870  21.472  11.289
42592W        W 7753  19.366  38.072  11.921
42593W        W 7754  12.766  40.482   2.450
42594W        W 7755  28.932  28.870   0.347
42595W        W 7756  31.063  17.684  10.716
42596W        W 7757  27.452  20.485   1.256
42597W        W 7758  12.538  11.306   0.210
42598W        W 7759  28.410  18.627   3.665
42599W        W 7760  36.511  29.949  12.970
42600W        W 7761  27.070  16.195   3.344
42601W        W 7762  25.076  13.711   1.788
42602W        W 7763  41.423  25.428   1.556
42603W        W 7764  11.868   6.635   0.004
42604W        W 7765  10.810   8.164   4.356
42605W        W 7766   3.184  31.064  12.471
42606W        W 7767  32.511  19.002  14.536
42607W        W 7768  29.020   9.339   2.441
42608W        W 7769  41.022  28.876  14.964
42609W        W 7770   6.413  10.337   4.093
42610W        W 7771  28.181   5.869  12.656
42611W        W 7772  20.305  24.786  12.678
42612W        W 7773  29.459  34.563   2.601
42613W        W 7774  22.281  16.462  11.646
42614W        W 7775  36.491  40.337  13.508
42615W        W 7776  10.400   2.952  14.091
42616W        W 7777  21.135   9.006   4.423
42617W        W 7778  33.445   1.339   1.735
42618W        W 7779  19.305  38.965  11.963
42619W        W 7780  40.208  27.549  12.030
42620W        W 7781  33.096  19.138   0.930
42621W        W 7782  37.326  14.136   0.690
42622W        W 7783  22.888  25.640  14.834
42623W        W 7784  31.928  25.212   3.676
42624W        W 7785   9.748  22.427  12.994
42625W        W 7786  24.220  22.204   0.769
42626W        W 7787   3.222  42.997   0.453
42627W        W 7788  25.353  20.320   4.149
42628W        W 7789  37.608  23.059   2.209
42629W        W 7790  13.379  41.908  12.465
42630W        W 7791  35.113  29.070  10.569
42631W        W 7792  13.824  17.469   3.728
42632W        W 7793  13.683   4.008   4.356
42633W        W 7794  41.670  11.915  10.956
42634W        W 7795  43.723  25.465   3.475
42635W        W 7796  41.637  40.675   4.133
42636W        W 7797  23.518  22.042   2.146
42637W        W 7798  34.148  26.612   0.329
42638W        W 7799   8.494   5.765  12.138
42639W        W 7800   8.473  17.268  12.130
42640W        W 7801  14.165  35.463  10.620
42641W        W 7802   4.211   0.806   3.106
42642W        W 7803  10.909  42.005   1.309
42643W        W 7804  37.123   5.192   2.627
42644W        W 7805   6.036  33.527   4.561
42645W        W 7806  32.654   4.460   0.906
42646W        W 7807  14.235  21.234   4.536
42647W        W 7808   2.125  28.608   0.956
42648W        W 7809  16.341  38.012  13.969
42649W        W 7810  29.077  40.744  14.966
42650W        W 7811  44.208  21.797   4.583
42651W        W 7812  39.357  16.825  12.478
42652W        W 7813  37.114  17.659   3.692
42653W        W 7814  22.455  33.646  14.731
42654W        W 7815   6.230  13.587  11.171
42655W        W 7816  41.434  34.000   0.723
42656W        W 7817  15.322   3.293  10.911
42657W        W 7818   4.846  29.383   0.675
42658W        W 7819   5.287  15.286  13.696
42659W        W 7820  44.978  27.252  11.010
42660W        W 7821  36.521  19.708  10.770
42661W        W 7822   4.988  24.784   2.741
42662W        W 7823  42.550   5.683  13.843
42663W        W 7824  17.697  21.311   0.874
42664W        W 7825  21.957  24.209   3.402
42665W        W 7826  29.860  29.582  11.194
42666W        W 7827  32.231  23.702   3.072
42667W        W 7828  27.823  44.000   1.349
42668W        W 7829  17.708  40.971   0.877
42669W        W 7830  26.025  10.902   2.300
42670W        W 7831  31.102  28.517   3.588
42671W        W 7832  17.359  33.599  13.882
42672W        W 7833  26.938  32.615   0.121
42673W        W 7834   4.380  24.944  13.541
42674W        W 7835   0.442  26.164   3.563
42675W        W 7836  11.345   8.288   1.388
42676W        W 7837  33.654  17.785   2.602
42677W        W 7838   4.704  24.511  13.282
42678W        W 7839  19.322  11.200  14.693
42679W        W 7840  13.670  22.980   1.079
42680W        W 7841  43.731  11.471  14.787
42681W        W 7842   7.804  27.954   0.409
42682W        W 7843  44.542  36.866  10.759
42683W        W 7844  33.075  11.484   4.840
42684W        W 7845  43.084   7.290   3.705
42685W        W 7846  32.074  13.317  11.492
42686W        W 7847  39.135  41.608  13.002
42687W        W 7848  18.210  38.245  13.522
42688W        W 7849  42.381  15.547  11.367
42689W        W 7850  44.318  16.882   4.518
42690W        W 7851  27.670  27.532   0.723
42691W        W 7852  11.651  39.929   0.413
42692W        W 7853  26.051  21.051  13.362
42693W        W 7854  32.591  44.836  14.312
42694W        W 7855  35.156  10.650  13.100
42695W        W 7856   5.797   6.564  12.976
42696W        W 7857  30.443  10.229   4.100
42697W        W 7858   4.095  37.813  13.683
42698W        W 7859  18.943  24.575  10.611
42699W        W 7860  12.998  30.442  12.115
42700W        W 7861  40.925  37.444   2.163
42701W        W 7862   6.378  24.580   3.876
42702W        W 7863   2.963  15.229   4.185
42703W        W 7864  42.030  14.841   4.132
42704W        W 7865   5.333  39.128  13.468
42705W        W 7866  39.354  39.134   1.780
42706W        W 7867  32.395  22.349   0.453
42707W        W 7868  33.595  22.077  11.189
42708W        W 7869  42.772   4.677   4.559
42709W        W 7870  20.936  34.072   2.476
42710W        W 7871  43.809   0.545   4.168
42711W        W 7872  34.705  19.293   3.230
42712W        W 7873  14.829   1.369   4.538
42713W        W 7874  31.616  28.654  11.026
42714W        W 7875  44.957  40.304  10.658
42715W        W 7876  40.852  32.828  12.637
42716W        W 7877  34.336  15.793  14.477
42717W        W 7878  41.272  12.384  12.234
42718W        W 7879  30.838  10.683  14.321
42719W        W 7880  37.981  26.694  14.559
42720W        W 7881  15.348  44.805  14.998
42721W        W 7882  28.030  17.658   2.724
42722W        W 7883   6.598  33.382   4.360
42723W        W 7884  13.357  24.748   1.216
42724W        W 7885  30.873  23.070   1.174
42725W        W 7886   9.211  14.774   0.381
42726W        W 7887  17.223  19.637   2.866
42727W        W 7888  42.264   2.454   1.878
42728W        W 7889  28.014  32.937   1.666
42729W        W 7890  32.361  27.118   1.349
42730W        W 7891  11.087  24.285  14.759
42731W        W 7892  27.077  38.101  14.844
42732W        W 7893   9.021  15.584  11.487
42733W        W 7894   1.770  24.630   0.700
42734W        W 7895  40.785  17.167   4.204
42735W        W 7896  16.796   4.872  10.812
42736W        W 7897  27.140  40.054   0.026
42737W        W 7898  12.629  14.593   0.475
42738W        W 7899   0.171  20.697   0.197
42739W        W 7900  20.830  39.537   4.868
42740W        W 7901  44.668  27.928   3.728
42741W        W 7902  36.619  19.530   2.723
42742W        W 7903  10.844  37.588  10.681
42743W        W 7904  43.253  31.160  11.217
42744W        W 7905  10.378  36.028  13.896
42745W        W 7906   5.356   5.932  13.936
42746W        W 7907  18.163  22.006  14.575
42747W        W 7908   6.958  31.335  11.909
42748W        W 7909  27.068  10.750   0.964
42749W        W 7910  16.134  14.311  11.425
42750W        W 7911   6.749  26.376   0.303
42751W        W 7912  39.256  20.011   0.340
42752W        W 7913  10.213  41.758   4.147
42753W        W 7914  29.164  21.389   3.808
42754W        W 7915  40.641  12.244  12.707
42755W        W 7916  29.454  14.032  10.673
42756W        W 7917  16.703  16.267   3.783
42757W        W 7918  34.317  33.514  13.387
42758W        W 7919  22.654  37.521   3.765
42759W        W 7920  19.610  44.745  13.831
42760W        W 7921  35.443   8.885   2.872
42761W        W 7922  32.074   4.273  12.363
42762W        W 7923  17.000  16.719   9.890
42763W        W 7924  10.654  34.082  13.943
42764W        W 7925   3.692  34.096   2.574
42765W        W 7926  12.834  16.196  12.939
42766W        W 7927  41.736  37.537  14.082
42767W        W 7928  44.233  37.859  13.892
42768W        W 7929  11.777   4.828   3.281
42769W        W 7930  11.614  24.996  10.482
42770W        W 7931  36.267  23.771  14.310
42771W        W 7932  28.102  35.088   1.823
42772W        W 7933  10.178  35.931   2.236
42773W        W 7934  44.424  44.507  14.191
42774W        W 7935  13.739  28.210   3.224
42775W        W 7936  12.810  11.926  11.497
42776W        W 7937  38.823  24.745  12.038
42777W        W 7938  42.676  43.453  13.343
42778W        W 7939  40.298  24.666  12.996
42779W        W 7940   1.198  22.027  10.650
42780W        W 7941   2.597  14.630  12.964
42781W        W 7942  39.745   0.743  11.002
42782W        W 7943  40.093   6.734   2.358
42783W        W 7944  37.155  22.249  14.320
42784W        W 7945  26.815   7.681  11.083
42785W        W 7946   2.063  14.438  11.537
42786W        W 7947  17.760   1.544   4.195
42787W        W 7948  32.991   7.932   4.137
42788W        W 7949  18.181  37.077   2.553
42789W        W 7950  14.879   7.028  11.559
42790W        W 7951  43.648  42.451  10.852
42791W        W 7952  17.798  19.680   1.745
42792W        W 7953  11.362  16.719  12.031
42793W        W 7954  31.642  43.134  12.498
42794W        W 7955  18.200  29.217   3.673
42795W        W 7956  19.644  20.960   2.309
42796W        W 7957  17.718  32.578   2.083
42797W        W 7958  41.024  17.648   0.441
42798W        W 7959  42.349  34.366   1.705
42799W        W 7960   3.486  44.843   0.419
42800W        W 7961  10.079  43.073  11.036
42801W        W 7962  30.571   9.581   0.306
42802W        W 7963  30.842  10.421   4.401
42803W        W 7964  44.406  37.633  10.893
42804W        W 7965  13.092  19.755  11.551
42805W        W 7966   5.990  18.459  14.302
42806W        W 7967  41.455  21.487  14.566
42807W        W 7968  23.691  28.613  10.761
42808W        W 7969  26.598  30.516  12.616
42809W        W 7970  40.452  36.850   4.129
42810W        W 7971  28.023  38.015   2.287
42811W        W 7972  32.449   7.623   0.734
42812W        W 7973   7.424  25.759  13.830
42813W        W 7974   1.426  39.485   3.335
42814W        W 7975  44.010   4.215  13.775
42815W        W 7976  15.202  29.030   4.097
42816W        W 7977  40.556   3.463   5.102
42817W        W 7978  18.189  17.301  13.429
42818W        W 7979  31.302  35.045  12.189
42819W        W 7980  35.023  32.156  14.743
42820W        W 7981   0.394  41.835   4.573
42821W        W 7982  39.593  16.756   2.607
42822W        W 7983  30.616  17.810  12.185
42823W        W 7984  44.186  31.560   1.964
42824W        W 7985  27.635  42.225  14.357
42825W        W 7986  32.056  39.868   3.137
42826W        W 7987   0.887  37.613   5.116
42827W        W 7988  19.546   7.251  14.774
42828W        W 7989  42.028  24.939  12.440
42829W        W 7990  36.844   9.198  14.484
42830W        W 7991   5.819  17.054   0.338
42831W        W 7992   2.834  38.058  11.685
42832W        W 7993  15.221  29.975   2.329
42833W        W 7994  32.658  18.414   2.968
42834W        W 7995   4.093  43.036   9.810
42835W        W 7996   2.711  33.874   4.631
42836W        W 7997   9.906   1.498   4.747
42837W        W 7998  10.119  33.164  12.009
42838W        W 7999  11.721  21.874  11.715
42839W        W 8000   8.943  37.423   2.791
42840W        W 8001   1.592  18.573   3.853
42841W        W 8002  11.115  12.833  12.455
42842W        W 8003  40.418  32.200   1.417
42843W        W 8004  19.659   1.637   3.020
42844W        W 8005   8.352   2.769   2.384
42845W        W 8006  29.543  21.999  11.539
42846W        W 8007   7.969  17.607  12.961
42847W        W 8008   5.522  41.891   0.368
42848W        W 8009  26.202  32.996   1.209
42849W        W 8010  31.395  15.934  13.574
42850W        W 8011   3.786  36.407  13.779
42851W        W 8012  22.987  12.875   4.180
42852W        W 8013  32.902  43.581  10.220
42853W        W 8014   0.656  40.373  12.005
42854W        W 8015  26.746  40.297   2.761
42855W        W 8016   7.797  44.739  11.107
42856W        W 8017   7.905   7.873  12.093
42857W        W 8018  27.424  10.184  11.445
42858W        W 8019  11.672  18.336   1.937
42859W        W 8020   4.932  17.724   1.236
42860W        W 8021  22.524  12.122  10.333
42861W        W 8022   1.742  35.978  11.436
42862W        W 8023  40.586  11.326  12.147
42863W        W 8024  24.996  25.634   1.516
42864W        W 8025   8.666  40.865   1.444
42865W        W 8026  26.460   0.020   2.711
42866W        W 8027  31.960  16.482  11.154
42867W        W 8028  18.306  25.130  13.755
42868W        W 8029  16.380  15.804   2.508
42869W        W 8030  31.273   3.582  10.404
42870W        W 8031  33.631  19.403   4.980
42871W        W 8032  12.443  41.044   1.779
42872W        W 8033  18.260  13.096   0.830
42873W        W 8034  31.383  17.606   4.101
42874W        W 8035  17.858   3.869  14.882
42875W        W 8036  18.044   2.650   2.980
42876W        W 8037  10.226  33.659   0.285
42877W        W 8038  40.615  29.284  13.074
42878W        W 8039  27.296   8.393   1.448
42879W        W 8040   6.365  31.150   3.722
42880W        W 8041   0.536  11.812   3.543
42881W        W 8042  24.862  15.133  13.862
42882W        W 8043  12.616  26.997   3.610
42883W        W 8044  39.037  30.086  12.714
42884W        W 8045  39.358  19.567   5.124
42885W        W 8046  20.303  33.575   2.864
42886W        W 8047   0.974   7.147  12.463
42887W        W 8048  25.651  39.037   1.594
42888W        W 8049  21.536  36.385  13.380
42889W        W 8050  24.815   7.323   2.802
42890W        W 8051  36.958   5.934   2.116
42891W        W 8052  39.665  33.209  12.134
42892W        W 8053  30.800  21.466  10.286
42893W        W 8054  39.435  30.144   4.573
42894W        W 8055  28.944  15.775  13.307
42895W        W 8056   2.924   2.207   2.902
42896W        W 8057  34.858  26.387   3.329
42897W        W 8058   3.047   1.671  13.052
42898W        W 8059   3.743  20.302   1.770
42899W        W 8060  10.802  19.719  12.466
42900W        W 8061  38.113  41.237  14.301
42901W        W 8062   2.985   6.209   2.744
42902W        W 8063  34.653  44.521   0.816
42903W        W 8064  16.508  19.233  13.935
42904W        W 8065  23.024   7.980  11.763
42905W        W 8066  33.665  21.674   3.906
42906W        W 8067  38.032   9.259   1.711
42907W        W 8068  24.207  27.640   4.101
42908W        W 8069  13.061  20.091   3.238
42909W        W 8070   7.130  34.370   1.322
42910W        W 8071  27.386   7.314  14.459
42911W        W 8072  19.757  35.889  13.476
42912W        W 8073  42.280  22.958  11.183
42913W        W 8074   3.361   0.922   2.479
42914W        W 8075  17.022  38.100   1.045
42915W        W 8076   6.336  29.959  14.902
42916W        W 8077  14.253  19.705  12.112
42917W        W 8078   4.597   4.108  14.762
42918W        W 8079  39.313   2.500   0.377
42919W        W 8080  25.033  27.006  13.354
42920W        W 8081  39.378  11.805  12.608
42921W        W 8082  11.819  37.533   1.378
42922W        W 8083  35.632   5.867   0.959
42923W        W 8084  38.598  40.959  14.027
42924W        W 8085   1.887   8.341  14.648
42925W        W 8086  33.205  40.983   2.163
42926W        W 8087  20.021   6.955  14.533
42927W        W 8088  25.766   9.363   3.589
42928W        W 8089  43.358   9.000  13.965
42929W        W 8090  43.347  41.726   2.657
42930W        W 8091  20.759  19.559   2.808
42931W        W 8092  27.761  27.968   4.579
42932W        W 8093  36.405   7.749  13.535
42933W        W 8094   3.251   9.479   2.532
42934W        W 8095  25.466  10.785  13.621
42935W        W 8096   4.432  44.408  12.077
42936W        W 8097  24.581  10.841  14.335
42937W        W 8098   3.775  20.127   4.690
42938W        W 8099  37.875  25.591   4.338
42939W        W 8100  11.409  35.315   2.913
42940W        W 8101  27.088   1.287   0.381
42941W        W 8102  41.536  23.144   3.971
42942W        W 8103   8.751  16.125  10.326
42943W        W 8104  37.679  17.958   4.498
42944W        W 8105  12.307  24.124   0.939
42945W        W 8106  22.626  36.574   1.355
42946W        W 8107  17.262  10.718   2.959
42947W        W 8108  44.399  39.523   1.382
42948W        W 8109   7.489  36.707   4.195
42949W        W 8110   3.861  42.893   1.368
42950W        W 8111  20.841  34.252   1.998
42951W        W 8112  11.121  13.104  11.609
42952W        W 8113  29.718  36.610   0.012
42953W        W 8114  14.480  28.547   4.565
42954W        W 8115  14.555   9.931   2.270
42955W        W 8116  31.947  10.077   0.890
42956W        W 8117   8.316   1.738   0.648
42957W        W 8118  20.187  43.892   3.628
42958W        W 8119  33.744  12.531   4.163
42959W        W 8120  11.857  40.899  13.369
42960W        W 8121   8.738  26.589  12.558
42961W        W 8122  31.948   2.977  10.734
42962W        W 8123  37.968  12.079  10.464
42963W        W 8124  32.878  40.634   4.844
42964W        W 8125  29.189   0.949   3.804
42965W        W 8126  20.210   6.332  13.231
42966W        W 8127  35.607  14.559  13.225
42967W        W 8128  36.923  40.088  12.907
42968W        W 8129  28.030  39.419   3.238
42969W        W 8130  19.105  44.038  14.019
42970W        W 8131  16.658  31.557   2.608
42971W        W 8132  15.323   8.849  12.967
42972W        W 8133  31.776  38.263   3.193
42973W        W 8134  43.288  11.246  14.711
42974W        W 8135  30.468  33.411  11.943
42975W        W 8136  42.481   3.914  12.418
42976W        W 8137  31.821  39.864   2.668
42977W        W 8138  24.498   8.460  13.358
42978W        W 8139  25.080  19.443  11.492
42979W        W 8140   1.695   6.758  10.611
42980W        W 8141   4.627   3.866  10.190
42981W        W 8142  27.832  17.478   4.223
42982W        W 8143  43.968  37.349   2.943
42983W        W 8144  22.575  22.777  14.876
42984W        W 8145  28.904  16.260   0.009
42985W        W 8146  25.332  23.775   1.451
42986W        W 8147  16.125  17.774   3.319
42987W        W 8148  33.435  10.647  13.761
42988W        W 8149   0.784   3.975  11.430
42989W        W 8150  30.249  29.535   4.853
42990W        W 8151  21.170  33.103  12.761
42991W        W 8152   2.453  14.796  13.950
42992W        W 8153  43.474   3.315  12.079
42993W        W 8154  18.671   3.749  13.291
42994W        W 8155  29.875   5.141   4.830
42995W        W 8156  17.533  37.451   4.505
42996W        W 8157   6.860   4.212   1.364
42997W        W 8158   8.199  15.793   3.083
42998W        W 8159  37.615  22.694  12.963
42999W        W 8160  21.563  18.862  12.064
43000W        W 8161  44.075   2.974  14.510
43001W        W 8162  26.068  12.849  12.598
43002W        W 8163  14.211  25.230   1.883
43003W        W 8164  34.240   4.974   3.184
43004W        W 8165  37.574  34.348  13.427
43005W        W 8166   3.150  25.883  11.077
43006W        W 8167  36.005   0.234   1.463
43007W        W 8168  19.542  16.782   3.171
43008W        W 8169  40.172  32.846  11.203
43009W        W 8170  20.869  19.401  11.110
43010W        W 8171  32.396   1.906  14.030
43011W        W 8172  24.200  35.725   2.322
43012W        W 8173  38.435   4.890   0.922
43013W        W 8174  33.382  34.337   4.084
43014W        W 8175  13.910  42.006  10.668
43015W        W 8176  21.493   2.472  10.770
43016W        W 8177  36.026  30.549  10.534
43017W        W 8178  15.666   6.253   4.643
43018W        W 8179   1.388   7.450  12.516
43019W        W 8180   9.670  38.480  11.285
43020W        W 8181  38.621  14.867  14.189
43021W        W 8182  10.239  26.554  11.759
43022W        W 8183  30.451  39.952  13.219
43023W        W 8184   4.448  18.508  10.866
43024W        W 8185  39.638  14.016   2.454
43025W        W 8186   6.490  21.021   2.674
43026W        W 8187   0.776  43.786   2.821
43027W        W 8188  19.102  12.631  14.076
43028W        W 8189  20.714   9.271  14.431
43029W        W 8190  20.705  38.867   0.703
43030W        W 8191  25.349  20.837   4.192
43031W        W 8192   9.715  28.253   0.386
43032W        W 8193  18.886  40.273   1.614
43033W        W 8194  19.210  10.335   4.375
43034W        W 8195  18.709  18.045   3.408
43035W        W 8196  14.223  38.925   2.373
43036W        W 8197  23.105  27.720   4.100
43037W        W 8198  11.755  23.994   1.784
43038W        W 8199  35.056  36.023   0.538
43039W        W 8200  30.625  13.073   3.103
43040W        W 8201   6.186  10.757   4.858
43041W        W 8202   1.908   7.729  12.232
43042W        W 8203  11.718  23.344   2.888
43043W        W 8204   2.716   0.979  14.416
43044W        W 8205  40.899  27.756  12.710
43045W        W 8206  43.012  27.390  14.848
43046W        W 8207  34.835  29.130  14.842
43047W        W 8208  10.766  33.123   2.208
43048W        W 8209  31.890  15.257  13.059
43049W        W 8210  33.574   1.832   3.088
43050W        W 8211  22.441  19.014  12.498
43051W        W 8212   2.409  23.870  11.201
43052W        W 8213   0.746  20.331  12.100
43053W        W 8214  35.481   5.042   1.433
43054W        W 8215  33.462   6.349   3.454
43055W        W 8216   5.416   1.221  12.868
43056W        W 8217  34.955  24.829  13.320
43057W        W 8218  35.727   5.425  14.278
43058W        W 8219   2.100   1.932   1.059
43059W        W 8220  25.604  32.688  14.292
43060W        W 8221   3.567   3.355   3.359
43061W        W 8222   6.902  42.070   2.761
43062W        W 8223  28.891  27.542   4.405
43063W        W 8224  43.412  27.142   4.286
43064W        W 8225  11.211  32.110  13.273
43065W        W 8226   4.335  15.730   0.486
43066W        W 8227   8.689   7.225   3.152
43067W        W 8228  10.810   7.802  11.501
43068W        W 8229   7.302  26.750   3.589
43069W        W 8230  41.407  38.936   3.787
43070W        W 8231  17.040  19.310   1.127
43071W        W 8232  41.721  24.106   1.181
43072W        W 8233  29.094   7.276  14.914
43073W        W 8234   2.788  34.160   1.158
43074W        W 8235  39.768  21.670  12.614
43075W        W 8236  36.923  21.723  10.528
43076W        W 8237  13.791  25.719   1.628
43077W        W 8238  20.884   6.836  11.237
43078W        W 8239  26.239  42.937   5.636
43079W        W 8240  43.444  31.204   2.642
43080W        W 8241  17.047  19.579   2.398
43081W        W 8242  11.359   7.325   0.613
43082W        W 8243  24.423   6.189  14.734
43083W        W 8244  41.961   9.445   2.825
43084W        W 8245  10.794  36.845  14.343
43085W        W 8246  32.729  27.080   1.841
43086W        W 8247   4.457  32.507  14.747
43087W        W 8248  41.601   0.864   4.579
43088W        W 8249  14.574  39.230  12.139
43089W        W 8250  19.229  35.095   1.868
43090W        W 8251  40.751  14.843   3.726
43091W        W 8252  27.628  22.916   5.433
43092W        W 8253  31.598  21.707  13.889
43093W        W 8254  31.302   9.093  13.166
43094W        W 8255  15.035  40.341  11.967
43095W        W 8256   6.283  42.538  12.438
43096W        W 8257  37.896   8.949  14.559
43097W        W 8258   5.529  27.422  10.315
43098W        W 8259  27.475   0.951   4.544
43099W        W 8260  30.497  19.811  13.856
43100W        W 8261  21.292  17.091   2.861
43101W        W 8262  29.841  42.157  11.058
43102W        W 8263   9.600  29.628   0.430
43103W        W 8264  20.711  42.553   0.672
43104W        W 8265  14.606  32.052  14.964
43105W        W 8266  14.720   2.255  12.210
43106W        W 8267  12.834   7.420   3.153
43107W        W 8268  42.204   2.266   2.825
43108W        W 8269  15.633  16.608  11.917
43109W        W 8270  14.387  23.472   1.941
43110W        W 8271  33.054  38.177  13.298
43111W        W 8272  37.329  41.670   1.488
43112W        W 8273   9.044  33.475   0.189
43113W        W 8274   7.282  42.982   2.000
43114W        W 8275   9.667   0.897   1.526
43115W        W 8276  17.496   0.634   0.986
43116W        W 8277  33.247  26.084   3.151
43117W        W 8278  39.844   1.447   4.473
43118W        W 8279   1.681  22.556  12.543
43119W        W 8280  41.758  10.858   4.602
43120W        W 8281  34.915  35.173  10.713
43121W        W 8282  33.800   8.890   1.784
43122W        W 8283  21.092  33.337   0.342
43123W        W 8284   0.396  16.174   3.372
43124W        W 8285  35.665   9.842  12.070
43125W        W 8286  12.036   9.224   5.007
43126W        W 8287  31.819   8.177  11.284
43127W        W 8288  31.994   7.905  14.428
43128W        W 8289  23.075  31.029  12.817
43129W        W 8290   8.692  18.697   1.024
43130W        W 8291   7.276  26.721   1.894
43131W        W 8292  35.046   5.725   4.090
43132W        W 8293  14.190  41.399   0.823
43133W        W 8294   1.755  42.480   1.974
43134W        W 8295   0.189  43.505  12.654
43135W        W 8296  29.128  28.172   4.601
43136W        W 8297   2.741  20.074   0.260
43137W        W 8298  40.477  44.853   1.296
43138W        W 8299  31.157  43.600   1.351
43139W        W 8300  23.064  19.008   3.173
43140W        W 8301  19.504  21.094  12.560
43141W        W 8302  13.113   7.873   3.277
43142W        W 8303  28.077  35.124  13.838
43143W        W 8304  33.009  39.295   0.805
43144W        W 8305  38.549   5.734  14.380
43145W        W 8306  34.727  24.448   3.192
43146W        W 8307  24.659  32.217  14.458
43147W        W 8308  31.567  44.518   1.383
43148W        W 8309  20.004  26.995  14.311
43149W        W 8310   1.272  36.471   1.743
43150W        W 8311   2.733  24.681  12.530
43151W        W 8312  15.272  14.608  11.150
43152W        W 8313  19.041  11.857  13.127
43153W        W 8314  23.923  34.568   4.144
43154W        W 8315  15.642  37.272  14.933
43155W        W 8316  25.427  30.028   3.003
43156W        W 8317  22.478   2.330   2.509
43157W        W 8318  26.243  35.967   0.169
43158W        W 8319   0.301  30.147   2.419
43159W        W 8320  36.821  16.002  14.956
43160W        W 8321  24.995  33.223  14.969
43161W        W 8322  20.155   2.065   1.399
43162W        W 8323  17.301  17.705  12.478
43163W        W 8324  34.033  33.821   4.305
43164W        W 8325   7.712  15.226   2.244
43165W        W 8326  30.516  18.181   3.252
43166W        W 8327  24.473  35.407  14.957
43167W        W 8328   4.206  11.608   3.834
43168W        W 8329   2.194  14.211   2.350
43169W        W 8330  16.262   2.326   4.586
43170W        W 8331  19.391  35.464  14.588
43171W        W 8332  42.414  31.386  12.871
43172W        W 8333  31.954  21.624   1.479
43173W        W 8334  39.311  18.429  10.465
43174W        W 8335  38.293  23.808  13.458
43175W        W 8336  42.463   9.452   0.271
43176W        W 8337   4.949   2.680  14.494
43177W        W 8338  40.295  33.360  13.945
43178W        W 8339  31.037   8.621  11.741
43179W        W 8340  39.804  43.557  14.469
43180W        W 8341  13.365  38.679   1.763
43181W        W 8342  22.251  18.042   4.195
43182W        W 8343  19.533  19.116  13.834
43183W        W 8344   8.421   1.991  13.852
43184W        W 8345   0.407  19.505   4.677
43185W        W 8346  16.879  35.392  12.916
43186W        W 8347  33.956  20.663   4.390
43187W        W 8348  35.955  12.442  13.422
43188W        W 8349  22.865  21.722   1.449
43189W        W 8350  18.234  15.777  12.120
43190W        W 8351  16.728  24.478  12.358
43191W        W 8352   6.307  23.406  11.092
43192W        W 8353  30.567  26.877  13.747
43193W        W 8354  15.241  30.638   4.741
43194W        W 8355  41.647   0.054   4.051
43195W        W 8356  21.194  17.433  13.105
43196W        W 8357  24.799   3.604   3.677
43197W        W 8358  40.455  42.271  14.655
43198W        W 8359   1.254   5.062   4.060
43199W        W 8360  42.398  30.437   4.155
43200W        W 8361  42.447   8.054  13.925
43201W        W 8362   4.277  36.380   1.444
43202W        W 8363   8.728   7.706  10.539
43203W        W 8364   5.665   3.692   0.088
43204W        W 8365  30.599  31.477   4.917
43205W        W 8366  43.025  14.301  13.266
43206W        W 8367  30.454  39.517  12.939
43207W        W 8368  18.700  10.851   4.307
43208W        W 8369  29.198  19.364   4.228
43209W        W 8370  16.686   9.410  14.838
43210W        W 8371  42.643   2.770  13.414
43211W        W 8372   0.359  30.983  12.520
43212W        W 8373  21.273  41.775  11.519
43213W        W 8374  33.420  23.620   0.020
43214W        W 8375  40.819  31.220  13.958
43215W        W 8376  17.072  12.205   3.165
43216W        W 8377  14.112  38.896  11.742
43217W        W 8378  39.802  21.674   4.071
43218W        W 8379  15.284   4.557   3.399
43219W        W 8380   4.026  20.363   0.890
43220W        W 8381  40.008  18.778  14.781
43221W        W 8382  23.171  42.581  10.995
43222W        W 8383  37.383   5.215  13.104
43223W        W 8384  33.421  16.747  12.006
43224W        W 8385  42.018   2.918   1.719
43225W        W 8386  36.840   7.094   0.470
43226W        W 8387  35.305  16.032   0.690
43227W        W 8388  32.116  12.976  14.381
43228W        W 8389  15.402   0.695  13.580
43229W        W 8390  44.368  43.768  10.301
43230W        W 8391   0.324  34.606   2.264
43231W        W 8392  40.087  20.545  13.999
43232W        W 8393  26.288  12.044  13.898
43233W        W 8394   3.729  15.038   9.468
43234W        W 8395  20.663  10.811  11.121
43235W        W 8396   0.934  12.698  14.479
43236W        W 8397  36.753   9.314  10.780
43237W        W 8398  31.880  35.125   0.177
43238W        W 8399  23.340  13.903   1.823
43239W        W 8400  26.774   8.382   4.530
43240W        W 8401  17.679  25.081  12.938
43241W        W 8402   1.744  17.575  12.599
43242W        W 8403   0.411  20.668   3.376
43243W        W 8404  42.436  14.266  14.775
43244W        W 8405   0.252  18.070  10.851
43245W        W 8406   3.536  23.594   1.967
43246W        W 8407  13.219   6.826   1.204
43247W        W 8408  24.549  28.909  11.867
43248W        W 8409   2.003  34.478  12.830
43249W        W 8410  33.972  34.388   0.714
43250W        W 8411  31.452   9.328   3.213
43251W        W 8412   2.765  10.555  14.847
43252W        W 8413   2.724  43.395  10.730
43253W        W 8414  31.353  11.091   4.227
43254W        W 8415   5.078   8.085   0.462
43255W        W 8416  18.265  11.994   3.957
43256W        W 8417  12.838  27.933  11.166
43257W        W 8418   0.207   4.707   4.269
43258W        W 8419  25.398  28.028   1.922
43259W        W 8420  14.218  44.669  13.366
43260W        W 8421  21.227  13.089   1.703
43261W        W 8422  40.786  29.232  12.555
43262W        W 8423  22.180   0.082  10.645
43263W        W 8424  33.240  38.441   4.954
43264W        W 8425  43.988   5.375  12.420
43265W        W 8426  12.205  13.846  13.098
43266W        W 8427  42.864   1.227  12.280
43267W        W 8428   1.208  33.056  13.894
43268W        W 8429   5.866  32.357  14.949
43269W        W 8430   5.721  41.835  10.555
43270W        W 8431   0.735  39.004  13.021
43271W        W 8432  11.650   7.919  11.708
43272W        W 8433  24.516  33.841  13.207
43273W        W 8434  41.034  42.273  12.080
43274W        W 8435  20.194  21.155  14.235
43275W        W 8436   8.508  40.710   2.363
43276W        W 8437  25.974  33.110   1.853
43277W        W 8438  22.068  20.587   4.047
43278W        W 8439  15.072  42.475  11.441
43279W        W 8440   3.142  44.443  11.066
43280W        W 8441  20.584  14.215  12.533
43281W        W 8442  37.281   2.979   1.003
43282W        W 8443  21.264  41.343  13.489
43283W        W 8444  38.924   6.271   1.945
43284W        W 8445  40.952  39.508   3.139
43285W        W 8446   0.956  31.369  10.741
43286W        W 8447   1.045  43.993  12.228
43287W        W 8448  39.806  11.141   4.584
43288W        W 8449  10.706  17.770  10.771
43289W        W 8450   5.359  37.288   0.313
43290W        W 8451   4.120   5.742  14.307
43291W        W 8452  43.227  31.110  11.754
43292W        W 8453   3.733  13.973   0.484
43293W        W 8454  10.817  13.320   3.333
43294W        W 8455  21.860   5.376   2.372
43295W        W 8456  40.467   7.723  12.145
43296W        W 8457  32.610  34.331  13.511
43297W        W 8458  40.488   9.668   1.714
43298W        W 8459  10.577  20.939   1.438
43299W        W 8460  22.027  23.476  12.718
43300W        W 8461  41.666   7.124   5.210
43301W        W 8462  40.537  36.034   0.315
43302W        W 8463  43.389  17.075   3.715
43303W        W 8464  25.194   7.893  13.122
43304W        W 8465  37.739  26.663   0.056
43305W        W 8466   8.859  25.298  10.065
43306W        W 8467   7.457   8.588   9.538
43307W        W 8468  30.796  10.504  13.412
43308W        W 8469  39.541  33.435  14.470
43309W        W 8470  39.345  13.402   3.242
43310W        W 8471  43.784   8.221   1.468
43311W        W 8472  22.059  40.268  11.505
43312W        W 8473  24.549   3.873  13.288
43313W        W 8474  31.102   7.752  12.425
43314W        W 8475   0.257  19.165  13.036
43315W        W 8476  33.082  14.733   3.257
43316W        W 8477  14.962  35.851  13.467
43317W        W 8478   8.718  23.575  13.603
43318W        W 8479  28.746  15.232   1.350
43319W        W 8480   6.269  12.997  13.788
43320W        W 8481  27.661  25.757   3.066
43321W        W 8482  13.875  44.384  14.034
43322W        W 8483  33.223   1.958  11.409
43323W        W 8484  22.300   6.256   3.350
43324W        W 8485  10.333   2.432  11.723
43325W        W 8486  28.610  16.237  14.570
43326W        W 8487  11.593  24.613   0.006
43327W        W 8488  17.664  26.314   0.689
43328W        W 8489  39.390  39.330   2.751
43329W        W 8490   0.628  41.537   4.941
43330W        W 8491   9.957  35.405   2.730
43331W        W 8492  27.101   4.136  12.444
43332W        W 8493   8.094  26.152   0.310
43333W        W 8494  16.895  16.173  12.894
43334W        W 8495  31.111  28.604   4.129
43335W        W 8496  20.284  16.557  13.072
43336W        W 8497  42.482   1.628   1.307
43337W        W 8498   4.242  13.827  12.943
43338W        W 8499  30.977  35.685  13.817
43339W        W 8500  25.603  19.746  13.354
43340W        W 8501  42.842  29.693  12.194
43341W        W 8502  20.733   3.150   5.208
43342W        W 8503  33.118  42.652   3.623
43343W        W 8504  10.646  14.714   0.318
43344W        W 8505  31.659  36.323  13.761
43345W        W 8506  38.832   6.867   3.576
43346W        W 8507  15.335  25.573  10.417
43347W        W 8508  31.122  28.643  11.714
43348W        W 8509   7.739  20.178  10.941
43349W        W 8510  31.044  12.775  14.761
43350W        W 8511  37.969  42.489   0.788
43351W        W 8512  29.207   5.722   2.340
43352W        W 8513   2.233  32.554  11.997
43353W        W 8514  14.193  39.346   4.140
43354W        W 8515  35.822  36.803  11.485
43355W        W 8516  17.843   2.950   4.835
43356W        W 8517  42.269  20.962   2.812
43357W        W 8518   8.670  38.885  11.611
43358W        W 8519  40.764  41.941   4.318
43359W        W 8520   7.903  44.565   3.683
43360W        W 8521  22.193  18.598  10.972
43361W        W 8522  25.654  21.796  12.507
43362W        W 8523  26.458   3.244  13.416
43363W        W 8524  18.650  10.601  14.445
43364W        W 8525  30.502  36.356  13.017
43365W        W 8526  20.502  32.508  13.951
43366W        W 8527  29.467  26.437   0.939
43367W        W 8528  22.540  25.137   1.224
43368W        W 8529  12.289  37.847  13.781
43369W        W 8530  11.666  16.662   3.758
43370W        W 8531  22.448  10.884  10.539
43371W        W 8532  28.940  11.754  11.574
43372W        W 8533  28.109   8.029   1.608
43373W        W 8534  23.043  11.825  13.423
43374W        W 8535  26.723  34.570  10.381
43375W        W 8536  31.069  14.485   0.547
43376W        W 8537  21.109   4.475  12.018
43377W        W 8538   8.455   4.429  11.153
43378W        W 8539  16.652  17.932   4.625
43379W        W 8540   2.797  35.051  13.510
43380W        W 8541  31.711  14.752   3.414
43381W        W 8542   0.062  24.700  12.492
43382W        W 8543   9.161  31.138   0.524
43383W        W 8544  43.549   8.206  12.593
43384W        W 8545  26.184  44.916  12.925
43385W        W 8546   8.227  35.995   0.069
43386W        W 8547  30.178  32.222   4.147
43387W        W 8548   7.644  12.289  14.340
43388W        W 8549  40.536  26.855   4.138
43389W        W 8550  44.254  23.505   1.890
43390W        W 8551  39.221   4.794   2.179
43391W        W 8552  12.841  41.255   0.424
43392W        W 8553   0.002  31.860   2.787
43393W        W 8554  10.432  29.224   0.734
43394W        W 8555  33.048  35.480   4.813
43395W        W 8556  19.375  20.474  14.535
43396W        W 8557  43.119  30.165   2.596
43397W        W 8558  21.191   8.500  11.186
43398W        W 8559  10.391  25.875  13.912
43399W        W 8560  30.961  31.672  12.010
43400W        W 8561  21.139  44.219  11.823
43401W        W 8562  14.938  36.562   2.258
43402W        W 8563   0.728  26.569  14.725
43403W        W 8564  17.177   4.984  12.678
43404W        W 8565  33.822  28.451  14.402
43405W        W 8566  39.072  42.001  11.592
43406W        W 8567  10.626   3.995  13.028
43407W        W 8568  11.810   4.557   4.332
43408W        W 8569  37.919  17.386  13.360
43409W        W 8570  29.458  30.688  14.503
43410W        W 8571  40.873  18.619  14.324
43411W        W 8572  31.180  20.003   3.700
43412W        W 8573  17.259  31.141   3.423
43413W        W 8574  28.399  31.062  11.249
43414W        W 8575  28.216  29.045  14.336
43415W        W 8576  13.073  42.229   4.025
43416W        W 8577  20.621  41.951  10.733
43417W        W 8578  35.853  16.732   0.780
43418W        W 8579   7.069  33.832  11.008
43419W        W 8580  14.717  13.461  11.204
43420W        W 8581  20.567  25.397  13.129
43421W        W 8582  33.184  31.039  12.072
43422W        W 8583  22.885  27.107  10.873
43423W        W 8584  38.190  33.480  10.985
43424W        W 8585  14.124  38.041  11.523
43425W        W 8586   9.126  38.642  14.854
43426W        W 8587  14.112  20.566  14.220
43427W        W 8588  40.769   2.253  12.466
43428W        W 8589  17.744  39.856  14.493
43429W        W 8590  38.096  42.559  14.403
43430W        W 8591  28.684   3.026  12.400
43431W        W 8592  22.145  37.535  11.142
43432W        W 8593  38.638  29.723  13.877
43433W        W 8594   5.401  25.596   1.695
43434W        W 8595  34.619  18.055   2.798
43435W        W 8596  13.614  37.543  14.378
43436W        W 8597  38.592   6.626   2.183
43437W        W 8598   9.623  34.434   1.286
43438W        W 8599   7.840  37.921   4.700
43439W        W 8600   1.268   6.420   3.321
43440W        W 8601  42.063  44.132   0.852
43441W        W 8602  40.329  13.723  10.804
43442W        W 8603  33.175  23.771   2.420
43443W        W 8604  21.129  14.222   3.229
43444W        W 8605  18.536  19.824   4.995
43445W        W 8606  10.185  44.736   0.342
43446W        W 8607   8.353  44.535   0.397
43447W        W 8608   0.355  17.987  11.768
43448W        W 8609  16.709  18.486  14.563
43449W        W 8610   2.325  23.548   2.255
43450W        W 8611  19.759   9.437  13.961
43451W        W 8612  27.573  28.361   4.291
43452W        W 8613  13.039  29.095   0.336
43453W        W 8614  38.076  34.119   0.878
43454W        W 8615  15.453  34.453   4.223
43455W        W 8616  12.912  26.487  11.842
43456W        W 8617  25.822  21.031  14.030
43457W        W 8618  44.310  16.350  14.451
43458W        W 8619   5.345  12.880  13.276
43459W        W 8620  32.572   5.209   3.967
43460W        W 8621   9.378   9.418  10.745
43461W        W 8622  42.974  15.271  12.935
43462W        W 8623  29.174  41.027  11.042
43463W        W 8624  25.498  42.485  12.881
43464W        W 8625  40.418  26.016  13.947
43465W        W 8626  14.140  27.930  11.595
43466W        W 8627  38.368  25.429  14.163
43467W        W 8628   9.513  18.307   3.157
43468W        W 8629  12.832  20.879   4.624
43469W        W 8630  44.963   3.963   1.280
43470W        W 8631  18.399   2.552  14.349
43471W        W 8632  38.283  43.016  13.855
43472W        W 8633  23.294  24.574  13.321
43473W        W 8634  13.665  44.004   2.714
43474W        W 8635  35.376  15.017  13.298
43475W        W 8636  33.841  18.263  12.614
43476W        W 8637  24.556  27.430  14.420
43477W        W 8638  10.829  34.565   0.668
43478W        W 8639   7.373  13.692   1.771
43479W        W 8640  41.752  31.569   4.406
43480W        W 8641  34.497  29.582  10.994
43481W        W 8642  38.592  22.563   0.171
43482W        W 8643  33.671  36.619   1.201
43483W        W 8644  43.335  25.245  12.548
43484W        W 8645   1.715   7.661   3.632
43485W        W 8646  15.602   0.760  11.549
43486W        W 8647  37.564  18.501  13.493
43487W        W 8648  16.312  26.501   1.228
43488W        W 8649   1.848  14.591  12.099
43489W        W 8650  12.696  28.660   3.121
43490W        W 8651  11.821  41.734   4.295
43491W        W 8652   0.886  20.634   0.697
43492W        W 8653  32.935  23.579   0.518
43493W        W 8654  25.716   6.759  14.226
43494W        W 8655  28.993  29.240  11.942
43495W        W 8656  18.002  12.220  14.932
43496W        W 8657  15.385   4.458  11.613
43497W        W 8658  35.670  41.721  12.884
43498W        W 8659  16.753  36.062   1.408
43499W        W 8660  10.376  32.456  14.535
43500W        W 8661  40.268  44.213   3.203
43501W        W 8662  38.818  29.320  14.449
43502W        W 8663  13.348  44.505   4.190
43503W        W 8664   8.482  41.553  13.567
43504W        W 8665  29.896  10.429  13.556
43505W        W 8666  35.878   1.743   3.239
43506W        W 8667  18.818  19.710  10.686
43507W        W 8668   7.601  23.738   0.918
43508W        W 8669  28.417  21.477  12.594
43509W        W 8670   0.875  19.730   2.989
43510W        W 8671  37.974  11.818  13.134
43511W        W 8672   1.476  37.955  14.929
43512W        W 8673  30.947   4.270  14.389
43513W        W 8674  21.795   5.819   0.768
43514W        W 8675   3.805  42.447   0.014
43515W        W 8676  39.347  24.700   2.433
43516W        W 8677  16.555  35.748  14.024
43517W        W 8678  12.795   9.432   4.633
43518W        W 8679   6.363  16.030   4.548
43519W        W 8680  18.024  24.996   1.469
43520W        W 8681  17.263  41.819   2.682
43521W        W 8682  36.809  28.431  12.854
43522W        W 8683  40.061  12.627  12.046
43523W        W 8684  15.565  35.890   2.156
43524W        W 8685   2.806  17.829   4.574
43525W        W 8686  33.842   6.711  12.987
43526W        W 8687  42.760  30.965  13.128
43527W        W 8688  22.802  44.315  11.156
43528W        W 8689  34.868  41.567  12.132
43529W        W 8690   2.368  25.953  12.652
43530W        W 8691  17.152   8.799  14.275
43531W        W 8692  35.475  36.889   0.137
43532W        W 8693  25.489   9.819   3.544
43533W        W 8694  37.182  44.825   0.836
43534W        W 8695  37.658  28.479   2.492
43535W        W 8696   2.862  24.085  13.402
43536W        W 8697  21.034  39.913  12.811
43537W        W 8698   7.546  33.129   9.797
43538W        W 8699  17.336  40.177  14.510
43539W        W 8700  15.605  14.609   3.833
43540W        W 8701  23.613  33.902   1.474
43541W        W 8702  30.393   6.727  11.687
43542W        W 8703  17.681  12.854  13.796
43543W        W 8704  30.448   3.680  11.153
43544W        W 8705  44.800   7.154   4.553
43545W        W 8706  28.166  38.472   3.279
43546W        W 8707   4.740  14.666   1.504
43547W        W 8708  28.695   3.200   4.214
43548W        W 8709  29.239   7.360  10.525
43549W        W 8710  27.597  14.693  13.923
43550W        W 8711  44.822  24.051   4.012
43551W        W 8712  30.387  30.525  14.426
43552W        W 8713  25.600  21.588   2.749
43553W        W 8714  36.009  14.380   0.003
43554W        W 8715  15.640  16.054  13.531
43555W        W 8716  26.680  22.290  14.428
43556W        W 8717  10.843  11.423  13.578
43557W        W 8718   3.275  22.722   0.903
43558W        W 8719  12.074  44.457   4.625
43559W        W 8720  17.720  40.739   2.316
43560W        W 8721  38.142  20.102   1.417
43561W        W 8722   5.408  26.699  13.563
43562W        W 8723  40.835  33.105   1.801
43563W        W 8724  40.747  41.812  12.813
43564W        W 8725  33.959  37.276  12.105
43565W        W 8726  13.677  25.252   3.748
43566W        W 8727  28.370  22.292  14.794
43567W        W 8728  12.675  41.689   0.643
43568W        W 8729  40.050  33.959  10.594
43569W        W 8730   9.795  40.346   0.328
43570W        W 8731  29.654  39.812   0.774
43571W        W 8732  37.463  35.382  13.413
43572W        W 8733  22.780   9.827   0.380
43573W        W 8734  36.639   6.153  11.124
43574W        W 8735   0.033  43.338   2.706
43575W        W 8736  40.436  33.250   4.536
43576W        W 8737   2.034  35.894  12.809
43577W        W 8738  12.879  29.100  13.137
43578W        W 8739  43.307  36.906   0.377
43579W        W 8740  40.973   3.898  13.310
43580W        W 8741  31.647  12.699   1.727
43581W        W 8742  15.851   9.638   0.367
43582W        W 8743  23.942  35.930  14.351
43583W        W 8744  11.581  26.964   2.750
43584W        W 8745  41.748  17.811   0.856
43585W        W 8746   7.368  35.145   4.572
43586W        W 8747  30.603   7.984  13.577
43587W        W 8748  31.383  14.287   2.684
43588W        W 8749   1.782   6.778   1.205
43589W        W 8750  28.793  40.754   0.728
43590W        W 8751  12.869  35.750   1.209
43591W        W 8752   4.771  17.271  13.485
43592W        W 8753  22.472  14.095   3.307
43593W        W 8754  14.455  22.856  13.472
43594W        W 8755  36.580  30.788   4.772
43595W        W 8756   6.491  16.242   3.577
43596W        W 8757  27.772  30.366  12.573
43597W        W 8758   1.872  26.233   3.281
43598W        W 8759   2.998  30.374   1.762
43599W        W 8760   7.298  16.039   3.239
43600W        W 8761  12.141  37.010  11.189
43601W        W 8762  42.157  32.855  11.135
43602W        W 8763  44.660  24.546   4.854
43603W        W 8764  14.215  17.496  12.683
43604W        W 8765   1.491  26.086   2.279
43605W        W 8766  35.370  13.678  12.795
43606W        W 8767  24.914  35.016   3.235
43607W        W 8768  11.374   2.929  12.794
43608W        W 8769  31.241  36.238  11.167
43609W        W 8770  30.378  34.921  13.957
43610W        W 8771  27.778   0.540   0.507
43611W        W 8772  17.257   6.664  11.960
43612W        W 8773  43.168  19.757  11.587
43613W        W 8774  43.862  34.346  11.663
43614W        W 8775  34.530  34.035   2.716
43615W        W 8776  11.899  44.871  12.074
43616W        W 8777  14.609  26.208   3.624
43617W        W 8778  10.055  28.186  11.591
43618W        W 8779  29.941  11.212   0.802
43619W        W 8780  38.287  13.902   4.108
43620W        W 8781  42.197  11.302  12.967
43621W        W 8782  15.594  10.073   3.121
43622W        W 8783  11.915   9.361   0.208
43623W        W 8784  33.500  22.252   5.248
43624W        W 8785  27.609  12.642   2.631
43625W        W 8786  25.683  22.547  10.677
43626W        W 8787  32.106  15.550   4.623
43627W        W 8788  25.697   9.717   1.832
43628W        W 8789   3.752  26.811  12.052
43629W        W 8790  35.081  37.361  13.334
43630W        W 8791  29.917  28.669   0.752
43631W        W 8792  21.769   3.102   2.167
43632W        W 8793  11.897  42.423  11.942
43633W        W 8794  24.687  40.853  13.350
43634W        W 8795   1.453   4.235   1.321
43635W        W 8796  34.870  15.361   3.964
43636W        W 8797   1.888   0.953  13.030
43637W        W 8798  29.255  31.154   1.747
43638W        W 8799  44.869   9.415  13.901
43639W        W 8800  27.081  25.882  12.611
43640W        W 8801   3.719  34.068   4.805
43641W        W 8802  37.513   6.894   3.591
43642W        W 8803  10.216  26.495   1.400
43643W        W 8804  19.555  16.945  13.863
43644W        W 8805  32.283  10.270  14.932
43645W        W 8806  14.323  44.504  13.849
43646W        W 8807   2.856   2.661   3.724
43647W        W 8808  14.494  14.133  13.637
43648W        W 8809  40.368  17.012   4.494
43649W        W 8810  44.719  31.561  12.116
43650W        W 8811  14.072  36.798   1.749
43651W        W 8812  43.254   1.255   0.867
43652W        W 8813  10.169  42.982   1.279
43653W        W 8814  33.491  25.650   2.344
43654W        W 8815   6.436  21.123   4.975
43655W        W 8816  21.767   6.365   4.715
43656W        W 8817  24.436  22.044   1.235
43657W        W 8818  37.489  17.336  14.950
43658W        W 8819  39.113  25.085  13.451
43659W        W 8820  37.620  29.396  13.941
43660W        W 8821   6.041  24.333  10.217
43661W        W 8822   5.369   4.711   2.870
43662W        W 8823  20.616   6.311  12.042
43663W        W 8824  27.527  31.209  11.752
43664W        W 8825  27.015  44.682  14.943
43665W        W 8826   2.225   3.957   2.604
43666W        W 8827  39.857  16.230  13.062
43667W        W 8828  16.773  22.209   4.534
43668W        W 8829  16.738  44.002  12.495
43669W        W 8830   7.386   0.327   3.997
43670W        W 8831   9.931  38.375   4.797
43671W        W 8832  39.268  35.044  10.367
43672W        W 8833   5.450  16.320   3.671
43673W        W 8834  29.204  17.796   1.727
43674W        W 8835  24.037  22.821  11.134
43675W        W 8836  26.756  10.162  13.377
43676W        W 8837  12.078  30.633   1.819
43677W        W 8838  44.868  28.465   1.243
43678W        W 8839   0.882  24.256   1.010
43679W        W 8840  39.392  22.429   0.431
43680W        W 8841  22.275   0.834  12.180
43681W        W 8842   9.358   3.426   3.698
43682W        W 8843  10.363  14.787  10.631
43683W        W 8844  27.435   1.934  12.068
43684W        W 8845  34.127  20.316   4.776
43685W        W 8846   5.269   1.686  13.788
43686W        W 8847  27.990  44.332  14.837
43687W        W 8848   6.314   7.925   3.135
43688W        W 8849   4.208  11.695   1.721
43689W        W 8850  42.555  37.962   1.750
43690W        W 8851  37.794  14.547  12.946
43691W        W 8852  41.946   9.623   0.226
43692W        W 8853  25.696  20.059   1.343
43693W        W 8854  36.808  35.647  11.127
43694W        W 8855  20.511   7.254   0.670
43695W        W 8856   3.783  37.837   3.696
43696W        W 8857  14.078  13.723   2.092
43697W        W 8858   4.644  15.887  12.550
43698W        W 8859  32.785  15.756  13.889
43699W        W 8860   3.016  28.815   0.863
43700W        W 8861  20.683   1.634  10.394
43701W        W 8862   4.643   5.456   0.944
43702W        W 8863  14.998  38.973  13.754
43703W        W 8864  28.636  11.626  14.911
43704W        W 8865   4.002  31.514  11.562
43705W        W 8866  15.715  25.425  10.066
43706W        W 8867  14.573  27.675  12.128
43707W        W 8868   2.243   0.510  13.833
43708W        W 8869  11.580  20.475  14.909
43709W        W 8870  21.001   1.500   2.584
43710W        W 8871  14.661  31.076   2.720
43711W        W 8872  44.740   1.303  10.569
43712W        W 8873  30.970  20.497   2.875
43713W        W 8874   0.649  16.947  12.389
43714W        W 8875  42.605  11.303   0.413
43715W        W 8876  17.655  30.931  13.040
43716W        W 8877  13.226  19.340  14.831
43717W        W 8878  41.803  44.105   1.457
43718W        W 8879   6.340  19.349  13.370
43719W        W 8880  32.989  10.694   3.826
43720W        W 8881  35.894  25.673  13.129
43721W        W 8882   8.660   1.481  12.813
43722W        W 8883  21.837  19.291  11.989
43723W        W 8884  43.436  12.095  13.029
43724W        W 8885   1.267  27.624   4.082
43725W        W 8886  11.792  40.402   4.514
43726W        W 8887  44.850  23.365  11.353
43727W        W 8888   6.177  28.481  12.178
43728W        W 8889  34.955  15.621  11.073
43729W        W 8890  20.799  37.813   0.343
43730W        W 8891  38.280  11.329  14.260
43731W        W 8892  21.328   1.940  12.424
43732W        W 8893  19.519  18.760  13.429
43733W        W 8894  29.541   9.319   4.578
43734W        W 8895  18.668  29.356  14.457
43735W        W 8896   4.343  28.399  12.545
43736W        W 8897  14.635  18.722   1.202
43737W        W 8898  43.446  11.572   1.162
43738W        W 8899  23.238  25.269   2.403
43739W        W 8900  36.762  27.415   0.511
43740W        W 8901  42.663  10.630   4.727
43741W        W 8902   2.403   8.350  13.198
43742W        W 8903   9.928   9.612  13.767
43743W        W 8904   7.231  40.589  10.581
43744W        W 8905  38.086  36.169  14.539
43745W        W 8906  36.533  24.442   2.251
43746W        W 8907  11.394  34.447  13.045
43747W        W 8908  20.704  38.294  14.032
43748W        W 8909  34.801  23.753  13.924
43749W        W 8910  29.654  28.285   0.524
43750W        W 8911  14.179  36.569  12.429
43751W        W 8912  13.013  34.420  11.543
43752W        W 8913  43.132  13.581   4.259
43753W        W 8914   1.662  32.687  14.948
43754W        W 8915   7.763  17.223   4.538
43755W        W 8916   9.393  14.229   2.740
43756W        W 8917  15.790  11.228   0.239
43757W        W 8918  26.706  25.477  10.635
43758W        W 8919  15.120  18.610   5.253
43759W        W 8920   1.461   4.666   3.167
43760W        W 8921  20.814  36.892  13.527
43761W        W 8922   9.652  14.883  11.175
43762W        W 8923   3.850  36.171  14.595
43763W        W 8924  34.489  36.772   4.278
43764W        W 8925  27.756  24.261  13.718
43765W        W 8926  30.473   8.950   3.161
43766W        W 8927  41.196  30.711  11.568
43767W        W 8928  40.393  22.140  12.981
43768W        W 8929  10.247  24.629  11.067
43769W        W 8930  37.171  38.344  14.303
43770W        W 8931  26.231   6.812  14.977
43771W        W 8932  23.610   7.332  13.700
43772W        W 8933  30.945  43.017   2.676
43773W        W 8934   1.751  43.814   4.478
43774W        W 8935  11.104  38.932  13.888
43775W        W 8936  23.024  43.753  13.274
43776W        W 8937  20.305  40.370  12.156
43777W        W 8938   6.337   6.427  14.438
43778W        W 8939  40.751  22.541  11.233
43779W        W 8940  23.619  32.865  13.479
43780W        W 8941  22.495   4.489   3.746
43781W        W 8942  37.106  25.636  11.777
43782W        W 8943  44.401  15.608  12.026
43783W        W 8944   4.389  23.176  13.414
43784W        W 8945  15.691  17.813  11.448
43785W        W 8946  41.298  39.683  12.513
43786W        W 8947  20.244   8.796   4.751
43787W        W 8948   9.438  39.061   2.300
43788W        W 8949   8.716  21.438   4.136
43789W        W 8950  18.868  29.042  14.846
43790W        W 8951  26.519   2.236   2.771
43791W        W 8952  25.555  14.227   5.031
43792W        W 8953   6.424  42.884   2.393
43793W        W 8954  42.004  40.592  14.420
43794W        W 8955  32.445  32.792  11.590
43795W        W 8956   8.371  44.575   4.873
43796W        W 8957  29.625  31.856  11.724
43797W        W 8958  19.835  15.611  14.035
43798W        W 8959  24.673   3.489  13.653
43799W        W 8960  15.354   5.341  14.335
43800W        W 8961  31.439  34.916   2.338
43801W        W 8962  22.453   1.068  13.902
43802W        W 8963   9.862  43.896  12.422
43803W        W 8964   4.840  43.424  13.056
43804W        W 8965  44.524  10.211  13.521
43805W        W 8966   3.386  40.317   4.388
43806W        W 8967  35.912  23.563  11.574
43807W        W 8968  26.775  25.598   4.222
43808W        W 8969  14.079   2.356   1.459
43809W        W 8970  30.999  24.906   0.826
43810W        W 8971  43.523  43.726   2.211
43811W        W 8972  38.778  22.738  12.449
43812W        W 8973  31.543   2.186  11.587
43813W        W 8974  14.143  40.872  12.492
43814W        W 8975  29.520  18.079   3.311
43815W        W 8976   9.351   2.716  13.593
43816W        W 8977  14.638   0.859  14.593
43817W        W 8978   8.559  15.412   1.240
43818W        W 8979  21.898  39.285   2.410
43819W        W 8980  26.194  18.654   3.425
43820W        W 8981  35.345  20.341  10.718
43821W        W 8982  26.179  28.010   3.671
43822W        W 8983  34.089  41.667  14.832
43823W        W 8984  44.921  19.474   0.194
43824W        W 8985  42.224   2.855  10.977
43825W        W 8986  39.824   3.531  12.451
43826W        W 8987  41.004  38.414  10.459
43827W        W 8988  20.527  10.593  10.655
43828W        W 8989  38.611  27.581   1.907
43829W        W 8990  35.202  26.449   4.226
43830W        W 8991  21.609  30.987  14.457
43831W        W 8992   7.687   7.528  11.143
43832W        W 8993  37.788  27.002  10.938
43833W        W 8994  26.107  38.765   1.750
43834W        W 8995  13.072  41.834  14.303
43835W        W 8996  42.234  28.707  12.731
43836W        W 8997  17.570  44.670  10.377
43837W        W 8998  43.443  41.996   3.122
43838W        W 8999  33.386   5.447   0.140
43839W        W 9000  29.219  41.563   2.751
43840W        W 9001  38.675  43.327  13.523
43841W        W 9002  11.876  13.774  12.348
43842W        W 9003  43.317   2.655   3.714
43843W        W 9004  22.093  24.209  12.484
43844W        W 9005  13.914   1.180  11.688
43845W        W 9006  34.457  25.596  13.346
43846W        W 9007  27.002  17.610   3.522
43847W        W 9008  43.270  21.557  14.987
43848W        W 9009  31.334  41.881  14.481
43849W        W 9010  18.961   4.942   4.607
43850W        W 9011  44.885  40.748   1.092
43851W        W 9012  21.436   2.457  12.469
43852W        W 9013  18.195   7.745   1.023
43853W        W 9014  15.392  15.797   3.331
43854W        W 9015  19.383   8.013  12.843
43855W        W 9016   5.277  44.887   4.498
43856W        W 9017  13.624  37.415  13.112
43857W        W 9018  12.380  44.499   4.133
43858W        W 9019  29.014  29.517  14.254
43859W        W 9020   2.833   4.932  14.481
43860W        W 9021   0.202   2.880  10.868
43861W        W 9022  37.477  18.704  14.334
43862W        W 9023  38.139  26.704   1.023
43863W        W 9024  19.670  35.369  13.551
43864W        W 9025   8.946  39.433   2.713
43865W        W 9026   6.947  11.634  12.088
43866W        W 9027  41.850  43.890   4.815
43867W        W 9028   0.253   0.274   1.379
43868W        W 9029  25.425  25.003  14.342
43869W        W 9030  30.111  40.801  13.108
43870W        W 9031  35.535  43.365   0.553
43871W        W 9032  25.935   4.695   4.261
43872W        W 9033  43.970  26.962  14.953
43873W        W 9034  35.873  34.462   3.341
43874W        W 9035  42.090  19.657   3.136
43875W        W 9036  25.947  32.466   1.481
43876W        W 9037  10.396  21.814  12.883
43877W        W 9038  13.698   6.766  14.984
43878W        W 9039  39.994   3.889  13.788
43879W        W 9040  24.507  42.840   1.894
43880W        W 9041  29.708  14.745   2.233
43881W        W 9042   7.723  34.160  12.082
43882W        W 9043  12.294  33.573   2.281
43883W        W 9044   0.720  38.936   0.005
43884W        W 9045   3.962   5.446  14.774
43885W        W 9046   3.802  20.465   0.393
43886W        W 9047   8.719  24.483  11.622
43887W        W 9048   1.276  30.942   4.098
43888W        W 9049  15.365   8.187   1.366
43889W        W 9050  31.405  15.651  11.470
43890W        W 9051   7.659  26.475   2.667
43891W        W 9052  16.888  24.036   4.402
43892W        W 9053   2.509  28.908   0.748
43893W        W 9054  35.127  27.962  11.100
43894W        W 9055  18.129  42.901  11.903
43895W        W 9056  25.389  14.856   2.302
43896W        W 9057  27.165  14.317   4.895
43897W        W 9058  23.775  44.350  13.924
43898W        W 9059  19.705  36.345   0.040
43899W        W 9060   0.211   1.759  14.433
43900W        W 9061  19.549   7.381  13.794
43901W        W 9062   1.703  31.596   2.426
43902W        W 9063  11.244  28.457   4.838
43903W        W 9064  18.630  24.926   0.829
43904W        W 9065  30.288  18.226   2.794
43905W        W 9066  44.569  33.930  11.885
43906W        W 9067  24.090  14.416   4.203
43907W        W 9068  28.203  38.439  10.921
43908W        W 9069   1.346   6.323   1.069
43909W        W 9070  39.484  17.382  13.568
43910W        W 9071  40.025  21.583   0.841
43911W        W 9072  41.403  14.355  11.250
43912W        W 9073  43.686   2.400   1.831
43913W        W 9074   9.590  12.160  11.658
43914W        W 9075  40.786  14.840   2.973
43915W        W 9076  41.931  30.714  14.567
43916W        W 9077  31.838  11.611  14.427
43917W        W 9078  11.974  16.715  14.529
43918W        W 9079  14.414  32.334  14.567
43919W        W 9080  28.685   9.436  12.840
43920W        W 9081  30.544  34.056   0.894
43921W        W 9082  11.385  25.579   4.805
43922W        W 9083  34.547   0.658  10.814
43923W        W 9084  23.399  32.629  13.921
43924W        W 9085  16.759  42.376   9.741
43925W        W 9086  26.686   5.314  12.792
43926W        W 9087  31.644  19.863   1.356
43927W        W 9088  40.956  43.515  14.993
43928W        W 9089  34.420   0.679   0.244
43929W        W 9090  39.009   1.695  14.088
43930W        W 9091  43.930  13.655  13.337
43931W        W 9092   6.197   8.665  10.685
43932W        W 9093  15.087  22.036  12.865
43933W        W 9094  24.285   2.342   2.539
43934W        W 9095  23.937  31.119  11.491
43935W        W 9096   8.843  34.654   3.143
43936W        W 9097  22.293   8.373   0.500
43937W        W 9098  32.637  43.805   4.776
43938W        W 9099  34.998  15.610   3.236
43939W        W 9100  30.668  28.939  13.502
43940W        W 9101  21.199   5.650   1.422
43941W        W 9102  21.169  25.377   0.493
43942W        W 9103  22.127  22.004   1.158
43943W        W 9104  20.624   6.812  11.694
43944W        W 9105   3.458  33.361  14.425
43945W        W 9106   7.380  11.684  13.395
43946W        W 9107  41.453  42.098  14.857
43947W        W 9108   7.954   6.222   3.771
43948W        W 9109  20.322   2.492  14.066
43949W        W 9110  10.079   0.188  11.910
43950W        W 9111  39.806   3.463   2.639
43951W        W 9112  10.932  25.076   4.971
43952W        W 9113  30.620  40.778   4.144
43953W        W 9114  24.171  30.342   1.128
43954W        W 9115  38.514  19.668   0.504
43955W        W 9116  27.291  32.612  14.184
43956W        W 9117  39.444   1.730  14.423
43957W        W 9118   6.306  11.289   0.219
43958W        W 9119  28.933  22.768  10.599
43959W        W 9120  22.950  38.398  13.743
43960W        W 9121  31.973  38.474  10.978
43961W        W 9122  17.839  30.144   0.210
43962W        W 9123  20.180  30.893  14.256
43963W        W 9124  17.515  26.793   0.816
43964W        W 9125   1.262  31.389  13.074
43965W        W 9126  29.591  19.099   1.693
43966W        W 9127  14.849  24.979   1.842
43967W        W 9128   4.719  10.902  13.530
43968W        W 9129   8.946  37.784  14.704
43969W        W 9130   0.341   5.895  14.404
43970W        W 9131  12.249  43.346  11.614
43971W        W 9132  42.761  17.647  14.934
43972W        W 9133  15.290  27.145  14.047
43973W        W 9134  42.926  34.640  11.017
43974W        W 9135  18.811   5.398   5.130
43975W        W 9136  15.109   6.272   0.341
43976W        W 9137  30.170  18.416   1.919
43977W        W 9138  17.547  43.907   2.775
43978W        W 9139  28.961  12.426   3.330
43979W        W 9140  19.492   5.277   1.715
43980W        W 9141  35.755  25.575   2.141
43981W        W 9142  13.787  35.614   3.318
43982W        W 9143  43.498  19.345  13.373
43983W        W 9144  33.326   7.382   1.382
43984W        W 9145  10.835  30.657   1.608
43985W        W 9146  24.929  18.656   4.308
43986W        W 9147   0.479  35.132   0.755
43987W        W 9148  42.408  34.056   3.242
43988W        W 9149  19.942  40.032  11.916
43989W        W 9150  10.882  41.796   2.220
43990W        W 9151   0.004  31.498  14.005
43991W        W 9152  29.592  41.763   0.977
43992W        W 9153  22.666  27.844   2.895
43993W        W 9154  44.836   2.729  12.949
43994W        W 9155  25.732  41.763   1.862
43995W        W 9156   6.377  17.315   4.385
43996W        W 9157  20.496  41.728  13.391
43997W        W 9158  41.308  11.304   4.672
43998W        W 9159  34.495   7.888   4.442
43999W        W 9160  11.609  26.185  14.277
44000W        W 9161  12.471  42.862   3.809
44001W        W 9162   7.095   1.405  10.973
44002W        W 9163  12.836  36.364  14.533
44003W        W 9164   5.850   7.375  11.042
44004W        W 9165  28.166   5.727  13.631
44005W        W 9166  28.741  12.800   4.653
44006W        W 9167  24.266   7.945   3.419
44007W        W 9168   4.443  33.023   2.322
44008W        W 9169   1.224   4.848   2.175
44009W        W 9170   6.196  30.296  10.542
44010W        W 9171  31.585  38.803  11.110
44011W        W 9172  33.660  39.731   0.010
44012W        W 9173  12.365  16.179   1.426
44013W        W 9174  33.328   9.416   0.371
44014W        W 9175  24.117  22.645  10.631
44015W        W 9176  21.782  41.615   3.625
44016W        W 9177   7.834  35.574   1.709
44017W        W 9178  40.097  34.628   2.955
44018W        W 9179  25.967  36.345  13.004
44019W        W 9180  36.522  20.574  11.394
44020W        W 9181  11.679   1.833  14.733
44021W        W 9182  24.069  23.147  11.539
44022W        W 9183   1.559  17.577  13.092
44023W        W 9184  37.694  30.739  14.311
44024W        W 9185   6.080  28.730   4.162
44025W        W 9186  17.222  30.019  14.963
44026W        W 9187  27.000  18.895   1.643
44027W        W 9188  34.911  37.566  12.367
44028W        W 9189  19.466  21.626   0.367
44029W        W 9190   7.689  17.092   9.817
44030W        W 9191  28.070  38.673   1.748
44031W        W 9192  37.747   3.424  10.597
44032W        W 9193  17.034   3.229  12.859
44033W        W 9194  40.779  41.949   4.827
44034W        W 9195  33.868  22.484   5.534
44035W        W 9196  37.054  31.373  11.137
44036W        W 9197   1.669  14.748  13.101
44037W        W 9198  13.585  44.443  12.149
44038W        W 9199  24.211  24.105  11.643
44039W        W 9200  35.217  31.024   4.759
44040W        W 9201  28.190   9.380  11.643
44041W        W 9202  21.063  43.295  10.607
44042W        W 9203  19.086  39.542  11.200
44043W        W 9204  40.906  20.957  11.215
44044W        W 9205  26.623  30.222  10.771
44045W        W 9206  38.760  29.136  10.792
44046W        W 9207  11.103  13.358   2.720
44047W        W 9208  33.141  44.880   4.723
44048W        W 9209  44.758  15.107   4.556
44049W        W 9210  25.582  27.417  12.979
44050W        W 9211   2.944  24.786  14.614
44051W        W 9212  31.098  31.288   2.804
44052W        W 9213  41.902  23.272  11.046
44053W        W 9214  23.195  19.707   4.852
44054W        W 9215  39.100   3.253   2.564
44055W        W 9216  39.139  18.152  13.814
44056W        W 9217   6.938  15.668   2.239
44057W        W 9218  28.540   1.172   9.946
44058W        W 9219  14.113  13.620  12.300
44059W        W 9220  19.666  17.946  14.293
44060W        W 9221  13.926  10.657  11.984
44061W        W 9222   0.542   4.335   4.313
44062W        W 9223  30.987  27.690   2.009
44063W        W 9224  28.971   4.140   2.384
44064W        W 9225  11.801  33.710   2.417
44065W        W 9226  36.897  16.529   0.001
44066W        W 9227  17.006  41.500   1.752
44067W        W 9228  31.632   6.407  13.609
44068W        W 9229  31.593   5.351  13.079
44069W        W 9230  22.724  44.467  12.966
44070W        W 9231  40.410  25.602  14.288
44071W        W 9232  24.725  44.060  13.877
44072W        W 9233  39.855  30.132  10.720
44073W        W 9234  32.629   2.877   2.189
44074W        W 9235  18.220  26.377   4.055
44075W        W 9236  15.250  33.551   1.232
44076W        W 9237  31.355  24.737  14.088
44077W        W 9238   9.640  26.209   3.755
44078W        W 9239  34.549  36.643  10.929
44079W        W 9240  15.744  21.590   1.899
44080W        W 9241  33.151  41.547   1.852
44081W        W 9242  16.080  26.160   3.638
44082W        W 9243  42.886  40.825   1.715
44083W        W 9244   9.635  29.578  10.520
44084W        W 9245  42.884  10.647  10.584
44085W        W 9246   5.010  41.891   0.341
44086W        W 9247  36.116  34.477  13.016
44087W        W 9248  14.614  24.683   2.678
44088W        W 9249  28.810  10.346  10.121
44089W        W 9250  13.126  18.893  12.506
44090W        W 9251   1.725  42.300  13.462
44091W        W 9252  38.983  28.917  14.128
44092W        W 9253  14.330  22.069  10.839
44093W        W 9254   3.119  16.669   5.113
44094W        W 9255  32.994  43.405  11.674
44095W        W 9256  36.664  22.888  12.924
44096W        W 9257  35.924  14.786  11.051
44097W        W 9258   8.595  36.522   3.733
44098W        W 9259  21.424  41.388   4.556
44099W        W 9260  37.910  25.109   3.634
44100W        W 9261  38.019  24.489   2.744
44101W        W 9262  33.198  23.360   3.310
44102W        W 9263  31.511  33.888   4.653
44103W        W 9264  14.759  19.049   4.614
44104W        W 9265  25.180  35.397  11.133
44105W        W 9266   5.710   5.365   0.349
44106W        W 9267   7.188  39.370   3.240
44107W        W 9268  39.938  41.961   3.758
44108W        W 9269  40.211  39.068  12.475
44109W        W 9270  30.328  10.313  13.292
44110W        W 9271  43.188  33.923  10.130
44111W        W 9272  27.725   8.600   2.770
44112W        W 9273  36.096  23.509  12.038
44113W        W 9274   6.773  24.558   3.548
44114W        W 9275  18.657  14.887   1.933
44115W        W 9276   5.203  16.406  14.750
44116W        W 9277  10.173  32.699   4.590
44117W        W 9278  24.003   7.221   0.361
44118W        W 9279  11.929   2.701  11.203
44119W        W 9280  33.994  25.554   0.873
44120W        W 9281  29.930   3.872   4.040
44121W        W 9282  28.616   6.031   4.319
44122W        W 9283  26.456  20.476   2.158
44123W        W 9284  25.700  23.962  11.258
44124W        W 9285  36.907  27.679   3.452
44125W        W 9286  29.132  26.285   1.296
44126W        W 9287  23.279  31.080   1.235
44127W        W 9288   7.305  19.616  14.360
44128W        W 9289   4.830  16.179  11.255
44129W        W 9290   5.592  34.291  11.224
44130W        W 9291  16.241  17.783   2.332
44131W        W 9292  28.119  11.689   0.890
44132W        W 9293  29.031  10.824  14.949
44133W        W 9294  11.548  22.506  13.162
44134W        W 9295  20.608  43.317  11.857
44135W        W 9296  23.693   4.973  11.636
44136W        W 9297  28.403  27.093   0.821
44137W        W 9298  41.565  18.283  10.808
44138W        W 9299   3.066  40.767  12.911
44139W        W 9300  37.987  11.913  12.201
44140W        W 9301  39.918  22.002   1.736
44141W        W 9302  27.047   6.410  13.631
44142W        W 9303  39.866  38.958  13.767
44143W        W 9304  14.897  16.088  13.965
44144W        W 9305  31.140  12.631   0.859
44145W        W 9306   7.458  32.176  14.451
44146W        W 9307   3.935  27.800   4.723
44147W        W 9308  29.733  28.435  12.948
44148W        W 9309  14.695  19.378   2.389
44149W        W 9310  11.224  12.107   0.404
44150W        W 9311  11.072  36.637   4.191
44151W        W 9312  42.749  33.527   0.770
44152W        W 9313  10.652  10.492   4.545
44153W        W 9314  14.826   1.257   0.461
44154W        W 9315  30.828   1.537   0.087
44155W        W 9316   4.942  27.369   0.199
44156W        W 9317  21.554  26.182   0.682
44157W        W 9318  13.561  37.352  11.199
44158W        W 9319  32.872  42.200  12.420
44159W        W 9320  25.018  27.581   1.209
44160W        W 9321  40.848  33.634   1.870
44161W        W 9322  37.376  25.885  13.960
44162W        W 9323  34.457   0.798  14.214
44163W        W 9324   8.199   5.485  12.635
44164W        W 9325   1.018  25.183  11.107
44165W        W 9326   1.533  37.143   9.926
44166W        W 9327  36.681  44.644   1.340
44167W        W 9328   7.351  21.693   2.580
44168W        W 9329  20.260  15.320   1.254
44169W        W 9330  15.707  29.854   2.124
44170W        W 9331  29.652   3.951  10.624
44171W        W 9332  14.681  21.924   4.893
44172W        W 9333  18.602  34.058  14.396
44173W        W 9334  44.013  33.116   2.818
44174W        W 9335   5.407  11.262   3.400
44175W        W 9336  12.845  21.466   3.772
44176W        W 9337  18.521  26.697   3.772
44177W        W 9338  12.111   6.459   4.055
44178W        W 9339  28.057   4.394   2.778
44179W        W 9340  22.691  35.204   3.638
44180W        W 9341  18.644  19.323  13.989
44181W        W 9342   1.340  42.331  12.126
44182W        W 9343   6.643  23.484  14.048
44183W        W 9344  33.736  16.938   4.614
44184W        W 9345  22.131  37.469   1.785
44185W        W 9346  10.649   3.983   3.184
44186W        W 9347   3.340  19.210  11.854
44187W        W 9348  19.794  20.996   3.897
44188W        W 9349  41.953  20.235  14.938
44189W        W 9350  37.653  34.443  10.759
44190W        W 9351  43.392  24.381  12.151
44191W        W 9352  43.795   4.374   3.294
44192W        W 9353  43.496  42.417  13.657
44193W        W 9354   7.824   8.127  12.985
44194W        W 9355  35.649  19.524  11.140
44195W        W 9356   6.660  35.261   3.606
44196W        W 9357  23.886   3.741  13.894
44197W        W 9358  18.475  10.374   0.269
44198W        W 9359   5.418   8.749  11.185
44199W        W 9360  25.890   3.343  12.584
44200W        W 9361  28.474   7.274   1.882
44201W        W 9362  13.905  41.741   1.166
44202W        W 9363  40.772   6.690  13.325
44203W        W 9364  10.242  36.044  14.818
44204W        W 9365   5.932   5.849   0.447
44205W        W 9366   2.792  16.617   3.811
44206W        W 9367  13.646  32.064   2.780
44207W        W 9368  15.160   6.868  13.465
44208W        W 9369   5.638  26.797   2.346
44209W        W 9370  36.502   5.188  14.815
44210W        W 9371  33.544   4.246   2.305
44211W        W 9372  21.991  43.976  12.873
44212W        W 9373  30.018  40.091   1.407
44213W        W 9374  27.914  21.857   3.586
44214W        W 9375   3.681  44.809  11.053
44215W        W 9376  37.353  12.427   1.450
44216W        W 9377  14.649   1.723  10.240
44217W        W 9378  34.102  23.066   1.478
44218W        W 9379  23.232  42.370   3.644
44219W        W 9380  10.798  37.610   3.229
44220W        W 9381   5.392  18.364  11.071
44221W        W 9382  29.951  27.928   3.475
44222W        W 9383  39.298  13.194   1.932
44223W        W 9384   8.147  18.760  13.409
44224W        W 9385  11.894  22.623   0.754
44225W        W 9386  20.680  26.785  12.093
44226W        W 9387  30.711  33.030  13.510
44227W        W 9388  34.840  33.518   0.899
44228W        W 9389   3.483  31.880  12.077
44229W        W 9390  39.357  16.984   2.158
44230W        W 9391  25.777  33.914   1.416
44231W        W 9392   4.285  18.503  13.821
44232W        W 9393  33.638  37.231   5.461
44233W        W 9394  26.034   7.491   0.279
44234W        W 9395  41.571  30.066   3.687
44235W        W 9396  27.994   1.409   2.592
44236W        W 9397  41.488  29.414   0.759
44237W        W 9398  22.559  33.788  10.311
44238W        W 9399  38.836  32.287  12.570
44239W        W 9400  36.101  31.466  14.764
44240W        W 9401  30.509  31.165   4.050
44241W        W 9402  13.835  27.969  10.457
44242W        W 9403  19.511  42.115   2.113
44243W        W 9404   6.027  11.950   1.433
44244W        W 9405  11.271  10.366   1.495
44245W        W 9406  20.949   2.315  12.434
44246W        W 9407  25.939   4.173  11.493
44247W        W 9408   0.335  35.107   5.456
44248W        W 9409  27.018  13.713   4.420
44249W        W 9410   0.157  33.970   2.871
44250W        W 9411  35.423  13.941   3.203
44251W        W 9412  43.051  19.775  12.597
44252W        W 9413  26.066  12.161   4.510
44253W        W 9414  40.307   1.640   4.112
44254W        W 9415  36.590  12.029   4.561
44255W        W 9416   8.202  40.420   3.443
44256W        W 9417  21.422  34.471   2.781
44257W        W 9418  40.302  33.511   0.887
44258W        W 9419   9.756   2.854  12.859
44259W        W 9420  28.478   4.778   3.696
44260W        W 9421  25.658  27.121   3.665
44261W        W 9422  13.525  26.868  14.380
44262W        W 9423  29.808   7.815  12.545
44263W        W 9424  32.379   3.782  12.447
44264W        W 9425   3.819  33.562  12.064
44265W        W 9426  10.698  40.328   0.832
44266W        W 9427  35.062  18.580  12.541
44267W        W 9428  40.473  21.668  11.798
44268W        W 9429  34.084  30.962   1.869
44269W        W 9430   4.272  40.355   0.648
44270W        W 9431  28.012  13.399  12.079
44271W        W 9432  30.990  43.275  13.095
44272W        W 9433  23.608  28.262  11.130
44273W        W 9434  26.216  14.534   0.170
44274W        W 9435  38.440  22.598   2.268
44275W        W 9436  27.229  23.130   4.143
44276W        W 9437  19.768  13.368   4.142
44277W        W 9438  28.165  26.541  10.301
44278W        W 9439   1.649  18.518  13.643
44279W        W 9440  17.790  41.437   0.264
44280W        W 9441  11.366  29.163  13.036
44281W        W 9442  44.343   1.085  10.836
44282W        W 9443  10.147   7.339   0.893
44283W        W 9444  16.102  35.054  11.289
44284W        W 9445   5.294  39.845   1.628
44285W        W 9446  20.577  33.960   0.737
44286W        W 9447  17.185   9.343  14.298
44287W        W 9448  16.834  19.784   4.155
44288W        W 9449  26.661   2.191  11.179
44289W        W 9450   2.955  26.108   0.768
44290W        W 9451  43.303  31.156   1.335
44291W        W 9452  31.968   9.870   2.181
44292W        W 9453  10.905  20.064  14.093
44293W        W 9454  38.316  37.142   3.170
44294W        W 9455   0.840  27.467  10.669
44295W        W 9456  37.532  42.596  10.280
44296W        W 9457  44.013   2.301   4.041
44297W        W 9458   3.156  22.967   2.157
44298W        W 9459   6.707  32.124   1.439
44299W        W 9460  26.509  23.430  12.083
44300W        W 9461  44.435  28.013  10.242
44301W        W 9462  17.044  19.192  10.653
44302W        W 9463  18.908  20.343  14.717
44303W        W 9464  42.392  14.690  12.945
44304W        W 9465  15.731   8.342   1.023
44305W        W 9466  39.092  22.686   0.058
44306W        W 9467  25.214  17.163  12.470
44307W        W 9468  32.690   8.891  12.972
44308W        W 9469  44.152   9.415  12.853
44309W        W 9470  31.025  32.180   2.645
44310W        W 9471  31.584  18.241  14.851
44311W        W 9472  23.379   7.406  13.229
44312W        W 9473  40.922  18.377  14.841
44313W        W 9474  20.142  10.881  12.880
44314W        W 9475   5.378   5.531  11.628
44315W        W 9476   8.301  23.447   2.598
44316W        W 9477  10.820  42.409   4.112
44317W        W 9478   1.203  43.422  10.543
44318W        W 9479  40.213  17.779   0.753
44319W        W 9480  34.599  16.135  13.151
44320W        W 9481  40.971  18.611  11.949
44321W        W 9482   2.981  29.195  13.535
44322W        W 9483  37.048  31.083   3.191
44323W        W 9484   0.286  24.450   2.762
44324W        W 9485  23.011  43.420  11.264
44325W        W 9486  17.554  43.552  12.503
44326W        W 9487  39.918   9.734   3.380
44327W        W 9488  35.161   5.494   3.639
44328W        W 9489  33.649  29.513   0.875
44329W        W 9490   5.677   1.314   1.269
44330W        W 9491   2.421  13.519  14.339
44331W        W 9492  33.914  23.488   1.693
44332W        W 9493  17.743   0.535  12.895
44333W        W 9494   2.255  37.073  14.466
44334W        W 9495  37.196  21.297   0.343
44335W        W 9496  16.709  44.490  14.922
44336W        W 9497   3.240  42.497  13.338
44337W        W 9498  20.450  36.619  11.938
44338W        W 9499   3.339   1.894  12.676
44339W        W 9500  33.242  38.143   4.495
44340W        W 9501  40.918  22.062  13.028
44341W        W 9502   6.245  23.607   0.251
44342W        W 9503  38.443  16.741  13.722
44343W        W 9504  35.935  18.086   1.257
44344W        W 9505  13.301  12.758   2.679
44345W        W 9506   7.560  44.732   1.841
44346W        W 9507   9.997  19.957   3.788
44347W        W 9508  15.126   2.751   4.403
44348W        W 9509  24.326   8.717   3.356
44349W        W 9510  31.923  31.464   3.867
44350W        W 9511  12.720  10.651   2.864
44351W        W 9512  38.513  10.221  12.423
44352W        W 9513  28.165  32.826   0.225
44353W        W 9514  44.777  20.590   1.905
44354W        W 9515  35.692  32.274   1.262
44355W        W 9516   0.266  27.571  11.319
44356W        W 9517  44.881  39.709   1.390
44357W        W 9518  17.307  29.505   4.082
44358W        W 9519  41.787  30.004   0.855
44359W        W 9520  17.760  20.688  12.411
44360W        W 9521  29.911   7.779   1.869
44361W        W 9522  11.389  41.326  14.519
44362W        W 9523  39.999  33.984   2.071
44363W        W 9524  33.090  10.975  13.931
44364W        W 9525  26.373  13.024  11.494
44365W        W 9526  36.628  39.398  12.567
44366W        W 9527   7.025  36.097   3.340
44367W        W 9528  32.525  38.106   4.450
44368W        W 9529   0.558   1.390   4.893
44369W        W 9530  24.472  13.897   2.377
44370W        W 9531  17.855   2.399  11.801
44371W        W 9532  23.720   2.421  12.564
44372W        W 9533   6.877   1.458   0.860
44373W        W 9534   3.817  20.762  13.908
44374W        W 9535  30.927  33.948  13.127
44375W        W 9536  11.344  21.968  11.046
44376W        W 9537  19.699  37.016   3.907
44377W        W 9538   5.730   6.819  14.913
44378W        W 9539  36.378  30.008   3.853
44379W        W 9540  39.102   2.561   1.661
44380W        W 9541  34.654   4.352   0.028
44381W        W 9542  43.425   9.971  13.966
44382W        W 9543  35.500  14.490  14.520
44383W        W 9544   6.591  29.727  12.442
44384W        W 9545   7.978  36.494   2.146
44385W        W 9546  16.265  43.576  12.027
44386W        W 9547   5.653  44.068  12.599
44387W        W 9548  29.013  44.285  10.714
44388W        W 9549  37.046  16.213   0.375
44389W        W 9550  26.064   6.679   2.084
44390W        W 9551   9.217  22.624   1.968
44391W        W 9552  23.664  40.408  13.884
44392W        W 9553  27.432  32.975  11.105
44393W        W 9554  40.006  37.748  12.899
44394W        W 9555  44.521   9.211   4.558
44395W        W 9556  31.333  27.029   2.769
44396W        W 9557  34.172  41.316  13.384
44397W        W 9558  12.907  17.759  12.619
44398W        W 9559  38.912  13.551  14.515
44399W        W 9560  21.003  36.522   0.371
44400W        W 9561  21.324  13.746   0.660
44401W        W 9562  39.839  23.243  13.366
44402W        W 9563  11.633  43.777   0.406
44403W        W 9564  28.533   2.995  13.392
44404W        W 9565  10.210  35.694   0.715
44405W        W 9566  44.684  19.764  13.550
44406W        W 9567   5.454  30.790   4.589
44407W        W 9568   2.719  35.406   3.711
44408W        W 9569  29.499  35.879  11.649
44409W        W 9570  33.539   2.492   5.045
44410W        W 9571  15.092  14.729   4.179
44411W        W 9572  13.713  27.193   4.436
44412W        W 9573  13.011  11.455  11.576
44413W        W 9574   8.363   9.315   1.288
44414W        W 9575  36.819  24.946  14.832
44415W        W 9576  24.972  32.523  10.767
44416W        W 9577  16.331  31.233  14.993
44417W        W 9578   2.489   8.408   2.254
44418W        W 9579  11.924  13.731  11.287
44419W        W 9580  38.906  22.960  11.615
44420W        W 9581  20.483  34.786   2.780
44421W        W 9582  29.388  44.880  13.545
44422W        W 9583  11.296   4.913   3.700
44423W        W 9584  27.678  39.737   5.013
44424W        W 9585   0.081  33.581  11.092
44425W        W 9586  27.074  21.815   3.555
44426W        W 9587  44.780   3.646  11.939
44427W        W 9588   5.260   7.380  14.930
44428W        W 9589  34.150  17.767   4.703
44429W        W 9590  13.684  27.129   4.955
44430W        W 9591   8.699   0.296   1.400
44431W        W 9592  20.207   1.063   4.230
44432W        W 9593  23.130  28.990  12.945
44433W        W 9594  12.590  34.533  11.258
44434W        W 9595   0.789   0.415  10.598
44435W        W 9596   0.367  20.036   4.605
44436W        W 9597  35.233  25.779   3.699
44437W        W 9598  42.656  25.565  10.736
44438W        W 9599  25.502  19.712   1.768
44439W        W 9600  10.771  38.870   2.449
44440W        W 9601  24.706  14.687  10.934
44441W        W 9602  28.225   2.764   2.775
44442W        W 9603  16.482  14.705   3.273
44443W        W 9604  33.164   1.234  12.494
44444W        W 9605  38.480  24.284  13.545
44445W        W 9606  40.809   8.561  12.969
44446W        W 9607  21.559  43.211   2.647
44447W        W 9608   0.881  36.750  13.029
44448W        W 9609  15.195  41.275  12.062
44449W        W 9610  40.313  39.786   4.078
44450W        W 9611  40.256  42.021  12.315
44451W        W 9612  26.635  13.627  14.557
44452W        W 9613   7.709  17.011  12.397
44453W        W 9614  26.844  38.368  12.326
44454W        W 9615  11.805  15.227  13.825
44455W        W 9616   1.688  41.017   0.757
44456W        W 9617   3.800  25.179  14.405
44457W        W 9618  32.593   9.681  13.237
44458W        W 9619  29.094  22.223   1.530
44459W        W 9620  17.411  15.203  10.677
44460W        W 9621  21.222  21.235   0.710
44461W        W 9622  40.833  12.638   0.522
44462W        W 9623   8.907   5.077  14.413
44463W        W 9624  38.952  19.642   4.703
44464W        W 9625  23.796  15.754   4.191
44465W        W 9626   1.214   7.283   2.704
44466W        W 9627  28.132   7.758  12.208
44467W        W 9628  23.245   8.284   0.281
44468W        W 9629  20.040  33.185  14.291
44469W        W 9630  34.654  10.527   1.694
44470W        W 9631  30.085  21.483  12.875
44471W        W 9632   6.501  22.556  14.905
44472W        W 9633   5.421  30.657   1.848
44473W        W 9634   3.677   6.239  10.139
44474W        W 9635  38.650  10.628  10.636
44475W        W 9636  19.459  33.616   3.454
44476W        W 9637   2.999  42.237  10.845
44477W        W 9638  15.185   2.686   3.891
44478W        W 9639  21.859   6.664  13.964
44479W        W 9640   7.801   4.013  13.552
44480W        W 9641  10.585   0.261   4.011
44481W        W 9642  42.682  15.801  14.409
44482W        W 9643  24.568  35.137  14.359
44483W        W 9644  29.046  28.988  14.850
44484W        W 9645  38.535  28.159  13.986
44485W        W 9646  35.583   7.159  12.669
44486W        W 9647  31.523  12.469   3.681
44487W        W 9648  44.977  23.064  13.779
44488W        W 9649  19.605  15.578   2.754
44489W        W 9650   7.661  35.024   3.702
44490W        W 9651  19.674  28.776   2.964
44491W        W 9652  31.441  31.296   1.275
44492W        W 9653  26.221  16.854   5.040
44493W        W 9654  33.460  31.486   3.189
44494W        W 9655   6.217  18.828   4.171
44495W        W 9656  13.003  26.662  14.362
44496W        W 9657  31.661  37.090   2.824
44497W        W 9658  11.193  10.321   0.970
44498W        W 9659  16.029   8.675   1.950
44499W        W 9660  10.611  13.148  11.560
44500W        W 9661  30.437   4.595  11.134
44501W        W 9662  29.274  33.038   3.699
44502W        W 9663  21.263  11.585  14.335
44503W        W 9664   9.691  31.061  10.396
44504W        W 9665  16.663  29.394  10.770
44505W        W 9666  23.181  36.883  14.615
44506W        W 9667  40.302  18.579   2.088
44507W        W 9668  31.834   8.406  14.719
44508W        W 9669  33.973  43.973   4.553
44509W        W 9670  16.331   9.709   1.839
44510W        W 9671   4.719  33.864  13.904
44511W        W 9672  30.976  42.373   1.932
44512W        W 9673  27.545   6.421   1.194
44513W        W 9674  23.662   3.445  11.915
44514W        W 9675   5.667  30.028  12.870
44515W        W 9676  23.254  31.635   1.623
44516W        W 9677  16.626  20.567   1.344
44517W        W 9678  27.112  40.672   2.838
44518W        W 9679  39.731   7.655  14.411
44519W        W 9680  25.172  16.206   4.661
44520W        W 9681   2.376  41.366  10.170
44521W        W 9682  23.546  14.884  12.327
44522W        W 9683  26.714  32.519  11.189
44523W        W 9684  43.613  33.840   9.800
44524W        W 9685   2.963   4.472   3.332
44525W        W 9686  22.620   5.713   4.456
44526W        W 9687   3.230  14.809   2.734
44527W        W 9688  21.316  36.960   3.046
44528W        W 9689  21.606  26.923  12.547
44529W        W 9690   6.928  42.887   3.401
44530W        W 9691  33.009  18.067  13.662
44531W        W 9692  23.487   2.124  12.898
44532W        W 9693  29.309  22.268   2.904
44533W        W 9694  40.140   8.665  12.412
44534W        W 9695  33.347  30.210   0.593
44535W        W 9696  19.231   5.189  13.823
44536W        W 9697  12.290  33.111  12.425
44537W        W 9698  10.099  17.796   4.392
44538W        W 9699  21.170  11.864  10.717
44539W        W 9700  32.886   3.199   1.845
44540W        W 9701  34.064   1.292   1.286
44541W        W 9702  37.366  37.569   4.226
44542W        W 9703  43.822   1.407  12.964
44543W        W 9704  14.257  16.788   5.008
44544W        W 9705  36.656  28.669  13.404
44545W        W 9706  41.532   4.753  11.591
44546W        W 9707  17.675   2.475   4.649
44547W        W 9708   8.630  11.159  13.840
44548W        W 9709   8.135  31.899  10.244
44549W        W 9710  40.394  17.188  14.255
44550W        W 9711  25.399   7.225  14.275
44551W        W 9712   5.781  23.661  13.998
44552W        W 9713  36.367  16.979   2.782
44553W        W 9714   8.788   0.716  14.545
44554W        W 9715  44.390  23.487  13.431
44555W        W 9716  24.133  15.088   5.016
44556W        W 9717  29.646  32.932   2.397
44557W        W 9718   1.411  11.295  10.787
44558W        W 9719  42.008   6.460   1.455
44559W        W 9720  13.204  21.137   1.828
44560W        W 9721  25.919  35.910   2.692
44561W        W 9722  12.869  41.857   2.660
44562W        W 9723   4.858  22.495   2.919
44563W        W 9724  38.897  34.850   0.497
44564W        W 9725  16.019  10.347  10.319
44565W        W 9726  20.525  15.317   2.635
44566W        W 9727  24.280  24.531  13.391
44567W        W 9728   3.209  19.213   1.338
44568W        W 9729   0.072  39.989   1.869
44569W        W 9730  33.937  27.765   1.025
44570W        W 9731  23.664   9.746   2.660
44571W        W 9732  26.957  30.900  12.530
44572W        W 9733   0.367  27.182   1.053
44573W        W 9734  29.921   9.686  12.795
44574W        W 9735  30.580  21.502  10.747
44575W        W 9736  26.525   6.871  11.020
44576W        W 9737  10.543  33.112  12.975
44577W        W 9738   7.769  19.320  10.991
44578W        W 9739  18.642  14.795   4.154
44579W        W 9740  10.797   1.881   1.858
44580W        W 9741   4.728  15.053   2.817
44581W        W 9742  44.477   5.750  13.069
44582W        W 9743   9.387   6.114  11.847
44583W        W 9744  35.264  23.636   4.589
44584W        W 9745  12.780  36.684   0.522
44585W        W 9746   1.990  44.879   4.564
44586W        W 9747  25.947  33.008   3.186
44587W        W 9748  25.503  40.451  10.961
44588W        W 9749  43.032  14.547  11.872
44589W        W 9750  19.099   6.360  12.579
44590W        W 9751   4.954  13.659   1.933
44591W        W 9752  15.932  32.927   1.065
44592W        W 9753  13.837  38.467  14.356
44593W        W 9754  26.740  31.060  12.021
44594W        W 9755  36.609  15.478  13.402
44595W        W 9756  32.972  25.948  12.525
44596W        W 9757  28.535  17.885   0.427
44597W        W 9758  35.309  11.638   4.634
44598W        W 9759  29.677  20.766   1.367
44599W        W 9760  36.295   2.206   0.370
44600W        W 9761  11.248  32.729  12.094
44601W        W 9762  37.148  17.271   1.054
44602W        W 9763   3.932  42.259   1.869
44603W        W 9764  31.685   6.479   3.119
44604W        W 9765  25.157   7.509   4.681
44605W        W 9766  24.228  12.179   0.228
44606W        W 9767   6.151  34.370  12.497
44607W        W 9768  32.385  20.172  11.603
44608W        W 9769  44.208  27.167  10.604
44609W        W 9770  34.308   5.673  12.200
44610W        W 9771   3.146  19.745   0.359
44611W        W 9772   9.327   7.892  13.123
44612W        W 9773  32.666   5.188  12.125
44613W        W 9774  15.918  17.513  14.036
44614W        W 9775  15.700  11.338   3.978
44615W        W 9776  38.456  43.535  12.133
44616W        W 9777  38.596  16.738   4.567
44617W        W 9778  19.147  40.966   0.782
44618W        W 9779  30.579   7.423  13.517
44619W        W 9780  22.166   4.017   1.774
44620W        W 9781  28.429  27.662   0.302
44621W        W 9782  22.447  31.176   1.512
44622W        W 9783  37.614   4.728  14.452
44623W        W 9784  42.596  13.556  11.630
44624W        W 9785  11.867   1.414   4.537
44625W        W 9786  14.436  30.751   0.371
44626W        W 9787  30.297   4.170  12.381
44627W        W 9788  40.434  13.083   1.141
44628W        W 9789  17.866  23.302  14.245
44629W        W 9790  20.258  36.965   3.194
44630W        W 9791   9.316   0.179   4.580
44631W        W 9792  35.935  21.705   1.869
44632W        W 9793  23.578   2.814  13.515
44633W        W 9794  31.044   2.405  12.464
44634W        W 9795   1.820  21.396   1.827
44635W        W 9796  38.092  38.736  10.285
44636W        W 9797  39.335  10.029   0.233
44637W        W 9798  43.440  38.913   1.085
44638W        W 9799  33.121   9.145  14.987
44639W        W 9800  44.262  12.148   3.483
44640W        W 9801  36.473  12.116   0.390
44641W        W 9802  28.542  44.021  10.659
44642W        W 9803  35.966   2.405  10.786
44643W        W 9804  43.816  41.823   0.267
44644W        W 9805  12.575  38.387  14.223
44645W        W 9806   2.273  37.853  10.516
44646W        W 9807  41.814  15.240   1.881
44647W        W 9808  29.891   0.469   3.682
44648W        W 9809  30.122  12.387   0.321
44649W        W 9810   1.158  33.396   3.274
44650W        W 9811  15.305  19.495  10.748
44651W        W 9812   7.954  15.218  13.895
44652W        W 9813  37.769  33.053  11.456
44653W        W 9814  32.630  28.050  11.941
44654W        W 9815  39.654  38.909   2.556
44655W        W 9816  30.339  16.248  13.045
44656W        W 9817   5.504  43.540  12.434
44657W        W 9818  43.812  20.184  14.368
44658W        W 9819  41.589   1.375   4.528
44659W        W 9820  14.423  43.225  11.625
44660W        W 9821  28.642  14.113  12.040
44661W        W 9822  28.485  42.418   4.142
44662W        W 9823  14.653   0.582   1.764
44663W        W 9824  11.299  27.390   0.280
44664W        W 9825  14.818  14.688  12.464
44665W        W 9826  34.811  20.272  12.955
44666W        W 9827  42.982  10.575   3.249
44667W        W 9828  14.066   9.408   0.404
44668W        W 9829   5.792  31.051  13.731
44669W        W 9830   6.379   0.929   1.837
44670W        W 9831  15.035  28.971   2.691
44671W        W 9832  43.259  41.572   3.813
44672W        W 9833  30.461   1.072  10.546
44673W        W 9834   1.286  39.760   2.371
44674W        W 9835  37.909  17.788   3.910
44675W        W 9836  43.951   7.837  14.352
44676W        W 9837   3.380  13.398  14.268
44677W        W 9838  26.715   4.502  11.623
44678W        W 9839  31.006  11.870  14.117
44679W        W 9840   1.405  38.111  13.934
44680W        W 9841  10.889  32.203  13.896
44681W        W 9842  27.449  30.427  14.401
44682W        W 9843  14.727  14.176  10.678
44683W        W 9844  30.586   9.889   0.752
44684W        W 9845  23.135   0.825   1.733
44685W        W 9846  39.322  38.373   4.579
44686W        W 9847  25.486   4.918   4.440
44687W        W 9848  34.316   9.639   4.556
44688W        W 9849  27.071  24.508   4.946
44689W        W 9850   8.904  26.986   2.749
44690W        W 9851  33.476  35.470   1.251
44691W        W 9852  35.191  33.533   5.015
44692W        W 9853  36.087  11.858   2.598
44693W        W 9854  26.177  24.949   9.955
44694W        W 9855  33.300  16.223   4.224
44695W        W 9856  27.588  41.799  11.706
44696W        W 9857  33.425  24.062  12.052
44697W        W 9858  34.367  24.024   0.312
44698W        W 9859  42.459  21.926   2.599
44699W        W 9860  36.228  30.373  13.090
44700W        W 9861  38.521  36.007  13.407
44701W        W 9862  41.961  27.518  13.697
44702W        W 9863  24.663  11.417   2.711
44703W        W 9864   0.475  36.611  13.359
44704W        W 9865  23.137  19.408  14.931
44705W        W 9866   6.674   1.452   2.505
44706W        W 9867   5.171  10.701  14.289
44707W        W 9868  43.381  40.862  14.903
44708W        W 9869  36.836   6.428   0.215
44709W        W 9870  41.348  41.897   2.187
44710W        W 9871  23.481  31.128  11.186
44711W        W 9872  17.709   3.381  14.052
44712W        W 9873  18.266   1.576  12.163
44713W        W 9874  34.424   3.191  11.520
44714W        W 9875   6.886  21.706   3.346
44715W        W 9876  25.645  26.769  11.132
44716W        W 9877  10.953  27.205  12.423
44717W        W 9878  19.144  23.163  13.096
44718W        W 9879  16.104  18.277  12.035
44719W        W 9880  35.848  19.327   1.767
44720W        W 9881  27.708  36.486   0.609
44721W        W 9882  24.239   6.775  13.941
44722W        W 9883   4.077  36.142  11.118
44723W        W 9884  13.713  35.315  13.935
44724W        W 9885  15.701  16.024  14.422
44725W        W 9886  33.907  22.061  11.598
44726W        W 9887   1.459  25.213  13.973
44727W        W 9888  20.406  19.619  11.331
44728W        W 9889  20.174  11.435  14.287
44729W        W 9890  15.772   7.314   4.552
44730W        W 9891  20.023  38.852  13.958
44731W        W 9892   9.622   5.691  11.651
44732W        W 9893  22.232  37.612  12.030
44733W        W 9894  21.091  29.480   1.342
44734W        W 9895  32.195  42.479  12.860
44735W        W 9896  41.831  42.868   4.597
44736W        W 9897   8.719   6.682   3.212
44737W        W 9898  29.517  37.362  10.743
44738W        W 9899  25.709   8.015  13.117
44739W        W 9900  16.791   3.652   0.406
44740W        W 9901   0.205  40.948  12.740
44741W        W 9902  40.449  33.715   4.257
44742W        W 9903   8.825  21.032  12.360
44743W        W 9904  40.091   2.505   4.472
44744W        W 9905  33.312  36.970  12.793
44745W        W 9906  38.147  40.414   2.395
44746W        W 9907  16.807   7.117   4.724
44747W        W 9908   2.863  37.554   3.258
44748W        W 9909  26.804   2.384  10.715
44749W        W 9910  44.214  42.919   2.857
44750W        W 9911  41.057   9.852  10.833
44751W        W 9912  24.019  17.631   4.227
44752W        W 9913  23.487  39.300  12.081
44753W        W 9914  24.192  41.986  12.441
44754W        W 9915  25.689  12.126   1.411
44755W        W 9916  33.969  36.810   4.109
44756W        W 9917  43.430  20.204  11.595
44757W        W 9918   7.918  22.499   4.084
44758W        W 9919  33.142  19.772  10.645
44759W        W 9920  30.530   0.709   4.123
44760W        W 9921  40.224  23.582   4.626
44761W        W 9922  19.751  25.184   4.771
44762W        W 9923  42.474   6.334   3.243
44763W        W 9924   8.161  14.276  12.521
44764W        W 9925  34.650   6.446   3.771
44765W        W 9926  28.203  13.250   1.859
44766W        W 9927  21.777  16.221   4.475
44767W        W 9928   1.262   6.227   2.403
44768W        W 9929  25.098  44.816  14.957
44769W        W 9930   5.854  15.176   4.687
44770W        W 9931   1.461  38.803  12.256
44771W        W 9932  30.110   9.408   1.278
44772W        W 9933  22.054   9.231   0.322
44773W        W 9934  40.381   0.823   0.672
44774W        W 9935   5.746  32.123   3.628
44775W        W 9936  34.431  32.396  12.314
44776W        W 9937  39.356   8.147   4.139
44777W        W 9938  27.696  32.058  12.414
44778W        W 9939  18.913  32.907  10.761
44779W        W 9940  27.504  14.766   1.340
44780W        W 9941  24.485   6.888  11.998
44781W        W 9942  26.093   7.661  12.409
44782W        W 9943  37.555   0.519  14.478
44783W        W 9944   5.975  37.372  10.271
44784W        W 9945  12.056  31.096   2.097
44785W        W 9946  25.325  12.164  13.785
44786W        W 9947  19.588  28.542  12.467
44787W        W 9948  40.419   9.928  14.010
44788W        W 9949  13.549  33.205  14.852
44789W        W 9950  23.398  29.606  12.887
44790W        W 9951   1.264  10.645   2.340
44791W        W 9952   3.720  43.238   2.821
44792W        W 9953  25.129  38.341   1.038
44793W        W 9954  29.397  21.617   4.642
44794W        W 9955  12.708  10.723  11.417
44795W        W 9956  41.418  32.337  12.138
44796W        W 9957  38.439  17.541   2.232
44797W        W 9958  16.533   6.250   4.161
44798W        W 9959  24.076  11.336   0.467
44799W        W 9960  28.611  22.546  14.370
44800W        W 9961  19.608  27.947  12.883
44801W        W 9962  10.725   6.676   3.390
44802W        W 9963  38.095  14.758  11.241
44803W        W 9964  21.933  36.213  11.973
44804W        W 9965  40.428   1.752  14.768
44805W        W 9966  32.977  41.960   0.478
44806W        W 9967  15.483  27.399  14.529
44807W        W 9968  43.248  10.935   3.017
44808W        W 9969  40.745  11.615  14.356
44809W        W 9970  43.034   5.132   3.713
44810W        W 9971  23.239  19.646   0.427
44811W        W 9972  44.584   8.727  10.757
44812W        W 9973  37.801  38.485   1.421
44813W        W 9974  17.587  34.695  11.204
44814W        W 9975  21.578   3.103  13.572
44815W        W 9976   7.181  28.990  13.494
44816W        W 9977  31.060  44.385  10.253
44817W        W 9978   3.851  19.702  11.905
44818W        W 9979  31.189   1.917   0.234
44819W        W 9980  30.438  30.959  10.556
44820W        W 9981  42.013  23.690   2.391
44821W        W 9982  23.361   8.221  12.554
44822W        W 9983  23.034  26.902   2.951
44823W        W 9984  30.058   0.372  13.760
44824W        W 9985   7.751  15.075   1.186
44825W        W 9986  28.123   7.269   3.081
44826W        W 9987   5.688  11.550  12.553
44827W        W 9988   1.220  16.089  13.064
44828W        W 9989  22.626  38.826   1.824
44829W        W 9990  20.242  44.929  12.517
44830W        W 9991  29.584   2.059  10.597
44831W        W 9992  37.465  34.082  11.111
44832W        W 9993  30.000  31.488  12.979
44833W        W 9994  18.465  41.829   2.071
44834W        W 9995  26.426  29.512  12.456
44835W        W 9996  22.885  29.106   3.705
44836W        W 9997  22.986  12.922  12.473
44837W        W 9998  25.186   2.242   3.093
44838W        W 9999  41.192  32.107   3.693
44839W        W10000   6.541  31.539  11.693
44840W        W10001  41.917   4.354   4.149
44841W        W10002  29.546  21.548   1.905
44842W        W10003  37.094  19.556   2.910
44843W        W10004  15.649  34.256  11.481
44844W        W10005  12.289  36.963   2.878
44845W        W10006  29.100  22.049   4.580
44846W        W10007   7.887  33.524  10.923
44847W        W10008  16.297  22.653   1.282
44848W        W10009   2.871  33.469   0.689
44849W        W10010  10.340  41.941   1.741
44850W        W10011  30.554  17.063   1.636
44851W        W10012  44.633  26.985   3.670
44852W        W10013  44.728  17.050   4.259
44853W        W10014  23.239  18.597  13.832
44854W        W10015  36.137   0.779   2.238
44855W        W10016  30.874  29.695  12.099
44856W        W10017  29.150  17.844   0.256
44857W        W10018  32.835   8.747  13.677
44858W        W10019  20.853  27.202  14.834
44859W        W10020  38.989  22.172   3.719
44860W        W10021  30.586  40.793  13.326
44861W        W10022   0.779  26.124  11.069
44862W        W10023  28.599  40.420  11.705
44863W        W10024  31.854  14.274   4.500
44864W        W10025   6.681  43.596  11.536
44865W        W10026  30.918  21.951   2.609
44866W        W10027  27.987  37.979   3.214
44867W        W10028   3.406  32.854  12.619
44868W        W10029   9.175  39.323  11.993
44869W        W10030  32.326  13.225   4.605
44870W        W10031  20.661  22.665   0.331
44871W        W10032  11.258  13.485  11.928
44872W        W10033  18.216   1.457   4.453
44873W        W10034   8.274  34.418  14.386
44874W        W10035  35.013  22.506   3.577
44875W        W10036  12.788   8.621   4.185
44876W        W10037   6.628  26.187   1.192
44877W        W10038  17.269  16.280  14.360
44878W        W10039   9.884  37.319   2.809
44879W        W10040  26.939  18.163   2.725
44880W        W10041  31.470  24.398   4.542
44881W        W10042   8.321  24.407   2.737
44882W        W10043  39.801  34.890   2.608
44883W        W10044  34.003  23.965   3.433
44884W        W10045  40.010  15.196   2.645
44885W        W10046   3.815  20.226  10.473
44886W        W10047  41.208  42.513   3.773
44887W        W10048  42.360  33.198  14.637
44888W        W10049  35.822  30.560   2.280
44889W        W10050  39.844  40.445   1.731
44890W        W10051  42.892  33.880  11.462
44891W        W10052  13.702  42.768   1.445
44892W        W10053  16.159  13.877   1.835
44893W        W10054  26.072   2.362   1.441
44894W        W10055  12.687  24.996   2.789
44895W        W10056  37.462  30.716  11.224
44896W        W10057  15.058  13.094   2.857
44897W        W10058  10.724  19.808   0.385
44898W        W10059  34.627  13.271  14.065
44899W        W10060  32.140  25.034   1.300
44900W        W10061  12.074   7.887  12.045
44901W        W10062  28.690   2.915   4.663
44902W        W10063  32.955  39.733  14.360
44903W        W10064   9.630  24.898  14.951
44904W        W10065  18.256  27.015   0.456
44905W        W10066   9.780  24.397   0.059
44906W        W10067  43.958  25.718   1.181
44907W        W10068  37.824  11.849   1.742
44908W        W10069  26.943  27.579  12.140
44909W        W10070  15.641  36.297   4.590
44910W        W10071  37.993  36.626   3.783
44911W        W10072  38.426  27.535   2.925
44912W        W10073   2.680   1.278   1.318
44913W        W10074  17.712  13.310  13.494
44914W        W10075   8.236   5.507  13.584
44915W        W10076  27.140  14.749  12.263
44916W        W10077  44.902  37.108   3.077
44917W        W10078  15.086   2.082  11.497
44918W        W10079  34.969  43.332   4.774
44919W        W10080   8.132   7.823   2.970
44920W        W10081   5.837  19.280   0.783
44921W        W10082  15.248   4.870  14.106
44922W        W10083   7.468   4.898  12.598
44923W        W10084  18.632  13.210  11.022
44924W        W10085  19.386  23.658  10.983
44925W        W10086  30.460  17.143  13.026
44926W        W10087   9.747   2.195  13.904
44927W        W10088  22.790  26.895   4.138
44928W        W10089  33.380   1.558   3.925
44929W        W10090  26.525  15.964  13.327
44930W        W10091  44.641  30.784   2.121
44931W        W10092   1.848  24.185   4.074
44932W        W10093  23.683  41.967  12.599
44933W        W10094  37.786  39.855   2.235
44934W        W10095   7.737  16.373   1.006
44935W        W10096   3.680  31.889   0.839
44936W        W10097  15.164  27.462   2.670
44937W        W10098   7.905  18.669  10.207
44938W        W10099  36.140  44.979   1.036
44939W        W10100  24.446   7.682   3.827
44940W        W10101  19.301  41.589  11.471
44941W        W10102  38.722   6.324   4.813
44942W        W10103   3.480  37.533   1.448
44943W        W10104  15.870  10.826   2.768
44944W        W10105  28.299  35.349  11.207
44945W        W10106  21.912   5.237   1.260
44946W        W10107  29.103   8.418   3.151
44947W        W10108  18.076   7.985  13.858
44948W        W10109  26.207  15.585  12.396
44949W        W10110   6.575   9.141   4.046
44950W        W10111  44.106  25.542   2.520
44951W        W10112  32.079   1.594   3.630
44952W        W10113  23.070  39.160   5.122
44953W        W10114  32.667  28.657  11.116
44954W        W10115  21.840  26.942   3.797
44955W        W10116  13.225  31.080   3.648
44956W        W10117  22.473  24.904   0.759
44957W        W10118   4.783  25.260   2.625
44958W        W10119  44.979  34.204  12.007
44959W        W10120  39.859  29.518   4.297
44960W        W10121  33.399   2.384  11.655
44961W        W10122  37.837  33.592  10.643
44962W        W10123  14.330  29.380   0.091
44963W        W10124  31.399  40.908  11.292
44964W        W10125  44.982  37.854  12.977
44965W        W10126  23.809  15.199   4.292
44966W        W10127  41.558  26.429   1.294
44967W        W10128  13.005  44.268   2.031
44968W        W10129   9.380  13.783   4.180
44969W        W10130  24.141  31.833   0.376
44970W        W10131  12.174  10.386  10.926
44971W        W10132  40.369   4.812  10.450
44972W        W10133  11.966  33.563  13.916
44973W        W10134  19.089  40.815  14.787
44974W        W10135  44.100  19.173  11.099
44975W        W10136   9.186  19.101   1.256
44976W        W10137  35.514  40.488   4.684
44977W        W10138   7.400  11.718   4.052
44978W        W10139  43.832  40.057   5.472
44979W        W10140  14.767   2.800   1.653
44980W        W10141  40.183   2.393  12.980
44981W        W10142   8.394  35.356   3.454
44982W        W10143   9.719  18.650  14.388
44983W        W10144  20.653  40.670   2.655
44984W        W10145  28.390  31.967   2.804
44985W        W10146   3.799   1.944  11.898
44986W        W10147   3.546   2.207   0.316
44987W        W10148  23.582  42.650  14.901
44988W        W10149  11.270  40.544  10.636
44989W        W10150  18.477  22.035   2.228
44990W        W10151  13.598   8.629  13.334
44991W        W10152  43.440  27.080  13.339
44992W        W10153  10.068  17.152  13.341
44993W        W10154  22.625  21.172  13.235
44994W        W10155   2.367  42.548   4.960
44995W        W10156  27.164  21.485   0.672
44996W        W10157  33.214   6.319  14.199
44997W        W10158  10.894  14.253   0.294
44998W        W10159  16.825  38.124   3.191
44999W        W10160  29.115  14.161   2.825
45000W        W10161  14.260  20.938   1.947
45001W        W10162  38.685   2.960  14.450
45002W        W10163  22.559  37.811   4.176
45003W        W10164  40.235  42.944  11.965
45004W        W10165  18.598   5.829   3.107
45005W        W10166  38.021  39.381   2.211
45006W        W10167  15.094  12.885  11.837
45007W        W10168  36.520  11.865  12.891
45008W        W10169   8.962   5.819   2.782
45009W        W10170  39.497  20.526   2.888
45010W        W10171   2.056  28.154   1.269
45011W        W10172  18.467  44.799  12.012
45012W        W10173   3.753  18.527   4.032
45013W        W10174  28.755  17.005  13.885
45014W        W10175  13.346  14.113   0.229
45015W        W10176  20.159  14.498  12.289
45016W        W10177  21.697  28.453   3.717
45017W        W10178  11.108  30.028  13.579
45018W        W10179  28.891   5.074   3.709
45019W        W10180  33.000   3.571   3.387
45020W        W10181   4.519  15.592  13.408
45021W        W10182  17.750  21.688   4.834
45022W        W10183  39.976  22.503  14.889
45023W        W10184  43.120   2.734   1.689
45024W        W10185   0.124  35.426  12.976
45025W        W10186  21.501   3.377  14.863
45026W        W10187  28.164  33.957   0.876
45027W        W10188  41.513  15.609  13.835
45028W        W10189   8.020  27.912  14.009
45029W        W10190  12.894  33.984   1.840
45030W        W10191  11.220  44.658  10.207
45031W        W10192  24.792  29.544   1.297
45032W        W10193  13.547  15.669   2.319
45033W        W10194  28.118  10.307  11.175
45034W        W10195  10.022  35.985   0.309
45035W        W10196   0.078   8.878   0.036
45036W        W10197  20.427  40.662   2.209
45037W        W10198  20.964  12.567   2.391
45038W        W10199  14.221  19.056   2.523
45039W        W10200  39.021  42.491  13.635
45040W        W10201   9.246  26.014  13.027
45041W        W10202  39.495  19.630   4.655
45042W        W10203  14.096  23.619   3.190
45043W        W10204  42.969  18.713   3.326
45044W        W10205   3.195  21.960  13.481
45045W        W10206   7.521  39.677  14.514
45046W        W10207  37.791  39.952   4.545
45047W        W10208  23.010   1.212  10.994
45048W        W10209  30.617  11.621   0.002
45049W        W10210  33.009   7.865  14.342
45050W        W10211  15.514   2.903  12.281
45051W        W10212  42.040  11.761   3.571
45052W        W10213  38.318  44.579  14.020
45053W        W10214  11.222   5.681  13.147
45054W        W10215  23.456  41.042  11.572
45055W        W10216  25.635  16.272  12.928
45056W        W10217  36.480   8.539  10.787
45057W        W10218   0.234  35.327   2.836
45058W        W10219  41.998  10.268   2.042
45059W        W10220   8.955  13.488  12.302
45060W        W10221   4.217  40.764   3.285
45061W        W10222  35.772  24.533   1.723
45062W        W10223  37.643  44.637   5.202
45063W        W10224  30.083  35.501  13.133
45064W        W10225  23.766  42.382   0.315
45065W        W10226  36.747  26.824  11.932
45066W        W10227  21.887  14.183  12.033
45067W        W10228  36.473  44.309  13.140
45068W        W10229   5.652  30.776   5.448
45069W        W10230  14.888  17.261  11.624
45070W        W10231  21.131  10.170   1.743
45071W        W10232  24.893  20.269   0.813
45072W        W10233  32.154  16.659   0.477
45073W        W10234   4.023   7.663  11.293
45074W        W10235   5.119   8.889   5.132
45075W        W10236  21.221  28.506   3.324
45076W        W10237  41.987   1.354  14.432
45077W        W10238   6.038  44.257  13.476
45078W        W10239   4.239   2.020  12.140
45079W        W10240   7.836  44.998  11.567
45080W        W10241  39.857  17.231   4.378
45081W        W10242  35.627   0.863   2.162
45082W        W10243  35.586  18.601   1.455
45083W        W10244  40.894  16.750   0.282
45084W        W10245  16.803  44.263  12.928
45085W        W10246  34.531  21.769  13.901
45086W        W10247   8.863  44.270  12.499
45087W        W10248  44.492  13.104   0.053
45088W        W10249  43.864  40.368   0.806
45089W        W10250   3.558  16.799   0.591
45090W        W10251  36.012  30.700  14.043
45091W        W10252  43.782   8.497  12.978
45092W        W10253  37.964  39.436   0.465
45093W        W10254  30.914  21.138   5.329
45094W        W10255  17.092  30.307   2.898
45095W        W10256   3.002  27.987  14.684
45096W        W10257  13.257  18.434   1.955
45097W        W10258  29.522  33.666   2.078
45098W        W10259  23.997  39.576   4.560
45099W        W10260   8.327  12.806  12.521
45100W        W10261  22.315   7.088  10.962
45101W        W10262  17.814   0.965   2.319
45102W        W10263   1.635   5.395  13.388
45103W        W10264  28.491  33.821  13.145
45104W        W10265  10.057  44.319  10.283
45105W        W10266  12.805  25.682  11.643
45106W        W10267  15.847  27.105   1.508
45107W        W10268   1.235   2.730   0.494
45108W        W10269  18.511  20.275  13.882
45109W        W10270  16.971   7.165  14.833
45110W        W10271  18.986  10.368  13.440
45111W        W10272  37.034   5.418   0.387
45112W        W10273  36.852   2.246   0.312
45113W        W10274  24.640  39.523  13.369
45114W        W10275   7.577  22.243  10.627
45115W        W10276   2.618   2.478   3.287
45116W        W10277   0.400  43.151  10.764
45117W        W10278  12.076  34.378   1.871
45118W        W10279   2.859  43.970   0.339
45119W        W10280  28.212  41.989   1.981
45120W        W10281  32.917  11.783   0.769
45121W        W10282  40.109  40.054  12.917
45122W        W10283  16.223  40.780   0.781
45123W        W10284  40.295   3.728   0.949
45124W        W10285  21.489  38.074   3.276
45125W        W10286  16.921  21.592  12.944
45126W        W10287   5.186   7.293  13.395
45127W        W10288  29.569  16.012  14.954
45128W        W10289  33.178   6.437   1.409
45129W        W10290  34.096  32.492  13.613
45130W        W10291  38.539  20.743   2.722
45131W        W10292  28.100   1.429  14.399
45132W        W10293  42.843  42.518  11.512
45133W        W10294  10.391  19.744   2.595
45134W        W10295  28.407  21.887   3.425
45135W        W10296  36.330  26.120  10.795
45136W        W10297  40.278  20.424   2.103
45137W        W10298   6.786  23.005  14.025
45138W        W10299  17.622   5.401  13.669
45139W        W10300  21.203  20.026   3.723
45140W        W10301  28.130  16.590   4.185
45141W        W10302   6.944  31.473   0.783
45142W        W10303  12.217   6.940   1.146
45143W        W10304  36.399  13.762  10.688
45144W        W10305  27.797   8.506  10.341
45145W        W10306  28.005  35.709   3.638
45146W        W10307  29.931  19.445  12.063
45147W        W10308   2.318  35.486  10.121
45148W        W10309  40.607  27.122  12.699
45149W        W10310  10.840   1.901  11.205
45150W        W10311  28.271  40.335  14.448
45151W        W10312   4.111   4.227  13.363
45152W        W10313  22.305  40.571  14.428
45153W        W10314  20.168  43.545  11.086
45154W        W10315   0.253  11.254  14.434
45155W        W10316   4.994   9.391   2.838
45156W        W10317   2.544  28.006   1.170
45157W        W10318  20.162   2.934   0.954
45158W        W10319   2.915  42.785   3.363
45159W        W10320   5.296  10.586   4.893
45160W        W10321  20.587   3.783   4.576
45161W        W10322  34.109   9.198   0.018
45162W        W10323   8.637  39.634   3.205
45163W        W10324  29.946  12.261  11.124
45164W        W10325  40.420  21.545   0.337
45165W        W10326  44.938  41.034   3.651
45166W        W10327  38.698  11.647   1.030
45167W        W10328  10.463  42.109   2.240
45168W        W10329  35.509   3.989   4.654
45169W        W10330  19.761  32.639   1.621
45170W        W10331  34.337   6.947  13.894
45171W        W10332  35.312   4.189  14.887
45172W        W10333  19.614  42.056   1.269
45173W        W10334  10.766   0.284  14.030
45174W        W10335  28.714  14.207   1.940
45175W        W10336   3.192  33.064  10.779
45176W        W10337  35.902  21.190   0.403
45177W        W10338  33.864  11.803  13.028
45178W        W10339   1.023  12.828  13.468
45179W        W10340  43.285   3.777   4.592
45180W        W10341  30.986  17.648  13.472
45181W        W10342   9.010  32.990  13.051
45182W        W10343  24.982  43.203   5.107
45183W        W10344   1.892  22.761  14.778
45184W        W10345  28.442  24.653   0.269
45185W        W10346  38.037  34.319   2.102
45186W        W10347   0.577  11.808   0.791
45187W        W10348  20.744   6.849   2.728
45188W        W10349  11.898  22.593  10.534
45189W        W10350  33.660  22.673   9.664
45190W        W10351  15.532  21.546  11.229
45191W        W10352   2.737  10.402   4.839
45192W        W10353  14.507   8.676  12.883
45193W        W10354   2.883  28.402   2.817
45194W        W10355   4.688  17.179  11.211
45195W        W10356  37.895  40.891  10.725
45196W        W10357  24.587  35.089  13.371
45197W        W10358  37.871  21.955  11.021
45198W        W10359   2.218  25.482  12.573
45199W        W10360  14.697  34.639  14.421
45200W        W10361  32.562  39.042   0.885
45201W        W10362  26.059   6.727   3.412
45202W        W10363  27.139   1.344  13.930
45203W        W10364   0.448  31.407  10.704
45204W        W10365   6.956   9.745   4.559
45205W        W10366  44.695  11.316   3.621
45206W        W10367  34.659  20.414   0.836
45207W        W10368   9.963  22.690  11.649
45208W        W10369  22.047  14.187   3.623
45209W        W10370  17.065  24.182  14.825
45210W        W10371  30.959  40.604   2.787
45211W        W10372  20.090  34.794  12.155
45212W        W10373  27.707   5.600   0.734
45213W        W10374  32.913   9.958   4.347
45214W        W10375  12.134  37.313  13.854
45215W        W10376  44.277  19.870  10.582
45216W        W10377   7.472  22.154  11.544
45217W        W10378   7.653  38.637  12.256
45218W        W10379   8.225  30.621  14.211
45219W        W10380  22.189   6.425  14.280
45220W        W10381  18.736   3.304   3.359
45221W        W10382  21.657  32.382  14.334
45222W        W10383  33.653  11.828  10.400
45223W        W10384   9.739  19.490  11.129
45224W        W10385  37.372  36.469   1.680
45225W        W10386  30.477  32.593  10.721
45226W        W10387  24.660  23.756   0.012
45227W        W10388  30.798  25.326  10.371
45228W        W10389  16.965  42.406   3.620
45229W        W10390  15.020  24.122   4.649
45230W        W10391  22.456   8.573  12.485
45231W        W10392  31.414   7.064  10.763
45232W        W10393  32.915  34.642  14.530
45233W        W10394  20.509  40.840  14.399
45234W        W10395  14.265   8.142   0.840
45235W        W10396  15.170  31.497   2.346
45236W        W10397  11.767  14.838  11.958
45237W        W10398   9.271  41.513   1.476
45238W        W10399   0.607  43.254   0.443
45239W        W10400  39.825  19.665  13.334
45240W        W10401  28.968  17.357   3.471
45241W        W10402  26.513   8.160  13.092
45242W        W10403  28.473  34.567   1.441
45243W        W10404  35.650  28.275  14.728
45244W        W10405   4.197  20.122   0.359
45245W        W10406  44.496  26.500  10.801
45246W        W10407  32.537  34.929  13.786
45247W        W10408  27.408  13.437   3.155
45248W        W10409  30.928  24.118   2.345
45249W        W10410  16.029   0.988  12.417
45250W        W10411  39.942  13.811  12.056
45251W        W10412   3.200  23.452   2.331
45252W        W10413  21.037  44.739  11.916
45253W        W10414   7.944  43.309   2.898
45254W        W10415  10.271   8.222   0.470
45255W        W10416   4.922  33.656  11.937
45256W        W10417  23.185  22.006   1.746
45257W        W10418  36.475  30.678  12.624
45258W        W10419  33.583  23.955  10.432
45259W        W10420  22.790  43.386   9.764
45260W        W10421  37.841  25.021  14.038
45261W        W10422  29.811  12.107  13.336
45262W        W10423   1.625   1.756   2.435
45263W        W10424   9.193  33.808  12.526
45264W        W10425  27.415  22.284  13.917
45265W        W10426  12.285   6.840   1.661
45266W        W10427   3.824   4.109   3.565
45267W        W10428  20.691  11.679  12.555
45268W        W10429  26.055  14.790  10.699
45269W        W10430   3.362  37.766   4.983
45270W        W10431  35.587  11.026   1.284
45271W        W10432  42.061  31.211  11.658
45272W        W10433  37.869   3.858   2.904
45273W        W10434  27.281  25.693   4.131
45274W        W10435  42.959  34.919   3.962
45275W        W10436  33.249  14.235  12.187
45276W        W10437  31.186  14.600   2.309
45277W        W10438  17.746  11.742   1.828
45278W        W10439  37.349  31.194  13.008
45279W        W10440  43.387  22.435   3.200
45280W        W10441  40.529   1.498  13.781
45281W        W10442  14.252  31.739   2.694
45282W        W10443  32.723  12.661   4.000
45283W        W10444  33.941   9.264   4.584
45284W        W10445  36.131  26.011   0.217
45285W        W10446   9.971   4.886  13.503
45286W        W10447  37.531  36.566   2.706
45287W        W10448  15.029  43.350   3.288
45288W        W10449  33.432  28.689  12.128
45289W        W10450  27.109  36.934  10.941
45290W        W10451   5.177  24.365   3.722
45291W        W10452  43.503  13.246   2.146
45292W        W10453  18.192   7.178  13.348
45293W        W10454  44.769  30.107   0.970
45294W        W10455  26.746   3.684   1.758
45295W        W10456  14.254  37.510  14.522
45296W        W10457   6.180  14.227  14.337
45297W        W10458  20.515  23.432   2.347
45298W        W10459  17.223  30.670  12.858
45299W        W10460  43.325  36.378   0.311
45300W        W10461   3.898   3.673  12.758
45301W        W10462  32.069  37.087  13.934
45302W        W10463  17.601  44.787   1.589
45303W        W10464  13.244  13.389  11.505
45304W        W10465  14.720  23.691  13.180
45305W        W10466  15.330   5.122   1.245
45306W        W10467  11.906  20.069  12.971
45307W        W10468  14.533  13.808   2.290
45308W        W10469  11.649  26.779  10.356
45309W        W10470  12.609  41.415   1.467
45310W        W10471   7.701  28.192  13.380
45311W        W10472   4.085   3.010  14.865
45312W        W10473  37.043  24.463  11.958
45313W        W10474   6.003  22.587  12.126
45314W        W10475   6.817  22.079   4.704
45315W        W10476  11.291  12.617   0.293
45316W        W10477  39.010  42.330   0.166
45317W        W10478   8.722  31.994   0.158
45318W        W10479  31.161  35.293   4.182
45319W        W10480  23.611   2.743   4.908
45320W        W10481  36.875  40.462   0.353
45321W        W10482   7.664  18.282   2.818
45322W        W10483   3.347  21.793   0.215
45323W        W10484  37.974   1.941   1.952
45324W        W10485  13.299  17.798  11.931
45325W        W10486  43.006  41.228   3.495
45326W        W10487  27.160  13.037   0.151
45327W        W10488  38.409  27.968   2.670
45328W        W10489  22.409  32.879  14.524
45329W        W10490  31.125  34.198  14.118
45330W        W10491  11.098  38.389   4.557
45331W        W10492  14.193  17.277   1.895
45332W        W10493  25.955  33.846  13.353
45333W        W10494  16.524  34.983  12.482
45334W        W10495  11.823   9.118  14.330
45335W        W10496  14.082  42.505  12.912
45336W        W10497  37.064  16.681   3.173
45337W        W10498  30.544  32.088  13.093
45338W        W10499  19.782  26.824   0.478
45339W        W10500  13.027  22.957  14.306
45340W        W10501  33.501   5.381  10.218
45341W        W10502  38.490  40.536   2.768
45342W        W10503   2.337  42.762  14.416
45343W        W10504  42.816   2.635   0.819
45344W        W10505  34.128   0.426  14.350
45345W        W10506  15.266  20.268   0.940
45346W        W10507  17.787  22.805  12.441
45347W        W10508   2.986  15.171   0.037
45348W        W10509  25.266  32.906  11.037
45349W        W10510   1.178  40.445  11.985
45350W        W10511  33.899  25.674   1.758
45351W        W10512   2.396  32.153   3.528
45352W        W10513  13.097  32.481   1.931
45353W        W10514   2.688  25.955   2.801
45354W        W10515  22.804   9.644   4.578
45355W        W10516  16.700  27.000  11.325
45356W        W10517  39.969  23.247   1.416
45357W        W10518  19.233  44.814  10.660
45358W        W10519  28.096  29.731  11.991
45359W        W10520  39.473  18.819   0.047
45360W        W10521  39.485   3.645   1.396
45361W        W10522   0.381  20.107  11.413
45362W        W10523  11.856  17.055   2.376
45363W        W10524   5.405  23.438  14.270
45364W        W10525   0.667   1.504  12.729
45365W        W10526  18.548  15.864  14.542
45366W        W10527  44.320  30.782   4.075
45367W        W10528  22.406  26.060   4.537
45368W        W10529  21.242  23.872  10.815
45369W        W10530   0.146  22.188  13.055
45370W        W10531  13.717  34.173  12.676
45371W        W10532  42.289  26.915   2.794
45372W        W10533   1.937  31.666  11.208
45373W        W10534   2.806   7.420  14.022
45374W        W10535  27.164  25.724   2.848
45375W        W10536  13.142   4.466   2.877
45376W        W10537  15.068  21.167  13.412
45377W        W10538  12.175  38.925   4.074
45378W        W10539  17.497  20.911  13.448
45379W        W10540  34.629  32.535  11.500
45380W        W10541  42.327  33.839   0.841
45381W        W10542  28.828   1.927  12.495
45382W        W10543  16.457  17.823  10.116
45383W        W10544  12.630  35.864   0.779
45384W        W10545  18.469  24.782   2.673
45385W        W10546   1.956  42.887   3.839
45386W        W10547  26.058  11.672  12.885
45387W        W10548  25.054  27.132  14.270
45388W        W10549  21.152  17.202   1.894
45389W        W10550  23.951  34.200  11.105
45390W        W10551  15.055  29.551  13.497
45391W        W10552   5.360   1.874  11.034
45392W        W10553   1.953   9.385  13.319
45393W        W10554  10.746  21.992   1.629
45394W        W10555   0.751  16.478  14.458
45395W        W10556  26.162  44.447   0.826
45396W        W10557  10.798  17.394  13.062
45397W        W10558  37.833   9.858  14.327
45398W        W10559   2.501  19.552  13.710
45399W        W10560   5.891  44.699   2.232
45400W        W10561  44.534  37.837  12.115
45401W        W10562   2.359  41.973   0.742
45402W        W10563  12.972   7.958  14.016
45403W        W10564  10.841   4.896   3.423
45404W        W10565  37.745  33.922   2.327
45405W        W10566  15.853  20.502  13.527
45406W        W10567   9.606  25.029   4.636
45407W        W10568   8.197  19.632   2.173
45408W        W10569  26.260  32.465   4.318
45409W        W10570  40.421  20.198   3.596
45410W        W10571  11.627  44.969  11.609
45411W        W10572  11.868   2.991  12.997
45412W        W10573  15.196  43.815   1.643
45413W        W10574  33.158  26.008  12.049
45414W        W10575  19.609  31.181   5.107
45415W        W10576  29.233   0.702   4.252
45416W        W10577   3.713  19.129   1.270
45417W        W10578   9.279  17.516   1.333
45418W        W10579  40.292   2.264   1.319
45419W        W10580  15.069   4.326   0.946
45420W        W10581   8.864  44.781  10.939
45421W        W10582  24.131  37.527  11.030
45422W        W10583  36.398  23.254  14.359
45423W        W10584   3.358  27.616   2.802
45424W        W10585  13.207  16.569  13.842
45425W        W10586  10.338  22.246   1.868
45426W        W10587  27.536   5.207   2.754
45427W        W10588  23.269  41.888  13.372
45428W        W10589  32.186  37.935  14.298
45429W        W10590  12.615  16.273  12.472
45430W        W10591  21.131  30.861  14.312
45431W        W10592  12.414  31.430  12.092
45432W        W10593   3.331   1.638   2.693
45433W        W10594   2.810  15.041  13.156
45434W        W10595  21.686  22.824  14.978
45435W        W10596  43.904  28.221  12.962
45436W        W10597  44.901  41.393   2.453
45437W        W10598  15.338  27.065   1.441
45438W        W10599  25.767  42.532   2.682
45439W        W10600   8.944   3.309   2.222
45440W        W10601  37.814   3.835  13.540
45441W        W10602  43.752  44.763  13.070
45442W        W10603  32.126  27.112   3.216
45443W        W10604   2.328  16.745  12.292
45444W        W10605   8.347   6.786   3.820
45445W        W10606  23.104  18.316  13.410
45446W        W10607  16.175  37.662  10.730
45447W        W10608   2.496  39.966   3.679
45448W        W10609  26.789  38.799  13.494
45449W        W10610  30.498  21.248  13.952
45450W        W10611  17.200  27.196   3.155
45451W        W10612   7.135  38.266  14.481
45452W        W10613  19.228  32.044   4.166
45453W        W10614  38.288  17.735  13.454
45454W        W10615  15.054   0.898   1.611
45455W        W10616   8.921   5.262   1.827
45456W        W10617   7.663  35.052   1.806
45457W        W10618  12.695  25.725  13.959
45458W        W10619  19.011  19.613   4.855
45459W        W10620  27.219  28.387  11.579
45460W        W10621  14.852  44.260  11.989
45461W        W10622  38.394  42.202   0.773
45462W        W10623   7.545  16.534  12.379
45463W        W10624  35.183  39.909   0.335
45464W        W10625  42.313  14.457   2.230
45465W        W10626  31.537   8.257  13.117
45466W        W10627  44.282  16.625  12.033
45467W        W10628  42.674  40.503   4.053
45468W        W10629  18.540  35.284   0.319
45469W        W10630  35.368  17.225   0.417
45470W        W10631  29.768  27.635  14.911
45471W        W10632  16.127  30.905   1.429
45472W        W10633  19.670   6.092   2.357
45473W        W10634  12.298  38.525   0.224
45474W        W10635  23.349  23.682   3.248
45475W        W10636  20.707  18.704   2.368
45476W        W10637  21.081  14.139  11.556
45477W        W10638  14.369  13.669   3.185
45478W        W10639  20.088   8.229  14.934
45479W        W10640  40.271  24.564  14.874
45480W        W10641  36.818  18.508   2.893
45481W        W10642   7.194  38.530  13.028
45482W        W10643  27.880  24.112   0.060
45483W        W10644  13.097  18.824   4.996
45484W        W10645   2.878  13.653   3.303
45485W        W10646  22.440  18.145   3.276
45486W        W10647  44.752  21.072  11.580
45487W        W10648  35.849   2.303   3.232
45488W        W10649  15.086  19.676   2.167
45489W        W10650  19.625   3.788   1.661
45490W        W10651  42.072  19.066   2.705
45491W        W10652   6.560  23.416  14.907
45492W        W10653   8.844  15.508   0.793
45493W        W10654  21.154  35.898   1.482
45494W        W10655  31.963   7.199   3.570
45495W        W10656  27.206   1.334  11.082
45496W        W10657   9.900  28.626   0.748
45497W        W10658  19.356  42.483  10.459
45498W        W10659  26.188  14.229  14.441
45499W        W10660  11.520  14.795  13.901
45500W        W10661  43.925   1.280  14.449
45501W        W10662  18.553   6.490  13.256
45502W        W10663  18.257   9.759  13.177
45503W        W10664  16.157  29.991  10.672
45504W        W10665  25.184   5.881   2.835
45505W        W10666  34.564  31.951  12.507
45506W        W10667  31.877  36.101  14.186
45507W        W10668   2.395   8.825  13.012
45508W        W10669  32.126  24.015  10.063
45509W        W10670  10.681   2.912  13.337
45510W        W10671  32.709  17.486  11.613
45511W        W10672  19.083  29.118  12.848
45512W        W10673  19.145  16.597   4.088
45513W        W10674  38.605  12.724  12.247
45514W        W10675  28.339  25.199  10.700
45515W        W10676  16.336   2.746  10.690
45516W        W10677   1.547  16.090  10.735
45517W        W10678  23.351  14.771   0.774
45518W        W10679  10.368  12.670  14.098
45519W        W10680   2.764  36.180   1.370
45520W        W10681  24.097   5.397   4.571
45521W        W10682   2.223  19.330   2.297
45522W        W10683  16.306   0.994   2.892
45523W        W10684  26.934  34.559   2.872
45524W        W10685  36.655  11.816  10.700
45525W        W10686  17.071  17.734   0.749
45526W        W10687  22.440  29.137  14.988
45527W        W10688  42.913  30.439   3.415
45528W        W10689   1.329   1.440   3.767
45529W        W10690  12.423  20.148  13.795
45530W        W10691  15.630  39.501   2.648
45531W        W10692   6.393  18.333  13.509
45532W        W10693  28.261  20.798   1.227
45533W        W10694  29.598  38.145   0.299
45534W        W10695  34.281  11.735  11.227
45535W        W10696  33.230  35.999   2.848
45536W        W10697  29.539  27.964   4.297
45537W        W10698  26.501  33.607  13.674
45538W        W10699  36.008  14.143  12.921
45539W        W10700  28.422  18.794   4.659
45540W        W10701  44.407  11.213  12.619
45541W        W10702  29.477  34.235  12.207
45542W        W10703   6.931  18.370  14.402
45543W        W10704   3.637   2.299  13.386
45544W        W10705  38.114  15.628  11.110
45545W        W10706  44.319  17.001  10.005
45546W        W10707  11.422  40.261   2.815
45547W        W10708  21.451  21.324  10.315
45548W        W10709  21.445  35.560  13.536
45549W        W10710  18.536  32.103   2.063
45550W        W10711  18.419   5.294   3.001
45551W        W10712  41.785  25.657   3.597
45552W        W10713  24.585   0.965  11.406
45553W        W10714  11.226   8.092  11.478
45554W        W10715  14.684   8.298  14.970
45555W        W10716  44.747   7.295  14.364
45556W        W10717  15.763  18.201   4.702
45557W        W10718  43.539  20.989  11.208
45558W        W10719  17.469   1.385  12.340
45559W        W10720   7.062  22.962   4.595
45560W        W10721   7.195   7.283   0.204
45561W        W10722  31.860  32.034  14.407
45562W        W10723  30.733   2.773   2.280
45563W        W10724  22.170   3.730   4.414
45564W        W10725  22.476  43.963  14.062
45565W        W10726  15.306   6.186  11.696
45566W        W10727  13.199   6.157  13.778
45567W        W10728  36.425   2.269   3.133
45568W        W10729   2.843  18.807  13.994
45569W        W10730  33.184  41.399   3.972
45570W        W10731  13.675  33.285   0.901
45571W        W10732  40.348  33.292  12.079
45572W        W10733   7.666  34.103   2.796
45573W        W10734  21.813   4.907   0.858
45574W        W10735  26.590  25.254   2.231
45575W        W10736  26.084  17.641  11.808
45576W        W10737  41.734  44.801  10.739
45577W        W10738  38.223  38.939   5.016
45578W        W10739  29.755  19.993   1.893
45579W        W10740   9.108  12.348   1.945
45580W        W10741  20.115  32.357  13.110
45581W        W10742  11.266  22.049   2.913
45582W        W10743  27.568   5.763  11.451
45583W        W10744  19.972  22.145  14.841
45584W        W10745   1.996  26.871  14.411
45585W        W10746  16.656  32.982  11.168
45586W        W10747  33.323   7.945  13.382
45587W        W10748  20.333  34.343   1.910
45588W        W10749  20.121  17.077  10.303
45589W        W10750  27.873  34.722   0.276
45590W        W10751  34.580   2.207  11.493
45591W        W10752  24.688  44.517  14.771
45592W        W10753   2.709  12.644  14.804
45593W        W10754  29.439  12.742  14.012
45594W        W10755  17.913   0.515  12.416
45595W        W10756  25.453   4.691   3.401
45596W        W10757   0.945   7.893  12.229
45597W        W10758  27.141  17.286  13.361
45598W        W10759   7.279  34.858   4.139
45599W        W10760  41.771  14.881   4.571
45600W        W10761  25.452  36.878  12.433
45601W        W10762  33.574   9.222  11.512
45602W        W10763  17.528  44.842   2.805
45603W        W10764   4.895  23.322   1.306
45604W        W10765  10.827  18.103   1.417
45605W        W10766  20.590  22.971  13.863
45606W        W10767  35.781   8.669  11.321
45607W        W10768  44.799  43.585   3.646
45608W        W10769  22.633  44.950  10.855
45609W        W10770  26.941   8.838  14.451
45610W        W10771  33.392  12.090  10.024
45611W        W10772  23.544  30.953   0.327
45612W        W10773  12.944  34.565  12.038
45613W        W10774  15.857  12.625   4.647
45614W        W10775  17.625   7.648   4.872
45615W        W10776  27.277  30.265  11.933
45616W        W10777  22.179  43.524   1.885
45617W        W10778   0.841  43.109  11.226
45618W        W10779  32.534   2.773   0.445
45619W        W10780  10.249  37.032  12.043
45620W        W10781   5.311   4.843   1.833
45621W        W10782  14.125  40.550  12.937
45622W        W10783   3.788   6.379  12.172
45623W        W10784  15.553  11.080   2.249
45624W        W10785  33.060  15.595   4.398
45625W        W10786   8.746  17.561  14.454
45626W        W10787  32.449  35.221   1.304
45627W        W10788   6.253  40.515  10.711
45628W        W10789  22.287  22.789  13.342
45629W        W10790  36.048  15.267  10.783
45630W        W10791  15.698  31.920   4.020
45631W        W10792   8.702  22.655   4.991
45632W        W10793  10.124  13.201   3.840
45633W        W10794  33.471  26.611  14.044
45634W        W10795   3.234  16.402   4.580
45635W        W10796  26.265   8.315   4.645
45636W        W10797  20.389  35.251  14.590
45637W        W10798  40.192   0.886   2.212
45638W        W10799  31.405  26.316  10.741
45639W        W10800  18.576  25.927  13.377
45640W        W10801  34.628  24.956   0.621
45641W        W10802  24.527  30.126   0.717
45642W        W10803  17.837  27.783   2.905
45643W        W10804  40.284  39.582  12.532
45644W        W10805  22.465  10.202  13.838
45645W        W10806  29.987  44.194   4.742
45646W        W10807   9.638  44.403   3.158
45647W        W10808   2.532  28.288  13.481
45648W        W10809  23.181  42.102   4.092
45649W        W10810   7.147  16.777  12.152
45650W        W10811  21.594  44.334  11.583
45651W        W10812  24.468  19.052  13.504
45652W        W10813   4.388  16.269   0.378
45653W        W10814  28.176  24.729   0.859
45654W        W10815  19.333   0.813   2.429
45655W        W10816  10.108   5.774  11.579
45656W        W10817  32.682  19.040  11.625
45657W        W10818  44.554  12.548  13.801
45658W        W10819  36.396  30.512   4.289
45659W        W10820  19.302   9.878   4.126
45660W        W10821   8.883  35.658  11.160
45661W        W10822   8.784  20.932   9.997
45662W        W10823  38.444  34.618   2.327
45663W        W10824  42.717  24.107  10.616
45664W        W10825  31.132  18.162   4.590
45665W        W10826  21.153   1.388   2.087
45666W        W10827   8.285  43.734   3.578
45667W        W10828  17.297  26.202   3.302
45668W        W10829  36.756  10.382  11.925
45669W        W10830  25.760  18.280   4.111
45670W        W10831  35.986  43.998  14.640
45671W        W10832  30.423  21.752  13.845
45672W        W10833  29.099  33.702  12.167
45673W        W10834   6.932  35.078  14.766
45674W        W10835   4.661  31.843  13.289
45675W        W10836  17.255  42.777  12.213
45676W        W10837  31.163   6.202   5.015
45677W        W10838   3.227   0.008  14.436
45678W        W10839  37.941  38.955  14.781
45679W        W10840   6.851   8.410   2.531
45680W        W10841  17.121  20.429   2.841
45681W        W10842  14.472  44.494   0.202
45682W        W10843  14.449  38.800  14.421
45683W        W10844  10.453  15.653  14.856
45684W        W10845  23.982  29.450  13.849
45685W        W10846  35.579  21.191   4.404
45686W        W10847  30.246  39.045  12.930
45687W        W10848  32.755  26.266   3.042
45688W        W10849  42.976  38.184   2.769
45689W        W10850  39.260  29.510  14.652
45690W        W10851  12.141   9.957  11.202
45691W        W10852  23.342   1.324  13.857
45692W        W10853  14.784  41.908   1.280
45693W        W10854  25.177  37.548   5.051
45694W        W10855  12.721  42.557   2.269
45695W        W10856  37.584   9.999   2.724
45696W        W10857  40.478  23.444   4.124
45697W        W10858  37.217  38.117   4.224
45698W        W10859  23.204  26.250   0.531
45699W        W10860   4.157  27.679   0.878
45700W        W10861   4.481  21.270  11.194
45701W        W10862  25.061   4.392  10.342
45702W        W10863  40.423   5.268  11.272
45703W        W10864  38.382   5.275   0.028
45704W        W10865  10.829   2.227  13.892
45705W        W10866  37.527   2.632  13.125
45706W        W10867  34.922  21.809   1.056
45707W        W10868   6.753  42.487   3.096
45708W        W10869  20.510   2.636  11.124
45709W        W10870  36.137  33.069   4.565
45710W        W10871  22.602  17.353   0.533
45711W        W10872  31.568  25.536  13.086
45712W        W10873   3.166  23.045   1.290
45713W        W10874  27.059  37.797   4.065
45714W        W10875  25.562  20.252   1.807
45715W        W10876   2.982  28.739  12.764
45716W        W10877  21.090  36.951  11.614
45717W        W10878  38.434  24.507  14.868
45718W        W10879  21.264   4.338   1.886
45719W        W10880   7.591  21.788   2.094
45720W        W10881  41.989  41.736  12.993
45721W        W10882  41.328  39.940  12.058
45722W        W10883  30.204  27.763  10.897
45723W        W10884  17.578  27.851  12.120
45724W        W10885  14.119  38.850   0.401
45725W        W10886   3.271  37.067   2.629
45726W        W10887  27.617   4.593   0.812
45727W        W10888   8.327  43.796  14.865
45728W        W10889   0.901  13.200   2.085
45729W        W10890   2.431  38.106  14.798
45730W        W10891  16.089   7.759   2.732
45731W        W10892  29.823  24.171   0.395
45732W        W10893  30.799  35.964  10.984
45733W        W10894  44.775  43.574   0.909
45734W        W10895  20.103  24.428   1.220
45735W        W10896   6.260  16.771   1.441
45736W        W10897  43.996  38.156  10.749
45737W        W10898  40.995  42.866   4.372
45738W        W10899   6.222  33.924  14.006
45739W        W10900   2.387  10.887   4.030
45740W        W10901  34.474  17.546  12.194
45741W        W10902   3.947   4.447   4.514
45742W        W10903  43.528   6.367   3.737
45743W        W10904  38.367  20.093   4.843
45744W        W10905   4.237  43.631  10.991
45745W        W10906  31.319  15.814  10.599
45746W        W10907  35.609  10.278   5.194
45747W        W10908  21.035  25.643   3.686
45748W        W10909   7.576  17.054  11.889
45749W        W10910  21.692  19.876   3.605
45750W        W10911   2.280  15.356   0.263
45751W        W10912   6.300  23.947   4.165
45752W        W10913  28.553  35.513  10.776
45753W        W10914   8.326  24.929  12.048
45754W        W10915  37.202   6.380  12.857
45755W        W10916  23.934   6.467   1.070
45756W        W10917   2.439  37.396  13.187
45757W        W10918  22.944  15.400  11.183
45758W        W10919   5.294   0.213   3.162
45759W        W10920  26.208  35.747   2.307
45760W        W10921  32.792  12.327   2.168
45761W        W10922  21.376   2.545   3.182
45762W        W10923  35.454  22.240   3.504
45763W        W10924  42.876  32.688   0.954
45764W        W10925  27.204  30.472  12.406
45765W        W10926  42.007   0.658   3.357
45766W        W10927   5.717   2.530  11.996
45767W        W10928  10.337   9.685   4.562
45768W        W10929  35.752  28.683  13.507
45769W        W10930  27.186   3.344  12.934
45770W        W10931  14.177  43.311  10.815
45771W        W10932  40.629  34.391  11.338
45772W        W10933   7.717  19.515   2.284
45773W        W10934   2.268  11.176   4.450
45774W        W10935  12.795  31.283  10.903
45775W        W10936  31.094   6.185  14.300
45776W        W10937  23.274  23.044   1.836
45777W        W10938  38.737   1.765  10.080
45778W        W10939   6.102  17.930   0.386
45779W        W10940  26.376  27.522  12.795
45780W        W10941  33.852  32.535   4.632
45781W        W10942   6.739  37.069  14.000
45782W        W10943  42.425  34.071   2.273
45783W        W10944  22.920  12.587  13.082
45784W        W10945   1.561  25.990  11.675
45785W        W10946  14.742  26.902  12.585
45786W        W10947  37.690  33.595   4.964
45787W        W10948   5.838   5.105  13.217
45788W        W10949  44.857  39.745   3.169
45789W        W10950  30.618  44.701   4.133
45790W        W10951  13.346   1.681   1.589
45791W        W10952  17.315  16.548   1.259
45792W        W10953  26.713  21.769   2.820
45793W        W10954  28.896   8.299  12.536
45794W        W10955   4.684  40.028   0.454
45795W        W10956  19.616  23.748   0.128
45796W        W10957  18.536  22.791   1.706
45797W        W10958  36.521   0.453  10.400
45798W        W10959  40.743   9.234   4.754
45799W        W10960  35.261  41.871   3.600
45800W        W10961  35.655   5.317   3.653
45801W        W10962  36.863  35.122  14.534
45802W        W10963  37.952  16.736   1.014
45803W        W10964  36.323  17.981  10.169
45804W        W10965  12.803  12.108  14.038
45805W        W10966  18.506   7.248   2.018
45806W        W10967   4.854  11.888   3.271
45807W        W10968  16.210  25.986  11.940
45808W        W10969  30.455   7.393   0.688
45809W        W10970  40.571  18.140   4.478
45810W        W10971   0.496  42.313  12.591
45811W        W10972  18.106  22.764   1.223
45812W        W10973  27.495  15.342   4.145
45813W        W10974  14.105  19.648  14.272
45814W        W10975  34.992  40.736   4.276
45815W        W10976   5.114  12.221   5.418
45816W        W10977  39.649   8.938  11.555
45817W        W10978  20.245  11.789   3.597
45818W        W10979  29.483   7.785  12.112
45819W        W10980  24.291  44.211   4.744
45820W        W10981  24.479  20.923   4.531
45821W        W10982  20.628  26.114  14.278
45822W        W10983   8.083  26.053  12.848
45823W        W10984   2.752   6.891  12.893
45824W        W10985  33.948   6.499   3.251
45825W        W10986   7.418  41.839   3.970
45826W        W10987  39.008  28.021   4.045
45827W        W10988  15.302  44.405   1.216
45828W        W10989  10.370  14.932   4.800
45829W        W10990  42.027  27.117   0.101
45830W        W10991  44.300   9.828  13.124
45831W        W10992  15.904   0.980   4.673
45832W        W10993  42.374  18.567  11.215
45833W        W10994  23.732   5.291   4.946
45834W        W10995  28.550  30.991  11.741
45835W        W10996  25.464   5.875  11.668
45836W        W10997  40.557  22.119  12.500
45837W        W10998  31.307  16.231  13.167
45838W        W10999  24.266  42.069   4.157
45839W        W11000   8.981  39.136  14.675
45840W        W11001   2.347   0.433   3.750
45841W        W11002  24.844  30.170   1.758
45842W        W11003   0.039   0.093  11.860
45843W        W11004  35.913  22.076   0.136
45844W        W11005  19.927  37.318  14.280
45845W        W11006   7.352  23.735  11.645
45846W        W11007  19.008  16.141   0.252
45847W        W11008  15.927  25.137  11.033
45848W        W11009  17.774  34.385  13.872
45849W        W11010  37.428  17.168   2.433
45850W        W11011  23.094   7.676  12.484
45851W        W11012  10.476  24.707   3.252
45852W        W11013  25.929  43.487  10.228
45853W        W11014  28.333  44.330  12.683
45854W        W11015  36.303  19.845   3.146
45855W        W11016  14.388  10.853  12.816
45856W        W11017  31.948  10.648   0.821
45857W        W11018  36.428   2.677   2.327
45858W        W11019   1.296  32.106   0.332
45859W        W11020   8.897   1.023  12.952
45860W        W11021   5.595  42.710   4.732
45861W        W11022  36.853   3.908   0.824
45862W        W11023  43.842   6.900  11.432
45863W        W11024   3.483  33.465  10.615
45864W        W11025  11.564  44.320   4.578
45865W        W11026  41.412  28.173   2.128
45866W        W11027  13.606  17.656   3.163
45867W        W11028  13.171  25.946  13.956
45868W        W11029  13.299  10.998  13.358
45869W        W11030   1.478  28.676   3.827
45870W        W11031  24.708   1.385  11.698
45871W        W11032   7.690   9.020  13.151
45872W        W11033  44.476  40.178  11.764
45873W        W11034  24.939  11.838   2.810
45874W        W11035  13.704   0.878   4.808
45875W        W11036  19.556  21.594  10.963
45876W        W11037   9.158  35.228  12.486
45877W        W11038   7.214  14.599   3.891
45878W        W11039  17.328  17.304  11.492
45879W        W11040  32.499  13.535  11.708
45880W        W11041   2.891  17.352  12.186
45881W        W11042  21.937  20.005  10.108
45882W        W11043   4.704   6.767   0.797
45883W        W11044  42.259  44.699   4.159
45884W        W11045  26.358  14.255   1.408
45885W        W11046  42.816  37.340  14.893
45886W        W11047  40.036   7.324  12.101
45887W        W11048  17.092  26.150   0.402
45888W        W11049   1.908  11.261   3.279
45889W        W11050   8.649  12.090  11.247
45890W        W11051  22.573  22.125  12.014
45891W        W11052  40.884  32.099   1.782
45892W        W11053  36.364  29.370  11.657
45893W        W11054  20.987  26.079   4.683
45894W        W11055  25.325   6.618  12.878
45895W        W11056   5.814  11.054   3.139
45896W        W11057  20.222   3.297   3.273
45897W        W11058  10.042  10.495  10.259
45898W        W11059   8.759  26.073   3.911
45899W        W11060  36.923  12.209  11.590
45900W        W11061  39.108  21.922  11.064
45901W        W11062  25.587  15.371   1.379
45902W        W11063   9.757  37.000   0.967
45903W        W11064   9.123  39.479   3.213
45904W        W11065  22.980   8.815   1.134
45905W        W11066  37.325   6.773   5.199
45906W        W11067  36.779  29.854   1.411
45907W        W11068  10.157   1.747   2.638
45908W        W11069  11.585  42.549  10.321
45909W        W11070  27.889   9.769  11.537
45910W        W11071   1.401  21.738   1.811
45911W        W11072   8.275  19.000   0.354
45912W        W11073  23.150  41.433  11.606
45913W        W11074   1.899  35.407  12.594
45914W        W11075  23.484   0.582  13.243
45915W        W11076  31.506  27.714   2.182
45916W        W11077  33.991   0.941   0.185
45917W        W11078   0.720  20.204   2.792
45918W        W11079  19.783  30.388  10.799
45919W        W11080  39.865  25.034   4.307
45920W        W11081  11.370  28.227  14.905
45921W        W11082  30.814  40.674  14.356
45922W        W11083  30.496  21.840  10.090
45923W        W11084   9.665  22.317   3.650
45924W        W11085  29.229  20.997  10.792
45925W        W11086  27.455  34.453   3.741
45926W        W11087  38.419  21.028   3.145
45927W        W11088  12.997  22.681  11.618
45928W        W11089  25.707  17.352   1.130
45929W        W11090  25.320  43.732  11.429
45930W        W11091  29.913   4.440   1.754
45931W        W11092  17.766   6.698   1.523
45932W        W11093  24.550  28.652   3.400
45933W        W11094  32.144   5.655  11.585
45934W        W11095  29.161  40.150  14.017
45935W        W11096  20.063  13.455   4.562
45936W        W11097  31.339  30.039  12.144
45937W        W11098  42.451  13.208   2.825
45938W        W11099   8.289  31.146  12.062
45939W        W11100  23.427  35.724   0.805
45940W        W11101  35.426  36.432   2.328
45941W        W11102  10.164  22.188   3.716
45942W        W11103  27.086  38.526   0.829
45943W        W11104  44.823  31.094  13.035
45944W        W11105   1.908  24.027   0.839
45945W        W11106   1.003  19.081  10.699
45946W        W11107  11.192  32.023  14.290
45947W        W11108   9.960  18.057   3.189
45948W        W11109   4.994   8.766   0.741
45949W        W11110  15.444  41.408   4.923
45950W        W11111  30.056  28.489  11.424
45951W        W11112   4.911  29.867   4.617
45952W        W11113   6.521   8.705   1.306
45953W        W11114  34.601  43.423  10.722
45954W        W11115  22.026  20.846   4.477
45955W        W11116  19.191  29.356   4.042
45956W        W11117  19.155  13.210   0.944
45957W        W11118  44.117   1.401   2.898
45958W        W11119  38.340  30.205   3.497
45959W        W11120  10.697   4.284   0.892
45960W        W11121   0.082  14.200  13.138
45961W        W11122  43.285   2.683  12.894
45962W        W11123  40.940   1.780  12.332
45963W        W11124  35.593  42.404   0.355
45964W        W11125  40.888  10.513  11.962
45965W        W11126  44.647  26.706  13.987
45966W        W11127   4.271   8.588  11.994
45967W        W11128  23.425  35.101  10.700
45968W        W11129  35.850  11.866  12.357
45969W        W11130  25.983   3.463  13.442
45970W        W11131  10.836  36.591  11.125
45971W        W11132   8.586  44.849  13.443
45972W        W11133  23.601  26.173  14.757
45973W        W11134  37.317  14.115  13.338
45974W        W11135  34.264  17.741  14.352
45975W        W11136  39.593   1.828  13.532
45976W        W11137  28.218  33.166  10.793
45977W        W11138  41.931  10.074  12.568
45978W        W11139   8.149   9.951  12.538
45979W        W11140  28.881  17.707  12.524
45980W        W11141  44.399  10.596  10.184
45981W        W11142  10.862  40.602  13.491
45982W        W11143  16.179  24.958  13.897
45983W        W11144  18.105   3.222  10.843
45984W        W11145  38.099   4.753   3.301
45985W        W11146  31.598   2.755   3.827
45986W        W11147  42.294  25.417   0.183
45987W        W11148  13.788  26.409  14.320
45988W        W11149  35.473  25.985  10.589
45989W        W11150  39.677  35.623  14.393
45990W        W11151  30.212   1.770   0.718
45991W        W11152  34.150  35.433  12.298
45992W        W11153  10.268  24.230  11.987
45993W        W11154  30.728  34.010   3.960
45994W        W11155  12.884  19.101   4.152
45995W        W11156  25.451  28.835   3.608
45996W        W11157   9.228  24.515  13.257
45997W        W11158  16.694  12.172   4.442
45998W        W11159   1.226  16.410   0.781
45999W        W11160  25.027  32.203   4.479
46000W        W11161  40.836  30.119  11.036
46001W        W11162  15.833   3.904   3.642
46002W        W11163  40.077  24.795   0.285
46003W        W11164  17.096  24.461   3.022
46004W        W11165  19.140   6.594   0.403
46005W        W11166  28.448  18.150   4.092
46006W        W11167  26.076  35.911   1.367
46007W        W11168  44.723   0.954   5.064
46008W        W11169   0.729  35.288   5.058
46009W        W11170  41.078  42.058   2.792
46010W        W11171  40.057  38.824   4.845
46011W        W11172  25.019  28.527   3.610
46012W        W11173   2.326  18.026   4.378
46013W        W11174   8.031  16.922   1.914
46014W        W11175  29.759  44.115  13.964
46015W        W11176  26.916  13.124   3.624
46016W        W11177  21.228  25.327   1.411
46017W        W11178  41.965   3.335  14.873
46018W        W11179  31.551  28.670   4.381
46019W        W11180  36.880  21.005   2.898
46020W        W11181   8.716   7.391  13.450
46021W        W11182  14.170  12.277  12.928
46022W        W11183  22.601  26.531   4.463
46023W        W11184  22.149  37.056   4.547
46024W        W11185   6.578  43.400  14.096
46025W        W11186  14.657  19.710   0.847
46026W        W11187  19.294  25.041   1.313
46027W        W11188  37.581  15.350  11.631
46028W        W11189   1.189  12.432   3.166
46029W        W11190  44.984   1.647   1.078
46030W        W11191  43.875  27.440  11.195
46031W        W11192  35.461   8.862  10.861
46032W        W11193  24.637  41.967   4.579
46033W        W11194  16.696  38.542   1.141
46034W        W11195  44.480   3.392  11.103
46035W        W11196  34.828  15.849   3.648
46036W        W11197  41.944  22.891  12.884
46037W        W11198  42.221   6.801  10.788
46038W        W11199  14.919  39.920  12.712
46039W        W11200  19.266  34.101   3.329
46040W        W11201  37.922  10.675   3.102
46041W        W11202  25.270  38.345   3.828
46042W        W11203  12.701  34.239  14.818
46043W        W11204  11.110  34.253   2.188
46044W        W11205  39.145  32.838  13.366
46045W        W11206   2.927   8.473   4.618
46046W        W11207  33.557  23.938   1.792
46047W        W11208   1.758   9.910  11.123
46048W        W11209  26.231  17.836   0.456
46049W        W11210   8.249  10.727  10.869
46050W        W11211   9.518   3.313  13.044
46051W        W11212  39.533  36.409  11.232
46052W        W11213  38.346  27.024   0.659
46053W        W11214  26.093   6.935  13.200
46054W        W11215  39.957  28.628  12.514
46055W        W11216  25.579  41.495   3.187
46056W        W11217  40.847  29.895   1.244
46057W        W11218  15.939  13.350  13.483
46058W        W11219  10.687  32.735  11.046
46059W        W11220   4.647  27.626  13.713
46060W        W11221  41.564   9.802   2.870
46061W        W11222  20.301  24.687  10.956
46062W        W11223  22.150   2.431   0.820
46063W        W11224  22.407  13.946   1.388
46064W        W11225  30.308  25.964  14.756
46065W        W11226  26.275  20.289  13.934
46066W        W11227  43.448  12.671  14.482
46067W        W11228  14.172  28.620  14.376
46068W        W11229  33.587  41.534  14.518
46069W        W11230  32.272  34.805   0.322
46070W        W11231  25.783  17.351  10.931
46071W        W11232   3.709  23.067   3.092
46072W        W11233  10.716  10.111  12.170
46073W        W11234  16.678   9.695  11.222
46074W        W11235   3.146  28.762  13.252
46075W        W11236  42.052  27.207   0.624
46076W        W11237  21.161   9.591   1.643
46077W        W11238   5.570  28.541  11.056
46078W        W11239  10.371  22.050   2.883
46079W        W11240   6.230  39.640   0.790
46080W        W11241   1.364  36.580  12.667
46081W        W11242  23.622  44.967   3.588
46082W        W11243  16.085  38.252   1.786
46083W        W11244   5.156  43.216   0.513
46084W        W11245   1.728  14.673  14.458
46085W        W11246  40.387   4.422   4.695
46086W        W11247  22.574  35.894   1.781
46087W        W11248  41.587  19.256  10.810
46088W        W11249  19.896  29.465   2.455
46089W        W11250   8.182  10.017   3.363
46090W        W11251  16.256  21.581   0.411
46091W        W11252  40.266  19.561   4.205
46092W        W11253  17.724  29.149   1.839
46093W        W11254  10.672  10.422  14.540
46094W        W11255   5.881  38.595  10.753
46095W        W11256   2.400  38.043  10.970
46096W        W11257  10.738  31.094  14.537
46097W        W11258   5.433  36.852  12.221
46098W        W11259  28.591   9.822   2.076
46099W        W11260   5.933   6.124  12.487
46100W        W11261  10.285  31.712   0.476
46101W        W11262   8.886  40.250  13.164
46102W        W11263  15.311   5.921   1.741
46103W        W11264   9.491  25.037  14.451
46104W        W11265  20.274  16.585   0.445
46105W        W11266   5.160   7.519  10.672
46106W        W11267  11.036   0.950   1.257
46107W        W11268  39.225  40.770  11.076
46108W        W11269  43.010  22.459   9.942
46109W        W11270  27.479  39.510  10.390
46110W        W11271  31.655  39.794   0.669
46111W        W11272  21.788  20.721  11.506
46112W        W11273  18.230  12.793  13.519
46113W        W11274   2.877  21.951   3.804
46114W        W11275  16.272  41.850  10.711
46115W        W11276  29.067  40.988  12.199
46116W        W11277   8.632  37.509  12.449
46117W        W11278  21.490  13.100   1.239
46118W        W11279  37.938  28.647  12.489
46119W        W11280  12.283  23.443   4.131
46120W        W11281  41.187   5.442  13.796
46121W        W11282  30.633  39.434   1.428
46122W        W11283  38.603   9.611   4.202
46123W        W11284   8.245  27.705  11.582
46124W        W11285  23.421  11.369   1.204
46125W        W11286  20.256  40.624   0.715
46126W        W11287  41.311  19.515  12.105
46127W        W11288  14.286  41.041  13.495
46128W        W11289  13.171  28.434  12.914
46129W        W11290   2.372   8.490   0.888
46130W        W11291   9.797  24.188   4.116
46131W        W11292  34.882  41.166  13.405
46132W        W11293  44.291  41.985   3.700
46133W        W11294  16.256   8.312  14.372
46134W        W11295  28.430  42.073  12.695
46135W        W11296  21.930  43.411  12.826
46136W        W11297  16.510  21.544   3.276
46137W        W11298   8.969   7.268  12.554
46138W        W11299  34.920   9.148  11.508
46139W        W11300  19.598  24.481  12.032
46140W        W11301  41.064   8.328   0.555
46141W        W11302  28.647  14.225   0.970
46142W        W11303  25.666   4.788  13.881
46143W        W11304  22.641   8.915   1.992
46144W        W11305  24.932  23.119   2.760
46145W        W11306  23.213  38.431   2.858
46146W        W11307  38.010  36.398  11.592
46147W        W11308   4.273  16.113  14.055
46148W        W11309   4.628  35.688   3.720
46149W        W11310  27.173  43.080  12.154
46150W        W11311  12.130   5.731  10.661
46151W        W11312  21.035  24.001   2.649
46152W        W11313  18.482   7.420  12.846
46153W        W11314  27.327  16.772   4.065
46154W        W11315  42.323  27.245   1.880
46155W        W11316  35.955  31.155  13.817
46156W        W11317  41.309  33.846   1.809
46157W        W11318  39.461  32.112   1.341
46158W        W11319  19.234  37.801  11.048
46159W        W11320  23.684  41.510  11.651
46160W        W11321  18.662  25.894  12.048
46161W        W11322   3.376   4.875   0.763
46162W        W11323  38.893   5.960   3.111
46163W        W11324  34.671   9.150   3.164
46164W        W11325   0.244  17.154  13.930
46165W        W11326   8.704   1.307   1.692
46166W        W11327  30.852  11.949   3.292
46167W        W11328  17.605  28.126  10.845
46168W        W11329  12.584  34.412   1.805
46169W        W11330  33.653  34.102  10.227
46170W        W11331  27.936  11.219  14.210
46171W        W11332  33.373  36.875  10.178
46172W        W11333  13.742  40.565   3.502
46173W        W11334  43.387  13.692  12.957
46174W        W11335  41.474  34.150   3.158
46175W        W11336   4.335  18.240   4.588
46176W        W11337   3.360  40.908  14.812
46177W        W11338   4.061  15.717  14.402
46178W        W11339  31.416  42.401  13.337
46179W        W11340   6.838  15.250   1.652
46180W        W11341  14.837   8.781   2.960
46181W        W11342  21.444  43.880  13.997
46182W        W11343  41.391  42.364   0.671
46183W        W11344  13.791   7.428   0.707
46184W        W11345  39.886   8.227  10.681
46185W        W11346  38.331  22.680   3.403
46186W        W11347  34.302  14.421   3.743
46187W        W11348  25.080  11.200   0.019
46188W        W11349  23.275  22.953   4.114
46189W        W11350  42.981  27.271  11.194
46190W        W11351  27.680  38.173  14.130
46191W        W11352  18.611  11.801   5.266
46192W        W11353  29.757   2.614   0.884
46193W        W11354  35.584  42.757   3.140
46194W        W11355   2.255   9.931  12.163
46195W        W11356  13.157  14.631   3.566
46196W        W11357   3.510  22.782   0.458
46197W        W11358  36.566  12.813   1.159
46198W        W11359  28.520  24.624   1.264
46199W        W11360  26.789  16.041  10.708
46200W        W11361  27.429   3.433  13.383
46201W        W11362  34.083  38.849  13.369
46202W        W11363  13.890   0.210  11.749
46203W        W11364  41.079  39.914  11.571
46204W        W11365  14.848  22.684   4.260
46205W        W11366  43.497  38.118  13.271
46206W        W11367  11.115  28.108   1.148
46207W        W11368  34.586  31.514  11.641
46208W        W11369  10.936  19.283  10.839
46209W        W11370  10.258   2.412  12.599
46210W        W11371   9.806  15.773  12.084
46211W        W11372  15.825  22.437   4.556
46212W        W11373   6.592  24.131   3.325
46213W        W11374  42.332   3.422   2.777
46214W        W11375  31.333  42.467   3.250
46215W        W11376  42.907  11.508  13.257
46216W        W11377   9.393   7.389   2.169
46217W        W11378  10.578  13.378   1.377
46218W        W11379  32.615  12.712   0.785
46219W        W11380  30.048   3.500   4.430
46220W        W11381  25.447  22.063  14.804
46221W        W11382  30.018  11.255  11.123
46222W        W11383  21.647   6.182  12.150
46223W        W11384  22.483  10.304   3.575
46224W        W11385  21.994  25.919   3.060
46225W        W11386  26.895  25.295  14.515
46226W        W11387  40.843   0.778   2.805
46227W        W11388   0.075   1.466   3.831
46228W        W11389  27.973   8.921  11.493
46229W        W11390   2.232  27.964   4.061
46230W        W11391  18.306   4.506  10.630
46231W        W11392  15.794  14.228   4.115
46232W        W11393  37.120  14.132   0.209
46233W        W11394  20.302  19.793   2.782
46234W        W11395   4.309  15.189   0.605
46235W        W11396   6.692  25.079   4.923
46236W        W11397   0.339   0.798   0.616
46237W        W11398  26.918   6.955   2.906
46238W        W11399  30.748  15.902   3.732
46239W        W11400  35.049   2.885  10.385
46240W        W11401  43.031  42.213   4.160
46241W        W11402  30.974  30.740  12.203
46242W        W11403  41.126  35.045  13.811
46243W        W11404  38.116   2.913   3.660
46244W        W11405  35.996  19.581   3.975
46245W        W11406  10.325   4.950   3.252
46246W        W11407  22.402  36.716   2.335
46247W        W11408  34.428  33.240   3.150
46248W        W11409   5.697  19.279   3.239
46249W        W11410  39.894  21.101  12.922
46250W        W11411  38.366  28.501  10.524
46251W        W11412  34.061  27.989   0.259
46252W        W11413  41.865  38.865  12.340
46253W        W11414   4.775   2.885  10.405
46254W        W11415   0.333  44.683  10.735
46255W        W11416  10.751  13.031   4.277
46256W        W11417  22.532  31.148  13.498
46257W        W11418  37.388   0.392   1.361
46258W        W11419  20.789  21.197   2.734
46259W        W11420  19.198  20.201  12.901
46260W        W11421  36.074  32.867  12.020
46261W        W11422  19.344   7.140   4.041
46262W        W11423  27.065   3.679  11.183
46263W        W11424  33.923  43.955   1.587
46264W        W11425   1.559  31.031  11.145
46265W        W11426  29.476  18.952   2.201
46266W        W11427  18.596  19.732   3.685
46267W        W11428  39.758   7.684  11.472
46268W        W11429  12.256  40.722   2.221
46269W        W11430  23.045  37.911  14.933
46270W        W11431  29.062  19.720   3.332
46271W        W11432  22.653  12.870  14.348
46272W        W11433   7.670  43.295   0.242
46273W        W11434  37.867  44.394   3.357
46274W        W11435  38.311  26.238  11.159
46275W        W11436  38.997  39.446  11.850
46276W        W11437  11.135  19.733   4.741
46277W        W11438  29.854   8.716  13.389
46278W        W11439  20.945  13.786   0.247
46279W        W11440  10.327  21.330  13.907
46280W        W11441   7.768  11.131  11.990
46281W        W11442  11.414   2.910   3.377
46282W        W11443  38.827  15.173  14.709
46283W        W11444  29.029  28.049   3.529
46284W        W11445   9.384  28.605  11.122
46285W        W11446  44.991  36.593   3.152
46286W        W11447   9.239  35.596   3.286
46287W        W11448  22.001  31.175  14.144
46288W        W11449  33.065  23.854   3.304
46289W        W11450  16.064  37.576   0.334
46290W        W11451  14.138  16.307   3.787
46291W        W11452  28.729  40.826  13.444
46292W        W11453   1.118  32.513   1.250
46293W        W11454   4.257   2.235   2.782
46294W        W11455   0.869  34.936   0.481
46295W        W11456   7.854   1.092   1.779
46296W        W11457  14.640  26.626  10.235
46297W        W11458  27.512  11.583  13.048
46298W        W11459  24.456   2.282   3.593
46299W        W11460  37.923  42.608  11.535
46300W        W11461  26.222   0.904   0.972
46301W        W11462  16.177  38.773   1.829
46302W        W11463  18.062  28.061  11.085
46303W        W11464  25.497   5.752  14.381
46304W        W11465  25.026  24.682   2.426
46305W        W11466  35.069  41.445  13.946
46306W        W11467  39.455  42.450   1.436
46307W        W11468  25.240  36.958  13.660
46308W        W11469  41.857  34.834  11.596
46309W        W11470   5.682  30.175   1.878
46310W        W11471  13.396  13.254  13.409
46311W        W11472   9.335   9.812   4.661
46312W        W11473  25.696   1.948  11.489
46313W        W11474   7.342  41.907   2.955
46314W        W11475   3.207  39.458   2.675
46315W        W11476  43.857   4.440   2.267
46316W        W11477  35.653  29.438   2.590
46317W        W11478   1.129  44.982  12.616
46318W        W11479  26.554  44.342   3.192
46319W        W11480   4.523  10.463  12.446
46320W        W11481  28.935  18.081  10.927
46321W        W11482  39.947  18.767  11.937
46322W        W11483  41.939  19.026  10.505
46323W        W11484  44.355   7.446   2.740
46324W        W11485  11.908   3.767  11.563
46325W        W11486   1.867  12.048   3.630
46326W        W11487  18.555  20.788   1.968
46327W        W11488  14.795  27.591   0.428
46328W        W11489  11.129   4.262  11.417
46329W        W11490  26.417  13.227   4.560
46330W        W11491  36.553  28.430  12.399
46331W        W11492  24.754  14.138  14.329
46332W        W11493   7.964   9.932  14.757
46333W        W11494  30.684  20.951  11.583
46334W        W11495  40.093  10.199   1.440
46335W        W11496   0.220  24.258  14.924
46336W        W11497  31.825   6.755  10.630
46337W        W11498   4.428   1.809   1.475
46338W        W11499   5.392  39.318  12.565
46339W        W11500   8.938  41.187   0.760
46340W        W11501  23.757  12.371   0.346
46341W        W11502   3.389   4.363   0.737
46342W        W11503  30.049   8.756  11.282
46343W        W11504  38.030  12.290   4.448
46344W        W11505  24.662   7.374   2.313
46345W        W11506  22.788   6.396   3.285
46346W        W11507   2.195  13.805   1.601
46347W        W11508  21.150  37.008  10.835
46348W        W11509  18.211  38.677   4.555
46349W        W11510  10.347  44.101  14.241
46350W        W11511  32.623  32.312  11.516
46351W        W11512  13.028  21.196  10.376
46352W        W11513  19.828  43.261  14.067
46353W        W11514  27.068  41.574  13.355
46354W        W11515  41.118  42.989   0.021
46355W        W11516  30.501  33.539   3.929
46356W        W11517   3.911   6.131   3.999
46357W        W11518   3.403  42.492  14.017
46358W        W11519  44.847   6.441  14.184
46359W        W11520  19.139  12.304  11.116
46360W        W11521  11.815  31.381  14.361
46361W        W11522  29.422   1.924   3.674
46362W        W11523  12.473  34.435  12.242
46363W        W11524  37.849   4.148  11.030
46364W        W11525   5.045  13.412  13.946
46365W        W11526  31.059   4.101  12.564
46366W        W11527   9.337  35.003   4.031
46367W        W11528   6.074  14.857  13.871
46368W        W11529  37.416  32.909   1.433
46369W        W11530  20.143  43.526  13.371
46370W        W11531  25.652  39.159  10.749
46371W        W11532  39.154   0.571   1.260
46372W        W11533  44.690  25.512  14.546
46373W        W11534   5.060  41.837   2.882
46374W        W11535  33.927  20.124   1.857
46375W        W11536  34.925  20.656  13.515
46376W        W11537  24.846   3.427  11.205
46377W        W11538  35.422  38.417  12.249
46378W        W11539  26.541  10.828   2.872
46379W        W11540  18.183  21.787  10.711
46380W        W11541  35.099  30.997  14.166
46381W        W11542  23.647  17.641   1.678
46382W        W11543  41.332  15.338   1.458
46383W        W11544  42.806   6.726   1.863
46384W        W11545   6.848  18.763  11.719
46385W        W11546  15.154  29.471   2.430
46386W        W11547   0.723  33.592   3.128
46387W        W11548   0.559  12.920   1.306
46388W        W11549  22.347  23.214  11.988
46389W        W11550  23.108  37.379   1.580
46390W        W11551  27.575  17.469   0.118
46391W        W11552   8.421  35.534   1.440
46392W        W11553  38.908  41.735   2.408
46393W        W11554  21.117  38.062  12.419
46394W        W11555  21.243  10.742   3.364
46395W        W11556  29.708  13.145   4.204
46396W        W11557  33.757  20.994  13.547
46397W        W11558  20.173  22.457   3.724
46398W        W11559   6.029  16.301  14.933
46399W        W11560  44.294  37.832  13.054
46400W        W11561  19.347  37.870   4.176
46401W        W11562  18.829  11.043  12.043
46402W        W11563   6.689  19.976   0.053
46403W        W11564  27.573  32.861  14.557
46404W        W11565  36.952  39.738   4.525
46405W        W11566   0.262  25.928  11.428
46406W        W11567  20.627   1.240  13.945
46407W        W11568  31.121   6.313  12.916
46408W        W11569   0.426  24.629   3.239
46409W        W11570  37.577  33.397   1.209
46410W        W11571   2.939  22.703  14.220
46411W        W11572  42.094  33.397  12.465
46412W        W11573  25.219  26.065   2.291
46413W        W11574  37.488  16.111   3.218
46414W        W11575  42.922   0.270   2.916
46415W        W11576  36.470  26.444  12.167
46416W        W11577  40.042  32.603   0.225
46417W        W11578  19.653  41.545  11.838
46418W        W11579   7.696   2.007   4.184
46419W        W11580  43.524  22.221   0.539
46420W        W11581  11.347   7.646   3.815
46421W        W11582  21.798   1.940   1.464
46422W        W11583  41.289  29.287  13.334
46423W        W11584  40.830  39.987   3.297
46424W        W11585  25.274  13.226   1.690
46425W        W11586   2.270   2.247  11.435
46426W        W11587  31.010  34.580   3.399
46427W        W11588   8.651   8.775  11.593
46428W        W11589  25.600   5.898   3.429
46429W        W11590   6.302  20.734  10.676
46430W        W11591  42.505  21.031   1.403
46431W        W11592  26.495  41.997  14.984
46432W        W11593   3.320  39.496   3.501
46433W        W11594  26.980  24.483  11.509
46434W        W11595  40.875  30.825  14.953
46435W        W11596   6.428  21.980   0.413
46436W        W11597  25.902  14.626  14.773
46437W        W11598  21.140  16.288  13.507
46438W        W11599  17.385  21.558  14.072
46439W        W11600  24.396  15.570   2.999
46440W        W11601  41.394   2.449   4.566
46441W        W11602   9.880   6.635  13.551
46442W        W11603   3.882  11.023   3.273
46443W        W11604  24.531   0.877   4.944
46444W        W11605   7.786  30.558   0.057
46445W        W11606  22.823  38.297  11.125
46446W        W11607  42.906  43.190  14.839
46447W        W11608  14.671  25.645   2.167
46448W        W11609  34.987  20.798  12.099
46449W        W11610  11.316  12.424   2.818
46450W        W11611  41.125  14.252  12.986
46451W        W11612  23.453  34.816   1.452
46452W        W11613  40.911  42.360   0.942
46453W        W11614  13.777  17.270  12.489
46454W        W11615  40.097  26.082  11.362
46455W        W11616  37.985   7.467  12.868
46456W        W11617   4.486  15.043  11.621
46457W        W11618  27.490  11.338  13.515
46458W        W11619  33.152  31.869   3.401
46459W        W11620   6.193  24.773  12.444
46460W        W11621  21.236  19.801  11.975
46461W        W11622   2.119  27.415   0.945
46462W        W11623   9.786  25.743  13.080
46463W        W11624  40.779  36.417  12.045
46464W        W11625  38.525  13.720   1.702
46465W        W11626   3.775  13.031   3.716
46466W        W11627  32.147  13.227   3.521
46467W        W11628  35.567  26.992   2.404
46468W        W11629   3.842   4.525  13.047
46469W        W11630  38.426  32.073   3.924
46470W        W11631  38.481  28.670   0.844
46471W        W11632  44.704  34.956  11.015
46472W        W11633  24.493  25.555  14.903
46473W        W11634  44.941   5.939  10.510
46474W        W11635  28.778  10.968  12.106
46475W        W11636  33.296  32.131  12.561
46476W        W11637  22.419  35.072  10.481
46477W        W11638   4.907  18.949   3.287
46478W        W11639  26.471  39.742  12.456
46479W        W11640  26.154  20.760  11.078
46480W        W11641  16.110  10.545   4.184
46481W        W11642  25.696  21.018  12.211
46482W        W11643  22.648  28.458  14.533
46483W        W11644   6.671   9.236  12.866
46484W        W11645  11.620  25.532  13.045
46485W        W11646  17.536  36.756   0.350
46486W        W11647  38.040  22.503  14.403
46487W        W11648  17.307   0.032   4.947
46488W        W11649  38.620   0.048  13.489
46489W        W11650  18.583  27.989   2.585
46490W        W11651  14.847  37.785  13.557
46491W        W11652  41.784  35.422   1.198
46492W        W11653  25.766  36.510   5.513
46493W        W11654   4.544   5.155  13.536
46494W        W11655  24.043  44.279   4.100
46495W        W11656   2.062  18.562   2.694
46496W        W11657  12.805   3.840  12.614
46497W        W11658  19.847  32.390   2.691
46498W        W11659   0.694  34.996  13.583
46499W        W11660  27.500  31.663   5.035
46500W        W11661  15.733  31.132   4.575
46501W        W11662  44.791   2.533   2.237
46502W        W11663   1.663  18.303  10.475
46503W        W11664   9.971  28.543   2.736
46504W        W11665  25.541  15.299  13.658
46505W        W11666  33.103  31.361  10.733
46506W        W11667  26.122  26.508  10.891
46507W        W11668  17.325  37.510  14.857
46508W        W11669   0.432   0.338  14.743
46509W        W11670  18.037  20.669   4.886
46510W        W11671  34.532  21.766   3.764
46511W        W11672  19.588  21.106   0.221
46512W        W11673  23.734   0.970   3.372
46513W        W11674  32.622  29.584   3.806
46514W        W11675  41.454  38.769  14.429
46515W        W11676  28.657  38.118  12.611
46516W        W11677  14.858  29.995  13.238
46517W        W11678   7.449  10.668   1.809
46518W        W11679  20.599  43.771  14.491
46519W        W11680  26.129  36.858   3.748
46520W        W11681  42.025  21.796   2.857
46521W        W11682  28.947  39.476  14.573
46522W        W11683  25.494  25.783   3.380
46523W        W11684  14.894  37.636   5.084
46524W        W11685  12.040  14.182   5.206
46525W        W11686  32.489  37.766   2.855
46526W        W11687  44.435  41.674   0.990
46527W        W11688   8.951  18.029  14.473
46528W        W11689  28.466  40.402   0.914
46529W        W11690  11.169  34.524  10.654
46530W        W11691   9.366  19.703  11.400
46531W        W11692  19.523  27.520   4.406
46532W        W11693  13.751  43.346  12.789
46533W        W11694  18.100   5.904   2.823
46534W        W11695   1.970  42.239  13.901
46535W        W11696  22.971   7.626   4.785
46536W        W11697  14.373   6.352   0.854
46537W        W11698  19.165  42.342   1.288
46538W        W11699  43.230  26.069   4.361
46539W        W11700   9.114  20.143   1.310
46540W        W11701   7.097  16.584  13.491
46541W        W11702   6.640   2.741  13.173
46542W        W11703  14.113  38.841   3.851
46543W        W11704  43.037  42.960  11.681
46544W        W11705   9.070  22.685   3.737
46545W        W11706   2.868   9.189   0.998
46546W        W11707  37.067  10.276   2.740
46547W        W11708  33.820  34.993  10.675
46548W        W11709  10.682  10.261  14.006
46549W        W11710  23.813  22.520   3.240
46550W        W11711   5.363   7.361   1.978
46551W        W11712  43.295   6.162   1.843
46552W        W11713  43.331  32.665  11.346
46553W        W11714  24.951  39.943  11.527
46554W        W11715  20.028   5.706   2.493
46555W        W11716  38.981  12.169   2.394
46556W        W11717   2.299  21.616   2.703
46557W        W11718  14.094  31.032  11.158
46558W        W11719  25.894  29.476  14.323
46559W        W11720  10.172  15.337   1.331
46560W        W11721   3.467   7.675   4.252
46561W        W11722  12.646  36.390   3.486
46562W        W11723  13.637  34.377  14.151
46563W        W11724  44.444  11.714  12.424
46564W        W11725   6.157  42.409   4.150
46565W        W11726  38.116  15.852  14.850
46566W        W11727  22.356  15.704  12.897
46567W        W11728  21.298  21.005  10.727
46568W        W11729  15.459  43.773   9.868
46569W        W11730   7.860  15.378   0.766
46570W        W11731  36.402  31.875   3.286
46571W        W11732  44.805  38.671   0.377
46572W        W11733  20.909  40.886  11.358
46573W        W11734  18.094  12.353  14.461
46574W        W11735  17.156  41.065   4.009
46575W        W11736  28.699  25.510  14.216
46576W        W11737  16.821  37.419  14.848
46577W        W11738   3.269  43.450   4.563
46578W        W11739  16.071  28.405  10.608
46579W        W11740   3.259  11.214  14.512
46580W        W11741  21.839  31.828   4.719
46581W        W11742   5.258  44.295  12.978
46582W        W11743  18.078  25.601   4.788
46583W        W11744   0.497  31.336   4.182
46584W        W11745  37.347  27.505   1.303
46585W        W11746  18.317  12.357   0.331
46586W        W11747  12.702  34.499   0.701
46587W        W11748  17.312  30.135  10.773
46588W        W11749   5.691   7.675  14.790
46589W        W11750   1.217  22.520   1.540
46590W        W11751   1.852  23.102   4.805
46591W        W11752  42.453  24.032  13.304
46592W        W11753  38.530  21.657  13.604
46593W        W11754  38.527  17.791   2.687
46594W        W11755   6.983  13.543   3.322
46595W        W11756  41.985  22.115   1.668
46596W        W11757  31.194  14.601  14.332
46597W        W11758  14.661  37.367   3.299
46598W        W11759   1.189  39.984   3.297
46599W        W11760   8.784   6.107   2.379
46600W        W11761   2.401  16.060  14.409
46601W        W11762   2.783  30.433  11.107
46602W        W11763  43.189  17.466  14.685
46603W        W11764  44.524  40.616  13.504
46604W        W11765  35.106  40.787   0.044
46605W        W11766  26.050  20.433   1.826
46606W        W11767   3.934  20.284  13.027
46607W        W11768  41.525  35.866  10.848
46608W        W11769  20.007  10.745  13.914
46609W        W11770  20.143   8.821   1.458
46610W        W11771  43.387  24.216   2.750
46611W        W11772  11.269  14.843  12.136
46612W        W11773  40.729  33.658  12.952
46613W        W11774  13.820  27.385  12.556
46614W        W11775  27.271  18.238  14.413
46615W        W11776  38.076  15.971   4.163
46616W        W11777  11.845  41.293   0.246
46617W        W11778   9.225  18.153  11.514
46618W        W11779  27.595  17.578   4.683
46619W        W11780  16.390  18.219   1.127
46620W        W11781   4.196  38.541   3.966
46621W        W11782   0.028  21.225  13.414
46622W        W11783   0.980  20.213   0.953
46623W        W11784  22.251  27.864  11.222
46624W        W11785  11.287  12.332  13.353
46625W        W11786  44.283  37.982   5.338
46626W        W11787  40.493  33.476  13.456
46627W        W11788  26.244  17.864  13.396
46628W        W11789  40.409  13.890   0.365
46629W        W11790  31.333  40.976  12.665
46630W        W11791  10.279  22.773   4.967
46631W        W11792  39.526   4.621  12.050
46632W        W11793  33.370  38.119   1.950
46633W        W11794  27.181  17.156   0.299
46634W        W11795  11.230  36.811  12.147
46635W        W11796   7.296  26.725  10.584
46636W        W11797   1.228  35.499   4.983
46637W        W11798   9.664  31.470  11.661
46638W        W11799   6.937   6.356   0.412
46639W        W11800   0.778  11.328   9.729
46640W        W11801  11.754   4.163   3.972
46641W        W11802   9.956   7.784   2.674
46642W        W11803  26.932  43.079   3.048
46643W        W11804   6.117  41.406   1.734
46644W        W11805  17.651  19.593  12.664
46645W        W11806  10.145  11.080   1.642
46646W        W11807  36.327   3.705  11.576
46647W        W11808  37.428   6.283  11.529
46648W        W11809  30.210  39.630   1.198
46649W        W11810  16.172  42.801   3.556
46650W        W11811  21.651   1.938  11.640
46651W        W11812   8.762  17.235   4.666
46652W        W11813   7.693  25.297   2.293
46653W        W11814  33.271  42.301  13.987
46654W        W11815  25.451  25.486   2.467
46655W        W11816  26.946  15.021   2.504
46656W        W11817  16.590   6.107  10.917
46657W        W11818  38.708  40.884  10.062
46658W        W11819   6.096  43.086  10.105
46659W        W11820  13.635   0.922   2.782
46660W        W11821  42.688   4.169   1.775
46661W        W11822  28.063  22.662  10.717
46662W        W11823   7.382   4.703   0.701
46663W        W11824  35.430  36.760   0.618
46664W        W11825  42.874  21.362  11.373
46665W        W11826  21.527  16.808   5.524
46666W        W11827   8.791  34.973  14.754
46667W        W11828   8.483  43.921  13.562
46668W        W11829   9.939  20.009  11.089
46669W        W11830  25.535   9.653  10.680
46670W        W11831  36.201  32.840  14.972
46671W        W11832  43.032  33.026  11.128
46672W        W11833  35.960  19.692   2.166
46673W        W11834   2.226   7.846   4.060
46674W        W11835  28.431  25.748  10.786
46675W        W11836  29.583  31.741   3.267
46676W        W11837   0.725  44.192   3.538
46677W        W11838  30.386  44.383  12.363
46678W        W11839  33.390  36.044  11.178
46679W        W11840   2.799  38.405  12.541
46680W        W11841  35.539  40.986  11.618
46681W        W11842   3.724  10.993  13.371
46682W        W11843  38.549  23.093  13.039
46683W        W11844  32.356  20.100   0.934
46684W        W11845   3.649  44.334   9.483
46685W        W11846  17.753  12.125  14.159
46686W        W11847  15.076  44.178   2.895
46687W        W11848  20.346  11.225   2.252
46688W        W11849  40.633  29.830   3.842
46689W        W11850  27.102  42.039   2.441
46690W        W11851  19.648  29.088  14.623
46691W        W11852  18.616  11.362   4.257
46692W        W11853  42.977  16.991  13.361
46693W        W11854  29.297  42.496  10.456
46694W        W11855  38.140   5.557  13.332
46695W        W11856  10.406  13.081   1.995
46696W        W11857   0.317  28.975  14.984
46697W        W11858  37.358  20.591   2.090
46698W        W11859  42.239   9.798  13.007
46699W        W11860  12.670  35.524   2.597
46700W        W11861  32.943  31.013   1.415
46701W        W11862  40.221  19.044   4.213
46702W        W11863   7.806  39.501  12.373
46703W        W11864   2.395  27.614  12.089
46704W        W11865  36.751  40.970   1.951
46705W        W11866  10.158   3.380  12.390
46706W        W11867  16.338   3.893   0.332
46707W        W11868  14.653  31.190  11.738
46708W        W11869  21.480  33.010   0.448
46709W        W11870  36.367  29.306  12.550
46710W        W11871  27.190  42.885  12.637
46711W        W11872   4.416  17.534  11.793
46712W        W11873  32.357  44.370  14.463
46713W        W11874  33.508  31.392  12.978
46714W        W11875  43.985  43.969  10.636
46715W        W11876   9.086  43.859  12.774
46716W        W11877   5.429  36.310  14.849
46717W        W11878   1.872  17.611  14.952
46718W        W11879  12.720  30.854   4.590
46719W        W11880  12.851  41.372   1.014
46720W        W11881  37.508  21.747   1.296
46721W        W11882  25.654  11.025   4.012
46722W        W11883  19.557  24.869  13.806
46723W        W11884  13.212  33.545   0.182
46724W        W11885  28.510  17.216   3.242
46725W        W11886  20.657  43.363  13.459
46726W        W11887  30.906  35.530   2.854
46727W        W11888  17.696  26.801  13.164
46728W        W11889   1.919  44.455   2.331
46729W        W11890  13.795  36.434  12.966
46730W        W11891  34.768  41.977   3.733
46731W        W11892  40.294  32.318   3.675
46732W        W11893  29.528  32.148  10.780
46733W        W11894  26.254   8.404  11.142
46734W        W11895  26.534  33.033  12.437
46735W        W11896  41.537  25.577   4.071
46736W        W11897  25.404   0.774   2.565
46737W        W11898  14.795   7.760  14.280
46738W        W11899  11.311  21.088   3.196
46739W        W11900  42.718  11.073  11.615
46740W        W11901  13.246   0.670   1.763
46741W        W11902  36.113  41.042  13.784
46742W        W11903  42.068  43.826   4.269
46743W        W11904  13.607  23.048   2.879
46744W        W11905   4.332  42.986   4.823
46745W        W11906  41.554   6.210   0.280
46746W        W11907  10.711  27.723  14.000
46747W        W11908  35.061  28.786   0.784
46748W        W11909  26.165   7.916   0.949
46749W        W11910   3.862  32.879  12.881
46750W        W11911  18.673  22.051   1.314
46751W        W11912  41.578   5.409  10.716
46752W        W11913  17.499  10.381  10.103
46753W        W11914  30.517  20.889   2.888
46754W        W11915  31.841   2.424   0.010
46755W        W11916   3.796  21.015  14.399
46756W        W11917  44.909  24.435  13.964
46757W        W11918  30.128  13.658   3.608
46758W        W11919  26.446   3.351   4.530
46759W        W11920  10.208   8.929   1.010
46760W        W11921  13.398  41.006   4.673
46761W        W11922  43.205  33.666   4.966
46762W        W11923  17.786  36.368  13.856
46763W        W11924  19.197   9.717   2.562
46764W        W11925  17.037  27.488  14.253
46765W        W11926  40.316  29.526  10.648
46766W        W11927   9.092  25.761  10.095
46767W        W11928   3.916   9.920   4.814
46768W        W11929  30.707  15.183  14.394
46769W        W11930  12.421  37.867   2.831
46770W        W11931   3.701   9.653  13.825
46771W        W11932   9.692  31.438  14.051
46772W        W11933   4.034  12.594  14.420
46773W        W11934  31.141  15.541   3.713
46774W        W11935   5.159  40.390   1.438
46775W        W11936   2.532  42.326  11.558
46776W        W11937  44.439  32.203  10.252
46777W        W11938  42.742  20.500  12.062
46778W        W11939  36.396  27.195   3.847
46779W        W11940  33.353  29.388   0.428
46780W        W11941  41.226  10.785   4.523
46781W        W11942  13.240  36.508  14.248
46782W        W11943  27.153   1.448  12.001
46783W        W11944  11.797  36.874  13.585
46784W        W11945  27.687   7.754   2.017
46785W        W11946   1.907  21.895   1.731
46786W        W11947  29.742  19.762  11.645
46787W        W11948  16.202   0.377   3.860
46788W        W11949  42.653  37.856  10.187
46789W        W11950  19.277   8.860  14.860
46790W        W11951   0.132  10.536  10.260
46791W        W11952  35.566  13.148   2.747
46792W        W11953  42.832  38.857  13.651
46793W        W11954   1.178  29.461  12.419
46794W        W11955  15.284  41.887  11.559
46795W        W11956   2.334  44.513  13.763
46796W        W11957  36.122  40.981   0.415
46797W        W11958  23.013  23.184   1.258
46798W        W11959  15.188   9.712  13.995
46799W        W11960  31.650  19.202  12.402
46800W        W11961  36.090  30.329  12.556
46801W        W11962   5.789  37.052   0.455
46802W        W11963   4.263  11.856  13.271
46803W        W11964   3.924   0.339   0.468
46804W        W11965  21.691  18.568  13.357
46805W        W11966  28.007   9.266   3.216
46806W        W11967  10.699  35.384   1.205
46807W        W11968   7.371  32.143  11.717
46808W        W11969  12.248  42.591  11.216
46809W        W11970  44.797  20.049  13.971
46810W        W11971  18.925  31.653  13.411
46811W        W11972   6.746  12.252  10.431
46812W        W11973  25.498  30.475   1.008
46813W        W11974   1.142  38.052   3.285
46814W        W11975   6.405  33.891  13.499
46815W        W11976   9.462  23.099   1.982
46816W        W11977  30.229   4.862  10.718
46817W        W11978  17.198  13.678   0.059
46818W        W11979  13.082   5.309   4.873
46819W        W11980   7.230   9.242   1.814
46820W        W11981   1.913  31.952  14.489
46821W        W11982  28.155  28.115  13.541
46822W        W11983   2.853  35.980  13.329
46823W        W11984   7.123  32.100   0.803
46824W        W11985  11.256  25.491  12.517
46825W        W11986  23.632  24.471  10.696
46826W        W11987  21.219  20.016  11.504
46827W        W11988  33.525  16.117  13.353
46828W        W11989   3.001  25.141   2.282
46829W        W11990  12.426  25.851  14.395
46830W        W11991  44.470   4.920   3.677
46831W        W11992  14.277  28.413   2.361
46832W        W11993   8.536  36.441   0.240
46833W        W11994  15.175  11.020   1.885
46834W        W11995  39.096   6.072  11.940
46835W        W11996  34.022  16.130   4.526
46836W        W11997  22.875  26.685   3.683
46837W        W11998  30.422  11.710   4.160
46838W        W11999  12.946   9.375  12.129
46839W        W12000  33.561   3.755   1.248
46840W        W12001  25.643  22.223   0.287
46841W        W12002  21.194  32.267   0.304
46842W        W12003  35.398   6.653  14.856
46843W        W12004  33.645  31.679   1.659
46844W        W12005  13.108  17.492   0.521
46845W        W12006  36.963  33.585  13.548
46846W        W12007  42.998  38.979   0.478
46847W        W12008  10.543  11.821  13.433
46848W        W12009  44.217  38.342   4.961
46849W        W12010  23.963  19.088  13.456
46850W        W12011  35.139  23.003  13.069
46851W        W12012  42.336  40.379  14.020
46852W        W12013  27.039  11.640  12.452
46853W        W12014   2.886   6.717   3.718
46854W        W12015   9.273  26.184  13.937
46855W        W12016  41.096  27.032   0.223
46856W        W12017   5.219  17.548  13.415
46857W        W12018   8.674  33.503   1.139
46858W        W12019  37.554  36.925  11.099
46859W        W12020  42.954  17.746   2.928
46860W        W12021  16.335  32.492   2.556
46861W        W12022  36.354  35.203   3.488
46862W        W12023  23.717  18.153  14.984
46863W        W12024  38.865  29.605   2.348
46864W        W12025  28.678  25.401  11.179
46865W        W12026  40.495   3.407  13.857
46866W        W12027  22.930  43.037  12.603
46867W        W12028  27.807  13.568  10.875
46868W        W12029  15.625   7.802  13.044
46869W        W12030   4.212  10.829  13.408
46870W        W12031  31.802  24.252  12.679
46871W        W12032  29.022  34.575  11.027
46872W        W12033  34.027  43.309   2.356
46873W        W12034  35.849  42.553  12.000
46874W        W12035  41.632  14.277  13.536
46875W        W12036  42.296  37.520  11.165
46876W        W12037  18.498  31.905  12.453
46877W        W12038  21.765  11.583  14.490
46878W        W12039   4.264  33.431   0.274
46879W        W12040  43.811  20.407   1.973
46880W        W12041  13.737  44.196   1.323
46881W        W12042  24.600  36.135  13.165
46882W        W12043  32.339  44.820  14.777
46883W        W12044  35.256  36.057   5.090
46884W        W12045  13.887   0.927  13.453
46885W        W12046  42.055  29.948  14.980
46886W        W12047  33.364  32.950   2.876
46887W        W12048  26.898  15.655  14.529
46888W        W12049   1.946  17.508   0.460
46889W        W12050  43.554  15.970   0.336
46890W        W12051  36.146   5.016   5.040
46891W        W12052  23.030  28.856   1.665
46892W        W12053  28.404  20.233   2.252
46893W        W12054  24.110  43.245  12.900
46894W        W12055  33.501  38.260   9.825
46895W        W12056  11.835  31.995   1.861
46896W        W12057  30.633   2.247  13.498
46897W        W12058  17.748  12.095   3.855
46898W        W12059  11.658  30.211  12.392
46899W        W12060  36.293  35.035  11.567
46900W        W12061  30.195  12.647   3.773
46901W        W12062  22.673  10.386   0.783
46902W        W12063  24.542  32.407  13.467
46903W        W12064  10.165  15.868   1.325
46904W        W12065  31.274  21.524   4.230
46905W        W12066  33.543  29.634   1.386
46906W        W12067  41.293  14.814   2.846
46907W        W12068  30.851  30.247  13.490
46908W        W12069  23.660  23.067  11.855
46909W        W12070  17.545  24.210  11.592
46910W        W12071  43.036  20.885  11.207
46911W        W12072  12.905  31.116   4.128
46912W        W12073   3.238  27.029   1.412
46913W        W12074  27.987  23.817  13.806
46914W        W12075  39.538  25.074   4.718
46915W        W12076  14.634   9.423   1.084
46916W        W12077  36.616  40.913   0.300
46917W        W12078  17.534  12.296  12.440
46918W        W12079  19.585  34.855   4.520
46919W        W12080  39.973  18.782  10.966
46920W        W12081  26.191   1.377  12.866
46921W        W12082  35.601  29.606   3.561
46922W        W12083  16.559  10.345  10.599
46923W        W12084  13.601  42.653  10.073
46924W        W12085  18.697  12.890   2.847
46925W        W12086  39.299   0.675   1.939
46926W        W12087  34.509  40.461  14.746
46927W        W12088  41.261  16.136  10.706
46928W        W12089  38.474  37.925  12.332
46929W        W12090  13.346  17.691  12.901
46930W        W12091   0.191  43.942  12.386
46931W        W12092   0.079  33.971  10.468
46932W        W12093   6.620  25.834   0.196
46933W        W12094  12.390   5.990   1.952
46934W        W12095  38.258   4.443   2.854
46935W        W12096   3.524  44.566  14.597
46936W        W12097   0.432  36.985  11.675
46937W        W12098  27.242  35.997  10.752
46938W        W12099  17.731  13.558  10.963
46939W        W12100  40.572  17.594   2.429
46940W        W12101  14.168   7.124   0.956
46941W        W12102  40.062  38.400   4.554
46942W        W12103  31.530  11.861   2.325
46943W        W12104   1.208  37.852   1.918
46944W        W12105  12.899  32.038   1.346
46945W        W12106   4.055  29.054   3.070
46946W        W12107   1.746  42.007  13.040
46947W        W12108  41.708  39.343  12.477
46948W        W12109  20.484  18.646   1.901
46949W        W12110  39.685  27.574  11.148
46950W        W12111  43.900  28.387  10.968
46951W        W12112   4.860   0.354   3.407
46952W        W12113  28.475  21.586  11.118
46953W        W12114  38.414  20.492   3.159
46954W        W12115  27.345  42.741   3.028
46955W        W12116  13.576   2.174   1.554
46956W        W12117  17.306  38.562  13.369
46957W        W12118  20.238  36.058  13.470
46958W        W12119  13.923  12.732   1.891
46959W        W12120  44.579  31.082  11.951
46960W        W12121   7.205  23.336  12.086
46961W        W12122  26.976  31.377   1.152
46962W        W12123  11.115   3.269   2.337
46963W        W12124  18.583   6.973  11.621
46964W        W12125  11.514  11.437   0.027
46965W        W12126  37.402  43.301  13.020
46966W        W12127   4.935  24.527   5.443
46967W        W12128  29.966  32.337   4.760
46968W        W12129  12.732  29.177   3.106
46969W        W12130  32.442  35.609  12.223
46970W        W12131  43.321  17.667   4.167
46971W        W12132  34.751  10.638   3.242
46972W        W12133  21.039  40.016  10.993
46973W        W12134   9.789  21.060   0.324
46974W        W12135  15.425  42.863  14.290
46975W        W12136  44.298  38.792  12.989
46976W        W12137  22.720  10.706  10.129
46977W        W12138  14.996  31.497   1.238
46978W        W12139  33.399   6.126   0.957
46979W        W12140  21.762  44.045   3.666
46980W        W12141  12.130  22.798  13.350
46981W        W12142  20.776  32.133  11.177
46982W        W12143  37.080  38.764  14.593
46983W        W12144  27.512  22.003  11.755
46984W        W12145  28.120  40.089  13.138
46985W        W12146  44.697   1.982  13.346
46986W        W12147  38.451  17.986  10.509
46987W        W12148  13.669  35.427   2.818
46988W        W12149   2.482  42.940  10.745
46989W        W12150  29.171   9.853  14.937
46990W        W12151  19.844  40.046   0.699
46991W        W12152  30.478  22.813   1.826
46992W        W12153  26.838  32.358  13.379
46993W        W12154  13.376  24.246  12.151
46994W        W12155  11.706  37.586  13.053
46995W        W12156  18.567  32.356  13.463
46996W        W12157  22.044  39.137  11.036
46997W        W12158  14.942  38.875  14.271
46998W        W12159  10.188  21.407   0.228
46999W        W12160  25.112  26.142  14.494
47000W        W12161  39.289  18.156  14.306
47001W        W12162  43.461   3.804  12.365
47002W        W12163   8.816  22.186  14.139
47003W        W12164  37.179  41.537  12.987
47004W        W12165  25.179  39.389  13.393
47005W        W12166   8.072  12.823   2.335
47006W        W12167  13.830   7.859   1.484
47007W        W12168  18.265  14.238   1.370
47008W        W12169   6.319   0.026  11.172
47009W        W12170  27.211   4.465  11.504
47010W        W12171   3.458  10.115   5.046
47011W        W12172   6.946  41.931   3.775
47012W        W12173  30.369  11.060   3.181
47013W        W12174  35.584   4.898  11.517
47014W        W12175  38.210  44.199  14.946
47015W        W12176   8.215  38.096   3.701
47016W        W12177  40.404  33.217   3.246
47017W        W12178  34.553   5.565  13.844
47018W        W12179  39.101  42.475  10.304
47019W        W12180  37.020  36.920  14.497
47020W        W12181  22.909  40.274  11.210
47021W        W12182  24.916  17.297  14.404
47022W        W12183   4.812  34.695  14.324
47023W        W12184  40.852   9.093  11.467
47024W        W12185   1.735  24.503   4.860
47025W        W12186  19.923   4.575  13.390
47026W        W12187  17.844  32.627   0.199
47027W        W12188  33.980  23.294  13.466
47028W        W12189  40.632  33.504  11.691
47029W        W12190  12.559  31.948  13.462
47030W        W12191  23.051   6.153   1.011
47031W        W12192  32.372  12.394   2.828
47032W        W12193  27.434   2.837   4.120
47033W        W12194   3.348  10.172  12.255
47034W        W12195  29.706  19.552   0.787
47035W        W12196  24.096   1.030  11.186
47036W        W12197  28.641  26.987   1.425
47037W        W12198   6.514   0.320  14.721
47038W        W12199  13.058  24.444  12.770
47039W        W12200  26.613  30.534  11.192
47040W        W12201  33.110  25.890  13.579
47041W        W12202  33.077   3.219  13.983
47042W        W12203  42.417  38.456  11.199
47043W        W12204   1.455   3.448  11.347
47044W        W12205  36.985  27.443  10.748
47045W        W12206   6.888  17.288   0.907
47046W        W12207  12.168  34.693  10.964
47047W        W12208  20.613  16.909  10.153
47048W        W12209  24.015  15.375  13.599
47049W        W12210  29.274  26.704   0.232
47050W        W12211  36.748  38.102   0.960
47051W        W12212  28.135  14.389  11.919
47052W        W12213  42.091   0.712   0.012
47053W        W12214  43.446  39.656   4.033
47054W        W12215   2.776  31.362   0.949
47055W        W12216  36.549   4.798   4.394
47056W        W12217  38.917  43.024   3.635
47057W        W12218  15.150  23.192   3.759
47058W        W12219   7.852  38.508   2.781
47059W        W12220  41.576   5.909  12.930
47060W        W12221   3.415  21.717  13.901
47061W        W12222  23.285  27.606  12.890
47062W        W12223  37.433  22.124   4.798
47063W        W12224  14.487   9.655  11.082
47064W        W12225  39.265  13.856   2.158
47065W        W12226  26.063   8.701   3.147
47066W        W12227  10.791  31.091   3.382
47067W        W12228  30.367  21.262   1.426
47068W        W12229  37.516  14.092  12.874
47069W        W12230  16.210   6.510  14.789
47070W        W12231  44.215  15.211  13.849
47071W        W12232  23.134  28.433  13.848
47072W        W12233  33.823   9.861   3.890
47073W        W12234  35.067   8.734   4.184
47074W        W12235  16.802  15.017  14.261
47075W        W12236  13.728  39.978  14.650
47076W        W12237  26.929   4.193  11.179
47077W        W12238  42.406  26.854  10.490
47078W        W12239  18.351  25.445  13.341
47079W        W12240  15.890  13.902   0.483
47080W        W12241   9.703  31.566  13.533
47081W        W12242  33.349  11.753   0.467
47082W        W12243   3.722  32.708   0.285
47083W        W12244  36.187  39.601   2.686
47084W        W12245  29.872  10.071   1.695
47085W        W12246  36.611  43.896  13.999
47086W        W12247  10.737  17.270   3.156
47087W        W12248  39.459  37.643   2.156
47088W        W12249  17.383  15.438   4.638
47089W        W12250  14.703   5.497  11.217
47090W        W12251  35.072  16.199  12.932
47091W        W12252  37.559   4.084   4.650
47092W        W12253  20.449  21.615   3.815
47093W        W12254  29.968  14.650  13.972
47094W        W12255  44.251  18.318  10.808
47095W        W12256   3.913  12.779   3.259
47096W        W12257  14.654  21.230  10.672
47097W        W12258  36.366  23.511  12.493
47098W        W12259   7.094  18.835   2.196
47099W        W12260  14.800  29.066  13.405
47100W        W12261   1.512  22.047  14.549
47101W        W12262  35.099  30.986  11.934
47102W        W12263  10.247  34.744   1.856
47103W        W12264   5.245  27.417  11.252
47104W        W12265  21.294  19.287  11.935
47105W        W12266  41.089  11.188   2.313
47106W        W12267  37.588   6.607  11.162
47107W        W12268  19.165  41.366  12.148
47108W        W12269  34.626   1.745  14.001
47109W        W12270  25.042  41.486  14.300
47110W        W12271  18.650  23.967  13.822
47111W        W12272  24.476  30.950  14.367
47112W        W12273  31.170   1.026  14.127
47113W        W12274  10.293  38.621  10.569
47114W        W12275  34.240  12.216   1.332
47115W        W12276  29.197   8.224  13.007
47116W        W12277  14.073  26.207  10.821
47117W        W12278  43.085   9.197   4.266
47118W        W12279  41.409  42.544   4.282
47119W        W12280  36.980  12.850   3.221
47120W        W12281  43.740   1.764  14.519
47121W        W12282  38.870  34.995   1.367
47122W        W12283  29.109  16.056   1.390
47123W        W12284  29.597  32.886   4.119
47124W        W12285  29.910  26.453   2.779
47125W        W12286  42.412  37.266  12.935
47126W        W12287  36.646  12.660  11.612
47127W        W12288  26.549  38.481  13.121
47128W        W12289  21.042  14.718   3.354
47129W        W12290  16.332  24.943   2.634
47130W        W12291  26.244   5.316   3.152
47131W        W12292  11.720  24.500  10.582
47132W        W12293   7.915  36.870   0.483
47133W        W12294  39.778  10.758   0.767
47134W        W12295  15.569  17.567  12.281
47135W        W12296  28.734  34.610   4.100
47136W        W12297  13.246   3.970  14.937
47137W        W12298  31.811  42.300  13.666
47138W        W12299  14.361  15.839  11.190
47139W        W12300  30.905  23.684  14.900
47140W        W12301  34.980  25.308  13.482
47141W        W12302  26.135  30.044   1.469
47142W        W12303   9.096  34.991  12.024
47143W        W12304  13.560  18.411   3.791
47144W        W12305  18.601   8.309  12.982
47145W        W12306  40.349   0.812   0.175
47146W        W12307   6.257  30.444   3.117
47147W        W12308  40.652   1.712   4.507
47148W        W12309  10.694  20.765  13.999
47149W        W12310  28.529   4.671  11.499
47150W        W12311  16.734   8.286   4.703
47151W        W12312  44.062   5.415   1.696
47152W        W12313  35.941  23.276   0.409
47153W        W12314  43.210  40.694   4.128
47154W        W12315  10.584  10.943   1.275
47155W        W12316   8.660  11.370  12.542
47156W        W12317  19.537  26.976  12.395
47157W        W12318  43.955  32.802   4.167
47158W        W12319  17.184  37.613  12.602
47159W        W12320   9.523   4.940   2.733
47160W        W12321  20.841  31.475  14.854
47161W        W12322  10.421  32.301   2.264
47162W        W12323  19.626   3.935   2.148
47163W        W12324  18.232   3.574  14.081
47164W        W12325  15.024  44.436  13.349
47165W        W12326  27.439   2.301  11.608
47166W        W12327  39.092  18.579  12.427
47167W        W12328  17.159   4.499   0.329
47168W        W12329   9.136  18.931   3.687
47169W        W12330  40.818  38.943   2.050
47170W        W12331  12.625  15.722   3.050
47171W        W12332  39.451  27.991   1.923
47172W        W12333   6.957  37.402   3.649
47173W        W12334  31.111  38.097  14.479
47174W        W12335  24.474  42.954   0.005
47175W        W12336   5.322  11.324   2.367
47176W        W12337  36.767   5.448  11.573
47177W        W12338   1.257  37.368   1.638
47178W        W12339  24.999  37.359   4.157
47179W        W12340  36.884  35.376   1.383
47180W        W12341  16.795  24.713   1.671
47181W        W12342  32.782  30.487  11.087
47182W        W12343  28.115  16.930  12.123
47183W        W12344   8.260  38.330  13.710
47184W        W12345   7.461  33.627  13.645
47185W        W12346   6.285  20.165  12.967
47186W        W12347  43.937   7.177   3.777
47187W        W12348  13.284  43.746   3.458
47188W        W12349   5.891   2.860   0.501
47189W        W12350   7.048  15.535   0.392
47190W        W12351  39.695  19.277   3.419
47191W        W12352  15.589  31.351  11.648
47192W        W12353  39.674  16.498  13.969
47193W        W12354  40.295  14.089  13.242
47194W        W12355  21.273   8.289  10.723
47195W        W12356   6.945  15.600  12.873
47196W        W12357   7.485  41.529  13.033
47197W        W12358  37.770  41.463   1.686
47198W        W12359  26.864  27.662   1.875
47199W        W12360   2.104   2.156   1.714
47200W        W12361  37.369  24.736   4.125
47201W        W12362   4.824  28.965  13.002
47202W        W12363  16.047  34.973  10.791
47203W        W12364   5.465   2.861  14.734
47204W        W12365  30.198   3.101  11.872
47205W        W12366  19.287   7.656   1.700
47206W        W12367  19.113  12.313  13.396
47207W        W12368   6.852  31.762  10.996
47208W        W12369   8.388  33.956   1.609
47209W        W12370  18.529  38.539   2.416
47210W        W12371   4.811   0.286   0.963
47211W        W12372  32.545   7.899  11.293
47212W        W12373   6.070  10.533  11.734
47213W        W12374  34.579  40.863   5.001
47214W        W12375  31.388  16.588   0.003
47215W        W12376   9.166   5.196  13.230
47216W        W12377  15.211  40.300   0.779
47217W        W12378   8.358  44.685   3.905
47218W        W12379   2.298  10.388  12.432
47219W        W12380   0.299   6.689   4.565
47220W        W12381  26.428  42.289  13.344
47221W        W12382  39.010   1.459   3.366
47222W        W12383  29.423  28.863   1.919
47223W        W12384  24.275  42.759  13.832
47224W        W12385   8.186  24.005  10.520
47225W        W12386  17.084  12.684  11.626
47226W        W12387  27.568  21.240   1.851
47227W        W12388  37.389   5.864   0.504
47228W        W12389  31.076  40.550  14.787
47229W        W12390   3.282  17.092  13.342
47230W        W12391  10.131   6.939   2.149
47231W        W12392  13.043  28.949   0.894
47232W        W12393   4.315  23.180  14.313
47233W        W12394  35.032  15.591  13.917
47234W        W12395  29.426  23.815  14.847
47235W        W12396   6.694  20.900  12.705
47236W        W12397  26.610  42.821   3.356
47237W        W12398  36.830  18.244  11.568
47238W        W12399  19.309  25.621  12.613
47239W        W12400  42.458  14.742  10.555
47240W        W12401   4.277  26.106   1.291
47241W        W12402  42.824   2.013  10.357
47242W        W12403  41.943  31.141   0.732
47243W        W12404  21.986  38.825  11.462
47244W        W12405  29.620   5.652   4.710
47245W        W12406   0.383   9.472   2.168
47246W        W12407  13.963  21.588  11.532
47247W        W12408  29.055   2.307  13.869
47248W        W12409  17.149  24.581  12.662
47249W        W12410  29.329  36.002   1.412
47250W        W12411  29.184  19.104   3.779
47251W        W12412  35.429  21.852   0.219
47252W        W12413  31.981  15.511   2.132
47253W        W12414  38.434  30.775   1.033
47254W        W12415   6.551  18.638   2.164
47255W        W12416  22.780  19.937   5.037
47256W        W12417  11.276  27.903   0.302
47257W        W12418  24.733  22.544   0.431
47258W        W12419  33.979  39.867  14.360
47259W        W12420   8.655  17.803   0.831
47260W        W12421   5.005  12.629   4.042
47261W        W12422  11.688  20.335  10.676
47262W        W12423  26.615  35.182   0.378
47263W        W12424   7.806  34.695   4.104
47264W        W12425   9.506  36.149  11.598
47265W        W12426  17.667  31.902  14.832
47266W        W12427  17.537  30.202   3.157
47267W        W12428  16.570  12.686  13.937
47268W        W12429  21.832  11.176  12.073
47269W        W12430  21.449  41.945   0.389
47270W        W12431  18.578  11.157  13.596
47271W        W12432  39.582   2.952  12.935
47272W        W12433  33.686  12.286  13.460
47273W        W12434  41.569  28.369   0.744
47274W        W12435   9.279  37.491   4.594
47275W        W12436   9.807   8.093   3.101
47276W        W12437  26.569  18.372   3.604
47277W        W12438  26.181  11.297   3.667
47278W        W12439  37.864  10.381  14.422
47279W        W12440  17.181  37.020   0.054
47280W        W12441   8.976  17.299  14.043
47281W        W12442  33.592  20.134  13.636
47282W        W12443  34.425   3.547  14.772
47283W        W12444  40.298  34.473   1.861
47284W        W12445  25.846  19.452  10.065
47285W        W12446  35.045  27.136  13.810
47286W        W12447  21.986  17.614   4.333
47287W        W12448  10.620  16.252  11.886
47288W        W12449   8.684  43.236   1.347
47289W        W12450   0.403  42.824  14.561
47290W        W12451  17.087  14.651   4.113
47291W        W12452  12.028  26.772  11.628
47292W        W12453  26.592  23.787  14.428
47293W        W12454  37.866  28.121  12.483
47294W        W12455  21.115  15.016  12.818
47295W        W12456  21.006  32.984   4.841
47296W        W12457  17.722  15.541   0.362
47297W        W12458   8.425  39.541   3.831
47298W        W12459  20.491  29.700   0.845
47299W        W12460  36.852   7.331   1.355
47300W        W12461  12.045   6.888   0.663
47301W        W12462  23.965  24.527   1.894
47302W        W12463  36.427  19.518  13.871
47303W        W12464  10.449  35.680   0.226
47304W        W12465  44.238  24.148   2.267
47305W        W12466  25.226   3.854  10.635
47306W        W12467  33.550   1.337   2.949
47307W        W12468  21.742  16.684   1.614
47308W        W12469  36.623  19.070   2.465
47309W        W12470  27.614  21.847  11.276
47310W        W12471  12.339   1.393  12.455
47311W        W12472  15.686  24.213   2.656
47312W        W12473  36.553   4.177  10.690
47313W        W12474  18.106   9.291  13.344
47314W        W12475  25.444   1.669  13.486
47315W        W12476  20.825  26.299  10.468
47316W        W12477  30.843  17.493  14.907
47317W        W12478   3.521  20.107  11.790
47318W        W12479  23.424  14.487  11.087
47319W        W12480  25.692  32.042  12.064
47320W        W12481  15.754   4.243  14.618
47321W        W12482  21.684  18.762   0.253
47322W        W12483  37.317  37.083   1.798
47323W        W12484   7.767   5.421  10.735
47324W        W12485   9.840   5.558  14.359
47325W        W12486  41.764   6.942   1.233
47326W        W12487   7.603  32.196   0.967
47327W        W12488   8.419   8.603   4.227
47328W        W12489  28.817  33.684  10.966
47329W        W12490   0.510  19.178  13.547
47330W        W12491  26.869  26.009  13.371
47331W        W12492  28.917  30.218  13.623
47332W        W12493  16.579   4.786  11.650
47333W        W12494  28.582  22.595  11.980
47334W        W12495  28.938  17.261  14.955
47335W        W12496  34.012  21.198   3.255
47336W        W12497  14.525  10.764  11.583
47337W        W12498   1.845  23.057  12.512
47338W        W12499  33.015  12.702  11.538
47339W        W12500  17.480  28.524   1.038
47340W        W12501  41.338  12.601   2.535
47341W        W12502  18.272  19.994   1.675
47342W        W12503  39.346  44.256   1.786
47343W        W12504  28.221  25.629  13.328
47344W        W12505   6.961  18.337   2.269
47345W        W12506  27.446   5.577  13.840
47346W        W12507  38.340  31.154  13.745
47347W        W12508  21.205  38.405  14.799
47348W        W12509   3.719  31.233   3.775
47349W        W12510  26.209  41.885   2.655
47350W        W12511  40.409  22.542   2.259
47351W        W12512  17.578  39.069   0.530
47352W        W12513  34.024   0.390   1.474
47353W        W12514  36.639  44.914   4.506
47354W        W12515  16.518  44.994   3.692
47355W        W12516  28.936  13.270   4.638
47356W        W12517  15.226   2.237  10.994
47357W        W12518  13.567  31.701   1.336
47358W        W12519  38.967   1.287  13.785
47359W        W12520  19.506  27.671   1.784
47360W        W12521   3.420   5.678   0.322
47361W        W12522  30.729   2.939   0.596
47362W        W12523  35.937  14.784   2.693
47363W        W12524  19.273  40.033   1.867
47364W        W12525   7.467  16.105  11.202
47365W        W12526  24.931   7.130   1.467
47366W        W12527   9.214  27.302   9.919
47367W        W12528  13.241   6.324  10.045
47368W        W12529  18.469  15.655  12.580
47369W        W12530  14.810  10.364  14.854
47370W        W12531  36.896  25.688   2.353
47371W        W12532  40.949   9.531  14.592
47372W        W12533  24.966  40.125  13.817
47373W        W12534  27.868  44.277   4.126
47374W        W12535  12.125   8.426  13.005
47375W        W12536   2.309  31.109   4.049
47376W        W12537  29.964  31.476   2.314
47377W        W12538  13.742  31.551   2.786
47378W        W12539  26.057  39.255  12.694
47379W        W12540  29.542  21.465   4.182
47380W        W12541  34.494  35.370   4.219
47381W        W12542   7.774  27.586  12.111
47382W        W12543  36.866  33.133   4.010
47383W        W12544   2.533  22.371   0.474
47384W        W12545  31.453  17.364   2.882
47385W        W12546  21.081   2.154  10.727
47386W        W12547   8.021   2.931  11.326
47387W        W12548  41.521  36.403  10.912
47388W        W12549  39.031   8.995  14.300
47389W        W12550  13.902   6.168   2.773
47390W        W12551   0.877  10.427   0.647
47391W        W12552  35.100  34.288   2.845
47392W        W12553   8.364  14.679   0.734
47393W        W12554   1.482  44.758  11.626
47394W        W12555  38.288   0.835   2.733
47395W        W12556  32.424  37.389   3.184
47396W        W12557   0.799   0.489  13.132
47397W        W12558  25.230  16.119  14.820
47398W        W12559  25.477  18.287  11.529
47399W        W12560   2.230  39.949   3.192
47400W        W12561  28.950  42.098   3.623
47401W        W12562  25.084  25.629  14.591
47402W        W12563   0.424   0.402   2.240
47403W        W12564  30.931   7.857   1.691
47404W        W12565  39.342  26.582   1.875
47405W        W12566  43.061  17.299   2.282
47406W        W12567  24.247  40.492  14.335
47407W        W12568  17.832   0.640   1.931
47408W        W12569  12.765  16.810  12.571
47409W        W12570   9.848   1.918  10.378
47410W        W12571  19.976  26.096  13.144
47411W        W12572  26.018  16.715  11.451
47412W        W12573  32.607  22.812   0.560
47413W        W12574  20.116  29.674   4.572
47414W        W12575  40.376   4.575   3.741
47415W        W12576  29.729   1.767  14.871
47416W        W12577  28.706  12.918  12.655
47417W        W12578  33.514  39.504  11.830
47418W        W12579   8.414   9.270  11.650
47419W        W12580  20.101   3.556  12.554
47420W        W12581  21.715  44.399   0.905
47421W        W12582   2.371  35.887   3.413
47422W        W12583  14.637   1.852   3.874
47423W        W12584  40.875  36.520   0.223
47424W        W12585  28.854  39.981  12.006
47425W        W12586  34.162  29.072  10.928
47426W        W12587   0.786  26.664  11.108
47427W        W12588  35.976  41.798  12.476
47428W        W12589  23.929   3.741  11.110
47429W        W12590  35.404  33.933  11.538
47430W        W12591  21.488  11.256   1.328
47431W        W12592  35.620  21.791   3.325
47432W        W12593  26.297  42.321  14.058
47433W        W12594   2.662  36.322  10.617
47434W        W12595  21.749  12.795   0.870
47435W        W12596  35.870  18.623   3.734
47436W        W12597   4.523  16.163   3.955
47437W        W12598  17.647  26.272  14.420
47438W        W12599  36.900  36.034  14.634
47439W        W12600  27.561  16.610   4.710
47440W        W12601  42.867  13.117   0.862
47441W        W12602  39.271  40.248   1.770
47442W        W12603  38.371  31.363   1.701
47443W        W12604  14.647  40.626  14.170
47444W        W12605  41.729   2.427   4.971
47445W        W12606  30.799   2.959   4.516
47446W        W12607  25.642  31.930  10.708
47447W        W12608  25.032  11.552  13.178
47448W        W12609   6.563  22.787  11.147
47449W        W12610   5.632  30.076  13.866
47450W        W12611  31.022  36.328  12.116
47451W        W12612   4.677  35.987   5.044
47452W        W12613   4.116  23.725  12.665
47453W        W12614  41.783  44.392  14.293
47454W        W12615  37.306  25.020  14.082
47455W        W12616  29.763  39.845   3.278
47456W        W12617  39.583  30.001   2.698
47457W        W12618  12.321  19.729   4.738
47458W        W12619   8.205  22.477   3.016
47459W        W12620  20.265  31.165  10.660
47460W        W12621  12.327   2.904   4.616
47461W        W12622  42.285  10.692   2.740
47462W        W12623  43.365   9.316  10.754
47463W        W12624   0.791   4.903  14.924
47464W        W12625  13.867   2.775  13.069
47465W        W12626  24.624  42.895  13.446
47466W        W12627  33.636  19.157   0.784
47467W        W12628  41.128  12.791  13.331
47468W        W12629  32.531  12.361   1.655
47469W        W12630  39.847  33.750   1.031
47470W        W12631  24.548   5.830  11.016
47471W        W12632  38.875  32.918   1.676
47472W        W12633  43.557  44.964   3.730
47473W        W12634  35.448  33.926  10.585
47474W        W12635  20.070  13.645   1.566
47475W        W12636  22.170  13.691   3.620
47476W        W12637  34.559   7.365   3.863
47477W        W12638   3.065  39.351  14.000
47478W        W12639  38.612  30.631  14.380
47479W        W12640   7.994  32.096   4.182
47480W        W12641   3.500  14.812  11.652
47481W        W12642   2.769  43.931   4.632
47482W        W12643  38.914  22.123   4.226
47483W        W12644  41.883  43.194  14.907
47484W        W12645  38.468  15.358   0.022
47485W        W12646  31.922  42.299   0.841
47486W        W12647  34.380   3.868   3.653
47487W        W12648  34.917   9.673  11.546
47488W        W12649  40.679  26.548   1.519
47489W        W12650  33.606  40.395  10.713
47490W        W12651  27.344  27.923   1.853
47491W        W12652  44.745   8.226   2.892
47492W        W12653  43.675  11.133   3.797
47493W        W12654  41.819  43.200  11.585
47494W        W12655   3.826   9.166  13.981
47495W        W12656   5.175  31.104   2.841
47496W        W12657  13.368   1.030  12.998
47497W        W12658  29.665  10.483  12.110
47498W        W12659   8.661  32.630   1.208
47499W        W12660   6.924  35.002   0.854
47500W        W12661  22.060  43.481  12.330
47501W        W12662  39.355  28.471   2.420
47502W        W12663   8.574  21.423  12.603
47503W        W12664  31.338  34.593  11.980
47504W        W12665  14.701  44.722  11.608
47505W        W12666  14.104  14.301  12.038
47506W        W12667   8.460   6.744  11.030
47507W        W12668   9.879  38.398   0.800
47508W        W12669  14.748  43.928  12.458
47509W        W12670  11.794   2.912   4.685
47510W        W12671  18.718  43.786  14.813
47511W        W12672  36.869   4.436  13.340
47512W        W12673  29.938  10.641  14.906
47513W        W12674  12.265  22.274  12.553
47514W        W12675   8.870  14.251  11.226
47515W        W12676  42.983  43.945   4.079
47516W        W12677  20.668  32.161   1.389
47517W        W12678  34.242  10.567  13.493
47518W        W12679   8.810  21.029   1.345
47519W        W12680  37.816  38.003  14.938
47520W        W12681  12.223  27.210   1.471
47521W        W12682  22.613  26.849  12.662
47522W        W12683  41.544  15.049  11.626
47523W        W12684   9.807  11.617   0.344
47524W        W12685  26.003   5.594  14.426
47525W        W12686  20.625  43.175   5.023
47526W        W12687   2.948  21.218  11.053
47527W        W12688  28.948   0.457   3.878
47528W        W12689  26.914  40.839   1.558
47529W        W12690   2.931  43.888  10.688
47530W        W12691  41.177   0.282   4.107
47531W        W12692  40.333  43.347   1.594
47532W        W12693  27.997  21.020   1.623
47533W        W12694  40.713  40.321   0.356
47534W        W12695  43.383   0.035   2.773
47535W        W12696  23.155  17.595   2.448
47536W        W12697  25.591  34.495  14.900
47537W        W12698  31.770   3.745  14.715
47538W        W12699  13.043  19.682   1.844
47539W        W12700  23.604  31.488   2.312
47540W        W12701   8.483  33.661  13.563
47541W        W12702  40.438  39.344   3.145
47542W        W12703  34.844  22.624  11.591
47543W        W12704  41.042  34.112  10.783
47544W        W12705   3.766   8.573   3.793
47545W        W12706  39.982  10.691  13.116
47546W        W12707  15.509   0.884   3.777
47547W        W12708  10.950   2.650  10.870
47548W        W12709  16.070  17.300   3.667
47549W        W12710  27.495  44.527  14.814
47550W        W12711  39.735  37.068   1.431
47551W        W12712  19.049  14.324  13.951
47552W        W12713  30.870   2.090   4.040
47553W        W12714  26.992  18.128   3.700
47554W        W12715   5.860  32.931  11.615
47555W        W12716  20.250  13.281  14.436
47556W        W12717  22.609  39.607   0.788
47557W        W12718  27.484   8.232  12.503
47558W        W12719  35.589  44.878   3.119
47559W        W12720  17.317  18.852   1.215
47560W        W12721  42.017  17.061   4.049
47561W        W12722  17.317   7.237  14.406
47562W        W12723  13.574  36.576   4.625
47563W        W12724  27.940  29.024   0.289
47564W        W12725   9.343  27.480  13.505
47565W        W12726  26.173  16.608   2.301
47566W        W12727  34.197  12.285   3.108
47567W        W12728  10.371  14.843   1.360
47568W        W12729  41.221  37.942  11.618
47569W        W12730   6.264  11.247  12.493
47570W        W12731  10.351  12.706  11.508
47571W        W12732   3.974  12.406   0.461
47572W        W12733   8.751  19.105  11.193
47573W        W12734  32.170   8.769  14.868
47574W        W12735  28.594  31.817  13.437
47575W        W12736  16.801  27.060  14.496
47576W        W12737  39.073  37.814  11.135
47577W        W12738  40.010  11.571  13.242
47578W        W12739  23.254  27.495   1.602
47579W        W12740  10.800  18.210   2.367
47580W        W12741  36.339  33.948  12.928
47581W        W12742  38.942  20.206   3.973
47582W        W12743  29.610  44.422  10.736
47583W        W12744  27.998   3.490   4.592
47584W        W12745  31.669   1.193   0.379
47585W        W12746  18.405  19.029   1.958
47586W        W12747  36.017  34.841   3.690
47587W        W12748   4.191  17.018  12.084
47588W        W12749  42.975  41.647  14.737
47589W        W12750  38.076  31.682   3.701
47590W        W12751   7.642  27.102   0.953
47591W        W12752   3.358  36.721  13.849
47592W        W12753   0.291  31.356  14.791
47593W        W12754  38.487  12.661  14.874
47594W        W12755  31.003  14.376   3.026
47595W        W12756   5.908  28.065  14.599
47596W        W12757  37.158   3.347  12.891
47597W        W12758   0.143  34.835   2.702
47598W        W12759  25.624  36.420   4.535
47599W        W12760  43.754  12.349   4.681
47600W        W12761  28.419  12.060  14.489
47601W        W12762  10.322  37.402   4.610
47602W        W12763  36.706  15.265   2.866
47603W        W12764   7.298  23.630   0.386
47604W        W12765   0.304  20.929   4.706
47605W        W12766   0.807  21.689  13.159
47606W        W12767  31.498  27.301  11.215
47607W        W12768  44.346  23.732  10.650
47608W        W12769   4.809   6.543  13.036
47609W        W12770   3.182  20.492   0.841
47610W        W12771   6.491  21.216  10.792
47611W        W12772  37.772  41.040  12.537
47612W        W12773  30.011  33.612  12.048
47613W        W12774   5.206   1.444   3.682
47614W        W12775  28.753  18.145  14.494
47615W        W12776   0.577   7.667  14.307
47616W        W12777  10.780  39.470   3.726
47617W        W12778  42.436  43.684  12.026
47618W        W12779  15.148  21.549   0.406
47619W        W12780  11.570  17.549   1.360
47620W        W12781   2.780  37.779   0.942
47621W        W12782  16.986  15.569   3.183
47622W        W12783  44.899  13.692   3.468
47623W        W12784  41.304   5.236  11.123
47624W        W12785  34.122  32.488  10.593
47625W        W12786  30.895  40.166  14.464
47626W        W12787   6.954   7.887   2.314
47627W        W12788   3.632  26.616   3.078
47628W        W12789  36.814  21.345   1.921
47629W        W12790  13.914   7.781   2.427
47630W        W12791  30.749  13.790   0.383
47631W        W12792  22.143  15.446  11.569
47632W        W12793  24.764  31.075   0.267
47633W        W12794  29.877  44.155   2.678
47634W        W12795  41.339  15.543   2.447
47635W        W12796  33.254  42.282   1.350
47636W        W12797  11.905  41.255   4.413
47637W        W12798  12.362  10.463   0.388
47638W        W12799  30.004   7.075   0.709
47639W        W12800  21.950  11.110   4.584
47640W        W12801  25.302  33.069   0.360
47641W        W12802  35.042  44.861   0.809
47642W        W12803  13.361  13.216   0.832
47643W        W12804  37.979  24.718   4.859
47644W        W12805  33.673  19.077  10.834
47645W        W12806  31.139  33.083  12.471
47646W        W12807  35.945  19.457   2.983
47647W        W12808  13.437  19.606   1.293
47648W        W12809  18.091  31.860   3.574
47649W        W12810  21.188  37.370   2.388
47650W        W12811   2.379   3.206   0.403
47651W        W12812  39.797  14.742   1.019
47652W        W12813  44.920  40.348  12.776
47653W        W12814  21.526  22.344   1.753
47654W        W12815  33.089  14.133   3.040
47655W        W12816  23.817  37.000  13.514
47656W        W12817  38.057   7.378  10.281
47657W        W12818   1.906  15.790   2.268
47658W        W12819  27.453  34.619   0.567
47659W        W12820   3.239  25.174  14.824
47660W        W12821  24.964  34.966  10.979
47661W        W12822  42.015  19.183  14.528
47662W        W12823  36.421  30.203   2.364
47663W        W12824  38.871  42.843  12.415
47664W        W12825  12.585  38.733   1.380
47665W        W12826   0.948   2.913   0.103
47666W        W12827  37.609  26.408  12.256
47667W        W12828  28.906  11.738  10.514
47668W        W12829  16.078   4.183   2.468
47669W        W12830   6.992  41.406  13.837
47670W        W12831  39.353  21.176  12.888
47671W        W12832   5.381  40.573  13.897
47672W        W12833  23.801  24.715  14.876
47673W        W12834  11.915  10.369   3.207
47674W        W12835  17.129  16.046  14.845
47675W        W12836  17.756  42.027   4.603
47676W        W12837  26.573  23.197  10.048
47677W        W12838  32.893  33.063  12.967
47678W        W12839  16.151  36.024  13.786
47679W        W12840  40.287  29.166   0.386
47680W        W12841  17.704   6.830  11.698
47681W        W12842  14.490  13.623   4.685
47682W        W12843  12.138   3.542  13.928
47683W        W12844  21.741  34.303  12.974
47684W        W12845  38.100  25.333   0.017
47685W        W12846  21.194  20.412  12.832
47686W        W12847  14.812  23.241  14.220
47687W        W12848  44.015  40.749  13.167
47688W        W12849  10.110  15.681  13.866
47689W        W12850  25.119   3.525   2.138
47690W        W12851  40.305  39.843  13.346
47691W        W12852  31.910  40.050  13.418
47692W        W12853  37.831  15.177  11.198
47693W        W12854  31.670   9.464  11.758
47694W        W12855  31.030   0.866   3.701
47695W        W12856  37.649  28.928  10.703
47696W        W12857  40.941  25.636  11.181
47697W        W12858  39.744  24.261  13.587
47698W        W12859   1.956   5.086   4.509
47699W        W12860   5.057  36.005  11.222
47700W        W12861  18.534  25.582  13.845
47701W        W12862  14.815  25.554  10.517
47702W        W12863  15.946  32.384  13.786
47703W        W12864  10.729  17.576  14.981
47704W        W12865  38.464   8.743   3.192
47705W        W12866  42.098  19.040  12.128
47706W        W12867  18.803  15.294   2.255
47707W        W12868  27.053  35.816   3.635
47708W        W12869   4.377   0.465   2.724
47709W        W12870  30.028  10.416  14.447
47710W        W12871  30.787   1.990  10.647
47711W        W12872  22.819  40.395  13.598
47712W        W12873  12.548   4.614   0.205
47713W        W12874  29.295   5.357   1.312
47714W        W12875   5.527  20.885   1.242
47715W        W12876  19.247  27.701   0.463
47716W        W12877   1.455  40.105   4.574
47717W        W12878  38.619  13.379   0.738
47718W        W12879  18.659  35.025  14.490
47719W        W12880  15.655  20.031  13.527
47720W        W12881  33.578  37.997  10.262
47721W        W12882  15.259   3.863   1.088
47722W        W12883   0.792  24.061   5.059
47723W        W12884  12.338   7.686   3.604
47724W        W12885  10.792  38.576  10.748
47725W        W12886  41.011  21.567   2.650
47726W        W12887  28.636  33.077  11.715
47727W        W12888  36.720  36.024   4.875
47728W        W12889  43.922  20.921   1.251
47729W        W12890  15.129  31.979  11.713
47730W        W12891  24.036  10.834   4.824
47731W        W12892  19.576  10.626  14.434
47732W        W12893  43.285  17.039  13.835
47733W        W12894  30.638  25.035   3.579
47734W        W12895  13.100  39.249  14.996
47735W        W12896  14.747  33.400   1.158
47736W        W12897   8.898  11.926   1.451
47737W        W12898   5.728  10.828   4.086
47738W        W12899  33.250   5.273  14.146
47739W        W12900  34.996  25.935   1.333
47740W        W12901   8.733  18.984   4.056
47741W        W12902   0.870  17.732   4.659
47742W        W12903  22.057  23.518  14.914
47743W        W12904  36.307   0.410  10.869
47744W        W12905  21.491  12.595   2.411
47745W        W12906  43.233  16.902   0.271
47746W        W12907   8.006   6.835   4.541
47747W        W12908  23.426  26.472  12.473
47748W        W12909  40.932   1.399  11.427
47749W        W12910   5.695   8.765  11.608
47750W        W12911  33.576  15.782   3.123
47751W        W12912  35.925  19.685  13.866
47752W        W12913  12.929  27.580   4.663
47753W        W12914  42.018  44.876   3.728
47754W        W12915  13.484  40.985   2.705
47755W        W12916   1.955   9.241   1.279
47756W        W12917  10.051  12.291  11.476
47757W        W12918  15.628  41.425  12.310
47758W        W12919  36.822  25.218  11.668
47759W        W12920  28.711  18.668   3.226
47760W        W12921  12.164  26.710  11.123
47761W        W12922   4.779   1.888  12.801
47762W        W12923  17.390  23.180   0.903
47763W        W12924  37.018  38.685   2.256
47764W        W12925  42.459  18.623  12.976
47765W        W12926   6.262  15.198   4.350
47766W        W12927  10.327   8.583   3.772
47767W        W12928   4.029  36.484  13.285
47768W        W12929  10.459  38.055   3.982
47769W        W12930   0.322   3.675  11.525
47770W        W12931  39.319   3.260   3.859
47771W        W12932   3.407  37.490  11.025
47772W        W12933   1.547   1.948  12.215
47773W        W12934  18.181  11.124   2.781
47774W        W12935  12.397  38.097  12.848
47775W        W12936  28.585  31.835  10.661
47776W        W12937  19.508   4.897   1.328
47777W        W12938  17.172  10.281   4.675
47778W        W12939  23.132  26.992   1.570
47779W        W12940  18.597   6.964   4.074
47780W        W12941  29.467  30.687   3.236
47781W        W12942  32.437  19.223   4.182
47782W        W12943  11.281  26.322  11.074
47783W        W12944   5.122  26.692   2.397
47784W        W12945  33.003  24.596  10.742
47785W        W12946  18.745  40.753   1.694
47786W        W12947  44.782  39.324  14.309
47787W        W12948  34.265   6.628   0.513
47788W        W12949   1.732  24.749   3.873
47789W        W12950  33.587  37.370   4.072
47790W        W12951  11.037  33.467   1.944
47791W        W12952   5.556  42.047   2.853
47792W        W12953  26.008   0.464   1.963
47793W        W12954  26.726  24.948   0.911
47794W        W12955  14.352  41.557   1.391
47795W        W12956   0.857  24.667   0.651
47796W        W12957  39.370  11.182   1.644
47797W        W12958  16.713  29.255   0.169
47798W        W12959  22.731  33.843  14.352
47799W        W12960  39.811   7.212  14.069
47800W        W12961  37.767  32.010  10.305
47801W        W12962  23.658  30.647   0.827
47802W        W12963  36.244  22.724   2.796
47803W        W12964  28.507  12.699   0.016
47804W        W12965   0.813  29.632   0.188
47805W        W12966  21.160  16.230   4.065
47806W        W12967   9.831  39.452  10.450
47807W        W12968   6.365   9.782  11.094
47808W        W12969  40.378  36.870  10.625
47809W        W12970  44.435  37.122  14.972
47810W        W12971   5.983   8.790  12.998
47811W        W12972  31.340   9.811  11.535
47812W        W12973  33.069  35.517  10.464
47813W        W12974  18.320  35.328   2.504
47814W        W12975  33.835  24.707  11.552
47815W        W12976   7.761  28.955  10.881
47816W        W12977  20.957  15.695  12.350
47817W        W12978  41.983  13.607   3.383
47818W        W12979  42.673   7.477  13.359
47819W        W12980  13.355  21.722   4.394
47820W        W12981  31.582  35.490   0.402
47821W        W12982  24.719  34.827  11.389
47822W        W12983  26.961  25.410  12.403
47823W        W12984  21.008   9.234   2.706
47824W        W12985  19.650  31.213   0.341
47825W        W12986   5.185  36.494  10.455
47826W        W12987  11.459  36.947   2.322
47827W        W12988  22.690  10.138   1.265
47828W        W12989  42.257  40.114  12.460
47829W        W12990  24.129  32.264   4.617
47830W        W12991  35.539  15.688   2.342
47831W        W12992   3.293   3.046   3.697
47832W        W12993  42.935   3.420  11.231
47833W        W12994  37.653   1.479   4.834
47834W        W12995  40.458  24.985  12.566
47835W        W12996  38.478   8.321  14.498
47836W        W12997  21.843  24.686  12.533
47837W        W12998  32.399  26.907   3.604
47838W        W12999  38.108  36.584  14.831
47839W        W13000   4.076   4.086  14.737
47840W        W13001  25.081  36.421  10.228
47841W        W13002  14.751  29.732   4.338
47842W        W13003  30.683  30.482   2.370
47843W        W13004  30.186  21.190  12.434
47844W        W13005  26.667  17.715   1.400
47845W        W13006   1.162  19.067  14.395
47846W        W13007  23.989  10.619   0.779
47847W        W13008  21.068  34.445   3.186
47848W        W13009  13.499  43.335   1.903
47849W        W13010  41.575  38.438  12.250
47850W        W13011  43.968   8.707   1.456
47851W        W13012  31.493  44.999  11.130
47852W        W13013  40.313  42.154  14.187
47853W        W13014   3.758   8.298   4.312
47854W        W13015  18.887  22.560  13.152
47855W        W13016  10.191   0.874   1.622
47856W        W13017   5.856  40.053   1.849
47857W        W13018  37.519  36.057   2.689
47858W        W13019  40.395  16.743   2.956
47859W        W13020   3.026   3.019  12.467
47860W        W13021  37.948   5.251  13.732
47861W        W13022  18.633  32.845   2.779
47862W        W13023  15.281  18.122   4.434
47863W        W13024  42.775   7.235   4.109
47864W        W13025   3.944  38.939   2.808
47865W        W13026   4.449  18.312   1.643
47866W        W13027   9.593  13.316  13.986
47867W        W13028  14.278   5.367   0.560
47868W        W13029  15.885  33.657   2.828
47869W        W13030   1.149   6.587  14.089
47870W        W13031   9.979  26.220   2.694
47871W        W13032  37.043  43.441   2.744
47872W        W13033  19.250  33.992   1.252
47873W        W13034  42.381  11.657  11.995
47874W        W13035  13.994   2.869  14.033
47875W        W13036  41.447  37.840   0.323
47876W        W13037  15.763  39.279  12.628
47877W        W13038  29.097   3.958  13.983
47878W        W13039  39.443  31.644  14.101
47879W        W13040  35.417  37.771   4.015
47880W        W13041  44.863   6.363  14.992
47881W        W13042   9.860  41.232  12.014
47882W        W13043  18.105  20.983  14.362
47883W        W13044  22.043  17.083   1.695
47884W        W13045  27.506  27.094   0.474
47885W        W13046   9.473  10.218  10.802
47886W        W13047  29.075   6.402   3.682
47887W        W13048  35.896   6.985  11.717
47888W        W13049  34.606  13.115   4.028
47889W        W13050   6.661  43.689  12.905
47890W        W13051  34.887  29.364   0.307
47891W        W13052  23.643   0.794  11.090
47892W        W13053   6.018   7.747   1.411
47893W        W13054  21.613  30.632  11.568
47894W        W13055  30.905  14.066   2.612
47895W        W13056   4.179  42.332  14.339
47896W        W13057   4.070  23.002  10.751
47897W        W13058   8.800   7.948  13.610
47898W        W13059  29.678  42.715   1.714
47899W        W13060   5.131   9.276   2.328
47900W        W13061  22.791  19.429   0.611
47901W        W13062  32.377   2.249  14.406
47902W        W13063   5.681  32.607   2.275
47903W        W13064  11.143  44.765  14.836
47904W        W13065  15.587   4.278   0.962
47905W        W13066   3.838  35.642   4.608
47906W        W13067  14.886  25.195  13.407
47907W        W13068  34.994  23.325  12.637
47908W        W13069   4.758  32.039  10.699
47909W        W13070  24.480  29.085   3.105
47910W        W13071  12.166  32.419   1.001
47911W        W13072  44.238  18.783  13.543
47912W        W13073  20.194   2.751  14.974
47913W        W13074   5.929   5.679   3.769
47914W        W13075  39.348  43.331   4.431
47915W        W13076  30.972  16.743   1.403
47916W        W13077  25.612  13.210  13.980
47917W        W13078  19.963  39.251   9.696
47918W        W13079  14.763   9.292  10.769
47919W        W13080   6.725  12.608   0.310
47920W        W13081  21.785  23.241   1.750
47921W        W13082   5.890   5.928   0.967
47922W        W13083  39.190   3.936  13.435
47923W        W13084   7.937  23.019  12.534
47924W        W13085  11.407  37.468  12.377
47925W        W13086  13.802   2.137   3.280
47926W        W13087  43.994  28.972   2.399
47927W        W13088  15.120  31.971  14.867
47928W        W13089  13.811  25.684   3.400
47929W        W13090  12.358  44.512   2.849
47930W        W13091  39.979  31.466  13.784
47931W        W13092   8.664  29.287  12.930
47932W        W13093  44.814  14.190  11.234
47933W        W13094  15.260  13.383  10.682
47934W        W13095  31.637   5.573  12.596
47935W        W13096  27.039   3.748   1.333
47936W        W13097  29.894  38.564  13.853
47937W        W13098  36.331  26.091  13.871
47938W        W13099  33.018  42.441  13.179
47939W        W13100   6.829  43.393   2.656
47940W        W13101  16.572  30.248  13.868
47941W        W13102   0.271  32.817  11.676
47942W        W13103  33.169  33.038   4.379
47943W        W13104  23.746  33.392  12.879
47944W        W13105  42.556   7.688   4.208
47945W        W13106  21.485   1.248  11.283
47946W        W13107  38.345  32.024  11.695
47947W        W13108  16.998  12.225  13.272
47948W        W13109   2.355  37.953  14.303
47949W        W13110  17.053  11.321   1.639
47950W        W13111  27.124   6.831  12.152
47951W        W13112   0.676  32.357  11.056
47952W        W13113   0.414  12.350  12.657
47953W        W13114   7.458  36.442   2.303
47954W        W13115   8.777  17.189   4.156
47955W        W13116  23.074  30.130  14.296
47956W        W13117  28.464  16.827  12.513
47957W        W13118  23.772  34.293  12.008
47958W        W13119   3.741  38.703   4.154
47959W        W13120  37.525  10.058  11.592
47960W        W13121  26.267  31.179  12.989
47961W        W13122  24.097  18.607  11.332
47962W        W13123  12.359  34.373  14.380
47963W        W13124  44.306   8.257  10.640
47964W        W13125   0.224  34.934   3.894
47965W        W13126  39.465   8.398   4.679
47966W        W13127  29.193  36.969   1.745
47967W        W13128  39.572   7.885  13.867
47968W        W13129   9.205  36.095   0.859
47969W        W13130  19.983  17.691   2.139
47970W        W13131  35.415  39.486  13.291
47971W        W13132   9.293  38.781  10.172
47972W        W13133  21.040  30.364  14.548
47973W        W13134  29.077   7.371  11.006
47974W        W13135  21.653  36.125   2.172
47975W        W13136   1.040  30.903  14.346
47976W        W13137  12.568  32.440   0.063
47977W        W13138  44.709  44.340  12.498
47978W        W13139   6.781  29.113   0.515
47979W        W13140  41.777  26.749   2.644
47980W        W13141  10.816  24.792   0.411
47981W        W13142   3.776  19.517  11.056
47982W        W13143   5.351  20.969  10.423
47983W        W13144  43.561  39.157   4.144
47984W        W13145   6.603  18.610   0.706
47985W        W13146  37.000  33.532   1.959
47986W        W13147  26.901  12.656  14.293
47987W        W13148  16.804  33.030   0.806
47988W        W13149   5.798  14.532   0.215
47989W        W13150   8.705  30.956  14.816
47990W        W13151  23.967   5.253  13.905
47991W        W13152  24.023   1.836   2.026
47992W        W13153  31.089  19.673   4.096
47993W        W13154  39.093  36.558   1.865
47994W        W13155  43.376  31.105   3.740
47995W        W13156   1.975  29.636  13.759
47996W        W13157  41.085  18.180  13.959
47997W        W13158  28.042  24.508  12.055
47998W        W13159   1.445  33.356   2.750
47999W        W13160  22.102  38.340  11.499
48000W        W13161  37.476  34.884   2.512
48001W        W13162  38.588  33.210  10.738
48002W        W13163  24.077   4.977   0.733
48003W        W13164  16.266  18.525  11.477
48004W        W13165  21.719   7.909   3.100
48005W        W13166  33.647  24.467  10.301
48006W        W13167  37.335  28.431  11.531
48007W        W13168  16.490  26.194  10.671
48008W        W13169  36.267  36.575  14.191
48009W        W13170   3.113  43.762  14.942
48010W        W13171  24.243  19.294  13.073
48011W        W13172  21.542  40.958  14.379
48012W        W13173  12.595  38.461  12.542
48013W        W13174   5.245  13.896   3.287
48014W        W13175   8.741  38.252   3.636
48015W        W13176  32.678   0.783   1.684
48016W        W13177  40.646  30.058  13.768
48017W        W13178  18.952  36.361   0.552
48018W        W13179   8.433  24.430  10.753
48019W        W13180   0.847  10.502   3.162
48020W        W13181  28.593  29.538   3.838
48021W        W13182   2.986  29.462  14.930
48022W        W13183  38.990  39.600  14.367
48023W        W13184  21.799   7.910  13.140
48024W        W13185  36.745  28.981   3.809
48025W        W13186  20.942   0.872   3.796
48026W        W13187  29.381  33.388  11.408
48027W        W13188  21.634  42.346   0.010
48028W        W13189  31.363  18.701   0.479
48029W        W13190  13.146  41.256   3.666
48030W        W13191   7.923  35.471   1.224
48031W        W13192  38.962  23.521   0.843
48032W        W13193   0.415  11.211  10.853
48033W        W13194   7.964  13.660   4.594
48034W        W13195  18.726   6.702   3.610
48035W        W13196  30.254   7.223  13.866
48036W        W13197   9.751  26.579  11.523
48037W        W13198  38.014  29.188   2.428
48038W        W13199  13.012   7.587  14.394
48039W        W13200  29.010  32.625   0.700
48040W        W13201  21.563  16.654   3.063
48041W        W13202  19.931   5.650   0.644
48042W        W13203  24.272  26.098   1.222
48043W        W13204  20.662   6.365   0.502
48044W        W13205  37.780  37.433  11.365
48045W        W13206  23.478  38.024   0.865
48046W        W13207  12.104   5.865   0.476
48047W        W13208  23.203  43.963   4.988
48048W        W13209  37.136  34.942  14.128
48049W        W13210  36.444  28.571   0.590
48050W        W13211  34.575  41.507  14.820
48051W        W13212  10.475  37.926  14.912
48052W        W13213  16.589  20.605   3.723
48053W        W13214  31.129  38.073   0.489
48054W        W13215   5.838  33.948   2.368
48055W        W13216  30.454  17.745   2.852
48056W        W13217   7.806  15.016  14.810
48057W        W13218  15.737  20.747  12.108
48058W        W13219  35.070  27.586  12.058
48059W        W13220   0.361   9.057   4.724
48060W        W13221  37.722   3.600   4.651
48061W        W13222  35.476  35.316   0.202
48062W        W13223  43.095  26.549  10.835
48063W        W13224  27.124  39.225  12.175
48064W        W13225  23.485  16.765   2.370
48065W        W13226  29.848   3.675  12.609
48066W        W13227   6.257  38.917  12.296
48067W        W13228  18.353   6.932  11.175
48068W        W13229  13.710  23.487   4.188
48069W        W13230   3.874  10.358  11.372
48070W        W13231  39.709   2.803  12.039
48071W        W13232   2.820  44.902   0.843
48072W        W13233  18.341  24.233   0.459
48073W        W13234  42.276  23.249  13.008
48074W        W13235  35.230  21.740   2.370
48075W        W13236  15.575  17.823   3.992
48076W        W13237  43.288  38.493  11.157
48077W        W13238  33.395  21.994  14.477
48078W        W13239  36.955  31.690   1.704
48079W        W13240   4.271  40.716  14.392
48080W        W13241   3.301  20.927   5.021
48081W        W13242   1.797  39.540   2.308
48082W        W13243  44.305  20.715  14.830
48083W        W13244  33.011  20.302  10.698
48084W        W13245  33.575  10.251   3.650
48085W        W13246  38.950  43.257   4.086
48086W        W13247   8.393  23.495  10.818
48087W        W13248  43.767  41.851  11.480
48088W        W13249  33.679  35.763   4.295
48089W        W13250  31.399  38.446   0.752
48090W        W13251  40.073  13.315   3.684
48091W        W13252  37.254  26.850  12.112
48092W        W13253  29.950  14.076  12.396
48093W        W13254  24.367  19.411  11.048
48094W        W13255   5.938  40.577   1.677
48095W        W13256  13.190   4.791   4.115
48096W        W13257   6.440  37.817  11.979
48097W        W13258  23.586  24.354  13.876
48098W        W13259  12.297   0.990   4.511
48099W        W13260  42.981  16.102  11.841
48100W        W13261  40.766  11.576   1.705
48101W        W13262  29.920   6.485  12.074
48102W        W13263  41.770   6.925  14.839
48103W        W13264  12.077  30.874  13.887
48104W        W13265  39.058  29.119  14.960
48105W        W13266  20.053  29.428  14.565
48106W        W13267  40.552  17.287   1.297
48107W        W13268  39.509  36.540  14.828
48108W        W13269  23.211  18.580  10.938
48109W        W13270   5.708  41.946  13.939
48110W        W13271  29.113  40.249   0.015
48111W        W13272  37.495  12.317   4.323
48112W        W13273   4.352  35.256   3.863
48113W        W13274  31.571  24.425   2.770
48114W        W13275  24.569  26.915  13.560
48115W        W13276   7.222  31.926   3.789
48116W        W13277  13.065   7.301  13.442
48117W        W13278  36.627   2.675  14.293
48118W        W13279  28.425  36.415   1.199
48119W        W13280  17.077   5.772  10.692
48120W        W13281  38.604  15.196  13.526
48121W        W13282  33.465  22.499  14.421
48122W        W13283  28.168   0.528  11.137
48123W        W13284  44.265   1.386  13.246
48124W        W13285  25.082   8.234   2.437
48125W        W13286  42.889  37.990   2.309
48126W        W13287  10.821  42.988  13.359
48127W        W13288  20.483  23.022   0.688
48128W        W13289   5.204  24.507  13.452
48129W        W13290   4.814  26.129  13.951
48130W        W13291  26.789  24.629   0.056
48131W        W13292  21.695   6.745   0.998
48132W        W13293  19.715  32.039  13.883
48133W        W13294  22.062   5.911   3.638
48134W        W13295  40.942  40.723  11.146
48135W        W13296  39.006  44.108  11.567
48136W        W13297   6.665  38.599   1.926
48137W        W13298  30.859   5.391  13.936
48138W        W13299  36.308  25.796   0.818
48139W        W13300   0.673   3.832   2.248
48140W        W13301  39.047  13.052  10.621
48141W        W13302  16.265   1.359   3.636
48142W        W13303  17.293  20.655  12.000
48143W        W13304  19.926  31.992  10.860
48144W        W13305  16.704   2.721  14.730
48145W        W13306  41.880  33.422   3.103
48146W        W13307  21.693  33.998   0.666
48147W        W13308   8.538   8.857   4.667
48148W        W13309  35.800   3.762  12.460
48149W        W13310  23.948  27.148   2.289
48150W        W13311   5.382  43.329  11.505
48151W        W13312  21.478   7.242  12.476
48152W        W13313   3.922  10.881  11.190
48153W        W13314   0.057  31.407   1.351
48154W        W13315  27.651  31.591  12.626
48155W        W13316  16.778   3.111   2.810
48156W        W13317  34.132  30.212   5.025
48157W        W13318  12.075   8.669   2.684
48158W        W13319   5.253   7.876  11.646
48159W        W13320  11.686  19.371  10.886
48160W        W13321  13.173  11.793   3.221
48161W        W13322  15.697  29.936  13.759
48162W        W13323  42.237  30.945  13.117
48163W        W13324  41.994  44.043   0.339
48164W        W13325   8.425  42.955  10.699
48165W        W13326   9.726  28.618  11.539
48166W        W13327  38.165   2.248  11.484
48167W        W13328  38.483  25.022  14.857
48168W        W13329  17.398   3.838  10.821
48169W        W13330   6.738  17.629  13.500
48170W        W13331  40.402  22.987   1.232
48171W        W13332  12.858   7.440   0.663
48172W        W13333  33.999  19.719  11.558
48173W        W13334  20.974   9.832  10.439
48174W        W13335  41.540  11.671  11.911
48175W        W13336  42.768  25.194   0.297
48176W        W13337  30.891  40.844   9.793
48177W        W13338   1.447  23.760   0.009
48178W        W13339  23.050  21.941  11.939
48179W        W13340  22.141  11.619  13.333
48180W        W13341  20.966  21.682   4.984
48181W        W13342  15.257   7.141  12.893
48182W        W13343  17.042  41.975   1.261
48183W        W13344  41.384  18.754   3.644
48184W        W13345  32.358  32.601  12.076
48185W        W13346  15.239  15.849   3.819
48186W        W13347  23.782   8.279  13.689
48187W        W13348  33.138  38.869   0.533
48188W        W13349  12.636  26.561  12.869
48189W        W13350  39.283  21.636  11.662
48190W        W13351   1.771   7.712   0.936
48191W        W13352   7.836  24.519   2.815
48192W        W13353   2.471  25.965  13.999
48193W        W13354  20.652  38.333  12.475
48194W        W13355  32.082  25.605  13.354
48195W        W13356  26.403  25.766   3.881
48196W        W13357   5.882  38.888   4.287
48197W        W13358   4.479  39.296  14.528
48198W        W13359  29.093  30.544   4.570
48199W        W13360   0.813  39.075   2.396
48200W        W13361  40.986   4.935  14.551
48201W        W13362  11.157  41.826   0.827
48202W        W13363  13.624  34.079   2.258
48203W        W13364  15.811  24.047   0.405
48204W        W13365  39.512  23.021   1.214
48205W        W13366  13.114  19.030   0.250
48206W        W13367  12.198  24.871  12.800
48207W        W13368   6.132  28.065   5.782
48208W        W13369  23.046  44.584   0.336
48209W        W13370  19.175   3.747  13.727
48210W        W13371  12.009  29.957   0.358
48211W        W13372  15.417  28.197   4.188
48212W        W13373  12.091  12.856  12.759
48213W        W13374   1.200  35.443   1.336
48214W        W13375  24.283  29.618   1.369
48215W        W13376  12.611  43.386  14.248
48216W        W13377  26.208   0.928  14.934
48217W        W13378   8.280   1.982  11.127
48218W        W13379  42.051  30.559  11.157
48219W        W13380  15.625  15.194  13.532
48220W        W13381   0.432  43.481  12.134
48221W        W13382   8.324  24.190  14.796
48222W        W13383   5.305   3.794   2.812
48223W        W13384  37.053  36.639   2.476
48224W        W13385  15.384  41.019  14.396
48225W        W13386  30.683  12.985  13.926
48226W        W13387  21.297  25.600   4.125
48227W        W13388  39.426  36.592   3.166
48228W        W13389  23.421  31.633  11.137
48229W        W13390   1.444  27.801   3.614
48230W        W13391   8.452  12.265   4.545
48231W        W13392   2.387  20.371   4.051
48232W        W13393  17.525   3.344   4.120
48233W        W13394  36.266  12.104   3.085
48234W        W13395  23.023   6.213   3.717
48235W        W13396   9.367  40.350   0.706
48236W        W13397  18.487  23.224   3.623
48237W        W13398  15.149  26.950   0.962
48238W        W13399  14.883  26.660  12.159
48239W        W13400  10.429  31.967   1.854
48240W        W13401  20.453  35.650   0.364
48241W        W13402  30.950   6.762  14.101
48242W        W13403  33.949   0.415   0.217
48243W        W13404  18.094  33.485   0.775
48244W        W13405  14.885  18.295  12.438
48245W        W13406  15.865  38.175   5.304
48246W        W13407  34.420  15.078   4.023
48247W        W13408   3.242  36.971  13.383
48248W        W13409  43.243   4.232  12.533
48249W        W13410  33.895  22.469   2.731
48250W        W13411  14.505  23.678   4.813
48251W        W13412  17.751  29.520  14.376
48252W        W13413  34.395  43.786  12.806
48253W        W13414  41.310  35.050   3.349
48254W        W13415  28.231  37.839  12.508
48255W        W13416  22.333  39.038   4.061
48256W        W13417  16.771   5.643   2.797
48257W        W13418  39.582   4.333   4.782
48258W        W13419  15.300   6.106  11.187
48259W        W13420  33.076  32.984   4.945
48260W        W13421  17.274  41.055  13.617
48261W        W13422  26.260   7.773  11.505
48262W        W13423  19.164  12.790  10.957
48263W        W13424  30.525  33.098   2.868
48264W        W13425  12.393   2.465  11.227
48265W        W13426  12.204  41.738   1.389
48266W        W13427  38.413   7.686   0.773
48267W        W13428   6.887  18.490   0.224
48268W        W13429  22.010  24.993  14.398
48269W        W13430  17.520   3.394  13.570
48270W        W13431   6.653  24.134   3.840
48271W        W13432  29.504  39.415  13.950
48272W        W13433  13.397  14.164   5.004
48273W        W13434   1.370   3.234   0.260
48274W        W13435  29.244  26.483   1.767
48275W        W13436  41.831  16.699   4.908
48276W        W13437   1.124   2.241   3.259
48277W        W13438  29.709  27.593  14.008
48278W        W13439  17.287  10.897  13.363
48279W        W13440  24.105  43.479   4.688
48280W        W13441  18.714  42.596   1.391
48281W        W13442   3.884  27.046  13.351
48282W        W13443  15.783  32.555  12.942
48283W        W13444   1.996  13.560  12.454
48284W        W13445  27.434  16.277   2.283
48285W        W13446  44.524  10.962   1.492
48286W        W13447  11.431  32.768   1.008
48287W        W13448  32.864  26.051   3.482
48288W        W13449   2.496  29.549  12.845
48289W        W13450  26.909  14.210  13.382
48290W        W13451  27.471  25.185  13.481
48291W        W13452   8.270  20.525  13.531
48292W        W13453   4.338  43.760   2.206
48293W        W13454  10.369  17.620  13.270
48294W        W13455  43.884   8.792  11.309
48295W        W13456   6.487  28.332   0.908
48296W        W13457  10.697  32.134   3.118
48297W        W13458  25.277  42.480   0.243
48298W        W13459  13.588  12.314  13.854
48299W        W13460   1.682  26.526   4.930
48300W        W13461  40.261  27.519   3.605
48301W        W13462  20.552  41.863   4.366
48302W        W13463  15.308  16.557   2.628
48303W        W13464  15.982  34.368   4.143
48304W        W13465  20.204   7.663   0.864
48305W        W13466  23.563  16.229   4.119
48306W        W13467   8.472  27.121   4.999
48307W        W13468   4.105  17.610   2.271
48308W        W13469  19.400  25.543  10.646
48309W        W13470   1.982  16.797  13.843
48310W        W13471   4.238  39.277   1.950
48311W        W13472   1.799  11.079   3.758
48312W        W13473  40.120  19.618   2.341
48313W        W13474  14.655  17.281   2.728
48314W        W13475  33.032   0.369   1.684
48315W        W13476  33.306   5.665  12.902
48316W        W13477   1.853  26.243   1.288
48317W        W13478  15.638  42.985  11.882
48318W        W13479   6.942   6.759  14.691
48319W        W13480   3.942  36.644  11.009
48320W        W13481   4.986   8.188  12.356
48321W        W13482  31.419   0.491  10.935
48322W        W13483   0.936  38.129  11.892
48323W        W13484  23.553  16.807   3.822
48324W        W13485  21.051  10.044   1.255
48325W        W13486  29.567   8.150  14.382
48326W        W13487  17.288  43.437   2.790
48327W        W13488  19.336   9.303   3.260
48328W        W13489  44.125  30.206   1.741
48329W        W13490  35.118  25.408  11.127
48330W        W13491  26.552  44.928   4.066
48331W        W13492  41.762  39.007  11.374
48332W        W13493   1.464   6.336   1.950
48333W        W13494  35.336  25.927   1.761
48334W        W13495  15.725   7.549   2.265
48335W        W13496  22.194   7.582  11.051
48336W        W13497  22.477  39.172   4.575
48337W        W13498  23.580  30.422   2.336
48338W        W13499  24.020  19.589  14.456
48339W        W13500   1.718  43.077   0.291
48340W        W13501  17.997  27.511  10.741
48341W        W13502  11.400  38.750  14.301
48342W        W13503  28.640   7.573  11.568
48343W        W13504  38.005  20.490  12.547
48344W        W13505  33.485   6.469   5.105
48345W        W13506   5.676  41.325  10.413
48346W        W13507  42.868  18.908   0.537
48347W        W13508  30.674  23.481  13.107
48348W        W13509   9.866  12.858   1.758
48349W        W13510  18.041  38.951  12.898
48350W        W13511   9.100  12.220  11.503
48351W        W13512  36.297  37.887   0.821
48352W        W13513  40.671  19.615  14.524
48353W        W13514   8.273  19.659  12.521
48354W        W13515  32.386  42.049   1.285
48355W        W13516  21.449  39.699   9.689
48356W        W13517  19.771  12.242   5.020
48357W        W13518  13.788  43.622  13.819
48358W        W13519  26.519  17.315   2.680
48359W        W13520  18.542  18.208   2.963
48360W        W13521   5.805  34.595  10.847
48361W        W13522  19.267  34.978  12.027
48362W        W13523  23.103  39.147   1.767
48363W        W13524  18.677   0.976   0.338
48364W        W13525  36.960  12.348   1.788
48365W        W13526  42.812   1.897  14.393
48366W        W13527  27.140  37.252   0.285
48367W        W13528   2.790  43.448  14.661
48368W        W13529  44.955  10.695   2.683
48369W        W13530  31.227  25.587  10.183
48370W        W13531   8.718  23.096   2.916
48371W        W13532  42.542   6.149  13.063
48372W        W13533  20.418   0.896  11.500
48373W        W13534  40.912  28.546  13.162
48374W        W13535  14.609  11.564  13.081
48375W        W13536   5.146   0.554  11.038
48376W        W13537  41.334  42.754   4.761
48377W        W13538  31.008  32.861  11.102
48378W        W13539  37.479  27.635  12.831
48379W        W13540  42.964  27.645   4.731
48380W        W13541  27.493   3.793  14.301
48381W        W13542   3.462   6.352   2.622
48382W        W13543   1.404  26.205   0.399
48383W        W13544  17.571  28.819   2.748
48384W        W13545  13.864  19.832  14.746
48385W        W13546   0.291  30.316  14.764
48386W        W13547   4.854  40.764   4.945
48387W        W13548  15.718  41.963  13.760
48388W        W13549  27.416  39.334  14.706
48389W        W13550  15.179   1.537   1.391
48390W        W13551   8.767  22.712   2.370
48391W        W13552  17.378   9.873  11.979
48392W        W13553  40.399  14.563  11.208
48393W        W13554   1.408   4.261  11.982
48394W        W13555   7.433  40.756   0.070
48395W        W13556  10.714   7.691  14.379
48396W        W13557   8.918  24.434  13.914
48397W        W13558  42.388  26.976  11.007
48398W        W13559  36.833  39.512  11.172
48399W        W13560   1.355   5.880  13.296
48400W        W13561   1.499  14.244  13.291
48401W        W13562  22.193  34.092   0.489
48402W        W13563  30.403  38.498   3.632
48403W        W13564   3.440   7.203   4.042
48404W        W13565   4.592  33.097  12.010
48405W        W13566  16.594  29.691  14.793
48406W        W13567  35.827   1.989   0.306
48407W        W13568  13.898  15.200  11.912
48408W        W13569   3.516  27.674  12.053
48409W        W13570  39.903  33.085  11.559
48410W        W13571  44.318  26.920  11.041
48411W        W13572  16.738  24.234  10.500
48412W        W13573  31.533  42.758  14.347
48413W        W13574  21.216  20.195  14.917
48414W        W13575  38.782  29.426   4.919
48415W        W13576  11.956  27.648  10.153
48416W        W13577   5.179  30.200   1.885
48417W        W13578  16.984   2.705  12.534
48418W        W13579  35.480  25.494   0.776
48419W        W13580   4.199   3.987   4.760
48420W        W13581  20.637  10.059  13.977
48421W        W13582  20.106  24.220  11.038
48422W        W13583  35.297  32.689  12.401
48423W        W13584  17.561  37.930  12.405
48424W        W13585  19.576  11.711   2.169
48425W        W13586  38.578  43.518   0.310
48426W        W13587  43.382   0.394  14.537
48427W        W13588   3.079  17.797  11.429
48428W        W13589   7.939  40.120   0.327
48429W        W13590  12.057  35.037  13.828
48430W        W13591  10.421  28.699   0.791
48431W        W13592  11.370  10.822   4.420
48432W        W13593   8.157  35.928  13.919
48433W        W13594  13.853  38.448   1.760
48434W        W13595  26.198  23.977   1.191
48435W        W13596  12.695   6.272  14.541
48436W        W13597   9.363  35.974  14.244
48437W        W13598  10.714  34.090   0.956
48438W        W13599  22.704  12.129  12.124
48439W        W13600  23.384   8.930   3.733
48440W        W13601  41.845   9.939   1.162
48441W        W13602  11.295  21.334   9.906
48442W        W13603  35.634  23.146   4.929
48443W        W13604  38.555  13.155  11.510
48444W        W13605  24.503  32.281  12.516
48445W        W13606  13.712  25.203  10.531
48446W        W13607  42.110  32.384   1.141
48447W        W13608  27.081  29.955  10.705
48448W        W13609  39.914  22.331  13.084
48449W        W13610  27.921  20.741   3.176
48450W        W13611  29.007  10.219  13.099
48451W        W13612  17.519  27.684  10.595
48452W        W13613  36.110  10.301   1.510
48453W        W13614  24.150   0.636  12.691
48454W        W13615   3.386  22.624   4.135
48455W        W13616  27.560  37.761   2.334
48456W        W13617   6.918  32.687  11.559
48457W        W13618  43.867  35.135  11.959
48458W        W13619  29.609  25.418   4.095
48459W        W13620  16.188  35.035  13.514
48460W        W13621  13.855  42.385  12.364
48461W        W13622   3.093  43.503   0.447
48462W        W13623  20.906  20.662   4.081
48463W        W13624   7.344  43.378  14.840
48464W        W13625   8.376  17.524   0.508
48465W        W13626  36.360   7.332   0.306
48466W        W13627  27.142  27.755   2.301
48467W        W13628  33.015  39.836  12.406
48468W        W13629  29.884  33.924   1.453
48469W        W13630  15.082  24.945   1.378
48470W        W13631   1.987   2.542  13.446
48471W        W13632  20.463   3.196  12.554
48472W        W13633  36.314  22.534   4.560
48473W        W13634   0.008  11.246  14.893
48474W        W13635  12.209  33.622  12.454
48475W        W13636  44.435  24.030  12.508
48476W        W13637   2.513   7.333   3.186
48477W        W13638  27.277  17.189  14.786
48478W        W13639  10.556   0.181  11.710
48479W        W13640  43.949  24.196   3.746
48480W        W13641  37.518  34.595   3.901
48481W        W13642  37.455  31.480   0.283
48482W        W13643  43.822  43.898   4.419
48483W        W13644  12.603  36.158  12.070
48484W        W13645  19.182  17.951  14.090
48485W        W13646  33.488  19.879  12.150
48486W        W13647  40.828  10.453   3.754
48487W        W13648  37.413  11.577  13.317
48488W        W13649  35.121  24.242  12.725
48489W        W13650  14.068  19.443   2.853
48490W        W13651  36.172   6.748  13.437
48491W        W13652  20.579   4.364   3.570
48492W        W13653  18.865   7.790   4.495
48493W        W13654  11.209   6.871   0.343
48494W        W13655  19.782  27.695   1.320
48495W        W13656  37.726  44.683   0.853
48496W        W13657  41.870   8.151   4.094
48497W        W13658  41.265  22.331  13.967
48498W        W13659  35.026   4.442   3.577
48499W        W13660  10.949  40.617  11.086
48500W        W13661  32.545  41.785  14.875
48501W        W13662   3.427  29.005   1.648
48502W        W13663  40.115  33.677  14.340
48503W        W13664  14.063   0.735   0.692
48504W        W13665  29.000  38.953  14.561
48505W        W13666  35.077  22.775   2.269
48506W        W13667   6.701   3.523   4.110
48507W        W13668  18.718  34.045  11.003
48508W        W13669  19.551  31.518   2.899
48509W        W13670  38.774   4.461  11.548
48510W        W13671  39.801  13.519   4.062
48511W        W13672  37.094  15.301  13.391
48512W        W13673  24.292  16.912   1.977
48513W        W13674  32.950  11.266   1.676
48514W        W13675   2.283  18.349   0.973
48515W        W13676  28.487  40.338  12.882
48516W        W13677  33.042  43.713  12.653
48517W        W13678   2.880   8.447  11.691
48518W        W13679  37.538  32.603   2.689
48519W        W13680  44.847  19.471   4.109
48520W        W13681  29.508  42.607   3.892
48521W        W13682  43.936  27.312  13.943
48522W        W13683   1.224  27.013   1.283
48523W        W13684  36.334  26.576   1.398
48524W        W13685  25.640  35.005  12.439
48525W        W13686  26.494   6.853  10.490
48526W        W13687  10.267  28.749  10.006
48527W        W13688  31.503  11.466  13.484
48528W        W13689  21.697   4.052   0.677
48529W        W13690  30.491  32.143   2.724
48530W        W13691  27.122   4.130   4.288
48531W        W13692   3.472  19.665   1.251
48532W        W13693  13.067  40.144  11.533
48533W        W13694  17.084  33.146  14.758
48534W        W13695  21.220  44.825   0.956
48535W        W13696   6.831   5.918   0.961
48536W        W13697   8.866  37.285   0.853
48537W        W13698  33.050   9.809   4.871
48538W        W13699   2.398  10.744   5.144
48539W        W13700  35.162  16.269   2.721
48540W        W13701  28.563  18.058  11.687
48541W        W13702   8.483  34.119   3.199
48542W        W13703  29.853   8.351  13.782
48543W        W13704  43.898  15.560   0.232
48544W        W13705  21.227  42.255   3.719
48545W        W13706  30.932  26.427   3.710
48546W        W13707  40.326  30.294   4.483
48547W        W13708  34.900  34.149   2.370
48548W        W13709   5.740   1.979  13.729
48549W        W13710   2.960  38.502  13.939
48550W        W13711  25.157   3.819   0.225
48551W        W13712  22.901  30.009  10.399
48552W        W13713  20.709  31.070   3.834
48553W        W13714  21.293  11.188   0.035
48554W        W13715  12.707  42.799  11.030
48555W        W13716  24.197  26.359  14.047
48556W        W13717   0.676   0.842   3.469
48557W        W13718  13.189  35.395  13.148
48558W        W13719   7.120  41.686  13.365
48559W        W13720  20.299   1.823  12.018
48560W        W13721  25.248   8.535  11.225
48561W        W13722  26.565   2.879   1.415
48562W        W13723   4.917   3.131   5.016
48563W        W13724  42.540  41.503   0.839
48564W        W13725   5.246   8.378  12.861
48565W        W13726  41.542   1.283   1.418
48566W        W13727  39.859  10.403   1.893
48567W        W13728  35.257  30.455   2.701
48568W        W13729  30.164   2.197   1.765
48569W        W13730  10.336  11.689   4.597
48570W        W13731  37.312   7.937   0.347
48571W        W13732  24.752  23.841  10.744
48572W        W13733   7.772  41.027   9.988
48573W        W13734  25.795  35.317   4.727
48574W        W13735  16.290  30.873   1.942
48575W        W13736   4.729  42.535   3.220
48576W        W13737  21.166  21.792  12.850
48577W        W13738   3.287  20.993   0.911
48578W        W13739  43.275  40.062  14.423
48579W        W13740  24.990  37.780  13.669
48580W        W13741  16.438  16.102   1.940
48581W        W13742  44.313  35.044  14.472
48582W        W13743   3.722   8.316  13.398
48583W        W13744   1.382  26.955   2.155
48584W        W13745   4.672  17.289   3.727
48585W        W13746  38.595   9.500  12.882
48586W        W13747  42.801  43.693  14.869
48587W        W13748  20.762  26.029   3.153
48588W        W13749  15.884  19.596   0.482
48589W        W13750   5.296  35.114   3.380
48590W        W13751  44.600   7.219   0.284
48591W        W13752  21.747  33.827  10.412
48592W        W13753   9.640  27.654   1.372
48593W        W13754  22.675  15.775  11.442
48594W        W13755  39.737  44.681   3.197
48595W        W13756   0.763  36.839   1.318
48596W        W13757  43.973  40.498  10.721
48597W        W13758   0.147  42.269  10.426
48598W        W13759  12.732  32.468   4.106
48599W        W13760   6.428   5.548   3.041
48600W        W13761  20.451  20.995  12.915
48601W        W13762  31.694  17.419   1.546
48602W        W13763  16.164   6.823   2.479
48603W        W13764  36.083  18.647  10.717
48604W        W13765   1.110   9.348  10.694
48605W        W13766  11.380  24.590   2.885
48606W        W13767  30.698  36.208  14.960
48607W        W13768   8.388  29.531  13.311
48608W        W13769  26.497  34.511   2.579
48609W        W13770   6.630  26.121  13.115
48610W        W13771  28.573  11.153   4.000
48611W        W13772   5.208  13.759   0.229
48612W        W13773  42.024  22.757  10.752
48613W        W13774  34.613   4.168  13.028
48614W        W13775  42.795   6.868  12.087
48615W        W13776   4.845   7.233  13.829
48616W        W13777  36.833  25.935  13.928
48617W        W13778  34.301  28.130   3.849
48618W        W13779  36.198  29.819  12.552
48619W        W13780  23.823  44.417  11.364
48620W        W13781  38.741  20.266   4.450
48621W        W13782  27.044   9.847  11.275
48622W        W13783  11.596  22.243  10.213
48623W        W13784  19.186  30.517  12.624
48624W        W13785   0.526  41.809   1.937
48625W        W13786  18.727  33.093  13.029
48626W        W13787  11.694   4.815   2.718
48627W        W13788  12.866  17.782  11.107
48628W        W13789  21.021  39.885  10.101
48629W        W13790   2.457  13.848  14.737
48630W        W13791   7.171  12.040  10.650
48631W        W13792  30.570  31.886  13.993
48632W        W13793  39.540   7.116  14.525
48633W        W13794  16.059  35.258  12.539
48634W        W13795  26.080   1.808  10.601
48635W        W13796  19.268  23.550   2.812
48636W        W13797  10.154  19.015  14.421
48637W        W13798  13.279  44.498   2.416
48638W        W13799  40.525  29.405   3.572
48639W        W13800  17.293  14.234   2.383
48640W        W13801  10.075  24.277   3.665
48641W        W13802  32.025  18.287   5.047
48642W        W13803  13.225  28.633   0.467
48643W        W13804  37.533  20.900  13.482
48644W        W13805  16.198  38.092  13.464
48645W        W13806  23.682  24.343  12.987
48646W        W13807   8.529  28.819   2.626
48647W        W13808  14.363  24.555   0.210
48648W        W13809  41.409  22.640   0.384
48649W        W13810  33.102  44.212   2.349
48650W        W13811  32.819  20.595  13.635
48651W        W13812  37.344  26.046  11.969
48652W        W13813   3.136  42.339   1.132
48653W        W13814  27.282  12.610  11.655
48654W        W13815   4.732  38.018   2.300
48655W        W13816  16.037  22.533  11.859
48656W        W13817  38.007  11.362  11.211
48657W        W13818   7.092   8.450  12.523
48658W        W13819  34.968  27.066  13.307
48659W        W13820   8.993  27.891   4.179
48660W        W13821  34.927   7.682  11.242
48661W        W13822   8.195  29.094   3.121
48662W        W13823  30.353  34.998   1.382
48663W        W13824  41.341  34.007  11.200
48664W        W13825   5.247  22.920   2.400
48665W        W13826  21.744  28.387   0.447
48666W        W13827  22.675  10.739  11.011
48667W        W13828  44.961  15.370  11.213
48668W        W13829  15.734  27.619   0.444
48669W        W13830  36.876   1.353  12.181
48670W        W13831  44.157  13.756   0.338
48671W        W13832  17.277   1.258   3.651
48672W        W13833  15.807  24.072  12.321
48673W        W13834  41.290  19.613  14.749
48674W        W13835  23.691  30.959  12.120
48675W        W13836   1.700  13.808  13.985
48676W        W13837   2.430  30.327   0.980
48677W        W13838  16.871  31.823  10.546
48678W        W13839  11.688  29.239   2.419
48679W        W13840  39.907  26.442  10.524
48680W        W13841  16.258   2.870   1.367
48681W        W13842  12.938  20.174  13.149
48682W        W13843  40.501  28.624   4.828
48683W        W13844  43.515  29.651  11.431
48684W        W13845  37.845  21.639  14.402
48685W        W13846  38.952  41.632   4.850
48686W        W13847  11.827  27.163  11.354
48687W        W13848  11.880  23.229  11.149
48688W        W13849  10.480  26.956  11.032
48689W        W13850  42.852   3.938   1.330
48690W        W13851  10.815   3.750  12.466
48691W        W13852  15.431   4.115  12.037
48692W        W13853   6.141   3.227   0.873
48693W        W13854  18.537  17.669  14.237
48694W        W13855  13.077  42.697  14.032
48695W        W13856  25.253  21.587   5.122
48696W        W13857  43.983  17.912   1.461
48697W        W13858  17.759  21.187  14.012
48698W        W13859  35.311   2.011   0.787
48699W        W13860   8.855  29.402   4.205
48700W        W13861   1.313  31.636   3.686
48701W        W13862  17.338  38.042  11.065
48702W        W13863  36.851  27.720  13.918
48703W        W13864  14.737  22.460   3.393
48704W        W13865  26.735   5.661   4.036
48705W        W13866  25.656  29.696   4.168
48706W        W13867  38.390   8.554   1.056
48707W        W13868   2.005   2.010   4.509
48708W        W13869  17.338  23.389  11.244
48709W        W13870  28.693  26.935   5.706
48710W        W13871  10.032   6.510   2.412
48711W        W13872  32.085   1.951   0.284
48712W        W13873  24.710  26.003   2.161
48713W        W13874  23.471  17.588  14.241
48714W        W13875  28.945   2.745   4.108
48715W        W13876  23.172  15.234  13.437
48716W        W13877   3.400   6.900  11.246
48717W        W13878  38.415  12.055  12.713
48718W        W13879   8.125  26.542   2.452
48719W        W13880   3.947  21.645   2.229
48720W        W13881  25.185  19.049  12.821
48721W        W13882  27.009  37.804   3.176
48722W        W13883  35.089  42.865  12.927
48723W        W13884  23.434  16.823  13.176
48724W        W13885  43.880  30.942   2.660
48725W        W13886  32.529  26.966  11.235
48726W        W13887  30.429  38.367   2.188
48727W        W13888  41.240  36.942   1.210
48728W        W13889  11.854  43.837  14.519
48729W        W13890  44.811  22.498  10.806
48730W        W13891  15.523  37.833  14.465
48731W        W13892   8.791  25.452   0.856
48732W        W13893  17.959  44.401  10.596
48733W        W13894  34.791  30.922   1.287
48734W        W13895  34.146  11.276  14.382
48735W        W13896  16.036  24.234  11.449
48736W        W13897  12.081  18.688  14.503
48737W        W13898  20.780  18.625  13.463
48738W        W13899  37.372  41.901  14.269
48739W        W13900  22.167  30.189   2.511
48740W        W13901  20.293  26.533  14.302
48741W        W13902  11.897  10.224   0.278
48742W        W13903   1.973  42.029   1.922
48743W        W13904  26.113   2.402  14.854
48744W        W13905  36.330  14.011  14.787
48745W        W13906  30.423   4.273   1.206
48746W        W13907  11.796   6.631   1.036
48747W        W13908  20.246   3.747   3.583
48748W        W13909  24.419   4.872   1.608
48749W        W13910  17.256  15.694   9.957
48750W        W13911  28.543  24.433  12.933
48751W        W13912   4.318  33.662   1.845
48752W        W13913  14.868   6.357   0.804
48753W        W13914  19.321   9.371  11.847
48754W        W13915  18.423   2.951   3.165
48755W        W13916  42.243  10.293  14.712
48756W        W13917  28.419  40.971   4.009
48757W        W13918   5.859  31.496   1.190
48758W        W13919  20.275   2.197   2.421
48759W        W13920  28.172  11.871  14.926
48760W        W13921  43.377  20.177   2.168
48761W        W13922  11.714  43.024   0.894
48762W        W13923   1.918  33.820   3.517
48763W        W13924  42.869  42.710   4.156
48764W        W13925  43.322  31.540  14.759
48765W        W13926  35.571   4.407  12.826
48766W        W13927  41.732   0.525   1.770
48767W        W13928  26.355  12.681   2.359
48768W        W13929  39.469  22.337  14.894
48769W        W13930   5.689   3.370   4.383
48770W        W13931  15.157   7.117  11.111
48771W        W13932   6.802  25.910   1.818
48772W        W13933  25.098  34.622  14.002
48773W        W13934  24.715  34.927  11.900
48774W        W13935  17.714  40.740   3.226
48775W        W13936  24.761  18.886   2.859
48776W        W13937  28.354  27.146   1.826
48777W        W13938   9.636   4.974  11.934
48778W        W13939  26.182   4.233   4.227
48779W        W13940  29.214   5.324  11.878
48780W        W13941  33.496  13.893   1.340
48781W        W13942  14.892  18.619  10.198
48782W        W13943   8.283  22.970   1.308
48783W        W13944  11.254   1.647   1.803
48784W        W13945  28.491  29.763  11.643
48785W        W13946   8.760   8.909  11.115
48786W        W13947  30.426  25.286  13.945
48787W        W13948  39.826   0.391   0.701
48788W        W13949  38.040  14.469   1.347
48789W        W13950  21.766  37.050  14.381
48790W        W13951  27.938  35.190   3.653
48791W        W13952   8.243  43.269  14.891
48792W        W13953  13.717  14.241  10.632
48793W        W13954   2.715  30.613   1.402
48794W        W13955  40.263   3.675  12.707
48795W        W13956   9.374   0.221  13.347
48796W        W13957  41.885  15.765  11.281
48797W        W13958   1.902  12.210  10.710
48798W        W13959  20.083  12.546   4.738
48799W        W13960  38.920  44.160   4.845
48800W        W13961  17.807  31.903  13.984
48801W        W13962  30.517  21.606   2.714
48802W        W13963  17.030  40.084  12.476
48803W        W13964  18.628  15.566  13.111
48804W        W13965  39.165  24.564  11.612
48805W        W13966  39.075  29.241  12.471
48806W        W13967  17.349  19.543   3.344
48807W        W13968  12.855   8.653   0.104
48808W        W13969   7.481  15.552  13.450
48809W        W13970   7.076  11.635   1.645
48810W        W13971  28.674  41.122  12.551
48811W        W13972  25.619  15.784  12.764
48812W        W13973  27.184  29.919   3.269
48813W        W13974  32.883   5.959  11.981
48814W        W13975  32.224  10.888   5.166
48815W        W13976  32.112   0.215  13.353
48816W        W13977  27.501  22.140   3.437
48817W        W13978  21.296  18.678  12.458
48818W        W13979   8.292  10.767   1.336
48819W        W13980  18.201  11.385  12.665
48820W        W13981  35.468  10.333   3.621
48821W        W13982  43.263  42.852  13.420
48822W        W13983  11.867  41.843   2.233
48823W        W13984  17.657  38.136  13.547
48824W        W13985  14.350  26.525   5.025
48825W        W13986  36.621  10.188   4.102
48826W        W13987   1.650  41.477   4.657
48827W        W13988  38.828  16.758   2.242
48828W        W13989  41.348  16.145  14.434
48829W        W13990  33.912  40.467   5.323
48830W        W13991  20.074  23.016  12.552
48831W        W13992  43.769  35.561  11.691
48832W        W13993  10.954  27.473   3.277
48833W        W13994   8.178  33.472   3.897
48834W        W13995  37.630  42.484   0.401
48835W        W13996   7.227  40.864  12.486
48836W        W13997  21.521   2.272   5.048
48837W        W13998  40.985  11.690   2.165
48838W        W13999  34.812  12.628   3.870
48839W        W14000  21.801  30.641   1.789
48840W        W14001  41.405  19.287  11.664
48841W        W14002  35.007  13.140  11.184
48842W        W14003  24.442  43.389   1.305
48843W        W14004   8.844   5.119   0.918
48844W        W14005   7.213  36.804  13.968
48845W        W14006  19.814  39.313   1.838
48846W        W14007  13.081  26.361  10.756
48847W        W14008  17.252  38.770   3.697
48848W        W14009   1.925  38.355  13.874
48849W        W14010  34.721  18.599  11.727
48850W        W14011  44.735   5.291   3.135
48851W        W14012   7.164  12.543  10.693
48852W        W14013  42.325   5.426  14.302
48853W        W14014  31.494  29.826   1.740
48854W        W14015  22.597  41.019  14.405
48855W        W14016   7.369  43.391  12.994
48856W        W14017  42.331  32.899   3.717
48857W        W14018  13.388   8.658   0.451
48858W        W14019   1.285  29.434   2.156
48859W        W14020  25.575  39.677  10.688
48860W        W14021  42.423  18.297   1.824
48861W        W14022   1.651  20.078   3.701
48862W        W14023  33.191   7.443  12.001
48863W        W14024  12.696  37.212   1.258
48864W        W14025  18.302  34.623  13.893
48865W        W14026   5.094  31.369  12.513
48866W        W14027  15.229  12.916  12.646
48867W        W14028   7.188  12.375  12.898
48868W        W14029  44.026  38.330  12.326
48869W        W14030  19.124  10.891   1.356
48870W        W14031  29.151  11.664   0.872
48871W        W14032  36.341  20.244  12.393
48872W        W14033   3.563  15.317  11.411
48873W        W14034  25.428  15.241   1.950
48874W        W14035  23.670   1.089  11.572
48875W        W14036  37.054  32.048  13.900
48876W        W14037  25.430  33.220   3.199
48877W        W14038  29.147  28.003  13.330
48878W        W14039   0.472  36.454   0.280
48879W        W14040  14.540  27.148  12.115
48880W        W14041  19.945  14.913  14.771
48881W        W14042  15.958  28.227  14.887
48882W        W14043  32.101  19.101  12.620
48883W        W14044   2.717  24.038   2.739
48884W        W14045   2.131  20.638  12.179
48885W        W14046  20.597   6.243  14.500
48886W        W14047   1.358  10.222  13.870
48887W        W14048  10.505  17.153  12.470
48888W        W14049  27.202  42.285  14.012
48889W        W14050  33.009  41.857  13.890
48890W        W14051   4.383  39.505  12.561
48891W        W14052   8.189  29.686  10.445
48892W        W14053   9.042  30.358   4.113
48893W        W14054   8.889   9.847   5.000
48894W        W14055  23.134  16.677  10.694
48895W        W14056   7.132  37.443  13.983
48896W        W14057  44.412  35.995   2.682
48897W        W14058  35.311  19.146  14.882
48898W        W14059  34.568  30.731  10.724
48899W        W14060  25.512  41.314  14.295
48900W        W14061  16.076  21.582  12.091
48901W        W14062   5.328  32.587  13.106
48902W        W14063   3.224  26.194   9.883
48903W        W14064  20.642  19.670  12.591
48904W        W14065  34.297  11.685   0.098
48905W        W14066  44.491   2.936  14.230
48906W        W14067  30.868  35.341   3.703
48907W        W14068   5.148  23.124  11.483
48908W        W14069  23.529  32.870  10.658
48909W        W14070  26.373  24.787   0.425
48910W        W14071  35.191  26.626   2.133
48911W        W14072   7.621   3.377   4.521
48912W        W14073  16.095  40.939  12.548
48913W        W14074  21.478  43.808  14.839
48914W        W14075  15.395  22.105  13.765
48915W        W14076   6.722  40.028  14.703
48916W        W14077  38.710   2.876  11.957
48917W        W14078  29.217  37.753   2.363
48918W        W14079  29.919  42.165   2.752
48919W        W14080  10.188   4.323  13.438
48920W        W14081   2.458  15.816  12.642
48921W        W14082  22.836   5.564   2.339
48922W        W14083  44.026  10.268  10.044
48923W        W14084  15.675  43.997  14.825
48924W        W14085  24.951  27.604   0.194
48925W        W14086  28.944  38.921  13.374
48926W        W14087  11.707   8.298  10.644
48927W        W14088  21.036  27.801  14.357
48928W        W14089   0.728  42.467   4.543
48929W        W14090  18.157  41.254  13.381
48930W        W14091  39.107  43.158   1.719
48931W        W14092  36.492  28.142   1.937
48932W        W14093  33.076  23.048   0.427
48933W        W14094  29.925  23.445  12.339
48934W        W14095  32.411  34.514   1.419
48935W        W14096  19.794  17.224  13.490
48936W        W14097  36.974  20.234   4.645
48937W        W14098   8.335  10.422  12.589
48938W        W14099  12.364  10.842   1.693
48939W        W14100  18.538  27.411   1.701
48940W        W14101   7.151  24.152   4.025
48941W        W14102   7.946  35.407   2.708
48942W        W14103  18.410   7.918   0.520
48943W        W14104  30.580  36.682  14.827
48944W        W14105  31.357   2.956  13.036
48945W        W14106  43.653  42.677   3.595
48946W        W14107  42.697  35.336   0.657
48947W        W14108  28.571  29.528   3.326
48948W        W14109  40.258  20.451  12.483
48949W        W14110  26.991  38.544  11.837
48950W        W14111  21.125  26.801   4.183
48951W        W14112   6.436  38.809  14.414
48952W        W14113  24.177  24.173   2.214
48953W        W14114  32.491  37.707   4.757
48954W        W14115  26.680   4.648   2.744
48955W        W14116  24.040   3.003   4.149
48956W        W14117  19.440   8.706   0.325
48957W        W14118   7.765  32.299  14.039
48958W        W14119  19.510  26.703  11.608
48959W        W14120  37.978  30.685  11.237
48960W        W14121  29.996  42.879  11.538
48961W        W14122  24.093  21.733  12.105
48962W        W14123   4.569  22.558   1.396
48963W        W14124   3.767   6.753   0.308
48964W        W14125  13.694  13.864  12.146
48965W        W14126  26.007  27.756  13.067
48966W        W14127   4.827   5.820   2.355
48967W        W14128  27.412  42.782  11.118
48968W        W14129  19.587  17.502   0.465
48969W        W14130  16.085  12.961  11.702
48970W        W14131  27.199  41.469  14.698
48971W        W14132  28.377   8.796   1.947
48972W        W14133  10.080  27.415   5.095
48973W        W14134  32.046   5.455   4.663
48974W        W14135  31.156  30.634  14.955
48975W        W14136  22.642  11.686   3.108
48976W        W14137  16.142  15.452   3.715
48977W        W14138   0.936  16.620  11.570
48978W        W14139  43.806  22.205   1.602
48979W        W14140   9.614  24.260  12.919
48980W        W14141  34.934   1.457  13.141
48981W        W14142  10.758  27.042  12.858
48982W        W14143   3.961  11.803  11.007
48983W        W14144  19.533  33.863   2.406
48984W        W14145  14.633  28.202  12.964
48985W        W14146   1.309  14.675  13.484
48986W        W14147  33.517  30.630   1.036
48987W        W14148   0.245  39.020  12.903
48988W        W14149  26.663  22.079   2.394
48989W        W14150  37.042  40.879   1.076
48990W        W14151  34.050  24.862  11.997
48991W        W14152  31.693   4.741  14.003
48992W        W14153  40.640  14.143  12.869
48993W        W14154   6.372  17.661   1.464
48994W        W14155   4.211   4.366   2.140
48995W        W14156  16.603  33.184  14.349
48996W        W14157  23.372   1.715  11.927
48997W        W14158  35.507  17.421   2.685
48998W        W14159  20.051  15.348  12.051
48999W        W14160  32.906  38.399  14.137
49000W        W14161  11.550  23.808   0.486
49001W        W14162  17.012  33.493   3.110
49002W        W14163  42.886   4.073  12.110
49003W        W14164  30.489  26.520  13.327
49004W        W14165  34.121  11.201   2.123
49005W        W14166  19.826  44.979   2.406
49006W        W14167   6.401  35.704   0.418
49007W        W14168   8.584  32.089  12.109
49008W        W14169  16.231  13.347   1.792
49009W        W14170  30.731  36.103   1.268
49010W        W14171   5.176  19.084   1.369
49011W        W14172  38.636  18.532  11.673
49012W        W14173  44.419   7.730   2.227
49013W        W14174   1.087   6.096  14.426
49014W        W14175  33.732  13.181   3.190
49015W        W14176  13.968  10.169  12.198
49016W        W14177  26.553  22.475   1.102
49017W        W14178  26.704   2.683   3.722
49018W        W14179   8.027   3.238  13.959
49019W        W14180  43.551  44.775  10.626
49020W        W14181   4.289  28.157   0.986
49021W        W14182  24.400  33.937  14.973
49022W        W14183   0.996  22.070   4.436
49023W        W14184  34.563  29.535   1.280
49024W        W14185  26.475  23.133  14.935
49025W        W14186  36.370  35.959   0.006
49026W        W14187   4.381  29.999   4.551
49027W        W14188  21.252  33.292  10.660
49028W        W14189   5.406  22.433   3.756
49029W        W14190  23.820   4.672  11.235
49030W        W14191   7.952  25.536   4.904
49031W        W14192   8.719   6.258   2.895
49032W        W14193  25.463  33.934   0.576
49033W        W14194  11.895   1.309   1.268
49034W        W14195   4.231  27.890   2.497
49035W        W14196  30.580  12.749   5.076
49036W        W14197  41.506  11.643   2.200
49037W        W14198  40.387   4.783  10.988
49038W        W14199  35.613  29.654  14.811
49039W        W14200  10.655  13.299   4.729
49040W        W14201  36.613  28.962  13.851
49041W        W14202   2.589  40.906   0.731
49042W        W14203  13.866  42.865  12.581
49043W        W14204   8.089   0.734   1.410
49044W        W14205  18.071  38.647  14.511
49045W        W14206  38.871  18.871   2.279
49046W        W14207   9.781  38.117  13.167
49047W        W14208  37.471  18.292  13.999
49048W        W14209  19.095  13.963   3.220
49049W        W14210  32.086  34.810  11.184
49050W        W14211  23.067  19.091   0.310
49051W        W14212  28.466  43.692  14.936
49052W        W14213  19.572  35.641  10.946
49053W        W14214  43.740  39.960   2.250
49054W        W14215   4.829  13.396   0.208
49055W        W14216  36.747  34.110   2.406
49056W        W14217  10.573  39.370  10.988
49057W        W14218   2.887  30.538   2.927
49058W        W14219  25.928  25.264  10.320
49059W        W14220  20.227   5.973   1.190
49060W        W14221  34.466  15.052  13.578
49061W        W14222   5.766  36.636   4.634
49062W        W14223  26.024  27.032   2.841
49063W        W14224  30.856  39.123  14.558
49064W        W14225  34.635  29.612  14.937
49065W        W14226  22.491   9.109   2.884
49066W        W14227   3.314  12.521   2.167
49067W        W14228  14.921  33.639  11.045
49068W        W14229  39.371  19.716  14.919
49069W        W14230   9.767  40.969  11.040
49070W        W14231  30.513   5.870   3.231
49071W        W14232  25.141  40.989  14.466
49072W        W14233   6.863  26.714  12.337
49073W        W14234  29.439  21.206  11.202
49074W        W14235  37.983  12.614  10.560
49075W        W14236  25.102  35.761  11.978
49076W        W14237  30.713  29.736  11.385
49077W        W14238  30.478  29.680   0.368
49078W        W14239  40.508  27.294  13.522
49079W        W14240   4.868  22.065   1.272
49080W        W14241  32.217  39.573   0.020
49081W        W14242  20.953  14.895  14.902
49082W        W14243  34.390   4.038   0.658
49083W        W14244  17.202  43.786   0.439
49084W        W14245  30.978  33.005  14.785
49085W        W14246  12.235  25.166   3.674
49086W        W14247  35.648  17.161   0.985
49087W        W14248  11.060  35.086   2.320
49088W        W14249  38.488  20.510  12.771
49089W        W14250  14.821  15.101   3.635
49090W        W14251  40.515  12.531  12.293
49091W        W14252  20.537   2.936   3.488
49092W        W14253  42.238   9.696  11.556
49093W        W14254  10.858  32.440   4.025
49094W        W14255  15.896  33.494  12.004
49095W        W14256   5.839   2.691   3.715
49096W        W14257  10.867  39.828  11.596
49097W        W14258  13.131  10.181   5.054
49098W        W14259  35.563  16.553  14.425
49099W        W14260  11.596  15.799  10.726
49100W        W14261   6.018  17.751  13.017
49101W        W14262   9.421  24.988   1.367
49102W        W14263  30.928  17.252  14.372
49103W        W14264   5.149  34.591  12.642
49104W        W14265  31.588  30.384   3.364
49105W        W14266  37.029  35.591  14.377
49106W        W14267  21.529  25.162  13.410
49107W        W14268  12.650  12.368   3.615
49108W        W14269   5.637  25.100   0.766
49109W        W14270  36.652  32.854   3.155
49110W        W14271   9.374  11.160   2.328
49111W        W14272   3.312  38.128   2.792
49112W        W14273   2.769  26.041   4.805
49113W        W14274  23.646   5.861   1.667
49114W        W14275  23.929  31.404  12.172
49115W        W14276   7.886  21.729   0.329
49116W        W14277  34.982  30.885  11.067
49117W        W14278  30.575  43.530  13.306
49118W        W14279  39.839   3.061  14.999
49119W        W14280  20.077  18.304   2.984
49120W        W14281  32.850   2.457  14.525
49121W        W14282  10.096  12.753   2.260
49122W        W14283  33.540  32.602   0.312
49123W        W14284  20.589   4.373   3.047
49124W        W14285  44.499  21.165   2.607
49125W        W14286  14.048  12.669   2.380
49126W        W14287  16.408  43.401  14.961
49127W        W14288  32.150  13.325   0.280
49128W        W14289  18.868  31.949  11.607
49129W        W14290   0.820  29.849   1.532
49130W        W14291  33.550  32.180   4.387
49131W        W14292  24.010  27.733   1.219
49132W        W14293  23.742  30.633  14.271
49133W        W14294  32.035  35.903  14.747
49134W        W14295   8.490  21.558   2.041
49135W        W14296  37.895  36.797   2.380
49136W        W14297   3.316  29.703   5.005
49137W        W14298   7.202   4.133  13.432
49138W        W14299  12.744  11.656  12.983
49139W        W14300  16.237  39.176   4.798
49140W        W14301  43.621  31.661   1.717
49141W        W14302   5.754  12.392  14.449
49142W        W14303  37.862  29.917  10.790
49143W        W14304  39.292  12.401  12.025
49144W        W14305  43.391  28.409  12.126
49145W        W14306  37.039   3.344   0.716
49146W        W14307  34.520  26.109  13.415
49147W        W14308  28.763  33.455   1.298
49148W        W14309  12.095  33.460   4.478
49149W        W14310  30.578  37.860   4.375
49150W        W14311   8.725  43.787  11.116
49151W        W14312  32.510  37.399  13.799
49152W        W14313  38.149  31.896  14.041
49153W        W14314   5.846  33.375  14.888
49154W        W14315  40.423   8.400   4.718
49155W        W14316   9.454  30.415   1.806
49156W        W14317   5.620  40.322   3.257
49157W        W14318  41.345  35.964   9.895
49158W        W14319  13.628   5.753  11.479
49159W        W14320   7.480  16.576  12.899
49160W        W14321  44.757  34.830  13.404
49161W        W14322  32.831  29.989   4.649
49162W        W14323  16.966  22.730   2.234
49163W        W14324  16.056  38.475   0.509
49164W        W14325  25.943   9.010  11.150
49165W        W14326  35.162  25.146  12.478
49166W        W14327   5.419  27.232  13.447
49167W        W14328  19.506  31.003   2.106
49168W        W14329  20.539  44.967  11.158
49169W        W14330  33.812  18.605  13.506
49170W        W14331  17.526  37.526  10.312
49171W        W14332  12.375   8.337  11.967
49172W        W14333  18.138  37.412   2.944
49173W        W14334  25.485  14.646   4.654
49174W        W14335  10.650  41.944   3.944
49175W        W14336  34.021  42.261  11.133
49176W        W14337  25.923  33.853   2.262
49177W        W14338  40.235  31.800   3.634
49178W        W14339  23.876  29.183  14.674
49179W        W14340  13.819  19.258  14.039
49180W        W14341  10.271  12.029   1.337
49181W        W14342  14.686  20.293  12.580
49182W        W14343  32.898  42.730  12.410
49183W        W14344  24.789  37.576  14.930
49184W        W14345  41.148  13.873  12.640
49185W        W14346   8.576   1.255   3.198
49186W        W14347   8.614  23.174   4.542
49187W        W14348  11.176  11.106   2.331
49188W        W14349  28.683   8.946  14.609
49189W        W14350   0.437  31.722  13.859
49190W        W14351  29.613  14.075   0.790
49191W        W14352   9.986  20.484   0.197
49192W        W14353  22.479  28.261   2.614
49193W        W14354   7.880  14.469  13.449
49194W        W14355  31.070  16.044  11.096
49195W        W14356   8.516  22.652  14.386
49196W        W14357  29.518  25.759  14.383
49197W        W14358  30.976  44.929   4.434
49198W        W14359  16.390  11.220  10.772
49199W        W14360  25.525  26.773   0.943
49200W        W14361  11.895  43.357  12.874
49201W        W14362  14.183  40.648   3.174
49202W        W14363  33.096   7.101  11.625
49203W        W14364  28.053  39.355   0.356
49204W        W14365  13.806  14.620   4.442
49205W        W14366  30.848   1.908  12.466
49206W        W14367  17.479   2.392   0.299
49207W        W14368  39.556  13.679   3.621
49208W        W14369  39.307  27.236  11.221
49209W        W14370  12.410   9.057  11.560
49210W        W14371   8.029  24.042   1.441
49211W        W14372   8.172  36.921   0.022
49212W        W14373  17.211  21.431   1.643
49213W        W14374  35.052  17.136  12.896
49214W        W14375   5.830  29.483   3.083
49215W        W14376   7.271   3.520  10.169
49216W        W14377   5.888   5.637  11.605
49217W        W14378  40.340  12.683   2.842
49218W        W14379  26.953   9.848   2.363
49219W        W14380  20.773  24.518  13.474
49220W        W14381  39.313  26.070  10.864
49221W        W14382  39.495  31.713   3.516
49222W        W14383  43.486  10.758  11.686
49223W        W14384  37.819  23.438  14.402
49224W        W14385  29.651   4.166   0.758
49225W        W14386  28.992  28.833   1.110
49226W        W14387  34.920  11.875  12.813
49227W        W14388   6.471  23.312   4.929
49228W        W14389  43.231  10.561   0.235
49229W        W14390  38.965  27.979  13.789
49230W        W14391  27.125  22.063   2.091
49231W        W14392  41.542   0.431  14.862
49232W        W14393   6.704   8.921  11.705
49233W        W14394  39.535  26.881  14.305
49234W        W14395  23.735  27.699  11.743
49235W        W14396   7.794  24.930  14.696
49236W        W14397  30.924   7.655  12.907
49237W        W14398  15.637  25.044  11.471
49238W        W14399  28.193  16.240  10.918
49239W        W14400  44.683   6.489  13.666
49240W        W14401  25.989  29.209  10.752
49241W        W14402  14.073  43.496  11.915
49242W        W14403  15.705  13.825  12.456
49243W        W14404   2.756  22.024  11.909
49244W        W14405   0.249  26.009  13.448
49245W        W14406  27.982  30.392  14.407
49246W        W14407   7.061  10.851  12.578
49247W        W14408  14.135   9.168  14.783
49248W        W14409  19.708  20.570   3.609
49249W        W14410  15.860   5.253  14.385
49250W        W14411  30.195   8.121  12.399
49251W        W14412  23.131  44.312   2.613
49252W        W14413  36.979  12.692   0.875
49253W        W14414  34.529  24.023  13.490
49254W        W14415  41.394  16.670   3.597
49255W        W14416  37.156  20.189  11.877
49256W        W14417  19.226  30.440  12.121
49257W        W14418  39.528  13.453   2.349
49258W        W14419  17.017  42.971  11.225
49259W        W14420  10.340  12.142  13.803
49260W        W14421   1.972  23.784  12.920
49261W        W14422   7.424  38.334  12.620
49262W        W14423  34.723  24.690  13.810
49263W        W14424  10.404   6.063  12.413
49264W        W14425  34.464  34.616  13.692
49265W        W14426  42.597  22.568   2.814
49266W        W14427  26.317  31.232   1.810
49267W        W14428  44.654  37.005  12.090
49268W        W14429  27.992  20.516  10.629
49269W        W14430  13.889  29.095  12.952
49270W        W14431   5.453  30.572  13.400
49271W        W14432  41.435  21.405  14.063
49272W        W14433  16.450  26.088  12.428
49273W        W14434   5.624   5.317   4.990
49274W        W14435  34.910  22.235  10.191
49275W        W14436  33.890  20.037   2.802
49276W        W14437  20.237  44.959  14.921
49277W        W14438   2.025  24.562  10.988
49278W        W14439  13.120  24.108   1.580
49279W        W14440  10.735  14.752   3.095
49280W        W14441  27.255  35.940  14.834
49281W        W14442  40.586  30.307   4.037
49282W        W14443  19.050  13.723   1.256
49283W        W14444   4.828  16.789   0.865
49284W        W14445  16.247  21.566   2.178
49285W        W14446  33.458  30.510  10.495
49286W        W14447   4.987  20.753  10.727
49287W        W14448  43.433  30.800   1.706
49288W        W14449   8.377  26.445   3.370
49289W        W14450  39.465  18.524   4.168
49290W        W14451  35.896  40.512   0.369
49291W        W14452  19.128  31.893  11.170
49292W        W14453  28.695  34.978   0.804
49293W        W14454  43.001   0.021  13.746
49294W        W14455  15.041  39.444  12.514
49295W        W14456  11.846  44.912   1.945
49296W        W14457  25.448   0.757  13.535
49297W        W14458  20.627   6.294   1.028
49298W        W14459  35.635  39.932   2.659
49299W        W14460  16.116   8.283   2.742
49300W        W14461   3.265   8.331   0.898
49301W        W14462  44.447  31.015   0.659
49302W        W14463  33.378  29.189  11.178
49303W        W14464   5.856  39.039  10.997
49304W        W14465  15.278  25.610   0.465
49305W        W14466  22.674  36.661  13.970
49306W        W14467   4.504  14.577   2.777
49307W        W14468  29.391   9.575   4.154
49308W        W14469  25.823  35.919   0.828
49309W        W14470  36.991  19.968  14.396
49310W        W14471  35.303  42.766   2.710
49311W        W14472  40.440   4.024   3.778
49312W        W14473  29.829  11.992   0.521
49313W        W14474   2.357  10.766  11.127
49314W        W14475   7.350  26.657  12.119
49315W        W14476  23.726   5.754   3.638
49316W        W14477  21.551  29.756   1.381
49317W        W14478  35.322  20.253  12.876
49318W        W14479  40.285   7.425  14.896
49319W        W14480  35.165   4.177   1.273
49320W        W14481   7.643  39.295   2.269
49321W        W14482  19.738  41.245   0.056
49322W        W14483  43.859  11.762   2.235
49323W        W14484   4.885   8.760  11.193
49324W        W14485  23.638  34.854   3.337
49325W        W14486  21.073  30.897   1.250
49326W        W14487   6.876  37.107  12.465
49327W        W14488  42.602  13.398  12.504
49328W        W14489  19.653  30.378  12.414
49329W        W14490   0.313   2.340   1.463
49330W        W14491  30.082  32.113  11.839
49331W        W14492  26.645  41.710  13.091
49332W        W14493  11.512   3.831   3.664
49333W        W14494   9.950   7.844  11.570
49334W        W14495  28.615  38.418   2.545
49335W        W14496  15.623  35.285  13.802
49336W        W14497   3.090  42.897  14.041
49337W        W14498  43.099  17.873   0.755
49338W        W14499   8.638  27.595   1.244
49339W        W14500  18.979  24.216   1.888
49340W        W14501  17.019   3.308  13.421
49341W        W14502   2.807  22.669  10.688
49342W        W14503  20.432   3.219  14.883
49343W        W14504  25.770  29.105  11.991
49344W        W14505  41.558  36.428  12.770
49345W        W14506  44.401   1.339   3.326
49346W        W14507  42.775  35.859  11.767
49347W        W14508  27.208  14.404   3.252
49348W        W14509  16.302  39.351   0.948
49349W        W14510  30.461   9.102   0.507
49350W        W14511  43.422  20.517   0.781
49351W        W14512   9.337  24.867   5.040
49352W        W14513   6.205  31.664  12.078
49353W        W14514   8.523  32.740   4.580
49354W        W14515   1.836  19.586   2.861
49355W        W14516  31.144   9.264   3.648
49356W        W14517  34.814  16.861   4.679
49357W        W14518  29.771  44.361   4.294
49358W        W14519  41.962   3.336   4.607
49359W        W14520  38.500  28.137   0.751
49360W        W14521  44.230  13.146  14.601
49361W        W14522  37.902  12.338  11.920
49362W        W14523  25.461  43.775  13.316
49363W        W14524  44.758  22.169  13.567
49364W        W14525  42.917  30.695   4.298
49365W        W14526  43.833  16.840   4.370
49366W        W14527  39.991  13.613  11.175
49367W        W14528   8.178   2.803   3.911
49368W        W14529   5.388  39.856  12.969
49369W        W14530  31.786  21.475   4.191
49370W        W14531   5.767  41.935   4.718
49371W        W14532  43.904  14.277   2.805
49372W        W14533  10.635  27.983   4.509
49373W        W14534  15.279  13.794   4.797
49374W        W14535  28.646  20.351   0.887
49375W        W14536  11.100  28.676   1.843
49376W        W14537   2.049  34.520   4.541
49377W        W14538  26.307  41.834  12.036
49378W        W14539   6.843  44.453   0.601
49379W        W14540  43.937  11.709  12.978
49380W        W14541  19.130   0.004   0.718
49381W        W14542  38.815   3.913   4.080
49382W        W14543   0.278  32.872  14.891
49383W        W14544  24.660   0.534  11.703
49384W        W14545  30.261  19.305   2.241
49385W        W14546  39.476   3.617  12.060
49386W        W14547  25.194   8.879  13.063
49387W        W14548   0.426  19.350   0.107
49388W        W14549  37.512   2.156  12.883
49389W        W14550  32.652  28.386  11.562
49390W        W14551  14.307  12.334   0.336
49391W        W14552  20.022  20.943  11.095
49392W        W14553  31.576  28.223  13.913
49393W        W14554  21.203  26.718   3.273
49394W        W14555  28.564  40.077  10.716
49395W        W14556   3.298   6.421  14.284
49396W        W14557  12.017  15.679   4.700
49397W        W14558  35.348   0.309   2.849
49398W        W14559  11.563  23.367  13.950
49399W        W14560  37.519  10.647  10.117
49400W        W14561  39.496   5.874  14.751
49401W        W14562  33.209   8.013   5.019
49402W        W14563   7.980  33.140  13.012
49403W        W14564   1.473  15.763   2.538
49404W        W14565  34.607  10.831   1.273
49405W        W14566  10.813  43.992  10.691
49406W        W14567  26.520  24.324  11.651
49407W        W14568   8.394   7.402   2.187
49408W        W14569  44.572  11.356   1.816
49409W        W14570  39.422  27.662  14.262
49410W        W14571  16.051   1.831   0.322
49411W        W14572  29.226  43.257  13.042
49412W        W14573  33.729  44.966   1.359
49413W        W14574  40.330  41.799   4.081
49414W        W14575   2.708  41.734  14.997
49415W        W14576  16.547  38.903  13.895
49416W        W14577  34.502  13.796  11.355
49417W        W14578  31.659   6.641  11.120
49418W        W14579  24.982   9.875  10.723
49419W        W14580  10.264  38.908   3.277
49420W        W14581   5.400  12.226   1.974
49421W        W14582  22.547  31.947  13.912
49422W        W14583   0.188  44.999   3.081
49423W        W14584   4.961  14.852  14.498
49424W        W14585  22.489   9.647   4.098
49425W        W14586   3.372  34.704  13.846
49426W        W14587   6.186  17.856  14.376
49427W        W14588  31.081  17.036   2.744
49428W        W14589  16.268   9.417   0.585
49429W        W14590  34.906   1.914  10.772
49430W        W14591   5.306  11.962  12.903
49431W        W14592  10.923   8.025   2.499
49432W        W14593  14.180   6.017   1.191
49433W        W14594  17.849  42.037   0.884
49434W        W14595  44.103  26.991  12.772
49435W        W14596  42.124   2.051   4.132
49436W        W14597   2.950  44.870   4.385
49437W        W14598  40.267  44.898  12.030
49438W        W14599  40.786  24.806   2.564
49439W        W14600  22.829  43.245  11.728
49440W        W14601  17.824  29.168  12.409
49441W        W14602  24.603  42.783  11.819
49442W        W14603  24.502  42.818   2.811
49443W        W14604  37.466  16.735   4.052
49444W        W14605  21.807  19.485  13.860
49445W        W14606  22.304  24.407   0.715
49446W        W14607  22.613  36.578  14.492
49447W        W14608   7.424  12.198  14.948
49448W        W14609  16.275  33.398   2.576
49449W        W14610  32.982  18.578   4.770
49450W        W14611  15.330  26.902  14.497
49451W        W14612   8.166   4.293   2.019
49452W        W14613  20.936  41.333   2.508
49453W        W14614  10.595  15.333   2.362
49454W        W14615  19.231  44.035   4.102
49455W        W14616  20.560  40.511  11.513
49456W        W14617   4.734  16.247   0.803
49457W        W14618  12.786   5.862   4.358
49458W        W14619   4.935  32.591   3.646
49459W        W14620  25.028  44.773   2.778
49460W        W14621  28.646   5.020  14.991
49461W        W14622  20.446  15.864   1.239
49462W        W14623  10.746  29.995  12.385
49463W        W14624  21.714  20.075  12.707
49464W        W14625  30.862  39.697  14.698
49465W        W14626  27.982   9.845   1.313
49466W        W14627   1.495   4.360  11.477
49467W        W14628  29.208   4.083  13.070
49468W        W14629  40.475  41.647   0.367
49469W        W14630   0.511  44.815  14.558
49470W        W14631  10.944  13.495  13.917
49471W        W14632  14.094   4.758   1.355
49472W        W14633  14.315  22.632  10.636
49473W        W14634   1.977  30.885   4.559
49474W        W14635  13.900  37.823  13.414
49475W        W14636  42.982  23.416   4.072
49476W        W14637  40.976  10.301   0.650
49477W        W14638  13.227  41.868  13.493
49478W        W14639  38.039  23.719  14.801
49479W        W14640  37.288  14.708   3.099
49480W        W14641  38.218  36.085   2.366
49481W        W14642   8.138  11.824   1.906
49482W        W14643  44.306   0.435  13.395
49483W        W14644  12.841  15.609   1.690
49484W        W14645   8.325  41.008  12.181
49485W        W14646   2.205  36.555  13.811
49486W        W14647   4.574  13.535   4.944
49487W        W14648  30.922  34.969  13.052
49488W        W14649  18.973  12.970  11.752
49489W        W14650  15.823  22.517   1.462
49490W        W14651  21.166  37.460   4.251
49491W        W14652   0.923  15.263   1.022
49492W        W14653  35.975   1.936   1.793
49493W        W14654  41.973  25.406   0.767
49494W        W14655  35.764  30.378   2.789
49495W        W14656  18.498  25.668   2.404
49496W        W14657  16.298  27.100   4.669
49497W        W14658  26.164   0.423  10.750
49498W        W14659  39.484   5.279   4.578
49499W        W14660  14.423  28.137   3.764
49500W        W14661  10.163  36.376   2.008
49501W        W14662  32.629   4.332   2.185
49502W        W14663  27.210  18.581  11.166
49503W        W14664  16.554  23.430  13.834
49504W        W14665   6.467  25.260  11.586
49505W        W14666  38.009  43.749   4.182
49506W        W14667   4.454  41.488   1.384
49507W        W14668   0.976  11.635   1.086
49508W        W14669  36.901  44.758   4.090
49509W        W14670  14.322  20.106  13.340
49510W        W14671  22.595  17.091   4.401
49511W        W14672  35.020   2.784   1.317
49512W        W14673  27.036  24.235  14.782
49513W        W14674   8.497  40.916  10.877
49514W        W14675  20.629  28.252  13.993
49515W        W14676  35.438  36.394   0.952
49516W        W14677  43.386  14.342   2.974
49517W        W14678   9.842  15.718  10.862
49518W        W14679  23.563   6.875  11.960
49519W        W14680   5.773   7.955   2.946
49520W        W14681  22.673  13.139  10.214
49521W        W14682   0.881  20.655  13.405
49522W        W14683  29.671  13.587   3.921
49523W        W14684  36.847  33.433  10.984
49524W        W14685   2.775  42.590  11.932
49525W        W14686  13.380  39.037   9.924
49526W        W14687  27.150  21.632  11.151
49527W        W14688  21.769   9.705  11.689
49528W        W14689  29.474   1.999   2.809
49529W        W14690  19.449  37.147   2.299
49530W        W14691  34.011  28.766  13.350
49531W        W14692  23.496  29.973   0.557
49532W        W14693  40.034   1.235   1.311
49533W        W14694  35.250   3.596   2.345
49534W        W14695  25.375  14.336   0.460
49535W        W14696  18.821  29.195   1.222
49536W        W14697   5.239   7.270   0.862
49537W        W14698   4.291  30.597  10.711
49538W        W14699  42.462  12.157  12.932
49539W        W14700   5.161  26.029  12.017
49540W        W14701  25.211  42.533   3.533
49541W        W14702  23.220   8.257  10.452
49542W        W14703   6.253  23.512   2.787
49543W        W14704   6.646  15.204   0.337
49544W        W14705  26.696   7.405   4.567
49545W        W14706  15.726   8.682  10.470
49546W        W14707  11.053   7.286   4.030
49547W        W14708  41.879  30.483   0.032
49548W        W14709  23.188  24.773   4.539
49549W        W14710  31.614  24.029   9.836
49550W        W14711  18.789   4.980  13.964
49551W        W14712  14.358  14.161   1.934
49552W        W14713  21.250   1.818   2.902
49553W        W14714  35.502  23.074   2.367
49554W        W14715  21.983  31.898  14.346
49555W        W14716  11.012  43.764  14.841
49556W        W14717  34.624  23.597   1.079
49557W        W14718  10.308  29.596  14.918
49558W        W14719  16.033  33.843  11.560
49559W        W14720  38.828   2.955   4.269
49560W        W14721   3.013  40.660   0.891
49561W        W14722  15.349  17.817   2.354
49562W        W14723  41.420  18.003   0.483
49563W        W14724   5.275  42.876   0.118
49564W        W14725   4.014  14.650   0.887
49565W        W14726   9.214  17.146   2.280
49566W        W14727  35.353  13.273  11.535
49567W        W14728  11.612  39.249  12.477
49568W        W14729  20.657  31.322  13.451
49569W        W14730  37.847  44.848   3.096
49570W        W14731  19.258  12.139  14.030
49571W        W14732  14.758  19.531   9.654
49572W        W14733  19.590  20.495  12.122
49573W        W14734   8.675  42.493  14.573
49574W        W14735   1.597   3.946  11.145
49575W        W14736   2.834   4.650  14.951
49576W        W14737  16.685  16.056  11.502
49577W        W14738  39.855  15.900   3.326
49578W        W14739   9.106  21.647  11.236
49579W        W14740  26.133  36.375  14.534
49580W        W14741  11.987  12.707   0.502
49581W        W14742   8.337  32.579   2.204
49582W        W14743  18.007  35.412  11.119
49583W        W14744  26.976   2.163   0.096
49584W        W14745  24.104  19.256  13.959
49585W        W14746  37.598  25.400  12.637
49586W        W14747   6.765  14.928  13.439
49587W        W14748  26.434  36.660   1.896
49588W        W14749   2.215  20.599  11.200
49589W        W14750  22.558  18.544   0.782
49590W        W14751  41.207   6.419   4.107
49591W        W14752  16.120  31.236   3.721
49592W        W14753  13.256  18.096   2.353
49593W        W14754  14.905  21.226  12.543
49594W        W14755   1.475  10.699   3.846
49595W        W14756  14.707  29.907   3.672
49596W        W14757  40.798  42.928  13.971
49597W        W14758  11.735  17.592  14.082
49598W        W14759  14.118  17.627  11.670
49599W        W14760  23.309  31.473  12.959
49600W        W14761  44.306  17.345  13.030
49601W        W14762   7.807  40.984   1.809
49602W        W14763  33.960  40.109  13.887
49603W        W14764  10.468  31.940  12.578
49604W        W14765  34.368   5.345  11.121
49605W        W14766   1.868  41.819   4.992
49606W        W14767  22.474  24.690   0.266
49607W        W14768  16.340  29.457  14.406
49608W        W14769  31.646  13.367  10.740
49609W        W14770  43.382  42.869  12.445
49610W        W14771  40.044  33.826   5.015
49611W        W14772  36.561   3.442   3.341
49612W        W14773  34.133  15.243   2.217
49613W        W14774   3.738  26.109   1.133
49614W        W14775   4.136   1.594   0.114
49615W        W14776  18.239   6.416   2.768
49616W        W14777  44.433  34.746   5.014
49617W        W14778  20.182  11.856   0.374
49618W        W14779   1.796  36.916   2.749
49619W        W14780   7.791   2.000   2.966
49620W        W14781  27.497  40.966  13.897
49621W        W14782  44.751  13.051  14.577
49622W        W14783   6.358  13.726   1.977
49623W        W14784  14.258  25.762   1.861
49624W        W14785  14.233  18.639   4.143
49625W        W14786   4.597  36.358   1.849
49626W        W14787  18.132  40.031  14.761
49627W        W14788  23.662   1.439   3.125
49628W        W14789  32.531  33.402  10.771
49629W        W14790  37.937  33.895   2.837
49630W        W14791   7.031  41.804  11.523
49631W        W14792  37.463  33.578  10.283
49632W        W14793  26.425   1.305  11.531
49633W        W14794  34.569  10.899  14.474
49634W        W14795  33.788  38.293   5.029
49635W        W14796  32.636  35.324  13.473
49636W        W14797  19.267  28.535   1.271
49637W        W14798  13.048  40.243  12.425
49638W        W14799   7.921  20.012   3.135
49639W        W14800  17.836  14.054  11.879
49640W        W14801  42.345  18.220  10.252
49641W        W14802  34.671  27.496   1.147
49642W        W14803   9.371  44.645   0.226
49643W        W14804  44.952  39.305  10.626
49644W        W14805  42.308  40.075  13.573
49645W        W14806  22.213  43.517  14.774
49646W        W14807  19.551  18.635   2.193
49647W        W14808  30.075  21.884   3.588
49648W        W14809   4.973  18.572   1.449
49649W        W14810  11.477   9.621  13.116
49650W        W14811  33.011   2.072   2.730
49651W        W14812  43.537  36.170   3.160
49652W        W14813  17.081   8.392   4.324
49653W        W14814  17.230  30.162   4.602
49654W        W14815  24.000   3.828  12.049
49655W        W14816  37.895  40.245  12.980
49656W        W14817  39.242  20.550   1.814
49657W        W14818   9.790  40.305   1.320
49658W        W14819   3.345  39.093   4.659
49659W        W14820  19.778  38.441   4.663
49660W        W14821   0.898  35.845  12.874
49661W        W14822  29.867  37.650  13.962
49662W        W14823  21.534  17.201   1.548
49663W        W14824  15.028  31.656   3.251
49664W        W14825  14.253  22.310  12.957
49665W        W14826  41.566   8.715  12.511
49666W        W14827  43.218  11.422   3.797
49667W        W14828  37.434  43.208  13.938
49668W        W14829  43.710  44.026  11.067
49669W        W14830  11.858  20.172  11.639
49670W        W14831  37.343  37.360   0.582
49671W        W14832  28.089  17.609  11.190
49672W        W14833  41.531  15.701  10.840
49673W        W14834  13.390  16.144   1.559
49674W        W14835  18.841  27.632   2.853
49675W        W14836  19.702  35.375   4.465
49676W        W14837  24.526  41.357   3.164
49677W        W14838   3.214  34.155  11.118
49678W        W14839   1.210   1.731   0.710
49679W        W14840   5.470  33.408   0.994
49680W        W14841   7.921  43.725   3.225
49681W        W14842  26.446   9.118  11.068
49682W        W14843  25.275   3.830   1.713
49683W        W14844   9.200  25.971   0.243
49684W        W14845  29.456  30.937  11.961
49685W        W14846  27.716   3.309   0.001
49686W        W14847  39.272  42.303   3.237
49687W        W14848  10.904  40.789   0.950
49688W        W14849   3.468  23.255  10.610
49689W        W14850   3.893  40.926  13.236
49690W        W14851  20.151  20.808  14.602
49691W        W14852  31.707   8.356   3.378
49692W        W14853  11.677  11.942   4.967
49693W        W14854  22.131   6.511   4.350
49694W        W14855   0.374   0.921   2.126
49695W        W14856  13.171   8.205   0.024
49696W        W14857  11.586  14.896  14.825
49697W        W14858  31.845   8.708   0.869
49698W        W14859  20.334  13.690  13.820
49699W        W14860  32.810  20.487   0.468
49700W        W14861   1.524  25.119  11.803
49701W        W14862  33.074  30.492   3.356
49702W        W14863  40.080   9.385   1.858
49703W        W14864   1.362   7.658   2.327
49704W        W14865   5.270  34.815  10.783
49705W        W14866   9.328  17.806   3.122
49706W        W14867  19.438   4.005  12.906
49707W        W14868  25.476  10.718   1.741
49708W        W14869  16.255   2.430  12.863
49709W        W14870  14.750  20.170   1.101
49710W        W14871   6.306  33.966   4.535
49711W        W14872  36.941  14.459  13.379
49712W        W14873  26.804  22.711   4.937
49713W        W14874  33.823   8.262  11.103
49714W        W14875   2.760  40.500  11.855
49715W        W14876  43.343  44.841  14.997
49716W        W14877  27.688  10.835   1.713
49717W        W14878   4.889   4.188   3.342
49718W        W14879  24.798  26.541   4.579
49719W        W14880  23.141  17.613  10.598
49720W        W14881  37.499  33.983  10.608
49721W        W14882  29.658  21.249  12.060
49722W        W14883  39.796  24.033  12.125
49723W        W14884  37.384   6.652  14.862
49724W        W14885  30.541  16.348   2.280
49725W        W14886  39.353  29.439   2.074
49726W        W14887  44.054  19.792   5.094
49727W        W14888   5.569  12.378   5.655
49728W        W14889  20.435  11.405  12.931
49729W        W14890  19.268  34.640  13.916
49730W        W14891  26.694  42.464   0.305
49731W        W14892  17.018  11.560   2.183
49732W        W14893  35.988  27.742   1.513
49733W        W14894  28.372  29.289  14.788
49734W        W14895   5.817  14.247  12.541
49735W        W14896  10.247  11.619   1.708
49736W        W14897  13.604   2.938   2.289
49737W        W14898   7.877  10.662   5.021
49738W        W14899  21.930   4.977   4.496
49739W        W14900   3.017  38.438  12.041
49740W        W14901  30.965  18.546  13.501
49741W        W14902   0.914  40.304   0.457
49742W        W14903   8.599   5.260   2.725
49743W        W14904  12.295  36.424   2.646
49744W        W14905  43.251  38.024   3.186
49745W        W14906  16.267  39.947  13.834
49746W        W14907  33.917   3.894   2.378
49747W        W14908  40.714  34.787  10.380
49748W        W14909  42.828  31.688   0.859
49749W        W14910  38.974  14.272   2.100
49750W        W14911  41.962  19.799  14.218
49751W        W14912   6.300  21.653  11.721
49752W        W14913   8.104   0.974   3.603
49753W        W14914  33.011  34.052  13.308
49754W        W14915  33.853  15.135   9.788
49755W        W14916  43.242  40.258  13.955
49756W        W14917   0.073  11.913   0.823
49757W        W14918  23.104  11.918   3.234
49758W        W14919   3.964  14.242   4.131
49759W        W14920  41.591  21.875   1.942
49760W        W14921  43.490  15.786  10.329
49761W        W14922  21.100  16.063   2.636
49762W        W14923   8.432  34.891   2.199
49763W        W14924  23.469  35.354   3.134
49764W        W14925  20.185  25.875  14.839
49765W        W14926  40.917  23.602  14.136
49766W        W14927  34.019   8.972  11.852
49767W        W14928  12.759  16.645   0.028
49768W        W14929  18.852  44.259   3.837
49769W        W14930  38.731  28.160  12.403
49770W        W14931  30.056   8.368   3.653
49771W        W14932  28.559  17.250   3.762
49772W        W14933  40.469  22.752  13.894
49773W        W14934  44.302  41.405  10.437
49774W        W14935  16.286   1.766  13.404
49775W        W14936  41.881  30.685   2.827
49776W        W14937  30.892  13.695   2.235
49777W        W14938   5.641  20.061   1.809
49778W        W14939  43.931  24.097   4.632
49779W        W14940  44.812   6.599  12.003
49780W        W14941  10.783  11.769  11.637
49781W        W14942   4.621  22.713  13.511
49782W        W14943   5.831  15.275  14.017
49783W        W14944   4.469   4.848  14.309
49784W        W14945  18.567  36.575  12.908
49785W        W14946  33.686  11.129   9.870
49786W        W14947  18.064  10.132   2.387
49787W        W14948  22.575  29.865  12.975
49788W        W14949   0.367  14.096  11.885
49789W        W14950  16.748   4.985   3.639
49790W        W14951  25.709   7.280  14.914
49791W        W14952  38.147   8.433  11.169
49792W        W14953  30.638  12.365  11.182
49793W        W14954  30.778  15.316   4.559
49794W        W14955  41.115   7.771  11.476
49795W        W14956   9.263  29.053   4.236
49796W        W14957  35.993  20.594   4.674
49797W        W14958   0.451  44.011   3.147
49798W        W14959  13.364  19.442   0.795
49799W        W14960  19.640  30.479  14.303
49800W        W14961  12.495  11.721   1.419
49801W        W14962  10.587  43.748  13.902
49802W        W14963  22.138  21.626  13.088
49803W        W14964  20.469  24.036   1.330
49804W        W14965  22.056   7.540   2.981
49805W        W14966   0.653  38.404   1.231
49806W        W14967  42.342  26.724   1.855
49807W        W14968  30.443  12.571  10.743
49808W        W14969  31.888   1.500  12.063
49809W        W14970   2.575  27.226  12.918
49810W        W14971  30.135   3.817   3.517
49811W        W14972   0.706  35.957  13.483
49812W        W14973  23.511   8.689  13.455
49813W        W14974   6.589  31.165  10.168
49814W        W14975   3.466  35.490   4.267
49815W        W14976   7.635   3.959  11.563
49816W        W14977  38.379   3.619   4.095
49817W        W14978  22.237  32.773  11.721
49818W        W14979   9.203  11.197  10.681
49819W        W14980  38.580  42.934  11.058
49820W        W14981  32.968  13.590   0.610
49821W        W14982  32.686  44.788   2.660
49822W        W14983  40.014   6.830   0.501
49823W        W14984   1.690  26.013   2.746
49824W        W14985  26.575  10.878   0.144
49825W        W14986  27.416  12.128   3.512
49826W        W14987  31.497  37.106  14.874
49827W        W14988  40.244   2.060   2.804
49828W        W14989  10.674  42.528   3.250
49829W        W14990  24.512   7.711  10.769
49830W        W14991   2.264  25.526   1.883
49831W        W14992  21.373   6.241  12.595
49832W        W14993   8.341  29.684  12.814
49833W        W14994  29.087  11.246   0.490
49834W        W14995  33.399  37.021   1.391
49835W        W14996  35.654  20.656   1.830
49836W        W14997  30.399  41.990  14.343
49837W        W14998  43.953  10.308   3.395
49838W        W14999   7.961  34.450  12.864
49839W        W15000   2.152  10.201   2.358
49840W        W15001  43.174   2.163   3.717
49841W        W15002  32.468  17.739   4.162
49842W        W15003  33.039  33.269   2.650
49843W        W15004   2.258   1.477   3.821
49844W        W15005  42.696  33.036   4.058
49845W        W15006   2.322  24.631  14.290
49846W        W15007  33.883  29.455   0.404
49847W        W15008  17.036  30.203  13.037
49848W        W15009  32.085  25.952   4.178
49849W        W15010  32.517  15.725   3.411
49850W        W15011  43.349  25.774  12.477
49851W        W15012  31.598  31.393   4.259
49852W        W15013  40.488  37.278  11.074
49853W        W15014  24.340  37.463  11.933
49854W        W15015   9.713  35.934  10.655
49855W        W15016  10.271   4.769  14.392
49856W        W15017   4.264  21.784   3.356
49857W        W15018  29.571  26.697   4.998
49858W        W15019  21.162  10.760  12.940
49859W        W15020  28.025  19.388   2.216
49860W        W15021  20.615  25.006  11.661
49861W        W15022  21.547   4.944  11.154
49862W        W15023  33.566  13.304  13.389
49863W        W15024  41.597  25.825  12.114
49864W        W15025  19.608  31.930  14.375
49865W        W15026   3.822   8.649  11.662
49866W        W15027  13.402  37.923   4.702
49867W        W15028   7.326   2.704   1.327
49868W        W15029  27.511  12.373   3.063
49869W        W15030  39.535  23.249   4.506
49870W        W15031  10.864   1.474  14.432
49871W        W15032  19.653  36.109  10.642
49872W        W15033  41.626  32.548  14.815
49873W        W15034   8.088  29.790  10.939
49874W        W15035  14.010   1.738   3.579
49875W        W15036  27.260   0.820  14.008
49876W        W15037  42.996   1.383  14.451
49877W        W15038  40.857  16.479   1.168
49878W        W15039  14.526  43.436   4.533
49879W        W15040  26.729  38.849  12.174
49880W        W15041  19.754  38.911   2.211
49881W        W15042  38.351  34.656  12.428
49882W        W15043  24.202  18.300   0.037
49883W        W15044  29.264  26.173   2.774
49884W        W15045  35.473  20.648  13.338
49885W        W15046   0.974  24.671  14.791
49886W        W15047  35.922  10.298   3.876
49887W        W15048  41.199  42.099   4.082
49888W        W15049  16.054   3.685   0.716
49889W        W15050   4.486   6.223   4.680
49890W        W15051  41.618  11.446  10.738
49891W        W15052  11.807   1.259   2.233
49892W        W15053  21.776  43.095  12.037
49893W        W15054  25.030  44.253   2.850
49894W        W15055  32.871  12.701   1.443
49895W        W15056   1.143  13.500   3.304
49896W        W15057  34.532  35.517  11.928
49897W        W15058   8.447  37.354   3.693
49898W        W15059  36.643  42.323   9.943
49899W        W15060  20.614  17.110  13.761
49900W        W15061   4.140   9.638   1.489
49901W        W15062   2.916  24.119  10.592
49902W        W15063  38.550   1.280   2.792
49903W        W15064  22.834  19.180   1.084
49904W        W15065   9.091  17.086  13.561
49905W        W15066  29.204  18.727   3.419
49906W        W15067  34.489  40.685   3.853
49907W        W15068   9.258   4.637  12.009
49908W        W15069  36.899  39.975  13.909
49909W        W15070  37.642  29.007   2.744
49910W        W15071   2.180  42.490  10.717
49911W        W15072  40.393  30.187   2.180
49912W        W15073  33.500  23.744  13.136
49913W        W15074  29.406  40.612  12.065
49914W        W15075  20.467  24.797  13.967
49915W        W15076  37.160   1.899   4.231
49916W        W15077  27.099   3.825   0.334
49917W        W15078  13.100  44.760   0.885
49918W        W15079  41.237  30.046   2.420
49919W        W15080  39.391  42.895  11.607
49920W        W15081  31.492  14.928  10.726
49921W        W15082  22.682  25.658   4.065
49922W        W15083  21.566   4.534   0.550
49923W        W15084   8.925  11.659  12.233
49924W        W15085  26.746  43.466   4.112
49925W        W15086  14.120  13.536  12.873
49926W        W15087  31.121  27.258  14.766
49927W        W15088   8.497  22.007  13.321
49928W        W15089  35.578  17.196  11.178
49929W        W15090   5.111  25.592   2.852
49930W        W15091  23.291  21.949   4.374
49931W        W15092  30.420   4.137  13.834
49932W        W15093  23.257  22.745   1.404
49933W        W15094  25.573  22.235   4.065
49934W        W15095  33.146  13.088  14.333
49935W        W15096   5.159  38.205  11.641
49936W        W15097  30.158  28.188   0.792
49937W        W15098  16.272  17.759   3.798
49938W        W15099  13.143  26.518   2.906
49939W        W15100   2.697  39.318   3.841
49940W        W15101  36.083  27.706  12.052
49941W        W15102  37.017   8.629   3.203
49942W        W15103  40.591  25.259  11.270
49943W        W15104  37.582  37.855  12.297
49944W        W15105  28.694   1.353   1.371
49945W        W15106  24.491  23.424   3.623
49946W        W15107  18.879  20.777   4.097
49947W        W15108   3.214   4.238   2.911
49948W        W15109   1.975  25.995  12.004
49949W        W15110  28.038  24.936   0.404
49950W        W15111   1.814  33.188   0.032
49951W        W15112  30.443  31.060  12.965
49952W        W15113   6.409  34.858   4.362
49953W        W15114  18.417   9.279  12.409
49954W        W15115  44.638  10.729  14.198
49955W        W15116  28.433   4.261  14.481
49956W        W15117  19.961  24.644  14.035
49957W        W15118   5.141   1.448   0.332
49958W        W15119  40.826  31.727   4.889
49959W        W15120  15.139  44.859   3.387
49960W        W15121  34.418  19.086   3.649
49961W        W15122  12.852  30.392  14.524
49962W        W15123   7.637   9.647   0.833
49963W        W15124  18.224  17.892   1.680
49964W        W15125  24.679  40.962  12.849
49965W        W15126  33.857   9.837   4.411
49966W        W15127  34.484   9.162   4.604
49967W        W15128  34.129   6.933   1.781
49968W        W15129  41.147  42.535   2.217
49969W        W15130  40.943  12.341  11.499
49970W        W15131  32.808  29.731  12.539
49971W        W15132  21.919  25.306   4.639
49972W        W15133  10.311  24.504   1.192
49973W        W15134   0.175  10.319  12.413
49974W        W15135  17.529  30.182   4.067
49975W        W15136  14.141  42.669   1.737
49976W        W15137  42.385   4.208   2.197
49977W        W15138  28.571  12.201   1.236
49978W        W15139  12.733  22.414  13.589
49979W        W15140   9.405  19.784   2.931
49980W        W15141  13.381  14.322   4.474
49981W        W15142  19.534  14.999   1.122
49982W        W15143  39.937  25.613   1.212
49983W        W15144  25.025  10.584  14.393
49984W        W15145  18.828  22.679   0.219
49985W        W15146  18.015   0.526  14.362
49986W        W15147   1.986   1.737  13.882
49987W        W15148  15.761  25.403   1.313
49988W        W15149  21.633  33.775   2.999
49989W        W15150  19.538  43.542   9.873
49990W        W15151  15.510  36.265  13.998
49991W        W15152  19.101   0.764   0.568
49992W        W15153  34.091  26.000   2.713
49993W        W15154  29.925  43.315   0.300
49994W        W15155  41.039  27.956   2.435
49995W        W15156  37.414  37.121  10.617
49996W        W15157   8.362   8.837   1.512
49997W        W15158  39.455  15.569   3.260
49998W        W15159  21.064  44.700   3.097
49999W        W15160  41.317  17.126  14.405
50000W        W15161  17.559   2.176  12.488
50001W        W15162  22.096  34.474   0.135
50002W        W15163  19.434  21.626  13.222
50003W        W15164  29.041  25.992   4.242
50004W        W15165  42.680  20.488   3.957
50005W        W15166  25.758  11.111   0.434
50006W        W15167  44.950  14.664   3.580
50007W        W15168  26.178   7.964   0.438
50008W        W15169  18.297   6.805  13.930
50009W        W15170  43.107  34.360  14.543
50010W        W15171  22.579  12.855  11.751
50011W        W15172   0.940   8.422  13.469
50012W        W15173  28.274  39.812  13.541
50013W        W15174   7.783  31.765  13.966
50014W        W15175   7.032  28.769   0.812
50015W        W15176  17.615   3.655   3.180
50016W        W15177  14.555   5.495  14.808
50017W        W15178  39.613  43.250   1.815
50018W        W15179   7.999  21.705  13.431
50019W        W15180  36.488  26.789   0.447
50020W        W15181  40.449  13.213   2.152
50021W        W15182  11.957  38.962  11.133
50022W        W15183  31.600  15.723   4.426
50023W        W15184  24.515  28.116   3.562
50024W        W15185  21.602   7.812   4.370
50025W        W15186  30.907  43.011  11.116
50026W        W15187  41.644  10.033   4.190
50027W        W15188  31.590   6.830   1.183
50028W        W15189  26.475  13.675  12.845
50029W        W15190  37.163  38.990   1.818
50030W        W15191  15.855   0.517  10.308
50031W        W15192  13.295  38.070  13.834
50032W        W15193  44.356  13.272   9.412
50033W        W15194  38.231  35.476   2.809
50034W        W15195  34.374  14.166  13.887
50035W        W15196  36.065  35.570   4.237
50036W        W15197  40.998  24.258  11.015
50037W        W15198   0.841   6.645  11.049
50038W        W15199  32.726  35.892   4.693
50039W        W15200  12.879  29.622  14.914
50040W        W15201  36.414  28.460   3.151
50041W        W15202   8.344  26.727   2.012
50042W        W15203  42.040   3.669  14.492
50043W        W15204  34.900  10.761  14.084
50044W        W15205  39.785  36.385  13.427
50045W        W15206  15.654  34.671   1.312
50046W        W15207   8.177  18.811  11.894
50047W        W15208  17.906  35.624  14.202
50048W        W15209  30.751   3.238  11.206
50049W        W15210   4.148  16.395   3.699
50050W        W15211  26.586  22.930  12.173
50051W        W15212   2.751  27.186   1.358
50052W        W15213  11.752  32.224   2.373
50053W        W15214  14.340  25.397  11.673
50054W        W15215   5.267   1.015   0.049
50055W        W15216   0.711  18.068   1.846
50056W        W15217   4.641  34.780   0.719
50057W        W15218  21.500  38.687   9.933
50058W        W15219   9.433  32.434   3.826
50059W        W15220  24.554  43.960   2.717
50060W        W15221  14.139  36.132  14.356
50061W        W15222  34.957  27.656  12.978
50062W        W15223  27.709  24.517  10.372
50063W        W15224  21.728  18.070   4.117
50064W        W15225  40.716  18.599  13.264
50065W        W15226  26.658  28.932   0.611
50066W        W15227  14.142  22.998   2.862
50067W        W15228  18.808   5.869   0.899
50068W        W15229  31.845  27.179   1.426
50069W        W15230  16.611   4.154   4.564
50070W        W15231   1.456  36.427  12.144
50071W        W15232  26.728  36.050  10.736
50072W        W15233  27.516  38.104   1.919
50073W        W15234  21.145   6.311  12.060
50074W        W15235  30.119  20.142  13.779
50075W        W15236  24.275  44.265  14.934
50076W        W15237   1.002  17.565  14.891
50077W        W15238  33.153   9.697  14.945
50078W        W15239  26.348  43.357  14.477
50079W        W15240   7.353  24.921   2.370
50080W        W15241  26.694  10.407   3.746
50081W        W15242  17.785  25.015  13.887
50082W        W15243  11.007  33.915   3.261
50083W        W15244  16.257  32.846  12.476
50084W        W15245  35.946  22.882   0.798
50085W        W15246  38.593  31.090  12.854
50086W        W15247  28.721  30.874   3.628
50087W        W15248  16.670  26.949  12.738
50088W        W15249  43.004  30.049   0.230
50089W        W15250  28.225   6.316   0.513
50090W        W15251  37.586  42.827  12.790
50091W        W15252  13.320  10.733  14.568
50092W        W15253  40.417   6.768   4.693
50093W        W15254  29.953  31.531   0.893
50094W        W15255  39.904   8.872   4.265
50095W        W15256   5.698   3.361   1.787
50096W        W15257  21.113  31.043  12.501
50097W        W15258  44.466  11.275   4.119
50098W        W15259  19.849  41.450  13.148
50099W        W15260   7.080  42.294  14.801
50100W        W15261   8.125  29.365   0.222
50101W        W15262  37.315  15.449   3.924
50102W        W15263  22.651  35.042   3.044
50103W        W15264  10.276  42.033  11.230
50104W        W15265  12.761  38.828   3.388
50105W        W15266  25.658   7.445   4.947
50106W        W15267  25.802  41.644  13.518
50107W        W15268  22.797  24.487   0.645
50108W        W15269  14.318   2.680   3.825
50109W        W15270   3.862  15.736   0.769
50110W        W15271  23.241  27.362  12.436
50111W        W15272   9.218  22.207  11.689
50112W        W15273  38.015  17.776   4.874
50113W        W15274   7.010  25.100  10.730
50114W        W15275  34.182  27.018  13.997
50115W        W15276  21.418   6.812  11.166
50116W        W15277  42.488  34.201   2.752
50117W        W15278  19.255  25.722   1.884
50118W        W15279  12.277   0.004   2.723
50119W        W15280  22.165  10.287  13.371
50120W        W15281   5.651  35.736  13.245
50121W        W15282  42.634  34.644  14.557
50122W        W15283  36.286   3.944   4.976
50123W        W15284  31.074  44.840   3.405
50124W        W15285  32.674  42.755  11.506
50125W        W15286  18.033   7.672  11.631
50126W        W15287   2.388  33.526   3.653
50127W        W15288  16.627  28.448   4.360
50128W        W15289   4.803  11.908  14.552
50129W        W15290  14.687   3.811   4.067
50130W        W15291  43.468   3.952   0.908
50131W        W15292  31.175  36.739  11.238
50132W        W15293   0.332  14.550  13.469
50133W        W15294  27.461  36.148  12.049
50134W        W15295  25.355   9.523   4.601
50135W        W15296  22.566  14.719   2.713
50136W        W15297   4.795  20.148   4.516
50137W        W15298   9.739   2.981  13.360
50138W        W15299  42.416  10.235  13.800
50139W        W15300  35.384   9.233  12.746
50140W        W15301  14.047   3.831   0.361
50141W        W15302  30.701  28.049   1.730
50142W        W15303  21.534  23.333   4.387
50143W        W15304   1.487  13.547   0.354
50144W        W15305  13.028   8.776   0.860
50145W        W15306  42.448  21.106   2.336
50146W        W15307  43.204  43.842   0.855
50147W        W15308  37.261   9.319  10.740
50148W        W15309  11.251  14.789  10.738
50149W        W15310  28.024   8.565  10.802
50150W        W15311  30.168   4.905   2.446
50151W        W15312   7.142  10.719   4.636
50152W        W15313  11.706   2.795  13.439
50153W        W15314   0.014  10.703   3.712
50154W        W15315   0.968  34.627   0.883
50155W        W15316  30.433  10.100  11.527
50156W        W15317  27.218   9.169  13.300
50157W        W15318   4.616  20.122  11.340
50158W        W15319  12.066  16.004  10.775
50159W        W15320   8.677  32.874   3.586
50160W        W15321  25.924   4.949   1.971
50161W        W15322  38.496  42.764   5.355
50162W        W15323  22.624  33.944   1.758
50163W        W15324  38.780   5.451  10.788
50164W        W15325   6.323  23.021  14.640
50165W        W15326  39.248  39.055  11.625
50166W        W15327   5.445  23.412  14.788
50167W        W15328   2.789  35.191   1.265
50168W        W15329  36.548   3.272  12.446
50169W        W15330  44.545  20.293  14.625
50170W        W15331  25.563  11.377  14.901
50171W        W15332  30.192  44.007  13.673
50172W        W15333   3.638  24.659  11.536
50173W        W15334  16.098   1.485  14.916
50174W        W15335  22.269   5.878  14.386
50175W        W15336  34.580  19.004  10.664
50176W        W15337   1.759  30.841  12.520
50177W        W15338  25.770  24.139   1.450
50178W        W15339  11.951  16.656   4.740
50179W        W15340   1.908  30.038  14.546
50180W        W15341  41.409  14.918   1.736
50181W        W15342  16.798  41.118   4.800
50182W        W15343  13.213  36.477   2.177
50183W        W15344   2.232  39.719  12.901
50184W        W15345  18.802  11.772  10.466
50185W        W15346  14.640  12.447   3.708
50186W        W15347  39.572  42.866  14.402
50187W        W15348  24.729   9.900   5.065
50188W        W15349   2.458  11.320  12.811
50189W        W15350   4.987  44.229  13.501
50190W        W15351  37.988  27.099   2.320
50191W        W15352  26.969   9.360  13.774
50192W        W15353  29.550  44.961   4.927
50193W        W15354  42.019  17.648   2.874
50194W        W15355  34.941   7.934   3.698
50195W        W15356  18.081  33.895   2.143
50196W        W15357  18.985  24.673   1.135
50197W        W15358  42.406   8.985  12.396
50198W        W15359  18.867  37.822  11.419
50199W        W15360  44.717  20.716   2.816
50200W        W15361  24.380  29.105   0.667
50201W        W15362  15.849   9.429   1.795
50202W        W15363  24.251  36.441   2.900
50203W        W15364  31.062  31.198   4.255
50204W        W15365  19.343  24.703  12.913
50205W        W15366  18.489  11.254   3.220
50206W        W15367   7.893  27.391  14.853
50207W        W15368  43.579  39.864  14.801
50208W        W15369   5.720  18.153   0.684
50209W        W15370  21.535  12.296  14.888
50210W        W15371  32.973  10.741   0.383
50211W        W15372  23.316  16.241   4.561
50212W        W15373  34.872  23.638   4.031
50213W        W15374  25.305  31.618   0.364
50214W        W15375  39.003  17.250  11.044
50215W        W15376   6.512   9.851   1.805
50216W        W15377   3.911   0.550  12.309
50217W        W15378  31.730  24.587   2.305
50218W        W15379  23.478  28.074  13.735
50219W        W15380  30.128   0.839   2.272
50220W        W15381  14.564   0.219  12.418
50221W        W15382   9.908  30.669   0.926
50222W        W15383  41.860   4.374   2.808
50223W        W15384  27.342  36.616   3.201
50224W        W15385  30.921  39.002  10.231
50225W        W15386  18.525  19.468   2.253
50226W        W15387  18.866  29.139  10.676
50227W        W15388  32.613  15.217  14.750
50228W        W15389   2.801  43.975   2.628
50229W        W15390   7.251   3.507  12.774
50230W        W15391  21.654  44.872   0.707
50231W        W15392  33.996  37.811  12.238
50232W        W15393  30.941   4.368   4.498
50233W        W15394  36.357  21.074   2.015
50234W        W15395  37.830  32.060   0.807
50235W        W15396   6.551   3.853   1.153
50236W        W15397  24.939   7.801   2.175
50237W        W15398  38.154  26.786   3.135
50238W        W15399   2.361  16.319  10.843
50239W        W15400  42.971  26.481   4.180
50240W        W15401  12.884  21.001  14.686
50241W        W15402  37.563  40.986   1.653
50242W        W15403  41.906  10.301  10.212
50243W        W15404  22.993  33.081  12.086
50244W        W15405   9.818  34.035   4.837
50245W        W15406  19.096  17.427   0.291
50246W        W15407  31.707  41.286   3.650
50247W        W15408   6.422  17.206   2.297
50248W        W15409  20.436   3.954  13.994
50249W        W15410   1.590   5.338  14.775
50250W        W15411  13.847  27.914  13.377
50251W        W15412  18.040   9.441  13.860
50252W        W15413  31.025  41.059   0.727
50253W        W15414  13.178  35.350  13.787
50254W        W15415  36.134  41.829   2.760
50255W        W15416  30.582  25.574   1.365
50256W        W15417  33.868  41.560  12.179
50257W        W15418   7.695  28.649   0.307
50258W        W15419  21.066   5.794  10.669
50259W        W15420   9.620  39.499  13.452
50260W        W15421   3.757  34.043  11.722
50261W        W15422  35.415   9.964   0.305
50262W        W15423  18.204  28.386   1.299
50263W        W15424  31.195  20.468  10.319
50264W        W15425  41.090   1.965   0.160
50265W        W15426  36.294  12.276  14.446
50266W        W15427  28.259  26.801   0.388
50267W        W15428   6.636  35.859  12.780
50268W        W15429   7.842  30.162   3.805
50269W        W15430  30.127  38.121  14.565
50270W        W15431  39.221  24.497   0.014
50271W        W15432  31.871   6.193   2.720
50272W        W15433  19.669  18.023   1.218
50273W        W15434   0.956  38.068  14.563
50274W        W15435  35.730  24.602  13.633
50275W        W15436  38.873   4.830   4.530
50276W        W15437  15.564  36.724  14.976
50277W        W15438  41.815  26.006   4.246
50278W        W15439  32.338  21.288  11.892
50279W        W15440  44.815  35.659   3.648
50280W        W15441  11.576  16.557  11.604
50281W        W15442  26.982  30.887  13.327
50282W        W15443   6.194  25.979   0.903
50283W        W15444  44.318  44.394  14.700
50284W        W15445   0.553   5.665   3.211
50285W        W15446  17.513   9.421   2.660
50286W        W15447   8.178  33.514   1.429
50287W        W15448  10.273  17.657   3.910
50288W        W15449   6.683  39.572  13.123
50289W        W15450  29.517  44.981   0.392
50290W        W15451  28.659  25.451   4.514
50291W        W15452  38.994  41.477   0.412
50292W        W15453  34.465   2.530  14.836
50293W        W15454  39.263  44.876  12.028
50294W        W15455  15.713  15.630  13.822
50295W        W15456  31.170  38.986  13.607
50296W        W15457  29.060   7.345   3.323
50297W        W15458   9.100  12.447  11.971
50298W        W15459  10.674  26.115  10.688
50299W        W15460  35.162  33.211  11.796
50300W        W15461   9.486  17.802  10.153
50301W        W15462  29.342  14.615  14.788
50302W        W15463  18.701  21.752  12.123
50303W        W15464   2.153  27.092  11.186
50304W        W15465  16.055  27.536   1.706
50305W        W15466  24.998   0.762  10.903
50306W        W15467  10.247   2.928   0.816
50307W        W15468  40.635  41.774   2.722
50308W        W15469  40.194  30.472   3.712
50309W        W15470   7.709  29.201  12.499
50310W        W15471  16.054  26.944  11.972
50311W        W15472  31.360  29.609   0.368
50312W        W15473  13.263  28.633  14.577
50313W        W15474  10.902  27.136  10.699
50314W        W15475  36.313  41.350   2.742
50315W        W15476   6.914  35.266   1.347
50316W        W15477  28.129  34.032  14.538
50317W        W15478  32.468  29.968  11.643
50318W        W15479  33.873  27.615   4.681
50319W        W15480   2.486  22.690  11.993
50320W        W15481  22.756  28.438  13.092
50321W        W15482   7.221  11.350   2.817
50322W        W15483  21.006  32.805   0.383
50323W        W15484  43.036   8.972   3.408
50324W        W15485  39.825  24.594   4.632
50325W        W15486   6.789  39.072   1.761
50326W        W15487  43.364  28.625   3.737
50327W        W15488  12.070  33.458   3.614
50328W        W15489  24.207  39.678   1.188
50329W        W15490  24.538   1.648   4.582
50330W        W15491  44.792  23.442   1.001
50331W        W15492  43.319  44.954   1.856
50332W        W15493  11.337  43.896  14.465
50333W        W15494  35.268  36.836  13.096
50334W        W15495  25.098  29.578  12.584
50335W        W15496  38.925  28.913   0.954
50336W        W15497  32.377  37.249  14.849
50337W        W15498   1.087   7.675   4.887
50338W        W15499  26.977  24.229  13.455
50339W        W15500  15.205  35.609  11.150
50340W        W15501  34.670   6.374   0.707
50341W        W15502   0.497  26.986   2.003
50342W        W15503   2.300   2.730  14.417
50343W        W15504  30.486  22.162   3.346
50344W        W15505  25.388  19.066  10.913
50345W        W15506  33.286  43.441  14.875
50346W        W15507  33.883  44.929   4.135
50347W        W15508  19.085  38.021   3.764
50348W        W15509  36.469  19.793   3.668
50349W        W15510  17.628  29.006  14.372
50350W        W15511  35.605  21.401  11.709
50351W        W15512  31.191  27.787   9.914
50352W        W15513  25.976  11.689  13.408
50353W        W15514  26.131  34.560   4.098
50354W        W15515   0.234  10.777  12.722
50355W        W15516  20.284  36.965  12.412
50356W        W15517   8.356  44.046  12.175
50357W        W15518  32.116  34.474  13.660
50358W        W15519  34.878   2.630   2.336
50359W        W15520  28.543  28.633   4.415
50360W        W15521   1.869  23.772   2.273
50361W        W15522  24.105   3.180   3.115
50362W        W15523  33.787  24.665   1.617
50363W        W15524  19.425  41.474   3.148
50364W        W15525  34.575  42.465   3.812
50365W        W15526  12.700  41.462   1.980
50366W        W15527   7.718  19.185   1.538
50367W        W15528  24.099  21.019   3.600
50368W        W15529  27.392  32.203   2.871
50369W        W15530  25.938  27.564   2.766
50370W        W15531  10.907   1.654   2.340
50371W        W15532  11.793   9.986  12.936
50372W        W15533  30.960  36.642  14.217
50373W        W15534  22.082  33.637   0.705
50374W        W15535   7.910  44.514   0.687
50375W        W15536   4.235  23.640  13.625
50376W        W15537  18.123  32.194   0.331
50377W        W15538  42.922  22.343  14.830
50378W        W15539   4.968   4.320  13.932
50379W        W15540  33.599  15.576   1.001
50380W        W15541  10.754  21.199  13.645
50381W        W15542  13.758  41.379  14.958
50382W        W15543  15.798  10.328   0.833
50383W        W15544  39.754  35.491  13.855
50384W        W15545  42.102  15.758   4.958
50385W        W15546  36.527  20.564  12.863
50386W        W15547  23.974  43.697  14.021
50387W        W15548  18.304   9.888   4.384
50388W        W15549  40.947  20.058   1.879
50389W        W15550   3.519  33.984   1.799
50390W        W15551  27.118  34.856  10.579
50391W        W15552  44.302   8.893   3.903
50392W        W15553  27.812  35.894   1.040
50393W        W15554  24.154  12.611   2.059
50394W        W15555   7.331  10.296   4.922
50395W        W15556  33.881  26.963   2.263
50396W        W15557   3.971  32.469   4.102
50397W        W15558  32.733  19.598   1.755
50398W        W15559  17.259  38.376  12.892
50399W        W15560   2.441  25.048  13.982
50400W        W15561   9.662  17.444   0.932
50401W        W15562  40.928  31.914   1.318
50402W        W15563  39.001  44.227  13.411
50403W        W15564   0.759  35.483  13.292
50404W        W15565   2.974  28.763  14.017
50405W        W15566  27.177   2.435   0.998
50406W        W15567  26.644  11.239   1.578
50407W        W15568  39.917  19.629  12.443
50408W        W15569   5.380   3.402   3.649
50409W        W15570  39.699  40.222  14.428
50410W        W15571  29.173  33.848   2.804
50411W        W15572  25.915  30.836  11.637
50412W        W15573  34.923  17.795   2.086
50413W        W15574   8.379  23.560   3.737
50414W        W15575  13.677   5.133  14.941
50415W        W15576  14.272   3.960   5.022
50416W        W15577   6.851  17.732   1.645
50417W        W15578  16.563  17.681  11.441
50418W        W15579   1.823  23.574   2.779
50419W        W15580  16.972   2.523   0.466
50420W        W15581  26.478  12.122   1.062
50421W        W15582  31.362  43.335   0.962
50422W        W15583   4.020   8.968   0.930
50423W        W15584  12.225   9.751   3.774
50424W        W15585  20.135   2.385   0.987
50425W        W15586  30.397  28.221   4.265
50426W        W15587  40.630  38.870  13.259
50427W        W15588   0.453  18.454  10.529
50428W        W15589  43.965  18.671   3.428
50429W        W15590   8.243  42.371   4.001
50430W        W15591   8.146  31.209   3.167
50431W        W15592   9.697  34.827   1.668
50432W        W15593   7.099  15.742  12.398
50433W        W15594  25.671  27.873  12.688
50434W        W15595  25.265   9.699   0.827
50435W        W15596  32.112   0.032  13.849
50436W        W15597  32.499  19.468   3.516
50437W        W15598  28.680  10.927  10.733
50438W        W15599  44.809  34.979  14.265
50439W        W15600  41.381  31.862   4.212
50440W        W15601  14.824  40.995   1.096
50441W        W15602  39.755  24.602  14.884
50442W        W15603  22.023  35.052   3.963
50443W        W15604   0.959   9.158  13.988
50444W        W15605   4.700  16.706  12.105
50445W        W15606  25.299  34.496   4.714
50446W        W15607  40.520   4.635   4.222
50447W        W15608  40.738  44.956   4.055
50448W        W15609  33.430  40.847  13.881
50449W        W15610   9.455  26.925  10.224
50450W        W15611  31.534  37.669  13.426
50451W        W15612  29.602   5.889  13.861
50452W        W15613  40.078  20.095   0.898
50453W        W15614  13.680  41.132  10.734
50454W        W15615  43.070  27.147  12.999
50455W        W15616  11.979   2.193  11.293
50456W        W15617  21.535   7.637  13.504
50457W        W15618  43.825  10.392   1.794
50458W        W15619  34.694   9.827  11.069
50459W        W15620   5.678  11.799  14.065
50460W        W15621   6.171   9.306  13.019
50461W        W15622  36.541  39.786  13.597
50462W        W15623   0.590  11.684  10.745
50463W        W15624   8.792  18.586  11.215
50464W        W15625   7.835  41.980  13.916
50465W        W15626  27.511  20.486   0.307
50466W        W15627   3.539  16.822   1.822
50467W        W15628  36.470  43.008   2.138
50468W        W15629  34.943  41.482   0.521
50469W        W15630   8.620   5.462   1.367
50470W        W15631  19.820  18.293   4.635
50471W        W15632   1.948   1.869   3.207
50472W        W15633  37.762   3.008   4.000
50473W        W15634   7.623  26.702  13.342
50474W        W15635  39.375  40.644  14.537
50475W        W15636   5.231  37.578   4.454
50476W        W15637  39.441  32.532   4.191
50477W        W15638   0.315  19.232  14.591
50478W        W15639  18.625  32.112  12.018
50479W        W15640  33.880   2.279   1.217
50480W        W15641  15.135  33.122  12.863
50481W        W15642  38.080   2.398   1.705
50482W        W15643   7.581  18.989   2.306
50483W        W15644  21.509  16.261   1.786
50484W        W15645  25.184  18.625   2.743
50485W        W15646   2.861  12.700  12.261
50486W        W15647  23.061  19.721   3.827
50487W        W15648  35.031  36.834  13.549
50488W        W15649  41.329  37.856   4.271
50489W        W15650   0.147  21.884  11.206
50490W        W15651  12.775  36.383  12.945
50491W        W15652   4.414   0.212   3.158
50492W        W15653  28.581   5.716  13.968
50493W        W15654  32.130  11.124   0.321
50494W        W15655  39.569  20.158  13.149
50495W        W15656  44.465  37.118  14.446
50496W        W15657   6.856  41.907  12.032
50497W        W15658   4.344  23.821  12.230
50498W        W15659  22.914  17.154  10.677
50499W        W15660  19.325  12.147   2.257
50500W        W15661  37.309  38.665  13.115
50501W        W15662  38.999  12.726  13.794
50502W        W15663  21.065  22.028   1.762
50503W        W15664  25.467  18.866  13.549
50504W        W15665  10.240  16.050  14.618
50505W        W15666  31.254  25.634  11.799
50506W        W15667  39.938  39.165  14.673
50507W        W15668  39.440  27.038   2.100
50508W        W15669  40.833  36.297   3.698
50509W        W15670   5.637  39.346  13.030
50510W        W15671  30.382  11.148   4.086
50511W        W15672  36.271  14.274   1.372
50512W        W15673   4.370   6.855  11.190
50513W        W15674  38.809   8.637  12.109
50514W        W15675  23.308  28.361   3.904
50515W        W15676   5.200   8.946   3.052
50516W        W15677  26.721  39.934  13.794
50517W        W15678   8.354  21.645   3.648
50518W        W15679  28.664  37.602  10.712
50519W        W15680  13.559  44.677  13.769
50520W        W15681   9.886  15.694  11.548
50521W        W15682  34.119  18.681   1.761
50522W        W15683  14.055  41.026  11.087
50523W        W15684  16.528  22.034   3.565
50524W        W15685  31.206  42.589   4.958
50525W        W15686  31.114   4.272  11.716
50526W        W15687   2.565  38.224  12.102
50527W        W15688  21.545  19.547  14.347
50528W        W15689  30.246  20.822  13.273
50529W        W15690   7.388  22.459   3.360
50530W        W15691  25.129  42.948   1.416
50531W        W15692   9.808  19.624   4.606
50532W        W15693   4.160   9.438  13.696
50533W        W15694  31.455  20.009  12.426
50534W        W15695  14.339   7.231  14.016
50535W        W15696  28.454  42.435   1.770
50536W        W15697   4.868  14.134  10.755
50537W        W15698  22.732  40.698   4.204
50538W        W15699  43.758   9.159  12.355
50539W        W15700  29.348  25.160  12.619
50540W        W15701  26.094   4.709   1.543
50541W        W15702   2.017  16.994  10.529
50542W        W15703  12.739  39.399   2.329
50543W        W15704  22.822  39.865   3.611
50544W        W15705  31.622  24.938   1.626
50545W        W15706  37.674  26.397  12.774
50546W        W15707  28.632  34.948  14.514
50547W        W15708  22.467  36.718   3.623
50548W        W15709  19.698  39.556   0.907
50549W        W15710   7.362  31.536   4.755
50550W        W15711  36.815  41.274   2.681
50551W        W15712  27.446  33.055  12.465
50552W        W15713  19.906  32.143   1.855
50553W        W15714  10.126  43.003  10.067
50554W        W15715  42.563  18.097   4.948
50555W        W15716   9.363  22.870  12.301
50556W        W15717  28.083  13.494   3.996
50557W        W15718  37.287  16.075  11.161
50558W        W15719  20.584  11.164  12.513
50559W        W15720  14.682   8.135   0.476
50560W        W15721  14.595  13.125   3.115
50561W        W15722  35.636  12.549   1.966
50562W        W15723  11.863  24.620   4.904
50563W        W15724  28.918   6.267  11.454
50564W        W15725  11.670  42.349  14.283
50565W        W15726  11.382   7.728  12.883
50566W        W15727  38.793  10.246   0.767
50567W        W15728  35.404  32.324   4.643
50568W        W15729  12.245  28.058  10.414
50569W        W15730  28.201  37.380  14.355
50570W        W15731  36.658  20.188   2.430
50571W        W15732  30.741  19.114  11.433
50572W        W15733  11.971  16.242   3.642
50573W        W15734  28.487  28.624   3.351
50574W        W15735  16.120  20.116  13.747
50575W        W15736  16.337   3.791  13.390
50576W        W15737  33.928  39.344  11.190
50577W        W15738  16.842  33.875   0.455
50578W        W15739  30.624  43.579  10.878
50579W        W15740  27.610  39.581   0.214
50580W        W15741  33.105  10.387   0.746
50581W        W15742  37.025   1.255  11.680
50582W        W15743  29.093  41.531   2.246
50583W        W15744   7.429  20.814  10.543
50584W        W15745  26.936  37.387   0.812
50585W        W15746  15.176  39.704   3.091
50586W        W15747  36.989  43.854   1.889
50587W        W15748  30.139  35.515   4.204
50588W        W15749  40.814   3.606   0.846
50589W        W15750  17.706   9.851   3.642
50590W        W15751  42.628   5.279  13.528
50591W        W15752  44.830  41.355  10.524
50592W        W15753  32.629  14.112  12.947
50593W        W15754   2.312  15.220   1.557
50594W        W15755  10.066  27.930   5.133
50595W        W15756   9.163  22.117   1.166
50596W        W15757  38.314  38.904  13.018
50597W        W15758  33.793   7.766   2.730
50598W        W15759  22.472  11.815   2.631
50599W        W15760  23.631  44.348  12.356
50600W        W15761  18.295  36.670   1.805
50601W        W15762  15.292  22.558   0.598
50602W        W15763   7.963  34.175   0.845
50603W        W15764  37.519  20.981   4.420
50604W        W15765  25.588  39.034  14.400
50605W        W15766  14.704  15.117   1.749
50606W        W15767  37.991  40.830  12.129
50607W        W15768  35.427   4.667  13.971
50608W        W15769  29.178  13.241   2.829
50609W        W15770   4.356  19.628   0.553
50610W        W15771  38.411  29.105  13.022
50611W        W15772  34.006   6.956   0.824
50612W        W15773  16.503  42.532   4.573
50613W        W15774   6.698   9.328  12.363
50614W        W15775  40.838  21.756   1.209
50615W        W15776  29.155  36.924   3.140
50616W        W15777   5.159  11.914  11.385
50617W        W15778  21.292   3.391   3.965
50618W        W15779  10.847   7.393  11.825
50619W        W15780  28.974   6.064   1.692
50620W        W15781  44.514  40.082  13.448
50621W        W15782  40.014  19.965   2.847
50622W        W15783  24.177  27.339  11.049
50623W        W15784  37.101  10.867  13.292
50624W        W15785  39.760  44.889  11.949
50625W        W15786  43.446   8.866  14.487
50626W        W15787  32.896   1.365  12.929
50627W        W15788  23.713  41.743  13.087
50628W        W15789  17.187  18.724   2.928
50629W        W15790  15.848  27.332  11.215
50630W        W15791  44.954   5.999  13.790
50631W        W15792  37.949  17.083  11.608
50632W        W15793  24.391  38.532  13.482
50633W        W15794  13.804  27.892  12.492
50634W        W15795   7.923  44.868   1.513
50635W        W15796  26.343   9.217   4.575
50636W        W15797  40.510   6.769   0.379
50637W        W15798  31.559  28.156   9.912
50638W        W15799  22.507  32.947   1.230
50639W        W15800  43.860  44.288  14.298
50640W        W15801  42.025  29.476  11.187
50641W        W15802  23.289  11.273  14.824
50642W        W15803  35.812  44.945  11.985
50643W        W15804  41.724  13.129   3.331
50644W        W15805  35.063  43.652  11.705
50645W        W15806  41.416  32.413  14.338
50646W        W15807  35.042  21.505   3.770
50647W        W15808   2.959  18.151  14.834
50648W        W15809  21.772   3.124  13.034
50649W        W15810   3.739  39.101  13.373
50650W        W15811  38.890  22.437  14.018
50651W        W15812  17.294  22.563   3.142
50652W        W15813  40.368  36.594  11.625
50653W        W15814  38.075   8.225  14.864
50654W        W15815  12.148  38.986  12.041
50655W        W15816  29.350  32.616   0.238
50656W        W15817  34.084  25.846  13.602
50657W        W15818  16.698   8.264  10.751
50658W        W15819  10.726  16.347   4.229
50659W        W15820  20.452  43.266  12.968
50660W        W15821  20.981  15.635   1.871
50661W        W15822  19.512  37.531   2.674
50662W        W15823  16.982  32.201  12.575
50663W        W15824   2.974   8.341   1.620
50664W        W15825   8.487  10.596   1.779
50665W        W15826  42.299  36.054   4.250
50666W        W15827  30.133  23.267   0.500
50667W        W15828  42.510   1.978  13.793
50668W        W15829   4.649  29.975   2.728
50669W        W15830  18.242   5.868  12.525
50670W        W15831  28.514  21.045  13.468
50671W        W15832   1.223  41.485  10.707
50672W        W15833  15.217  17.322   2.218
50673W        W15834  11.304  37.293   0.761
50674W        W15835  19.705  34.849  13.695
50675W        W15836  33.693  14.411   1.291
50676W        W15837   5.217  32.478   3.195
50677W        W15838   3.941  24.841   1.691
50678W        W15839  17.643  40.104   0.483
50679W        W15840  19.820  17.324   9.954
50680W        W15841  11.839  34.683  13.001
50681W        W15842  25.674  25.555   2.939
50682W        W15843  29.932   5.317  10.718
50683W        W15844  14.093   0.171  14.571
50684W        W15845  32.021  28.877  13.116
50685W        W15846  22.539  26.982  10.455
50686W        W15847  34.621   3.818   2.208
50687W        W15848  11.184  30.163  11.638
50688W        W15849  39.125   0.386  12.999
50689W        W15850  35.908  27.936   3.776
50690W        W15851  37.295  11.426  14.452
50691W        W15852  34.654  19.759  11.176
50692W        W15853  21.466  12.290  13.973
50693W        W15854  17.886  37.433   4.099
50694W        W15855   7.895  15.494   4.194
50695W        W15856  13.754   6.634   3.521
50696W        W15857  13.198   3.734  14.023
50697W        W15858  34.821  17.258   2.314
50698W        W15859  29.784  31.833   0.032
50699W        W15860  34.873  19.673  13.892
50700W        W15861   8.979  12.101   4.588
50701W        W15862   0.820   4.343  12.955
50702W        W15863  40.720  30.334  14.986
50703W        W15864  28.952  38.063  13.046
50704W        W15865  10.843  11.892   4.497
50705W        W15866  44.068  19.246   2.803
50706W        W15867  17.458  11.328   1.947
50707W        W15868  25.116  28.041   0.978
50708W        W15869  43.953   8.878   4.750
50709W        W15870   3.455  14.564   2.314
50710W        W15871  15.082  20.571   2.800
50711W        W15872  36.164   7.637  13.102
50712W        W15873  33.915  42.045  12.003
50713W        W15874  15.159  10.397  10.944
50714W        W15875  35.780  17.681  11.081
50715W        W15876  34.835  40.619  12.622
50716W        W15877   6.703   3.467  11.482
50717W        W15878  11.827  41.263   3.920
50718W        W15879   7.916  33.039  14.430
50719W        W15880  43.958   1.586   3.368
50720W        W15881  34.020  33.452  14.788
50721W        W15882  20.679  31.996   0.856
50722W        W15883  41.768  20.016  13.412
50723W        W15884   3.746  36.979  13.132
50724W        W15885  14.669  40.451   1.644
50725W        W15886  36.989  15.836   4.077
50726W        W15887  32.571  43.958   0.270
50727W        W15888  12.706   8.263   2.403
50728W        W15889  19.286  42.515   4.366
50729W        W15890  40.446   9.700  12.492
50730W        W15891   5.730   0.487  13.351
50731W        W15892   2.766  31.848   3.721
50732W        W15893  39.033  20.265   1.308
50733W        W15894  40.097   4.855  14.735
50734W        W15895  29.189  36.474   1.891
50735W        W15896   1.846   6.742  14.718
50736W        W15897  15.680  15.060   0.738
50737W        W15898  33.513  32.526   2.617
50738W        W15899  13.498   5.302  14.072
50739W        W15900  31.702  42.497   0.417
50740W        W15901   4.367  30.469   4.140
50741W        W15902   2.263  12.353  14.799
50742W        W15903  33.061  39.311   3.142
50743W        W15904   9.016   9.233   0.368
50744W        W15905  39.287  29.626   1.148
50745W        W15906   2.192   2.287  12.960
50746W        W15907  27.716  43.517   1.141
50747W        W15908  20.533  41.010  11.692
50748W        W15909  14.708  39.838  13.519
50749W        W15910  15.216  12.637  13.616
50750W        W15911  29.299  12.739   0.385
50751W        W15912  17.022  34.056  12.530
50752W        W15913  26.798  14.305  10.580
50753W        W15914  12.863  31.962   1.880
50754W        W15915  32.324  38.846  14.397
50755W        W15916   9.859  11.367  13.932
50756W        W15917   9.326  16.964  14.829
50757W        W15918  20.260  34.931   3.242
50758W        W15919  11.844  15.229  12.926
50759W        W15920   1.346  15.112   1.734
50760W        W15921  34.524  31.679  11.104
50761W        W15922  22.608  27.176  14.930
50762W        W15923  37.343  19.077  10.974
50763W        W15924  37.654  26.906  11.488
50764W        W15925  30.369   6.294   4.643
50765W        W15926  23.140  37.926   2.787
50766W        W15927  10.168  31.931   1.287
50767W        W15928   8.278  27.197  10.698
50768W        W15929  28.936  32.611   1.758
50769W        W15930  41.057  40.143   3.721
50770W        W15931  26.553  40.961  13.793
50771W        W15932  43.263  13.768  14.897
50772W        W15933   3.878  34.926  13.844
50773W        W15934  26.631  24.815  11.723
50774W        W15935  44.487   2.348   3.858
50775W        W15936  25.582   3.522   3.435
50776W        W15937  28.174  18.799  12.035
50777W        W15938  42.433   1.675  12.815
50778W        W15939  39.665  39.978   1.610
50779W        W15940  16.276   5.379   0.413
50780W        W15941   4.616  40.952   3.922
50781W        W15942  10.889  24.544   1.846
50782W        W15943  43.004  17.192  11.343
50783W        W15944  35.562  23.115   3.412
50784W        W15945  41.950  38.955   3.755
50785W        W15946  37.315   9.123  12.471
50786W        W15947  17.015  22.144   0.478
50787W        W15948  17.387  21.635   1.189
50788W        W15949  29.027   1.212  12.934
50789W        W15950  39.650  22.966  14.083
50790W        W15951  22.789  44.284   3.665
50791W        W15952  27.852  42.714   2.809
50792W        W15953   3.756  40.447  13.384
50793W        W15954  18.297  16.223  14.246
50794W        W15955  13.226  31.367  11.182
50795W        W15956  24.396   5.570   3.233
50796W        W15957   3.400   1.993   4.715
50797W        W15958  26.659  18.554   3.113
50798W        W15959  23.789   1.173  14.087
50799W        W15960   5.869  18.089   4.025
50800W        W15961  34.456  23.504   1.557
50801W        W15962  39.595  44.863   0.751
50802W        W15963  27.215  40.075  13.834
50803W        W15964  39.089  38.526   1.599
50804W        W15965  24.054  35.058  12.509
50805W        W15966   0.113  10.867  14.113
50806W        W15967  21.603  25.505  12.999
50807W        W15968  42.046  26.646  10.798
50808W        W15969  41.485  33.770  10.676
50809W        W15970  12.217  42.152  14.464
50810W        W15971   4.020  21.147   3.327
50811W        W15972  17.190  29.945   0.500
50812W        W15973  36.419  32.120   3.728
50813W        W15974   6.338  23.801   5.065
50814W        W15975  37.937  26.200  14.950
50815W        W15976  12.123  35.864  12.691
50816W        W15977  25.509  14.318  11.678
50817W        W15978  41.927   3.933   1.376
50818W        W15979  35.599  23.411   1.945
50819W        W15980  20.122  21.282   3.131
50820W        W15981  25.752  10.282  14.299
50821W        W15982  22.309  37.921  10.278
50822W        W15983   9.126  25.423   5.381
50823W        W15984  18.116  16.289  14.729
50824W        W15985  11.526   0.911  10.835
50825W        W15986  29.959  13.519   2.116
50826W        W15987  39.185  32.095  14.039
50827W        W15988  23.253  15.102  14.423
50828W        W15989  24.636  18.256  12.008
50829W        W15990  31.905   6.972  11.889
50830W        W15991  21.058   7.189  12.940
50831W        W15992   4.230  42.651  11.139
50832W        W15993   2.559  18.780  12.572
50833W        W15994  26.051  17.495  13.105
50834W        W15995  27.671   9.299  11.602
50835W        W15996  27.005  30.516   2.713
50836W        W15997  26.452  17.125   3.176
50837W        W15998  37.016   0.270   0.479
50838W        W15999  16.070   7.231   1.594
50839W        W16000  14.195  30.759   2.764
50840W        W16001  18.451  17.528  13.040
50841W        W16002  24.443  28.092   4.082
50842W        W16003  35.630   6.421   0.857
50843W        W16004  12.628  21.960  13.373
50844W        W16005   5.175  29.412   9.826
50845W        W16006   6.282  42.826   1.843
50846W        W16007   3.411  40.599  14.409
50847W        W16008  28.023  44.020   2.354
50848W        W16009   5.232  31.453   4.053
50849W        W16010   4.348  37.896  14.948
50850W        W16011   7.840  24.875   4.030
50851W        W16012   1.638   2.788   2.214
50852W        W16013   7.596   7.223  11.954
50853W        W16014  25.560   1.254  11.141
50854W        W16015  11.913  36.124  13.960
50855W        W16016  30.453  18.505  13.457
50856W        W16017  29.478  28.169   3.787
50857W        W16018   4.372  15.889  14.997
50858W        W16019  41.780  30.219  11.450
50859W        W16020  30.106  41.928   3.768
50860W        W16021  22.492  31.384  13.979
50861W        W16022  37.068  15.322  11.595
50862W        W16023  35.351   6.183  12.485
50863W        W16024  38.823   2.496  13.589
50864W        W16025   1.545  21.100   2.765
50865W        W16026  20.574   3.255   4.697
50866W        W16027  22.522  20.720  14.047
50867W        W16028  12.319   4.023   5.085
50868W        W16029  22.287  25.128  10.802
50869W        W16030   0.324  17.129  12.021
50870W        W16031   0.531  26.952  12.037
50871W        W16032  15.761  27.697  11.644
50872W        W16033  16.298   4.880   0.073
50873W        W16034  13.795  32.911   1.821
50874W        W16035  42.257  13.422   1.299
50875W        W16036   6.917   4.417  14.002
50876W        W16037  29.139  30.704   2.701
50877W        W16038   8.704  34.367   4.556
50878W        W16039   0.115  13.882   2.033
50879W        W16040  27.828  25.526   3.631
50880W        W16041  42.938  31.358   3.738
50881W        W16042  21.789  40.481  14.407
50882W        W16043  14.226  18.055   2.365
50883W        W16044  38.350  36.801  11.721
50884W        W16045  38.413   0.202  14.939
50885W        W16046  22.754  38.028   0.347
50886W        W16047  29.713  20.052   0.649
50887W        W16048  42.507  29.967   1.386
50888W        W16049  18.731  18.791  11.594
50889W        W16050  41.766  16.836   3.264
50890W        W16051  38.789  22.796  11.146
50891W        W16052  11.257  26.716  14.310
50892W        W16053   5.789  24.153  14.216
50893W        W16054  21.341   2.369   4.568
50894W        W16055   4.317  17.671  14.332
50895W        W16056  40.618  25.194  14.036
50896W        W16057  12.610  20.996   0.435
50897W        W16058   4.275  15.330  12.058
50898W        W16059  21.554  23.260  14.741
50899W        W16060   5.792  23.790  10.369
50900W        W16061  24.072   1.850  14.157
50901W        W16062  44.059  44.723   4.679
50902W        W16063  13.298  37.481  10.667
50903W        W16064   1.059  30.157   3.642
50904W        W16065  16.530  24.082   1.451
50905W        W16066  34.550  17.526   4.931
50906W        W16067  41.444  24.149   1.631
50907W        W16068  37.120  17.714   1.333
50908W        W16069   1.981  26.580  12.827
50909W        W16070   2.475  40.548   0.231
50910W        W16071  41.855  43.515  13.040
50911W        W16072  27.299  21.732  12.119
50912W        W16073   5.414  24.396   5.514
50913W        W16074  41.501  39.804  12.981
50914W        W16075  40.901  23.855  12.899
50915W        W16076  31.631   8.666   5.210
50916W        W16077  35.059  18.910  14.341
50917W        W16078  36.488   7.453  13.953
50918W        W16079   8.103   8.202  12.480
50919W        W16080  42.831  15.043   4.864
50920W        W16081  41.053  12.387   4.888
50921W        W16082  16.243  15.621   2.014
50922W        W16083  44.436  35.499  10.306
50923W        W16084  27.234  26.912  11.783
50924W        W16085  23.760  12.080  13.054
50925W        W16086  41.954  16.640   4.365
50926W        W16087  43.600   8.263  13.428
50927W        W16088  34.593  22.767  14.800
50928W        W16089   6.399  15.434  14.956
50929W        W16090   6.597  33.398  11.122
50930W        W16091  21.512  27.371   1.901
50931W        W16092  23.349   4.389   4.314
50932W        W16093  37.144  11.400  12.573
50933W        W16094  33.129  23.048   3.722
50934W        W16095  44.406   0.496   2.215
50935W        W16096  13.786  37.908   1.657
50936W        W16097  38.879  43.584  14.556
50937W        W16098  29.715   7.162  10.437
50938W        W16099  34.871  32.100   0.700
50939W        W16100  36.800  39.062   4.015
50940W        W16101  43.541  18.441  14.844
50941W        W16102   4.292  39.584  13.727
50942W        W16103  37.136  18.680  11.663
50943W        W16104   6.690  16.922   4.643
50944W        W16105   8.787   3.754   4.693
50945W        W16106   2.241  21.077   1.650
50946W        W16107  19.737  23.744   2.811
50947W        W16108  42.968  14.101   2.767
50948W        W16109   2.867  34.547   3.902
50949W        W16110   4.639  44.834  12.514
50950W        W16111  24.187  43.255  12.050
50951W        W16112   1.242   9.733  13.705
50952W        W16113  12.194  10.948   0.393
50953W        W16114   3.947  19.194   3.530
50954W        W16115   6.199   5.459   2.560
50955W        W16116  16.007   2.648  12.428
50956W        W16117   4.415  14.268   0.845
50957W        W16118   1.846   0.226   3.901
50958W        W16119  30.928  32.857  12.998
50959W        W16120   1.844  40.325  12.112
50960W        W16121   6.899   5.506  13.949
50961W        W16122  34.051  35.124   0.017
50962W        W16123  14.617  13.610  13.078
50963W        W16124  18.590  28.721   1.196
50964W        W16125  25.977  19.914   1.848
50965W        W16126   5.019   2.810  14.993
50966W        W16127  19.235   7.148  14.134
50967W        W16128   3.477   3.874   3.211
50968W        W16129  18.208  20.544   1.641
50969W        W16130  19.279  43.387  11.397
50970W        W16131  23.117  31.674   2.139
50971W        W16132   8.702  32.959  11.875
50972W        W16133   3.197  31.668   2.293
50973W        W16134  13.687  18.858  10.618
50974W        W16135  31.575  14.728  12.959
50975W        W16136  18.321  14.486   1.831
50976W        W16137   6.911  21.690   3.880
50977W        W16138  30.170  19.878   0.451
50978W        W16139  23.163  15.510  14.088
50979W        W16140  26.583  15.768  11.072
50980W        W16141  36.983   4.767   4.025
50981W        W16142  40.835  32.554  11.470
50982W        W16143  18.029  25.507  13.992
50983W        W16144  34.894   7.982  10.826
50984W        W16145  33.624  17.727   4.066
50985W        W16146   0.326  26.891  11.150
50986W        W16147   3.195  41.791  14.857
50987W        W16148  43.772  35.406   5.062
50988W        W16149  26.129  18.209   4.868
50989W        W16150   3.476  43.029  10.741
50990W        W16151  42.570  39.441  14.778
50991W        W16152  33.890  23.810   3.941
50992W        W16153  30.587  40.940   2.808
50993W        W16154  31.078  21.527  13.852
50994W        W16155  13.560  24.857  13.536
50995W        W16156  10.889  42.450   4.632
50996W        W16157   6.258  31.657  14.586
50997W        W16158  33.788   2.547  14.458
50998W        W16159  12.646  22.488  14.950
50999W        W16160   9.855  30.081   1.851
51000W        W16161  25.126  10.266   4.999
51001W        W16162  15.255  25.675   3.234
51002W        W16163  10.578  15.375  11.992
51003W        W16164  36.532  16.662   3.190
51004W        W16165  42.036  36.373  12.091
51005W        W16166  26.731  10.379   1.250
51006W        W16167   2.422  24.059   0.937
51007W        W16168   6.285  25.017   4.620
51008W        W16169  16.731   7.980  11.186
51009W        W16170  33.534  22.016   2.952
51010W        W16171  15.330  21.954   3.177
51011W        W16172  17.741   2.880   4.326
51012W        W16173   9.622  15.205   1.991
51013W        W16174   5.423  22.420   2.385
51014W        W16175  10.471  17.817   2.361
51015W        W16176  35.840  11.709   1.660
51016W        W16177   6.885  19.835   3.612
51017W        W16178  25.098  18.589  14.326
51018W        W16179  30.899   5.328   1.737
51019W        W16180   7.339  42.999  14.471
51020W        W16181  34.090   2.487   0.344
51021W        W16182  10.247  18.998  13.579
51022W        W16183  23.494  15.753  12.038
51023W        W16184  16.840  39.782  11.190
51024W        W16185  34.634  12.042  13.509
51025W        W16186  21.066  24.606   0.474
51026W        W16187  28.199  10.126   4.231
51027W        W16188  15.309  31.675  13.450
51028W        W16189  40.643  41.984  10.846
51029W        W16190  29.628  41.189  10.168
51030W        W16191   2.820  39.445   3.346
51031W        W16192   9.498   7.873   3.447
51032W        W16193  20.282  21.191  11.514
51033W        W16194  22.069  14.578  14.051
51034W        W16195  15.454   5.270  12.930
51035W        W16196  29.706   3.971  13.044
51036W        W16197  40.002  23.230   4.255
51037W        W16198  13.802  37.421   0.969
51038W        W16199  33.331  10.381  14.221
51039W        W16200  15.127  44.587  14.445
51040W        W16201  38.085  39.784   3.143
51041W        W16202  33.511  38.756   3.967
51042W        W16203  14.264  34.124  11.508
51043W        W16204  31.344   8.322   2.999
51044W        W16205  16.092  11.198  11.186
51045W        W16206  26.792   6.017   0.574
51046W        W16207  36.358  19.279  12.505
51047W        W16208  37.581  32.941   0.952
51048W        W16209  24.210  25.229   2.673
51049W        W16210  28.028  31.399  12.914
51050W        W16211  14.911  18.161  14.365
51051W        W16212   2.246   2.514  14.876
51052W        W16213  18.357  33.124   1.796
51053W        W16214  33.015  41.489   0.723
51054W        W16215  24.989  39.871  14.308
51055W        W16216  13.333  28.214  10.324
51056W        W16217  14.321  19.567   3.290
51057W        W16218   5.076  29.959   3.510
51058W        W16219  37.029  34.271   1.182
51059W        W16220  25.084  27.165  10.581
51060W        W16221  23.284  24.626  14.196
51061W        W16222  25.273  15.202   4.517
51062W        W16223  19.768  35.113  11.927
51063W        W16224   6.422  18.795  14.317
51064W        W16225  17.323  34.623  13.961
51065W        W16226  38.591  21.714   0.417
51066W        W16227  27.093  25.698   1.912
51067W        W16228   1.408  15.890   9.866
51068W        W16229  44.352  38.051  11.662
51069W        W16230  24.806  34.583   4.580
51070W        W16231   9.837  23.811   1.286
51071W        W16232  36.877  14.308   1.080
51072W        W16233  17.698   1.913   0.354
51073W        W16234  16.837  16.509   3.168
51074W        W16235  21.107  26.459  12.090
51075W        W16236  19.785   8.786  13.439
51076W        W16237  43.734   8.254  11.548
51077W        W16238   6.676   8.082  14.818
51078W        W16239  44.949  24.865  14.944
51079W        W16240  17.111  12.283  14.984
51080W        W16241  11.556  35.006   1.312
51081W        W16242  30.525   7.605   1.461
51082W        W16243  38.525  27.108   1.685
51083W        W16244  16.844  20.139   1.625
51084W        W16245  17.693  38.911  14.265
51085W        W16246   0.011   4.847   4.787
51086W        W16247  37.930  29.677  13.430
51087W        W16248  31.540  13.979   1.442
51088W        W16249   4.361   1.815  13.772
51089W        W16250   8.858  43.576   1.695
51090W        W16251   8.700  20.136   0.940
51091W        W16252  19.270  26.546  13.418
51092W        W16253   8.344  25.950  13.304
51093W        W16254  26.413   0.910  12.013
51094W        W16255   6.450  39.236   4.200
51095W        W16256   0.083  22.233   0.394
51096W        W16257  44.496   4.451   4.583
51097W        W16258   8.710  36.666  11.118
51098W        W16259  39.799  36.137   1.352
51099W        W16260  18.458   1.968   3.363
51100W        W16261   7.640  42.063   0.910
51101W        W16262  25.944  23.133   1.224
51102W        W16263  16.655  17.715  13.351
51103W        W16264  13.772  41.034   9.811
51104W        W16265  31.828  41.134   3.173
51105W        W16266  17.730   4.665   4.613
51106W        W16267  23.371  11.810  14.292
51107W        W16268  21.531  15.743   2.561
51108W        W16269  36.458  20.555  13.842
51109W        W16270   2.674   7.929  12.492
51110W        W16271  21.874  29.711   3.251
51111W        W16272   6.382  14.024   5.033
51112W        W16273  36.168  17.749  14.720
51113W        W16274  17.042   3.292   9.785
51114W        W16275  22.638   0.780   2.398
51115W        W16276   9.791  36.509   0.800
51116W        W16277  20.056  19.207  12.554
51117W        W16278  28.637  13.021  13.553
51118W        W16279  26.974   6.296  14.645
51119W        W16280  33.450  43.024   4.554
51120W        W16281   9.425  29.428  14.955
51121W        W16282  21.666  17.157  10.647
51122W        W16283  11.198  13.842   0.405
51123W        W16284  17.063  26.701  11.558
51124W        W16285  40.101  41.223   1.215
51125W        W16286  39.275   7.331  14.971
51126W        W16287  15.627  43.938  12.947
51127W        W16288  26.560   6.879  11.531
51128W        W16289   3.372  13.950  12.561
51129W        W16290  16.162   3.924  14.826
51130W        W16291  38.604  12.731   3.625
51131W        W16292  20.405  23.818  11.000
51132W        W16293  33.683  19.517  12.506
51133W        W16294  10.826   0.389   3.589
51134W        W16295   5.636  22.996  11.512
51135W        W16296   8.634  26.463  10.587
51136W        W16297   2.213  30.165   5.129
51137W        W16298  42.424  12.255  10.707
51138W        W16299  16.950  11.115  12.016
51139W        W16300  35.375  18.090   2.032
51140W        W16301  11.251  23.540  10.728
51141W        W16302  35.132  29.146   2.332
51142W        W16303  44.904  39.614  11.470
51143W        W16304  40.602  14.211  11.563
51144W        W16305  43.274  22.456   1.172
51145W        W16306  40.278   8.238   2.936
51146W        W16307  33.854  34.382  11.525
51147W        W16308  19.335  27.484  10.757
51148W        W16309   1.229   6.208  14.914
51149W        W16310  16.770  24.555  13.634
51150W        W16311  33.699  12.737   2.786
51151W        W16312  27.809  44.839   3.423
51152W        W16313  22.163  12.913  10.581
51153W        W16314  28.066  29.079   1.569
51154W        W16315  27.020  15.591   9.801
51155W        W16316   4.377   8.375   1.669
51156W        W16317  37.626   1.432   3.003
51157W        W16318  15.158  12.166   1.978
51158W        W16319  23.320   8.151  13.794
51159W        W16320  15.788  24.563   0.470
51160W        W16321  14.376   2.762   1.278
51161W        W16322  29.690  15.687  13.079
51162W        W16323  13.801  40.861   1.197
51163W        W16324   4.309   2.893   3.334
51164W        W16325   4.940  22.020   1.783
51165W        W16326  33.695  26.960   1.778
51166W        W16327  17.616  22.218   1.824
51167W        W16328  36.353  26.489   0.006
51168W        W16329  15.709   9.934   3.655
51169W        W16330  36.520  41.360   0.552
51170W        W16331   2.792  19.222  13.079
51171W        W16332   4.475   5.766   2.790
51172W        W16333  42.125  20.925  11.685
51173W        W16334  26.236   3.953   0.009
51174W        W16335  42.483  13.049  14.473
51175W        W16336   7.450  29.515  14.789
51176W        W16337  34.780  20.567   4.133
51177W        W16338  23.600  32.897   1.500
51178W        W16339  38.714  37.666   4.235
51179W        W16340  15.304   7.846   2.259
51180W        W16341  33.821  32.105  13.215
51181W        W16342  11.197  26.529  14.832
51182W        W16343   3.651  31.009   2.938
51183W        W16344   5.785  34.893   4.614
51184W        W16345  32.622   8.750   1.372
51185W        W16346   3.726   6.396  11.620
51186W        W16347   3.998   4.907   2.752
51187W        W16348   9.248  42.333  14.857
51188W        W16349  41.560  19.163  14.783
51189W        W16350   6.123  30.370   0.734
51190W        W16351  33.156  31.413  13.410
51191W        W16352  20.363  37.359  11.469
51192W        W16353   1.935  42.936  10.704
51193W        W16354  44.683   5.136  13.462
51194W        W16355  11.908  38.000  11.023
51195W        W16356  34.464  27.172  11.873
51196W        W16357   6.989   9.423   0.304
51197W        W16358   9.102  23.572  14.842
51198W        W16359  24.532  22.212  14.842
51199W        W16360   7.108  12.047   0.838
51200W        W16361  14.881  17.166   3.165
51201W        W16362  22.972   4.549  11.947
51202W        W16363  36.101  25.943  14.307
51203W        W16364  18.115  13.716  10.214
51204W        W16365  43.451   3.355   2.315
51205W        W16366  19.515   5.662  12.307
51206W        W16367   3.403  18.813   0.428
51207W        W16368   0.982  31.093   2.246
51208W        W16369   0.969  37.656   4.135
51209W        W16370  31.738  37.072   4.142
51210W        W16371   2.919  24.623   0.462
51211W        W16372   4.982  37.615   0.471
51212W        W16373   3.210  35.502   1.216
51213W        W16374   0.782  22.099   2.176
51214W        W16375  42.599  24.079   0.836
51215W        W16376  10.925  14.278   0.842
51216W        W16377  40.344  29.593  12.531
51217W        W16378  37.577  40.043  11.139
51218W        W16379  18.016   8.200  14.323
51219W        W16380  41.488   9.308   4.660
51220W        W16381   9.378  29.103   0.385
51221W        W16382  26.539  20.009   3.154
51222W        W16383  22.030   3.251  10.524
51223W        W16384  25.970  25.211  13.039
51224W        W16385  20.211   0.365   3.688
51225W        W16386   1.230  29.783   5.125
51226W        W16387  13.719  12.134   0.240
51227W        W16388   5.920  17.547   1.703
51228W        W16389  22.063   3.755  13.398
51229W        W16390  36.039  11.841  14.300
51230W        W16391  41.256  44.934  14.817
51231W        W16392  34.469   4.780   1.307
51232W        W16393  42.002  29.753   1.679
51233W        W16394  35.303  16.644   4.689
51234W        W16395  43.989   3.311   1.814
51235W        W16396  26.320  34.594  10.693
51236W        W16397  10.084  27.081  14.496
51237W        W16398  13.590  43.235  11.817
51238W        W16399  36.541  43.247   2.784
51239W        W16400  29.641  27.886   0.859
51240W        W16401  10.750  36.655  13.232
51241W        W16402  19.419  24.718  10.434
51242W        W16403  33.721  38.112   2.375
51243W        W16404  28.003  25.967  11.017
51244W        W16405  15.571  19.970   2.254
51245W        W16406   6.161   3.883   0.201
51246W        W16407  43.762  13.749   1.469
51247W        W16408  37.488  30.002  12.666
51248W        W16409  31.017  36.780   3.758
51249W        W16410  33.944  37.033   1.389
51250W        W16411  34.538  22.954   4.709
51251W        W16412  27.310  10.124  12.511
51252W        W16413  44.075  40.555  12.665
51253W        W16414   5.422  35.789  14.917
51254W        W16415   6.127   4.238   0.811
51255W        W16416  34.559  10.730  11.463
51256W        W16417  22.515  20.596   4.535
51257W        W16418  31.570  38.510   5.464
51258W        W16419  34.817   1.465   1.668
51259W        W16420  19.771  10.702   0.756
51260W        W16421  21.210  29.892   2.858
51261W        W16422  31.512  29.645  12.410
51262W        W16423  28.528  18.522  14.744
51263W        W16424  23.949  11.115  14.056
51264W        W16425   4.653  43.567  11.314
51265W        W16426  25.559  34.205  14.317
51266W        W16427  44.941  20.160  11.154
51267W        W16428  42.794  44.519   2.453
51268W        W16429  36.485  10.593   9.789
51269W        W16430  38.099  39.279   0.945
51270W        W16431  27.144   7.609   0.286
51271W        W16432  43.320  29.788  11.889
51272W        W16433   3.724   1.316   2.511
51273W        W16434  13.770  36.962   0.271
51274W        W16435  39.073  30.453   2.449
51275W        W16436   1.794  19.584   3.744
51276W        W16437  18.098  20.978   1.923
51277W        W16438  17.589  35.962   0.972
51278W        W16439  26.386  19.929  10.877
51279W        W16440  17.861  35.395  13.746
51280W        W16441   1.105  42.568   2.884
51281W        W16442  21.088  26.494   5.041
51282W        W16443  38.547  31.151  11.155
51283W        W16444  38.928   9.109   2.152
51284W        W16445   1.145  17.133   0.221
51285W        W16446  28.632  37.830  13.908
51286W        W16447  43.572   8.995   0.693
51287W        W16448   1.270  22.256   2.941
51288W        W16449   9.663  12.125  12.626
51289W        W16450   7.699   6.180  11.759
51290W        W16451  29.436  11.504   3.199
51291W        W16452  28.122   7.775   2.313
51292W        W16453  21.013  26.807   0.246
51293W        W16454  14.378  17.420   2.337
51294W        W16455  27.990   6.999   1.781
51295W        W16456  41.715  23.049  12.062
51296W        W16457  44.551   4.196   1.582
51297W        W16458  39.665  35.182   4.212
51298W        W16459  25.809   6.245  13.555
51299W        W16460  21.892  17.142   9.818
51300W        W16461  26.501  26.071  10.866
51301W        W16462  21.712  28.901   4.430
51302W        W16463  11.199  41.939   0.308
51303W        W16464  12.925  12.661   0.413
51304W        W16465  28.999  30.952   3.156
51305W        W16466   7.162  32.610   1.737
51306W        W16467  26.986   7.444  12.955
51307W        W16468  17.251  11.192   2.555
51308W        W16469  36.619  29.494   0.636
51309W        W16470   1.239  36.805   2.700
51310W        W16471   9.370  41.446   3.016
51311W        W16472  26.273  17.314  13.551
51312W        W16473  44.836  15.597   3.320
51313W        W16474  28.139  29.564   4.095
51314W        W16475  23.031  16.328  14.741
51315W        W16476  34.401  34.388   2.324
51316W        W16477  28.067   5.203   2.368
51317W        W16478   7.946   7.353   1.867
51318W        W16479  27.907   0.485  11.564
51319W        W16480  38.811  32.435  11.039
51320W        W16481  14.952  38.776   4.226
51321W        W16482   4.972  33.137  11.167
51322W        W16483   3.985  16.719  12.779
51323W        W16484  18.584  21.169  14.363
51324W        W16485  18.001  12.553  11.594
51325W        W16486  23.685  14.321  10.672
51326W        W16487  11.801  17.139  13.804
51327W        W16488   1.458   5.712  13.784
51328W        W16489  21.564  43.989   1.706
51329W        W16490  38.609  13.623  14.920
51330W        W16491  19.709   0.786  14.920
51331W        W16492  18.030  22.960   3.591
51332W        W16493  43.687  27.479   1.303
51333W        W16494  33.493  29.487  12.511
51334W        W16495   2.521   1.768  13.004
51335W        W16496  27.691  13.321   0.860
51336W        W16497  17.955  20.755  13.133
51337W        W16498  41.979  15.279  11.161
51338W        W16499  39.570  21.226  11.505
51339W        W16500  37.456  40.927  12.099
51340W        W16501  14.607  31.675  11.542
51341W        W16502  14.195  18.542   0.927
51342W        W16503  25.242  34.588   3.180
51343W        W16504   0.829   0.166   0.435
51344W        W16505  40.035   7.709  13.965
51345W        W16506  14.607  34.475  10.654
51346W        W16507  37.086  15.311  10.751
51347W        W16508  11.702  38.054   1.359
51348W        W16509  34.795   0.731   1.108
51349W        W16510  11.255  24.136   0.761
51350W        W16511  12.301  16.489   3.071
51351W        W16512  42.407   0.299   3.095
51352W        W16513  17.186  32.307   2.770
51353W        W16514  21.235  27.011   3.734
51354W        W16515   9.332  32.190  13.438
51355W        W16516  22.399   1.343   0.484
51356W        W16517  17.082  35.396  14.002
51357W        W16518  21.771  27.525   2.862
51358W        W16519   8.737  30.716   3.821
51359W        W16520  40.935  38.573   2.405
51360W        W16521   5.499  12.880   1.189
51361W        W16522  38.917  21.434  12.977
51362W        W16523  35.961   8.679  10.853
51363W        W16524  31.511  24.657  12.837
51364W        W16525  17.137  13.109   3.068
51365W        W16526  17.141  43.049  11.735
51366W        W16527  40.552  35.654   1.659
51367W        W16528  29.960  36.773  10.708
51368W        W16529  20.531   5.812  11.558
51369W        W16530   7.727  21.445   3.260
51370W        W16531  29.275   4.003  11.791
51371W        W16532   7.253  22.009   3.606
51372W        W16533  32.139  35.599   1.644
51373W        W16534  23.502   7.899  11.559
51374W        W16535  22.369  19.616   5.033
51375W        W16536   6.126  25.647  13.934
51376W        W16537  38.023  28.027  13.926
51377W        W16538   5.132  18.735  13.876
51378W        W16539   8.452   0.343   0.670
51379W        W16540  21.486   5.441  13.014
51380W        W16541  14.645   6.057   0.455
51381W        W16542  25.797  37.529   2.904
51382W        W16543  41.570  16.222   3.762
51383W        W16544  13.546  36.452  11.654
51384W        W16545  42.974  19.469   1.296
51385W        W16546  29.884  19.602   3.585
51386W        W16547  17.458  35.687  10.293
51387W        W16548   7.651  35.010  12.206
51388W        W16549  17.294  14.700   0.726
51389W        W16550  25.604  18.781   1.683
51390W        W16551  17.072   9.904   0.527
51391W        W16552  38.370  36.866   2.548
51392W        W16553  10.236  23.488   0.386
51393W        W16554  42.509  44.401   2.024
51394W        W16555  21.534  35.078  12.539
51395W        W16556  41.211  37.599   1.740
51396W        W16557  12.424  42.341  11.932
51397W        W16558   7.416   6.437   4.539
51398W        W16559  34.117  41.481  13.923
51399W        W16560   7.128  20.126  12.626
51400W        W16561  20.608  43.498   4.626
51401W        W16562  23.480  17.195  12.011
51402W        W16563  17.907  38.273   2.553
51403W        W16564   3.286  44.020   2.814
51404W        W16565  31.943  22.228   0.691
51405W        W16566  34.084  27.484   2.943
51406W        W16567  23.292   6.511   2.266
51407W        W16568  29.796  34.129  13.865
51408W        W16569  15.275  10.149  11.382
51409W        W16570  40.858  13.329   1.324
51410W        W16571   9.895  21.499   1.237
51411W        W16572  28.301  17.349  13.056
51412W        W16573  35.163  43.096  12.209
51413W        W16574   3.249  33.924  10.671
51414W        W16575  27.928  42.072  14.827
51415W        W16576  14.361   9.726   4.163
51416W        W16577   4.267  42.003   2.716
51417W        W16578  26.014   1.158   3.318
51418W        W16579  18.100  24.451  13.074
51419W        W16580  18.464   7.774  10.723
51420W        W16581  25.484  19.656   2.663
51421W        W16582  19.801  39.010   0.416
51422W        W16583  15.922  12.974  14.467
51423W        W16584   7.659   7.122  10.858
51424W        W16585  10.597  28.073   1.112
51425W        W16586  23.625  29.819  11.529
51426W        W16587  40.350  40.972  14.067
51427W        W16588  12.608  36.534   3.986
51428W        W16589  19.553  17.866   2.474
51429W        W16590   2.324  20.148  12.380
51430W        W16591  42.405   4.200   1.302
51431W        W16592  21.539   8.782   2.774
51432W        W16593  16.766  44.825  12.440
51433W        W16594  16.819  25.694  14.893
51434W        W16595   0.648  37.472  10.487
51435W        W16596  17.030  35.880  13.819
51436W        W16597  29.434  19.119   0.734
51437W        W16598  16.115  20.132  13.232
51438W        W16599  12.797  12.914   2.687
51439W        W16600  42.396  41.430   4.322
51440W        W16601  35.442  17.492   4.848
51441W        W16602  38.933   3.982  11.569
51442W        W16603  37.425  37.844  12.821
51443W        W16604   9.644  18.587  12.026
51444W        W16605  13.363  30.248   2.801
51445W        W16606  22.698  39.488   4.968
51446W        W16607  28.399  24.172  12.468
51447W        W16608  39.662  42.513  12.850
51448W        W16609  13.956  11.691  10.764
51449W        W16610  42.978  37.667   4.445
51450W        W16611  29.001   3.683  11.041
51451W        W16612  10.967  29.122  13.765
51452W        W16613   4.822  25.841  13.485
51453W        W16614  40.807  33.545   1.027
51454W        W16615  34.999  42.613  12.119
51455W        W16616  31.022   6.777   3.770
51456W        W16617  22.124  33.607   0.175
51457W        W16618  24.490   9.632  13.117
51458W        W16619  17.115   7.413  12.434
51459W        W16620   3.760  20.467   3.814
51460W        W16621  14.106   6.888   4.330
51461W        W16622   0.553  27.129  12.944
51462W        W16623  35.591   6.214  11.547
51463W        W16624  36.638  44.976  11.072
51464W        W16625   9.216   5.634  11.935
51465W        W16626  28.968  22.713  13.349
51466W        W16627  14.128  34.516   2.879
51467W        W16628  44.074   1.866  11.689
51468W        W16629   0.982   5.721  10.642
51469W        W16630   2.915  18.210   3.630
51470W        W16631  15.603  10.455   3.483
51471W        W16632  43.744   9.002   1.861
51472W        W16633  41.426   3.478   3.654
51473W        W16634  17.126  32.938   0.402
51474W        W16635  23.453  43.468  12.591
51475W        W16636  15.053  10.921  14.046
51476W        W16637  10.533  18.465   4.484
51477W        W16638  26.631  18.079  10.706
51478W        W16639   7.767   4.430  12.627
51479W        W16640  27.910  22.009  14.817
51480W        W16641  13.986  21.080   4.116
51481W        W16642  15.017  22.745  14.293
51482W        W16643  28.509  15.041  10.698
51483W        W16644   6.282   4.221  13.350
51484W        W16645  31.667  13.244   2.321
51485W        W16646  14.347  23.451   2.756
51486W        W16647  17.347   0.141  13.911
51487W        W16648  30.223  44.735  11.482
51488W        W16649  30.170  36.682  13.983
51489W        W16650  30.193  25.100  14.817
51490W        W16651  38.026  28.700   2.187
51491W        W16652  37.589  18.818  14.858
51492W        W16653  22.734  30.902  13.927
51493W        W16654   8.052  27.054   4.712
51494W        W16655  37.755   4.673   2.331
51495W        W16656  20.784  27.288  10.469
51496W        W16657  41.253   4.848  12.034
51497W        W16658   8.983   6.700  11.008
51498W        W16659  42.807  18.261   2.591
51499W        W16660  14.486  17.810   0.090
51500W        W16661  15.833  29.874  12.061
51501W        W16662  10.636  14.408  13.065
51502W        W16663  15.557  22.612  13.530
51503W        W16664  20.354  17.854  13.552
51504W        W16665   2.358  24.806  10.666
51505W        W16666  30.118  14.570   2.521
51506W        W16667  28.424  33.518   0.833
51507W        W16668  11.141  19.323   1.231
51508W        W16669  20.213  13.215   1.863
51509W        W16670  42.744  26.194  12.919
51510W        W16671  10.737  19.151  12.468
51511W        W16672  19.610   9.861  14.884
51512W        W16673  37.487  43.989  13.435
51513W        W16674   4.898  21.226  10.494
51514W        W16675  36.879  11.326  13.089
51515W        W16676  17.277  22.282  13.595
51516W        W16677  26.196  40.325  12.100
51517W        W16678  33.999  35.399   4.487
51518W        W16679   1.858   7.648  13.930
51519W        W16680  19.049  35.651   4.116
51520W        W16681   2.205  14.971  12.872
51521W        W16682   9.135  25.073  14.869
51522W        W16683  26.554   2.616   0.088
51523W        W16684  33.552  39.436   3.049
51524W        W16685  35.080  27.968   0.502
51525W        W16686  43.859  38.496   3.683
51526W        W16687  34.336  26.696  11.628
51527W        W16688   7.560  37.138   4.877
51528W        W16689  30.432  14.505  13.777
51529W        W16690  36.943   7.564   0.258
51530W        W16691  13.400  27.098  11.713
51531W        W16692  44.202  17.946   4.561
51532W        W16693  18.540  34.210   3.810
51533W        W16694  11.772  13.717   1.675
51534W        W16695  41.837  35.301   1.700
51535W        W16696   6.885  44.344   2.734
51536W        W16697  36.883  20.817  13.983
51537W        W16698  23.762  40.944   1.363
51538W        W16699   8.322   7.342   3.657
51539W        W16700  11.732  11.616   3.210
51540W        W16701  14.064  30.627   1.828
51541W        W16702  10.645  15.212   3.333
51542W        W16703  30.462  31.415   1.391
51543W        W16704  20.753  11.784  13.091
51544W        W16705  41.894  27.221   4.233
51545W        W16706  32.977  35.736  14.413
51546W        W16707  31.548  11.781   1.360
51547W        W16708  42.740  16.284   1.728
51548W        W16709   6.872   5.267   3.139
51549W        W16710  11.580   4.264  12.413
51550W        W16711   3.311  36.917  14.372
51551W        W16712   8.607  24.936   4.625
51552W        W16713  16.262  30.101   3.209
51553W        W16714  36.045  28.002  14.487
51554W        W16715  21.036  14.410   1.313
51555W        W16716  25.291   4.199  12.867
51556W        W16717  35.929  38.505   4.145
51557W        W16718  42.478  23.076   4.059
51558W        W16719  32.740   6.147   4.769
51559W        W16720  10.892  30.496   0.709
51560W        W16721   6.333  22.062  13.990
51561W        W16722   0.226  25.938   0.103
51562W        W16723  21.682  19.045  13.586
51563W        W16724  38.966  17.320   1.396
51564W        W16725   4.848  11.304   2.640
51565W        W16726   5.775  35.086  14.496
51566W        W16727  34.037  15.792  12.463
51567W        W16728  13.890  44.842  12.834
51568W        W16729  43.870  22.431   3.002
51569W        W16730  15.839  12.258   0.861
51570W        W16731   4.851  31.909  12.433
51571W        W16732  32.490  18.852  13.713
51572W        W16733  26.640  27.348   0.840
51573W        W16734   0.678   3.772  13.308
51574W        W16735  15.148   0.624  11.262
51575W        W16736   8.371  13.649  11.206
51576W        W16737  10.150  13.723   3.753
51577W        W16738  34.652  34.197  13.965
51578W        W16739  15.046  33.908  12.436
51579W        W16740  39.281  29.155  12.959
51580W        W16741  14.294   2.505  10.909
51581W        W16742   4.702   5.858   3.293
51582W        W16743   2.930  28.429   1.883
51583W        W16744  22.600  37.707   3.287
51584W        W16745  22.431  34.926  14.997
51585W        W16746  15.785  14.599   0.957
51586W        W16747   2.767   8.772   1.384
51587W        W16748  17.663  10.346   4.886
51588W        W16749  13.089  38.311  14.302
51589W        W16750  42.271  24.115   3.174
51590W        W16751   5.909  38.819   1.910
51591W        W16752   8.414  18.846  12.554
51592W        W16753  40.318   3.921   2.493
51593W        W16754  31.195  17.721   2.152
51594W        W16755  13.101  22.412  11.188
51595W        W16756  44.843   5.644  13.389
51596W        W16757  13.314   3.542   3.077
51597W        W16758  42.923  36.835  13.454
51598W        W16759  34.604  43.611   5.008
51599W        W16760  26.017  19.971  11.466
51600W        W16761  40.421   5.745   1.344
51601W        W16762   9.605   6.644  10.786
51602W        W16763  23.616  40.136  14.862
51603W        W16764   8.129   8.130  14.894
51604W        W16765  16.474  37.922  13.066
51605W        W16766  20.340  20.688  10.728
51606W        W16767  34.582  38.463  12.315
51607W        W16768  11.639  31.389   4.149
51608W        W16769  22.593  15.701   5.009
51609W        W16770  29.138   6.221  12.446
51610W        W16771   5.791  34.067  10.791
51611W        W16772  16.021   5.259  10.161
51612W        W16773  44.042  12.065  12.599
51613W        W16774  20.051  13.137   1.368
51614W        W16775  21.086  34.042   3.913
51615W        W16776  13.245  15.548  14.506
51616W        W16777  44.603   1.912   0.840
51617W        W16778  24.968   2.827   0.230
51618W        W16779  27.716  36.033  11.624
51619W        W16780  35.940  32.699   1.345
51620W        W16781  16.105  20.527   1.306
51621W        W16782   8.804  20.531   1.483
51622W        W16783   9.269  33.421  12.891
51623W        W16784  12.772  23.544   1.738
51624W        W16785   2.413  41.270   4.321
51625W        W16786  10.647  19.015   4.565
51626W        W16787  27.454  20.039  14.562
51627W        W16788  36.497  36.925  10.818
51628W        W16789  17.556  19.080  11.361
51629W        W16790  36.075  17.352   3.665
51630W        W16791  33.926  12.060  13.867
51631W        W16792  40.366  10.761  12.775
51632W        W16793  11.198  25.627   1.423
51633W        W16794  10.313  37.486  14.375
51634W        W16795  15.645  14.253  11.149
51635W        W16796  24.103  13.826  14.313
51636W        W16797  43.006  11.908   2.880
51637W        W16798  14.753  12.609  14.473
51638W        W16799  13.832  29.013   4.933
51639W        W16800  25.053  35.549  10.646
51640W        W16801  24.033  40.301   3.017
51641W        W16802  34.198  34.530   4.479
51642W        W16803  27.956  27.978   3.553
51643W        W16804  26.669  37.499  11.893
51644W        W16805   1.661  18.759   0.773
51645W        W16806  36.414  30.503  12.142
51646W        W16807   5.248  16.321  13.860
51647W        W16808  14.562  42.064   0.136
51648W        W16809   3.858   8.479   1.803
51649W        W16810  17.121  33.445   0.645
51650W        W16811  25.631   2.519   3.142
51651W        W16812   6.889  22.480  12.315
51652W        W16813  10.742  35.041   1.884
51653W        W16814  12.533   4.039  14.484
51654W        W16815  35.851  40.524   2.765
51655W        W16816  24.412  35.289   1.771
51656W        W16817  15.172   3.765  10.711
51657W        W16818  42.575  27.167  11.485
51658W        W16819   0.059   4.501  14.943
51659W        W16820  40.855  10.758  14.788
51660W        W16821  33.528  12.544  10.262
51661W        W16822  38.648   9.376  14.382
51662W        W16823  32.413  23.325   2.775
51663W        W16824  34.046  12.181   0.829
51664W        W16825  18.160  26.174   0.792
51665W        W16826  29.906  27.502  13.159
51666W        W16827  32.828   9.745  14.510
51667W        W16828   9.874  13.104   1.275
51668W        W16829  20.933  15.819   1.392
51669W        W16830  10.204  12.409   3.362
51670W        W16831  14.736  44.760   4.225
51671W        W16832  37.860  23.438   1.405
51672W        W16833   4.720  27.601   2.610
51673W        W16834  25.682  13.908   1.342
51674W        W16835   7.853  17.606   0.441
51675W        W16836  36.806  30.818  14.392
51676W        W16837  39.914   3.417  14.556
51677W        W16838  27.564   6.410  13.446
51678W        W16839   3.645  25.055   4.919
51679W        W16840  41.801  23.281   2.162
51680W        W16841  17.606   4.320  13.617
51681W        W16842  30.644  13.334   1.393
51682W        W16843  18.505   8.848   1.030
51683W        W16844  22.928   8.751  10.844
51684W        W16845  42.263  16.665   3.264
51685W        W16846  24.250  43.411   1.782
51686W        W16847   3.888  19.187  12.558
51687W        W16848  42.906   3.055   4.964
51688W        W16849   8.354  32.136   1.913
51689W        W16850  41.867  23.954   2.800
51690W        W16851  38.100   1.199   3.076
51691W        W16852  43.452  31.698   2.844
51692W        W16853  37.932   1.571   4.072
51693W        W16854  16.817  14.657   1.835
51694W        W16855  24.139   4.247   3.159
51695W        W16856   8.426  18.492   0.295
51696W        W16857   7.207  32.543   3.989
51697W        W16858  38.914   2.202  13.191
51698W        W16859   5.003   9.715   1.724
51699W        W16860  23.367  40.327  11.989
51700W        W16861   6.122   8.876   3.300
51701W        W16862  27.967  12.084  12.433
51702W        W16863  33.890  27.725  13.413
51703W        W16864  22.595  31.945   2.125
51704W        W16865  24.485   9.179  12.775
51705W        W16866  13.914   6.173  14.945
51706W        W16867  19.433  25.437   5.097
51707W        W16868  18.255   9.373   3.194
51708W        W16869  35.774  16.339  11.136
51709W        W16870  15.695  31.650   1.792
51710W        W16871  12.916  42.473  11.967
51711W        W16872  42.335   2.205  14.229
51712W        W16873  10.220  43.770  11.635
51713W        W16874   8.971   6.470  14.059
51714W        W16875  39.772  35.948  11.135
51715W        W16876  14.685  18.475   3.255
51716W        W16877  31.624  33.406   0.356
51717W        W16878  33.435  10.272  12.960
51718W        W16879   9.405   0.779   1.960
51719W        W16880  29.886   6.888   1.822
51720W        W16881  25.573  28.974   1.672
51721W        W16882  31.431  26.931   2.180
51722W        W16883  35.063  32.585   0.837
51723W        W16884   0.962  29.357   1.226
51724W        W16885   3.226  32.025  13.553
51725W        W16886  20.453  10.515  13.104
51726W        W16887  29.467  27.050   1.070
51727W        W16888  40.789  43.299   3.269
51728W        W16889  28.518  37.759   4.609
51729W        W16890  20.640  19.509   0.377
51730W        W16891   0.756  31.993  13.107
51731W        W16892  14.766  42.918  11.375
51732W        W16893   2.870  37.939   1.920
51733W        W16894  15.765   7.332  12.812
51734W        W16895  30.428  18.591   4.329
51735W        W16896   8.756  41.307  12.065
51736W        W16897  13.035  24.900  13.039
51737W        W16898  17.997  20.065  10.746
51738W        W16899  13.525  26.745  13.875
51739W        W16900  24.236  30.571   0.109
51740W        W16901  30.514  18.839   2.207
51741W        W16902  16.658  43.504  12.505
51742W        W16903  33.000  15.218   1.416
51743W        W16904  31.627  25.203  12.250
51744W        W16905  15.255  19.227   3.195
51745W        W16906  33.270  21.122  10.291
51746W        W16907  17.322  20.448  12.499
51747W        W16908  23.089  18.042   3.774
51748W        W16909   3.913  16.756   0.201
51749W        W16910  41.094  24.071  13.985
51750W        W16911   9.276   8.929   4.076
51751W        W16912  11.660  23.454   4.154
51752W        W16913   6.324   9.819  11.995
51753W        W16914  22.204  42.403   0.030
51754W        W16915  34.719  36.489   5.686
51755W        W16916  42.334  31.928   2.464
51756W        W16917  43.081  40.532  12.472
51757W        W16918  44.873   8.459   5.034
51758W        W16919   4.590  22.115   2.164
51759W        W16920  13.324  38.465  12.119
51760W        W16921  27.916  32.497  11.695
51761W        W16922  24.722   8.615  11.242
51762W        W16923  44.076   3.918  14.495
51763W        W16924   4.916  24.021   4.605
51764W        W16925  16.517  32.684  14.294
51765W        W16926  40.971   9.158   0.948
51766W        W16927  37.020   7.135   3.899
51767W        W16928  26.408  32.207  13.136
51768W        W16929  12.326  24.679  14.520
51769W        W16930  25.577  11.207  14.322
51770W        W16931  11.507  39.538   4.140
51771W        W16932   9.236  29.892   0.064
51772W        W16933  28.422  11.092  14.894
51773W        W16934  40.707  11.801  13.370
51774W        W16935  25.442  24.612   0.186
51775W        W16936  25.951  25.415  14.909
51776W        W16937  27.997  24.364   2.012
51777W        W16938   7.444  11.249  11.340
51778W        W16939  15.313  38.005   0.319
51779W        W16940  18.045  13.079  11.577
51780W        W16941   0.316   7.412   3.738
51781W        W16942  37.635  38.148   4.899
51782W        W16943  29.596  22.164   0.231
51783W        W16944   1.398  41.401   2.379
51784W        W16945  25.237   2.908  12.708
51785W        W16946  26.432  35.194   1.185
51786W        W16947  19.994  36.931  13.957
51787W        W16948  19.526   7.097   2.352
51788W        W16949   9.350  41.032   3.390
51789W        W16950  21.573   6.339  14.905
51790W        W16951  25.692   9.591   0.482
51791W        W16952  37.446  25.978   3.368
51792W        W16953  28.554   1.475  12.306
51793W        W16954  39.914   2.976   2.749
51794W        W16955   3.927  17.087   4.450
51795W        W16956  12.919  44.235  14.746
51796W        W16957  23.604   3.777   0.398
51797W        W16958   6.175  39.366   3.292
51798W        W16959  28.625  22.210  13.524
51799W        W16960  28.708  42.940   3.427
51800W        W16961  26.014  26.138   0.835
51801W        W16962  35.692  29.146  13.803
51802W        W16963  23.994  32.135   4.117
51803W        W16964  33.567  33.440  12.249
51804W        W16965  25.605   8.409   3.997
51805W        W16966  31.728  22.791   2.555
51806W        W16967  11.109  12.091  14.355
51807W        W16968  10.605   9.099  13.981
51808W        W16969  35.847  44.911  12.913
51809W        W16970  15.428  44.053   5.377
51810W        W16971  43.655   2.963  14.795
51811W        W16972  39.520   8.391  14.030
51812W        W16973   8.377   7.392   1.349
51813W        W16974  34.686   5.849   3.635
51814W        W16975  36.176   8.420   1.763
51815W        W16976  26.971   2.733  14.133
51816W        W16977  16.521  38.882   3.560
51817W        W16978  33.205  24.231  11.632
51818W        W16979  42.953  38.410  13.876
51819W        W16980  26.591   3.398   3.062
51820W        W16981  39.513  21.647  11.204
51821W        W16982  36.413  34.905   0.461
51822W        W16983  43.708  14.069   3.284
51823W        W16984  43.478  40.418   1.307
51824W        W16985  43.471  12.835   1.791
51825W        W16986  18.346   3.622  11.940
51826W        W16987   5.693  11.203  11.804
51827W        W16988   2.587  18.813   0.353
51828W        W16989  18.617   3.467  10.761
51829W        W16990  16.172   8.662  12.386
51830W        W16991   4.362  20.161   2.307
51831W        W16992  27.378   7.844  14.883
51832W        W16993  37.116   6.392  11.118
51833W        W16994  24.087  37.871  14.000
51834W        W16995  42.796  28.089   3.259
51835W        W16996  42.525   3.365   0.882
51836W        W16997   8.634  19.499  13.840
51837W        W16998  22.112  18.705   1.053
51838W        W16999  20.079  18.784   9.714
51839W        W17000  14.724  42.268   1.664
51840W        W17001  11.915  18.336   4.661
51841W        W17002   1.866  12.160   0.117
51842W        W17003  17.952  17.935   4.280
51843W        W17004  17.165  30.166   3.669
51844W        W17005  15.946  27.989  10.128
51845W        W17006  38.421  39.616   0.252
51846W        W17007  35.558   9.354   3.681
51847W        W17008  13.272  27.952   4.001
51848W        W17009   3.712  42.157   3.761
51849W        W17010   7.969  37.552   3.845
51850W        W17011  41.022   1.269   3.799
51851W        W17012   6.680   6.912  11.974
51852W        W17013  25.209   6.842  11.286
51853W        W17014  37.071  25.454  13.893
51854W        W17015  32.319  25.604  14.439
51855W        W17016  19.113  14.254   0.959
51856W        W17017  35.370  15.576  10.202
51857W        W17018  15.645  13.518   3.633
51858W        W17019  33.152  28.997  10.736
51859W        W17020  13.393  36.153   0.740
51860W        W17021  40.879  44.435  12.473
51861W        W17022  38.760  39.971   0.042
51862W        W17023   5.525  18.668   2.218
51863W        W17024  13.801  12.964  13.276
51864W        W17025   1.898  32.967  14.565
51865W        W17026  11.065   3.848   3.429
51866W        W17027  14.237  23.953   2.775
51867W        W17028  22.919   4.309  11.433
51868W        W17029  13.453  10.955   0.887
51869W        W17030   2.849  19.469   3.437
51870W        W17031  22.778  31.689   3.130
51871W        W17032  19.573  12.966  13.945
51872W        W17033   9.392   5.641  13.968
51873W        W17034  11.193  22.616   0.171
51874W        W17035  41.411  21.308   0.796
51875W        W17036  19.562  27.864   3.431
51876W        W17037  13.426  29.037   4.590
51877W        W17038  16.147   9.005   4.883
51878W        W17039   9.738   7.729  11.129
51879W        W17040  36.904  44.782  11.899
51880W        W17041   2.950  24.238  13.913
51881W        W17042   0.538  10.434  11.100
51882W        W17043  27.769  36.880   4.222
51883W        W17044  22.534  25.677  10.974
51884W        W17045   5.397  34.909   2.282
51885W        W17046  22.611  15.770  13.908
51886W        W17047   2.973   7.471   1.397
51887W        W17048  21.221  22.365   1.340
51888W        W17049   5.356  12.070  14.373
51889W        W17050  31.472   1.810  11.990
51890W        W17051  16.307  10.849   4.682
51891W        W17052  33.412  25.428   1.878
51892W        W17053  31.503  28.597   2.694
51893W        W17054   0.473   4.681  13.141
51894W        W17055   7.793  13.183   4.088
51895W        W17056  23.563  22.442   0.870
51896W        W17057   9.639   3.217   4.733
51897W        W17058  21.070  35.074   0.475
51898W        W17059  22.846  32.070  11.820
51899W        W17060  30.213  34.171   1.836
51900W        W17061   0.409  12.717   0.477
51901W        W17062  22.780  32.723   0.814
51902W        W17063  17.731   6.262  13.650
51903W        W17064  39.727  35.591   0.188
51904W        W17065  23.032  38.107  12.457
51905W        W17066  23.515  41.339   0.945
51906W        W17067  43.425  34.321   9.867
51907W        W17068  16.530  30.012  12.316
51908W        W17069  25.056   3.320   0.390
51909W        W17070   7.740  41.537   3.661
51910W        W17071  21.641  34.771   1.557
51911W        W17072  10.655  33.549   3.082
51912W        W17073  20.608  19.518  14.372
51913W        W17074  38.386  31.642   4.200
51914W        W17075  21.160  20.137   2.271
51915W        W17076  29.933  19.185   1.228
51916W        W17077   1.529   1.485   1.840
51917W        W17078   4.331  18.696   4.059
51918W        W17079  16.364  34.113   3.131
51919W        W17080  31.173  29.306  10.015
51920W        W17081  32.463   0.484   2.497
51921W        W17082  30.119  30.424   4.513
51922W        W17083  33.440  34.808   1.878
51923W        W17084  14.319  12.565  10.775
51924W        W17085  39.755   4.362   1.741
51925W        W17086  26.086  26.188  11.517
51926W        W17087   4.433  35.656  11.993
51927W        W17088  16.345  10.399  14.963
51928W        W17089  15.146  39.471   3.562
51929W        W17090  25.426  21.748   0.292
51930W        W17091  15.208  28.926   1.558
51931W        W17092  41.904  28.941   3.614
51932W        W17093   9.296  26.210  10.271
51933W        W17094   0.183  32.502  13.229
51934W        W17095  23.113  24.013   1.423
51935W        W17096  20.590   9.828  11.179
51936W        W17097  29.199   5.861   1.292
51937W        W17098  16.871  20.728  13.389
51938W        W17099  33.908  13.589   3.774
51939W        W17100   4.754  25.005  14.505
51940W        W17101  12.149  23.181  11.579
51941W        W17102  27.700  17.803   0.531
51942W        W17103  30.543  18.756  12.578
51943W        W17104  39.004  38.391  13.842
51944W        W17105   0.448  38.372   4.701
51945W        W17106   2.665  37.274   0.307
51946W        W17107  38.832  35.548  14.112
51947W        W17108   7.759  37.071   3.889
51948W        W17109   6.108  14.446   1.781
51949W        W17110  29.173  44.028   1.243
51950W        W17111   7.952  39.925   3.539
51951W        W17112  29.541  38.670   1.231
51952W        W17113  42.330  23.962  10.974
51953W        W17114  42.279  16.251   1.981
51954W        W17115  35.898  13.128  14.351
51955W        W17116  24.689  30.417   3.164
51956W        W17117  29.039  16.655   4.976
51957W        W17118  21.478  29.118  13.316
51958W        W17119   3.953   6.380  11.115
51959W        W17120  44.485  37.402  13.974
51960W        W17121  24.808  43.675  11.541
51961W        W17122   2.022   0.386   3.050
51962W        W17123  37.212  42.686   1.317
51963W        W17124  38.035   4.898  11.704
51964W        W17125   5.154   4.131  13.496
51965W        W17126  24.953  42.915  13.022
51966W        W17127   4.388   2.993  11.120
51967W        W17128  25.629  37.106  13.980
51968W        W17129  32.539  21.396  13.076
51969W        W17130   3.535  18.497  11.027
51970W        W17131  21.900  41.560   4.678
51971W        W17132  37.014  10.316   0.533
51972W        W17133   5.305   6.344  12.994
51973W        W17134  16.849  14.286   2.652
51974W        W17135  18.631  11.072   1.419
51975W        W17136  42.502  24.231  11.371
51976W        W17137  27.202  41.843  10.875
51977W        W17138  38.739  25.588  10.146
51978W        W17139   4.612  12.807   1.795
51979W        W17140  35.874  24.021   1.686
51980W        W17141   7.481  12.326   2.729
51981W        W17142  25.429   3.855   3.088
51982W        W17143   7.001  35.384  12.948
51983W        W17144  14.418  23.989  10.999
51984W        W17145   6.136  33.028  12.029
51985W        W17146  10.865  26.270  12.366
51986W        W17147  25.262   3.423   0.856
51987W        W17148  35.460  20.708  11.933
51988W        W17149  40.329  27.990  12.667
51989W        W17150  24.164  25.461   3.244
51990W        W17151   8.717  14.473   1.056
51991W        W17152   8.203  35.046   4.192
51992W        W17153   5.801  12.161  14.996
51993W        W17154  20.685   1.507  12.091
51994W        W17155  16.667  41.603   3.241
51995W        W17156  19.982  36.412  11.819
51996W        W17157  20.363   2.707  12.758
51997W        W17158  41.128  30.121   1.664
51998W        W17159   7.633  10.842   4.543
51999W        W17160  32.342  18.565   3.391
52000W        W17161  15.775  25.511   0.391
52001W        W17162   2.753  20.302   1.103
52002W        W17163  26.746  17.503   1.855
52003W        W17164  11.237   1.706  12.034
52004W        W17165  34.531  38.137   5.542
52005W        W17166  14.591  13.189   4.413
52006W        W17167  39.412   9.194  11.181
52007W        W17168  40.588   6.267  12.010
52008W        W17169  37.954   2.989   1.402
52009W        W17170  14.760  27.950  12.514
52010W        W17171  13.305  42.462   3.638
52011W        W17172  37.931  11.689   3.853
52012W        W17173  26.457  14.229  12.442
52013W        W17174  12.227  28.707  12.864
52014W        W17175  36.367  27.701  14.109
52015W        W17176  16.469  10.275   3.357
52016W        W17177  40.847   6.824  11.189
52017W        W17178  43.107  29.040  11.694
52018W        W17179  26.624  19.035   4.812
52019W        W17180  16.090  15.680  14.314
52020W        W17181  27.203  10.503   3.554
52021W        W17182  14.427  30.600   4.686
52022W        W17183  14.867  21.116   1.190
52023W        W17184  40.860  44.531   1.436
52024W        W17185  36.521   1.885   1.665
52025W        W17186  32.284  10.159  11.802
52026W        W17187  44.718   9.905   2.319
52027W        W17188  21.346   6.284  10.571
52028W        W17189  16.700  11.795  13.349
52029W        W17190  17.819  17.634  12.547
52030W        W17191  23.199  15.883  14.450
52031W        W17192  27.111  37.967  11.067
52032W        W17193   6.245  30.996   1.817
52033W        W17194  44.062  33.731  14.369
52034W        W17195   0.802   8.846  14.426
52035W        W17196  31.505  40.239   2.860
52036W        W17197  10.757   3.645   2.278
52037W        W17198  32.787   7.094   1.879
52038W        W17199   2.940  43.938  14.410
52039W        W17200  41.163  31.017  11.163
52040W        W17201  23.516   9.512   1.332
52041W        W17202  38.875  13.146  14.168
52042W        W17203  38.778  40.069  13.035
52043W        W17204  15.038  19.136   2.739
52044W        W17205  16.078  44.801  12.622
52045W        W17206  34.819   0.838   0.575
52046W        W17207  43.958  40.680  12.038
52047W        W17208  38.775   8.414  13.421
52048W        W17209  22.186  32.412  14.394
52049W        W17210   4.469   9.262   3.657
52050W        W17211  34.507  24.879   4.536
52051W        W17212  29.609   3.445   2.651
52052W        W17213   1.571  13.806  11.188
52053W        W17214  19.631  38.572  12.680
52054W        W17215   9.286  24.742   2.385
52055W        W17216  38.029  34.054  14.329
52056W        W17217  31.451   1.404  10.467
52057W        W17218  42.513  35.959   0.687
52058W        W17219  39.394  41.596  11.470
52059W        W17220  13.549  12.742  12.882
52060W        W17221  28.682  36.411   2.773
52061W        W17222   5.862  37.986   4.369
52062W        W17223  15.149  38.841  11.613
52063W        W17224  13.548  25.166   4.619
52064W        W17225   2.769  42.106   1.408
52065W        W17226   3.250   7.678   3.745
52066W        W17227  30.598  34.922   0.936
52067W        W17228   1.728  10.388   3.132
52068W        W17229  27.297  33.333   1.866
52069W        W17230  38.845  35.499   4.006
52070W        W17231  12.883  39.333   0.443
52071W        W17232  11.352  16.636   0.746
52072W        W17233  26.235   8.298   2.280
52073W        W17234   6.315  38.943  13.405
52074W        W17235  20.776  33.126  10.845
52075W        W17236  43.227  26.738   1.936
52076W        W17237  38.924  26.021   2.379
52077W        W17238  31.531  19.160  11.412
52078W        W17239  10.838   3.283   1.910
52079W        W17240  39.858   1.416   0.009
52080W        W17241   6.008  10.190   0.874
52081W        W17242  34.343  23.068  14.440
52082W        W17243   8.152   4.991   2.995
52083W        W17244  13.221   2.858   0.141
52084W        W17245  25.170  22.984   4.605
52085W        W17246  19.093  39.848  11.952
52086W        W17247  27.296  27.424  10.423
52087W        W17248  39.894  40.399   3.280
52088W        W17249   7.637  43.266  11.086
52089W        W17250  11.862   6.275  14.093
52090W        W17251  13.856   0.487   2.442
52091W        W17252  27.886  18.360  12.080
52092W        W17253  25.454  15.730   1.768
52093W        W17254  28.453  43.222   2.166
52094W        W17255   1.303  24.551  10.485
52095W        W17256  26.403  25.285   4.094
52096W        W17257  28.871  31.355   3.449
52097W        W17258   2.404  42.522  13.795
52098W        W17259   3.302  38.558  11.148
52099W        W17260  32.524  30.530   2.466
52100W        W17261  29.488  43.702   1.782
52101W        W17262  37.696   8.714   0.501
52102W        W17263  10.324  20.363  11.226
52103W        W17264   5.519  25.097   1.547
52104W        W17265  29.555  23.986  14.334
52105W        W17266  27.141  14.712   0.275
52106W        W17267  31.033  23.680   3.967
52107W        W17268  24.495  33.168   3.275
52108W        W17269  13.304   7.212  12.068
52109W        W17270  23.563  20.753   2.759
52110W        W17271  43.296  38.962   0.064
52111W        W17272  39.895  33.058   2.634
52112W        W17273  16.111  30.409   1.277
52113W        W17274  25.716  43.082  10.509
52114W        W17275  43.305  15.793  12.436
52115W        W17276  43.410  17.595   3.641
52116W        W17277  17.545  44.081  12.565
52117W        W17278   2.779  40.104  10.686
52118W        W17279  37.472   5.089  11.139
52119W        W17280  23.756  19.057  12.981
52120W        W17281  15.109  30.798   2.840
52121W        W17282  26.189  14.933   4.254
52122W        W17283  33.421  22.522   2.902
52123W        W17284  14.102  24.244   0.842
52124W        W17285  11.960  18.985   0.971
52125W        W17286  31.711  19.647  13.189
52126W        W17287  26.024  39.456   2.757
52127W        W17288  16.707  21.550   3.758
52128W        W17289  12.533   8.345   3.801
52129W        W17290  16.006  25.719   5.046
52130W        W17291  17.347  17.308   0.847
52131W        W17292  28.461  40.889  11.522
52132W        W17293   9.669  18.986  11.206
52133W        W17294  44.818  28.040  10.604
52134W        W17295  31.599  30.513   2.408
52135W        W17296  33.931  16.221   0.822
52136W        W17297  26.748  32.165  14.920
52137W        W17298  13.860  20.587   1.051
52138W        W17299   8.324   0.778   0.953
52139W        W17300  30.640   3.257  12.596
52140W        W17301  16.262   3.039  11.161
52141W        W17302  12.053  14.828  14.602
52142W        W17303  21.364  27.611   4.595
52143W        W17304   7.790  13.461  14.880
52144W        W17305  14.398  44.492  11.959
52145W        W17306   5.460  20.284   3.141
52146W        W17307  21.584  38.520   3.612
52147W        W17308  23.698  41.788  12.105
52148W        W17309  15.309  10.170   1.793
52149W        W17310  32.891  25.391  13.585
52150W        W17311  35.556  22.227  12.083
52151W        W17312  29.837   8.959  14.387
52152W        W17313  30.187  39.589   0.341
52153W        W17314  32.316  23.079   0.926
52154W        W17315   9.739  12.632  12.595
52155W        W17316  26.105  36.301   1.037
52156W        W17317  29.082  38.430   2.806
52157W        W17318  22.136  18.345  14.460
52158W        W17319  42.392  30.424   0.145
52159W        W17320  20.708  26.543   3.237
52160W        W17321   1.801  31.279  14.837
52161W        W17322   7.195  11.849  12.940
52162W        W17323   2.298  17.144  14.063
52163W        W17324   2.773  41.001  13.882
52164W        W17325  12.132  39.294   2.130
52165W        W17326  26.138  16.236  14.542
52166W        W17327  26.059  43.803  11.950
52167W        W17328   1.280  32.626   0.305
52168W        W17329  32.414  40.004  14.775
52169W        W17330  28.406   6.358   4.757
52170W        W17331  33.934  28.205  12.439
52171W        W17332   2.724  27.482  12.480
52172W        W17333  17.344  10.261  14.781
52173W        W17334  31.981  26.687  12.981
52174W        W17335  38.590  28.292   3.865
52175W        W17336  30.980   2.372  14.989
52176W        W17337  34.394  31.571  12.154
52177W        W17338  32.999  12.369   3.634
52178W        W17339  24.841  37.586  14.120
52179W        W17340   3.775  35.893   4.138
52180W        W17341  11.372  16.778   4.772
52181W        W17342  38.688  30.293  11.569
52182W        W17343  28.718  39.947  13.798
52183W        W17344   7.207  19.185  13.060
52184W        W17345   5.116  34.050  14.810
52185W        W17346  23.696   9.696  13.849
52186W        W17347   1.872  41.945   4.464
52187W        W17348  22.033  30.949  12.012
52188W        W17349  27.684  15.315  11.089
52189W        W17350  40.008  22.537   2.864
52190W        W17351  22.581  34.445  14.800
52191W        W17352  15.097  24.578   3.399
52192W        W17353   0.307  21.479  14.393
52193W        W17354  35.826  17.645  14.249
52194W        W17355  13.413  31.557  13.638
52195W        W17356   4.756  38.786   3.307
52196W        W17357  44.273  25.887   1.755
52197W        W17358  28.012  14.843  14.347
52198W        W17359  12.592  24.596  12.591
52199W        W17360  27.640  18.620   2.241
52200W        W17361  30.433  32.521  11.802
52201W        W17362  38.928   6.832  10.960
52202W        W17363  19.240  28.895   4.292
52203W        W17364  32.552   9.964  12.213
52204W        W17365  26.036  13.059   1.273
52205W        W17366   0.727  15.736   1.244
52206W        W17367  43.162  41.123  13.494
52207W        W17368  19.555  24.177   3.726
52208W        W17369   4.046  10.357   5.073
52209W        W17370  24.994  12.661   0.682
52210W        W17371  28.995   1.272  14.281
52211W        W17372  10.313  31.530   3.784
52212W        W17373  14.606   0.908   4.201
52213W        W17374  21.394  10.739  13.422
52214W        W17375  16.575  32.182   1.793
52215W        W17376  30.461  37.320   4.564
52216W        W17377   8.064  44.127  13.929
52217W        W17378   6.119   1.714  11.624
52218W        W17379  15.274  17.773  14.385
52219W        W17380  33.560  22.561  13.786
52220W        W17381   5.164  22.509  14.285
52221W        W17382  40.258  25.515  13.800
52222W        W17383  42.791  20.602   2.977
52223W        W17384  32.370  29.008  14.889
52224W        W17385   6.716  13.612   2.349
52225W        W17386   9.822  15.467  10.409
52226W        W17387  15.103  21.513   3.310
52227W        W17388  21.075  27.977   2.793
52228W        W17389  11.755   2.951   0.538
52229W        W17390  20.276  22.153   2.806
52230W        W17391  34.313   5.520   4.053
52231W        W17392   7.165  39.826  12.509
52232W        W17393   5.910  10.789  13.202
52233W        W17394   1.492  40.985   4.750
52234W        W17395  40.769  21.910  10.982
52235W        W17396   3.509  19.617   0.733
52236W        W17397  20.475  29.728  13.924
52237W        W17398  35.585  43.550   1.041
52238W        W17399  21.279  39.115  10.594
52239W        W17400   8.400  27.184   3.586
52240W        W17401  36.136  29.166   4.248
52241W        W17402  39.305  42.073   2.360
52242W        W17403  18.375  28.092   4.596
52243W        W17404  24.219   4.307   2.647
52244W        W17405  37.165   5.156   3.700
52245W        W17406  14.556  26.689   4.564
52246W        W17407  17.337  27.127   2.292
52247W        W17408  29.033  38.037  10.690
52248W        W17409  43.588  33.555  14.575
52249W        W17410  32.071   2.592   3.636
52250W        W17411  27.150  24.761  14.691
52251W        W17412  10.081  16.461   3.189
52252W        W17413  28.886  12.116   0.833
52253W        W17414   8.799  17.671  12.209
52254W        W17415  13.106   1.724   4.659
52255W        W17416  16.794  21.523   0.315
52256W        W17417  32.854   0.498  12.920
52257W        W17418   6.756  33.430   0.009
52258W        W17419  19.646  12.928  11.150
52259W        W17420  21.673  34.979  14.280
52260W        W17421  32.527  37.586   0.652
52261W        W17422  42.946  20.964   0.474
52262W        W17423  24.946  38.899  14.382
52263W        W17424   7.095  22.803  11.941
52264W        W17425   4.391  30.200  12.376
52265W        W17426  32.961  29.187   4.840
52266W        W17427  29.962  13.553   1.619
52267W        W17428  27.553  17.610  12.036
52268W        W17429  15.140   7.259   1.660
52269W        W17430  38.328  27.856   1.157
52270W        W17431  12.057  35.077   2.352
52271W        W17432  35.565  26.902   1.874
52272W        W17433  20.631  27.748   2.700
52273W        W17434  30.556  36.603   1.271
52274W        W17435  14.351  19.126   4.319
52275W        W17436  28.541  22.677   1.895
52276W        W17437  11.422   4.193   2.174
52277W        W17438  33.997  17.633  11.941
52278W        W17439  14.304  27.653   4.606
52279W        W17440  14.566  44.973  13.663
52280W        W17441  13.805  10.186   3.669
52281W        W17442  16.321  12.555   4.416
52282W        W17443  25.747  32.484   2.323
52283W        W17444  16.049  41.032   0.310
52284W        W17445   1.648  17.780   5.036
52285W        W17446  29.226  39.613   1.393
52286W        W17447   7.204   4.403  14.417
52287W        W17448   0.481  12.186  10.012
52288W        W17449   2.530  34.358   4.638
52289W        W17450  13.730  38.649   2.766
52290W        W17451   6.309  20.931  11.169
52291W        W17452  33.259  35.729  13.925
52292W        W17453  23.629  42.229   5.107
52293W        W17454  16.182   0.351   0.717
52294W        W17455  13.722  28.174  11.896
52295W        W17456  16.700  10.135   4.895
52296W        W17457   9.669  21.659   4.477
52297W        W17458  44.873  27.055   3.232
52298W        W17459  29.448  31.468   0.135
52299W        W17460   6.681   4.097  12.181
52300W        W17461  24.438  40.021   0.862
52301W        W17462  43.865  44.367   1.295
52302W        W17463  34.089  38.808  14.321
52303W        W17464  33.729  25.661  13.297
52304W        W17465   8.637  15.250   1.713
52305W        W17466  11.684  36.052  12.504
52306W        W17467  20.675   1.299  12.555
52307W        W17468  41.941   1.771   1.370
52308W        W17469  13.866  16.648   0.801
52309W        W17470  27.716  31.359  14.531
52310W        W17471  33.606   2.247  11.178
52311W        W17472  39.457  40.559  10.655
52312W        W17473  30.662  25.821  11.172
52313W        W17474  37.415  28.696   4.136
52314W        W17475  44.379  11.678   3.799
52315W        W17476   7.335  14.126   4.094
52316W        W17477  15.381  30.373  14.471
52317W        W17478  11.218  27.659   4.162
52318W        W17479   4.583  28.400  13.879
52319W        W17480   6.174  22.991   1.989
52320W        W17481  25.704  15.530  13.229
52321W        W17482  26.088  41.215   0.408
52322W        W17483  44.683   4.195   2.102
52323W        W17484  39.549   3.929   3.658
52324W        W17485  13.377  14.135   3.117
52325W        W17486  36.362  44.902   2.361
52326W        W17487   4.899   0.244   4.480
52327W        W17488  29.934  15.242  10.790
52328W        W17489  22.210  28.729   2.630
52329W        W17490   7.165  23.988  14.553
52330W        W17491  43.548  38.195   4.410
52331W        W17492  27.589   0.454   4.174
52332W        W17493  12.209   6.712  11.555
52333W        W17494  16.290  42.930   5.390
52334W        W17495  14.458  34.448   0.804
52335W        W17496   6.301  42.297   1.743
52336W        W17497  15.617  15.580  10.675
52337W        W17498  21.663  21.572   2.455
52338W        W17499  15.204  29.072  12.080
52339W        W17500  26.223  41.489  13.269
52340W        W17501   3.858  28.996  13.793
52341W        W17502  21.676  14.657   2.753
52342W        W17503  34.662   3.688  11.564
52343W        W17504  21.981   1.176  11.972
52344W        W17505  30.558  44.492  13.005
52345W        W17506  40.156  25.157   1.088
52346W        W17507  18.097  22.650  13.398
52347W        W17508  22.641   3.321   0.670
52348W        W17509  25.208   6.218   1.337
52349W        W17510   1.153  37.047   0.817
52350W        W17511   1.068   8.604   0.753
52351W        W17512   8.863  33.936   1.389
52352W        W17513  13.600  15.572  13.113
52353W        W17514  25.044  22.669   0.850
52354W        W17515  18.712  23.989   2.341
52355W        W17516  14.853  31.980  13.417
52356W        W17517   9.660  26.776  14.431
52357W        W17518   9.816  16.137   4.940
52358W        W17519  40.344  35.901   2.352
52359W        W17520  42.002   8.425   1.823
52360W        W17521  44.565  40.706   4.343
52361W        W17522   0.459  27.436  12.194
52362W        W17523  41.454   0.025  12.479
52363W        W17524  38.457  33.395  11.833
52364W        W17525   2.503  17.815   2.693
52365W        W17526   4.501  22.621   3.625
52366W        W17527  43.381  16.211  13.508
52367W        W17528  34.066  28.542   3.123
52368W        W17529  37.998   5.753  13.848
52369W        W17530  36.451  10.361  10.916
52370W        W17531  26.982  29.175  11.122
52371W        W17532  25.241  22.108  12.571
52372W        W17533  33.488  33.397  11.750
52373W        W17534  31.688  17.542   2.057
52374W        W17535  38.505  29.725   3.584
52375W        W17536  22.593  33.382   2.490
52376W        W17537   3.917  40.389   4.019
52377W        W17538  41.445  28.537   3.370
52378W        W17539  31.869  34.370  14.583
52379W        W17540  27.651  39.416   4.600
52380W        W17541  37.542  42.039   4.996
52381W        W17542   5.271  41.435  13.533
52382W        W17543  15.741  15.803   0.240
52383W        W17544  14.517  37.878  14.264
52384W        W17545  29.576   2.288  12.512
52385W        W17546  24.140  10.103  13.389
52386W        W17547  34.715   5.309   0.164
52387W        W17548  28.379  37.337   4.881
52388W        W17549  25.051  30.633  12.344
52389W        W17550  25.165  37.841   3.579
52390W        W17551  44.866  20.958   4.065
52391W        W17552  29.368  42.869  11.847
52392W        W17553  23.638  22.777  10.795
52393W        W17554  34.414  25.388   2.247
52394W        W17555  10.803  18.600  11.929
52395W        W17556  40.298   7.232   2.300
52396W        W17557  15.281  29.509   0.496
52397W        W17558   2.816  16.609   2.794
52398W        W17559  34.293  38.827   1.040
52399W        W17560  24.594  17.505  14.774
52400W        W17561  38.150  17.547  11.241
52401W        W17562  16.095  27.627  10.888
52402W        W17563   3.973  31.071   3.325
52403W        W17564  12.665  43.920   1.818
52404W        W17565  37.124   7.223   3.391
52405W        W17566  27.195   5.941  11.774
52406W        W17567  10.716   1.154  12.673
52407W        W17568  18.628   6.094  11.056
52408W        W17569   2.967  16.176   3.118
52409W        W17570  34.435   9.867  11.515
52410W        W17571  41.510   7.277  10.457
52411W        W17572  39.381  40.782   4.091
52412W        W17573  21.025  20.791  11.118
52413W        W17574  17.554  33.623  14.361
52414W        W17575  28.015  37.607  12.919
52415W        W17576  27.439  15.173   2.675
52416W        W17577  10.547   6.172   1.825
52417W        W17578   9.089  25.175  11.815
52418W        W17579   5.444   8.880   2.224
52419W        W17580   7.782  28.878  11.855
52420W        W17581  32.120  21.712  14.324
52421W        W17582  38.084  36.117   1.835
52422W        W17583  11.443   4.256  11.023
52423W        W17584  12.984  10.249  10.447
52424W        W17585   0.983   2.714  11.227
52425W        W17586  29.615  12.363   0.225
52426W        W17587  10.625  44.697  11.518
52427W        W17588  19.381   0.505   4.631
52428W        W17589   9.143  21.174   0.982
52429W        W17590  32.781   8.905   2.703
52430W        W17591  19.541   3.059  11.574
52431W        W17592   2.659   6.838   3.250
52432W        W17593   5.243  28.689  11.902
52433W        W17594  27.986  25.798   0.621
52434W        W17595   6.578  13.761  13.071
52435W        W17596   8.348  38.682  12.558
52436W        W17597  27.659   8.742  13.973
52437W        W17598  20.431  20.190  11.498
52438W        W17599  12.835  43.347  12.519
52439W        W17600  24.143  24.901  12.313
52440W        W17601  18.796  17.270   0.751
52441W        W17602  27.038  44.370   3.369
52442W        W17603  12.586  27.149  14.366
52443W        W17604  26.919  23.185  10.398
52444W        W17605   4.668  34.411   5.022
52445W        W17606  21.032  21.559  10.095
52446W        W17607  42.927  37.225   1.666
52447W        W17608  24.757  36.114  11.432
52448W        W17609  41.620  25.177  14.707
52449W        W17610  18.547  20.739  14.655
52450W        W17611  20.303  21.166   2.657
52451W        W17612  10.247  10.042  13.825
52452W        W17613  35.030  43.892   4.260
52453W        W17614  20.782   8.236   2.778
52454W        W17615  29.626  13.180   1.944
52455W        W17616   4.107   9.776  10.648
52456W        W17617  37.214  17.498  11.219
52457W        W17618  22.411  21.278   3.108
52458W        W17619  31.293   2.878   4.670
52459W        W17620  33.226  34.695  12.871
52460W        W17621  44.297  33.369  14.059
52461W        W17622  17.231  30.037  14.042
52462W        W17623   1.658   1.969  14.243
52463W        W17624  14.808  41.394   4.524
52464W        W17625  42.970   8.173  12.609
52465W        W17626  35.987  26.905   3.647
52466W        W17627  22.982  12.919   3.169
52467W        W17628   9.150   1.949   2.635
52468W        W17629  40.081   0.734  12.362
52469W        W17630   9.578  42.391  13.322
52470W        W17631  29.016  10.159   4.834
52471W        W17632   5.701  22.492   0.753
52472W        W17633  33.110  37.544  14.869
52473W        W17634   0.768  11.678   0.013
52474W        W17635  25.039  39.999  12.835
52475W        W17636  16.237  35.573   0.489
52476W        W17637  24.920  26.653   3.714
52477W        W17638  30.799  22.102   4.285
52478W        W17639   4.450  15.445   3.925
52479W        W17640  36.609  28.994   0.334
52480W        W17641  15.497   5.448   3.793
52481W        W17642  32.157  29.922  13.253
52482W        W17643  35.872  31.447   0.730
52483W        W17644  14.212  15.256  14.173
52484W        W17645  25.712  29.500   0.229
52485W        W17646  19.088  42.948   4.132
52486W        W17647  31.099  20.510   0.379
52487W        W17648  41.093  39.349  13.817
52488W        W17649  36.758  16.037  11.194
52489W        W17650  24.286  31.192   1.323
52490W        W17651  36.547   4.625   1.265
52491W        W17652   0.307  42.492  13.059
52492W        W17653  35.830  37.474  14.441
52493W        W17654   2.441  29.645   2.790
52494W        W17655  11.581  28.044   4.855
52495W        W17656  41.761  24.504   4.649
52496W        W17657  42.989  13.088  11.615
52497W        W17658  32.235   8.966   2.681
52498W        W17659   9.166  16.360   2.755
52499W        W17660  37.758   5.399  12.808
52500W        W17661   7.570  24.544  11.066
52501W        W17662  24.019  26.443   2.789
52502W        W17663  37.218   4.148   2.767
52503W        W17664   3.437  42.798   2.260
52504W        W17665  20.168  28.723  10.932
52505W        W17666  22.615   5.041   1.437
52506W        W17667  28.345   1.062   2.703
52507W        W17668  41.865  38.470  14.592
52508W        W17669  30.457   8.440   3.297
52509W        W17670   1.965  26.977   0.191
52510W        W17671   8.698  38.855  13.897
52511W        W17672   8.784  38.861   4.524
52512W        W17673  27.128  17.303  11.635
52513W        W17674   8.419  10.646  14.403
52514W        W17675  16.618  43.269   0.418
52515W        W17676  13.195  10.580  12.404
52516W        W17677  36.411  10.603   4.333
52517W        W17678  44.497   5.740   1.072
52518W        W17679  23.942   8.630  10.812
52519W        W17680  41.148  14.135  13.718
52520W        W17681  16.591  12.079   3.496
52521W        W17682  36.068   8.325  11.564
52522W        W17683   0.545  17.365  14.990
52523W        W17684  30.442   9.512  12.807
52524W        W17685  23.782  23.015   1.810
52525W        W17686   7.249  14.436   3.102
52526W        W17687  35.192  37.179  12.506
52527W        W17688   8.953  33.017   2.284
52528W        W17689  26.237  14.144  12.909
52529W        W17690  37.961  27.085  12.446
52530W        W17691  44.445   9.732  12.247
52531W        W17692  26.328  43.031  14.900
52532W        W17693  32.978  26.025   4.505
52533W        W17694  17.193  41.598   3.163
52534W        W17695   7.693   8.592  14.424
52535W        W17696  15.865  24.136   2.180
52536W        W17697  26.009  28.278  11.076
52537W        W17698   3.725  43.294   1.837
52538W        W17699  24.443  17.674  12.899
52539W        W17700   0.242  41.462   1.154
52540W        W17701  31.976  39.359   3.224
52541W        W17702   3.275  12.438  13.932
52542W        W17703  13.553  41.638  10.623
52543W        W17704   7.218  32.976   2.693
52544W        W17705   7.375  44.347  14.962
52545W        W17706  14.521  38.356   3.202
52546W        W17707  36.527  37.332   4.390
52547W        W17708  43.384  35.219  11.735
52548W        W17709  35.891  30.705  12.861
52549W        W17710  15.176  28.615   4.451
52550W        W17711  37.535   2.050   0.875
52551W        W17712  22.083  19.958   4.071
52552W        W17713  20.102   8.837  11.509
52553W        W17714  37.894  10.598   4.596
52554W        W17715  24.779  23.328   4.116
52555W        W17716  32.527  27.807   2.185
52556W        W17717  26.385  39.436   0.483
52557W        W17718  39.916  43.183   1.361
52558W        W17719   1.262  10.237  10.603
52559W        W17720  41.253   5.019   2.735
52560W        W17721  42.902  32.646   2.009
52561W        W17722  39.346  19.625   0.934
52562W        W17723  41.841  31.418   1.185
52563W        W17724  16.669   9.200   1.231
52564W        W17725  13.204  23.585   4.307
52565W        W17726  25.111  19.777  10.694
52566W        W17727  28.517  15.230  14.979
52567W        W17728   0.496   9.456  11.961
52568W        W17729   8.498  38.223   4.130
52569W        W17730  10.968   2.381   1.798
52570W        W17731  24.873  25.700   0.753
52571W        W17732  17.202  37.647   1.944
52572W        W17733  18.680  43.376  12.512
52573W        W17734   6.355   6.493   1.467
52574W        W17735  24.519  28.939   4.226
52575W        W17736   1.585  10.856   3.357
52576W        W17737  32.008  21.311  13.992
52577W        W17738  32.600   4.187   2.671
52578W        W17739   4.453  23.528  10.486
52579W        W17740  36.257   1.668   0.282
52580W        W17741  36.810  31.410   2.754
52581W        W17742   7.940  19.564   3.938
52582W        W17743  40.937  31.846  14.796
52583W        W17744  21.917  43.375   0.769
52584W        W17745  14.576  39.690  12.412
52585W        W17746  38.317  16.108  13.467
52586W        W17747  36.486   2.195   2.612
52587W        W17748   9.214  28.109   3.740
52588W        W17749  32.174   1.690   1.696
52589W        W17750  16.804  39.245  12.055
52590W        W17751   5.387  23.995  13.554
52591W        W17752  33.937   1.193  14.746
52592W        W17753  29.599  27.746  11.586
52593W        W17754   9.128  40.372  14.660
52594W        W17755   4.485  24.043  14.071
52595W        W17756  18.270  40.791  12.197
52596W        W17757   0.235  25.128   4.558
52597W        W17758  39.731  25.184   0.255
52598W        W17759   5.225  13.380   3.309
52599W        W17760  30.337  22.274   1.798
52600W        W17761  32.477  23.600   0.787
52601W        W17762  29.486  11.647   4.065
52602W        W17763  34.272  35.927  12.092
52603W        W17764  41.497   2.717  13.400
52604W        W17765  42.440   3.482   4.195
52605W        W17766  18.362  43.326  11.492
52606W        W17767  31.437  43.946  13.043
52607W        W17768  33.992   0.156   2.369
52608W        W17769  12.368  25.205   0.041
52609W        W17770  19.920  44.645   0.830
52610W        W17771  37.523  29.905   2.742
52611W        W17772   9.696  20.872   2.661
52612W        W17773  16.507   7.862   4.516
52613W        W17774  17.544   8.673  13.376
52614W        W17775  11.687  32.639  11.817
52615W        W17776  28.146  34.753  12.493
52616W        W17777  27.402  39.211   1.764
52617W        W17778   6.139  35.650   1.225
52618W        W17779  29.429  38.175  13.431
52619W        W17780  44.660  39.888   4.269
52620W        W17781  32.357   6.667  12.680
52621W        W17782  38.542  32.140  12.163
52622W        W17783  26.973   0.746   0.269
52623W        W17784  35.258  40.805  13.413
52624W        W17785  37.446  40.995  10.472
52625W        W17786  14.257  22.760   0.381
52626W        W17787  16.307  30.257   0.025
52627W        W17788   4.452  31.144  11.934
52628W        W17789  35.526  33.328   0.372
52629W        W17790  18.226   6.335  12.278
52630W        W17791  29.884  27.124   3.908
52631W        W17792  10.333  37.526   1.428
52632W        W17793   2.510  17.915  12.886
52633W        W17794  23.686  33.708   4.687
52634W        W17795  44.423  26.951   1.393
52635W        W17796  15.289  41.586   1.257
52636W        W17797  11.093  27.708  14.409
52637W        W17798  29.196  32.989  10.712
52638W        W17799  19.602  25.281  11.600
52639W        W17800   9.723  31.103  12.366
52640W        W17801  11.755  21.260  10.134
52641W        W17802  31.138  15.529  11.067
52642W        W17803  39.254   3.757   1.830
52643W        W17804  29.663  14.373  13.125
52644W        W17805  34.047  10.367   0.731
52645W        W17806  30.412  33.525  13.819
52646W        W17807   0.908   5.748  11.147
52647W        W17808  28.158  11.127  11.563
52648W        W17809  34.635  44.478  12.051
52649W        W17810  28.190  36.316  12.440
52650W        W17811  10.268   5.778   3.802
52651W        W17812  37.321  17.751   0.851
52652W        W17813  40.549  44.264   4.595
52653W        W17814  37.850  34.001  11.455
52654W        W17815  37.813   7.770   3.378
52655W        W17816  44.294  11.530  14.066
52656W        W17817  44.298   7.960   1.725
52657W        W17818   7.880  12.028  14.730
52658W        W17819  25.335  43.946   1.287
52659W        W17820  24.610  20.803  14.782
52660W        W17821  13.705  23.313   2.010
52661W        W17822  27.431   6.637  13.892
52662W        W17823  11.958   9.873  13.902
52663W        W17824  27.559  10.130   3.635
52664W        W17825   6.626   3.775  14.943
52665W        W17826  25.219   3.068  11.161
52666W        W17827   7.318  28.620  11.783
52667W        W17828  36.892  20.841  11.119
52668W        W17829   1.525  12.818   3.845
52669W        W17830  16.630  25.896   0.360
52670W        W17831  25.513  44.037   2.738
52671W        W17832  10.862   6.916  13.382
52672W        W17833   5.705  31.007   2.848
52673W        W17834  14.683  28.898  14.375
52674W        W17835  30.207   0.822   4.928
52675W        W17836  23.271  28.496  14.883
52676W        W17837  38.496   5.146   3.256
52677W        W17838  11.694  29.177   3.247
52678W        W17839  33.326  20.165   4.562
52679W        W17840  14.762  19.680  11.962
52680W        W17841  35.642  28.503   4.606
52681W        W17842  29.494  25.159  13.610
52682W        W17843  22.464  43.471   2.343
52683W        W17844  33.699   6.350   1.333
52684W        W17845   9.828  10.581  14.342
52685W        W17846  12.082  32.141  13.533
52686W        W17847   6.685  24.681  12.119
52687W        W17848  16.805  30.223   0.708
52688W        W17849  14.891  23.059  14.698
52689W        W17850  10.634  17.636  12.609
52690W        W17851  10.118  30.367   2.306
52691W        W17852  34.523  20.775  11.264
52692W        W17853  16.486  16.653  10.628
52693W        W17854  30.999   0.192   0.750
52694W        W17855  42.379   8.814   2.233
52695W        W17856   4.021  33.127   1.398
52696W        W17857   6.923  14.119   5.060
52697W        W17858   6.256  22.269   2.312
52698W        W17859  16.976  13.893   1.155
52699W        W17860   5.659   5.133  12.521
52700W        W17861  18.931  35.606  11.499
52701W        W17862  37.335  15.178  11.184
52702W        W17863   1.156  43.321  13.498
52703W        W17864  23.109  35.032   4.552
52704W        W17865   3.995  15.679  13.319
52705W        W17866   2.869  33.032   3.120
52706W        W17867   9.114  23.226   3.788
52707W        W17868  19.812  15.309   3.143
52708W        W17869  42.073   4.563   2.382
52709W        W17870  28.024  23.242   9.773
52710W        W17871  40.578  17.657   4.195
52711W        W17872  12.246  34.377  12.966
52712W        W17873   8.637  12.208   3.144
52713W        W17874  38.902  10.789   4.513
52714W        W17875  20.006   0.048  11.051
52715W        W17876   7.164   7.331   4.113
52716W        W17877  35.737  40.259  12.218
52717W        W17878   9.994   3.256  13.995
52718W        W17879  30.941  40.950   1.612
52719W        W17880  44.838   0.806  10.706
52720W        W17881   4.232  12.541   3.612
52721W        W17882   4.687  35.510   3.201
52722W        W17883   2.152  41.028   1.002
52723W        W17884  34.439  35.089   1.728
52724W        W17885  17.054  24.098  12.487
52725W        W17886  34.062   7.283   2.766
52726W        W17887  37.421  36.378  10.807
52727W        W17888  44.208  37.014  12.676
52728W        W17889   9.765  41.906   4.334
52729W        W17890  39.993  26.108   3.873
52730W        W17891  29.066  33.529   1.749
52731W        W17892  22.093   7.437  13.826
52732W        W17893  24.767  12.345   1.852
52733W        W17894  35.578  18.226  13.491
52734W        W17895   8.760  39.903  11.536
52735W        W17896   7.314  15.143  11.927
52736W        W17897  18.843  10.028  10.447
52737W        W17898  44.390  23.067  12.315
52738W        W17899  15.223   1.258  11.128
52739W        W17900  40.992  10.301   1.945
52740W        W17901  24.598  23.559   1.804
52741W        W17902  38.107  32.933   2.134
52742W        W17903  42.512   7.363  12.452
52743W        W17904  14.626  20.299   3.682
52744W        W17905  38.371  14.287  13.467
52745W        W17906  43.936   1.044   4.216
52746W        W17907  20.583  23.938   3.290
52747W        W17908  13.408  23.772   0.345
52748W        W17909  42.877  44.263  11.035
52749W        W17910  32.943  42.359   0.924
52750W        W17911   2.028   7.789   1.370
52751W        W17912  26.965  18.863  11.533
52752W        W17913  10.808  19.841  10.446
52753W        W17914  12.015  40.895   2.658
52754W        W17915  16.124  26.568  11.598
52755W        W17916  39.952  25.132  13.262
52756W        W17917  13.151   4.315   3.905
52757W        W17918  10.285  40.808  14.328
52758W        W17919  33.893  13.097  13.897
52759W        W17920  17.621  26.636  10.938
52760W        W17921  14.538   8.484  13.535
52761W        W17922   9.162  31.686  14.910
52762W        W17923  23.119  13.599   3.727
52763W        W17924  37.156  39.278  12.511
52764W        W17925  40.974  34.111  12.940
52765W        W17926  15.179   8.224  13.953
52766W        W17927  11.173  35.667  13.710
52767W        W17928  19.746  26.545   4.535
52768W        W17929  21.518   8.171  13.488
52769W        W17930  24.563  20.017  13.878
52770W        W17931  32.358   0.384   1.446
52771W        W17932  25.231  39.105  14.001
52772W        W17933  41.922  42.894   3.200
52773W        W17934  30.319  21.626   2.220
52774W        W17935  14.782  10.095  11.175
52775W        W17936  18.460  26.521  10.438
52776W        W17937  21.807  21.049  13.814
52777W        W17938  43.675  29.050   0.274
52778W        W17939   8.361  16.374  12.128
52779W        W17940   8.418   2.772   0.835
52780W        W17941  26.071  11.550  10.766
52781W        W17942  26.233  27.997   2.783
52782W        W17943  10.235  20.276  14.752
52783W        W17944  10.170   8.426  11.945
52784W        W17945  29.957  29.916   3.586
52785W        W17946  32.498   8.423  10.769
52786W        W17947  15.274   6.881   3.771
52787W        W17948  25.075  18.626   1.706
52788W        W17949  14.354  36.051   0.313
52789W        W17950  41.926  25.926   1.776
52790W        W17951  35.903  30.003  12.945
52791W        W17952  41.697  29.043   2.811
52792W        W17953  13.035  33.565  10.150
52793W        W17954  11.195   0.630   1.639
52794W        W17955  19.763  31.991   2.345
52795W        W17956  34.975  17.676  10.644
52796W        W17957   9.677   3.346   2.902
52797W        W17958  35.438  10.215  12.970
52798W        W17959   1.876  44.421   0.732
52799W        W17960   1.432  43.865  11.902
52800W        W17961  34.169  36.928  12.480
52801W        W17962  44.357  44.594   3.365
52802W        W17963  14.877  35.951  10.811
52803W        W17964  39.530  44.451   1.098
52804W        W17965  24.613  22.728   2.602
52805W        W17966   7.845  29.725   2.299
52806W        W17967  27.335  40.459  14.768
52807W        W17968  23.021  12.167   4.595
52808W        W17969   1.961  19.181   0.872
52809W        W17970  33.403  38.574   1.710
52810W        W17971  18.045  32.958  11.267
52811W        W17972   8.386  18.277  11.407
52812W        W17973   5.216  15.695   0.246
52813W        W17974  41.653  31.433  10.541
52814W        W17975  24.012  29.600  14.370
52815W        W17976  16.206  39.053   1.378
52816W        W17977  29.676  34.175   2.852
52817W        W17978  19.335  39.686   1.279
52818W        W17979  10.667  24.617   2.323
52819W        W17980  10.304  16.789   0.870
52820W        W17981  16.164  43.347  12.562
52821W        W17982  37.397  24.594  13.028
52822W        W17983   5.374  14.477   4.129
52823W        W17984  14.847   5.391   4.573
52824W        W17985  33.526   6.235  13.053
52825W        W17986  12.509  13.847  10.646
52826W        W17987  21.807  20.354  13.699
52827W        W17988   0.884   5.806   0.606
52828W        W17989  44.852  16.177  14.540
52829W        W17990  20.548  34.168  12.878
52830W        W17991   0.172  44.413  11.161
52831W        W17992   9.570  27.627   2.735
52832W        W17993  12.328   6.891   0.232
52833W        W17994  10.672  12.300  12.984
52834W        W17995  17.010  13.377   1.930
52835W        W17996  34.632  25.918  14.426
52836W        W17997  33.564  41.945  14.848
52837W        W17998  40.752  13.725  11.712
52838W        W17999  37.311   3.434  14.773
52839W        W18000  16.139  27.618   3.599
52840W        W18001  14.803  27.202   1.412
52841W        W18002  35.106  19.209  13.922
52842W        W18003  29.899  31.255  13.972
52843W        W18004  39.072   0.445   4.550
52844W        W18005  26.906  34.622  11.427
52845W        W18006   4.780  28.648  13.450
52846W        W18007  39.377  21.975   4.066
52847W        W18008  27.921  23.578  11.946
52848W        W18009  38.989   6.267  12.408
52849W        W18010  39.074  31.538  14.925
52850W        W18011  14.859  35.306  13.390
52851W        W18012   5.674  21.595  14.312
52852W        W18013  16.127  43.408   5.527
52853W        W18014  26.596  18.100  12.446
52854W        W18015   9.293  41.495   2.077
52855W        W18016  33.155  11.863   2.718
52856W        W18017  12.946  14.315   2.898
52857W        W18018   1.865  29.909  10.502
52858W        W18019   6.695  39.419   3.325
52859W        W18020  17.888  14.310  12.683
52860W        W18021  42.130  15.234   2.887
52861W        W18022  29.631  31.657  14.168
52862W        W18023  38.166  24.258  12.566
52863W        W18024  38.701   2.252  14.880
52864W        W18025   8.957  25.671   4.919
52865W        W18026  30.524  44.913   1.859
52866W        W18027  30.207   2.817   2.253
52867W        W18028  11.036  31.367   2.279
52868W        W18029  32.873  29.975  10.917
52869W        W18030  12.279  25.636   0.297
52870W        W18031   4.922  39.696   3.320
52871W        W18032  42.421  32.412  12.034
52872W        W18033  30.860  31.871   0.799
52873W        W18034   7.323  24.949  14.419
52874W        W18035  11.238  19.963   1.815
52875W        W18036  15.600  35.336  14.880
52876W        W18037  16.635  38.825  14.807
52877W        W18038  14.015  35.158   1.401
52878W        W18039  39.870  18.058   1.661
52879W        W18040  43.014   5.254   0.971
52880W        W18041  27.602  31.609   4.274
52881W        W18042  22.564  44.255  12.514
52882W        W18043  31.063  23.173  11.568
52883W        W18044  23.713  14.117  13.080
52884W        W18045  41.598  39.712  14.317
52885W        W18046  29.757  29.547   4.688
52886W        W18047  32.450   7.745   1.259
52887W        W18048  41.999  32.120   3.407
52888W        W18049  20.076  41.909   1.528
52889W        W18050  11.563  32.156   4.640
52890W        W18051  17.653   5.293   2.986
52891W        W18052  37.797  40.630   2.068
52892W        W18053  14.205  27.947   0.120
52893W        W18054  30.925  16.748  11.936
52894W        W18055  17.991  16.815  13.255
52895W        W18056  21.750  14.509  14.477
52896W        W18057  28.454  31.403  14.765
52897W        W18058  22.244  34.481   4.664
52898W        W18059  38.358  28.611  13.069
52899W        W18060  37.989  38.457   5.082
52900W        W18061  24.432  11.861   2.996
52901W        W18062   5.880  23.799   0.553
52902W        W18063  19.866  38.589   0.691
52903W        W18064  37.823  21.251  11.570
52904W        W18065   7.613  13.108  11.400
52905W        W18066   9.157   9.755   3.603
52906W        W18067  42.663  40.049  10.231
52907W        W18068  17.061  11.703   3.294
52908W        W18069  44.179  40.281  11.132
52909W        W18070  24.479  27.427   0.351
52910W        W18071  24.644  13.004   0.355
52911W        W18072   4.458  42.898  11.548
52912W        W18073  17.546   0.257   3.638
52913W        W18074   1.233  21.000   3.780
52914W        W18075  31.134   2.258  13.358
52915W        W18076  39.835  23.588   3.720
52916W        W18077  33.473   5.249   2.596
52917W        W18078  36.423  33.151  11.099
52918W        W18079   6.734   7.574   4.277
52919W        W18080  32.262  21.551   3.914
52920W        W18081  18.578   8.764  11.379
52921W        W18082   6.611  21.699  12.866
52922W        W18083  43.814  27.635   0.326
52923W        W18084  22.108  21.436  11.049
52924W        W18085  36.925  30.398  12.009
52925W        W18086  25.167  10.708  12.948
52926W        W18087  43.981  23.333  12.792
52927W        W18088   8.735   6.078   4.707
52928W        W18089  44.934  13.670  11.701
52929W        W18090  18.046  39.361   0.497
52930W        W18091   5.777   3.746  11.491
52931W        W18092  33.029  11.780   1.724
52932W        W18093  22.572   8.267   4.659
52933W        W18094  36.924  39.996   1.665
52934W        W18095  17.601  42.723  14.634
52935W        W18096  16.054  18.007  13.926
52936W        W18097  33.493  33.437  14.963
52937W        W18098  10.299  25.038   1.279
52938W        W18099  32.120  42.376  14.929
52939W        W18100  33.058  41.229  12.515
52940W        W18101   5.076  36.003  10.273
52941W        W18102  36.094  20.246   5.051
52942W        W18103  29.370  22.524   1.951
52943W        W18104  10.608  29.440  14.049
52944W        W18105  17.173  43.994   1.428
52945W        W18106  25.908  42.419   0.852
52946W        W18107  30.212  19.710  14.527
52947W        W18108  21.663  34.359   1.896
52948W        W18109  13.920  29.985   4.653
52949W        W18110  25.254  17.792  12.589
52950W        W18111  14.863  24.863   4.118
52951W        W18112  20.982   3.113   0.420
52952W        W18113  33.975  35.387   3.956
52953W        W18114  32.416  27.544  12.845
52954W        W18115  42.012  26.225   2.196
52955W        W18116  24.539  42.936  12.298
52956W        W18117   4.855  16.797   4.635
52957W        W18118  35.359   5.774  11.471
52958W        W18119  11.594   7.626   1.862
52959W        W18120  26.835   5.725  13.090
52960W        W18121  38.818  41.084   4.690
52961W        W18122  33.645  34.343  12.790
52962W        W18123  41.961  11.607  14.374
52963W        W18124   2.795  10.296  10.631
52964W        W18125  10.195  20.648   4.158
52965W        W18126  16.293  41.853  11.555
52966W        W18127  44.660  21.083   1.745
52967W        W18128   9.413  26.964   0.237
52968W        W18129  35.131  38.937   0.438
52969W        W18130  28.733  40.624  12.551
52970W        W18131   0.368  25.178   0.052
52971W        W18132  25.707  29.589  11.090
52972W        W18133  24.629  37.356  11.143
52973W        W18134  35.372  26.768   1.368
52974W        W18135  40.688  37.845   5.413
52975W        W18136   3.753   7.235   1.356
52976W        W18137  33.791  33.087   0.940
52977W        W18138  44.743  19.778  10.364
52978W        W18139  41.729  10.356   2.858
52979W        W18140  28.250   8.635   2.823
52980W        W18141  26.344  34.863  14.210
52981W        W18142  10.230  23.713   4.687
52982W        W18143  28.554  14.816   2.588
52983W        W18144  41.287   4.692  11.139
52984W        W18145  12.054  18.456  11.179
52985W        W18146  32.027  23.014  12.139
52986W        W18147  18.110   3.957  12.698
52987W        W18148   2.804  31.167   4.254
52988W        W18149  14.882   4.365  13.054
52989W        W18150  41.428  17.582   3.630
52990W        W18151  44.292   4.368  11.084
52991W        W18152   6.802   7.888   0.305
52992W        W18153  31.473  32.462   3.309
52993W        W18154  37.465  23.187  12.981
52994W        W18155  38.379  23.709  11.205
52995W        W18156  34.920  16.622  13.852
52996W        W18157  36.606  11.295  14.005
52997W        W18158  35.549  44.373   3.188
52998W        W18159   1.047   8.963   3.263
52999W        W18160  21.998  24.037  14.836
53000W        W18161  28.499   2.195  14.887
53001W        W18162  20.076   0.395  12.336
53002W        W18163  24.247  17.109  10.404
53003W        W18164   0.996  19.249   0.244
53004W        W18165  38.402  27.564  11.401
53005W        W18166  31.780   8.788   3.664
53006W        W18167   9.635  26.612  10.605
53007W        W18168  22.190  37.349   1.276
53008W        W18169  33.094  23.346  11.321
53009W        W18170   9.332  28.658  12.473
53010W        W18171   6.863   9.454   2.653
53011W        W18172  41.073  15.092   4.078
53012W        W18173  17.277  39.755   3.757
53013W        W18174   8.168  16.920   4.707
53014W        W18175  13.775  33.916  10.562
53015W        W18176   7.803  41.062  14.808
53016W        W18177  10.104  10.813   5.001
53017W        W18178  34.071  28.590   0.854
53018W        W18179  26.890  37.039   2.978
53019W        W18180   6.419  40.127   4.457
53020W        W18181  11.570  11.986   1.851
53021W        W18182  28.299  26.489  13.663
53022W        W18183  15.621  14.643  11.782
53023W        W18184  10.183  38.743  11.434
53024W        W18185  39.050  22.460  10.869
53025W        W18186  24.227  34.852   3.827
53026W        W18187  33.297  20.507  13.445
53027W        W18188  15.143  32.093   4.111
53028W        W18189  36.501  37.924  12.935
53029W        W18190  43.873  40.927   0.093
53030W        W18191  27.796  19.357  11.104
53031W        W18192  10.239   3.431   0.858
53032W        W18193  30.109  37.543  13.504
53033W        W18194  44.210  14.489   1.625
53034W        W18195  28.031  34.506  10.745
53035W        W18196  44.784  18.100   1.025
53036W        W18197   4.290  22.545  10.870
53037W        W18198  10.141  10.864  11.240
53038W        W18199   3.278  19.511   1.770
53039W        W18200  37.932  42.823  12.413
53040W        W18201  30.194   1.751  11.391
53041W        W18202   4.870  20.385   0.824
53042W        W18203  23.629  43.002   4.112
53043W        W18204   9.914  25.243   2.818
53044W        W18205  17.219  40.232   3.557
53045W        W18206  33.438   0.445   4.131
53046W        W18207   9.111  15.591  14.873
53047W        W18208   8.146  10.780   4.486
53048W        W18209  23.735  44.348  11.858
53049W        W18210  10.699  21.451   2.783
53050W        W18211  44.442  17.568  12.061
53051W        W18212  25.963   1.681  14.483
53052W        W18213  38.337   6.261  10.731
53053W        W18214  11.690  27.475  10.972
53054W        W18215  41.964  42.433  12.146
53055W        W18216   5.304  44.946  14.899
53056W        W18217   5.941   4.361   0.208
53057W        W18218  14.912  21.638   2.807
53058W        W18219  14.292  37.011   0.375
53059W        W18220  40.085  40.554   1.269
53060W        W18221   2.898  18.218   2.721
53061W        W18222   0.198  13.638   0.225
53062W        W18223  42.424  43.347  10.746
53063W        W18224   7.123  36.335  10.811
53064W        W18225  29.860   0.313   1.263
53065W        W18226   2.479   6.333  11.682
53066W        W18227   2.245  44.347  10.770
53067W        W18228  22.307  30.708   1.702
53068W        W18229  10.667  39.305  13.391
53069W        W18230  19.291  19.222   1.687
53070W        W18231  18.189  13.560  11.703
53071W        W18232  17.037   7.693  14.339
53072W        W18233  16.046  44.505   0.229
53073W        W18234  29.905   9.155  14.861
53074W        W18235   4.764   3.159  14.726
53075W        W18236  26.746  18.844  14.413
53076W        W18237  34.183  35.795   4.155
53077W        W18238  37.634  42.722  11.143
53078W        W18239  17.719  11.673  13.398
53079W        W18240  44.794  33.440  13.080
53080W        W18241   3.263  36.966  10.999
53081W        W18242  20.802  19.928  11.236
53082W        W18243  17.115   1.390  13.484
53083W        W18244  26.752  37.300   1.309
53084W        W18245  42.529   4.196   3.645
53085W        W18246  44.814   1.936  13.865
53086W        W18247   9.303  20.859  12.498
53087W        W18248  40.358   7.260   4.421
53088W        W18249   0.222  31.643  12.017
53089W        W18250  39.849   6.804  12.321
53090W        W18251  32.633  17.482   2.597
53091W        W18252  14.739  25.961   4.077
53092W        W18253  18.733  28.011  11.231
53093W        W18254  30.114  10.812  10.369
53094W        W18255   3.327   3.302  11.331
53095W        W18256   1.969  28.047   5.016
53096W        W18257  34.435  37.069   1.125
53097W        W18258  43.447  42.750  10.466
53098W        W18259  22.146  16.060  13.769
53099W        W18260  26.562  21.965   9.866
53100W        W18261  26.145  26.986  14.045
53101W        W18262  30.415  30.121   2.731
53102W        W18263  27.278  31.092  12.955
53103W        W18264  31.444  35.497  14.311
53104W        W18265   3.725  41.464  14.268
53105W        W18266  25.101  37.350   5.525
53106W        W18267  20.553  35.369   1.285
53107W        W18268   5.492  38.393  11.077
53108W        W18269  15.716  22.177  14.744
53109W        W18270  37.301  39.890   1.072
53110W        W18271  12.103  28.406   1.798
53111W        W18272   5.703  13.242   3.110
53112W        W18273  27.689  18.241  13.398
53113W        W18274   8.841  25.514  13.063
53114W        W18275   6.319  23.699   3.722
53115W        W18276  21.019   9.698  10.925
53116W        W18277  20.547  43.783   4.189
53117W        W18278   8.965   2.150  14.552
53118W        W18279  32.605  44.756   1.352
53119W        W18280  14.582  30.205  14.066
53120W        W18281  21.854  33.006   2.214
53121W        W18282  18.585  29.521  10.449
53122W        W18283  30.053  33.689   1.908
53123W        W18284  32.650  27.628  14.669
53124W        W18285  25.740  16.722   0.286
53125W        W18286   1.525  39.982  11.181
53126W        W18287  40.310  43.781  14.303
53127W        W18288  26.075  25.600   4.373
53128W        W18289  22.003  21.008   0.330
53129W        W18290  15.741   5.561  13.533
53130W        W18291  10.096  30.059   4.845
53131W        W18292   9.624  21.337   0.730
53132W        W18293  12.864  42.416   1.798
53133W        W18294  10.807  18.376  12.811
53134W        W18295  37.592  10.515   4.167
53135W        W18296   7.728  21.009  14.769
53136W        W18297  40.901   6.755   2.923
53137W        W18298  26.440   9.272   2.276
53138W        W18299  33.471  26.266   4.065
53139W        W18300  24.726  27.144   3.615
53140W        W18301  19.683   1.156   3.216
53141W        W18302  15.672  31.132   1.660
53142W        W18303  43.786   5.893  12.460
53143W        W18304  34.779   8.925  12.348
53144W        W18305  39.513  20.782  11.749
53145W        W18306  12.371  14.143   3.745
53146W        W18307   8.753   4.603   1.007
53147W        W18308  20.724  42.716  14.273
53148W        W18309   4.283  22.947  13.846
53149W        W18310   2.025   6.225  10.640
53150W        W18311  14.164   9.778  11.894
53151W        W18312  40.389  10.849  10.576
53152W        W18313  40.139  35.457  14.259
53153W        W18314  33.560  28.610  14.949
53154W        W18315  23.608   2.798   3.835
53155W        W18316  34.607  19.087   0.675
53156W        W18317  15.729   2.324   2.360
53157W        W18318  37.837  43.331   4.710
53158W        W18319  19.802  41.997   2.524
53159W        W18320  11.828  39.490  11.197
53160W        W18321  37.554   6.911   1.308
53161W        W18322  29.086  34.802   3.281
53162W        W18323  39.631  29.519  12.965
53163W        W18324  17.099  33.538  10.272
53164W        W18325  27.738   1.719  10.268
53165W        W18326   5.408  20.283  11.977
53166W        W18327  44.154  19.639   2.275
53167W        W18328  28.196   2.697   1.018
53168W        W18329  25.180  40.594  13.567
53169W        W18330   6.995  22.459  14.759
53170W        W18331   2.742  20.763   0.815
53171W        W18332   6.923  23.784   3.094
53172W        W18333   0.760  34.491   3.156
53173W        W18334   6.178  21.925  13.488
53174W        W18335  29.929   4.450   4.656
53175W        W18336  37.548  39.074   4.679
53176W        W18337   1.940  10.002   5.022
53177W        W18338  44.018  34.134   0.523
53178W        W18339   8.392  26.922   3.118
53179W        W18340  32.401  12.625   2.354
53180W        W18341  24.059   3.727   3.197
53181W        W18342  38.257  19.038   2.181
53182W        W18343  35.627  22.962  14.846
53183W        W18344  20.832  13.015  12.053
53184W        W18345  29.287  35.059   4.405
53185W        W18346  24.598  31.601   1.312
53186W        W18347   4.343  31.536  14.893
53187W        W18348  23.700  29.135   3.899
53188W        W18349  24.982  22.790   3.220
53189W        W18350  37.856  30.160   2.107
53190W        W18351  40.946   2.839   0.284
53191W        W18352  44.253  24.431   0.420
53192W        W18353  40.234  39.822   3.325
53193W        W18354  13.836  10.199  13.049
53194W        W18355  25.693  28.459  14.849
53195W        W18356  13.621  32.507  11.658
53196W        W18357  35.276   3.882  14.474
53197W        W18358  27.903  40.971   1.380
53198W        W18359  21.689  11.852  13.532
53199W        W18360  37.531  27.473  10.869
53200W        W18361  40.695  35.450  12.467
53201W        W18362  33.516  33.685  10.507
53202W        W18363  10.242  13.602   2.872
53203W        W18364  31.987  37.060   2.434
53204W        W18365  17.499  42.394   3.653
53205W        W18366   9.464  10.140  11.312
53206W        W18367   3.461  13.768  12.075
53207W        W18368  34.110  24.374   1.319
53208W        W18369   3.885  44.832  10.576
53209W        W18370  19.864  11.956  13.099
53210W        W18371  17.012  27.538  13.369
53211W        W18372  10.167  32.028   3.900
53212W        W18373   0.513   4.236   4.919
53213W        W18374  13.896   1.458   4.504
53214W        W18375  39.132  38.617  12.607
53215W        W18376  20.858  37.285   3.834
53216W        W18377  31.414  40.923   3.406
53217W        W18378  38.071   8.968  13.555
53218W        W18379  21.959  35.880   2.491
53219W        W18380  17.850  31.197  12.411
53220W        W18381  42.716   0.362  11.808
53221W        W18382  12.432  12.594   0.282
53222W        W18383  18.125  15.007  14.757
53223W        W18384  24.219  43.536   0.854
53224W        W18385  28.338   9.397   0.455
53225W        W18386  24.518   2.890  12.966
53226W        W18387  40.977  28.250   3.922
53227W        W18388  20.581  32.784   1.452
53228W        W18389  44.262  38.616  10.800
53229W        W18390  16.707  14.787   2.796
53230W        W18391  29.974   9.925  10.379
53231W        W18392  23.105  33.325  14.259
53232W        W18393  19.561  29.937  10.620
53233W        W18394  18.959  31.038   1.861
53234W        W18395  10.000  29.859   2.314
53235W        W18396  10.186  38.219  11.497
53236W        W18397  36.953   5.200  11.147
53237W        W18398   0.950  29.018   0.812
53238W        W18399   6.638  31.224   2.755
53239W        W18400  35.828  38.055   1.877
53240W        W18401   8.278  30.380   0.311
53241W        W18402  24.133  10.578   3.954
53242W        W18403  14.301  23.387  11.562
53243W        W18404  37.035   8.996  14.032
53244W        W18405  11.637  10.258  11.688
53245W        W18406  11.908  38.255  11.509
53246W        W18407  42.329  24.121  12.784
53247W        W18408   7.723  33.651   4.043
53248W        W18409   3.194  34.354  14.708
53249W        W18410   5.998  28.246  11.060
53250W        W18411  10.691  38.350   0.415
53251W        W18412  29.629  40.310  11.112
53252W        W18413  33.382  34.254  12.339
53253W        W18414  11.389  42.445  14.979
53254W        W18415   5.536  37.491  14.818
53255W        W18416  24.032  30.121  11.584
53256W        W18417  34.255  15.631  12.927
53257W        W18418  42.607  32.834  10.887
53258W        W18419  27.583   8.225  14.033
53259W        W18420  41.876  10.887  12.097
53260W        W18421  28.255  40.361   0.450
53261W        W18422  14.782  11.381  13.549
53262W        W18423   2.614  43.112   0.505
53263W        W18424   8.103  13.650   1.347
53264W        W18425  29.146   9.934   1.246
53265W        W18426  33.087  15.928   2.345
53266W        W18427  19.582  16.034   1.249
53267W        W18428   3.860   9.222  13.350
53268W        W18429  39.504  26.769  12.002
53269W        W18430  17.000  38.928   4.559
53270W        W18431  12.653  30.342   4.475
53271W        W18432   9.825   1.442   3.669
53272W        W18433  34.769  33.666   4.734
53273W        W18434  32.565  44.979  11.468
53274W        W18435  29.158   0.161  12.020
53275W        W18436  29.578  38.596   2.701
53276W        W18437  19.291   5.682   3.187
53277W        W18438  31.145  44.358  12.828
53278W        W18439  31.854  21.186   1.792
53279W        W18440   5.039  31.851   5.229
53280W        W18441  15.112   2.058  12.496
53281W        W18442  33.540   7.847  11.156
53282W        W18443  37.353  12.363   0.946
53283W        W18444  19.567   8.634   2.270
53284W        W18445  17.271  38.260   3.646
53285W        W18446  40.756   5.111   1.917
53286W        W18447   1.100  27.090  12.920
53287W        W18448  21.001   1.505  13.312
53288W        W18449   1.979   2.738   2.612
53289W        W18450  24.982   0.423  14.031
53290W        W18451  16.108   5.750  11.811
53291W        W18452  42.767  22.197   0.298
53292W        W18453  26.217  43.505  10.685
53293W        W18454  35.633  19.433  12.565
53294W        W18455  19.659  11.116   2.551
53295W        W18456  10.216  23.531   2.138
53296W        W18457  36.807  24.686   4.073
53297W        W18458  23.138  34.927   3.204
53298W        W18459   0.741  25.190   0.848
53299W        W18460   9.452   1.779  13.835
53300W        W18461  26.641  16.102  14.347
53301W        W18462  22.772   6.935   3.879
53302W        W18463  42.443  39.759   2.319
53303W        W18464  10.121  10.661   3.779
53304W        W18465  13.728  26.228   1.366
53305W        W18466  22.470   4.182   4.372
53306W        W18467  10.781  42.555   2.087
53307W        W18468  36.513  37.467   3.878
53308W        W18469  32.582   6.190   2.228
53309W        W18470  36.091   4.931   1.782
53310W        W18471   7.396   2.707   4.308
53311W        W18472  28.563  28.508   0.285
53312W        W18473  10.593   6.725  10.565
53313W        W18474   3.463  12.094   1.906
53314W        W18475  28.044  17.298  14.960
53315W        W18476  22.226  35.985  10.578
53316W        W18477   2.365  10.421  13.860
53317W        W18478  39.290  35.575   4.246
53318W        W18479   7.125  15.760   1.729
53319W        W18480  29.511  25.015  13.106
53320W        W18481  36.469  18.541  11.851
53321W        W18482  29.925  38.360   4.812
53322W        W18483  25.735  13.453  13.456
53323W        W18484  27.140   2.887   1.264
53324W        W18485  10.373  21.908   4.671
53325W        W18486  30.656   2.772   3.099
53326W        W18487  34.405  34.007  13.544
53327W        W18488  16.340  43.333   5.058
53328W        W18489   6.291  31.073  11.185
53329W        W18490   4.649  20.564  11.079
53330W        W18491  41.128   1.571   4.758
53331W        W18492  25.701  16.181  13.436
53332W        W18493  17.330  10.977   3.988
53333W        W18494  12.930  12.908  11.541
53334W        W18495  31.278  36.774   3.288
53335W        W18496   3.777  33.186  12.448
53336W        W18497  36.857  17.231  12.441
53337W        W18498   3.318  38.819  10.683
53338W        W18499  11.945  29.001  12.047
53339W        W18500   5.661  25.954   1.440
53340W        W18501  29.578  13.277  11.143
53341W        W18502  13.651  40.844   0.708
53342W        W18503  33.496  24.256   3.328
53343W        W18504  22.019  20.679   2.336
53344W        W18505  37.683   6.983  13.492
53345W        W18506  25.547  27.148  14.047
53346W        W18507  33.482  23.205  11.609
53347W        W18508  30.050   4.618   3.328
53348W        W18509  42.021  41.400  13.391
53349W        W18510   5.856  36.762  13.074
53350W        W18511  40.834  17.218  14.541
53351W        W18512  24.230  41.243  14.861
53352W        W18513  42.954  11.162  13.652
53353W        W18514  13.664  36.216  14.121
53354W        W18515  32.437  44.080   1.276
53355W        W18516   5.236  19.019  12.459
53356W        W18517  16.281  15.500  14.752
53357W        W18518  39.961   6.361   1.052
53358W        W18519  21.161   2.255   0.624
53359W        W18520  40.531   3.670  13.123
53360W        W18521   0.936   0.754   4.541
53361W        W18522  39.081  19.456  11.371
53362W        W18523  10.310  13.098   1.004
53363W        W18524  12.424   1.312   1.361
53364W        W18525  28.036  42.204  12.180
53365W        W18526  27.372  18.177  12.949
53366W        W18527   6.396  17.159  10.129
53367W        W18528  28.047  14.682   3.764
53368W        W18529  16.770  28.350  11.103
53369W        W18530  43.121  17.734   1.281
53370W        W18531  42.777   4.815  13.330
53371W        W18532   4.853  21.873  11.688
53372W        W18533  24.080   6.708   0.227
53373W        W18534  43.391  20.219  12.497
53374W        W18535  30.202  26.554   1.749
53375W        W18536  18.143  17.337   9.853
53376W        W18537  20.654  20.402  11.051
53377W        W18538  33.049  22.596   2.567
53378W        W18539  17.270  28.448  11.068
53379W        W18540  14.338  36.454   4.263
53380W        W18541  30.739  12.123  12.238
53381W        W18542  39.718  19.197   4.875
53382W        W18543   3.837  26.727   0.899
53383W        W18544  23.943   5.307   0.325
53384W        W18545  33.146  43.964  14.502
53385W        W18546  38.350  11.509   4.212
53386W        W18547  12.329  12.688   1.795
53387W        W18548  40.962  15.609  12.449
53388W        W18549  40.455   2.233   2.354
53389W        W18550  44.765   8.962  11.575
53390W        W18551   8.894   1.407   3.764
53391W        W18552  32.543  18.750   4.468
53392W        W18553  25.740  20.738  11.433
53393W        W18554  21.658  18.575   4.575
53394W        W18555  20.631  35.012   3.671
53395W        W18556   2.039  26.531   0.889
53396W        W18557  19.160  19.859  13.531
53397W        W18558  39.579   5.503  13.512
53398W        W18559  20.578  41.896   1.433
53399W        W18560  20.034  30.698   3.861
53400W        W18561  38.873   8.082   0.287
53401W        W18562  33.372  37.529   3.614
53402W        W18563   3.331  34.340  11.573
53403W        W18564  11.904   0.805   3.283
53404W        W18565   7.181  20.251  13.121
53405W        W18566  29.392  32.582  14.277
53406W        W18567  22.970  37.263   4.577
53407W        W18568  30.836  16.672   0.900
53408W        W18569  21.456  31.165   1.578
53409W        W18570  20.076  34.435   5.052
53410W        W18571   2.428  14.060  12.369
53411W        W18572  24.685  11.151   1.240
53412W        W18573   5.173  36.988  11.225
53413W        W18574  15.633  14.212  10.573
53414W        W18575  44.246  38.846  10.343
53415W        W18576  44.988   4.979  13.871
53416W        W18577   5.385  13.986   5.092
53417W        W18578  15.005  37.895  11.419
53418W        W18579  40.303  16.475  13.345
53419W        W18580  23.024  36.479  10.936
53420W        W18581  24.695   7.150  14.885
53421W        W18582   6.916  20.808  14.530
53422W        W18583  32.540   4.230  11.178
53423W        W18584  22.227  27.685   2.669
53424W        W18585   3.501  11.006  13.828
53425W        W18586  40.697   4.482  12.693
53426W        W18587  15.762  18.579  10.746
53427W        W18588  11.200  41.950   4.594
53428W        W18589  21.821  44.974  13.516
53429W        W18590   3.747  24.656  13.188
53430W        W18591  22.224  41.888  14.112
53431W        W18592  41.434  43.105  14.075
53432W        W18593  22.987  16.744   4.692
53433W        W18594  41.342  20.330  13.387
53434W        W18595  43.447  39.950   1.549
53435W        W18596  39.880  41.308  13.180
53436W        W18597   1.291  23.420   0.429
53437W        W18598  27.003  27.012   0.641
53438W        W18599   9.332  16.056   4.599
53439W        W18600   4.796  10.634  10.600
53440W        W18601  39.294   1.702   4.137
53441W        W18602  39.858  13.106  13.695
53442W        W18603  10.164  31.730   3.329
53443W        W18604  11.970   6.662   4.959
53444W        W18605  25.621   0.240   1.670
53445W        W18606  44.460  18.848   3.658
53446W        W18607  13.792  23.005  12.418
53447W        W18608  34.560  17.676   3.375
53448W        W18609  38.817  31.578  11.186
53449W        W18610   3.793  36.900  13.641
53450W        W18611  31.059  39.294  10.639
53451W        W18612   2.965  39.115  12.815
53452W        W18613  26.614  32.715   4.638
53453W        W18614  22.565   6.478   3.746
53454W        W18615  29.269  36.655  11.918
53455W        W18616  18.508   6.782   0.779
53456W        W18617  10.209  44.683  11.898
53457W        W18618  44.042  14.155  12.459
53458W        W18619  36.065   2.022   2.838
53459W        W18620  20.140  40.109   3.236
53460W        W18621  39.090   8.927  10.635
53461W        W18622  22.335  11.690   4.532
53462W        W18623  18.604  31.561   1.051
53463W        W18624  16.352  36.029  11.075
53464W        W18625  25.282  11.718   3.243
53465W        W18626  25.945  23.138  12.981
53466W        W18627   7.378  23.199  11.628
53467W        W18628  39.401  32.268   2.271
53468W        W18629  37.117  15.790   3.078
53469W        W18630  31.656  40.357  12.496
53470W        W18631  39.549  37.325  14.315
53471W        W18632  15.650  17.405  14.481
53472W        W18633  25.778  38.350   1.584
53473W        W18634   1.459  13.880   3.127
53474W        W18635  32.556  38.069  13.338
53475W        W18636  21.494  13.549  12.964
53476W        W18637   5.368  27.127   1.755
53477W        W18638  36.649   3.193  12.945
53478W        W18639  20.805  13.224  13.511
53479W        W18640   0.470  44.400   0.887
53480W        W18641  35.422  42.363   4.313
53481W        W18642  30.875  43.471  12.606
53482W        W18643  43.040  11.051  10.156
53483W        W18644   5.691  28.337  13.799
53484W        W18645   6.661   2.855  13.931
53485W        W18646  35.649  29.521  12.873
53486W        W18647  25.678  28.179  13.114
53487W        W18648  32.864   2.637   3.195
53488W        W18649   5.742  26.120   4.004
53489W        W18650  23.057  38.393  11.575
53490W        W18651  13.178  23.294  12.906
53491W        W18652  13.475   2.407   4.210
53492W        W18653  30.516   2.453  11.647
53493W        W18654  28.991  22.560   4.599
53494W        W18655   4.658  39.556   2.769
53495W        W18656   9.462   0.801  11.204
53496W        W18657  12.367  43.868   0.296
53497W        W18658   7.129   6.193   1.774
53498W        W18659  16.547  41.036   0.435
53499W        W18660  21.070  36.469  14.321
53500W        W18661  29.060  26.684   0.732
53501W        W18662  35.374  13.845  13.330
53502W        W18663  18.278  13.676   3.120
53503W        W18664  29.635   4.695  12.371
53504W        W18665  21.192  39.052   0.447
53505W        W18666   2.587  18.670   3.560
53506W        W18667  21.798   0.698   0.864
53507W        W18668  18.151  36.081   0.817
53508W        W18669  16.836  28.541   3.303
53509W        W18670  20.905   2.178   1.071
53510W        W18671  38.859   2.220   0.393
53511W        W18672  34.178   7.413   4.195
53512W        W18673   0.759  11.597   2.246
53513W        W18674   9.803  43.090   0.922
53514W        W18675   7.356  17.999   2.361
53515W        W18676   5.088  36.315   0.878
53516W        W18677  11.837  20.840   0.887
53517W        W18678  28.174  15.043   2.278
53518W        W18679  21.632  12.835  12.347
53519W        W18680  31.479  20.463  12.724
53520W        W18681  33.167   1.545  13.414
53521W        W18682  37.806   7.699  12.439
53522W        W18683  36.110  20.697   2.827
53523W        W18684  12.402  30.255   1.580
53524W        W18685  34.677  22.014   4.778
53525W        W18686   9.321  32.614  11.144
53526W        W18687  28.642  22.672  12.885
53527W        W18688  31.879  19.694   4.716
53528W        W18689   3.810  32.934   0.891
53529W        W18690  23.198  44.922   1.261
53530W        W18691  32.130  33.980  11.110
53531W        W18692   9.573  26.099   1.885
53532W        W18693  28.465  15.744   3.257
53533W        W18694   3.789  43.206   4.714
53534W        W18695  44.888  27.116   1.218
53535W        W18696  19.291  19.209  14.413
53536W        W18697  30.150  21.191  11.545
53537W        W18698  32.408  30.919  12.496
53538W        W18699  22.096  13.148  12.930
53539W        W18700  26.152   1.930  14.007
53540W        W18701  23.568  11.655   1.630
53541W        W18702  26.470  34.559  11.659
53542W        W18703   6.509  34.189   1.899
53543W        W18704  24.128  13.760  11.993
53544W        W18705  11.571  30.405   3.814
53545W        W18706  26.047  36.769  13.302
53546W        W18707  41.885   3.824   4.370
53547W        W18708  33.625  38.947  11.734
53548W        W18709  25.612   5.213  11.677
53549W        W18710   2.760  15.949  11.605
53550W        W18711  11.121  23.403  12.392
53551W        W18712  14.404  31.033  10.750
53552W        W18713  41.362  31.514  14.739
53553W        W18714  19.018   6.733   0.896
53554W        W18715  35.604  36.146  13.429
53555W        W18716  41.082  21.575   4.457
53556W        W18717  43.143  11.405  14.239
53557W        W18718  18.341   8.271   1.883
53558W        W18719  32.745  35.657  11.776
53559W        W18720  39.829   8.186  11.678
53560W        W18721  31.174   0.416  14.758
53561W        W18722   8.692  36.879  14.987
53562W        W18723  10.799  44.645   0.874
53563W        W18724  27.948  41.320  14.422
53564W        W18725  12.422   1.955  11.188
53565W        W18726  30.557   9.160   1.410
53566W        W18727  44.606  29.240   3.201
53567W        W18728  30.392  10.671   4.354
53568W        W18729  10.093   3.825  12.097
53569W        W18730  41.767  17.850  11.607
53570W        W18731   1.489  30.932   1.003
53571W        W18732  31.024  10.540  11.794
53572W        W18733  43.529  15.093  12.245
53573W        W18734   6.701  30.759  11.118
53574W        W18735  10.307  37.366   3.192
53575W        W18736  39.320  16.087   3.182
53576W        W18737  11.883  20.663   3.615
53577W        W18738  37.949  25.698   2.770
53578W        W18739  35.394  15.735   1.370
53579W        W18740  23.546  24.803   1.695
53580W        W18741   8.605  12.030   1.906
53581W        W18742  29.476  34.536  13.995
53582W        W18743  19.795  31.402  10.659
53583W        W18744  11.316  19.163  14.024
53584W        W18745  44.467  26.458  11.298
53585W        W18746  15.701  27.431   3.824
53586W        W18747   3.785  30.087   2.864
53587W        W18748  22.721  36.856   4.346
53588W        W18749  14.900  33.792   1.969
53589W        W18750   8.904  42.378  12.967
53590W        W18751   5.799  12.058   0.994
53591W        W18752  26.745  37.891  13.782
53592W        W18753  28.160  18.214  12.501
53593W        W18754  19.139  22.207   3.341
53594W        W18755   8.936  12.056  13.971
53595W        W18756  14.254  12.738  13.148
53596W        W18757  21.524  33.235  12.129
53597W        W18758  39.401  43.529  11.924
53598W        W18759  26.518  43.313   0.295
53599W        W18760  13.930  15.104   3.725
53600W        W18761   0.611  32.631   1.279
53601W        W18762  16.279  16.284  10.269
53602W        W18763   4.735  13.509  11.476
53603W        W18764  10.810  34.926  11.617
53604W        W18765  19.497   2.978   3.717
53605W        W18766   2.502  10.424   0.837
53606W        W18767   3.971  17.851   0.972
53607W        W18768  41.389  44.159   4.724
53608W        W18769  17.406   9.334  11.572
53609W        W18770  39.233  16.610  14.205
53610W        W18771  12.082  11.941  14.296
53611W        W18772  33.088  26.274   0.387
53612W        W18773  39.393   9.237   3.842
53613W        W18774  20.758  10.878   4.801
53614W        W18775  21.631  36.910   4.634
53615W        W18776   3.265  19.205   2.762
53616W        W18777   9.663  38.147  10.367
53617W        W18778   1.493  36.029  10.714
53618W        W18779   9.453  26.504  12.978
53619W        W18780  26.916   4.877  10.719
53620W        W18781  42.169  13.551   4.121
53621W        W18782  29.672  18.061   1.837
53622W        W18783  23.333  12.653  13.825
53623W        W18784  19.107   1.441  11.753
53624W        W18785  41.002  30.502   2.579
53625W        W18786  15.163  36.117   2.400
53626W        W18787  29.653  21.758  11.987
53627W        W18788   4.956  11.322  12.454
53628W        W18789   1.903  36.184  10.965
53629W        W18790  13.221  34.477  13.346
53630W        W18791  28.659  39.557   3.922
53631W        W18792  30.028  25.765  10.656
53632W        W18793  15.683  11.746   0.942
53633W        W18794  37.072   9.489   3.805
53634W        W18795  40.742  38.446   0.720
53635W        W18796  36.962   0.060  14.984
53636W        W18797  31.116  34.912   0.952
53637W        W18798  34.844   5.193   4.707
53638W        W18799  30.962   7.237   2.180
53639W        W18800  28.500  12.611   0.898
53640W        W18801   2.941  44.920   1.699
53641W        W18802   1.209  41.830   1.233
53642W        W18803  11.690  23.099  12.450
53643W        W18804  10.820   8.307  11.838
53644W        W18805  39.085  22.834   1.428
53645W        W18806   0.308  23.459   3.735
53646W        W18807  40.820   2.183   2.753
53647W        W18808  16.786   9.859   4.097
53648W        W18809  12.252  30.400   0.266
53649W        W18810  40.020  12.601  14.543
53650W        W18811   3.777  10.235   9.988
53651W        W18812  22.731  35.834   9.895
53652W        W18813   1.819   0.888   3.053
53653W        W18814   3.773  20.161   2.660
53654W        W18815  36.702  28.373   1.409
53655W        W18816  30.247  15.911   3.607
53656W        W18817  42.391  41.927  11.250
53657W        W18818  26.211  38.359   0.332
53658W        W18819  26.211  44.577  12.081
53659W        W18820   9.127  17.085  12.214
53660W        W18821  13.888  44.980   0.298
53661W        W18822   5.909  43.935   1.365
53662W        W18823   9.135  44.461  11.206
53663W        W18824  22.593  39.929  12.601
53664W        W18825  32.611  42.612   3.672
53665W        W18826  24.005  20.330  13.074
53666W        W18827  44.099   8.176  13.324
53667W        W18828   9.930  42.072  10.508
53668W        W18829  11.195  26.985   3.310
53669W        W18830   9.653  34.097  14.890
53670W        W18831  12.799  18.459  11.962
53671W        W18832  22.219  13.178  11.013
53672W        W18833  40.419  32.998  11.670
53673W        W18834  41.156   1.029  11.127
53674W        W18835  31.968  28.051  10.805
53675W        W18836  13.629  25.599  14.906
53676W        W18837  22.126  23.219  14.101
53677W        W18838  32.291  11.365   4.959
53678W        W18839  44.532  23.922  14.739
53679W        W18840  12.768  38.130  14.651
53680W        W18841  22.578  15.832   4.515
53681W        W18842  16.063  37.528  11.219
53682W        W18843  37.969  25.471  11.491
53683W        W18844   3.244  16.769  11.032
53684W        W18845  12.762  43.274   4.104
53685W        W18846  26.736  23.474   2.792
53686W        W18847  23.244  32.468  14.411
53687W        W18848   0.504  20.043   3.240
53688W        W18849  41.761  34.066  12.001
53689W        W18850  19.155  38.526   1.853
53690W        W18851   3.175  11.429  10.956
53691W        W18852  32.462  41.775   2.175
53692W        W18853  30.581  43.178   0.890
53693W        W18854  40.988   1.760  14.183
53694W        W18855  29.530  20.184  11.305
53695W        W18856  42.994  12.186  13.744
53696W        W18857  14.820   7.156  13.186
53697W        W18858  12.928   7.197  10.690
53698W        W18859   4.539  25.310   1.734
53699W        W18860  32.944  35.986  14.909
53700W        W18861  40.868  38.388   1.420
53701W        W18862  32.432  31.201  12.929
53702W        W18863  25.378  37.434   2.595
53703W        W18864  29.012  31.208  11.931
53704W        W18865  16.621   8.380   0.807
53705W        W18866  31.403   6.749  12.992
53706W        W18867  42.243  20.582   1.483
53707W        W18868  37.622   7.088   2.698
53708W        W18869   5.145  36.917  10.729
53709W        W18870  41.538  30.378  13.347
53710W        W18871  10.866  37.670   1.977
53711W        W18872  35.443  21.499  10.731
53712W        W18873  35.905  24.429  13.177
53713W        W18874  37.245  23.683  13.013
53714W        W18875   8.184   1.330  14.840
53715W        W18876  25.311  24.683   3.452
53716W        W18877  14.814  19.621   0.352
53717W        W18878  32.021  30.431   0.156
53718W        W18879  40.995  32.608   1.721
53719W        W18880   5.567  35.959  14.431
53720W        W18881  42.943  44.807   0.585
53721W        W18882   0.305  32.933  13.568
53722W        W18883  41.036  43.159  12.239
53723W        W18884  23.218  18.570  11.441
53724W        W18885   6.944  14.579   2.201
53725W        W18886  43.948  27.888  10.966
53726W        W18887   5.724  33.989  12.630
53727W        W18888  44.293  19.781   2.777
53728W        W18889  43.406  40.748   5.382
53729W        W18890   0.644   2.725   2.355
53730W        W18891  33.833  32.077   0.368
53731W        W18892  40.202  43.358  12.374
53732W        W18893  13.302  36.815  12.409
53733W        W18894   7.325  12.681  14.424
53734W        W18895   7.421   9.915  11.192
53735W        W18896  25.057  11.918  14.151
53736W        W18897  22.574  37.607  13.581
53737W        W18898  12.832  27.164  11.676
53738W        W18899  20.243  13.242   0.354
53739W        W18900  41.815  34.427   3.877
53740W        W18901  20.222  42.802  14.344
53741W        W18902   0.836  35.921  14.562
53742W        W18903  13.634  39.043  10.608
53743W        W18904  34.404  18.594  14.803
53744W        W18905   7.681   9.758   3.812
53745W        W18906   8.801  13.752   3.182
53746W        W18907   4.926  39.107   3.727
53747W        W18908  33.885  25.037  12.919
53748W        W18909  35.071  42.462   0.493
53749W        W18910  20.233  32.168   2.327
53750W        W18911  41.445   9.420   0.345
53751W        W18912  21.842  25.232   3.635
53752W        W18913  24.315  32.909  14.010
53753W        W18914   5.390  33.404   2.857
53754W        W18915  21.688  40.352   5.028
53755W        W18916  27.371  12.885   3.124
53756W        W18917   9.204  27.981   2.822
53757W        W18918  28.596  28.494  12.567
53758W        W18919   8.159  41.010   1.416
53759W        W18920   7.121   5.296  12.418
53760W        W18921  13.275  37.344  14.742
53761W        W18922  25.726  12.074   4.116
53762W        W18923   8.688  20.433  14.968
53763W        W18924  39.785  40.107  13.921
53764W        W18925  10.940  19.306  14.326
53765W        W18926  30.424  10.756  12.354
53766W        W18927  10.111  35.390  13.393
53767W        W18928  23.671   5.745  14.385
53768W        W18929  20.692  12.353  11.165
53769W        W18930  15.795  43.945  11.074
53770W        W18931  44.806  25.456  11.519
53771W        W18932   3.219  11.212   3.852
53772W        W18933  13.879  17.796  14.893
53773W        W18934   1.814  13.681  13.094
53774W        W18935  20.799  34.749   4.570
53775W        W18936  27.129   1.978  10.723
53776W        W18937  37.796  13.690  14.050
53777W        W18938   3.766  33.895  10.742
53778W        W18939   4.970  30.948  13.972
53779W        W18940  25.223  22.584   0.247
53780W        W18941  10.035  24.225   2.809
53781W        W18942  20.330  28.518  14.354
53782W        W18943  14.174  21.054   2.782
53783W        W18944  22.073  35.456  10.495
53784W        W18945   3.915  41.686   0.576
53785W        W18946  12.741  26.880   2.659
53786W        W18947  34.001  28.734   1.362
53787W        W18948  42.891   0.261   3.776
53788W        W18949  37.312  37.444  12.069
53789W        W18950   9.335   8.686  10.332
53790W        W18951   6.861  38.353   0.993
53791W        W18952  18.652  31.628  10.979
53792W        W18953  40.552  28.922  11.264
53793W        W18954  33.976   5.335  10.442
53794W        W18955  28.739  26.490  12.868
53795W        W18956  42.977  35.250   3.540
53796W        W18957  36.431  30.566  10.848
53797W        W18958  28.957  39.374   3.260
53798W        W18959  20.694  40.275  12.987
53799W        W18960  10.935  21.154   1.758
53800W        W18961   3.655   1.710   0.317
53801W        W18962   5.646  18.053   0.182
53802W        W18963  27.386  36.503  10.798
53803W        W18964  18.819  11.320   2.230
53804W        W18965  37.696  29.625   0.310
53805W        W18966  25.969  28.595  14.235
53806W        W18967  18.170  14.565   5.052
53807W        W18968   3.822   1.850   2.520
53808W        W18969  42.940  37.821  14.998
53809W        W18970  22.584   1.688   3.748
53810W        W18971  17.775  44.801   1.074
53811W        W18972  10.661  31.466  10.805
53812W        W18973  17.141  14.413   0.311
53813W        W18974  24.482  22.160  12.937
53814W        W18975  28.940   6.822   4.001
53815W        W18976  19.561  29.557  13.814
53816W        W18977  16.753  25.448   1.228
53817W        W18978  34.345  37.582  13.560
53818W        W18979  27.122   9.382  14.860
53819W        W18980  26.497  10.699  11.860
53820W        W18981  15.827   9.906  13.630
53821W        W18982   9.798  20.697   3.549
53822W        W18983  41.876  32.041   4.234
53823W        W18984  42.489   9.164  13.802
53824W        W18985  19.096  18.090   5.082
53825W        W18986  42.380  24.546  14.640
53826W        W18987  11.220  32.463   1.389
53827W        W18988  32.312  29.939  12.530
53828W        W18989  30.287   2.182  12.071
53829W        W18990  38.888  23.679   3.820
53830W        W18991  25.193  33.245   5.144
53831W        W18992  34.093  27.393  13.042
53832W        W18993  16.781  43.375   3.611
53833W        W18994   9.455  10.279   2.861
53834W        W18995  44.749  30.113  12.969
53835W        W18996   0.883  22.278  12.471
53836W        W18997   8.813  33.859   3.478
53837W        W18998   8.222   1.540  13.089
53838W        W18999  15.733  36.995   0.376
53839W        W19000  23.479  13.620  10.745
53840W        W19001   1.043  11.207  14.992
53841W        W19002  34.009  21.004   1.346
53842W        W19003  37.050  22.967   4.108
53843W        W19004  42.266   5.610   3.664
53844W        W19005  19.187  35.309  11.143
53845W        W19006   5.134  14.204  14.496
53846W        W19007  27.180  37.537   3.619
53847W        W19008   3.297  20.012   1.737
53848W        W19009  40.780  21.761   2.240
53849W        W19010  11.096  16.544  12.901
53850W        W19011   9.209  37.381  14.916
53851W        W19012  21.280  44.207   3.725
53852W        W19013  41.836   6.823  10.382
53853W        W19014  10.166  42.548  11.151
53854W        W19015  18.273  36.036  13.367
53855W        W19016  26.112   2.370  12.811
53856W        W19017  35.109   2.370  12.691
53857W        W19018   4.387  36.517  14.958
53858W        W19019  14.082  22.059  11.287
53859W        W19020  34.087  33.954   2.969
53860W        W19021  24.317  41.540   3.609
53861W        W19022  29.921  25.536   2.061
53862W        W19023  31.587   3.803   4.751
53863W        W19024  32.893  37.372   3.409
53864W        W19025  19.654   7.681   0.342
53865W        W19026  44.128  33.584   2.154
53866W        W19027  21.062  31.417  10.711
53867W        W19028  23.112  28.192   4.355
53868W        W19029   0.851  25.472   2.203
53869W        W19030   3.012  18.550  14.471
53870W        W19031   3.673  42.540  14.453
53871W        W19032   5.453  33.579  12.815
53872W        W19033  28.119  38.009  13.885
53873W        W19034   0.733  34.822   3.883
53874W        W19035  27.065   1.077  12.366
53875W        W19036  12.686  29.615   0.884
53876W        W19037  23.081   1.727  14.760
53877W        W19038  23.558  26.963   0.191
53878W        W19039  36.060  26.901  14.762
53879W        W19040  22.319  13.259  14.312
53880W        W19041  27.673  20.041   0.025
53881W        W19042  34.831  30.548   2.434
53882W        W19043  33.674  38.735  13.923
53883W        W19044  11.834   8.460  12.562
53884W        W19045  11.645  12.840   2.204
53885W        W19046  16.132  41.488   3.249
53886W        W19047  13.288   5.738   3.104
53887W        W19048  25.646  32.881  14.762
53888W        W19049   1.186  21.166  10.618
53889W        W19050  43.779   1.921   1.080
53890W        W19051  28.621  33.064   1.021
53891W        W19052  25.166   0.500   0.702
53892W        W19053  31.282   3.311  11.204
53893W        W19054  34.009  41.940   2.840
53894W        W19055  18.051  30.639   4.567
53895W        W19056  38.767  25.257  12.030
53896W        W19057  24.419  20.730  12.201
53897W        W19058  12.331   3.369  12.032
53898W        W19059  37.617  10.278  11.133
53899W        W19060  17.348  37.174  11.093
53900W        W19061  17.496  10.050  14.294
53901W        W19062  33.161   8.977   3.054
53902W        W19063  41.186   1.496   4.246
53903W        W19064  18.236   0.144   4.164
53904W        W19065   5.243  37.296  10.383
53905W        W19066  44.338  35.324   1.957
53906W        W19067  12.745  26.032   4.544
53907W        W19068  12.100  10.658  13.196
53908W        W19069  30.670  22.509  13.077
53909W        W19070   8.189  15.217   2.489
53910W        W19071  19.826  32.704   1.108
53911W        W19072  11.918  38.277  14.948
53912W        W19073   1.959  12.555  14.245
53913W        W19074  39.552  23.650  14.749
53914W        W19075  15.217  31.840   3.683
53915W        W19076  17.120   6.148  11.990
53916W        W19077  19.189  42.776  13.390
53917W        W19078   3.834  22.404  14.071
53918W        W19079   9.923  37.144  11.507
53919W        W19080  16.623  22.036  12.866
53920W        W19081  19.562  42.996   3.169
53921W        W19082  19.182   3.747   1.935
53922W        W19083   6.227   7.239  10.736
53923W        W19084  14.779  22.441  13.012
53924W        W19085   4.584  36.429   0.913
53925W        W19086  39.968  15.453   3.606
53926W        W19087  23.649  13.005  12.088
53927W        W19088  11.723  28.421   1.034
53928W        W19089  29.782  44.998  11.571
53929W        W19090  17.667  17.797   4.721
53930W        W19091  21.197  34.038   2.922
53931W        W19092  22.182  25.165   2.179
53932W        W19093  21.320  20.898   1.853
53933W        W19094  17.146  22.057  12.847
53934W        W19095  27.423  36.080  13.387
53935W        W19096   7.752  18.023  10.732
53936W        W19097  11.081  37.072  13.141
53937W        W19098   7.967  22.616  13.780
53938W        W19099  27.063  37.599  14.806
53939W        W19100  25.327  29.352  11.754
53940W        W19101  42.891  31.573  11.043
53941W        W19102   1.285  27.694  14.168
53942W        W19103  35.844  41.852  13.411
53943W        W19104  30.145  42.312  12.773
53944W        W19105   2.220  35.892  11.268
53945W        W19106  44.409  23.044   1.686
53946W        W19107  25.033  44.335   1.146
53947W        W19108   2.310  43.852   0.236
53948W        W19109  18.588  13.255  11.519
53949W        W19110  35.849  19.624   0.808
53950W        W19111  16.781   4.651   4.523
53951W        W19112  15.506  14.168  13.541
53952W        W19113  34.544  15.455  10.392
53953W        W19114  39.419  20.506  14.515
53954W        W19115  33.442   8.258   0.337
53955W        W19116  31.902  44.930  10.787
53956W        W19117  11.875  33.206   2.317
53957W        W19118   2.886  32.373   3.664
53958W        W19119  22.295  34.217   1.418
53959W        W19120  27.543  37.778  11.269
53960W        W19121  25.097   2.565  10.886
53961W        W19122  25.122  32.847   1.855
53962W        W19123  39.330  13.019  11.988
53963W        W19124  31.618   6.292  13.117
53964W        W19125   8.859  21.791   0.306
53965W        W19126  26.417   9.667   9.813
53966W        W19127  26.416   4.208  11.310
53967W        W19128  23.710  13.682  14.903
53968W        W19129  39.933  44.969  14.472
53969W        W19130   8.150  21.663  12.471
53970W        W19131  24.913  20.829  11.109
53971W        W19132   5.833  18.530  11.866
53972W        W19133  30.362  22.946   0.843
53973W        W19134   1.054  41.136   2.660
53974W        W19135  28.067  17.852   1.274
53975W        W19136  29.641   9.811   4.612
53976W        W19137  28.419  38.572   0.488
53977W        W19138  23.092  35.181  11.113
53978W        W19139  21.751  37.906  13.912
53979W        W19140  17.653  23.062  14.628
53980W        W19141   5.183  21.656   2.945
53981W        W19142  17.613  15.057  11.131
53982W        W19143   2.855  17.313   4.578
53983W        W19144  17.774   8.755   2.810
53984W        W19145   4.926  36.137  10.752
53985W        W19146  16.181   0.954  14.895
53986W        W19147   8.015  21.427   5.181
53987W        W19148  30.039  18.688   2.993
53988W        W19149  14.144   0.478  12.108
53989W        W19150  12.559  11.667  14.347
53990W        W19151  14.116  33.492   0.696
53991W        W19152  36.618   8.963   3.229
53992W        W19153   2.406  26.259  12.074
53993W        W19154  18.974  13.758  13.346
53994W        W19155  21.752   2.598   2.094
53995W        W19156  17.913  19.152   1.777
53996W        W19157  26.076   1.356   2.850
53997W        W19158  24.173   5.924  14.235
53998W        W19159   7.848  39.851  14.888
53999W        W19160  11.215  40.304   0.851
54000W        W19161  42.687  14.439   0.946
54001W        W19162   7.796  10.331   4.644
54002W        W19163  35.485  10.192   3.122
54003W        W19164  42.506  13.386   3.684
54004W        W19165  27.071  23.318   9.924
54005W        W19166  24.650   6.318  10.461
54006W        W19167  32.036   3.152   4.684
54007W        W19168  24.083  26.594   1.392
54008W        W19169   5.881   1.429  12.940
54009W        W19170   4.925  38.347   0.991
54010W        W19171  24.983  29.433  10.512
54011W        W19172  26.149   3.038   3.763
54012W        W19173  32.846  28.656  14.330
54013W        W19174  33.877  19.597   1.389
54014W        W19175  21.533  38.814   1.809
54015W        W19176  13.824   6.654  12.254
54016W        W19177  26.518  43.056   4.323
54017W        W19178   3.273   6.384   2.143
54018W        W19179  17.287   8.128   3.170
54019W        W19180  38.321  44.346  12.735
54020W        W19181  11.446  15.166  11.550
54021W        W19182   9.870  30.452   0.432
54022W        W19183  21.804  11.706   1.351
54023W        W19184   3.470  28.178  13.884
54024W        W19185   8.526  15.255   4.724
54025W        W19186  44.388  16.118   3.856
54026W        W19187  41.993  19.209   4.104
54027W        W19188  43.423  17.270  13.403
54028W        W19189   4.903  22.047   3.168
54029W        W19190   0.155   9.300  11.502
54030W        W19191  10.285  13.252   2.468
54031W        W19192  27.779  31.033   1.708
54032W        W19193   5.834  23.964   4.384
54033W        W19194  37.913  32.497   2.335
54034W        W19195   5.421   0.493   1.889
54035W        W19196  19.466  26.466  10.669
54036W        W19197  44.107   4.697  13.073
54037W        W19198  40.009  11.231  14.456
54038W        W19199   7.703  21.253  13.436
54039W        W19200  13.678  24.420  14.298
54040W        W19201   2.337  11.336   1.623
54041W        W19202   1.399  11.758   0.827
54042W        W19203  23.251  42.527   0.315
54043W        W19204   5.684  10.717  12.041
54044W        W19205  33.990   2.751  14.894
54045W        W19206  27.826   2.691   1.871
54046W        W19207  20.268  36.643  12.799
54047W        W19208   1.352  18.591   4.841
54048W        W19209  14.872  32.155  12.368
54049W        W19210   2.073   9.749  10.727
54050W        W19211  18.895  17.594  13.833
54051W        W19212  41.258  13.777   1.295
54052W        W19213  28.124  31.595  10.686
54053W        W19214   7.726  34.535  14.893
54054W        W19215   1.823   3.243   2.370
54055W        W19216  33.929  32.400   4.105
54056W        W19217  29.093  34.323  11.457
54057W        W19218   8.904  21.555   1.296
54058W        W19219   9.167  18.558   1.235
54059W        W19220  37.260  13.610  12.956
54060W        W19221  28.646  22.701   3.661
54061W        W19222   6.805  25.680  12.878
54062W        W19223  28.849  20.518   2.244
54063W        W19224  33.369  13.705   0.271
54064W        W19225  12.123  29.961  10.733
54065W        W19226  10.091   4.306   4.774
54066W        W19227   5.699  16.182   4.077
54067W        W19228  22.767  42.351   3.833
54068W        W19229   7.352  25.612   5.011
54069W        W19230  25.043  21.404   1.302
54070W        W19231  37.758  14.858  13.848
54071W        W19232  11.790  31.947   5.078
54072W        W19233   7.164   5.885  14.482
54073W        W19234   8.007  44.313   4.136
54074W        W19235  18.178  31.851  14.921
54075W        W19236  31.046  20.743  10.728
54076W        W19237  22.700  12.475   4.016
54077W        W19238  43.378  22.626  11.557
54078W        W19239  42.425  28.659   0.735
54079W        W19240  21.190  34.675  14.779
54080W        W19241  16.705   6.756   0.648
54081W        W19242  26.900   6.528   1.944
54082W        W19243   7.685  19.256  14.056
54083W        W19244   1.777   9.774  13.637
54084W        W19245  10.816  35.011   3.693
54085W        W19246  37.670  39.559   0.890
54086W        W19247  35.411  37.100   1.692
54087W        W19248  14.086  19.092   0.165
54088W        W19249   1.917  38.036  14.628
54089W        W19250  32.896   3.717  11.533
54090W        W19251  16.817  26.688  13.150
54091W        W19252  23.206  42.926  10.599
54092W        W19253  36.976  22.348   1.288
54093W        W19254  17.881  22.160   4.534
54094W        W19255   7.458  30.659   3.124
54095W        W19256  19.300  41.129  11.730
54096W        W19257   3.031  35.180   2.274
54097W        W19258   2.819  15.218  13.631
54098W        W19259  26.839  19.563   0.421
54099W        W19260  32.232  44.532   2.503
54100W        W19261  11.355  36.783   2.879
54101W        W19262  14.241   2.689   2.964
54102W        W19263   6.763  29.682   2.348
54103W        W19264   9.184  29.694  14.511
54104W        W19265  10.078   8.914  11.052
54105W        W19266  16.123  22.860   1.725
54106W        W19267  32.490  35.845   0.420
54107W        W19268   3.343   2.742   1.693
54108W        W19269   9.349  36.477   0.008
54109W        W19270  30.050  21.943  10.295
54110W        W19271   3.808  18.018   2.418
54111W        W19272   7.196  30.579   2.689
54112W        W19273  44.413  32.801   1.455
54113W        W19274  22.535   9.118   1.209
54114W        W19275  18.715  30.202   0.545
54115W        W19276  29.640   1.652  13.371
54116W        W19277  25.219  14.745  12.105
54117W        W19278  39.037  10.552  13.395
54118W        W19279  15.790  27.088  14.176
54119W        W19280   6.162   4.485   3.852
54120W        W19281   0.506  22.248  11.220
54121W        W19282  41.938  38.290  11.297
54122W        W19283  35.642  35.912  13.881
54123W        W19284  20.407  29.592   2.425
54124W        W19285   0.075  31.651   5.254
54125W        W19286   7.138  21.071   3.250
54126W        W19287  30.395  41.463  14.310
54127W        W19288   7.153  37.529   3.147
54128W        W19289  40.953  36.765   2.342
54129W        W19290  29.514  39.564   3.654
54130W        W19291  40.684  12.971  12.475
54131W        W19292   9.833   1.337   2.734
54132W        W19293  35.324   5.584   1.919
54133W        W19294  40.776  39.489  12.489
54134W        W19295   2.145   8.289  14.180
54135W        W19296   6.766   5.323  11.557
54136W        W19297  24.467  24.127   0.859
54137W        W19298  23.106  25.997  14.540
54138W        W19299  14.531  21.796  13.697
54139W        W19300   2.790  29.760   4.097
54140W        W19301   4.941  16.527   1.754
54141W        W19302  11.180  17.115  11.224
54142W        W19303  12.664  22.939  14.692
54143W        W19304  28.628  24.271  13.858
54144W        W19305  28.696  32.918  12.193
54145W        W19306  13.309  22.307  12.912
54146W        W19307   3.138  34.650  12.166
54147W        W19308  25.476   2.957   0.309
54148W        W19309  28.719  24.631  12.484
54149W        W19310  14.518   2.383   1.911
54150W        W19311   7.100  12.699   4.480
54151W        W19312  19.903  37.093   1.370
54152W        W19313   5.526  31.496   0.759
54153W        W19314   7.193  22.096   2.219
54154W        W19315  39.786  23.292   0.406
54155W        W19316  39.236  39.739   2.459
54156W        W19317  25.921   4.846  11.888
54157W        W19318  30.565  11.519   3.269
54158W        W19319  29.949  28.052   3.986
54159W        W19320  20.497  17.001  14.272
54160W        W19321  40.637  30.516  10.766
54161W        W19322   0.801  39.329   3.775
54162W        W19323  30.848  21.892  12.567
54163W        W19324  43.953  21.620  10.868
54164W        W19325  19.683  21.971   9.536
54165W        W19326  15.771   0.351  13.022
54166W        W19327   5.555   8.974  14.356
54167W        W19328   8.015  44.948  10.695
54168W        W19329  23.457  34.455  13.305
54169W        W19330  16.902  43.465  11.443
54170W        W19331  17.530  28.293  13.309
54171W        W19332  41.419   1.090  11.581
54172W        W19333  26.402  12.717  14.340
54173W        W19334  17.465  43.494  11.979
54174W        W19335  17.127  42.528  10.066
54175W        W19336   9.800  36.715  14.315
54176W        W19337  25.485  28.602  12.003
54177W        W19338  32.914  17.301  13.015
54178W        W19339  40.989   2.001   2.301
54179W        W19340  13.777  15.042  13.926
54180W        W19341  39.021  32.492  12.120
54181W        W19342  21.104  16.236   9.875
54182W        W19343  35.290  22.198  14.302
54183W        W19344  37.003  18.120   1.626
54184W        W19345  14.876  20.826   2.379
54185W        W19346  33.442   1.451   3.435
54186W        W19347  35.982  41.591   1.220
54187W        W19348   7.343  37.521   1.426
54188W        W19349  19.810  25.682  12.511
54189W        W19350   9.491  20.138  14.026
54190W        W19351  11.078  33.644  12.192
54191W        W19352  13.995  39.420  10.249
54192W        W19353   7.659  29.943  11.127
54193W        W19354  44.322  40.979   2.928
54194W        W19355   3.616  20.497  14.482
54195W        W19356   3.027  37.354  14.313
54196W        W19357   7.497  43.302   0.761
54197W        W19358  25.693  16.076   2.125
54198W        W19359  37.930  38.360  13.378
54199W        W19360  21.514  39.044   5.280
54200W        W19361  37.517  22.474   0.025
54201W        W19362   1.329  17.904  10.244
54202W        W19363  42.365   6.594  12.192
54203W        W19364  25.613  29.211   4.011
54204W        W19365  37.310  17.785  10.752
54205W        W19366  17.706   6.258   4.964
54206W        W19367  43.011  33.257   2.688
54207W        W19368  39.445  35.782   2.817
54208W        W19369  44.116   0.418  13.859
54209W        W19370  19.031  33.980   2.642
54210W        W19371  29.568  41.416  12.673
54211W        W19372  28.105  40.409   3.222
54212W        W19373   3.927  25.098  11.588
54213W        W19374  12.765   1.933  10.408
54214W        W19375  24.916  19.633   1.266
54215W        W19376  21.508   0.646  12.881
54216W        W19377  36.786  33.960  14.950
54217W        W19378  30.113   5.840   4.773
54218W        W19379  14.606  16.560  10.398
54219W        W19380   4.211  38.022   3.444
54220W        W19381  14.643  29.822  11.580
54221W        W19382  15.188  16.872  11.907
54222W        W19383  11.281  19.571   2.744
54223W        W19384  10.424   1.420   2.328
54224W        W19385   8.762  36.575   4.515
54225W        W19386  39.124  27.238  14.303
54226W        W19387   2.566   7.823   1.415
54227W        W19388   3.313  23.246   3.983
54228W        W19389  40.300  33.888  11.440
54229W        W19390   4.398  15.686  10.338
54230W        W19391  15.644   2.704   1.895
54231W        W19392   9.830  22.196  13.976
54232W        W19393   0.138  34.506  11.602
54233W        W19394  34.510   2.176   0.239
54234W        W19395  31.645  25.347  14.981
54235W        W19396  19.025  29.401   0.810
54236W        W19397  31.659  18.825   1.213
54237W        W19398  33.945   4.405  11.068
54238W        W19399  26.271  38.334  12.377
54239W        W19400  27.765  42.653   1.343
54240W        W19401   9.877  35.981   3.922
54241W        W19402  32.953  19.050   4.354
54242W        W19403   0.729  17.304  13.917
54243W        W19404  30.534  14.043   4.192
54244W        W19405  16.395  13.233  12.748
54245W        W19406  18.591  17.210  13.997
54246W        W19407  21.199   0.665  13.519
54247W        W19408  17.062  17.104   0.408
54248W        W19409  10.725  31.411   0.664
54249W        W19410  15.451   0.316  14.963
54250W        W19411  26.626   2.857   4.641
54251W        W19412   1.884  16.080  11.971
54252W        W19413  12.642  30.681   4.087
54253W        W19414  23.730  29.352  12.497
54254W        W19415   0.012   5.623  10.943
54255W        W19416   2.891  30.602  13.367
54256W        W19417  44.593   3.063   3.261
54257W        W19418  18.318   8.498   2.345
54258W        W19419  31.946  11.659  10.209
54259W        W19420  44.930   8.678  11.157
54260W        W19421   3.211  24.626  13.007
54261W        W19422  23.906   2.217   0.397
54262W        W19423  29.531  18.700   3.863
54263W        W19424  28.990  32.154  13.378
54264W        W19425  27.751  23.118   3.218
54265W        W19426  19.787  21.224  10.704
54266W        W19427  29.292  24.649  11.353
54267W        W19428  41.571  29.799  11.203
54268W        W19429  11.545  25.293  14.283
54269W        W19430   6.746  40.606   1.372
54270W        W19431   0.582   5.169   2.812
54271W        W19432  11.867  14.387  13.860
54272W        W19433  42.853  30.110  12.552
54273W        W19434  27.793  34.495   3.348
54274W        W19435  20.294  40.037  11.521
54275W        W19436  42.043  40.020  11.970
54276W        W19437  39.556  33.491   2.809
54277W        W19438   9.902  44.473  11.531
54278W        W19439  24.605  20.691   0.962
54279W        W19440  32.493  36.702  14.786
54280W        W19441  39.796  16.557  13.456
54281W        W19442   9.577  32.952   3.711
54282W        W19443   0.968  16.752   1.943
54283W        W19444  19.156   9.814   1.674
54284W        W19445   6.080  34.581  11.307
54285W        W19446  13.679  39.080   3.759
54286W        W19447  17.483   5.856  13.856
54287W        W19448  40.718   6.744  10.714
54288W        W19449  38.540  43.816  11.548
54289W        W19450  39.547  24.134  14.902
54290W        W19451   9.681  14.072  10.710
54291W        W19452  16.259  29.542   4.085
54292W        W19453  21.125  28.981  11.427
54293W        W19454   8.149  18.235   3.673
54294W        W19455   2.813  42.513   3.789
54295W        W19456   9.798  16.204   1.481
54296W        W19457  23.663   7.307  10.655
54297W        W19458  22.293  32.575   0.941
54298W        W19459   8.818  23.110  13.801
54299W        W19460  37.447  17.737   1.751
54300W        W19461  40.485  24.491  14.418
54301W        W19462  33.127  18.315  10.748
54302W        W19463  12.859  35.336   1.627
54303W        W19464   6.950  35.856   4.601
54304W        W19465  26.834   6.663   0.002
54305W        W19466   3.908  32.380   1.738
54306W        W19467  26.936   8.772  11.500
54307W        W19468  20.848  13.330  12.486
54308W        W19469  43.711  34.994   2.549
54309W        W19470  36.498  30.005   0.491
54310W        W19471  34.126  12.761   1.795
54311W        W19472   1.928  28.931   2.558
54312W        W19473   0.130  18.455   2.392
54313W        W19474  12.683  29.132   1.296
54314W        W19475   7.381   2.294   3.113
54315W        W19476  25.230  41.719   1.307
54316W        W19477  30.448  37.913  13.742
54317W        W19478  39.553  16.106  11.235
54318W        W19479  35.802   6.829   2.004
54319W        W19480  38.948  24.012   0.711
54320W        W19481  22.189  27.019  11.927
54321W        W19482  13.659  15.770   1.342
54322W        W19483   9.873  14.397  12.824
54323W        W19484  29.809   1.822   1.889
54324W        W19485  15.824  44.536  12.142
54325W        W19486  29.862  33.610  13.844
54326W        W19487  20.971  18.502  13.925
54327W        W19488  14.637  19.119  11.352
54328W        W19489  37.931  39.929  14.432
54329W        W19490  16.174  44.307   2.201
54330W        W19491  27.929  20.428   2.198
54331W        W19492   3.293   0.871   1.420
54332W        W19493  29.459   1.478   2.074
54333W        W19494  22.473  42.743   3.621
54334W        W19495  43.049  40.607  13.390
54335W        W19496  34.998   3.867  11.048
54336W        W19497  17.000  24.168   1.644
54337W        W19498  41.909  28.187   1.214
54338W        W19499  33.072  34.302  14.912
54339W        W19500  23.591  44.802  12.076
54340W        W19501  40.475   1.353   3.299
54341W        W19502  15.204  15.632  13.976
54342W        W19503  16.552  18.034   3.434
54343W        W19504  32.829  20.115   4.714
54344W        W19505  18.825  15.320   5.016
54345W        W19506  13.356  20.829   3.338
54346W        W19507  31.388  25.488   5.437
54347W        W19508  31.196  20.776  13.136
54348W        W19509  40.487  38.765   0.385
54349W        W19510  24.673  16.022  11.999
54350W        W19511   7.616  21.675  13.804
54351W        W19512  17.034  37.829   3.783
54352W        W19513  44.231  33.973  14.779
54353W        W19514  36.640  21.958   1.385
54354W        W19515  11.604   0.498   3.697
54355W        W19516  25.936  19.706  11.036
54356W        W19517  13.914  29.139   0.921
54357W        W19518   3.278  42.864  12.042
54358W        W19519  27.992  23.516   0.788
54359W        W19520   3.173  12.098   2.431
54360W        W19521   2.229  17.905   1.216
54361W        W19522  19.006   1.956  11.735
54362W        W19523  17.208  42.544  11.003
54363W        W19524  26.428   4.390  10.351
54364W        W19525  37.225   8.639   2.721
54365W        W19526   8.366   4.456   0.656
54366W        W19527   1.816  23.697   1.439
54367W        W19528  11.281  11.318  13.296
54368W        W19529  11.199  12.589  12.912
54369W        W19530  22.414  35.018  12.790
54370W        W19531   0.687  30.905  10.742
54371W        W19532   2.827  32.062   3.250
54372W        W19533  26.430   4.636   4.016
54373W        W19534  40.895  17.686   3.729
54374W        W19535  37.315  14.439   2.186
54375W        W19536   4.907   1.318   0.797
54376W        W19537  36.076  37.540  10.292
54377W        W19538  11.431  10.174   3.174
54378W        W19539  16.992  28.196   4.954
54379W        W19540  12.342  43.961  10.644
54380W        W19541  44.426  19.225   2.390
54381W        W19542  33.334  13.609  11.321
54382W        W19543   2.880  40.909  13.381
54383W        W19544   9.659  11.369  14.869
54384W        W19545   9.871   1.032  11.427
54385W        W19546   3.351  26.559   1.898
54386W        W19547  10.190  24.785   2.824
54387W        W19548   7.848   3.279   5.019
54388W        W19549  39.168  15.448   2.201
54389W        W19550  15.025  21.166   5.005
54390W        W19551  41.810  35.498  13.771
54391W        W19552  36.402  24.016   1.337
54392W        W19553  20.001  23.138   0.558
54393W        W19554  39.887  32.625  14.277
54394W        W19555  18.988  21.097   3.634
54395W        W19556   3.278   1.038  12.053
54396W        W19557  20.631  12.384   1.651
54397W        W19558   7.933  39.452  12.855
54398W        W19559  43.607  42.871  14.353
54399W        W19560  44.353  34.548  12.493
54400W        W19561  23.209  39.626  12.349
54401W        W19562  35.540   6.244   2.763
54402W        W19563  16.538  27.440  12.585
54403W        W19564   5.182  42.379   0.229
54404W        W19565  22.269   7.402  10.558
54405W        W19566  11.812  16.635   0.510
54406W        W19567   8.806  15.266  14.460
54407W        W19568  29.557   9.139  13.238
54408W        W19569  31.615  10.002  11.131
54409W        W19570  28.392  41.489   4.104
54410W        W19571  17.103   7.242   1.266
54411W        W19572   3.050  36.432  13.520
54412W        W19573  23.859  11.151  11.636
54413W        W19574  43.819  29.013  13.323
54414W        W19575  42.486  23.035   2.645
54415W        W19576   6.001  23.295   3.690
54416W        W19577   6.727  11.279  14.268
54417W        W19578  20.034   5.972  10.698
54418W        W19579  38.426  42.372  12.908
54419W        W19580  42.965  19.294   4.305
54420W        W19581  41.931  34.345  13.529
54421W        W19582  13.348  44.520  14.754
54422W        W19583  40.573  24.575   0.307
54423W        W19584   0.044  41.135  11.607
54424W        W19585  11.767  15.207  14.363
54425W        W19586  22.718  35.630   0.536
54426W        W19587  43.413  21.643  11.613
54427W        W19588  43.379  18.289  13.339
54428W        W19589  43.907  38.768  14.303
54429W        W19590  20.559   2.390   1.371
54430W        W19591  33.444  16.247  14.341
54431W        W19592  19.052  13.384  10.791
54432W        W19593   5.301   2.217   4.797
54433W        W19594  31.240  21.807  14.252
54434W        W19595   0.473  35.486  11.522
54435W        W19596  41.024  36.500  10.996
54436W        W19597  35.591  10.958   0.500
54437W        W19598  24.290   7.371   2.691
54438W        W19599  25.880  13.081   3.153
54439W        W19600  14.736  44.263  12.899
54440W        W19601  38.303  29.903   1.265
54441W        W19602  39.622  13.994  14.365
54442W        W19603  32.543  18.276  11.163
54443W        W19604  30.550   1.991   3.656
54444W        W19605  41.244  23.381  12.202
54445W        W19606  42.464  10.907   4.320
54446W        W19607   0.331  31.612  13.353
54447W        W19608   7.811  32.457   3.076
54448W        W19609  43.755  26.158  12.814
54449W        W19610   7.661  30.071  13.622
54450W        W19611  31.448  44.642  13.126
54451W        W19612  22.230  33.306  12.522
54452W        W19613  38.471  32.140  10.740
54453W        W19614  35.420  32.601   2.686
54454W        W19615  26.049   2.765  11.655
54455W        W19616   1.382  27.221  10.667
54456W        W19617  13.765  14.426   2.313
54457W        W19618   9.446   4.269  13.105
54458W        W19619   8.784   4.224   1.947
54459W        W19620  34.373   3.495   4.902
54460W        W19621  44.708  11.266  13.491
54461W        W19622  42.140  22.753  12.040
54462W        W19623   1.702  31.929  13.521
54463W        W19624  12.817  33.732  14.853
54464W        W19625  17.891  17.796   0.660
54465W        W19626  43.906   9.657  13.840
54466W        W19627  37.740  19.230   4.210
54467W        W19628  22.300  30.238   0.872
54468W        W19629  17.086   2.298  13.305
54469W        W19630  33.656  33.810  14.090
54470W        W19631  27.040  31.760  14.755
54471W        W19632  39.811  28.133  12.649
54472W        W19633  27.220  20.803  11.037
54473W        W19634   2.182  41.282  14.307
54474W        W19635  18.498  15.220  13.912
54475W        W19636   1.977   5.951  11.080
54476W        W19637  15.037  27.983   2.696
54477W        W19638  23.436  27.151   2.094
54478W        W19639   9.706   2.285   3.223
54479W        W19640  43.726   4.365  12.401
54480W        W19641  30.000  14.040   2.402
54481W        W19642   3.276  21.426  13.450
54482W        W19643   1.347  20.421  13.443
54483W        W19644   6.667  40.080   2.822
54484W        W19645  24.254  16.196  10.693
54485W        W19646  14.265  14.673   0.704
54486W        W19647  13.432  30.318   1.335
54487W        W19648  19.473   3.922   1.196
54488W        W19649  28.117  26.158   9.960
54489W        W19650   4.594  11.394  14.556
54490W        W19651  20.241  16.718   3.157
54491W        W19652  38.046  33.013   3.159
54492W        W19653  11.799  27.830  11.366
54493W        W19654  37.724  35.933  13.160
54494W        W19655  25.147  41.081   3.588
54495W        W19656  15.655  38.933   0.824
54496W        W19657  21.891   6.138  12.613
54497W        W19658   3.439  30.633   1.753
54498W        W19659  26.480  26.751   4.661
54499W        W19660  38.348   1.277   1.015
54500W        W19661  21.718  10.824  11.178
54501W        W19662  41.648  44.874   0.605
54502W        W19663  41.479   2.204  14.898
54503W        W19664  35.995  42.156   4.059
54504W        W19665  15.715  35.821   4.355
54505W        W19666   0.366  26.676  11.640
54506W        W19667  32.131  12.644  13.407
54507W        W19668  22.217   4.682  13.975
54508W        W19669  20.348  11.229  14.738
54509W        W19670  32.539   7.117   0.722
54510W        W19671  43.099   0.915  12.623
54511W        W19672   2.746  29.142   0.320
54512W        W19673   6.021  32.415  12.468
54513W        W19674  22.415  35.451   3.253
54514W        W19675  29.419  11.427  12.855
54515W        W19676  35.899  38.247  14.920
54516W        W19677  25.497  36.017  14.470
54517W        W19678   9.390  10.678  13.399
54518W        W19679  32.106   6.149  13.374
54519W        W19680  18.125  18.639  13.470
54520W        W19681  16.557  35.156   1.205
54521W        W19682   0.026   4.551  12.920
54522W        W19683   3.040   8.625  14.357
54523W        W19684  14.448  21.648  12.378
54524W        W19685   2.412   1.213  10.426
54525W        W19686  16.356  38.139  12.593
54526W        W19687  32.893  33.345  14.026
54527W        W19688   9.833  17.596  12.067
54528W        W19689  33.430  37.396   3.037
54529W        W19690  25.211  19.111   4.121
54530W        W19691  24.449  36.622   4.021
54531W        W19692   1.560  23.767   3.245
54532W        W19693  19.379  33.655   4.086
54533W        W19694   3.947   6.912  10.362
54534W        W19695  15.701  16.494   4.275
54535W        W19696  15.353  25.150   0.979
54536W        W19697  40.747  23.438  12.642
54537W        W19698  41.791   3.761  10.909
54538W        W19699  37.956  17.565   1.986
54539W        W19700  26.707   0.827   3.273
54540W        W19701  16.281  17.001  14.927
54541W        W19702  25.087  14.035   3.931
54542W        W19703  19.339  44.311  11.848
54543W        W19704  43.137   5.210   1.898
54544W        W19705  35.625  41.649  11.131
54545W        W19706  14.305   7.408   2.271
54546W        W19707  34.581  14.869   3.054
54547W        W19708  28.425   4.008  12.627
54548W        W19709  37.532   5.811  10.663
54549W        W19710   8.869  11.090   2.273
54550W        W19711   3.795  17.783  14.142
54551W        W19712  37.021  28.076   1.909
54552W        W19713   0.821  42.782   1.649
54553W        W19714  21.016  43.204  12.453
54554W        W19715  24.535   7.687  14.011
54555W        W19716   3.756   6.107  13.474
54556W        W19717   4.742  16.384  14.055
54557W        W19718  22.951  38.321   2.420
54558W        W19719   4.750  32.614   1.006
54559W        W19720  19.336  31.917   1.007
54560W        W19721  40.324  11.120  11.773
54561W        W19722  15.412  31.039   4.172
54562W        W19723  25.953  35.960  14.221
54563W        W19724   1.022   9.893   1.833
54564W        W19725  19.346  44.014   9.690
54565W        W19726   8.957  39.826   3.601
54566W        W19727  22.684  42.766   4.628
54567W        W19728  34.471   5.192  12.932
54568W        W19729   0.523  41.824  12.432
54569W        W19730  41.056   2.702   1.841
54570W        W19731  30.153  10.405   0.347
54571W        W19732  32.534  25.461   2.686
54572W        W19733  22.631  21.563  12.850
54573W        W19734  43.153  14.727  12.327
54574W        W19735   0.844  42.272   1.395
54575W        W19736  32.459  28.530  10.643
54576W        W19737   5.245  40.900   1.841
54577W        W19738  17.329  34.329   1.958
54578W        W19739   5.113  33.595   2.464
54579W        W19740   3.618  24.985   4.032
54580W        W19741  11.483  17.199   3.587
54581W        W19742  16.970  32.568   1.820
54582W        W19743  41.626  33.153  11.555
54583W        W19744  23.090  42.508  14.790
54584W        W19745   9.239  40.512  10.599
54585W        W19746  17.409  23.108  14.125
54586W        W19747  29.921   1.418   3.271
54587W        W19748  13.518  13.731   0.874
54588W        W19749  12.723  35.569  13.283
54589W        W19750   2.677  35.614  11.109
54590W        W19751  28.118   8.171  14.738
54591W        W19752  14.370   2.092   0.261
54592W        W19753  30.165  20.514  12.830
54593W        W19754   5.557  28.110  10.776
54594W        W19755  41.251  17.528  10.965
54595W        W19756  41.808   1.819  14.642
54596W        W19757  38.468  31.635   2.138
54597W        W19758   6.726  41.406   3.342
54598W        W19759  41.887  39.212  10.184
54599W        W19760   9.239  17.586  13.641
54600W        W19761  36.156  24.161   0.810
54601W        W19762  41.166  18.746  13.469
54602W        W19763  44.546   5.592   1.582
54603W        W19764  12.230  25.786  10.438
54604W        W19765  22.619   6.161  10.932
54605W        W19766  34.140  22.305   4.100
54606W        W19767  29.701  36.872   1.727
54607W        W19768  27.066  28.706  12.505
54608W        W19769  14.842  44.470  11.147
54609W        W19770  38.328  22.141   0.334
54610W        W19771  13.113   2.163  11.634
54611W        W19772  15.687   4.783   3.716
54612W        W19773  30.758   0.230   1.210
54613W        W19774  25.566  14.077   0.867
54614W        W19775  19.365  22.303   4.326
54615W        W19776  23.070   9.717  12.230
54616W        W19777  40.910  12.125  14.292
54617W        W19778   5.206   0.254   2.306
54618W        W19779  28.950  28.221  11.941
54619W        W19780  16.609  35.304  13.777
54620W        W19781  35.460  24.421   3.777
54621W        W19782   6.892  32.894   3.162
54622W        W19783   5.453  30.556   4.110
54623W        W19784  35.219  37.990   4.434
54624W        W19785  38.283   9.688  12.507
54625W        W19786  35.836  18.669  13.650
54626W        W19787  31.633   5.905  13.487
54627W        W19788  40.122  28.465   2.967
54628W        W19789  22.585  42.496  12.020
54629W        W19790  19.639  17.049  12.483
54630W        W19791  16.637  31.083  12.155
54631W        W19792  16.671  33.666  14.514
54632W        W19793   5.149  23.205   4.185
54633W        W19794  25.188  41.504   0.248
54634W        W19795  11.816  26.533   0.540
54635W        W19796   7.274  18.680  12.868
54636W        W19797  12.685  21.468  14.791
54637W        W19798  25.183   8.803   4.101
54638W        W19799   2.496  37.856   2.307
54639W        W19800  12.824  32.122   3.166
54640W        W19801  20.650  29.365  13.589
54641W        W19802   4.642  29.623   4.237
54642W        W19803  12.122   9.515  11.573
54643W        W19804   7.811  11.918  11.249
54644W        W19805   6.929  24.936  12.955
54645W        W19806  31.436  29.442   4.197
54646W        W19807  17.285   6.904   4.698
54647W        W19808  27.687  35.581  12.520
54648W        W19809  28.528  33.091   1.591
54649W        W19810  37.855  42.054  14.122
54650W        W19811  24.083  32.061   0.875
54651W        W19812  23.167  26.579   1.901
54652W        W19813   4.258  41.701   2.297
54653W        W19814  39.402  24.714   4.345
54654W        W19815  12.425  11.727   3.718
54655W        W19816  18.466  13.827  13.415
54656W        W19817  21.386  32.644   0.045
54657W        W19818  14.084  18.693  12.098
54658W        W19819   6.306  32.547   3.852
54659W        W19820  34.124   1.963  13.043
54660W        W19821  43.630   0.941  12.740
54661W        W19822  17.195  24.867  11.033
54662W        W19823  13.150  31.992   4.517
54663W        W19824  27.420  17.910   3.524
54664W        W19825   3.833  21.007   0.342
54665W        W19826   2.000  12.407   1.769
54666W        W19827  23.543  15.920   2.568
54667W        W19828  34.476  41.432   0.759
54668W        W19829  41.598   7.127  12.101
54669W        W19830  20.496  41.697  14.512
54670W        W19831  44.212  40.958  14.272
54671W        W19832  44.869  38.444   2.697
54672W        W19833  38.401  20.013   3.396
54673W        W19834  37.796  34.892   1.309
54674W        W19835  15.397  36.225  14.999
54675W        W19836  24.469  17.166  10.865
54676W        W19837   4.380  18.074   0.707
54677W        W19838  40.999  17.696  13.740
54678W        W19839  15.208  26.441  11.408
54679W        W19840   5.805  17.574   4.147
54680W        W19841  27.172  40.269   3.733
54681W        W19842   7.414  11.732  10.997
54682W        W19843  26.981  23.227  12.010
54683W        W19844   2.385   4.377   3.991
54684W        W19845  11.643  18.127   0.416
54685W        W19846   9.425  15.702   4.160
54686W        W19847   6.748   0.654   3.387
54687W        W19848  22.208  24.112   1.123
54688W        W19849  32.583   7.165  12.782
54689W        W19850   1.007  14.841  10.772
54690W        W19851   3.443   3.271   0.461
54691W        W19852  35.635   4.866  13.522
54692W        W19853   2.315  12.327   2.783
54693W        W19854  33.909  16.335  14.113
54694W        W19855   9.567  24.223  14.214
54695W        W19856  30.199   4.012   4.462
54696W        W19857   1.745  28.041  11.162
54697W        W19858   4.145  44.430  11.644
54698W        W19859   6.185  36.209   0.394
54699W        W19860   3.323  21.037  13.080
54700W        W19861  27.956  28.312  11.118
54701W        W19862   4.297  38.831   2.235
54702W        W19863  35.153   4.827   3.267
54703W        W19864  42.130  21.090  14.836
54704W        W19865  43.876  21.704  13.428
54705W        W19866   5.201  24.698  12.988
54706W        W19867  18.197  32.577   2.714
54707W        W19868  15.894   5.312  12.130
54708W        W19869  13.643  30.956  14.733
54709W        W19870  25.757   8.544  11.210
54710W        W19871   1.464   9.309   2.733
54711W        W19872   2.630  18.164  10.121
54712W        W19873  35.894   7.304  10.992
54713W        W19874  33.400  17.207   1.990
54714W        W19875   6.228   0.242   1.028
54715W        W19876  22.841  13.814  13.555
54716W        W19877   0.778  10.838  12.021
54717W        W19878  40.079   1.798   1.411
54718W        W19879  23.934   5.175  11.128
54719W        W19880  35.522  23.197   0.750
54720W        W19881  17.112  29.854   1.300
54721W        W19882  27.059   7.430   1.655
54722W        W19883  16.822   2.977   2.256
54723W        W19884  23.383  12.211  10.831
54724W        W19885  20.101  26.655  11.143
54725W        W19886  21.192   6.603  11.610
54726W        W19887  28.121   9.120   2.697
54727W        W19888  44.248  41.535   4.471
54728W        W19889  43.003  42.928  10.679
54729W        W19890  34.568  44.867  14.011
54730W        W19891   7.792  27.950  11.738
54731W        W19892  42.009  21.890   2.323
54732W        W19893  10.052   9.757  14.232
54733W        W19894  25.031   3.823  14.690
54734W        W19895  20.558  39.832   4.507
54735W        W19896   7.331  10.248   4.418
54736W        W19897  39.288   8.718  11.061
54737W        W19898  29.391  30.878   4.269
54738W        W19899  11.724  41.072  12.861
54739W        W19900  18.728  17.624   1.104
54740W        W19901  28.357  34.506   3.246
54741W        W19902  12.112  23.052   2.674
54742W        W19903  14.563   6.680   4.309
54743W        W19904  42.350  18.844  13.889
54744W        W19905  39.303   6.878  13.668
54745W        W19906  19.634   9.783  11.954
54746W        W19907  23.250  41.393   2.803
54747W        W19908   6.805   6.935   0.751
54748W        W19909  31.110  20.189   5.007
54749W        W19910  44.908   4.476   1.298
54750W        W19911   7.969  15.598   5.064
54751W        W19912  18.777  23.540  12.446
54752W        W19913  36.602  20.695  12.375
54753W        W19914  13.615   5.191  10.801
54754W        W19915   4.302  24.291  14.954
54755W        W19916  17.337  34.644  14.870
54756W        W19917  41.901  25.466  14.306
54757W        W19918  26.156  13.373   1.670
54758W        W19919  36.774  24.328  12.796
54759W        W19920   7.807  34.412  10.646
54760W        W19921   5.973   6.186  11.640
54761W        W19922   5.232   7.304   3.844
54762W        W19923  16.063   7.725   4.794
54763W        W19924  38.495  26.290  12.411
54764W        W19925  25.178  33.578   0.332
54765W        W19926  20.657  40.217   4.172
54766W        W19927  12.808  37.385   5.071
54767W        W19928  34.338   3.803   2.639
54768W        W19929  14.558  23.908   3.211
54769W        W19930   2.487  11.210   1.144
54770W        W19931   5.335   4.716   2.358
54771W        W19932   2.435  16.823  12.813
54772W        W19933   1.894   4.296   0.294
54773W        W19934   6.335  44.504   3.290
54774W        W19935  18.972   4.718   3.235
54775W        W19936  42.310  42.831   4.389
54776W        W19937  37.025  42.666  10.167
54777W        W19938  21.055   9.849  13.291
54778W        W19939  28.895   1.424  13.777
54779W        W19940   8.606  10.115  11.857
54780W        W19941  43.372  32.306  12.793
54781W        W19942   3.767  44.316   1.760
54782W        W19943  21.810  25.645   4.238
54783W        W19944  14.219   4.811  13.110
54784W        W19945  29.701  25.898  11.093
54785W        W19946  43.334  40.955  11.146
54786W        W19947   3.336  24.305   2.527
54787W        W19948  17.082  32.662  14.957
54788W        W19949  28.160   1.292  12.998
54789W        W19950  37.634  43.447  13.464
54790W        W19951  20.128  35.026   4.490
54791W        W19952  39.364   4.099  12.980
54792W        W19953  40.998   8.996  10.723
54793W        W19954   5.776  28.529   4.599
54794W        W19955   4.543  40.581  11.057
54795W        W19956   1.279  17.415  11.053
54796W        W19957  24.070  25.010  13.567
54797W        W19958  35.628  22.071   1.609
54798W        W19959  22.153  19.226   3.768
54799W        W19960  14.905  34.630  10.257
54800W        W19961  10.226   6.292  13.312
54801W        W19962  42.998  20.290   2.606
54802W        W19963   4.510   1.036   5.053
54803W        W19964  20.444  22.537   3.252
54804W        W19965  33.208  35.896   4.520
54805W        W19966   6.988  41.350   0.811
54806W        W19967  22.752  27.256  12.349
54807W        W19968  30.631  26.456   2.451
54808W        W19969  35.215  30.245  13.320
54809W        W19970  17.584  34.886   3.683
54810W        W19971  37.559  17.988   3.078
54811W        W19972  36.504  27.214  10.651
54812W        W19973  15.097  18.841   0.914
54813W        W19974  38.395  22.890  11.603
54814W        W19975   2.148  44.714  12.406
54815W        W19976  31.894  17.583  12.580
54816W        W19977   7.353  32.686   3.110
54817W        W19978   1.977  43.999   2.984
54818W        W19979  20.799   3.971   0.260
54819W        W19980  15.541  19.531  13.510
54820W        W19981  32.057  25.556  13.892
54821W        W19982   0.214  22.954   2.800
54822W        W19983  14.715  22.853   0.149
54823W        W19984  18.844   3.826  11.850
54824W        W19985  44.105  25.713  12.933
54825W        W19986  31.155  23.655  11.848
54826W        W19987   6.418   8.324   1.700
54827W        W19988  30.416  39.298  10.997
54828W        W19989  42.379  24.894   0.914
54829W        W19990  17.226   3.136  12.395
54830W        W19991   2.435   9.248   4.844
54831W        W19992  23.124  17.803  13.413
54832W        W19993   3.181  35.034   1.808
54833W        W19994  32.546  18.347  13.696
54834W        W19995  34.096  21.976  14.823
54835W        W19996  36.887   7.907   0.802
54836W        W19997  30.224  15.308   4.631
54837W        W19998  24.586  22.459   3.032
54838W        W19999  10.111  37.963   3.596
54839W        W20000  21.443  42.781   4.102
54840W        W20001  41.771  33.499  12.889
54841W        W20002   4.902  10.677   3.412
54842W        W20003   0.037  30.315  13.362
54843W        W20004  33.945  32.665   0.637
54844W        W20005  30.435  16.378   3.798
54845W        W20006  22.707   7.324  11.233
54846W        W20007  25.406   7.761  13.956
54847W        W20008  24.038  43.722  11.308
54848W        W20009  43.823  12.281   2.088
54849W        W20010  26.661  23.236   2.332
54850W        W20011  12.171  31.410  12.992
54851W        W20012  42.942  14.119  13.806
54852W        W20013  33.054  19.130  14.578
54853W        W20014  28.274   0.473   0.330
54854W        W20015  32.462  16.227   4.726
54855W        W20016  22.188  19.000  11.645
54856W        W20017  41.967   8.467  11.068
54857W        W20018   8.916  11.645  10.826
54858W        W20019  32.547   9.676   1.407
54859W        W20020   2.833  35.033   4.733
54860W        W20021  13.423  10.544   3.621
54861W        W20022  39.575  13.163  11.551
54862W        W20023  42.021  10.277   3.292
54863W        W20024  25.938  20.760   0.288
54864W        W20025  35.737  33.428   4.624
54865W        W20026  37.546  26.571  10.773
54866W        W20027  11.824  13.638  14.310
54867W        W20028  35.668  23.501   2.761
54868W        W20029   7.148  18.307   2.776
54869W        W20030  15.688  12.175   0.156
54870W        W20031  18.759   6.335   0.647
54871W        W20032  15.315  23.606  10.420
54872W        W20033  37.672  24.631   3.624
54873W        W20034   2.717  33.421  11.196
54874W        W20035  36.906  26.458   0.521
54875W        W20036  39.251  31.143  13.992
54876W        W20037   9.937  26.789  10.992
54877W        W20038   2.331  33.930  12.021
54878W        W20039  14.337  41.968   2.399
54879W        W20040  21.117   1.561   1.558
54880W        W20041   6.469  42.526   0.393
54881W        W20042  30.602  21.597  12.940
54882W        W20043   9.290  20.444  14.414
54883W        W20044  24.856  30.537   4.325
54884W        W20045  26.852  35.904   0.753
54885W        W20046  25.462  33.585   2.716
54886W        W20047  10.987  24.872   3.298
54887W        W20048  34.757  18.714   4.565
54888W        W20049  28.215  17.755   3.265
54889W        W20050  21.542  42.757  12.369
54890W        W20051  23.067  26.509  12.063
54891W        W20052   4.624  40.953   0.305
54892W        W20053  11.565  36.249  13.006
54893W        W20054  21.208  37.131   1.056
54894W        W20055   0.785  20.917   1.656
54895W        W20056  41.247   0.304  13.999
54896W        W20057  42.512   8.332  13.463
54897W        W20058  43.430  15.352  12.665
54898W        W20059  20.458   5.120  12.985
54899W        W20060  23.020   9.354  11.476
54900W        W20061  17.680   6.791   2.497
54901W        W20062  12.060  27.659  10.678
54902W        W20063  32.407  16.730   0.943
54903W        W20064  36.456  40.412   4.635
54904W        W20065  33.847  32.941  11.095
54905W        W20066  20.797  29.846   5.053
54906W        W20067  36.928  42.633   0.506
54907W        W20068   0.915  19.679  10.337
54908W        W20069   7.039  16.619   1.923
54909W        W20070  11.911  14.338  13.084
54910W        W20071  38.432  15.705   3.887
54911W        W20072  13.361   1.393   3.717
54912W        W20073  18.974  20.172  11.545
54913W        W20074  18.143   9.804  11.091
54914W        W20075  15.660  44.719   1.365
54915W        W20076   3.778   9.300  10.523
54916W        W20077  22.100  18.862  13.313
54917W        W20078   8.718  43.910   3.897
54918W        W20079  42.552  23.055  13.441
54919W        W20080  29.760  36.914   3.934
54920W        W20081   4.895  20.482  11.562
54921W        W20082  34.990   8.138  13.520
54922W        W20083   6.316   2.829  10.483
54923W        W20084  21.249  13.774  11.175
54924W        W20085   6.951  30.595   0.683
54925W        W20086  42.365   1.099  10.765
54926W        W20087  44.645  25.031  11.217
54927W        W20088  44.729  39.000   1.866
54928W        W20089  36.601  35.066   0.930
54929W        W20090  22.695  28.725   2.801
54930W        W20091  32.932  35.489   1.325
54931W        W20092  30.080  30.590   0.782
54932W        W20093  31.550  37.823   0.211
54933W        W20094   7.487  41.557   0.919
54934W        W20095  13.643  36.835  11.985
54935W        W20096  31.753   1.444   3.241
54936W        W20097  21.979  22.995   1.338
54937W        W20098  44.451  29.407  11.549
54938W        W20099  22.895  40.763   1.146
54939W        W20100   9.930   7.789   4.042
54940W        W20101  11.281  26.539  12.545
54941W        W20102  43.775   3.402   3.125
54942W        W20103  41.478  27.126   2.130
54943W        W20104  25.188  42.073  10.361
54944W        W20105  41.533  16.725   0.640
54945W        W20106  20.747  22.541   5.666
54946W        W20107  40.449  37.842   4.969
54947W        W20108  16.760  36.245   0.468
54948W        W20109   5.989  39.531  10.940
54949W        W20110  28.424   1.272  11.393
54950W        W20111  30.929  20.722   5.011
54951W        W20112  36.795   8.495  11.184
54952W        W20113  17.817  37.388  11.597
54953W        W20114  42.038  39.874   4.502
54954W        W20115   5.663  39.108   2.785
54955W        W20116  41.091  17.151  13.514
54956W        W20117  38.975  33.878   5.086
54957W        W20118  18.187  24.110   2.387
54958W        W20119   7.883  17.780   3.691
54959W        W20120  16.650  25.864  12.892
54960W        W20121  19.695  41.752  14.906
54961W        W20122  15.542  30.249   4.021
54962W        W20123  31.091   5.848   2.697
54963W        W20124  21.603  31.949  14.005
54964W        W20125  37.153  42.761  11.954
54965W        W20126   2.768   5.433   1.341
54966W        W20127  17.642  23.318  13.374
54967W        W20128  15.717  36.980   2.149
54968W        W20129   7.469  20.758   2.383
54969W        W20130  26.342  43.795   0.319
54970W        W20131  24.530   4.868  12.011
54971W        W20132  23.165  18.529   2.251
54972W        W20133   5.833  43.829  14.126
54973W        W20134  42.439  31.863  12.614
54974W        W20135  28.734  31.888   0.021
54975W        W20136  18.186  32.863  12.295
54976W        W20137  14.631  15.105   0.939
54977W        W20138  25.081   5.644   4.166
54978W        W20139   7.340   1.671   0.759
54979W        W20140  23.661  35.574   1.291
54980W        W20141  38.106  33.360  12.776
54981W        W20142  32.903  44.810   3.147
54982W        W20143  17.486  32.610   0.569
54983W        W20144  14.241  27.194   0.803
54984W        W20145   9.130  29.108  13.583
54985W        W20146  17.744  29.668   1.763
54986W        W20147  18.561  30.816   1.392
54987W        W20148  15.147  25.988  12.858
54988W        W20149  42.025  12.898  13.052
54989W        W20150  26.806  24.149   9.735
54990W        W20151  19.534   7.760  14.849
54991W        W20152  28.017  32.639   3.942
54992W        W20153  40.028   3.988  14.836
54993W        W20154  34.957   0.878   1.758
54994W        W20155  34.696  18.652   0.378
54995W        W20156  26.900  20.788  10.642
54996W        W20157  37.290  32.596  12.361
54997W        W20158  44.381  38.113   2.650
54998W        W20159  27.606  34.082  10.743
54999W        W20160  30.386  35.176   3.259
55000W        W20161  21.951  33.024  11.209
55001W        W20162   4.371  41.905   0.650
55002W        W20163  38.826   4.647   0.679
55003W        W20164  27.981  39.791  11.674
55004W        W20165  29.576  11.662  13.280
55005W        W20166  22.980  40.051   2.721
55006W        W20167   6.990  43.969   1.347
55007W        W20168  19.735  43.625  11.363
55008W        W20169  23.120  21.485  12.142
55009W        W20170   0.653  18.523   2.422
55010W        W20171  13.141  17.186   4.169
55011W        W20172  42.570   9.376  14.405
55012W        W20173  12.571  41.920  12.230
55013W        W20174  31.090  38.536  12.503
55014W        W20175   0.825   2.692   3.208
55015W        W20176  34.914  29.576  10.669
55016W        W20177   3.977  25.407  12.494
55017W        W20178  39.712  36.137   3.112
55018W        W20179  16.313  28.047   3.298
55019W        W20180  16.207  24.972  12.887
55020W        W20181   7.933  40.480   1.745
55021W        W20182  12.136  39.735  12.409
55022W        W20183  12.950  36.872  12.863
55023W        W20184  24.175  27.555   3.184
55024W        W20185  29.569  10.830  13.507
55025W        W20186  40.401  33.578  12.531
55026W        W20187   7.916   6.643   4.077
55027W        W20188  13.679  27.692  11.693
55028W        W20189  21.819  29.939   4.511
55029W        W20190  38.539  14.545   3.618
55030W        W20191  38.506  18.362  12.483
55031W        W20192  12.757  39.925   2.336
55032W        W20193  33.382  13.661   3.211
55033W        W20194  44.728  34.460  11.172
55034W        W20195   0.836  26.542  13.755
55035W        W20196  25.260  39.308   3.858
55036W        W20197  29.506   3.041  10.808
55037W        W20198  14.650  44.529  14.276
55038W        W20199  26.101   5.867   0.003
55039W        W20200  24.094  33.389  11.552
55040W        W20201  12.569  43.763  12.381
55041W        W20202  41.648  12.681  13.348
55042W        W20203  44.160   7.739  14.847
55043W        W20204  20.213  16.041  13.103
55044W        W20205   2.368  22.935  10.790
55045W        W20206   5.935  37.861   0.875
55046W        W20207   7.873  31.486   1.004
55047W        W20208  32.402  37.580  13.319
55048W        W20209  42.130  29.075   0.822
55049W        W20210   8.672  12.789  13.931
55050W        W20211   6.385   9.545   1.337
55051W        W20212  20.289   4.458  14.847
55052W        W20213  37.019  19.739   0.286
55053W        W20214   6.903  29.383   2.792
55054W        W20215  25.070   1.063  10.403
55055W        W20216  17.013  32.545   3.210
55056W        W20217  37.228  17.341   4.381
55057W        W20218   9.451   8.133  11.288
55058W        W20219  26.134  36.831   0.304
55059W        W20220  21.011  17.589  14.488
55060W        W20221   5.833  18.390   2.556
55061W        W20222  39.574  10.627  12.817
55062W        W20223  29.015  15.681  11.031
55063W        W20224  37.860  10.891  11.405
55064W        W20225  37.830  35.402   4.200
55065W        W20226  19.331   7.406  11.647
55066W        W20227  11.371  34.663   2.313
55067W        W20228  19.746  39.929  13.000
55068W        W20229  24.962   0.327  12.855
55069W        W20230  21.462  19.728  14.921
55070W        W20231  28.784  23.225   3.974
55071W        W20232  23.597  35.213  13.853
55072W        W20233  35.475  33.855   0.291
55073W        W20234  44.666   1.400   0.720
55074W        W20235  28.099   0.041   2.458
55075W        W20236  10.400   4.361   1.924
55076W        W20237  30.420   3.724   4.077
55077W        W20238  32.353  32.598   2.737
55078W        W20239  20.770  42.873   2.113
55079W        W20240  27.081  16.754  13.468
55080W        W20241  41.808   3.895   0.506
55081W        W20242  17.103  28.187  11.518
55082W        W20243  20.394   8.616   4.251
55083W        W20244  13.209  36.416   0.321
55084W        W20245  21.139  41.756   1.625
55085W        W20246  27.234  43.913   3.521
55086W        W20247  31.020  43.393   3.092
55087W        W20248  39.441  31.422  13.093
55088W        W20249  11.758  10.832  12.354
55089W        W20250   0.292  35.156  14.330
55090W        W20251  29.782   3.977  11.646
55091W        W20252   7.206  42.176  13.465
55092W        W20253  29.002  14.866  13.618
55093W        W20254  38.099  33.075   1.224
55094W        W20255   0.250   4.459   0.881
55095W        W20256  23.158   5.927  11.218
55096W        W20257  13.909  34.631   1.433
55097W        W20258  42.818   6.362   4.536
55098W        W20259  31.143  33.459   3.615
55099W        W20260   8.211  32.064  13.900
55100W        W20261  20.255  40.226   9.787
55101W        W20262  36.287  15.611   4.550
55102W        W20263  36.010  24.938  12.841
55103W        W20264  26.017  43.765   1.603
55104W        W20265  38.041  10.950  13.421
55105W        W20266  15.540  38.460  13.070
55106W        W20267  13.221  31.658  11.610
55107W        W20268  15.653  25.993  13.029
55108W        W20269   5.931   3.422   3.222
55109W        W20270  25.558   4.081  11.084
55110W        W20271  22.245  32.545   2.700
55111W        W20272   4.773  31.653  11.131
55112W        W20273  28.246  16.541   1.158
55113W        W20274  18.189  42.357  12.027
55114W        W20275  22.449  15.826   3.618
55115W        W20276  39.572  20.901   1.602
55116W        W20277  26.275  35.568   9.853
55117W        W20278  10.752  34.932   0.257
55118W        W20279   8.381   8.823   2.017
55119W        W20280  15.833  33.167   1.908
55120W        W20281   2.341  12.179   0.288
55121W        W20282  35.045  41.254   4.196
55122W        W20283  10.876  42.468  14.868
55123W        W20284  32.161  37.372   0.938
55124W        W20285  33.090  32.905  12.221
55125W        W20286  42.491   0.268   1.203
55126W        W20287  22.484  11.240  12.998
55127W        W20288  37.992  40.347   3.649
55128W        W20289  13.413   2.470  13.441
55129W        W20290   7.250   2.051  12.964
55130W        W20291   0.590  14.609   2.639
55131W        W20292  18.734  26.941  11.275
55132W        W20293  21.543  39.632   2.262
55133W        W20294   2.869   8.381   0.421
55134W        W20295  24.150  38.739  14.850
55135W        W20296  21.436  23.999   2.215
55136W        W20297  26.167  38.327  14.300
55137W        W20298  12.660  10.374  12.505
55138W        W20299  30.318  13.822  14.519
55139W        W20300  33.619   8.767  14.012
55140W        W20301  32.795  10.520  14.936
55141W        W20302  26.969  10.057   4.987
55142W        W20303  26.602  21.941   3.301
55143W        W20304  24.938  26.759   2.449
55144W        W20305  36.754  33.584   3.743
55145W        W20306   5.463  13.718   4.642
55146W        W20307  18.258   4.463   0.025
55147W        W20308  28.686   9.739   2.576
55148W        W20309  12.592   8.642   2.845
55149W        W20310  22.851   4.265   2.779
55150W        W20311  27.657  33.369  12.931
55151W        W20312  30.719  10.240   2.164
55152W        W20313  35.670  12.402  11.906
55153W        W20314  40.418  15.168  11.516
55154W        W20315   5.603  12.138  11.255
55155W        W20316  14.661  11.722   4.104
55156W        W20317   2.373  15.842   2.776
55157W        W20318  23.422  33.044   3.234
55158W        W20319   5.374  19.772  11.905
55159W        W20320   9.930  14.214   1.324
55160W        W20321  28.064  20.190   2.642
55161W        W20322  31.159   3.451  13.949
55162W        W20323  28.334  30.608  11.455
55163W        W20324  22.520  11.643  12.141
55164W        W20325  40.905  37.643   4.113
55165W        W20326  26.634  19.083   1.959
55166W        W20327  21.808  21.481  12.696
55167W        W20328  33.887  11.709   0.431
55168W        W20329  28.418   1.430   2.250
55169W        W20330  32.022   4.417  12.847
55170W        W20331  17.261  14.302   1.339
55171W        W20332  12.167   0.988  12.698
55172W        W20333  22.881   1.484   0.698
55173W        W20334  24.569  30.122  11.486
55174W        W20335  33.639  12.657  12.631
55175W        W20336  31.586  39.167  13.356
55176W        W20337  34.447  19.960  11.616
55177W        W20338  38.050  31.105   1.169
55178W        W20339  13.583   6.418   4.541
55179W        W20340  10.699  14.621   4.053
55180W        W20341  37.780   1.391  13.296
55181W        W20342  18.553   5.863  10.604
55182W        W20343  18.265  42.374   0.150
55183W        W20344   9.160  35.795   2.794
55184W        W20345   5.357  40.950  12.972
55185W        W20346   3.694  42.148   0.439
55186W        W20347  40.944  20.122  13.641
55187W        W20348  41.285   4.080   3.136
55188W        W20349  43.825  25.219   1.308
55189W        W20350  42.904  44.304   1.218
55190W        W20351  12.021  13.757  10.780
55191W        W20352   6.136  15.715   2.032
55192W        W20353  40.797  36.855   2.837
55193W        W20354   1.233  33.077  11.516
55194W        W20355  38.569  33.357  14.436
55195W        W20356  43.431  41.902  13.036
55196W        W20357   2.445  17.518  13.219
55197W        W20358   1.983  21.782   0.822
55198W        W20359  16.730  38.931  12.459
55199W        W20360  13.317  14.206   0.735
55200W        W20361  28.520  19.706   1.313
55201W        W20362  34.266  14.256   0.180
55202W        W20363  27.118  15.252  11.626
55203W        W20364  25.949  35.754   1.837
55204W        W20365  35.471  20.183   1.850
55205W        W20366  21.193   2.906  10.746
55206W        W20367   6.413   3.366  12.843
55207W        W20368   4.163  12.327   3.143
55208W        W20369  11.161  23.956   3.403
55209W        W20370  42.739  13.145  12.082
55210W        W20371  18.653  33.934   4.798
55211W        W20372  17.323  34.133  12.959
55212W        W20373  37.378  16.825  11.628
55213W        W20374   9.159  35.269   4.868
55214W        W20375  12.823  40.236   3.608
55215W        W20376  11.923  40.857   4.707
55216W        W20377  28.801   5.494   1.418
55217W        W20378  39.945  35.784  12.488
55218W        W20379  44.345  40.288   1.002
55219W        W20380  39.489  29.127   0.259
55220W        W20381  38.196  28.683   3.223
55221W        W20382  21.011  18.756   4.251
55222W        W20383  21.996   1.288  11.090
55223W        W20384  26.337  27.134   3.791
55224W        W20385   1.574  17.810   0.760
55225W        W20386  15.606  11.067   3.209
55226W        W20387   7.723   8.382   1.901
55227W        W20388  21.058  25.674  13.964
55228W        W20389   7.343  24.578  12.882
55229W        W20390  13.962  24.235   4.501
55230W        W20391  21.594  31.664  13.583
55231W        W20392  39.948  36.475   3.415
55232W        W20393  29.677  27.826  10.839
55233W        W20394  28.668  25.633   3.280
55234W        W20395  13.279  27.148   1.427
55235W        W20396  16.925  23.812  12.964
55236W        W20397  32.114  23.044  13.504
55237W        W20398  11.906  12.859  12.265
55238W        W20399  36.701   5.544   2.330
55239W        W20400  42.285  18.532  14.316
55240W        W20401  44.944  23.517   4.167
55241W        W20402  23.891  34.513  14.347
55242W        W20403  23.215  36.438  12.930
55243W        W20404  39.495   2.971   2.457
55244W        W20405  20.512   2.218  12.671
55245W        W20406  28.200   7.334   3.583
55246W        W20407   3.433  18.137  10.170
55247W        W20408   2.506  18.324   1.438
55248W        W20409  27.426   1.998   2.866
55249W        W20410  23.262  15.801   4.267
55250W        W20411  42.249  27.991  12.590
55251W        W20412   7.318  38.894   4.412
55252W        W20413  39.432  31.464   4.160
55253W        W20414   5.378  35.776   2.658
55254W        W20415   5.062   0.420  14.753
55255W        W20416  44.486  43.492   0.361
55256W        W20417  20.073  33.485   4.678
55257W        W20418   8.712  27.493  11.575
55258W        W20419   3.819  12.208  12.606
55259W        W20420   7.082  27.035  13.032
55260W        W20421   9.163  18.595  10.590
55261W        W20422  35.099  17.367  12.071
55262W        W20423  26.183   0.516  11.746
55263W        W20424  30.278   7.627  12.655
55264W        W20425   3.395  20.465  13.797
55265W        W20426  31.008  28.180  13.460
55266W        W20427  42.814  33.924  14.575
55267W        W20428  39.941  32.375  11.145
55268W        W20429  34.148  34.472  12.814
55269W        W20430   8.365  34.465   0.702
55270W        W20431   3.420  10.161  11.496
55271W        W20432  44.486   0.761  12.039
55272W        W20433   5.331  11.603   0.430
55273W        W20434  38.490   1.479   3.285
55274W        W20435  14.195   1.236  10.554
55275W        W20436  42.009  16.108  13.501
55276W        W20437  21.820   4.654  10.821
55277W        W20438   0.994  44.534   1.323
55278W        W20439  40.815  38.454   3.241
55279W        W20440  20.992  11.768   4.312
55280W        W20441   4.832  18.544  10.263
55281W        W20442  21.073  39.965   3.212
55282W        W20443  25.972  24.205   2.817
55283W        W20444  17.831  18.224  12.008
55284W        W20445  44.275  17.519  11.211
55285W        W20446  24.910   0.932   3.745
55286W        W20447  13.200  22.081  11.597
55287W        W20448  20.506  28.648   3.910
55288W        W20449  40.831  29.741  12.467
55289W        W20450  17.497  42.293   5.369
55290W        W20451   1.885  43.451  12.911
55291W        W20452   0.297  13.231  14.783
55292W        W20453  11.205  41.250  13.091
55293W        W20454  30.295  24.726  11.713
55294W        W20455  35.135  28.766  10.994
55295W        W20456  11.220  10.637   0.315
55296W        W20457   6.077  34.080  11.210
55297W        W20458  11.090  38.318  12.509
55298W        W20459  37.051  32.112  10.627
55299W        W20460  40.955   6.059  13.372
55300W        W20461  20.033  17.994  13.160
55301W        W20462  27.665   2.189   4.550
55302W        W20463  10.689   8.442   4.778
55303W        W20464  26.415  14.220  10.193
55304W        W20465  20.757  13.305   0.361
55305W        W20466  24.459   3.877   2.866
55306W        W20467  27.062  33.710  13.461
55307W        W20468  38.362  37.889   0.801
55308W        W20469  14.396  13.105   0.730
55309W        W20470  28.250   3.773   0.718
55310W        W20471  43.824  39.909   2.765
55311W        W20472   4.727  31.376   2.787
55312W        W20473   2.936   0.124  11.598
55313W        W20474   3.406  20.321   3.368
55314W        W20475  24.744  42.403   2.648
55315W        W20476  26.208  37.888   2.881
55316W        W20477   0.750  28.113  12.956
55317W        W20478  23.300  35.610  10.447
55318W        W20479  27.696  17.013  13.803
55319W        W20480  14.061  14.152   1.431
55320W        W20481   5.003  31.133  11.947
55321W        W20482  14.810  43.817   4.773
55322W        W20483  40.284  17.802  11.088
55323W        W20484  29.372  35.649   2.994
55324W        W20485  20.253  12.770   3.867
55325W        W20486  26.926  13.867  11.854
55326W        W20487  28.111  44.111   3.687
55327W        W20488   1.229  37.322  13.537
55328W        W20489   2.890  31.980  14.552
55329W        W20490  31.669  31.310  13.568
55330W        W20491  26.991  12.844   1.522
55331W        W20492   5.822  15.062   0.009
55332W        W20493  31.536  28.560   3.841
55333W        W20494  25.113  18.004   0.556
55334W        W20495   1.527  13.777   3.637
55335W        W20496  36.286  25.942  11.270
55336W        W20497  18.299  19.749  13.901
55337W        W20498  37.487  17.045   3.363
55338W        W20499  15.430  18.794   2.885
55339W        W20500   8.250  15.108   0.980
55340W        W20501  40.939   1.895  10.703
55341W        W20502  40.408  23.064   2.233
55342W        W20503  34.064   3.047  12.082
55343W        W20504  14.115  27.422  12.986
55344W        W20505  22.429  11.140   0.240
55345W        W20506   6.924   2.788   2.881
55346W        W20507  42.386  44.316   0.044
55347W        W20508   1.922  30.987  13.342
55348W        W20509   7.298  10.394  13.323
55349W        W20510  30.748  18.297  12.325
55350W        W20511   2.982  17.042   3.153
55351W        W20512  29.626  19.723  10.422
55352W        W20513   0.392   6.214  12.981
55353W        W20514  23.184  25.059   1.939
55354W        W20515  30.561  26.141   1.161
55355W        W20516  15.236  19.097  11.218
55356W        W20517  29.952   4.935   1.990
55357W        W20518  23.021  20.198   4.583
55358W        W20519  13.069  21.684   1.751
55359W        W20520  25.942   5.847  12.896
55360W        W20521  20.643  28.168  14.910
55361W        W20522  43.899   4.776   1.239
55362W        W20523  12.092  24.538  10.939
55363W        W20524  36.932  11.828   1.814
55364W        W20525  15.336   8.863   3.069
55365W        W20526  14.234   3.711   3.847
55366W        W20527   7.148  13.858   0.377
55367W        W20528   3.253  28.436  12.465
55368W        W20529  20.286  40.133  10.683
55369W        W20530  30.239  12.705  11.200
55370W        W20531  25.142  18.041  11.921
55371W        W20532  11.011   6.869  12.419
55372W        W20533  25.539  37.389   0.427
55373W        W20534  19.304  16.027   2.693
55374W        W20535  33.315  11.982   1.027
55375W        W20536  17.720  43.885  10.578
55376W        W20537  39.457  22.623   3.194
55377W        W20538  34.257  29.517  14.029
55378W        W20539  14.525  26.701   3.671
55379W        W20540   8.861  44.026   0.919
55380W        W20541   5.424  11.082  14.052
55381W        W20542  19.787  14.710   4.888
55382W        W20543  11.971  40.786   5.194
55383W        W20544   5.928   9.931  13.497
55384W        W20545  42.005  22.491  11.579
55385W        W20546  12.184  19.050  10.778
55386W        W20547  11.877  36.663  13.121
55387W        W20548  17.976  18.243   3.218
55388W        W20549  36.508   7.833   0.335
55389W        W20550  13.248  28.251  11.180
55390W        W20551  16.754  29.477   1.986
55391W        W20552  12.787  40.803  12.116
55392W        W20553   2.176  15.695   3.221
55393W        W20554   3.355  43.970   3.723
55394W        W20555  27.274   2.396   4.289
55395W        W20556  31.159  19.704   1.237
55396W        W20557  18.902  26.486  14.783
55397W        W20558  39.634   2.847   3.765
55398W        W20559  31.246  42.237   1.477
55399W        W20560   3.423  25.394   3.782
55400W        W20561  34.351  39.695   3.687
55401W        W20562  14.547  37.646  11.187
55402W        W20563  32.756  36.496  12.882
55403W        W20564  41.827  34.180  14.504
55404W        W20565  28.006  30.142  13.956
55405W        W20566  23.532  40.965   2.786
55406W        W20567  24.632  35.794  12.778
55407W        W20568  41.098   7.772  14.091
55408W        W20569  10.103  35.580  10.608
55409W        W20570  23.715  33.634  10.298
55410W        W20571  12.147  14.775   0.479
55411W        W20572  23.132  32.846   2.855
55412W        W20573  18.281  39.722   2.697
55413W        W20574  30.047   2.442  12.431
55414W        W20575  42.563   1.393  13.617
55415W        W20576  19.977  44.064   2.323
55416W        W20577   9.238  43.324   1.941
55417W        W20578  42.417  32.623   2.768
55418W        W20579  19.633   9.654  12.487
55419W        W20580   8.226  38.647  11.512
55420W        W20581   1.194  38.430   1.239
55421W        W20582  44.327  23.664   0.872
55422W        W20583  36.621  26.002   4.276
55423W        W20584  16.220  38.622   4.655
55424W        W20585   4.432  34.922   4.292
55425W        W20586  19.565  35.615  13.103
55426W        W20587   7.772  21.368   1.837
55427W        W20588   4.798  40.539  10.628
55428W        W20589   9.401   9.347   3.301
55429W        W20590  36.880  21.110  11.565
55430W        W20591  37.205  41.132  14.351
55431W        W20592  23.769   5.853  12.633
55432W        W20593   2.849  20.281  13.850
55433W        W20594   5.352  31.356  12.980
55434W        W20595  29.040  43.083  12.587
55435W        W20596   6.792  36.008  14.834
55436W        W20597  41.087  33.600  11.466
55437W        W20598   2.358  17.813   1.706
55438W        W20599  26.479  31.568  11.243
55439W        W20600   4.016  15.158  11.133
55440W        W20601  11.605  28.486  10.686
55441W        W20602  16.624  41.069   0.953
55442W        W20603   6.168  24.575   4.867
55443W        W20604  18.302  17.232  12.559
55444W        W20605  25.521  33.988   0.068
55445W        W20606   1.015  27.577   4.881
55446W        W20607  10.217   6.509  12.263
55447W        W20608  32.909  26.078  10.935
55448W        W20609  40.186  38.398   4.054
55449W        W20610   8.349  16.095  11.665
55450W        W20611   2.916   4.629  11.120
55451W        W20612  15.177  36.949   4.039
55452W        W20613  24.260  23.948   1.299
55453W        W20614  29.761  18.154  12.455
55454W        W20615  18.282  37.648   0.907
55455W        W20616  19.667  15.163   5.137
55456W        W20617  15.556  33.139  14.375
55457W        W20618   5.627  40.084  12.562
55458W        W20619  26.900  26.421   4.559
55459W        W20620  34.628  39.374   2.756
55460W        W20621  20.545  32.567   2.219
55461W        W20622  35.609  22.701  11.778
55462W        W20623   8.298  38.211   1.639
55463W        W20624  27.607  43.780   2.150
55464W        W20625   7.199   3.216   2.230
55465W        W20626  31.187  14.693   3.380
55466W        W20627  10.879  42.244   2.528
55467W        W20628  22.546  19.508  12.464
55468W        W20629  17.793  35.187  11.981
55469W        W20630  10.100   4.561   1.542
55470W        W20631  41.299   0.750   0.574
55471W        W20632  20.244  20.486   1.579
55472W        W20633  38.736  23.043   4.181
55473W        W20634   9.600  20.200  11.401
55474W        W20635  34.460  33.708  13.978
55475W        W20636  22.027  14.461  10.651
55476W        W20637   0.584  16.617   1.584
55477W        W20638  13.759  17.992   4.117
55478W        W20639   1.714  32.414   2.404
55479W        W20640  24.224  32.979   2.831
55480W        W20641  40.469  29.086   1.331
55481W        W20642  20.812  18.730  12.563
55482W        W20643   4.159   2.520  11.157
55483W        W20644  38.064  10.295   1.276
55484W        W20645  30.444   3.013  14.606
55485W        W20646  29.461   4.619   3.691
55486W        W20647  32.059  24.714   1.872
55487W        W20648  32.114   7.530   4.537
55488W        W20649   8.318  11.916   0.511
55489W        W20650  12.609   7.621  10.852
55490W        W20651  23.268  12.584   0.393
55491W        W20652   3.456  35.944   0.441
55492W        W20653  27.914  18.694  12.475
55493W        W20654   9.348  44.253   1.795
55494W        W20655  35.328   9.407  10.640
55495W        W20656  26.901  21.479   3.210
55496W        W20657  11.223  14.714  12.623
55497W        W20658   7.021  10.795  11.521
55498W        W20659   9.377  31.797   2.809
55499W        W20660  36.671   6.597   4.989
55500W        W20661  11.847   6.775  10.741
55501W        W20662  37.133  22.032  12.615
55502W        W20663  16.792  17.289   4.482
55503W        W20664  30.729  11.248   2.272
55504W        W20665  43.523  17.686   1.598
55505W        W20666   8.457   6.445   2.120
55506W        W20667  31.458  22.148   0.864
55507W        W20668  11.611  40.770  13.940
55508W        W20669  17.722  21.767   2.735
55509W        W20670  22.682  34.849  14.500
55510W        W20671  28.485  42.010   3.802
55511W        W20672  15.853  25.207   0.829
55512W        W20673   5.070  14.626  10.692
55513W        W20674   4.311  42.389  14.863
55514W        W20675  36.038  32.345   0.859
55515W        W20676   6.918   9.706  13.226
55516W        W20677  12.223  12.599  11.077
55517W        W20678  37.014  22.715  10.495
55518W        W20679  34.190  38.391   0.219
55519W        W20680  34.113  38.646   1.661
55520W        W20681  11.640  33.224  14.676
55521W        W20682  34.345  18.208  12.428
55522W        W20683  39.963  13.098   1.402
55523W        W20684  20.706  13.368   1.875
55524W        W20685   1.954  41.487   3.628
55525W        W20686  36.378  11.729   3.853
55526W        W20687  18.858   1.518  10.626
55527W        W20688  17.711   2.871  13.834
55528W        W20689  24.082  34.991  13.636
55529W        W20690  37.846  15.839  10.721
55530W        W20691  16.153  22.757   2.238
55531W        W20692  12.599  20.629  11.436
55532W        W20693  27.387  10.061  14.797
55533W        W20694  30.964   1.568   4.101
55534W        W20695  27.035  19.361  11.564
55535W        W20696  11.207  10.706  12.492
55536W        W20697  35.932  42.406   3.357
55537W        W20698  34.552  14.172   2.861
55538W        W20699  32.751  32.096   1.492
55539W        W20700  13.766   3.385   0.273
55540W        W20701  21.975   5.148   3.262
55541W        W20702  13.181   6.676   4.694
55542W        W20703  38.797  41.828  14.163
55543W        W20704  40.939  18.032   4.141
55544W        W20705  24.712  21.209  11.475
55545W        W20706  14.916   4.236   3.207
55546W        W20707  42.011   7.431  11.125
55547W        W20708  22.785  22.313   3.549
55548W        W20709   4.439  11.519   4.302
55549W        W20710   0.422  34.986   1.232
55550W        W20711  33.051  22.146   2.834
55551W        W20712  23.584  41.471  13.519
55552W        W20713  44.018  43.414  10.738
55553W        W20714   0.330  29.752   1.659
55554W        W20715   9.395  24.701  10.582
55555W        W20716  23.149  38.615  12.414
55556W        W20717   5.820   5.697  14.028
55557W        W20718  28.199  29.028  13.457
55558W        W20719   2.421  43.082  14.819
55559W        W20720  23.724  14.913  11.123
55560W        W20721  16.626  40.284  12.911
55561W        W20722  16.046  17.170   1.251
55562W        W20723  31.389   8.365  11.459
55563W        W20724  32.535   4.280   4.210
55564W        W20725  30.529  31.991  12.588
55565W        W20726  13.367  13.860  11.739
55566W        W20727   1.737   2.363  14.870
55567W        W20728  10.460  26.458   0.590
55568W        W20729  15.043  39.247   4.033
55569W        W20730  29.267  36.373  14.978
55570W        W20731  27.971  38.952   2.177
55571W        W20732   4.901  19.031  12.083
55572W        W20733  23.040  27.595  12.022
55573W        W20734   6.973  25.119  14.752
55574W        W20735  40.391  22.208  11.124
55575W        W20736  36.418  23.619  14.801
55576W        W20737   7.830  25.778  13.458
55577W        W20738  19.961  23.220   3.563
55578W        W20739  40.394  26.614   0.501
55579W        W20740  30.198  10.162  14.883
55580W        W20741  18.323  32.967  13.313
55581W        W20742  24.674   4.660   4.754
55582W        W20743  37.845  22.588   1.412
55583W        W20744  10.154  31.659  14.959
55584W        W20745  40.818  38.444   1.926
55585W        W20746  16.763  12.293  12.707
55586W        W20747  20.087   2.392  13.493
55587W        W20748  21.576  39.002  11.193
55588W        W20749  27.111  21.176   1.098
55589W        W20750  30.626  22.958  11.743
55590W        W20751  17.559   5.726   1.685
55591W        W20752  12.266  33.874  14.638
55592W        W20753  21.797  41.140  13.938
55593W        W20754  19.555  20.288  10.467
55594W        W20755  43.333  35.129   4.271
55595W        W20756  23.903  16.696  13.326
55596W        W20757  33.544   1.152   1.259
55597W        W20758  37.742  21.085  12.058
55598W        W20759  20.985  28.722   0.778
55599W        W20760  23.159   2.056   4.555
55600W        W20761  39.070   5.539   2.789
55601W        W20762   0.708  22.805  11.165
55602W        W20763  40.276  40.798   0.025
55603W        W20764  35.904  10.871  11.219
55604W        W20765  39.627  31.137   4.725
55605W        W20766  25.662  38.671   4.451
55606W        W20767  41.716  24.785  12.065
55607W        W20768  21.646  44.982   4.650
55608W        W20769   0.188  11.146   2.834
55609W        W20770  21.150   6.029   2.739
55610W        W20771  31.866  17.926   0.476
55611W        W20772  40.406  29.612   1.251
55612W        W20773  32.521  11.570   1.029
55613W        W20774   2.316  27.439  13.960
55614W        W20775  36.397  36.548  12.004
55615W        W20776  44.319  23.450  11.966
55616W        W20777  41.056  30.520  13.598
55617W        W20778   1.691  29.859  12.472
55618W        W20779  27.122  44.548  14.429
55619W        W20780  11.657   7.103   1.258
55620W        W20781  17.534  12.674   2.155
55621W        W20782  41.258   0.098  11.518
55622W        W20783  31.368  40.327  12.020
55623W        W20784   1.968  11.932  13.810
55624W        W20785   4.443  44.720   4.058
55625W        W20786  40.815  41.254   0.341
55626W        W20787  21.042   4.679   3.107
55627W        W20788   3.053   9.732   0.861
55628W        W20789  22.332  14.729   0.911
55629W        W20790  26.965  17.681  14.035
55630W        W20791  30.697  37.305   0.812
55631W        W20792  32.189  30.552   3.826
55632W        W20793  31.991  32.664  11.177
55633W        W20794   3.014  22.407   4.517
55634W        W20795  23.205  12.230  12.124
55635W        W20796   4.968  36.881   3.298
55636W        W20797   2.990  25.555   2.929
55637W        W20798   0.428   8.333   3.125
55638W        W20799   9.423  20.431  12.212
55639W        W20800  21.972  11.204  12.973
55640W        W20801   0.868   1.182  11.755
55641W        W20802  38.558  15.906   0.105
55642W        W20803  17.703  41.503   0.806
55643W        W20804  44.201  14.127   3.275
55644W        W20805  23.550  25.133   3.268
55645W        W20806  10.926  40.330  11.988
55646W        W20807  30.503  15.703   0.935
55647W        W20808   8.649  41.569  12.507
55648W        W20809  32.858   8.822   1.832
55649W        W20810  44.459  14.120   2.810
55650W        W20811  30.952  36.609   4.395
55651W        W20812  20.706  14.816  13.540
55652W        W20813  14.939  16.715  13.289
55653W        W20814  26.280  43.751   1.165
55654W        W20815  29.989  39.558  10.978
55655W        W20816   6.601  44.860  13.543
55656W        W20817   3.711  38.430  12.572
55657W        W20818  19.442  35.155  11.554
55658W        W20819   7.125  17.339   2.845
55659W        W20820  34.376  18.792  13.408
55660W        W20821  36.807  24.188  13.611
55661W        W20822   0.731  35.443  11.980
55662W        W20823   6.863   0.650   3.892
55663W        W20824  20.504  22.448   1.923
55664W        W20825   7.650  24.164  13.213
55665W        W20826  40.283  22.772  12.048
55666W        W20827  10.737  14.596   2.223
55667W        W20828  41.330  28.510  11.494
55668W        W20829  22.196  21.271   0.753
55669W        W20830  42.039  25.443   2.618
55670W        W20831   5.487   9.034  10.417
55671W        W20832  41.584  39.003   1.752
55672W        W20833  16.197   5.482  14.027
55673W        W20834   8.365  21.130   2.328
55674W        W20835  41.948  21.518   1.966
55675W        W20836   8.730   5.005  13.006
55676W        W20837  17.478   0.185   1.246
55677W        W20838  30.949  36.670   1.635
55678W        W20839  21.773   7.776   2.603
55679W        W20840  36.576  33.493   4.208
55680W        W20841  34.080  33.483  14.235
55681W        W20842   8.886  34.398   2.685
55682W        W20843  33.364   0.887   2.822
55683W        W20844  34.215  30.795  11.125
55684W        W20845  10.479  14.687  14.019
55685W        W20846  24.218  28.002  12.992
55686W        W20847  20.161  29.265   5.249
55687W        W20848  16.940  22.180   1.016
55688W        W20849  27.501   4.717  14.370
55689W        W20850  35.188   2.714   4.287
55690W        W20851  42.782   6.123  13.525
55691W        W20852  33.899  12.674  10.988
55692W        W20853  17.821  35.375  12.886
55693W        W20854  27.670  38.465  11.271
55694W        W20855  18.265  36.147  10.689
55695W        W20856   5.906  15.274  12.955
55696W        W20857  30.898   2.751  13.351
55697W        W20858  14.600  41.779   1.804
55698W        W20859  22.655  41.909  14.427
55699W        W20860  21.002  23.680   2.240
55700W        W20861  14.264  11.323   4.122
55701W        W20862  20.232   6.646  12.052
55702W        W20863  16.013  15.842   1.051
55703W        W20864   5.015  18.815   4.569
55704W        W20865   8.803  18.026  11.227
55705W        W20866  24.423  41.707  14.790
55706W        W20867  36.503  26.183   1.729
55707W        W20868  21.167  14.662  11.430
55708W        W20869  12.277  38.891   3.560
55709W        W20870  42.462  30.526  14.641
55710W        W20871   7.603  24.943  12.549
55711W        W20872  35.948  28.525  14.389
55712W        W20873   1.348  21.310   3.218
55713W        W20874  43.902  42.896  10.722
55714W        W20875  19.215  22.256  11.634
55715W        W20876   6.010  29.380   4.797
55716W        W20877  13.671   9.341  14.924
55717W        W20878  12.236  27.989   0.417
55718W        W20879  18.154  10.279   3.094
55719W        W20880  17.998   9.920  14.184
55720W        W20881   0.154  36.082   0.389
55721W        W20882  22.136   9.132   3.280
55722W        W20883  38.942  15.632  10.694
55723W        W20884  12.733  34.016  10.579
55724W        W20885  15.454  18.072   1.568
55725W        W20886   9.105  36.130  13.755
55726W        W20887  36.118  20.332   3.292
55727W        W20888  15.697  44.179   3.123
55728W        W20889  18.578   3.857   3.228
55729W        W20890  37.400  42.544   3.084
55730W        W20891  19.628  38.019   1.906
55731W        W20892  42.032   0.291   4.840
55732W        W20893  28.677  11.524   2.701
55733W        W20894   2.750  14.141  12.782
55734W        W20895  24.534   0.532   2.873
55735W        W20896  21.520  13.862  11.599
55736W        W20897  26.418  12.949   4.996
55737W        W20898  19.211  24.303   3.318
55738W        W20899  26.062  24.072  14.752
55739W        W20900  36.849  38.546  13.322
55740W        W20901  27.362   6.731   2.590
55741W        W20902  17.793  42.455   4.940
55742W        W20903  41.276  40.976  13.524
55743W        W20904  42.355  42.931  14.928
55744W        W20905  10.780  42.876   1.311
55745W        W20906   6.387  14.211  13.358
55746W        W20907  15.553  28.916   3.695
55747W        W20908  38.479  41.974  10.420
55748W        W20909  43.456  16.748  13.367
55749W        W20910  17.158  43.817  11.737
55750W        W20911  11.828  39.802  10.009
55751W        W20912  36.221  10.908   2.623
55752W        W20913  23.100  10.617  11.967
55753W        W20914   4.170  44.545  14.502
55754W        W20915  23.162  32.853   3.747
55755W        W20916  17.070  17.483   3.551
55756W        W20917  24.068  19.571   3.883
55757W        W20918  34.585  30.947  11.465
55758W        W20919  18.273  22.789  11.588
55759W        W20920  13.655  38.392   4.530
55760W        W20921  21.444   0.741   1.707
55761W        W20922  20.619  26.755   4.163
55762W        W20923   5.910   8.903   4.635
55763W        W20924   8.915  42.455   2.346
55764W        W20925  14.238  15.023   1.939
55765W        W20926  16.254  37.773   1.733
55766W        W20927  39.383  14.498  11.975
55767W        W20928  10.183   6.739   3.790
55768W        W20929  32.515  38.619  14.833
55769W        W20930  42.709   3.578  10.790
55770W        W20931   3.898  32.086   1.325
55771W        W20932  27.231  19.516  12.818
55772W        W20933  32.795  38.057   4.025
55773W        W20934  21.984   2.363  10.680
55774W        W20935  28.539  27.030   4.690
55775W        W20936  17.602  31.876  13.475
55776W        W20937  39.440   7.928  12.911
55777W        W20938   8.800  41.407  10.451
55778W        W20939  31.263  37.583  11.668
55779W        W20940  24.434   2.089  14.981
55780W        W20941  10.221  31.041  10.529
55781W        W20942  11.792   8.793   4.257
55782W        W20943  40.564  30.634  13.525
55783W        W20944  38.355  32.602   1.215
55784W        W20945  43.105  28.225  13.087
55785W        W20946  28.053  38.892  13.513
55786W        W20947  16.702  35.147  14.261
55787W        W20948  12.519  30.052   1.117
55788W        W20949  14.747  34.802  13.404
55789W        W20950  33.594  27.123  14.820
55790W        W20951  22.453  19.723  14.796
55791W        W20952  25.162  16.155  12.741
55792W        W20953  29.945  26.968  13.230
55793W        W20954   6.327   2.268   4.054
55794W        W20955  22.221  39.403  13.154
55795W        W20956  25.210  30.523   1.666
55796W        W20957  25.235  18.626   3.685
55797W        W20958  19.762   6.356  14.516
55798W        W20959  32.342  30.061  14.953
55799W        W20960  42.286  26.618  12.206
55800W        W20961  15.189  27.447   1.150
55801W        W20962   1.772  12.301   3.169
55802W        W20963  21.255  41.679   4.160
55803W        W20964  36.116  44.291  12.053
55804W        W20965  29.451  32.111   2.706
55805W        W20966  17.983  35.003  11.417
55806W        W20967  40.796   3.635   1.800
55807W        W20968  43.807  27.057  14.471
55808W        W20969  32.699  12.239   3.204
55809W        W20970   8.850  24.964   0.729
55810W        W20971   4.196  19.243   2.389
55811W        W20972  28.476  33.098  11.232
55812W        W20973  21.111  19.024   3.767
55813W        W20974  12.790   2.634   2.359
55814W        W20975  18.636  13.545   2.230
55815W        W20976  26.506  30.400   2.850
55816W        W20977  14.795  29.199  14.802
55817W        W20978  43.869   3.397  13.941
55818W        W20979   0.158   7.706   0.227
55819W        W20980  33.980   5.316  12.997
55820W        W20981   1.427   7.291   4.967
55821W        W20982   9.163  21.160  11.068
55822W        W20983  12.036  39.019   2.595
55823W        W20984  38.029  29.936   3.130
55824W        W20985   8.994   8.735   3.242
55825W        W20986  21.624  31.413   4.410
55826W        W20987  25.760  19.692   4.470
55827W        W20988  39.041  28.631   2.835
55828W        W20989   8.128  12.330  11.508
55829W        W20990  15.284  44.130  11.118
55830W        W20991  38.482  20.017   0.093
55831W        W20992  40.917  37.113   4.197
55832W        W20993   6.445  10.677  14.462
55833W        W20994  19.198  34.156   0.488
55834W        W20995  27.749  11.915   3.153
55835W        W20996  19.732  27.325   4.845
55836W        W20997   8.736  18.604   2.933
55837W        W20998  16.278   3.551  11.051
55838W        W20999  37.106  15.309   3.261
55839W        W21000   8.786  15.412   2.542
55840W        W21001  11.379  30.353   2.299
55841W        W21002  14.567  36.249  13.532
55842W        W21003   3.316  22.123   3.580
55843W        W21004  33.521   1.669   1.299
55844W        W21005  20.790  32.589  10.914
55845W        W21006  15.118  20.518   1.924
55846W        W21007  25.583   5.937   4.674
55847W        W21008   8.785  44.462   1.757
55848W        W21009  26.970   8.853   4.143
55849W        W21010   6.190  28.901  12.488
55850W        W21011  12.076  37.349  12.064
55851W        W21012  11.338  19.068  14.983
55852W        W21013   0.534  17.782  14.058
55853W        W21014  36.864  19.259  12.357
55854W        W21015  33.520   3.256   3.281
55855W        W21016   3.758  40.861   4.160
55856W        W21017  23.625  11.304   4.891
55857W        W21018  40.341  19.109  13.082
55858W        W21019   3.305   8.757  12.345
55859W        W21020  38.331  21.660   0.880
55860W        W21021  11.717   4.410  13.388
55861W        W21022  31.055   8.295   4.029
55862W        W21023  21.764  43.876   0.779
55863W        W21024  43.440  24.927  13.902
55864W        W21025  32.311   9.139   2.186
55865W        W21026  44.933  11.027   3.275
55866W        W21027  43.279   9.488  13.786
55867W        W21028  37.642  31.669   4.656
55868W        W21029  20.563  41.027   1.863
55869W        W21030  33.374  34.417   2.465
55870W        W21031  40.981  33.281   4.591
55871W        W21032  30.339  24.581  10.778
55872W        W21033  24.162  16.107  14.881
55873W        W21034  18.041  18.549  14.563
55874W        W21035  32.149   3.986   3.953
55875W        W21036  19.547  10.584   2.612
55876W        W21037  16.670   2.468   2.315
55877W        W21038  20.087  25.534   2.759
55878W        W21039  28.891   8.246   3.594
55879W        W21040   8.933  37.061   3.149
55880W        W21041  12.681  29.130  14.898
55881W        W21042  21.950  29.480  14.072
55882W        W21043  30.013   1.747  10.448
55883W        W21044  28.019  43.156   1.360
55884W        W21045  30.042   0.533   0.779
55885W        W21046  20.286  21.225  10.722
55886W        W21047  33.219  26.438   3.633
55887W        W21048  37.077  27.098  12.593
55888W        W21049  22.120  31.121   2.842
55889W        W21050  33.755  24.488  14.755
55890W        W21051  15.568  19.482   1.462
55891W        W21052  42.611  35.028  10.817
55892W        W21053  36.016  28.622   2.332
55893W        W21054   0.974  27.249  11.988
55894W        W21055  35.477  39.545   0.147
55895W        W21056   3.047   0.813   2.888
55896W        W21057  39.744  42.198  13.306
55897W        W21058  12.360  12.653   2.773
55898W        W21059   0.649   6.652  11.594
55899W        W21060  12.650  22.707   3.806
55900W        W21061  14.519  20.829  12.562
55901W        W21062  33.392  10.734  10.723
55902W        W21063   8.074   5.210   0.464
55903W        W21064  22.378  42.339  14.381
55904W        W21065   7.228  28.173  14.791
55905W        W21066  31.484  24.916   4.560
55906W        W21067  23.573  43.035   1.396
55907W        W21068  43.862  33.607   2.865
55908W        W21069  25.537   0.764   4.576
55909W        W21070  39.528   8.921   4.641
55910W        W21071  19.616  23.982   3.251
55911W        W21072  36.947  24.708  11.454
55912W        W21073  24.715  19.552   0.490
55913W        W21074  32.481  44.310  10.565
55914W        W21075   5.940  36.810   3.047
55915W        W21076  39.485  39.933   0.645
55916W        W21077  39.775  27.699   2.220
55917W        W21078  23.850  33.330   3.700
55918W        W21079  38.940   7.646  12.992
55919W        W21080  23.634  31.329  13.466
55920W        W21081  42.832  19.632  14.384
55921W        W21082   0.356  37.391   3.114
55922W        W21083  22.645   7.015   0.169
55923W        W21084  22.566  31.064  10.914
55924W        W21085  18.777  14.158   1.340
55925W        W21086  42.851  31.985   1.278
55926W        W21087  32.102  10.800   3.885
55927W        W21088  20.590  33.151  13.028
55928W        W21089  16.562  44.586   3.312
55929W        W21090  18.620  42.021  13.497
55930W        W21091  28.598  28.334  10.729
55931W        W21092  23.157  32.381  12.871
55932W        W21093  24.011  10.108  10.709
55933W        W21094  23.125  31.424   4.690
55934W        W21095  35.148  12.325  12.783
55935W        W21096  34.489  40.389   0.736
55936W        W21097  36.904  17.656   1.817
55937W        W21098  42.858  25.729   4.535
55938W        W21099  33.519  34.760  12.425
55939W        W21100  35.121   4.838   4.219
55940W        W21101  29.080   0.065  14.803
55941W        W21102  42.707  35.251   1.180
55942W        W21103  31.253  17.927   2.637
55943W        W21104   1.986   0.487  12.183
55944W        W21105   3.761  15.106  12.027
55945W        W21106  26.521  26.839   0.731
55946W        W21107  14.210  20.687   2.387
55947W        W21108  44.357   3.694  14.872
55948W        W21109  26.737  41.279  14.828
55949W        W21110  17.874  43.347  11.655
55950W        W21111  39.375  32.994   0.773
55951W        W21112  38.909  14.834  11.064
55952W        W21113   9.736   9.774  10.761
55953W        W21114   9.934  32.563   3.733
55954W        W21115  17.136  17.059   1.287
55955W        W21116   1.089  23.817  11.105
55956W        W21117  31.451  20.572   4.932
55957W        W21118  17.303  35.367   4.077
55958W        W21119   9.371  19.532   1.518
55959W        W21120   8.972  12.777  14.386
55960W        W21121  13.574  26.722   0.594
55961W        W21122  44.302   1.546  12.681
55962W        W21123  35.556  30.615  14.803
55963W        W21124  38.161  17.158  12.101
55964W        W21125  29.645  35.445   4.340
55965W        W21126  37.324  34.924  10.795
55966W        W21127   6.232   3.349  14.366
55967W        W21128   2.961  31.521   2.744
55968W        W21129  10.243  39.660   2.248
55969W        W21130  28.413  37.936  12.023
55970W        W21131  27.406  21.039  13.519
55971W        W21132   6.464  34.334  13.789
55972W        W21133  24.980   9.285   4.129
55973W        W21134   9.519  32.834  12.949
55974W        W21135  41.995  26.714   0.426
55975W        W21136  24.722   9.236  14.842
55976W        W21137   6.221  15.690   3.403
55977W        W21138  11.628  16.340   1.878
55978W        W21139  29.632  39.327  11.283
55979W        W21140   5.706  19.675   1.478
55980W        W21141  15.509  43.751  14.383
55981W        W21142  32.621  39.983   2.293
55982W        W21143  38.494   3.761  10.423
55983W        W21144  41.000  26.098   4.767
55984W        W21145  14.077  21.663   2.351
55985W        W21146  25.552  40.746   3.654
55986W        W21147  31.392  16.085  11.753
55987W        W21148  25.612  30.746   3.622
55988W        W21149  26.064  34.032   0.943
55989W        W21150  33.157  23.764   1.521
55990W        W21151  33.126   8.630   0.124
55991W        W21152  14.355  10.236   4.568
55992W        W21153  20.665  38.901   1.736
55993W        W21154  22.811   1.818  13.551
55994W        W21155   7.166  29.562  13.795
55995W        W21156  24.411  24.209   4.201
55996W        W21157  43.272  30.911   4.663
55997W        W21158  29.382   4.371   2.637
55998W        W21159  10.891  35.559  12.038
55999W        W21160  30.745  39.470  11.963
56000W        W21161  15.550   2.902   2.785
56001W        W21162  24.644  27.376  10.750
56002W        W21163  38.178  37.018   4.474
56003W        W21164   6.929  13.366  12.125
56004W        W21165   2.749  26.215  12.862
56005W        W21166  26.985  43.016   4.975
56006W        W21167  12.275   1.957  14.051
56007W        W21168  22.041  29.194  11.227
56008W        W21169  42.693  29.958  11.566
56009W        W21170  30.632  16.319   2.834
56010W        W21171  24.666   2.348  12.182
56011W        W21172  15.240  43.251  12.599
56012W        W21173  23.079   8.189   3.394
56013W        W21174   9.156   4.630  13.911
56014W        W21175  43.563  23.481   2.129
56015W        W21176  16.107   4.960  11.837
56016W        W21177   9.791  33.080  13.534
56017W        W21178  31.820  25.139  12.847
56018W        W21179  13.368  32.461   0.355
56019W        W21180  27.542  34.139  14.263
56020W        W21181  18.565   6.716   4.531
56021W        W21182  10.681  23.974   3.601
56022W        W21183  40.878  19.848   3.818
56023W        W21184  34.134  29.583   3.254
56024W        W21185  28.508   8.420  12.178
56025W        W21186   2.504  11.354  13.950
56026W        W21187  32.452  32.658   3.279
56027W        W21188  28.842  17.709   4.166
56028W        W21189  29.967  29.680  14.797
56029W        W21190  35.058  35.761   3.694
56030W        W21191  10.442   8.009  14.812
56031W        W21192   7.245  20.408  14.512
56032W        W21193  30.020  16.144   4.597
56033W        W21194  41.289  37.310  10.694
56034W        W21195  35.858  42.506  11.112
56035W        W21196  19.322  15.144  13.439
56036W        W21197  10.628   3.819  14.860
56037W        W21198  42.294   6.593   2.414
56038W        W21199   8.161  28.131  13.574
56039W        W21200  26.074  22.618   1.909
56040W        W21201  36.026  36.121  10.379
56041W        W21202  28.589  36.788  14.976
56042W        W21203  31.637  12.796  13.513
56043W        W21204  41.108  41.427   3.827
56044W        W21205  36.451   3.509  14.497
56045W        W21206  23.965  17.482  12.953
56046W        W21207   8.978  19.023  14.731
56047W        W21208  14.257  30.443   1.383
56048W        W21209  32.242  43.468  14.746
56049W        W21210  44.294   4.454  11.979
56050W        W21211  29.564  39.575  13.446
56051W        W21212  25.128  42.965  13.841
56052W        W21213  17.035  18.114  14.955
56053W        W21214  31.140  15.308  10.590
56054W        W21215  28.125  14.032   3.166
56055W        W21216  40.852  31.096   4.320
56056W        W21217   4.803  16.279   2.202
56057W        W21218  31.443  35.583   2.845
56058W        W21219  34.644   5.776  13.377
56059W        W21220  13.340  15.168   2.341
56060W        W21221   1.480  31.164   2.276
56061W        W21222  18.624  36.056  10.296
56062W        W21223  10.217  36.057  10.780
56063W        W21224  39.382  16.319  12.434
56064W        W21225  44.760  28.982   1.248
56065W        W21226  19.268  37.474   3.860
56066W        W21227  23.475  10.231   1.933
56067W        W21228   0.991  26.931   0.489
56068W        W21229  11.309  23.687   3.827
56069W        W21230  38.941   7.703  14.908
56070W        W21231   7.136   1.000   1.382
56071W        W21232  19.505   8.146   2.441
56072W        W21233  17.589  42.275  14.394
56073W        W21234  14.328   3.206   3.825
56074W        W21235  19.988  43.014  12.044
56075W        W21236  27.609  31.683   2.455
56076W        W21237  13.788  36.925  13.263
56077W        W21238  16.825  33.811   0.947
56078W        W21239  37.528  36.488   0.690
56079W        W21240  21.309  33.806  10.706
56080W        W21241  35.608  17.232  14.975
56081W        W21242  42.120  17.879  13.046
56082W        W21243  27.065  13.366  14.757
56083W        W21244   2.520   9.964  12.607
56084W        W21245   0.036  35.332   0.604
56085W        W21246  25.608  19.307  12.600
56086W        W21247  25.263  41.974   2.351
56087W        W21248  44.532  43.172   4.555
56088W        W21249  33.731  34.414   1.715
56089W        W21250  25.971   3.821   0.728
56090W        W21251  22.265  35.355  13.917
56091W        W21252   0.721  16.447  12.412
56092W        W21253  44.522  13.212   1.836
56093W        W21254  10.357  29.316  12.913
56094W        W21255   1.528  11.205  14.736
56095W        W21256  17.801   3.171   2.664
56096W        W21257   3.877  34.560   2.360
56097W        W21258  38.832   0.508  13.421
56098W        W21259  16.823  44.883  14.168
56099W        W21260  32.473  36.874  10.640
56100W        W21261  42.731  34.129  11.032
56101W        W21262  22.290  39.881   9.933
56102W        W21263  17.903   1.788  10.746
56103W        W21264  38.695  24.086   2.285
56104W        W21265   0.444  38.016  14.456
56105W        W21266   4.385  34.193   3.138
56106W        W21267  34.550  15.797  12.462
56107W        W21268  31.126  14.685   1.354
56108W        W21269  36.314  13.571  11.506
56109W        W21270  10.880  31.108   0.050
56110W        W21271   0.326   2.753   4.596
56111W        W21272  25.168   4.198   1.337
56112W        W21273  41.968  33.837   2.368
56113W        W21274  38.533   7.287   3.596
56114W        W21275  26.684  43.204  10.720
56115W        W21276  26.640  41.996   1.396
56116W        W21277  23.505  24.200   4.156
56117W        W21278  29.579  38.299  11.406
56118W        W21279  24.495  17.878   0.743
56119W        W21280   0.352   3.182  14.400
56120W        W21281  27.697  37.356   2.625
56121W        W21282  41.326  15.405   1.962
56122W        W21283  22.798  11.722   3.621
56123W        W21284  39.776   2.893  11.193
56124W        W21285  32.385  21.146   0.828
56125W        W21286  31.398   0.902  11.226
56126W        W21287  25.194  28.213   2.362
56127W        W21288   6.742  40.508  14.512
56128W        W21289  10.178   5.618   2.448
56129W        W21290  23.734  24.725   1.232
56130W        W21291   2.595  25.945  13.407
56131W        W21292  33.464  35.965  13.427
56132W        W21293  40.942  35.580  10.138
56133W        W21294   3.312  16.209  14.493
56134W        W21295   9.283   6.413   4.611
56135W        W21296  26.076   6.501   2.562
56136W        W21297  42.335   6.123   4.490
56137W        W21298   3.179  38.849   9.980
56138W        W21299  35.188  32.486  12.909
56139W        W21300  24.498  44.445  13.137
56140W        W21301  20.882  38.905   4.137
56141W        W21302   7.294   4.451  12.424
56142W        W21303  12.589  30.023  12.144
56143W        W21304  16.644  30.521   1.134
56144W        W21305  30.489  14.125  14.134
56145W        W21306  35.189  33.122   0.724
56146W        W21307  44.122   6.918   5.032
56147W        W21308  11.576  10.861  12.852
56148W        W21309   2.045  15.235   3.357
56149W        W21310  33.490  15.127  14.882
56150W        W21311  18.241   5.021  10.617
56151W        W21312  18.298   3.513  14.579
56152W        W21313  38.374  33.361   1.935
56153W        W21314  13.157  33.469  13.914
56154W        W21315   6.084  28.044   5.247
56155W        W21316  12.612  43.780  13.386
56156W        W21317   2.912   6.286  11.437
56157W        W21318  24.596  15.362   0.216
56158W        W21319  35.034   0.775   4.885
56159W        W21320  20.574  22.678  12.479
56160W        W21321   9.126  13.788   4.643
56161W        W21322  34.575  16.237  13.637
56162W        W21323   8.390  12.819  11.631
56163W        W21324  24.688  15.706  14.361
56164W        W21325  27.531  30.252  10.659
56165W        W21326  35.229  12.807  12.652
56166W        W21327  18.124  30.503  11.590
56167W        W21328  42.785  37.889  13.520
56168W        W21329  14.189  22.104  13.448
56169W        W21330  16.552   8.695   3.617
56170W        W21331  28.662  30.035   2.220
56171W        W21332  38.519   3.171  13.112
56172W        W21333  17.003  13.765   4.635
56173W        W21334  31.634  32.760  13.529
56174W        W21335  28.630  40.162  13.337
56175W        W21336  22.150  12.609  13.062
56176W        W21337  12.658   5.174   1.485
56177W        W21338  22.028  44.823  14.445
56178W        W21339  44.314  31.986   3.212
56179W        W21340  21.592  36.474  14.299
56180W        W21341  13.849  32.818   4.589
56181W        W21342  40.579   5.041  14.865
56182W        W21343  41.030  13.640   3.144
56183W        W21344  10.457  10.390  10.584
56184W        W21345  23.075  26.001  12.174
56185W        W21346   4.819  33.356   0.372
56186W        W21347  14.089  15.942  12.504
56187W        W21348   9.173  11.247   3.708
56188W        W21349   7.649  33.043   0.330
56189W        W21350  41.086  27.684   4.579
56190W        W21351  21.333   7.496  11.229
56191W        W21352  36.354  42.443  11.202
56192W        W21353  33.071   5.840  14.775
56193W        W21354  24.999  16.521  11.448
56194W        W21355  42.926  41.733   3.461
56195W        W21356  43.577   8.356   4.312
56196W        W21357  27.142  19.180  14.273
56197W        W21358  40.476  11.415   0.460
56198W        W21359  34.668  29.711   3.302
56199W        W21360   1.905   9.455   4.167
56200W        W21361  26.294  27.425  10.711
56201W        W21362   6.250   4.308  12.369
56202W        W21363  18.346  27.948   1.047
56203W        W21364  30.251  24.227  11.632
56204W        W21365  13.119  12.838  10.599
56205W        W21366  29.234  22.305   5.007
56206W        W21367   4.454  19.141   0.759
56207W        W21368  24.952  32.553  12.507
56208W        W21369  16.846  36.212  11.754
56209W        W21370  40.328  19.346  13.581
56210W        W21371  14.699  10.867  13.623
56211W        W21372  36.357  35.959   2.436
56212W        W21373   0.282  40.252   0.090
56213W        W21374  26.771  16.759  11.993
56214W        W21375  11.188  33.127   0.692
56215W        W21376  17.973  34.788  14.803
56216W        W21377   2.700  25.127  11.900
56217W        W21378  35.626   3.947   2.435
56218W        W21379  14.666  19.904  10.930
56219W        W21380  40.321  42.425   4.376
56220W        W21381  43.885   0.649   2.211
56221W        W21382   8.671  22.597   2.870
56222W        W21383   6.908  11.190   4.496
56223W        W21384  34.932  27.377   1.849
56224W        W21385  29.025  31.126   0.311
56225W        W21386  20.994   2.198   3.125
56226W        W21387  36.334  30.613  14.430
56227W        W21388  39.420  41.271   3.207
56228W        W21389   0.044  44.831  14.324
56229W        W21390   0.753  39.983  10.023
56230W        W21391  23.256  21.574   3.258
56231W        W21392  13.088   3.075   2.294
56232W        W21393  29.389  33.582   4.508
56233W        W21394  30.504   4.629  12.091
56234W        W21395  33.092   6.352  14.696
56235W        W21396   6.709  19.124  13.796
56236W        W21397  35.989  36.175  12.643
56237W        W21398  28.026   1.452   3.499
56238W        W21399  37.661  25.789  13.493
56239W        W21400  23.658   8.268  14.192
56240W        W21401  12.618  14.612   3.675
56241W        W21402   7.449  18.497   2.387
56242W        W21403  25.571  31.340  14.968
56243W        W21404  12.673  44.662  14.013
56244W        W21405  27.424  40.527   4.460
56245W        W21406   8.073  40.253  12.672
56246W        W21407  26.366  18.822  12.629
56247W        W21408  27.245  14.336  11.963
56248W        W21409   1.870  36.689  11.135
56249W        W21410  41.425  24.506  14.028
56250W        W21411  41.824   4.851  12.978
56251W        W21412  31.368  35.948   0.448
56252W        W21413  22.657  36.262  12.168
56253W        W21414  30.814  33.130   3.868
56254W        W21415   5.650  17.332   3.674
56255W        W21416  16.390  30.820   3.907
56256W        W21417  34.993  32.815   0.361
56257W        W21418   4.366  32.929  12.924
56258W        W21419   8.157  14.767  13.752
56259W        W21420  42.349  18.546   4.718
56260W        W21421  28.464   1.871  11.991
56261W        W21422  10.933  13.891  12.064
56262W        W21423  18.052  44.815  12.806
56263W        W21424   4.686   1.793  12.244
56264W        W21425  38.076  36.459   2.744
56265W        W21426  22.318  20.613   5.397
56266W        W21427  29.937  18.645   3.530
56267W        W21428  25.211   7.313  10.997
56268W        W21429   2.549  14.078   1.930
56269W        W21430  33.324  27.989  13.880
56270W        W21431   5.201  27.153  14.791
56271W        W21432   6.565  37.354   1.911
56272W        W21433   7.068  23.516   4.999
56273W        W21434   1.161  29.158   3.523
56274W        W21435   4.895  22.163  12.614
56275W        W21436  44.208  15.277   3.682
56276W        W21437  18.133  31.461  14.114
56277W        W21438  42.734  43.593  13.854
56278W        W21439  31.367   7.623   1.864
56279W        W21440  20.819  22.434   2.322
56280W        W21441  20.470   0.337   0.703
56281W        W21442  20.865  12.581   1.245
56282W        W21443  38.809  18.719   0.817
56283W        W21444   9.855  18.044  10.466
56284W        W21445  27.915   3.392   1.380
56285W        W21446   2.544   7.212  11.743
56286W        W21447  38.788  42.910  13.823
56287W        W21448   1.261  13.601   2.160
56288W        W21449  20.805  12.984   4.654
56289W        W21450  34.300   8.558   1.070
56290W        W21451   3.306  35.540   1.735
56291W        W21452  33.599   1.888   1.769
56292W        W21453  23.126   6.429  14.584
56293W        W21454  17.959  13.374  12.561
56294W        W21455  27.042  26.264  11.211
56295W        W21456   5.543  27.552  11.624
56296W        W21457  13.046  26.992   1.873
56297W        W21458   2.928   3.955   3.227
56298W        W21459  27.142  28.369  10.783
56299W        W21460  26.270  38.792  13.436
56300W        W21461  11.077  25.015  10.472
56301W        W21462  18.166  13.245   4.264
56302W        W21463   0.050   8.382  10.750
56303W        W21464  39.040   6.747   1.779
56304W        W21465  10.755  38.920   0.991
56305W        W21466  32.981   5.315   4.261
56306W        W21467  19.334  11.339  14.202
56307W        W21468  11.945   6.290   4.560
56308W        W21469  21.485  17.602   4.207
56309W        W21470   8.156  29.210  12.776
56310W        W21471  26.294  24.563  10.300
56311W        W21472  17.535  36.359  13.009
56312W        W21473  12.205  29.458  12.006
56313W        W21474  16.623   3.816  11.476
56314W        W21475  23.006  38.846   4.706
56315W        W21476   4.084   9.844   3.207
56316W        W21477   3.449  14.663  13.951
56317W        W21478  36.959  16.732   2.256
56318W        W21479  26.492  21.118   5.076
56319W        W21480  11.806  34.965  10.688
56320W        W21481  29.410   7.678   1.743
56321W        W21482   8.803   7.123   4.577
56322W        W21483  37.141  36.617  11.182
56323W        W21484  25.647  40.564   4.101
56324W        W21485   5.954   1.524   0.714
56325W        W21486  34.898   9.369   2.225
56326W        W21487   9.140  17.136  11.650
56327W        W21488  12.040   5.943  11.122
56328W        W21489  22.803  28.645  11.645
56329W        W21490  22.033  15.471   3.392
56330W        W21491  39.814  32.922  13.848
56331W        W21492  38.618  41.443  13.020
56332W        W21493  29.236   8.763  11.016
56333W        W21494  20.019  39.709   0.363
56334W        W21495   2.320  10.161   4.670
56335W        W21496   1.217  33.980  14.808
56336W        W21497  13.659   0.092   0.966
56337W        W21498  18.467  27.565   4.227
56338W        W21499  29.485  38.541   3.610
56339W        W21500  39.926  29.974   4.535
56340W        W21501  43.964  12.980  11.585
56341W        W21502   4.253  34.292  10.761
56342W        W21503  35.627  33.125  11.952
56343W        W21504  20.208   0.934  14.790
56344W        W21505  42.833  37.905  14.045
56345W        W21506  11.047   2.758   3.702
56346W        W21507  33.502  13.298   3.649
56347W        W21508  44.179  17.014   0.458
56348W        W21509  22.140  10.078  11.210
56349W        W21510  37.066   9.130   3.415
56350W        W21511  42.586   3.858   2.656
56351W        W21512  21.064  23.800   3.126
56352W        W21513  23.967  30.631  11.667
56353W        W21514  29.112  23.754   2.184
56354W        W21515  15.302  27.659   2.169
56355W        W21516  22.230  40.859  11.649
56356W        W21517  38.793   7.412  14.299
56357W        W21518  17.677   0.134   0.212
56358W        W21519  24.534  35.945   0.488
56359W        W21520  34.848  36.072   2.413
56360W        W21521  11.966  11.132  11.977
56361W        W21522  35.399   0.209  10.355
56362W        W21523  40.600   0.261  11.093
56363W        W21524   9.425  35.379  12.920
56364W        W21525  44.638   0.569   1.756
56365W        W21526  22.196   8.106  11.152
56366W        W21527   5.195  22.987  12.375
56367W        W21528   7.005  22.037  11.309
56368W        W21529   2.064  32.148  11.076
56369W        W21530  41.796   9.133   0.057
56370W        W21531  32.974  42.726  13.884
56371W        W21532  29.131  37.477   0.037
56372W        W21533  25.386   6.392   0.016
56373W        W21534   3.413   6.835   1.873
56374W        W21535  28.560  38.077   2.108
56375W        W21536  19.548   8.444  13.084
56376W        W21537  19.317   0.022   4.076
56377W        W21538  34.117   5.448   2.840
56378W        W21539  17.280   0.710  12.995
56379W        W21540   8.743   4.245   4.581
56380W        W21541  12.317  32.004   3.150
56381W        W21542   2.323  21.925  10.660
56382W        W21543   2.810  17.191   0.334
56383W        W21544  30.078  17.580  11.013
56384W        W21545  44.867   8.150  12.016
56385W        W21546   9.806   6.472   4.665
56386W        W21547  23.173  39.279   1.248
56387W        W21548  20.152  36.039  14.487
56388W        W21549  26.783  34.553  10.904
56389W        W21550  13.325  39.725   2.838
56390W        W21551  26.268  40.484   2.724
56391W        W21552  28.811  18.751   0.124
56392W        W21553  23.154  42.982   0.601
56393W        W21554  31.824  42.340   2.262
56394W        W21555  44.064  10.650   3.761
56395W        W21556  14.137  17.227  13.479
56396W        W21557  19.656   2.588   2.757
56397W        W21558  11.851  19.465  14.284
56398W        W21559  42.878  11.572   0.033
56399W        W21560   4.046  24.530   2.916
56400W        W21561  26.568   7.258   1.629
56401W        W21562   6.785  17.203   1.903
56402W        W21563  43.459  27.668  14.024
56403W        W21564  31.254   7.204   4.669
56404W        W21565  16.099   1.403  12.092
56405W        W21566  42.386  28.889  12.173
56406W        W21567   7.905   4.726   0.716
56407W        W21568  16.905  15.025  10.648
56408W        W21569  40.692  19.774  12.811
56409W        W21570   1.936  27.450   0.449
56410W        W21571  22.778   7.228   1.806
56411W        W21572  20.946  31.520   3.812
56412W        W21573  40.325  34.094  14.789
56413W        W21574  22.002  37.482   4.824
56414W        W21575  21.232  25.117  13.865
56415W        W21576   1.293   2.356   4.346
56416W        W21577  22.738  13.945  11.004
56417W        W21578  16.210   1.792   3.344
56418W        W21579   4.472  43.221   4.331
56419W        W21580  29.532   8.176  10.741
56420W        W21581   1.749   6.694   2.183
56421W        W21582   5.912  31.928  13.297
56422W        W21583  22.198  38.999  10.147
56423W        W21584  11.282   4.426   1.183
56424W        W21585   6.953   3.845   0.827
56425W        W21586  22.563  16.149   4.080
56426W        W21587  35.031  24.940   0.283
56427W        W21588  39.547  32.045  10.957
56428W        W21589   1.760  25.666  12.333
56429W        W21590  41.496  28.850   1.641
56430W        W21591   7.883  10.636   0.464
56431W        W21592  11.598  14.762  13.021
56432W        W21593  23.167  12.169   1.000
56433W        W21594   6.433  18.677   1.333
56434W        W21595  14.107  23.846   1.186
56435W        W21596  30.648  19.086   3.614
56436W        W21597  41.245  16.132   4.145
56437W        W21598  12.882   6.647  10.638
56438W        W21599  34.585  22.029   4.211
56439W        W21600  21.226  27.363   1.379
56440W        W21601  34.483  28.974   1.267
56441W        W21602   5.858  31.546   4.998
56442W        W21603  36.254  11.704   4.760
56443W        W21604  41.418  33.247  10.716
56444W        W21605  16.210   0.778   0.979
56445W        W21606  29.705  30.939   0.938
56446W        W21607   2.747  29.110   1.201
56447W        W21608  10.099   6.435   1.902
56448W        W21609  14.402  25.559  12.837
56449W        W21610  27.472  42.537  11.562
56450W        W21611  27.388   5.799  14.291
56451W        W21612  26.572  14.558  13.560
56452W        W21613  37.978  29.970  12.961
56453W        W21614  30.393  13.401   1.856
56454W        W21615   7.326  29.710  12.868
56455W        W21616  20.593  11.088  11.580
56456W        W21617  12.273   7.654  12.445
56457W        W21618  35.660  29.013  10.450
56458W        W21619  23.743   7.031   1.737
56459W        W21620  26.961   1.410   2.846
56460W        W21621  37.062  41.614   4.458
56461W        W21622  17.321  30.542  12.109
56462W        W21623   8.284   0.714  11.594
56463W        W21624   1.408  24.915  12.614
56464W        W21625  17.272  24.572  13.585
56465W        W21626  16.514   1.736   0.108
56466W        W21627  38.408   4.159  12.833
56467W        W21628   3.931  35.009   3.635
56468W        W21629   0.212  42.760   0.460
56469W        W21630  17.553  37.055   4.142
56470W        W21631  34.443  32.463   4.213
56471W        W21632   7.563  21.289   2.333
56472W        W21633  41.095  37.422   1.270
56473W        W21634  17.528  22.418   4.907
56474W        W21635   0.859   0.437  11.711
56475W        W21636  31.571   9.465  14.592
56476W        W21637   8.336  35.371   2.352
56477W        W21638  25.495  41.436   2.293
56478W        W21639  37.278  29.888   1.291
56479W        W21640  39.039   7.214  11.285
56480W        W21641   3.175  20.369  14.249
56481W        W21642  25.237  23.252   3.174
56482W        W21643   3.453  37.616  14.219
56483W        W21644   9.266  30.291   2.706
56484W        W21645  31.876  21.130  12.066
56485W        W21646  39.338  20.184  12.654
56486W        W21647  14.624   3.972  13.970
56487W        W21648  43.988   1.766   2.564
56488W        W21649   2.898  21.801  11.475
56489W        W21650  10.198   5.747  10.585
56490W        W21651  21.029   5.329  12.726
56491W        W21652  10.261  19.276   2.733
56492W        W21653  14.076  41.790   1.833
56493W        W21654  42.388  27.411   2.762
56494W        W21655   9.075  25.504   4.081
56495W        W21656  36.969   8.808  10.793
56496W        W21657  42.122  21.326  13.011
56497W        W21658  30.800   3.880  11.652
56498W        W21659  34.392   6.665  14.359
56499W        W21660  12.850  30.193   0.013
56500W        W21661  34.243  31.927   3.724
56501W        W21662  12.742  33.458  10.589
56502W        W21663  16.481  42.757   0.338
56503W        W21664  28.645   3.740  13.827
56504W        W21665  15.910  28.289   4.252
56505W        W21666  12.971  32.440  14.408
56506W        W21667  38.995  37.888  13.897
56507W        W21668  20.523  28.123  11.577
56508W        W21669   4.686  22.076   4.195
56509W        W21670  43.374  12.335   1.796
56510W        W21671  24.297   2.935  11.101
56511W        W21672  22.664  14.055  14.906
56512W        W21673  14.791  20.582   4.110
56513W        W21674   7.858  42.315  10.706
56514W        W21675  43.918  14.604   0.441
56515W        W21676  10.268  13.808  10.645
56516W        W21677  21.659  35.477   0.784
56517W        W21678  33.396  37.811  12.429
56518W        W21679  32.164  25.199   0.366
56519W        W21680  11.525  17.058   1.028
56520W        W21681  40.411  28.263  11.261
56521W        W21682   8.692  41.562  14.911
56522W        W21683  24.474  41.523  12.541
56523W        W21684   3.306  19.804  11.150
56524W        W21685  12.444  29.432  11.488
56525W        W21686  28.835  39.664   2.854
56526W        W21687  15.672  42.835   3.506
56527W        W21688  42.021  31.521  10.894
56528W        W21689  43.319  34.938   2.214
56529W        W21690   4.755  11.607  11.578
56530W        W21691   8.703  11.665   3.696
56531W        W21692  31.463  16.321  11.308
56532W        W21693  18.911  38.217  11.098
56533W        W21694  42.252  11.607  11.205
56534W        W21695   0.183   0.653  11.097
56535W        W21696  20.707  43.537   2.007
56536W        W21697   1.683  11.330   0.666
56537W        W21698  20.097  29.153   3.714
56538W        W21699   5.651   7.197   4.671
56539W        W21700  28.192   0.178  14.887
56540W        W21701  40.780  25.159   3.257
56541W        W21702  41.447  39.782   2.346
56542W        W21703  20.643  11.602  11.629
56543W        W21704  33.348  22.626   0.657
56544W        W21705  37.216  17.973  12.905
56545W        W21706  16.706   2.510   3.408
56546W        W21707  10.228  41.016   3.736
56547W        W21708  33.763  17.338   2.327
56548W        W21709  15.565  18.712  13.926
56549W        W21710  37.905  20.025  13.404
56550W        W21711  32.813  34.590  10.952
56551W        W21712  34.482  12.271  12.489
56552W        W21713  16.749   8.484  11.217
56553W        W21714  34.479  37.924  11.563
56554W        W21715  33.622  14.653   1.729
56555W        W21716  13.049  26.413  14.798
56556W        W21717   5.424   7.179   2.971
56557W        W21718  21.587  42.346  13.021
56558W        W21719  18.214   2.290   3.774
56559W        W21720   2.195  10.697   4.673
56560W        W21721  14.227   9.426   2.472
56561W        W21722   7.773  21.034  10.874
56562W        W21723  16.305  37.590  13.609
56563W        W21724   0.645  13.147   0.787
56564W        W21725   7.184  31.711  14.511
56565W        W21726   6.148  34.468   2.230
56566W        W21727  13.275  25.411   4.062
56567W        W21728  27.112  20.593  13.559
56568W        W21729  24.693   0.173   4.127
56569W        W21730   6.760  23.236  14.473
56570W        W21731   6.806  23.266   3.217
56571W        W21732  33.500  39.554  13.090
56572W        W21733  43.283  41.099  12.565
56573W        W21734  32.893  44.101  10.256
56574W        W21735  28.666  30.295  14.907
56575W        W21736  36.165  38.872  11.141
56576W        W21737  15.885  35.371   0.818
56577W        W21738  19.040  17.840   1.807
56578W        W21739  32.981  37.099  13.658
56579W        W21740   0.412  36.145  14.344
56580W        W21741  17.753  10.325  13.930
56581W        W21742   5.451  27.555  12.599
56582W        W21743  24.079  41.803  13.953
56583W        W21744  43.897  12.186  13.522
56584W        W21745   5.936  34.137   0.969
56585W        W21746  27.930  19.265  11.997
56586W        W21747  17.154  28.555   2.886
56587W        W21748  29.055  16.616  12.066
56588W        W21749  34.009  22.617  14.037
56589W        W21750  15.077  22.168  13.370
56590W        W21751  10.313   5.732  11.108
56591W        W21752   7.882  23.636  13.017
56592W        W21753  34.984  10.934  12.625
56593W        W21754   6.773   5.075  12.038
56594W        W21755   4.969  36.095   3.648
56595W        W21756   6.509  34.876   0.027
56596W        W21757  10.129  31.516  12.592
56597W        W21758  39.456  42.077   0.087
56598W        W21759  19.943   8.810   0.427
56599W        W21760  24.503  13.767  11.627
56600W        W21761  23.186  20.244   1.114
56601W        W21762  25.542  18.733   4.101
56602W        W21763  11.550  13.323   4.869
56603W        W21764  14.173   9.258   1.834
56604W        W21765   7.164  23.856  12.110
56605W        W21766  33.383  27.917  10.776
56606W        W21767  38.556   9.807   2.784
56607W        W21768  33.964  31.582  11.039
56608W        W21769  15.429  22.954   2.831
56609W        W21770  24.646  37.988  13.314
56610W        W21771  17.722  14.220   0.433
56611W        W21772  21.288  39.056  13.556
56612W        W21773  27.059  44.223   1.480
56613W        W21774  39.807  38.930   9.740
56614W        W21775   4.692  32.103   0.914
56615W        W21776  35.906  29.440  10.895
56616W        W21777  28.001   8.736   4.911
56617W        W21778  25.579  42.480  13.401
56618W        W21779  18.363  12.887   0.352
56619W        W21780  16.799  34.089  13.634
56620W        W21781  19.299  33.382   4.535
56621W        W21782  35.890  25.058   4.369
56622W        W21783  32.192   3.703   4.579
56623W        W21784  34.959   6.798   1.797
56624W        W21785  39.492   0.012   3.710
56625W        W21786  28.661  27.643   3.188
56626W        W21787  23.644  36.632  13.848
56627W        W21788  14.343  28.733  12.519
56628W        W21789  40.845  31.035  12.101
56629W        W21790  42.766   7.289  12.893
56630W        W21791  34.797  39.825  12.027
56631W        W21792  24.228  35.528  14.506
56632W        W21793  17.047  25.708   0.704
56633W        W21794  37.572   5.231   1.919
56634W        W21795   2.829  33.929  10.377
56635W        W21796   7.220  36.567   4.654
56636W        W21797  29.731  13.210   0.906
56637W        W21798   9.367  17.154  10.654
56638W        W21799  36.043  43.382  14.290
56639W        W21800   4.991  19.645  13.837
56640W        W21801  26.012  18.014  12.925
56641W        W21802  44.966  27.950  11.511
56642W        W21803  18.199  25.532   2.004
56643W        W21804  31.381  37.648   3.649
56644W        W21805  39.808   1.929  12.695
56645W        W21806  24.682  35.276  12.878
56646W        W21807   1.381  33.851  11.163
56647W        W21808  26.061  19.742  13.628
56648W        W21809  10.267  22.344  12.865
56649W        W21810  35.608  15.215   1.164
56650W        W21811  33.699  17.744   0.284
56651W        W21812  11.885  34.185  14.439
56652W        W21813   9.929   4.143  13.950
56653W        W21814  40.780   8.167   2.795
56654W        W21815  35.814   3.831   1.127
56655W        W21816  16.477  44.430  12.546
56656W        W21817  33.104   3.372  13.426
56657W        W21818   9.898  36.439  10.654
56658W        W21819  17.989  14.544  10.255
56659W        W21820   8.820  34.372  13.910
56660W        W21821  18.493   1.793   3.826
56661W        W21822   6.673  22.739   3.739
56662W        W21823  34.571  37.577   0.997
56663W        W21824  18.527  28.860  14.454
56664W        W21825  17.473  15.711   3.307
56665W        W21826   5.834  42.577  13.373
56666W        W21827  36.939  11.076  12.226
56667W        W21828  16.333  42.594  13.336
56668W        W21829  13.133   5.321  10.642
56669W        W21830  37.764  31.481   3.307
56670W        W21831  31.943  12.459   4.201
56671W        W21832  13.284  18.654  10.873
56672W        W21833  41.557   9.356  14.017
56673W        W21834  23.287  13.360   0.714
56674W        W21835   4.166   8.092  11.999
56675W        W21836  20.636  11.622   0.438
56676W        W21837   5.270  39.979   1.132
56677W        W21838   7.451  36.253  14.396
56678W        W21839   6.019  28.987   0.761
56679W        W21840  12.075  27.401   4.182
56680W        W21841  35.783  20.267  13.109
56681W        W21842  13.286  43.089   1.428
56682W        W21843   7.606  17.202   1.756
56683W        W21844  42.370  16.141   3.402
56684W        W21845  36.853  24.148  12.331
56685W        W21846  13.875   4.222   3.082
56686W        W21847  30.702  35.125  11.226
56687W        W21848  27.436   3.370  14.585
56688W        W21849  24.356  29.163  10.976
56689W        W21850  31.732  26.184   0.804
56690W        W21851  24.067  24.156   4.609
56691W        W21852   2.413  23.065   2.486
56692W        W21853  36.289   4.408   4.149
56693W        W21854  15.211  11.440   4.227
56694W        W21855   6.856  41.454  14.760
56695W        W21856   6.031  24.979  11.531
56696W        W21857  16.105  35.816  11.899
56697W        W21858  35.101  34.068   4.545
56698W        W21859  20.114  29.183   0.007
56699W        W21860  17.282   0.033   2.380
56700W        W21861  34.189  11.408  12.342
56701W        W21862  31.230   1.352   3.692
56702W        W21863  43.885  24.989   3.355
56703W        W21864  25.473  31.301   4.286
56704W        W21865   9.932  23.297  10.949
56705W        W21866  43.518  17.055  14.822
56706W        W21867   8.385   8.094   4.184
56707W        W21868  11.675   5.060  10.069
56708W        W21869   9.742  32.390   4.650
56709W        W21870  20.824   1.074   3.117
56710W        W21871  22.021  24.582   1.801
56711W        W21872   9.796  13.570  10.747
56712W        W21873  11.378   4.138   3.135
56713W        W21874  31.587   6.063  12.662
56714W        W21875  27.880  36.599  10.728
56715W        W21876  33.116  33.314  14.607
56716W        W21877  24.046  16.589  11.624
56717W        W21878   9.714  11.259  12.377
56718W        W21879  39.218   0.043  14.921
56719W        W21880   2.930  35.916   1.803
56720W        W21881  27.661  19.979  11.194
56721W        W21882  27.569   0.071  10.649
56722W        W21883  17.098  26.203  11.539
56723W        W21884  33.817   5.228   0.343
56724W        W21885  36.287  13.248  10.626
56725W        W21886  15.885   0.155   2.241
56726W        W21887   6.165  29.415  12.556
56727W        W21888  24.770  21.597   9.979
56728W        W21889  37.359   1.408  12.074
56729W        W21890  43.372  33.662  11.495
56730W        W21891   3.033   9.861  12.584
56731W        W21892  19.696  32.372  13.439
56732W        W21893  19.091  41.549   0.800
56733W        W21894   5.210  40.421  11.743
56734W        W21895  42.709   4.370   3.194
56735W        W21896  37.464  10.520   1.836
56736W        W21897  15.587  44.000   3.620
56737W        W21898  40.865   9.799   2.040
56738W        W21899   9.476  29.051   3.747
56739W        W21900  20.550  43.005  11.461
56740W        W21901  13.837  22.966   2.413
56741W        W21902  19.791  30.530   4.307
56742W        W21903  22.556  11.542  13.670
56743W        W21904  22.834   8.917   0.262
56744W        W21905  34.351   2.550   2.415
56745W        W21906   7.979   6.814  14.739
56746W        W21907  34.821   6.055  14.832
56747W        W21908  31.342  34.116  11.825
56748W        W21909  32.775  14.404   4.019
56749W        W21910   9.802  16.629  13.137
56750W        W21911  11.809   8.872   0.253
56751W        W21912  20.323  24.461  14.760
56752W        W21913  32.931   1.607   0.199
56753W        W21914  34.378  17.247   3.605
56754W        W21915   0.868  36.446  12.622
56755W        W21916  33.961   2.076   4.598
56756W        W21917  25.741  19.935  10.235
56757W        W21918  14.342  12.346   2.661
56758W        W21919  40.305   7.771   0.296
56759W        W21920   7.703  23.150  13.003
56760W        W21921   7.802  32.262  14.950
56761W        W21922  44.858  22.332   2.450
56762W        W21923  15.570  44.433   4.577
56763W        W21924  35.985  31.851   3.582
56764W        W21925  29.837   6.469  14.706
56765W        W21926  41.869  42.699  12.631
56766W        W21927  40.422  41.513   1.809
56767W        W21928  41.897  30.416  14.138
56768W        W21929   2.744   9.740  14.898
56769W        W21930   6.190  13.313   3.897
56770W        W21931  15.936   8.732   4.485
56771W        W21932  40.929  40.583  13.594
56772W        W21933  22.570  44.448   0.948
56773W        W21934  15.022  13.813   2.198
56774W        W21935  44.895  38.539   3.653
56775W        W21936  16.829  25.174   1.943
56776W        W21937  38.325  10.141  11.595
56777W        W21938   7.360  19.477   1.299
56778W        W21939  14.693  40.890  12.505
56779W        W21940  39.519  20.461   1.352
56780W        W21941  40.233  11.626   0.897
56781W        W21942  33.752   1.834  12.138
56782W        W21943  25.736  34.095  13.794
56783W        W21944  36.166  10.254   0.013
56784W        W21945  32.171   0.505   0.279
56785W        W21946   2.333  33.096  13.851
56786W        W21947  35.330  23.778  13.859
56787W        W21948   8.501  12.301   0.163
56788W        W21949  37.887  31.134   1.679
56789W        W21950  25.452  30.897  13.322
56790W        W21951   2.892  38.318   3.790
56791W        W21952  22.531  35.839  13.428
56792W        W21953  23.643  19.938  14.467
56793W        W21954   1.336  21.195   1.909
56794W        W21955   9.203   1.071  14.382
56795W        W21956  36.621  35.060  14.084
56796W        W21957   1.648  25.669  10.178
56797W        W21958  35.105  13.455   0.066
56798W        W21959   1.661  24.031   1.831
56799W        W21960  16.160  36.909  13.809
56800W        W21961   9.794   8.793   4.394
56801W        W21962  11.681  10.525   4.718
56802W        W21963  12.548  11.192  12.855
56803W        W21964   4.270   1.997   3.285
56804W        W21965  40.322  22.425   4.108
56805W        W21966   0.859  39.583   9.682
56806W        W21967  14.083  12.836  12.050
56807W        W21968  18.011  23.676   3.379
56808W        W21969  10.557  26.047   0.258
56809W        W21970  19.288  37.440   4.945
56810W        W21971  15.513  36.634   3.789
56811W        W21972   0.266  33.354   9.735
56812W        W21973   2.743  19.380   2.261
56813W        W21974   9.839  26.410   2.221
56814W        W21975  30.506  25.517   1.911
56815W        W21976  36.044  21.591   2.724
56816W        W21977  28.281  40.555  13.334
56817W        W21978  25.297   8.628   3.630
56818W        W21979  17.109  21.347   5.038
56819W        W21980   2.963  23.431  12.241
56820W        W21981  27.669  26.237   2.821
56821W        W21982  19.737   8.120   1.958
56822W        W21983  19.491  25.018   1.786
56823W        W21984  42.932  27.616  12.837
56824W        W21985  40.270  23.850   2.617
56825W        W21986  43.574  17.295   3.237
56826W        W21987   8.882  36.955  13.905
56827W        W21988  10.638   2.490   3.600
56828W        W21989   1.840  16.611  13.369
56829W        W21990  36.531  36.934   4.045
56830W        W21991  20.511  28.017   0.394
56831W        W21992  42.914   5.201   2.832
56832W        W21993   4.632  30.865   2.710
56833W        W21994  13.734  28.856  14.767
56834W        W21995  19.122  30.599   4.683
56835W        W21996  34.538  25.758  10.674
56836W        W21997  36.584  38.569   2.863
56837W        W21998   6.900  12.958   1.736
56838W        W21999  38.359  19.194   2.641
56839W        W22000  30.858  26.183  12.553
56840W        W22001  40.921  17.753   4.594
56841W        W22002   3.809   0.564  11.790
56842W        W22003   1.586  31.993   4.990
56843W        W22004  28.073  17.427  12.094
56844W        W22005  10.773  31.194  13.110
56845W        W22006  41.654  30.216   3.207
56846W        W22007   8.746   8.198  10.770
56847W        W22008   2.400  36.526   4.720
56848W        W22009  42.013   0.485  14.301
56849W        W22010  22.062  35.082   1.461
56850W        W22011  27.956   1.915  11.994
56851W        W22012  15.301  22.560   1.450
56852W        W22013  25.980   8.180  12.408
56853W        W22014  24.102  14.335  12.064
56854W        W22015  14.096  26.692   0.641
56855W        W22016  37.669  40.526  10.429
56856W        W22017  16.086   5.854   0.513
56857W        W22018  11.820  30.436   4.664
56858W        W22019   6.365  30.762  10.394
56859W        W22020  25.146  16.458   1.985
56860W        W22021  44.898  16.023   3.615
56861W        W22022  27.187  11.907   3.105
56862W        W22023  44.100  10.188   0.318
56863W        W22024   6.685   8.420  11.526
56864W        W22025   2.387  25.326  10.627
56865W        W22026  34.599  31.484   1.766
56866W        W22027  18.025  12.368  13.310
56867W        W22028  29.684  10.862  10.035
56868W        W22029  11.661  28.128   2.342
56869W        W22030  39.115  27.099  11.675
56870W        W22031  13.124  31.243  13.364
56871W        W22032  24.058  17.250  13.790
56872W        W22033  16.606  35.992  13.548
56873W        W22034  25.365   8.342   0.872
56874W        W22035  11.826  25.658   0.546
56875W        W22036  38.976   4.215   0.044
56876W        W22037  43.289  19.535   2.621
56877W        W22038  14.342  38.838   3.381
56878W        W22039  32.562  29.627  14.768
56879W        W22040   7.201  39.897  14.873
56880W        W22041  33.258  27.625   0.370
56881W        W22042  13.273  13.783   2.695
56882W        W22043   8.998  22.984   3.323
56883W        W22044   3.487  35.310  14.875
56884W        W22045  35.536  39.171   3.621
56885W        W22046  29.507  28.267  11.575
56886W        W22047  24.916   9.188   3.354
56887W        W22048  12.727  37.768   1.361
56888W        W22049  13.738  35.311  11.998
56889W        W22050  39.864  33.818  14.779
56890W        W22051   3.868   7.741  12.848
56891W        W22052  28.410  36.889  12.022
56892W        W22053  22.681  30.897  12.495
56893W        W22054  33.839   1.740   0.885
56894W        W22055  14.818  11.038   1.476
56895W        W22056  14.487  35.935  14.790
56896W        W22057  34.635  42.517   0.817
56897W        W22058   4.874   3.493  11.228
56898W        W22059   3.821   9.419   1.115
56899W        W22060  37.534  26.415  14.644
56900W        W22061  17.099  18.934  11.119
56901W        W22062  24.859  36.359   0.425
56902W        W22063  19.067  43.886   1.948
56903W        W22064  26.655   6.939   0.997
56904W        W22065  10.333  24.705   4.558
56905W        W22066  15.379  20.788   0.990
56906W        W22067  21.892  21.648   2.916
56907W        W22068   2.224   7.022   3.479
56908W        W22069  42.728  20.550  14.426
56909W        W22070  40.321  19.951  12.479
56910W        W22071   5.232  36.056  12.577
56911W        W22072  16.794  32.400  12.141
56912W        W22073   1.371  19.584   0.405
56913W        W22074  11.782  14.612   3.235
56914W        W22075  16.701  26.735  12.294
56915W        W22076  22.408  39.069  11.596
56916W        W22077   5.167  39.225   3.302
56917W        W22078  18.138  17.693   2.158
56918W        W22079  13.372  21.910   0.341
56919W        W22080  28.071  30.730  13.441
56920W        W22081  33.113  36.483  11.265
56921W        W22082  33.469  19.600   0.560
56922W        W22083  11.833  32.954   1.868
56923W        W22084  31.833  41.579  11.382
56924W        W22085  23.643  31.890   3.354
56925W        W22086  13.866  34.040  13.796
56926W        W22087  32.480  29.143  12.972
56927W        W22088  29.938  19.721  14.990
56928W        W22089   5.816  21.517  11.990
56929W        W22090  34.740   1.241   0.949
56930W        W22091  34.152   2.832  14.219
56931W        W22092  21.342  39.867   3.668
56932W        W22093  24.901  41.373   0.677
56933W        W22094  17.780  37.532   0.820
56934W        W22095   4.676  26.730  14.225
56935W        W22096  21.516  21.055  14.243
56936W        W22097  39.834  36.809  11.335
56937W        W22098  37.347  34.629   2.969
56938W        W22099  40.051   6.370  12.529
56939W        W22100   8.058  30.974   1.814
56940W        W22101  30.397   4.917  14.540
56941W        W22102   5.888  31.910  12.488
56942W        W22103   4.057  20.530   1.392
56943W        W22104  20.731  24.665  14.503
56944W        W22105  17.307  37.871   0.224
56945W        W22106  34.891  35.043   3.186
56946W        W22107  39.453  43.886  11.559
56947W        W22108  14.953  32.883  10.755
56948W        W22109  42.009  19.739   1.600
56949W        W22110  18.305  36.342  12.514
56950W        W22111  16.869  22.604   2.800
56951W        W22112   3.902  13.679  14.857
56952W        W22113  23.193  44.224  13.121
56953W        W22114  44.610  33.301   2.239
56954W        W22115  39.829  33.291   0.725
56955W        W22116   1.557   0.029  12.907
56956W        W22117  30.117  38.553   5.638
56957W        W22118  27.816  36.195   5.394
56958W        W22119  20.310  14.618   0.741
56959W        W22120  41.256  43.998  13.577
56960W        W22121  31.903  29.017   0.780
56961W        W22122  24.157  25.170  14.912
56962W        W22123  34.536  11.822   1.980
56963W        W22124   3.902  36.736   1.473
56964W        W22125  15.363  29.389   3.728
56965W        W22126  19.772   5.127  11.551
56966W        W22127  12.945  21.243   1.396
56967W        W22128  24.686   4.431  11.116
56968W        W22129  15.998  43.426  13.048
56969W        W22130   6.878   3.714  13.472
56970W        W22131  21.285  33.981  13.059
56971W        W22132   6.151  12.568   2.767
56972W        W22133   5.989  20.685  11.482
56973W        W22134  33.119   2.543   0.404
56974W        W22135  15.312  39.825   0.393
56975W        W22136   1.843   3.461  13.563
56976W        W22137  27.280  33.230   2.772
56977W        W22138  30.088  32.407   2.221
56978W        W22139   9.401   0.965  13.021
56979W        W22140  28.231   9.353  13.151
56980W        W22141  27.701  20.084   1.004
56981W        W22142  15.541  13.136   2.327
56982W        W22143  17.762  11.328   1.517
56983W        W22144  44.973  20.967   3.200
56984W        W22145  39.602  28.097  14.450
56985W        W22146  31.658  24.666   4.969
56986W        W22147  24.989  13.884   0.335
56987W        W22148  29.423  30.082  13.676
56988W        W22149  28.144  43.083   3.608
56989W        W22150   8.923  31.374  14.553
56990W        W22151  30.610  19.476  13.473
56991W        W22152  28.682  40.976   3.024
56992W        W22153  39.809  10.261  14.454
56993W        W22154  12.286   9.410   2.895
56994W        W22155   0.738  15.270   1.493
56995W        W22156   4.275   0.374  11.633
56996W        W22157  14.856  32.485  14.837
56997W        W22158  23.087  14.642   2.365
56998W        W22159  16.861  11.142   0.567
56999W        W22160  31.776  37.876   2.282
57000W        W22161  37.213  33.688  14.851
57001W        W22162  42.021   9.139   2.418
57002W        W22163  31.087  22.939   0.281
57003W        W22164   5.286  41.659  10.317
57004W        W22165  12.731  43.438  12.008
57005W        W22166  35.504   4.999  14.521
57006W        W22167   1.953  25.729   1.297
57007W        W22168  11.158  28.649   4.368
57008W        W22169  10.458  25.796   3.794
57009W        W22170   2.427  22.487  13.394
57010W        W22171  31.681   0.888   2.467
57011W        W22172   2.310  40.746  11.946
57012W        W22173   3.374  29.988  14.568
57013W        W22174  44.858  26.515   1.976
57014W        W22175  30.607  29.045  10.649
57015W        W22176  12.355  14.660   2.248
57016W        W22177  42.222  21.074   0.658
57017W        W22178   2.872  16.599  10.187
57018W        W22179  44.820  16.320  10.873
57019W        W22180  23.716   5.479  11.512
57020W        W22181   5.726  32.130   4.606
57021W        W22182  10.450  11.289  10.023
57022W        W22183  41.577  34.396   2.659
57023W        W22184  14.513  26.390   0.642
57024W        W22185   2.164   5.530  10.335
57025W        W22186  15.716   4.844   3.205
57026W        W22187   9.817  27.287   0.311
57027W        W22188  21.606  15.956   4.035
57028W        W22189  34.895  41.430   3.730
57029W        W22190  28.081   1.783  12.883
57030W        W22191  29.880  14.269   4.760
57031W        W22192  13.779  14.407   2.931
57032W        W22193  24.430   4.503   1.179
57033W        W22194  40.337   5.923   4.372
57034W        W22195  41.083  18.133   3.231
57035W        W22196  22.093  13.729  12.127
57036W        W22197   6.143   9.288   4.880
57037W        W22198  25.913  15.587  14.871
57038W        W22199  34.998  38.703  14.984
57039W        W22200  10.659   1.700  10.287
57040W        W22201  44.527  24.140   0.747
57041W        W22202   2.824  32.614   2.765
57042W        W22203  32.894  39.965   1.866
57043W        W22204  11.759  19.506  13.355
57044W        W22205  43.505  18.605   4.174
57045W        W22206  38.121  21.964   1.675
57046W        W22207  31.529  44.472   0.871
57047W        W22208  30.248  39.920   0.768
57048W        W22209  10.847  27.329  11.165
57049W        W22210  24.792  17.145   1.220
57050W        W22211  28.760  18.179  13.333
57051W        W22212  33.845   4.971   2.822
57052W        W22213  23.333  38.793  14.511
57053W        W22214  20.610  11.868  12.077
57054W        W22215  29.106  37.931   1.888
57055W        W22216   9.217  22.965   2.411
57056W        W22217   2.866  27.465  13.329
57057W        W22218  39.049  27.653  14.639
57058W        W22219  33.587  27.445  10.591
57059W        W22220   5.114   8.660  13.905
57060W        W22221  18.040   0.487   2.379
57061W        W22222  27.602  39.304   0.960
57062W        W22223  12.786  33.103  13.933
57063W        W22224   3.415   6.761   3.782
57064W        W22225  21.054   0.932  13.950
57065W        W22226  14.533  39.521  10.749
57066W        W22227  39.444  29.878  14.303
57067W        W22228  15.842  15.219   0.267
57068W        W22229  22.023  11.959   4.216
57069W        W22230   4.814   0.768  14.263
57070W        W22231  28.563  23.265  11.340
57071W        W22232  35.345  27.249   1.562
57072W        W22233  23.471  17.204   1.450
57073W        W22234  27.939   1.191   3.050
57074W        W22235  35.172  31.564   3.717
57075W        W22236  22.715  20.256  13.555
57076W        W22237   3.190  15.708  12.103
57077W        W22238  31.118  10.305   2.491
57078W        W22239  13.226  15.589  12.415
57079W        W22240   1.680  14.667   1.794
57080W        W22241  15.316   6.282   2.636
57081W        W22242  14.832  41.524  11.187
57082W        W22243  39.519  30.504  13.423
57083W        W22244   5.042  18.779  13.367
57084W        W22245  15.555  20.257  10.643
57085W        W22246  26.451  44.001  13.280
57086W        W22247  25.917   9.750   2.296
57087W        W22248   0.287  43.476   0.792
57088W        W22249  34.620  24.865  12.916
57089W        W22250   8.621  21.181   3.685
57090W        W22251  27.418  29.209  13.882
57091W        W22252   3.688  44.499   2.301
57092W        W22253  37.614  44.146   2.639
57093W        W22254   0.506  27.463   2.821
57094W        W22255  34.100  19.360  14.996
57095W        W22256   3.388  40.258  14.013
57096W        W22257  44.935  40.500   2.442
57097W        W22258  31.059   8.896   1.347
57098W        W22259  29.148  32.358  13.824
57099W        W22260  31.121  37.593   3.176
57100W        W22261  23.212  38.286   4.700
57101W        W22262  15.317  10.266  11.892
57102W        W22263  25.071  35.782  13.041
57103W        W22264  35.307  33.120   2.677
57104W        W22265  26.119  31.236   2.743
57105W        W22266  16.082  10.440   1.247
57106W        W22267  10.220   8.707   2.457
57107W        W22268  41.795  15.746   4.551
57108W        W22269  11.542  17.960  12.526
57109W        W22270  27.007  38.490   2.688
57110W        W22271  37.367   7.054  13.898
57111W        W22272  22.743  23.666   1.264
57112W        W22273  24.730  28.755   1.380
57113W        W22274   7.755  30.879  14.198
57114W        W22275  31.306  32.194  14.343
57115W        W22276  34.893  10.078  13.055
57116W        W22277  25.654  10.178  11.898
57117W        W22278  16.682   3.960  14.911
57118W        W22279  11.485  35.428  13.281
57119W        W22280  42.470   6.729  11.693
57120W        W22281  27.864  39.872  12.222
57121W        W22282  28.661   1.920   4.372
57122W        W22283  28.314  29.685   9.966
57123W        W22284  12.741  29.966   2.684
57124W        W22285  44.705  34.486   1.510
57125W        W22286   5.249  27.151   1.248
57126W        W22287   3.115   0.969  11.564
57127W        W22288  28.265  10.945   2.896
57128W        W22289  29.983   8.669   0.853
57129W        W22290  15.852  39.233  14.275
57130W        W22291  17.523  39.382   2.448
57131W        W22292  31.531  21.186  11.217
57132W        W22293  31.885  33.173   1.865
57133W        W22294  19.276  21.801   4.333
57134W        W22295   6.039  32.613   4.872
57135W        W22296  16.225  19.752   0.046
57136W        W22297  22.559   4.252   0.990
57137W        W22298   2.205  44.319   4.644
57138W        W22299  31.558  26.134  14.410
57139W        W22300   1.271  34.917  12.945
57140W        W22301  20.034  36.016   4.615
57141W        W22302  43.833  25.604  14.247
57142W        W22303   8.981  42.095   0.283
57143W        W22304  17.346  38.890   4.181
57144W        W22305   7.749   2.854   3.617
57145W        W22306   5.055   9.584  11.536
57146W        W22307  23.150  15.035   4.815
57147W        W22308  10.739   9.707   4.215
57148W        W22309  18.861  28.020  12.512
57149W        W22310   0.007  28.444   4.591
57150W        W22311  19.213  16.917   2.819
57151W        W22312  39.291  21.273  13.393
57152W        W22313  41.778  36.608   4.583
57153W        W22314  11.658  41.436   1.947
57154W        W22315  29.046  39.068  12.898
57155W        W22316  12.285  18.496   2.290
57156W        W22317   1.543   6.484  12.609
57157W        W22318  22.485  31.561  11.108
57158W        W22319  32.053  39.639   1.881
57159W        W22320  26.434  41.060  11.574
57160W        W22321   4.241  21.695  11.153
57161W        W22322  16.622  34.504  12.020
57162W        W22323  32.514   8.243   1.404
57163W        W22324   0.325  44.035  12.864
57164W        W22325   7.659   6.917  12.367
57165W        W22326  24.555  25.062   1.813
57166W        W22327  13.190  36.653   1.691
57167W        W22328   2.539   3.263   0.914
57168W        W22329  32.176   7.002   4.452
57169W        W22330   5.862  13.285   2.074
57170W        W22331  33.390  15.598  14.528
57171W        W22332  26.122  33.819  12.412
57172W        W22333   8.807  39.057  12.457
57173W        W22334   2.860   9.582   3.167
57174W        W22335  43.700  37.878  11.621
57175W        W22336   2.076  21.735  14.809
57176W        W22337  14.776  24.023  14.456
57177W        W22338  23.637  15.045   1.769
57178W        W22339  28.092  21.384  13.425
57179W        W22340  38.930  35.513  12.174
57180W        W22341  42.312  33.057   4.719
57181W        W22342  22.241  28.990   4.446
57182W        W22343  28.127  29.504   0.307
57183W        W22344  13.158   8.585  13.631
57184W        W22345  15.325   0.270  13.987
57185W        W22346  25.980  41.218  12.451
57186W        W22347   1.987   6.193  12.809
57187W        W22348  27.410  33.767   0.817
57188W        W22349   5.442  17.823   3.878
57189W        W22350  31.959  11.948  14.064
57190W        W22351  40.873  40.431  10.715
57191W        W22352  36.656  26.705   5.107
57192W        W22353   7.847  21.683   3.727
57193W        W22354   5.892  12.176   1.873
57194W        W22355  34.602  11.299   4.547
57195W        W22356  14.342  32.443  13.570
57196W        W22357  24.758  42.823   3.265
57197W        W22358  17.684   4.345   5.026
57198W        W22359  33.060  34.565  13.333
57199W        W22360  37.958   1.314  11.346
57200W        W22361  10.023  34.646   3.891
57201W        W22362  28.550  27.638  13.126
57202W        W22363  30.203  24.697   4.540
57203W        W22364   1.285  25.962  13.548
57204W        W22365  39.318  25.939  12.457
57205W        W22366  15.339  44.108  11.971
57206W        W22367  37.085  44.421   2.581
57207W        W22368  14.023   6.242   3.691
57208W        W22369   1.224  18.071   0.362
57209W        W22370   6.526  43.526  12.442
57210W        W22371  15.133   7.675   0.781
57211W        W22372   8.892  27.752  13.407
57212W        W22373   4.146  29.486   4.231
57213W        W22374  28.088  15.556   4.998
57214W        W22375  33.054   7.141  13.007
57215W        W22376  29.447   6.274   4.946
57216W        W22377   9.767  24.574  14.547
57217W        W22378  43.015  18.055  14.041
57218W        W22379  44.835  18.985   3.983
57219W        W22380  17.685   8.567   1.413
57220W        W22381  14.374  17.072  11.695
57221W        W22382   8.858   8.419  11.230
57222W        W22383  10.312  24.235   0.751
57223W        W22384  42.629  37.393   3.110
57224W        W22385  24.551  42.038  10.974
57225W        W22386  15.281  24.534   4.399
57226W        W22387  32.093  44.893  11.267
57227W        W22388  14.667  23.165  10.431
57228W        W22389   4.751  32.176  12.860
57229W        W22390  43.962  12.715  14.456
57230W        W22391  16.649  36.865   4.576
57231W        W22392  33.452  33.003   3.364
57232W        W22393  33.120   3.730   0.964
57233W        W22394  24.935  31.868   4.904
57234W        W22395  38.084  33.053  14.889
57235W        W22396  14.100  17.645   3.314
57236W        W22397  30.999  43.543  11.232
57237W        W22398  41.940   3.318  11.128
57238W        W22399  30.141  20.383   0.535
57239W        W22400  15.633  33.911   0.950
57240W        W22401  40.824   7.361  11.633
57241W        W22402  27.901   9.438   2.278
57242W        W22403   2.222  21.195   2.162
57243W        W22404  11.879  15.530   1.923
57244W        W22405  44.952  35.113  12.018
57245W        W22406  43.470  13.161   0.176
57246W        W22407  23.698   8.597  12.939
57247W        W22408   9.649  28.471   1.852
57248W        W22409  42.767  28.983   4.033
57249W        W22410  23.860  29.045  11.000
57250W        W22411  27.856   2.410   0.394
57251W        W22412   6.637  35.414   0.044
57252W        W22413  14.674  19.297  12.364
57253W        W22414  12.215  19.934   3.338
57254W        W22415  38.074  12.620   3.057
57255W        W22416   2.934  16.714  14.050
57256W        W22417  33.418  12.676  10.757
57257W        W22418  32.617  41.333  14.354
57258W        W22419  33.712  22.979   3.657
57259W        W22420  10.933  16.771   4.525
57260W        W22421  35.517  22.029  10.709
57261W        W22422  19.640  19.617   4.810
57262W        W22423  41.840  42.261  14.551
57263W        W22424  16.010  39.010  13.834
57264W        W22425  21.265  17.318  14.892
57265W        W22426  10.196  13.049   4.657
57266W        W22427  39.122  19.489  10.872
57267W        W22428  22.269   3.988   2.716
57268W        W22429  40.242  31.637  11.594
57269W        W22430  11.439  42.881   3.626
57270W        W22431  22.750  43.800   4.735
57271W        W22432  21.092  19.848   0.892
57272W        W22433  16.056  27.348  13.362
57273W        W22434  41.091  41.943  11.681
57274W        W22435  28.245  26.421   3.613
57275W        W22436  37.387  38.901  11.592
57276W        W22437  37.881   0.417  13.702
57277W        W22438  24.346  40.175   1.370
57278W        W22439  25.281  39.809   3.174
57279W        W22440  23.081  17.162   3.671
57280W        W22441  34.954  24.163   1.177
57281W        W22442  15.826  41.601   2.816
57282W        W22443   9.654  38.494  14.882
57283W        W22444  32.384  27.932  13.706
57284W        W22445  31.844   9.175   0.505
57285W        W22446   6.548  23.975   2.803
57286W        W22447  14.265  40.122  13.489
57287W        W22448  30.155  14.858  14.394
57288W        W22449  21.755  28.661  14.504
57289W        W22450  26.210  15.066   2.877
57290W        W22451  28.245   5.650   1.295
57291W        W22452   9.261  28.419  12.922
57292W        W22453   7.434   7.408  12.416
57293W        W22454   4.007  15.251   4.120
57294W        W22455  19.411  14.714   5.242
57295W        W22456  42.994   4.222   0.932
57296W        W22457   3.073   2.360  12.582
57297W        W22458  36.340  11.715  13.844
57298W        W22459   3.766  21.244  13.343
57299W        W22460   4.261  18.395   3.233
57300W        W22461  22.564   6.955   2.191
57301W        W22462  23.704  40.454  14.426
57302W        W22463   6.682  43.895   2.604
57303W        W22464  40.762   1.288   2.848
57304W        W22465   8.320  31.630   0.269
57305W        W22466  40.572   2.099  11.569
57306W        W22467  38.069  32.072   1.255
57307W        W22468  17.810  14.578  14.886
57308W        W22469  13.687   4.643  14.718
57309W        W22470  37.953   6.444  14.350
57310W        W22471  40.592  22.075   4.450
57311W        W22472   1.983  13.914   4.684
57312W        W22473  23.177  26.284   3.784
57313W        W22474  16.263  40.394  12.554
57314W        W22475  39.909  27.370   3.228
57315W        W22476   3.569  39.371  13.793
57316W        W22477  30.106  16.067   4.090
57317W        W22478  28.720   7.238   1.132
57318W        W22479   2.185  31.431   0.550
57319W        W22480  10.837  34.113  11.109
57320W        W22481   3.320  16.577  12.124
57321W        W22482  36.433   7.291  14.463
57322W        W22483  38.278  10.226   0.797
57323W        W22484  12.259   2.479  13.972
57324W        W22485  31.467  27.823  12.639
57325W        W22486  37.443  27.446  14.912
57326W        W22487   8.211  17.229  11.602
57327W        W22488   5.258   7.851   2.165
57328W        W22489  16.480  21.526  13.857
57329W        W22490   0.421   5.199   4.610
57330W        W22491   8.393   3.234   4.137
57331W        W22492  35.562   0.830  12.600
57332W        W22493  38.851  35.553  14.797
57333W        W22494   5.928  20.760   0.887
57334W        W22495  27.733   2.330   4.043
57335W        W22496  36.039  43.781   3.196
57336W        W22497   1.517   6.777  13.758
57337W        W22498  26.046   9.949   2.752
57338W        W22499  40.637  34.452   0.922
57339W        W22500  10.536   0.871   1.209
57340W        W22501  12.122  17.242  11.183
57341W        W22502  41.269  27.892   0.742
57342W        W22503   9.261  20.995   1.962
57343W        W22504   9.065  10.385   0.006
57344W        W22505  44.596  21.259   5.039
57345W        W22506   5.525  28.348   0.553
57346W        W22507  38.968  16.349  14.583
57347W        W22508  22.956  16.733  12.451
57348W        W22509  41.010  25.512   4.086
57349W        W22510  30.139  35.692  13.626
57350W        W22511   3.687  39.346  11.523
57351W        W22512  39.341   1.771  11.189
57352W        W22513  36.573  19.907   4.558
57353W        W22514  11.294  41.516  14.987
57354W        W22515  16.035  21.126   4.084
57355W        W22516  26.230  35.404  14.413
57356W        W22517   7.701  31.425  12.457
57357W        W22518   8.753  33.199  13.474
57358W        W22519   0.618  43.201  12.538
57359W        W22520  39.300  19.551  14.260
57360W        W22521  27.132  36.028   4.532
57361W        W22522  17.564  24.269  12.512
57362W        W22523  19.492   3.519  14.092
57363W        W22524  18.322  39.766  12.992
57364W        W22525   8.100  41.835  13.398
57365W        W22526  29.057  20.679   0.789
57366W        W22527  32.443  26.265  12.388
57367W        W22528   8.408  40.088   3.099
57368W        W22529  31.629  34.982  14.131
57369W        W22530   1.221  22.724  14.133
57370W        W22531  10.763   9.412  13.544
57371W        W22532   4.321   6.184   1.789
57372W        W22533  38.421   3.016   0.481
57373W        W22534  41.691  42.713  14.353
57374W        W22535  30.865  29.947   2.889
57375W        W22536  26.695   7.875   3.136
57376W        W22537  12.328   0.002  13.319
57377W        W22538  22.468  25.780   2.673
57378W        W22539  22.160  23.408   0.416
57379W        W22540  18.315  36.472  11.679
57380W        W22541  20.557  37.813   0.901
57381W        W22542   2.449  19.203   1.838
57382W        W22543  23.056   2.428  10.750
57383W        W22544  23.309   1.455   2.251
57384W        W22545  25.508   8.938  11.410
57385W        W22546   6.404  41.159   4.949
57386W        W22547  39.041  14.127  13.838
57387W        W22548  44.573  19.725  14.904
57388W        W22549  17.877  36.090   2.271
57389W        W22550  26.375   3.719   4.061
57390W        W22551  38.055   0.392   2.202
57391W        W22552  34.660  39.301  12.300
57392W        W22553  14.270  11.840   1.286
57393W        W22554  21.711  33.700  11.286
57394W        W22555  18.658  34.508  12.729
57395W        W22556  12.192  23.917   2.350
57396W        W22557  30.577  29.505   2.101
57397W        W22558  17.416   1.805  10.514
57398W        W22559   3.904  14.054  12.089
57399W        W22560  28.075   0.542   1.315
57400W        W22561  16.652  23.783  12.530
57401W        W22562   1.219  32.174  10.584
57402W        W22563  23.027  40.148   1.344
57403W        W22564  38.269  10.253  10.641
57404W        W22565  11.352  30.983   4.053
57405W        W22566  38.667   3.363   5.001
57406W        W22567  23.458  15.555  14.758
57407W        W22568  13.775   9.831   0.421
57408W        W22569  13.166  34.067   0.019
57409W        W22570  41.029  16.307  11.144
57410W        W22571  12.598  44.092   2.304
57411W        W22572  25.164  12.259   0.150
57412W        W22573  42.709  37.960   3.177
57413W        W22574  11.805  26.376   4.195
57414W        W22575  33.557  37.289  12.445
57415W        W22576  38.996  23.117   4.649
57416W        W22577  20.040  18.368   4.182
57417W        W22578  10.645  30.909   0.541
57418W        W22579  27.584  15.567   1.867
57419W        W22580   7.120  13.218   2.730
57420W        W22581   3.421  19.639  11.611
57421W        W22582  28.446  20.950  12.571
57422W        W22583  19.252  11.971   3.903
57423W        W22584  29.639   4.052  14.869
57424W        W22585  16.219   8.142  12.411
57425W        W22586   4.235  40.533   2.506
57426W        W22587  27.979  33.467  14.725
57427W        W22588  37.635  18.255   4.072
57428W        W22589  28.527  17.755   3.740
57429W        W22590  16.155  16.572   0.526
57430W        W22591  31.938   9.088   3.272
57431W        W22592  12.580  10.291  11.702
57432W        W22593  18.047  23.237  12.545
57433W        W22594  29.240  43.720  12.811
57434W        W22595  32.549  16.667   3.400
57435W        W22596   3.916   0.457   2.499
57436W        W22597  32.517  16.198   3.182
57437W        W22598  36.162  36.348  13.582
57438W        W22599   3.709  38.394   1.746
57439W        W22600  34.449  42.051  10.284
57440W        W22601   3.452  13.148  13.268
57441W        W22602  41.329  36.877  12.556
57442W        W22603  19.122  36.010   0.178
57443W        W22604  23.393  23.964   2.780
57444W        W22605  37.522  20.415  11.607
57445W        W22606   9.084   3.693  11.163
57446W        W22607  34.108  28.047   2.927
57447W        W22608   7.872  11.568  13.452
57448W        W22609  36.002  14.894  11.956
57449W        W22610  21.581  34.548  12.552
57450W        W22611  42.526  32.075   3.426
57451W        W22612   2.601  14.121  11.889
57452W        W22613  41.071  25.192   2.822
57453W        W22614  28.373  42.367  14.902
57454W        W22615  26.163  21.552  14.507
57455W        W22616  26.803  44.407  13.417
57456W        W22617  11.258   6.531   2.793
57457W        W22618  20.140  26.679   1.222
57458W        W22619  28.115   3.910   1.806
57459W        W22620  25.105  19.272  10.550
57460W        W22621  35.838  11.186  12.997
57461W        W22622  42.332   3.321   1.839
57462W        W22623  43.781  38.567  10.989
57463W        W22624  17.750  41.310  14.766
57464W        W22625   6.290  25.019  13.354
57465W        W22626  36.373  13.336  11.946
57466W        W22627  36.875  14.731   2.784
57467W        W22628  12.144  21.588  11.910
57468W        W22629   2.788  37.513  11.653
57469W        W22630  20.637   4.417  10.788
57470W        W22631  19.287  14.215  14.948
57471W        W22632  19.509  31.794   1.913
57472W        W22633   6.317  28.008  14.901
57473W        W22634  40.662  31.938  13.970
57474W        W22635  36.795   3.028   3.118
57475W        W22636  21.763  32.777  13.517
57476W        W22637  42.824  21.453   3.629
57477W        W22638  36.522  36.472  14.887
57478W        W22639   6.913   9.946  11.152
57479W        W22640  29.069  20.530  14.980
57480W        W22641   7.984  23.423   4.638
57481W        W22642  22.520   8.301  12.042
57482W        W22643   7.458  16.664  13.862
57483W        W22644  25.190  33.747  11.990
57484W        W22645   3.449  17.794   3.522
57485W        W22646  32.165  28.369   0.782
57486W        W22647  41.837  36.348   0.257
57487W        W22648   9.014  27.978  13.868
57488W        W22649   1.278  39.261   2.494
57489W        W22650   2.840  33.867  13.898
57490W        W22651  33.846  11.654   3.220
57491W        W22652  24.243   2.988  14.947
57492W        W22653  34.702  29.432  13.130
57493W        W22654   9.172   2.793   2.933
57494W        W22655   7.243  33.996  12.830
57495W        W22656  40.039  12.287   3.588
57496W        W22657  35.826  26.730  11.581
57497W        W22658  30.980   2.300   1.504
57498W        W22659  14.888   3.295  11.491
57499W        W22660  24.872  21.577  13.355
57500W        W22661  13.715  21.706  14.535
57501W        W22662  18.745  19.987   3.274
57502W        W22663   8.800  12.651   3.705
57503W        W22664   8.867  43.364  12.838
57504W        W22665  41.403  22.237  12.978
57505W        W22666  15.585  20.014   1.394
57506W        W22667  35.082  11.137   4.692
57507W        W22668  31.913   7.877  13.063
57508W        W22669  35.446  26.221   0.761
57509W        W22670  42.405   7.705  14.849
57510W        W22671   1.000  15.068  13.953
57511W        W22672  21.611   9.432  12.980
57512W        W22673  21.740   5.642  13.408
57513W        W22674  13.672  36.466  12.443
57514W        W22675   6.137  29.599  13.910
57515W        W22676  31.227  36.821   5.013
57516W        W22677  34.826  44.019   1.456
57517W        W22678   0.894  32.905   1.946
57518W        W22679  23.667  20.602  11.099
57519W        W22680   1.754  20.130   2.757
57520W        W22681  10.053  30.669  13.097
57521W        W22682   8.524  10.263   0.010
57522W        W22683   4.196  27.601  14.501
57523W        W22684  10.769  21.001   0.089
57524W        W22685  42.865  39.902  10.691
57525W        W22686  11.154  29.269  14.784
57526W        W22687  43.802  31.292   3.989
57527W        W22688   7.938  11.074  11.460
57528W        W22689   9.315   5.964  11.369
57529W        W22690  33.174   3.458  12.527
57530W        W22691  44.732  26.263   4.191
57531W        W22692  28.059  14.701   1.896
57532W        W22693   7.694  31.071   2.920
57533W        W22694  17.281  11.774  14.784
57534W        W22695  24.702  36.495  12.193
57535W        W22696  25.633  33.645   4.748
57536W        W22697   3.172   6.853   2.353
57537W        W22698  17.069  22.754  13.409
57538W        W22699  42.546   9.643  10.689
57539W        W22700   2.422  41.996  13.769
57540W        W22701  23.124  12.194  14.020
57541W        W22702  35.367  20.471  12.405
57542W        W22703  36.333   1.304  13.407
57543W        W22704  37.018  24.502  14.058
57544W        W22705  33.182  41.173  11.173
57545W        W22706  44.596  12.710  11.012
57546W        W22707  11.892  41.007  11.330
57547W        W22708  33.055  24.509   0.421
57548W        W22709  35.375  18.069   3.460
57549W        W22710  12.916  34.937   0.508
57550W        W22711  35.210   6.944   0.266
57551W        W22712  14.066  37.480  14.044
57552W        W22713   5.839  27.785   1.317
57553W        W22714   3.819  31.430  14.835
57554W        W22715   5.444  13.757  12.100
57555W        W22716  12.336  30.170   2.087
57556W        W22717  18.886  19.466   5.337
57557W        W22718   3.194  15.859   5.477
57558W        W22719   2.009  10.624   3.757
57559W        W22720  41.054  37.065  10.302
57560W        W22721  32.861  42.282  13.638
57561W        W22722  25.430  14.412  12.553
57562W        W22723  17.714   8.466  12.929
57563W        W22724  30.152  28.179  10.281
57564W        W22725  17.129  35.357   0.396
57565W        W22726  16.624   8.177   2.859
57566W        W22727  27.052  42.866   3.958
57567W        W22728  30.007  22.086  12.578
57568W        W22729  40.882   8.233  11.582
57569W        W22730  19.710  12.703  13.482
57570W        W22731  11.972  14.656  12.668
57571W        W22732  11.841   3.271   4.111
57572W        W22733  42.248  37.149  11.595
57573W        W22734  19.246  27.626   1.343
57574W        W22735  25.850   6.943   1.222
57575W        W22736   4.831  16.375  11.734
57576W        W22737  13.238  27.122  14.996
57577W        W22738  24.546  41.981   0.229
57578W        W22739  18.283  29.527   2.463
57579W        W22740  16.354  44.081  11.962
57580W        W22741  12.920  20.235  11.460
57581W        W22742  24.904  35.569  14.024
57582W        W22743  24.560  19.011  14.024
57583W        W22744  29.924   4.699  11.086
57584W        W22745  42.704  38.804  12.151
57585W        W22746  25.073  36.995   2.231
57586W        W22747  20.643  38.261  12.976
57587W        W22748  21.654  38.093   0.316
57588W        W22749   4.936  34.030   4.185
57589W        W22750  17.466  17.881   4.074
57590W        W22751  36.020  44.283   4.083
57591W        W22752  30.337  27.227   4.126
57592W        W22753  26.586  16.297  11.094
57593W        W22754  44.384  12.997   9.880
57594W        W22755  30.951  19.429   4.544
57595W        W22756  28.948  39.766   0.056
57596W        W22757  12.546  20.295  10.472
57597W        W22758  24.177  30.633  13.107
57598W        W22759  20.036  21.446  11.136
57599W        W22760  13.382  42.895  12.441
57600W        W22761   0.987  12.099  14.718
57601W        W22762   7.776  26.582   1.751
57602W        W22763  13.424   5.407  12.182
57603W        W22764  44.290   8.903   2.430
57604W        W22765  17.816   6.427  10.716
57605W        W22766  41.383  34.681  13.530
57606W        W22767  15.728  17.071   3.352
57607W        W22768   6.957  39.538  14.576
57608W        W22769   7.108   2.445   1.833
57609W        W22770   7.263  12.574   0.827
57610W        W22771  38.147  14.152   0.260
57611W        W22772  31.337  39.568  13.583
57612W        W22773  20.150  30.869   2.994
57613W        W22774  17.122   9.769   1.006
57614W        W22775  23.737   8.754  11.631
57615W        W22776   2.659  17.997   0.865
57616W        W22777   9.399  34.503   2.893
57617W        W22778  18.838  36.862  11.113
57618W        W22779  14.336  39.779   2.966
57619W        W22780  44.209  28.093  12.081
57620W        W22781  42.124  40.539  12.176
57621W        W22782  34.752  44.299  11.177
57622W        W22783  39.116  39.884   3.370
57623W        W22784  42.496  29.044   3.511
57624W        W22785  37.245  28.947   3.654
57625W        W22786  35.422  25.090  14.955
57626W        W22787  31.040  38.686   2.372
57627W        W22788  29.479   7.261  12.132
57628W        W22789  32.591  18.933   2.665
57629W        W22790  42.773  42.841   2.766
57630W        W22791  18.596  33.926  14.972
57631W        W22792  39.396   5.871  13.869
57632W        W22793  41.049  19.724   1.306
57633W        W22794  22.114   6.646  12.719
57634W        W22795   7.686  10.110  14.139
57635W        W22796   3.983  18.756   4.450
57636W        W22797   1.940  21.534  13.313
57637W        W22798  37.534   4.314  11.473
57638W        W22799  38.709  25.238  11.154
57639W        W22800  23.262   6.641  13.733
57640W        W22801  21.504  10.812   2.920
57641W        W22802   9.290  14.589   2.238
57642W        W22803  11.372  12.909   2.633
57643W        W22804  33.975  20.209  11.362
57644W        W22805  34.476  24.645   2.805
57645W        W22806  29.504  43.953   4.098
57646W        W22807   7.892  15.630  12.943
57647W        W22808  43.319  18.111   3.875
57648W        W22809   5.888  24.266   1.727
57649W        W22810  27.330  43.769   3.019
57650W        W22811   0.303  28.391   3.626
57651W        W22812  44.762  21.602   2.696
57652W        W22813  25.487  27.178  10.880
57653W        W22814  41.730  29.917   2.330
57654W        W22815  15.815  10.220   4.448
57655W        W22816  15.103  11.698   0.411
57656W        W22817  13.813  25.432   4.225
57657W        W22818  36.478  10.962   0.925
57658W        W22819  16.668  31.272   4.043
57659W        W22820  28.234  16.990   5.127
57660W        W22821   1.381   2.007  11.006
57661W        W22822   7.744  40.230  13.132
57662W        W22823  44.683  37.450   0.918
57663W        W22824   5.103   8.218  13.340
57664W        W22825  28.659  26.167   0.380
57665W        W22826  17.673  23.108  12.885
57666W        W22827  35.563  25.227   3.146
57667W        W22828  14.776  12.318  10.628
57668W        W22829  25.625   2.263   1.710
57669W        W22830  31.155  11.698   0.763
57670W        W22831   7.242   6.437  10.470
57671W        W22832   0.842  30.518   4.529
57672W        W22833  26.308  42.008   3.177
57673W        W22834  16.140  42.095  14.507
57674W        W22835  36.846  37.841  14.877
57675W        W22836   8.604  24.699  11.180
57676W        W22837  18.137  12.276  11.167
57677W        W22838  17.604   6.923   1.988
57678W        W22839  27.025  18.663   4.592
57679W        W22840  30.529  44.553  13.549
57680W        W22841  18.077  37.566   2.426
57681W        W22842  40.423  34.660   4.107
57682W        W22843   9.625   9.373   2.705
57683W        W22844  18.803  34.880  11.137
57684W        W22845  28.999  16.519  13.932
57685W        W22846  36.245   8.750   2.602
57686W        W22847  40.781  35.878   9.734
57687W        W22848  28.935  40.865  10.628
57688W        W22849  40.793  10.279  14.646
57689W        W22850   9.991  10.225  10.711
57690W        W22851  31.746   7.286   4.852
57691W        W22852  17.051  36.084   2.773
57692W        W22853  32.012  31.252   2.715
57693W        W22854   4.182  16.090  12.514
57694W        W22855   2.678  21.669  10.391
57695W        W22856  29.563  20.208  11.825
57696W        W22857  38.035   9.393  12.048
57697W        W22858  34.839  12.344  10.707
57698W        W22859  42.769   4.393  12.539
57699W        W22860   4.941  21.658  12.469
57700W        W22861  30.622   6.863   2.240
57701W        W22862   1.304  42.713  14.372
57702W        W22863  11.692   0.277   2.295
57703W        W22864  42.387  19.641  11.221
57704W        W22865  24.727  25.960  11.012
57705W        W22866  17.130  13.523  12.053
57706W        W22867  11.059  34.574   3.741
57707W        W22868  30.465  13.326  11.022
57708W        W22869  23.867  15.749  10.700
57709W        W22870  10.900   7.605  13.887
57710W        W22871  37.934   5.637   3.431
57711W        W22872  26.246   2.279  13.311
57712W        W22873  34.658   3.430  12.888
57713W        W22874  26.154  43.718  12.958
57714W        W22875  15.651  37.959  12.507
57715W        W22876   2.148  44.010  12.969
57716W        W22877  42.996  14.204  10.886
57717W        W22878  17.220  25.071   3.750
57718W        W22879   0.935  34.556   0.150
57719W        W22880  11.768   7.431  10.021
57720W        W22881  38.866  30.775  11.530
57721W        W22882  25.792   2.259   4.010
57722W        W22883  13.212   9.070  14.438
57723W        W22884   0.361  22.616   0.700
57724W        W22885  23.452  18.488   4.406
57725W        W22886  39.466  40.136  12.387
57726W        W22887  44.341  26.141  10.485
57727W        W22888  34.772   8.185   2.697
57728W        W22889  27.700   0.239  11.129
57729W        W22890  21.461  30.070   4.148
57730W        W22891  27.069   5.518  13.507
57731W        W22892  14.828   5.004   2.728
57732W        W22893  10.214  19.320   4.462
57733W        W22894  37.907  22.046  13.106
57734W        W22895  39.365  31.073  10.763
57735W        W22896  44.870  33.886  12.430
57736W        W22897  29.605  22.228  12.885
57737W        W22898  21.550  41.915   4.514
57738W        W22899  25.941  36.697   2.220
57739W        W22900  20.779  33.618  14.473
57740W        W22901  34.925  44.543  11.593
57741W        W22902  42.512   2.713  14.297
57742W        W22903  34.854  13.557   3.795
57743W        W22904  11.779  24.862   1.385
57744W        W22905  20.187  17.973  14.939
57745W        W22906  44.885  29.153   0.783
57746W        W22907   1.379  39.331   4.374
57747W        W22908  17.125  20.593  10.292
57748W        W22909  28.500  43.898   4.433
57749W        W22910  25.941  43.852   4.819
57750W        W22911  12.627  18.082  13.492
57751W        W22912   0.461  26.225  13.874
57752W        W22913   7.778  22.905  11.152
57753W        W22914  37.460   6.444   4.305
57754W        W22915  27.820   9.369   0.469
57755W        W22916  38.577  40.080  12.416
57756W        W22917   4.966  34.446   4.582
57757W        W22918  11.841   7.187   1.747
57758W        W22919  39.536   5.801   4.740
57759W        W22920  37.557  43.226  11.104
57760W        W22921  20.064  16.743  12.660
57761W        W22922  31.845  39.025  14.247
57762W        W22923  42.381  35.731   4.681
57763W        W22924  10.948   2.785   2.436
57764W        W22925  39.973  42.256   2.751
57765W        W22926  21.329   1.578  14.419
57766W        W22927  26.208  31.925   4.544
57767W        W22928  33.491  43.323   2.383
57768W        W22929   0.606  25.973  14.324
57769W        W22930  37.131  25.947  13.508
57770W        W22931   2.480  23.385  13.603
57771W        W22932  28.511  23.745  13.806
57772W        W22933  22.093  14.652  12.119
57773W        W22934  32.149  26.556  12.065
57774W        W22935  20.229  14.681   3.155
57775W        W22936  28.746  41.786   2.802
57776W        W22937  36.819  19.986   2.881
57777W        W22938  36.970   5.485  10.672
57778W        W22939   2.375  26.466  14.109
57779W        W22940  23.640  29.652  14.776
57780W        W22941   6.130  19.929   1.717
57781W        W22942  38.759  14.623   0.380
57782W        W22943   7.016  13.562  10.871
57783W        W22944  33.357  29.957   4.568
57784W        W22945  18.296  41.562  12.989
57785W        W22946  40.078  40.519   2.183
57786W        W22947  20.129  15.406  11.545
57787W        W22948   9.794  26.264  13.845
57788W        W22949  17.510   3.227  13.055
57789W        W22950  22.670  15.150  13.587
57790W        W22951  39.292  31.610  11.027
57791W        W22952  36.585  36.420   4.216
57792W        W22953  22.122  10.187   3.217
57793W        W22954  43.874  21.726   1.822
57794W        W22955  28.154  24.420  13.389
57795W        W22956  28.911  22.044   2.640
57796W        W22957  18.219  15.403  11.315
57797W        W22958  12.208  13.264  13.466
57798W        W22959  27.065  28.396   1.365
57799W        W22960  32.308  33.072   4.227
57800W        W22961   7.790  25.308   4.299
57801W        W22962  42.784   1.588   2.280
57802W        W22963  13.224   8.719  10.323
57803W        W22964  33.344  35.173  10.731
57804W        W22965  39.203  24.081   2.129
57805W        W22966  34.529  10.763   2.731
57806W        W22967  42.947  33.618   4.513
57807W        W22968   0.686  15.348   3.711
57808W        W22969  18.018  27.310   1.689
57809W        W22970  30.301   1.299  11.205
57810W        W22971   0.909  37.148  14.019
57811W        W22972   2.900  25.478   0.129
57812W        W22973  30.179  19.475   4.374
57813W        W22974  39.361  12.860   3.210
57814W        W22975  37.798  13.316  14.446
57815W        W22976  27.130   2.390   3.773
57816W        W22977  29.531  41.881   2.465
57817W        W22978  15.103  17.795  11.745
57818W        W22979  31.501  21.064   2.197
57819W        W22980  31.108  16.661   0.451
57820W        W22981  26.902  29.830  10.186
57821W        W22982  24.031  16.268   1.334
57822W        W22983  27.596   0.316  13.918
57823W        W22984   1.971  38.823  12.998
57824W        W22985   9.364  22.500  10.904
57825W        W22986  28.733   2.319  11.241
57826W        W22987  13.739  26.855   2.278
57827W        W22988  35.910   3.989  12.928
57828W        W22989   6.811   6.979  12.906
57829W        W22990   3.874  15.433   0.369
57830W        W22991  16.034   6.930   4.301
57831W        W22992  39.461  19.103   0.547
57832W        W22993  17.032  42.316   2.751
57833W        W22994   0.254  26.993  10.642
57834W        W22995  27.745  21.213   3.241
57835W        W22996  33.316  31.942   0.489
57836W        W22997  24.040  26.863  11.948
57837W        W22998  11.084  13.493  14.433
57838W        W22999  18.989  11.213   3.088
57839W        W23000   0.232  39.138  10.204
57840W        W23001  20.955   4.967  12.070
57841W        W23002   1.863  25.523   2.621
57842W        W23003   7.968  27.943  13.040
57843W        W23004  41.630  12.395  13.979
57844W        W23005  21.477   2.433  11.589
57845W        W23006  41.361   0.839  12.046
57846W        W23007  20.170  31.618   2.372
57847W        W23008   9.130  32.843   3.971
57848W        W23009  17.552  26.466  11.435
57849W        W23010  14.005  44.161  12.077
57850W        W23011  28.743  30.649  11.133
57851W        W23012  20.698  31.958   2.358
57852W        W23013  23.254   3.022  13.154
57853W        W23014  42.844   8.781   5.017
57854W        W23015  35.286   0.553   4.121
57855W        W23016  11.516  15.669  12.901
57856W        W23017  15.473  12.282   4.997
57857W        W23018  44.317  19.361  10.673
57858W        W23019  10.253   6.218   4.578
57859W        W23020  37.259  23.405   0.323
57860W        W23021  22.962  16.658   0.940
57861W        W23022  39.292  23.744   4.638
57862W        W23023  34.061  18.828   2.334
57863W        W23024  10.805  26.517   3.118
57864W        W23025  41.562  42.502  11.116
57865W        W23026   6.263  30.363  12.355
57866W        W23027  39.437  25.148  13.933
57867W        W23028  14.134  32.395   4.474
57868W        W23029  42.940   7.641  12.550
57869W        W23030  19.070  14.317   5.244
57870W        W23031  17.583   4.297   0.547
57871W        W23032  33.604   7.171  11.678
57872W        W23033  13.586  16.662   3.222
57873W        W23034   0.703  40.972   2.288
57874W        W23035  25.445  13.279   4.710
57875W        W23036   4.306  38.587  11.255
57876W        W23037   8.849  12.981  12.449
57877W        W23038   4.393   6.482  13.955
57878W        W23039  15.334  30.057  11.986
57879W        W23040  18.122   2.851  14.969
57880W        W23041  40.932  15.769   1.977
57881W        W23042  28.126   4.939  12.038
57882W        W23043  40.460  13.162   1.639
57883W        W23044  10.541  38.376  12.543
57884W        W23045  24.413  37.641   0.724
57885W        W23046  15.773  15.599  14.775
57886W        W23047  43.008  29.941   1.365
57887W        W23048  43.126  22.640  13.919
57888W        W23049  31.547  38.783  12.461
57889W        W23050  13.404  40.252  10.242
57890W        W23051  24.196  40.739  14.786
57891W        W23052   8.620  11.920   0.968
57892W        W23053   3.410  41.072   1.928
57893W        W23054  24.207  33.659   4.246
57894W        W23055   9.667  31.425   2.602
57895W        W23056   5.829  11.561   2.895
57896W        W23057  12.943  23.235   2.244
57897W        W23058  12.602  19.701  12.816
57898W        W23059  37.503  32.967   3.422
57899W        W23060  40.139   0.465   4.378
57900W        W23061  11.583   1.977   3.728
57901W        W23062  30.792  14.127   0.825
57902W        W23063   4.687  33.925  12.997
57903W        W23064  43.450  39.783  10.581
57904W        W23065  29.662   8.401   4.404
57905W        W23066   4.470  16.563  11.388
57906W        W23067   4.361  14.050  10.732
57907W        W23068  28.621  41.043  13.917
57908W        W23069  20.020   6.444   3.252
57909W        W23070   1.370  14.715  12.453
57910W        W23071  10.193  13.758   1.400
57911W        W23072  43.779   7.983  12.995
57912W        W23073  28.106  30.508  10.560
57913W        W23074  24.233  40.385   3.959
57914W        W23075  39.991  35.196   0.403
57915W        W23076  37.616   6.424  11.962
57916W        W23077  19.350  25.269  14.068
57917W        W23078  20.660   5.392  11.235
57918W        W23079   5.374  31.930   0.553
57919W        W23080  16.172  19.206   2.568
57920W        W23081  32.127  25.223  12.452
57921W        W23082  17.201   5.960   3.431
57922W        W23083  30.198  11.158  11.607
57923W        W23084  26.730  41.867  11.107
57924W        W23085  41.293  10.723   0.748
57925W        W23086  13.582   1.898   3.868
57926W        W23087  34.863  38.903   1.234
57927W        W23088  20.279  31.931  11.252
57928W        W23089  43.937  35.805  14.868
57929W        W23090  44.935   1.863   2.954
57930W        W23091  44.262  12.977   5.011
57931W        W23092   1.856   8.502  13.306
57932W        W23093  40.487  37.870  10.563
57933W        W23094  25.191  33.135  10.591
57934W        W23095  37.310  43.953   2.279
57935W        W23096  28.789  35.877   1.373
57936W        W23097   5.728  10.778   0.518
57937W        W23098  12.730  29.210   4.014
57938W        W23099  13.093   9.811  12.902
57939W        W23100  33.971  26.552  14.139
57940W        W23101  28.020   3.688  12.435
57941W        W23102  29.616  14.285  14.136
57942W        W23103  34.326  23.614  13.773
57943W        W23104  40.245  17.509   4.593
57944W        W23105  24.330   6.171  13.322
57945W        W23106  32.102  30.946   1.779
57946W        W23107   8.487  33.010  13.044
57947W        W23108  22.501   6.403   1.942
57948W        W23109   0.609  30.602  14.425
57949W        W23110  37.473   2.229   4.564
57950W        W23111  42.111  28.741   2.771
57951W        W23112  23.104  39.086  13.346
57952W        W23113  20.011  23.455  11.547
57953W        W23114   5.666  37.870   2.263
57954W        W23115   3.412  44.800   1.488
57955W        W23116   6.989  25.500  14.378
57956W        W23117  17.482  31.488   3.028
57957W        W23118  14.717  18.042  11.991
57958W        W23119  22.963  35.848   5.234
57959W        W23120  42.177  31.906   3.845
57960W        W23121  27.199  10.155   0.380
57961W        W23122  44.380   0.638  10.545
57962W        W23123  13.834  41.517  11.063
57963W        W23124  35.134  19.531  12.547
57964W        W23125  33.037   1.778  14.735
57965W        W23126  44.858  20.588  10.893
57966W        W23127  18.030  43.773   4.614
57967W        W23128   0.268  31.088  13.836
57968W        W23129  30.849  11.196   1.317
57969W        W23130  41.407  24.978   1.328
57970W        W23131  21.583  24.244   1.761
57971W        W23132   0.137  38.335   1.228
57972W        W23133  30.230  39.196   5.120
57973W        W23134   7.349   5.947   4.685
57974W        W23135  16.820   6.192  12.409
57975W        W23136  20.486  23.607  11.447
57976W        W23137  23.032  27.962   1.307
57977W        W23138  36.330  38.860   4.092
57978W        W23139  42.774  36.149  14.461
57979W        W23140  12.645  18.933   2.728
57980W        W23141  22.279  21.135  14.912
57981W        W23142  16.515  12.373  14.513
57982W        W23143  43.363  10.271  14.822
57983W        W23144  26.001   7.956   1.445
57984W        W23145   0.266  29.673   2.175
57985W        W23146  35.510  35.130  11.982
57986W        W23147  42.829  16.641  12.568
57987W        W23148  16.004   9.013   2.360
57988W        W23149  27.548  14.596   3.629
57989W        W23150  18.071  27.606  14.318
57990W        W23151  10.939  27.343  14.858
57991W        W23152  12.367  10.938   2.564
57992W        W23153  29.458   5.096   0.900
57993W        W23154  20.079  30.887  11.051
57994W        W23155  36.430  41.393  10.456
57995W        W23156  17.291   4.179   3.616
57996W        W23157   6.105  12.937   4.558
57997W        W23158  36.148  10.766  12.996
57998W        W23159  43.160  12.168   3.297
57999W        W23160  44.018  25.122   0.007
58000W        W23161  23.804  13.289   0.771
58001W        W23162  13.087  12.544  13.018
58002W        W23163   3.981  18.690  14.241
58003W        W23164   5.660  40.198   1.391
58004W        W23165   2.292  28.466  10.661
58005W        W23166  33.949  16.834   0.823
58006W        W23167  30.697  31.023   0.606
58007W        W23168  24.315  19.222   3.186
58008W        W23169  28.992  36.535  12.789
58009W        W23170  11.683   4.109   1.343
58010W        W23171  20.394   0.358   0.197
58011W        W23172  11.377  39.483   0.444
58012W        W23173  19.527   3.210  14.901
58013W        W23174  29.686  43.402  10.763
58014W        W23175   5.347  41.147   2.685
58015W        W23176  26.231   3.011   2.919
58016W        W23177  32.633  36.878   0.270
58017W        W23178  10.437  21.041  12.078
58018W        W23179  11.252   7.334   3.004
58019W        W23180   3.380  11.834  11.284
58020W        W23181  12.132  19.663   2.900
58021W        W23182  28.559  12.510  13.684
58022W        W23183   6.661  38.860  11.337
58023W        W23184  40.165  24.644  11.641
58024W        W23185  16.492   8.323  13.049
58025W        W23186  21.525   0.253  11.929
58026W        W23187  35.846  16.186  14.160
58027W        W23188  26.248  37.323   0.190
58028W        W23189  11.331  24.454  12.500
58029W        W23190  38.649   0.787  11.239
58030W        W23191  35.971   8.089  13.277
58031W        W23192  25.471  25.635  13.382
58032W        W23193  21.699  21.995  12.033
58033W        W23194  31.509  43.765  14.894
58034W        W23195  38.935  42.588   1.829
58035W        W23196  10.696   5.096  11.439
58036W        W23197  19.483  40.335   2.227
58037W        W23198   0.388  34.031   4.682
58038W        W23199   6.608  20.587  14.202
58039W        W23200  25.924  24.937   4.933
58040W        W23201  43.322  24.484   0.235
58041W        W23202   6.084   5.659   4.394
58042W        W23203  25.542   0.831  10.227
58043W        W23204  34.883  29.935   1.172
58044W        W23205  43.420   5.805  12.075
58045W        W23206  16.114   2.487   2.071
58046W        W23207  30.344  41.017  12.353
58047W        W23208  26.529   5.069   0.394
58048W        W23209  32.191   1.214  13.396
58049W        W23210  13.916   4.023  12.177
58050W        W23211  14.279  27.158  12.566
58051W        W23212  23.541  39.044   0.935
58052W        W23213  12.135  19.691   3.779
58053W        W23214  27.395   6.423   2.064
58054W        W23215  14.723   5.348   1.052
58055W        W23216  33.609  21.989  12.014
58056W        W23217  26.895  44.974   1.840
58057W        W23218   0.317  24.764   1.852
58058W        W23219  23.164  31.208   2.395
58059W        W23220  14.584  19.659  13.418
58060W        W23221   2.124  36.926   4.883
58061W        W23222  43.392  42.975  14.880
58062W        W23223  30.679  22.007   2.118
58063W        W23224   8.270  17.989  13.810
58064W        W23225   1.205  11.963   4.272
58065W        W23226  27.265  10.279   1.079
58066W        W23227  25.121  43.437  13.083
58067W        W23228  33.580  10.144   0.772
58068W        W23229   2.686  15.028  12.647
58069W        W23230  22.744  14.968  10.866
58070W        W23231  43.471  40.374   4.591
58071W        W23232  24.052  21.766  13.577
58072W        W23233  28.915  42.826  11.196
58073W        W23234  14.405  25.391  13.325
58074W        W23235  38.531  27.764   3.969
58075W        W23236  27.076  42.584  12.081
58076W        W23237  22.080   3.209   3.632
58077W        W23238   8.728  22.463  11.695
58078W        W23239  13.022   4.716   0.413
58079W        W23240   5.537  44.339   9.899
58080W        W23241  40.509   1.714  10.272
58081W        W23242  20.821   5.761  13.516
58082W        W23243  29.928  14.170  10.432
58083W        W23244  31.939  29.611   1.268
58084W        W23245  27.430  37.883   5.566
58085W        W23246   9.982  35.572   3.609
58086W        W23247   0.032  13.371   1.833
58087W        W23248  27.891   2.401   2.314
58088W        W23249  12.280  23.298  14.924
58089W        W23250  23.654  26.317   4.037
58090W        W23251  36.582  23.569  13.960
58091W        W23252  18.838  17.241  13.340
58092W        W23253  17.458  20.043  11.685
58093W        W23254  24.457  41.306  12.061
58094W        W23255  23.923  26.566  10.292
58095W        W23256   7.957  12.300   3.615
58096W        W23257  29.914  35.303  14.528
58097W        W23258  29.958   0.268  10.427
58098W        W23259  19.353  37.539   1.961
58099W        W23260  19.400  30.978  12.444
58100W        W23261  10.306  30.232   1.639
58101W        W23262   7.407  43.298   2.842
58102W        W23263  36.825  36.950  14.981
58103W        W23264  20.715  21.137   0.624
58104W        W23265  11.888  11.724  13.817
58105W        W23266   9.730  40.878   2.456
58106W        W23267  16.170  38.901  10.195
58107W        W23268  25.742  24.387  10.682
58108W        W23269  33.903   2.701   3.850
58109W        W23270  38.599  25.150  13.408
58110W        W23271  24.738   4.696  11.561
58111W        W23272  33.873  44.536  13.941
58112W        W23273  29.164  35.788  12.485
58113W        W23274   6.232  10.304   1.705
58114W        W23275  34.037   5.227   1.369
58115W        W23276   3.887   0.279  10.304
58116W        W23277  41.549  39.175  13.455
58117W        W23278  28.882  20.024   2.342
58118W        W23279  30.919  10.638  12.319
58119W        W23280  40.893  33.587  12.121
58120W        W23281  29.804   0.517  11.306
58121W        W23282  24.111  23.152  14.621
58122W        W23283  11.924  33.379  12.797
58123W        W23284  25.338  37.446  10.773
58124W        W23285   5.359  10.388  11.802
58125W        W23286  24.759  21.944  12.542
58126W        W23287  24.737  22.210   0.850
58127W        W23288  23.922   4.285   0.245
58128W        W23289  42.927  26.491  12.516
58129W        W23290  44.381  32.498   0.086
58130W        W23291  39.753  34.037  11.440
58131W        W23292  26.503  17.035  12.435
58132W        W23293  43.607  15.293  13.628
58133W        W23294  21.460   5.197   4.626
58134W        W23295   2.656  14.659  13.480
58135W        W23296  33.695   0.954  13.059
58136W        W23297  11.651  38.933  12.888
58137W        W23298  43.288  28.929   1.194
58138W        W23299  21.112   7.677   4.237
58139W        W23300  35.433  24.270  14.045
58140W        W23301  34.898  39.219  14.845
58141W        W23302  13.511  41.974   3.594
58142W        W23303   7.738  12.136   4.056
58143W        W23304  33.707  39.893   1.484
58144W        W23305  13.078   8.261   4.826
58145W        W23306  27.467  35.969   3.360
58146W        W23307  31.615  10.829   3.203
58147W        W23308  42.957   3.618  14.372
58148W        W23309  38.073  35.749   3.263
58149W        W23310  40.108  38.837  13.311
58150W        W23311  32.465  28.188  11.029
58151W        W23312  34.398  18.411   3.117
58152W        W23313  32.072  10.865   1.853
58153W        W23314  37.315  19.467   3.377
58154W        W23315   8.072   5.008   2.492
58155W        W23316  40.992  19.329   3.818
58156W        W23317  29.541  32.995  11.113
58157W        W23318   3.320  28.014   3.733
58158W        W23319   2.800  33.841  10.936
58159W        W23320  37.373   6.150   4.702
58160W        W23321   2.123  30.603   4.058
58161W        W23322  39.621  27.049   0.172
58162W        W23323   1.825   3.327  12.079
58163W        W23324  30.257  41.747  13.896
58164W        W23325  25.508  39.146   4.281
58165W        W23326  19.798   9.167  11.149
58166W        W23327  33.244  22.651   4.498
58167W        W23328  16.567   0.476  14.226
58168W        W23329  18.984  36.471   3.257
58169W        W23330  17.487  30.039   2.647
58170W        W23331   9.168  34.548   3.899
58171W        W23332  11.151  44.972   2.705
58172W        W23333  27.419  12.653  12.195
58173W        W23334  39.461   6.432  13.419
58174W        W23335  44.369  30.517   0.806
58175W        W23336   8.763   0.549   2.763
58176W        W23337  13.107   4.244  12.599
58177W        W23338  39.028  36.938  13.592
58178W        W23339  38.333  36.668   1.163
58179W        W23340  11.100  37.500   5.056
58180W        W23341   5.482  27.035   3.254
58181W        W23342  36.886   8.241   0.380
58182W        W23343  24.483  30.457   2.410
58183W        W23344  33.122  28.560   3.454
58184W        W23345   5.719  21.948   3.562
58185W        W23346  24.170  26.218   0.426
58186W        W23347  40.272  25.662  11.593
58187W        W23348  41.318   7.622  13.246
58188W        W23349  24.204  35.478   0.417
58189W        W23350  31.660   4.395   1.713
58190W        W23351  13.598  26.651   4.749
58191W        W23352  33.743  29.544  13.955
58192W        W23353  24.766   8.976   4.476
58193W        W23354  39.593  29.267  12.491
58194W        W23355  16.797  12.025   1.825
58195W        W23356   5.337  22.669   2.839
58196W        W23357  44.218  41.629  14.591
58197W        W23358   8.164  27.068   0.881
58198W        W23359   1.267  10.854  11.006
58199W        W23360  40.879   9.910  14.268
58200W        W23361  21.384  33.988  13.863
58201W        W23362  41.374  30.584   1.802
58202W        W23363  38.180  38.896   3.305
58203W        W23364  39.783  39.939  13.364
58204W        W23365  34.536   4.860   3.928
58205W        W23366  31.147  31.017   0.318
58206W        W23367  19.321   8.299  11.647
58207W        W23368  34.042  26.431  11.975
58208W        W23369  27.092  11.266   0.725
58209W        W23370  19.106  10.868  10.732
58210W        W23371  16.351  39.963   1.404
58211W        W23372  43.455  37.419  14.374
58212W        W23373  40.804  43.228  11.605
58213W        W23374   4.411   0.472  14.101
58214W        W23375  22.546  24.181   3.064
58215W        W23376  14.502  42.792   2.919
58216W        W23377  43.044  20.666  13.996
58217W        W23378  43.929   6.390  11.582
58218W        W23379  36.320  27.419   2.968
58219W        W23380  35.980  29.106   2.106
58220W        W23381   6.849  22.431  11.639
58221W        W23382  35.613  32.451  13.594
58222W        W23383  26.511   9.886   1.468
58223W        W23384   5.473  31.442  11.650
58224W        W23385  43.763  16.245   0.906
58225W        W23386  43.423  38.450   2.902
58226W        W23387  35.624  43.990  12.895
58227W        W23388  44.418  19.211  14.969
58228W        W23389   2.208  39.871   2.238
58229W        W23390  37.786  36.219   3.155
58230W        W23391  44.522  12.696   1.766
58231W        W23392  11.650   5.929  11.808
58232W        W23393   1.433  34.451   1.488
58233W        W23394  14.739   8.270   2.965
58234W        W23395   1.951   6.336  11.809
58235W        W23396   0.011  15.255   0.539
58236W        W23397  37.515   7.346  12.181
58237W        W23398  42.610   2.255   3.912
58238W        W23399  14.138  27.664   1.890
58239W        W23400  37.853  40.747   0.151
58240W        W23401  42.868   7.466   4.565
58241W        W23402   9.305  36.529   4.412
58242W        W23403  43.428  29.324   3.355
58243W        W23404  42.035  31.430   3.693
58244W        W23405  37.360  15.825  12.420
58245W        W23406   7.676  31.755   2.349
58246W        W23407  42.058  42.399   3.341
58247W        W23408  19.287   7.295   2.780
58248W        W23409  27.493  36.947  10.556
58249W        W23410   2.533   3.664  11.094
58250W        W23411  34.587  25.117   3.734
58251W        W23412  42.388   2.176  12.919
58252W        W23413  19.025  31.612   3.633
58253W        W23414   5.407  27.208  12.218
58254W        W23415  21.181   1.680  10.571
58255W        W23416   0.482   3.197   2.755
58256W        W23417  32.951  25.010   0.917
58257W        W23418  25.844  29.557  13.287
58258W        W23419  22.034  25.203  14.890
58259W        W23420  15.907   4.908  11.065
58260W        W23421  35.918  40.052   1.326
58261W        W23422  29.620  41.952  11.476
58262W        W23423  24.862  37.232   9.855
58263W        W23424  13.760   1.247  13.823
58264W        W23425  18.632  42.245  13.961
58265W        W23426  11.818  27.979   1.707
58266W        W23427  44.245  44.168  11.064
58267W        W23428  22.243  44.235   3.684
58268W        W23429  23.382  25.692  10.987
58269W        W23430   3.734  40.330  11.557
58270W        W23431  39.075  25.710   1.989
58271W        W23432  35.065   2.784  11.899
58272W        W23433   9.077  15.840   9.915
58273W        W23434  13.572  41.357  11.468
58274W        W23435  40.861  20.388   3.802
58275W        W23436   1.463  27.595   0.621
58276W        W23437  17.938   8.904   4.576
58277W        W23438   1.748  22.998   3.604
58278W        W23439  19.439  24.147  11.190
58279W        W23440  33.016   2.744  11.626
58280W        W23441   8.285  39.993   0.662
58281W        W23442  33.917  36.630   2.719
58282W        W23443  44.626  19.571  11.838
58283W        W23444  39.938  11.682   1.324
58284W        W23445  27.690  42.207  12.564
58285W        W23446  24.071  31.987  12.743
58286W        W23447  12.301   5.867   4.678
58287W        W23448  21.238  34.462   2.282
58288W        W23449  18.253  23.632   2.243
58289W        W23450  32.234  44.467  11.019
58290W        W23451  29.372  38.596  13.755
58291W        W23452  36.035  33.153  10.742
58292W        W23453  41.552  36.000   5.182
58293W        W23454  25.766  39.094  13.105
58294W        W23455  12.663   7.618  11.368
58295W        W23456  25.909  36.247  11.821
58296W        W23457  41.954  33.428  14.873
58297W        W23458  15.330  38.257   2.577
58298W        W23459  13.443  31.119   4.108
58299W        W23460  23.512   0.994  12.941
58300W        W23461   2.215  30.895  11.630
58301W        W23462  39.443  18.834  10.759
58302W        W23463  39.234  14.752   2.867
58303W        W23464  19.853  38.134  11.641
58304W        W23465  37.344  30.174   0.874
58305W        W23466   8.933  19.149  12.071
58306W        W23467  22.090  11.901   4.927
58307W        W23468  22.809  21.002   9.815
58308W        W23469  11.173  35.165  13.589
58309W        W23470  39.996  34.308   1.252
58310W        W23471  25.143  16.053  11.216
58311W        W23472  44.259  29.550   1.235
58312W        W23473  20.645   6.248  13.510
58313W        W23474  27.788  25.003  12.532
58314W        W23475  12.071  31.657   4.115
58315W        W23476  42.121  22.148  13.328
58316W        W23477  25.540  26.321   0.693
58317W        W23478  23.564  38.803  12.165
58318W        W23479  34.954  28.199   3.666
58319W        W23480  28.392  10.711   2.403
58320W        W23481  31.986  41.061   0.382
58321W        W23482   8.902   4.749   1.904
58322W        W23483   1.791  37.515  12.501
58323W        W23484  15.272   2.898  14.661
58324W        W23485  34.147  10.386   1.754
58325W        W23486  25.920  20.319  14.733
58326W        W23487  23.586  26.988  12.478
58327W        W23488  30.617  11.153   3.628
58328W        W23489  21.754  16.029  14.483
58329W        W23490  20.540  31.154   0.499
58330W        W23491  17.799   2.430  14.079
58331W        W23492   2.649   2.479   4.196
58332W        W23493  10.399   5.355  13.003
58333W        W23494   2.534  44.715   0.452
58334W        W23495  28.940   6.695  11.715
58335W        W23496  11.618  42.875  12.909
58336W        W23497   8.914  35.636   0.115
58337W        W23498  21.744  39.846   0.751
58338W        W23499  14.634  42.743   4.228
58339W        W23500  19.699  30.445  13.404
58340W        W23501  24.467   5.931   1.819
58341W        W23502  29.521  35.875   4.619
58342W        W23503  44.990  27.503   4.606
58343W        W23504   1.063  21.951   0.364
58344W        W23505  42.761   2.397   2.912
58345W        W23506   9.442  18.123   0.766
58346W        W23507   7.152   4.856  13.091
58347W        W23508  19.576  37.904   3.668
58348W        W23509  37.580   7.160  11.173
58349W        W23510  32.601  20.527   1.784
58350W        W23511  37.577  38.462  11.459
58351W        W23512   5.725   6.042  12.959
58352W        W23513  23.503  36.408  11.143
58353W        W23514  23.159  21.564  14.073
58354W        W23515  35.611  27.193  14.563
58355W        W23516  41.344  29.587  10.659
58356W        W23517  43.103  25.206  14.297
58357W        W23518  44.456  20.710   2.345
58358W        W23519  18.657  13.707  10.951
58359W        W23520  11.306  25.188   1.140
58360W        W23521   3.360  36.017  14.431
58361W        W23522   4.782  11.366   4.691
58362W        W23523  42.964  25.091   1.315
58363W        W23524  23.946  43.327  14.535
58364W        W23525  18.495  19.106  12.595
58365W        W23526  41.461  30.379   2.772
58366W        W23527  20.856  33.633   3.670
58367W        W23528  27.597  17.145   1.076
58368W        W23529  12.559  35.168  13.864
58369W        W23530  27.692  42.815  13.386
58370W        W23531  28.537  16.569   1.916
58371W        W23532   7.800  20.899   1.602
58372W        W23533  19.307  20.142  11.915
58373W        W23534  11.897   3.499  13.263
58374W        W23535   9.042  29.099  12.589
58375W        W23536  24.922  28.061  11.634
58376W        W23537   4.704  38.156   1.412
58377W        W23538  36.920  35.908   1.293
58378W        W23539  32.908  20.631   4.564
58379W        W23540  23.005  26.785  10.330
58380W        W23541  16.872  34.012   3.075
58381W        W23542  35.298  36.158  11.954
58382W        W23543  38.939   4.885  14.762
58383W        W23544  17.352  35.166  12.829
58384W        W23545  23.936  22.147   1.203
58385W        W23546  44.814  18.385   0.612
58386W        W23547   5.332  43.014  11.084
58387W        W23548  37.599  28.579   1.940
58388W        W23549   7.999   0.318  14.219
58389W        W23550  13.924  27.970  10.955
58390W        W23551  28.574  41.750  14.533
58391W        W23552  11.874  13.849   2.973
58392W        W23553  44.796  32.925   4.725
58393W        W23554  31.765  32.531   5.019
58394W        W23555  39.135   2.348  12.739
58395W        W23556  10.347  44.915   0.822
58396W        W23557  38.574  23.043  12.062
58397W        W23558   4.712  27.393  10.526
58398W        W23559  20.067  43.640  14.326
58399W        W23560  12.296  20.157   2.879
58400W        W23561  37.215  33.130   4.406
58401W        W23562  15.286  37.448  11.630
58402W        W23563  40.252   4.830   1.143
58403W        W23564  25.864   0.028   4.279
58404W        W23565  39.012   2.489  11.714
58405W        W23566  37.797  42.953  13.629
58406W        W23567  42.469  20.111  14.721
58407W        W23568  15.700  36.509  14.491
58408W        W23569   1.811  24.693  11.697
58409W        W23570  27.470  28.127  14.790
58410W        W23571   4.575  34.041  11.992
58411W        W23572  38.977  17.653   4.029
58412W        W23573  25.391  43.889  14.411
58413W        W23574  23.959  27.192   1.203
58414W        W23575  18.985  40.772   0.309
58415W        W23576  28.880  24.425   4.961
58416W        W23577  33.802  10.275   2.227
58417W        W23578  24.124   4.286   2.139
58418W        W23579   7.946  34.277  11.617
58419W        W23580  41.350   0.998   4.126
58420W        W23581  25.445   8.158  11.496
58421W        W23582  41.523  38.711  10.832
58422W        W23583  22.258  21.694  12.545
58423W        W23584  18.312  43.329   1.141
58424W        W23585  40.363  28.002   2.758
58425W        W23586  44.900  16.418   1.283
58426W        W23587  10.851  33.976  11.620
58427W        W23588  37.003  39.813   9.996
58428W        W23589  42.259  31.177   3.320
58429W        W23590  39.083  16.473   0.511
58430W        W23591  14.257  20.190  10.705
58431W        W23592   4.597   9.191   4.696
58432W        W23593   1.890  18.739  13.087
58433W        W23594  43.042  16.695  11.198
58434W        W23595  16.159  11.706  10.702
58435W        W23596  20.520  21.347   0.195
58436W        W23597  13.643  31.363  11.515
58437W        W23598   1.262  22.213   0.759
58438W        W23599   6.475   0.639   4.209
58439W        W23600  36.084  18.115  13.570
58440W        W23601  28.925  37.055  11.910
58441W        W23602  27.762  37.451   4.129
58442W        W23603   7.888   0.012   4.610
58443W        W23604  39.555   2.822   1.772
58444W        W23605   5.321   2.903   3.807
58445W        W23606  36.461  15.193  13.795
58446W        W23607  38.314  14.950  11.664
58447W        W23608  19.722  43.888   1.877
58448W        W23609   9.999  14.928   2.700
58449W        W23610  34.411  20.263   4.339
58450W        W23611  24.840  20.627  12.549
58451W        W23612  31.959   2.995  11.962
58452W        W23613  40.508  13.639   3.260
58453W        W23614   5.341   5.191   2.721
58454W        W23615  15.373   3.995   2.019
58455W        W23616   1.666  30.679  13.016
58456W        W23617  20.430   3.981  11.126
58457W        W23618  43.267  40.420  11.193
58458W        W23619   9.298  21.305   1.511
58459W        W23620   9.336  28.711   1.513
58460W        W23621  27.145  41.988   4.783
58461W        W23622  11.522  33.951   3.260
58462W        W23623  32.462   2.345   3.921
58463W        W23624  19.787  18.334   5.678
58464W        W23625  11.334   3.339  13.947
58465W        W23626  33.733  42.540   1.347
58466W        W23627  14.086   6.029  12.536
58467W        W23628   7.924  37.406   1.111
58468W        W23629  10.242  40.399  14.007
58469W        W23630  36.538  14.115   3.843
58470W        W23631  34.042  42.933   1.419
58471W        W23632  25.770  14.083  12.092
58472W        W23633  42.540   4.957  10.708
58473W        W23634  19.209  26.128  14.008
58474W        W23635  43.921  18.759  13.965
58475W        W23636  43.219  30.939   3.066
58476W        W23637   4.218  12.752  13.390
58477W        W23638   6.274  18.175   1.351
58478W        W23639  24.622  15.520  11.884
58479W        W23640  26.173  40.209   1.383
58480W        W23641   4.447   7.742  14.978
58481W        W23642  32.527  40.442  12.963
58482W        W23643  39.848  17.933  11.976
58483W        W23644  10.647  35.550   1.680
58484W        W23645  17.176  36.819   3.298
58485W        W23646  15.443   2.937  14.173
58486W        W23647  28.978  31.200   4.236
58487W        W23648  20.259  16.359  13.528
58488W        W23649  21.375  29.334   4.470
58489W        W23650   5.161  43.587  11.111
58490W        W23651  25.967  20.602   3.423
58491W        W23652  14.675  18.327   2.510
58492W        W23653  13.707  11.405  12.499
58493W        W23654   7.604  38.477   3.870
58494W        W23655   1.767  11.619  14.389
58495W        W23656   9.285  32.379  12.604
58496W        W23657  37.289   4.231  11.023
58497W        W23658  35.587  33.705  12.417
58498W        W23659  36.271   0.935   2.741
58499W        W23660  27.428  12.409   0.897
58500W        W23661  19.865   2.710  12.893
58501W        W23662  38.311  18.209  14.744
58502W        W23663  16.442   0.370  11.631
58503W        W23664  21.956   6.626  14.705
58504W        W23665  28.735  28.731  13.905
58505W        W23666  30.950  22.320  11.656
58506W        W23667  14.637  35.328   4.508
58507W        W23668  40.354   8.654  11.929
58508W        W23669  19.531  34.435   1.391
58509W        W23670  38.377  26.497   2.753
58510W        W23671  26.534  26.557  11.593
58511W        W23672  23.111   2.338  12.559
58512W        W23673   2.197   7.289  12.127
58513W        W23674  15.193   3.489   2.005
58514W        W23675  11.548  34.402   1.893
58515W        W23676   2.516  25.164   4.031
58516W        W23677  10.117  20.588   2.695
58517W        W23678  38.603   6.459  11.114
58518W        W23679  14.504  35.669  13.506
58519W        W23680  36.899  28.683   3.325
58520W        W23681  43.461  29.766  10.941
58521W        W23682  34.651  22.308   1.649
58522W        W23683   9.782  36.070  12.418
58523W        W23684   8.591  25.744  10.021
58524W        W23685  25.604  29.495   2.514
58525W        W23686  22.658  36.831   2.962
58526W        W23687  37.977   7.213  12.397
58527W        W23688  29.657  20.202   1.147
58528W        W23689   4.287  12.440  12.469
58529W        W23690  37.514  19.124  13.995
58530W        W23691  14.298  34.662  11.537
58531W        W23692  22.630  42.183   1.730
58532W        W23693   0.988   5.283  14.161
58533W        W23694  32.885  13.791   2.325
58534W        W23695  15.189  33.040  13.954
58535W        W23696   7.119  36.436   1.921
58536W        W23697  32.214  26.150   1.252
58537W        W23698  13.963  37.405  12.126
58538W        W23699   0.515   9.134  12.870
58539W        W23700  34.515  43.066  12.918
58540W        W23701  41.545  10.835   0.267
58541W        W23702  42.467  41.677   0.335
58542W        W23703  22.741  22.424   0.839
58543W        W23704  30.618  35.017  13.489
58544W        W23705  16.013   9.854   1.462
58545W        W23706  13.313  44.891   2.769
58546W        W23707  35.228  11.832   1.422
58547W        W23708  20.500  21.854  12.052
58548W        W23709  14.231  39.288   3.642
58549W        W23710   1.913  14.102  12.472
58550W        W23711   5.156  43.330   3.418
58551W        W23712   6.638  19.647  11.319
58552W        W23713  37.038  42.981   0.874
58553W        W23714  41.355  43.528  14.365
58554W        W23715  23.064  17.595   4.002
58555W        W23716  39.817   1.321  13.573
58556W        W23717  11.855   2.221   1.385
58557W        W23718   1.507   6.469  12.093
58558W        W23719  11.617  20.618  12.359
58559W        W23720  17.717  17.818  10.839
58560W        W23721  21.541  12.652   3.381
58561W        W23722  28.771  28.169  14.341
58562W        W23723  38.513  25.556   0.813
58563W        W23724  44.901  17.533   0.394
58564W        W23725  34.422  33.226   4.810
58565W        W23726  25.004  17.772  14.571
58566W        W23727  23.582  11.692  14.772
58567W        W23728  38.898  19.032  13.825
58568W        W23729  12.648  13.873  13.931
58569W        W23730  40.997  16.988   1.329
58570W        W23731  24.138   3.509   4.150
58571W        W23732   2.443  13.378  13.829
58572W        W23733  44.148   1.598   0.836
58573W        W23734  27.537  24.079   0.467
58574W        W23735  29.554  39.946   1.651
58575W        W23736  33.809   9.446  11.940
58576W        W23737  21.611   6.626  13.500
58577W        W23738   6.080  18.051  10.583
58578W        W23739  34.164  20.203   0.896
58579W        W23740   4.703  22.332  10.079
58580W        W23741   6.621  37.312  13.127
58581W        W23742  23.441  22.543  14.040
58582W        W23743  16.447   8.148   3.691
58583W        W23744   5.215   6.202   0.874
58584W        W23745   1.773  20.278  13.215
58585W        W23746  28.986   8.928  10.599
58586W        W23747  42.471  32.439   2.292
58587W        W23748  23.852  24.535  12.548
58588W        W23749  33.421  30.143  11.542
58589W        W23750  25.242  30.618  10.770
58590W        W23751  26.727   4.320   3.167
58591W        W23752  41.703  12.064  14.391
58592W        W23753  34.686  35.808  13.789
58593W        W23754  41.561  42.867   3.592
58594W        W23755  39.219  10.715  12.460
58595W        W23756  19.562  33.593   1.574
58596W        W23757  29.479  11.016   4.062
58597W        W23758  18.985  22.767   2.689
58598W        W23759  19.724  15.129   4.061
58599W        W23760  42.001  14.209  14.482
58600W        W23761  21.653  23.740   1.695
58601W        W23762  13.785  11.266  14.978
58602W        W23763  37.571   6.387   3.802
58603W        W23764  27.415  26.319   3.260
58604W        W23765  14.311  30.229  13.578
58605W        W23766   0.359  43.052   2.271
58606W        W23767   7.817  32.997  10.681
58607W        W23768   8.247  13.513  11.932
58608W        W23769  22.136  31.675  10.657
58609W        W23770  14.083  34.662   4.245
58610W        W23771   5.626  25.541  13.201
58611W        W23772  42.079  18.265  14.741
58612W        W23773  30.249   4.082   2.022
58613W        W23774  33.139  21.727   4.033
58614W        W23775  43.569   9.441  14.216
58615W        W23776   2.753  22.381   4.082
58616W        W23777  26.983  41.501   2.108
58617W        W23778  42.968  38.452   3.749
58618W        W23779  40.965  35.977  14.506
58619W        W23780  17.199  32.724   1.373
58620W        W23781   5.544  31.847   3.237
58621W        W23782  39.780   6.240  11.557
58622W        W23783  16.700  39.113   0.226
58623W        W23784  18.632  16.540   0.397
58624W        W23785   9.366  32.545   4.327
58625W        W23786   4.681  17.140   2.683
58626W        W23787  31.597   8.219   0.995
58627W        W23788   5.781  23.754   3.713
58628W        W23789  13.157  34.957  10.257
58629W        W23790  24.709  39.939   0.387
58630W        W23791  20.693  22.007  14.121
58631W        W23792  33.563   2.957   0.782
58632W        W23793  39.993  21.259   0.400
58633W        W23794  35.340   7.905   4.587
58634W        W23795  14.596   1.227  14.994
58635W        W23796   3.896  25.673   0.916
58636W        W23797  18.256  37.456  13.987
58637W        W23798   5.353  26.910  11.321
58638W        W23799  18.110  32.885   2.288
58639W        W23800  23.181  29.793   2.317
58640W        W23801   6.366  39.931  13.276
58641W        W23802  21.699  19.103  13.074
58642W        W23803  15.185  13.671  11.132
58643W        W23804  28.976   4.343  12.029
58644W        W23805  26.083  17.074   2.801
58645W        W23806  35.471  29.646   4.518
58646W        W23807  26.198   4.259  12.814
58647W        W23808  36.633   7.332   2.770
58648W        W23809   6.483  30.688   0.470
58649W        W23810  28.047   2.840  13.494
58650W        W23811   8.181  20.501  12.158
58651W        W23812   4.992  39.537   2.204
58652W        W23813  18.188  18.189   0.766
58653W        W23814  42.823  10.765   1.780
58654W        W23815   1.117  35.872  12.017
58655W        W23816  28.945  33.396  14.893
58656W        W23817  43.373  13.204   0.697
58657W        W23818  17.437   7.856  10.810
58658W        W23819  27.431  23.270  10.291
58659W        W23820  40.137  43.878   4.258
58660W        W23821  40.094  42.559   2.260
58661W        W23822  20.053   4.208  13.733
58662W        W23823  23.229  35.317  14.418
58663W        W23824  25.792  23.906   3.656
58664W        W23825  22.687   1.165  14.372
58665W        W23826  36.431  10.440   0.765
58666W        W23827  34.889  33.341   3.359
58667W        W23828  30.951  27.904   0.363
58668W        W23829  16.958  31.874   1.358
58669W        W23830   7.670  11.556  14.671
58670W        W23831  29.851  13.249  11.914
58671W        W23832  12.630  35.037  12.018
58672W        W23833  33.299  23.021   4.872
58673W        W23834  19.783   8.674  14.926
58674W        W23835  23.580   7.408  14.767
58675W        W23836  18.785   0.489  11.623
58676W        W23837  20.970  21.570   0.418
58677W        W23838  38.172   2.384  12.397
58678W        W23839   4.416  40.112  12.918
58679W        W23840  16.004  14.624   3.142
58680W        W23841  35.884  12.125  11.490
58681W        W23842  10.691  26.335   1.595
58682W        W23843   1.616  28.616   1.034
58683W        W23844   9.021  13.177   0.417
58684W        W23845  26.258  34.882  13.342
58685W        W23846  10.683  34.453  10.506
58686W        W23847  35.345  18.128  14.871
58687W        W23848  22.025  29.375  13.520
58688W        W23849  23.922  21.198   2.117
58689W        W23850   7.125  25.462   9.884
58690W        W23851  44.700  18.459  11.199
58691W        W23852   9.832  11.812   4.491
58692W        W23853   8.218  14.241  13.881
58693W        W23854  17.509  10.808  13.903
58694W        W23855  19.290  34.567   1.816
58695W        W23856  15.182  14.321   0.341
58696W        W23857  12.125  14.245   3.280
58697W        W23858  21.484  37.785   0.728
58698W        W23859  27.657   4.068   0.637
58699W        W23860  35.471   8.425   0.407
58700W        W23861   1.270  22.757   4.149
58701W        W23862  30.629  21.209   0.517
58702W        W23863  33.408  31.607   0.117
58703W        W23864   8.812  25.965   0.825
58704W        W23865  13.920  27.086   0.349
58705W        W23866  24.050  37.275   1.588
58706W        W23867  15.856  22.555  13.061
58707W        W23868  17.379  11.936   0.275
58708W        W23869  14.133   2.817   2.378
58709W        W23870  42.425  25.723  12.517
58710W        W23871  36.369  22.269  13.707
58711W        W23872  28.247  37.236   0.213
58712W        W23873  18.547  41.001  10.078
58713W        W23874  34.970  43.436  11.241
58714W        W23875  39.971  21.781   0.371
58715W        W23876  32.537  13.336  13.506
58716W        W23877  12.377  24.126  12.395
58717W        W23878  31.581   6.511   0.755
58718W        W23879  42.447  22.169  14.861
58719W        W23880  26.615  20.174  12.041
58720W        W23881  39.241  28.250  14.799
58721W        W23882  39.252  41.492   2.774
58722W        W23883  15.139  36.112   1.309
58723W        W23884  12.226  10.759   3.045
58724W        W23885  33.876  37.783  13.539
58725W        W23886  13.957  36.857  13.740
58726W        W23887   3.813  16.666   4.873
58727W        W23888  23.768  43.948   3.185
58728W        W23889  32.128  30.563  13.818
58729W        W23890   5.935  18.027  12.028
58730W        W23891  11.539  24.574  11.609
58731W        W23892  28.980  24.298  11.780
58732W        W23893  19.769  36.933  12.520
58733W        W23894  16.594  32.886   2.303
58734W        W23895  34.354  28.962  12.690
58735W        W23896  43.366  41.591   0.488
58736W        W23897  22.306  19.567  13.956
58737W        W23898  23.215   1.080  12.391
58738W        W23899  28.581  27.244  13.948
58739W        W23900  39.850  42.026   4.792
58740W        W23901  40.534  32.496   1.919
58741W        W23902  13.615  23.908   1.298
58742W        W23903  38.900  39.409  12.365
58743W        W23904  36.496   4.834   3.894
58744W        W23905  10.247  24.006   0.299
58745W        W23906  39.299  30.456  12.931
58746W        W23907  31.012  43.903   3.085
58747W        W23908  39.501   9.903  13.909
58748W        W23909  11.458  13.659  11.478
58749W        W23910  30.832   5.898  13.027
58750W        W23911  43.678  22.608   4.546
58751W        W23912  13.866  30.042   0.294
58752W        W23913  39.881  43.049  11.591
58753W        W23914  42.535  39.298   3.224
58754W        W23915  32.959   1.225   4.668
58755W        W23916  12.306  41.128  14.413
58756W        W23917  15.038  41.666   4.142
58757W        W23918  32.037  18.943   4.291
58758W        W23919  25.538  31.686  12.892
58759W        W23920  31.705  34.190   0.696
58760W        W23921  44.676  41.406  11.376
58761W        W23922  28.971  38.409  13.418
58762W        W23923  30.747  31.524  12.476
58763W        W23924   3.858  43.627  13.484
58764W        W23925  17.803  29.473   2.238
58765W        W23926   1.855   4.101   4.655
58766W        W23927  35.889   7.354   1.967
58767W        W23928   8.764  14.994   0.844
58768W        W23929  12.747  23.482  12.085
58769W        W23930  36.888  15.335   2.376
58770W        W23931  10.840  42.116   1.819
58771W        W23932  16.081  28.186  12.982
58772W        W23933  16.619  34.564  11.518
58773W        W23934  22.984   6.161   1.929
58774W        W23935  23.058  24.761  13.750
58775W        W23936   4.884  37.761  11.573
58776W        W23937   2.151  13.264   3.159
58777W        W23938  21.207  28.164  12.803
58778W        W23939  19.015  23.093  14.909
58779W        W23940  20.473  19.862  13.547
58780W        W23941  15.142  37.522   3.226
58781W        W23942  36.387  38.049  14.925
58782W        W23943  32.660  22.549   2.237
58783W        W23944   5.223  19.715   1.896
58784W        W23945  28.897  12.357  12.003
58785W        W23946  10.266   0.294  13.510
58786W        W23947  38.050   3.364   0.441
58787W        W23948  31.437  44.431  12.393
58788W        W23949   2.353  24.089   2.330
58789W        W23950  30.676   0.222   4.109
58790W        W23951  34.104  27.466   4.252
58791W        W23952  44.897  23.712  14.382
58792W        W23953  11.671  38.486   3.787
58793W        W23954  42.834   8.016  11.444
58794W        W23955  38.831  26.577   4.113
58795W        W23956  41.257  22.663  11.179
58796W        W23957   9.808   3.779   2.632
58797W        W23958   0.209  24.125   3.167
58798W        W23959  40.466  32.123   3.228
58799W        W23960  39.080  44.402   2.360
58800W        W23961   7.319   3.050   4.760
58801W        W23962   4.440  44.361  14.905
58802W        W23963  38.392  34.534   2.833
58803W        W23964   1.279  33.295   2.255
58804W        W23965  32.609   3.581  14.880
58805W        W23966  44.844  29.678   1.798
58806W        W23967   8.802  39.382  11.498
58807W        W23968   9.308  40.239  10.156
58808W        W23969  17.591  28.066  14.981
58809W        W23970  28.721  39.553   1.442
58810W        W23971  21.107  36.246  11.193
58811W        W23972  33.789   0.218   3.361
58812W        W23973   3.230  36.886   0.765
58813W        W23974   2.662  12.009  14.428
58814W        W23975  30.640  31.644  11.620
58815W        W23976  24.258   6.393   4.673
58816W        W23977  38.655  23.111  14.498
58817W        W23978   8.781  24.139   2.797
58818W        W23979  19.270  23.791   9.967
58819W        W23980  40.479  16.692   2.422
58820W        W23981  23.804  11.657  11.505
58821W        W23982  41.103   4.246   2.277
58822W        W23983   4.425  21.116   2.719
58823W        W23984  25.906  17.301   0.251
58824W        W23985  32.174  13.124   2.309
58825W        W23986  22.187  41.868  14.860
58826W        W23987  31.877  13.547   3.200
58827W        W23988  13.282   9.044  13.411
58828W        W23989  35.371  20.658   1.386
58829W        W23990   0.901  25.003   4.161
58830W        W23991  28.044   1.984   1.414
58831W        W23992  22.734  43.338   2.769
58832W        W23993  23.806  17.079  11.589
58833W        W23994  34.143   8.956  10.902
58834W        W23995  16.558  17.103   1.327
58835W        W23996  43.913  38.340   2.712
58836W        W23997  26.373  25.963  13.449
58837W        W23998  43.288  32.784   2.751
58838W        W23999  29.973  39.817  12.014
58839W        W24000   1.382  13.040   0.283
58840W        W24001  24.262  19.537  13.536
58841W        W24002  31.549  42.262   9.986
58842W        W24003  33.971  22.566  12.715
58843W        W24004  44.951  18.553  11.678
58844W        W24005  35.212  38.031  10.290
58845W        W24006  17.549  29.826   3.559
58846W        W24007  30.962  41.802   1.448
58847W        W24008  13.192  11.263  13.786
58848W        W24009   6.673  19.987   1.856
58849W        W24010  28.626  14.775   3.104
58850W        W24011  31.842  37.049   1.197
58851W        W24012  42.411  30.073   3.788
58852W        W24013  41.400  30.102  10.818
58853W        W24014  25.948   4.658   3.754
58854W        W24015  35.836  23.009  13.628
58855W        W24016  33.879   2.961  10.720
58856W        W24017  18.297  25.706   0.957
58857W        W24018  33.480   2.662  10.911
58858W        W24019  43.807  39.410   1.074
58859W        W24020  28.480  35.819  13.002
58860W        W24021  40.864  22.910   3.375
58861W        W24022  21.169  18.478   2.852
58862W        W24023   5.330  25.455  11.437
58863W        W24024   1.687  27.204   2.482
58864W        W24025  21.717  14.126   2.837
58865W        W24026  27.927   3.631   2.209
58866W        W24027  32.183  28.616  12.664
58867W        W24028  25.008   0.554   2.319
58868W        W24029  39.349  32.112   2.758
58869W        W24030  15.732  12.637   3.224
58870W        W24031  44.728  29.009   0.296
58871W        W24032  38.584   4.251   0.451
58872W        W24033   3.299   4.849  14.777
58873W        W24034  12.627  44.826   3.801
58874W        W24035  11.667  44.074   0.873
58875W        W24036  14.637  44.712   1.523
58876W        W24037  41.931  29.079   4.557
58877W        W24038  11.794  40.788   1.439
58878W        W24039   9.911   6.879   0.876
58879W        W24040  31.928  38.447   1.782
58880W        W24041  27.977  18.625   1.787
58881W        W24042  28.895  10.675   2.281
58882W        W24043   1.003  34.046   3.209
58883W        W24044  42.555   6.804  11.192
58884W        W24045  21.320  38.556   1.164
58885W        W24046  40.964  27.014   2.030
58886W        W24047  32.469  33.335  11.597
58887W        W24048  36.039   0.799  12.862
58888W        W24049   4.836   5.897   3.789
58889W        W24050  12.099   9.914  12.535
58890W        W24051  28.389  27.620  13.632
58891W        W24052  36.295   9.166   2.301
58892W        W24053  10.801  21.112   0.993
58893W        W24054  18.266  23.698   1.719
58894W        W24055  41.332  33.011  12.875
58895W        W24056   7.447  34.788  11.399
58896W        W24057  14.128  33.160   2.925
58897W        W24058  35.312  31.527   4.212
58898W        W24059   7.727  42.668   5.011
58899W        W24060  42.969  13.051   2.767
58900W        W24061   0.912  41.728   2.717
58901W        W24062   5.756   6.500   0.817
58902W        W24063  14.667  37.523   4.615
58903W        W24064  21.874  31.506   0.873
58904W        W24065  17.638  39.659  12.139
58905W        W24066  11.811  24.890   2.783
58906W        W24067  24.403  15.060  11.814
58907W        W24068  20.140  38.811  14.908
58908W        W24069  25.256  43.882   4.033
58909W        W24070   0.320  28.904  11.632
58910W        W24071  36.751  26.476   4.163
58911W        W24072   9.651  23.371   0.699
58912W        W24073  14.637  15.228  14.550
58913W        W24074  25.603  24.114   0.054
58914W        W24075  37.030  22.526  12.019
58915W        W24076  34.430  28.110  11.194
58916W        W24077  12.849  13.697  14.463
58917W        W24078  30.255  13.917   1.901
58918W        W24079  19.989  33.481  10.366
58919W        W24080   2.746  21.110  10.576
58920W        W24081  37.752   9.690  12.393
58921W        W24082  21.959  33.765  14.704
58922W        W24083  27.193  19.599   0.041
58923W        W24084   0.460   6.813   0.484
58924W        W24085  19.507  35.913  14.828
58925W        W24086  11.758  36.517  10.101
58926W        W24087  36.638  35.500  13.841
58927W        W24088  41.945  35.739  11.565
58928W        W24089  12.168  36.505   3.645
58929W        W24090  20.060  16.281  12.120
58930W        W24091  11.198   8.170  10.560
58931W        W24092  12.160  41.820  14.925
58932W        W24093  29.590  25.691   3.646
58933W        W24094  35.254  34.899  11.519
58934W        W24095  29.377   7.016   4.233
58935W        W24096   3.146  25.222  12.152
58936W        W24097  28.870  39.863  10.366
58937W        W24098  21.217   8.539  12.110
58938W        W24099  25.107  27.992   3.627
58939W        W24100  38.460   1.324  11.264
58940W        W24101  13.003  37.076  13.931
58941W        W24102   8.715  30.653   0.499
58942W        W24103  28.566  44.498  10.490
58943W        W24104  37.427  10.718   3.227
58944W        W24105   8.093  17.195   2.730
58945W        W24106   6.079   4.281   1.834
58946W        W24107   8.872  28.656  13.503
58947W        W24108   2.311  28.423  13.939
58948W        W24109  43.886  38.316   1.844
58949W        W24110  27.255  28.519   3.055
58950W        W24111   3.909  11.249  11.568
58951W        W24112  39.540  26.618  10.931
58952W        W24113  36.318   3.858   2.913
58953W        W24114   8.165   9.924   3.867
58954W        W24115  11.236  38.198   3.040
58955W        W24116  19.467  12.163  12.427
58956W        W24117  26.932  40.678  12.642
58957W        W24118   8.199  41.581   4.682
58958W        W24119  13.611  15.172  14.830
58959W        W24120  30.440  13.866  12.317
58960W        W24121  36.499   1.867   0.707
58961W        W24122  20.448  31.198   2.026
58962W        W24123   8.944   3.463  11.908
58963W        W24124  31.956   9.317   4.700
58964W        W24125  27.419   6.206   2.704
58965W        W24126  24.671   5.911  14.062
58966W        W24127  31.933   2.009  11.982
58967W        W24128  41.519  10.676   1.208
58968W        W24129  30.987  37.666  13.062
58969W        W24130  42.473  27.878  10.800
58970W        W24131  29.076  30.540  10.068
58971W        W24132  18.925   2.784   3.257
58972W        W24133   4.895  15.600   2.795
58973W        W24134  11.586  23.208  14.446
58974W        W24135  29.014  24.811   0.337
58975W        W24136   1.471  22.987   2.394
58976W        W24137  26.180  24.616   3.755
58977W        W24138   6.297   9.380   3.338
58978W        W24139   9.165  21.219   3.858
58979W        W24140  28.662  14.128   3.216
58980W        W24141   9.232  30.116   3.685
58981W        W24142   3.614   7.801  10.652
58982W        W24143  39.398   2.305   2.553
58983W        W24144   5.249   4.164  14.327
58984W        W24145  31.410  11.308   3.193
58985W        W24146  32.631  34.927   3.164
58986W        W24147  44.044   5.327  11.086
58987W        W24148  10.117  28.199  13.441
58988W        W24149  16.674  25.526   3.302
58989W        W24150  34.440  30.710   4.373
58990W        W24151   5.690  35.834   4.134
58991W        W24152  40.500  17.373  14.938
58992W        W24153  10.149  38.506  13.919
58993W        W24154  19.297   1.616  13.905
58994W        W24155   7.792  37.635  14.346
58995W        W24156  20.360  40.530   3.046
58996W        W24157   7.176  24.503  12.039
58997W        W24158  17.651  42.569  10.673
58998W        W24159  30.998  39.279   1.104
58999W        W24160  19.065  21.698  14.032
59000W        W24161   9.740  12.140   0.339
59001W        W24162  27.085  19.234   3.303
59002W        W24163  33.212   3.412  11.271
59003W        W24164  42.582  13.255  10.797
59004W        W24165  44.469  15.114  12.610
59005W        W24166  19.682  19.034   1.391
59006W        W24167  41.956  38.438   2.261
59007W        W24168  22.182   8.729  14.547
59008W        W24169  36.775   3.424  14.880
59009W        W24170  12.237  26.130  12.878
59010W        W24171  43.277  29.423   1.339
59011W        W24172  13.196  43.069  14.897
59012W        W24173  35.980   9.535  13.458
59013W        W24174  31.331  11.343   1.114
59014W        W24175  12.108  26.246  11.613
59015W        W24176  20.108  40.809   2.672
59016W        W24177  21.284  38.224   2.776
59017W        W24178   4.567  20.852  14.212
59018W        W24179  24.983  20.020  13.038
59019W        W24180  42.968   3.439  12.966
59020W        W24181   8.166   0.025  13.030
59021W        W24182  22.668  32.201   0.842
59022W        W24183  27.143  13.444  12.066
59023W        W24184  44.387  15.756   3.499
59024W        W24185   1.254  39.783  11.569
59025W        W24186  20.583  23.708  14.281
59026W        W24187  13.862  11.377   3.716
59027W        W24188  28.315  26.654   4.364
59028W        W24189  33.023  26.676  14.342
59029W        W24190  32.938  12.494  10.678
59030W        W24191   4.881  38.911  12.912
59031W        W24192  30.223  12.222  11.541
59032W        W24193  18.683   6.595  12.217
59033W        W24194   0.302  39.268   4.679
59034W        W24195  33.360  14.913  13.981
59035W        W24196  16.523  32.490   3.043
59036W        W24197  35.718  11.734   2.934
59037W        W24198  43.417  12.149  11.963
59038W        W24199  24.549  31.351  11.111
59039W        W24200  27.001  31.427  11.161
59040W        W24201  15.633   5.491   2.276
59041W        W24202  39.721  25.066  11.194
59042W        W24203  39.117  14.199   4.209
59043W        W24204  41.262   3.429   4.580
59044W        W24205  13.683  20.404   4.655
59045W        W24206  27.061  43.725  13.891
59046W        W24207  25.895   1.347   0.897
59047W        W24208   1.891  22.729   2.176
59048W        W24209  42.345   7.882   2.088
59049W        W24210   4.751  37.094  10.437
59050W        W24211  13.147  35.042  12.002
59051W        W24212   8.196  34.956   2.681
59052W        W24213  37.323   2.800  12.665
59053W        W24214  26.245  10.652   3.250
59054W        W24215   1.682  11.989   1.363
59055W        W24216   4.502  12.620   4.066
59056W        W24217  39.277  19.977  13.944
59057W        W24218  24.016  28.230   0.367
59058W        W24219  34.299  37.299   2.392
59059W        W24220  24.406  24.044   2.692
59060W        W24221  42.227  41.932  14.453
59061W        W24222   7.768   6.406   0.833
59062W        W24223  20.710  20.792   4.896
59063W        W24224   0.972  40.932   4.749
59064W        W24225  30.878  10.367  10.591
59065W        W24226  23.122  19.689   2.801
59066W        W24227  11.043   8.771   0.688
59067W        W24228   3.220  38.335   1.893
59068W        W24229   9.907  30.029  12.361
59069W        W24230   8.763  31.583  13.679
59070W        W24231  22.937  44.005   4.274
59071W        W24232  37.081   1.321  10.626
59072W        W24233  10.355  28.978  12.116
59073W        W24234  39.324  23.891  13.748
59074W        W24235  15.490  14.724   2.301
59075W        W24236   1.261  14.037   0.318
59076W        W24237  31.377  29.639  12.912
59077W        W24238   5.043  24.158  10.481
59078W        W24239  29.719  35.163  13.250
59079W        W24240   1.317  12.806  14.817
59080W        W24241  14.321  16.541  14.486
59081W        W24242  38.763  16.342  13.562
59082W        W24243  39.427   2.062  13.079
59083W        W24244  16.104  29.040   2.326
59084W        W24245  22.052  41.807  10.256
59085W        W24246  39.005  16.507   1.835
59086W        W24247  11.795  41.270   2.943
59087W        W24248  43.901   0.204   4.548
59088W        W24249  10.902  34.995  12.982
59089W        W24250  18.882  44.484  12.779
59090W        W24251  39.069  11.826  13.154
59091W        W24252  37.908  27.049   4.747
59092W        W24253  26.119  35.544   4.396
59093W        W24254  34.875  32.208  13.264
59094W        W24255  18.632  31.720  14.277
59095W        W24256  18.290  23.941  13.014
59096W        W24257  29.181  17.442   4.450
59097W        W24258  40.425  36.296   3.338
59098W        W24259  39.083  31.441   3.718
59099W        W24260  32.246  15.676  11.496
59100W        W24261  10.935  34.059   0.504
59101W        W24262  33.805  32.910   4.226
59102W        W24263  39.331  20.617   0.881
59103W        W24264  32.975  19.084  12.072
59104W        W24265   0.719  43.000  10.060
59105W        W24266   0.703   0.539   1.323
59106W        W24267  12.855  37.776  10.717
59107W        W24268  22.046  35.637   2.941
59108W        W24269  13.835  38.048   3.696
59109W        W24270  15.105   8.332   4.152
59110W        W24271   8.546  14.695   3.781
59111W        W24272   5.181  43.291  14.368
59112W        W24273  41.392   5.811   1.528
59113W        W24274   9.102  13.597   2.188
59114W        W24275  22.302  17.499   1.825
59115W        W24276  41.328  32.163  10.171
59116W        W24277  31.226  38.821   1.304
59117W        W24278  22.988   6.410   0.538
59118W        W24279   3.210  10.965   1.044
59119W        W24280  13.618  34.519   2.754
59120W        W24281   7.771  17.041   0.521
59121W        W24282  28.945  34.945  13.748
59122W        W24283   4.329  15.052  10.723
59123W        W24284  27.994  22.649  13.051
59124W        W24285   3.696  17.028  11.103
59125W        W24286  43.403  23.553  10.383
59126W        W24287  31.913  13.169   4.933
59127W        W24288   8.439  14.296   0.389
59128W        W24289   3.017  39.814  11.076
59129W        W24290  31.732  39.366  14.919
59130W        W24291  36.763  30.645   3.117
59131W        W24292  14.707   2.535   0.928
59132W        W24293  29.972  21.897   1.928
59133W        W24294  26.619  15.134  14.421
59134W        W24295  34.554  31.173  10.994
59135W        W24296  10.373  28.022   3.725
59136W        W24297   9.383  17.259  10.143
59137W        W24298  31.866  26.072   2.235
59138W        W24299  43.042  29.633  11.259
59139W        W24300   5.242  41.378  12.655
59140W        W24301  33.597   2.740   0.322
59141W        W24302  18.463  28.409   0.809
59142W        W24303  26.523  19.065  14.872
59143W        W24304  29.024  24.736  12.078
59144W        W24305   6.115  20.014  12.477
59145W        W24306  14.458   2.969  13.832
59146W        W24307  32.907  19.779   1.270
59147W        W24308  25.874  20.204  13.485
59148W        W24309   6.870  38.875   0.823
59149W        W24310  33.005  42.870   0.768
59150W        W24311  30.663  36.573  11.712
59151W        W24312  32.191  27.890   0.994
59152W        W24313  30.910  41.500  11.300
59153W        W24314   2.344  32.966   4.402
59154W        W24315   2.934  44.422  12.547
59155W        W24316  10.733  39.355  12.041
59156W        W24317  21.734  17.534  12.409
59157W        W24318  14.621  42.750   1.484
59158W        W24319  35.117  29.653  14.802
59159W        W24320  41.532  16.566   2.114
59160W        W24321  44.552  19.079  12.548
59161W        W24322  40.770   1.698  11.838
59162W        W24323  12.092  23.095   5.000
59163W        W24324   8.867  39.307  14.122
59164W        W24325  38.202   1.056   3.548
59165W        W24326   9.778  25.954   4.193
59166W        W24327  26.272  32.209  14.164
59167W        W24328  11.689  11.937  12.930
59168W        W24329  40.479  42.859   1.465
59169W        W24330  14.258  10.294   3.035
59170W        W24331   5.158  28.423   0.922
59171W        W24332  26.912   7.314  12.055
59172W        W24333  41.358  22.050   2.425
59173W        W24334  36.130  21.667   3.234
59174W        W24335  38.486  11.768  14.051
59175W        W24336  13.352   1.757  10.955
59176W        W24337   1.543  15.479   2.078
59177W        W24338   3.205  41.815  11.997
59178W        W24339  12.371   4.514   1.821
59179W        W24340  18.262  22.957   0.470
59180W        W24341  36.661  12.725  13.363
59181W        W24342  28.657  29.573   4.339
59182W        W24343  12.229  38.967  14.855
59183W        W24344   1.436   6.857   1.811
59184W        W24345  34.042   5.897  11.622
59185W        W24346  37.801   0.971   4.791
59186W        W24347  10.352   2.360   1.980
59187W        W24348  12.708   1.893   0.313
59188W        W24349  41.475  18.710  12.656
59189W        W24350  44.487  15.669  14.042
59190W        W24351  29.361  23.651   2.627
59191W        W24352   1.315  12.971   3.302
59192W        W24353  23.330   2.742  11.632
59193W        W24354  12.775   0.414  11.450
59194W        W24355   7.726  40.836   4.678
59195W        W24356  32.837   5.456   1.395
59196W        W24357  32.582  17.011  12.468
59197W        W24358  44.147  31.118  10.676
59198W        W24359  24.666  18.307   1.811
59199W        W24360  33.463   5.390  11.673
59200W        W24361  36.990   6.446  14.330
59201W        W24362  17.569  39.125   1.448
59202W        W24363   6.113   3.242   4.650
59203W        W24364  28.201   2.769  14.341
59204W        W24365  11.268   2.096   0.490
59205W        W24366  39.851  22.637   3.805
59206W        W24367  41.959  13.172  14.403
59207W        W24368  36.552   1.793   2.920
59208W        W24369  12.216  19.663   2.292
59209W        W24370  44.039  13.163   2.065
59210W        W24371  30.203  30.495  11.063
59211W        W24372  24.552  21.693  13.766
59212W        W24373   6.878  36.526   2.365
59213W        W24374  12.741  36.825  10.449
59214W        W24375  29.373  33.554  14.094
59215W        W24376  31.815  15.116   4.684
59216W        W24377  35.318  28.188   0.101
59217W        W24378  40.475  19.174  12.104
59218W        W24379  23.087  13.079  14.037
59219W        W24380  20.156  25.664  12.928
59220W        W24381  28.413  20.601  12.059
59221W        W24382  11.162  20.833   4.542
59222W        W24383  34.482  37.123  11.102
59223W        W24384  21.828  11.605   4.581
59224W        W24385  20.685  21.951  12.888
59225W        W24386   1.914  18.310   3.129
59226W        W24387  24.756  34.423   3.209
59227W        W24388  15.612  19.259  10.323
59228W        W24389  16.495   3.358   3.987
59229W        W24390  37.960  42.512  13.873
59230W        W24391  25.776  21.516   5.067
59231W        W24392  16.035  42.474   1.914
59232W        W24393   8.504  41.430   2.549
59233W        W24394  42.792  42.432   1.214
59234W        W24395  38.972  30.889   3.236
59235W        W24396  34.335   4.213  14.178
59236W        W24397  30.503  44.525  10.596
59237W        W24398  30.824  27.111  12.190
59238W        W24399  17.838   4.805  10.954
59239W        W24400  11.526  20.630   2.268
59240W        W24401  15.708  28.673   1.341
59241W        W24402  12.791  34.179   4.820
59242W        W24403  29.343  24.220   0.193
59243W        W24404  33.524   4.037  14.869
59244W        W24405  21.738  27.034   0.069
59245W        W24406  32.688  14.964  11.528
59246W        W24407  23.452  19.198   2.721
59247W        W24408  38.809   1.371  13.312
59248W        W24409  42.443   7.741  12.130
59249W        W24410  44.606  35.565   0.453
59250W        W24411  36.457  32.452  14.029
59251W        W24412  39.776  31.167  10.444
59252W        W24413   6.759  11.090  12.931
59253W        W24414   6.650   4.923   4.349
59254W        W24415  35.376  24.145   4.615
59255W        W24416  12.333  11.730   4.667
59256W        W24417  11.718   7.166   2.281
59257W        W24418  40.406  35.452   4.742
59258W        W24419   7.650  21.612  12.382
59259W        W24420  43.461  40.771   1.708
59260W        W24421  44.473   6.029   4.462
59261W        W24422  29.620  37.922   1.720
59262W        W24423  22.922  14.398   3.418
59263W        W24424   6.733  35.135  11.587
59264W        W24425  43.630   0.230   0.911
59265W        W24426  40.893   4.643  14.977
59266W        W24427  32.164  17.514   0.383
59267W        W24428  27.190  18.061  11.194
59268W        W24429  18.171   9.910  13.668
59269W        W24430  16.961  41.486   3.712
59270W        W24431  33.985  43.897  11.003
59271W        W24432  36.556  32.978  14.123
59272W        W24433   2.890   3.733  12.970
59273W        W24434   2.305  34.040  11.529
59274W        W24435  11.910  25.568   1.945
59275W        W24436  24.317   1.242   1.353
59276W        W24437  41.313   3.990   3.651
59277W        W24438  31.104   5.638   2.219
59278W        W24439  36.311  27.569   2.477
59279W        W24440  34.361   9.797   2.845
59280W        W24441  12.363  27.958   1.688
59281W        W24442   5.203  39.896   4.493
59282W        W24443  16.834  16.679  12.612
59283W        W24444   3.527   5.088  13.306
59284W        W24445   5.706  41.556  11.421
59285W        W24446  38.104  16.558  14.528
59286W        W24447  21.205  15.639  11.449
59287W        W24448   7.431   4.418   0.257
59288W        W24449  29.959  34.924  14.898
59289W        W24450  29.848  26.215  14.762
59290W        W24451   6.911   2.255  13.985
59291W        W24452  18.247  31.184   2.737
59292W        W24453   8.851  18.604   4.927
59293W        W24454  22.455  43.248  12.610
59294W        W24455  30.506   2.939   3.587
59295W        W24456  24.255  42.473   0.170
59296W        W24457  35.286   7.612   5.077
59297W        W24458  24.568   5.912  12.928
59298W        W24459  20.070   0.379   2.133
59299W        W24460  14.057  11.626   1.708
59300W        W24461  14.139   0.074   2.331
59301W        W24462  12.065  41.241  12.487
59302W        W24463  33.034   7.162  13.958
59303W        W24464  31.464   6.113  11.048
59304W        W24465  41.563  12.816   2.945
59305W        W24466  19.526  33.207   3.805
59306W        W24467  21.529   2.674   2.549
59307W        W24468  19.793  29.436   1.903
59308W        W24469  23.560  12.551   1.792
59309W        W24470  42.263   1.195   1.902
59310W        W24471   2.766   1.555  14.273
59311W        W24472  40.500  41.519  13.445
59312W        W24473  34.634   2.331  12.496
59313W        W24474  24.964   4.734   3.248
59314W        W24475  10.198   2.980  14.953
59315W        W24476  42.036   3.404  14.006
59316W        W24477   0.757   1.080  13.098
59317W        W24478  31.528  41.678  14.930
59318W        W24479  36.799  40.483  13.886
59319W        W24480  14.298  17.730  14.594
59320W        W24481   1.130  14.359  11.339
59321W        W24482  17.854  14.064   2.602
59322W        W24483  26.205  17.076  11.120
59323W        W24484  42.562  27.633  14.953
59324W        W24485  34.198   4.370   1.526
59325W        W24486  27.572  16.543  12.910
59326W        W24487  35.464  25.583   4.640
59327W        W24488   1.230  20.041   2.789
59328W        W24489  12.544  44.498  14.487
59329W        W24490  30.427  16.050  10.758
59330W        W24491  41.432  25.464   0.081
59331W        W24492  41.904  33.827   1.355
59332W        W24493  43.986  18.376  12.043
59333W        W24494  32.173  38.334   3.516
59334W        W24495  43.844  18.374  13.587
59335W        W24496   7.812  30.673   3.738
59336W        W24497  33.804  22.716   3.189
59337W        W24498  38.379  39.375   3.373
59338W        W24499  41.228  33.962   4.118
59339W        W24500  18.614   8.819  12.795
59340W        W24501  34.847  34.092  11.515
59341W        W24502   1.797  44.338  13.288
59342W        W24503  24.534  17.757  13.405
59343W        W24504  35.114  35.460  13.371
59344W        W24505  29.095   9.577  13.963
59345W        W24506   1.475  38.603   0.829
59346W        W24507  39.419  44.968  13.000
59347W        W24508  34.461  24.105  10.379
59348W        W24509  17.144  28.623   3.725
59349W        W24510  37.498  17.915  14.976
59350W        W24511   5.036  26.717   1.011
59351W        W24512  21.133  29.241   3.626
59352W        W24513  32.214   4.733   0.995
59353W        W24514  25.434  19.365  11.879
59354W        W24515  28.799  24.773  11.602
59355W        W24516  28.484  17.979  11.188
59356W        W24517  18.657  40.897  14.482
59357W        W24518  29.939  35.027   3.101
59358W        W24519  30.063  29.740   2.331
59359W        W24520  35.520  43.209  13.540
59360W        W24521  35.381  13.648  10.722
59361W        W24522   4.330  36.443   4.648
59362W        W24523  19.368   3.829  11.860
59363W        W24524  12.046   6.789   2.571
59364W        W24525  14.311  32.368   3.131
59365W        W24526  25.226  28.186  10.682
59366W        W24527  43.706  24.042   0.910
59367W        W24528  39.798  19.748  11.967
59368W        W24529  17.055   3.953   4.368
59369W        W24530  11.749  42.036  12.661
59370W        W24531  33.530  20.386  11.978
59371W        W24532   4.820   6.722  11.971
59372W        W24533  40.391   5.623  14.561
59373W        W24534  43.871  34.602   4.642
59374W        W24535   9.423  38.526  14.420
59375W        W24536  23.183   2.162   1.305
59376W        W24537  24.370  44.685   4.938
59377W        W24538  22.252  43.692  11.148
59378W        W24539  28.048  27.608  14.431
59379W        W24540   8.760  30.926  14.292
59380W        W24541  27.084  32.662   3.844
59381W        W24542   5.381  11.729   3.223
59382W        W24543  42.755  41.516   3.937
59383W        W24544   6.247  37.978   3.122
59384W        W24545  16.803  13.996   3.120
59385W        W24546  39.953  31.226  14.779
59386W        W24547  41.380  13.624   0.812
59387W        W24548   5.969  33.859   4.140
59388W        W24549  24.396  29.469  12.991
59389W        W24550   6.602  17.203   3.649
59390W        W24551  29.093  39.556   4.243
59391W        W24552  38.506  14.115  11.506
59392W        W24553   2.967   5.507  11.839
59393W        W24554  38.501   5.978   2.796
59394W        W24555  44.283  25.434   1.470
59395W        W24556  21.249  27.953  11.111
59396W        W24557   7.774  10.247   3.609
59397W        W24558  38.957  38.853  11.252
59398W        W24559  11.067  33.525   0.375
59399W        W24560   1.310   2.996   0.947
59400W        W24561   8.166  15.384   3.774
59401W        W24562  23.596   1.711  14.271
59402W        W24563  41.873  20.277   0.457
59403W        W24564  34.099  36.622   0.432
59404W        W24565  39.865  30.124   2.255
59405W        W24566  16.887  23.299   0.909
59406W        W24567  38.367  19.154  10.699
59407W        W24568  26.108  29.235   2.361
59408W        W24569  33.749  31.451  11.548
59409W        W24570  10.882   1.248   4.866
59410W        W24571  38.614  15.364   0.947
59411W        W24572  11.166   6.706   3.686
59412W        W24573   8.942  42.142  11.140
59413W        W24574  21.205  30.422  11.775
59414W        W24575  27.428  24.328   5.383
59415W        W24576  24.626  11.717  13.991
59416W        W24577   2.737  34.404   0.710
59417W        W24578  19.649  43.872   3.849
59418W        W24579  41.928   5.774   1.625
59419W        W24580  15.978  16.786  10.694
59420W        W24581  17.027  44.724  12.891
59421W        W24582   9.458  42.837  10.669
59422W        W24583   9.142   7.859   1.998
59423W        W24584  37.563  30.496  12.505
59424W        W24585  18.217  19.332   1.300
59425W        W24586   5.370  12.118   4.679
59426W        W24587  13.694  39.555  10.692
59427W        W24588  25.562   4.722  12.305
59428W        W24589   6.970  15.703   4.155
59429W        W24590  22.137  33.151  10.744
59430W        W24591  19.075   7.302  12.646
59431W        W24592  38.787  31.115   1.901
59432W        W24593  35.928   0.875  10.815
59433W        W24594  20.779  13.648   2.874
59434W        W24595  32.191  13.792  12.130
59435W        W24596   4.160  10.692   4.134
59436W        W24597   2.733  35.411  12.200
59437W        W24598  38.456  26.211   2.313
59438W        W24599  41.868  37.250   0.851
59439W        W24600  18.332  32.489  12.606
59440W        W24601   4.417  26.243  14.901
59441W        W24602  25.713  40.986   0.701
59442W        W24603  29.617  14.156  14.725
59443W        W24604  27.805  21.704  12.099
59444W        W24605  20.586  41.235  14.772
59445W        W24606  33.434   6.036  10.975
59446W        W24607  19.763  23.516   4.501
59447W        W24608  16.861  42.041   2.311
59448W        W24609   0.523  25.044  11.137
59449W        W24610  22.439  18.198  12.994
59450W        W24611  42.781  34.242   1.953
59451W        W24612  16.788   2.833  10.430
59452W        W24613  17.463   5.691  11.982
59453W        W24614   8.155  31.039  13.884
59454W        W24615   4.029  22.682   3.849
59455W        W24616  43.836   0.792   0.380
59456W        W24617   9.817  13.538   4.100
59457W        W24618  18.708  37.573  14.240
59458W        W24619  39.852  35.975  14.040
59459W        W24620  31.039  28.367  14.537
59460W        W24621  14.228  17.604  10.774
59461W        W24622  36.623  16.582   0.453
59462W        W24623  24.940  28.987   3.375
59463W        W24624   6.190  32.600  12.942
59464W        W24625  15.727  21.936   4.683
59465W        W24626  31.500  30.477  12.382
59466W        W24627  22.221  27.975  10.384
59467W        W24628   3.166  40.536  11.523
59468W        W24629   3.226  41.284   2.394
59469W        W24630   1.870  40.831  12.207
59470W        W24631  38.318  16.612   4.152
59471W        W24632  14.850  40.109   1.254
59472W        W24633   8.284  13.249   1.671
59473W        W24634  28.174  26.060  12.067
59474W        W24635  11.239  39.475  11.659
59475W        W24636  25.989  32.452   0.483
59476W        W24637   7.650  12.606  13.054
59477W        W24638  18.191  31.555  11.659
59478W        W24639  38.970  42.257  14.644
59479W        W24640  17.233   3.364  14.496
59480W        W24641  11.163  28.988   1.307
59481W        W24642  34.614  42.540  12.884
59482W        W24643  18.144  11.448  13.562
59483W        W24644  25.624   9.192   1.861
59484W        W24645  35.685  14.139  12.500
59485W        W24646  40.119  31.318  11.196
59486W        W24647  29.576  43.785  14.322
59487W        W24648  20.758  17.431  11.703
59488W        W24649   4.735  37.043   2.829
59489W        W24650  15.375   3.236  11.872
59490W        W24651  28.631  15.389  11.193
59491W        W24652  34.002  42.863  14.736
59492W        W24653  33.587  32.310   0.746
59493W        W24654  15.671  16.925   2.727
59494W        W24655   0.211  22.473   3.792
59495W        W24656  11.791   5.913   1.833
59496W        W24657  21.779  24.542  14.365
59497W        W24658  21.976  39.343  11.517
59498W        W24659   0.364  41.040   1.411
59499W        W24660   3.942   2.905  11.862
59500W        W24661  39.888  43.086  10.688
59501W        W24662  34.870  30.106   2.785
59502W        W24663  38.597  22.647  13.280
59503W        W24664  16.122  20.819  12.439
59504W        W24665   7.380  36.487  13.546
59505W        W24666  12.384  15.421   4.444
59506W        W24667   5.816  27.812  12.886
59507W        W24668  40.577   1.759   2.559
59508W        W24669  20.669   6.329   3.902
59509W        W24670   3.655  17.366   1.838
59510W        W24671  42.873   2.085  12.138
59511W        W24672  21.989  30.671  14.239
59512W        W24673  41.939  25.953  12.547
59513W        W24674  18.520  42.436  14.445
59514W        W24675   2.768  11.203   4.176
59515W        W24676   9.972  19.652  10.699
59516W        W24677  39.325  38.135   2.032
59517W        W24678   9.803  31.675   0.739
59518W        W24679  28.058   5.317  14.542
59519W        W24680  41.354  35.463   4.595
59520W        W24681  14.715   6.270  14.455
59521W        W24682   0.889   9.621   0.906
59522W        W24683  33.877  16.324   2.144
59523W        W24684  14.775  22.544  14.738
59524W        W24685   5.455   4.623  12.466
59525W        W24686  22.117  28.673  12.797
59526W        W24687   4.301  24.767  13.061
59527W        W24688  30.463  29.800   3.478
59528W        W24689  41.342   0.159  10.671
59529W        W24690  43.794  11.838  12.174
59530W        W24691  20.622  30.804  12.471
59531W        W24692  37.102  17.577   2.699
59532W        W24693  34.082   2.277  12.085
59533W        W24694  17.714  23.659   4.105
59534W        W24695  33.314  42.422   2.205
59535W        W24696   9.268   1.707  11.146
59536W        W24697  24.870  14.403   0.366
59537W        W24698  26.709  19.623  14.856
59538W        W24699  36.925  33.687   0.371
59539W        W24700   6.703   5.228  14.364
59540W        W24701  26.070  28.766  11.312
59541W        W24702   9.327  29.974  12.149
59542W        W24703  28.864  30.268   2.650
59543W        W24704  10.602  15.397   4.701
59544W        W24705   0.558   0.098  12.864
59545W        W24706  44.918  22.773  12.822
59546W        W24707   6.419  13.847   2.728
59547W        W24708   1.427   1.992   1.097
59548W        W24709  13.340  25.095   3.187
59549W        W24710  35.830  43.442   4.920
59550W        W24711   4.711   2.021   4.122
59551W        W24712  16.301  36.636  13.088
59552W        W24713  10.270  40.877  11.124
59553W        W24714  39.796  39.392  11.238
59554W        W24715  42.774   5.697   1.052
59555W        W24716  20.792   7.479  14.718
59556W        W24717  11.166  27.318   2.829
59557W        W24718   4.047  31.441  10.702
59558W        W24719  32.984   6.742  10.684
59559W        W24720  38.302  44.260  13.257
59560W        W24721   4.450  38.906   3.710
59561W        W24722  34.460   9.372  11.592
59562W        W24723  37.585  28.483   0.436
59563W        W24724  22.497   9.980   4.934
59564W        W24725  29.918  28.974   1.203
59565W        W24726   3.857  42.505   2.322
59566W        W24727  41.532  17.831   3.185
59567W        W24728  38.893  15.128   0.228
59568W        W24729   1.735  17.798   3.182
59569W        W24730  26.331  23.478   1.207
59570W        W24731  30.503  33.671   2.852
59571W        W24732   8.769  34.807   1.258
59572W        W24733   0.540   9.687   4.075
59573W        W24734  24.018  37.525  11.536
59574W        W24735   7.338   9.766   4.208
59575W        W24736   5.017  28.902   0.764
59576W        W24737  44.418  39.910   3.411
59577W        W24738   4.575  36.147  11.208
59578W        W24739  11.370  14.267  13.895
59579W        W24740  32.677   9.435  14.894
59580W        W24741  40.354  43.225   1.100
59581W        W24742   2.425  44.390  10.247
59582W        W24743   2.545   0.014   2.364
59583W        W24744   6.833  12.113  11.913
59584W        W24745  32.631   5.214  13.034
59585W        W24746  24.997  12.412  13.390
59586W        W24747  31.435  18.477   2.421
59587W        W24748   8.875  21.632   3.699
59588W        W24749   3.940  43.834  14.434
59589W        W24750  32.065   6.378   0.498
59590W        W24751  43.702  10.733  13.055
59591W        W24752   2.403  26.448  12.542
59592W        W24753   5.719  14.151   3.620
59593W        W24754   1.553  12.273   4.502
59594W        W24755  24.598  11.833  11.894
59595W        W24756   5.282  32.931  14.415
59596W        W24757  31.563  41.293   2.738
59597W        W24758  23.471  12.882   0.809
59598W        W24759  33.554  31.559   2.149
59599W        W24760  11.426  12.314   4.705
59600W        W24761  37.121  37.863  14.454
59601W        W24762   2.841  41.005   4.482
59602W        W24763  27.754   4.760   4.080
59603W        W24764  23.201  29.407  13.321
59604W        W24765   6.841  14.599  10.740
59605W        W24766  22.901  35.155  10.649
59606W        W24767  11.624   8.776   2.447
59607W        W24768   8.207   2.884   4.947
59608W        W24769  13.314   9.905   2.653
59609W        W24770  12.147  10.430  11.448
59610W        W24771  13.147   4.870   3.207
59611W        W24772   2.386  15.412  10.982
59612W        W24773  10.174  28.386  10.716
59613W        W24774  38.496  39.503   2.386
59614W        W24775   5.823  34.593  13.375
59615W        W24776  43.946   7.783  11.687
59616W        W24777   3.216  22.939   3.027
59617W        W24778   4.847   9.912  12.076
59618W        W24779  13.131  16.684   2.468
59619W        W24780  13.442  44.221   1.746
59620W        W24781  20.245   8.218  13.621
59621W        W24782  22.931  34.667   2.805
59622W        W24783  17.532   0.246   4.533
59623W        W24784  23.005  15.097  12.955
59624W        W24785  40.884  19.643  11.153
59625W        W24786   9.676  42.368   3.579
59626W        W24787  11.573   9.707   3.301
59627W        W24788   4.976  42.892  12.910
59628W        W24789   6.219  39.542  12.209
59629W        W24790  25.598  18.197   0.980
59630W        W24791  33.402  39.852   1.901
59631W        W24792  12.270  37.332   1.590
59632W        W24793  11.719  41.899  14.537
59633W        W24794   6.235   5.651  12.548
59634W        W24795  27.222  32.964   0.389
59635W        W24796   1.358   9.081   2.257
59636W        W24797   1.695  39.981   3.211
59637W        W24798  22.537  35.457  12.585
59638W        W24799  11.613  33.637   4.529
59639W        W24800  40.637   8.909   1.287
59640W        W24801   7.638  18.282   1.927
59641W        W24802  26.744  21.208   0.480
59642W        W24803  34.034  26.110   0.304
59643W        W24804  44.009  15.511  13.416
59644W        W24805   7.285  38.589  11.676
59645W        W24806  41.461  38.082  11.189
59646W        W24807  12.234   4.229   3.798
59647W        W24808  12.855  25.672   2.301
59648W        W24809  16.322  41.946   3.353
59649W        W24810  33.658  27.483  11.666
59650W        W24811  41.852  16.317   3.332
59651W        W24812  37.531   3.025  13.476
59652W        W24813  35.426  44.327   1.440
59653W        W24814  35.070   9.351   3.447
59654W        W24815  17.176  11.595  11.608
59655W        W24816   8.011  28.853   2.688
59656W        W24817  15.485  20.607  14.974
59657W        W24818   0.379  31.920   0.995
59658W        W24819  22.987  20.190   4.056
59659W        W24820  36.683   1.436   4.572
59660W        W24821  35.329  31.435   3.220
59661W        W24822  29.561   0.874   4.625
59662W        W24823  41.835   9.468   2.078
59663W        W24824  34.113  34.098  13.987
59664W        W24825  41.513   3.387  13.889
59665W        W24826  21.230  28.233   3.786
59666W        W24827   2.655  27.065  10.983
59667W        W24828  20.659  21.894  10.242
59668W        W24829  43.385   0.519   4.606
59669W        W24830  30.562   4.383  11.640
59670W        W24831  38.359   7.948   0.322
59671W        W24832  27.007   3.744   3.181
59672W        W24833   3.042  10.220  11.849
59673W        W24834  26.535  33.370  11.613
59674W        W24835  19.481  20.986   1.822
59675W        W24836   7.860  14.170  10.704
59676W        W24837  30.474  15.839   1.439
59677W        W24838  26.476  19.826   0.716
59678W        W24839  28.157  17.229  12.565
59679W        W24840  44.801  35.638  12.118
59680W        W24841  26.581  38.418   0.946
59681W        W24842  30.580  20.429  13.346
59682W        W24843  12.314  34.300   0.378
59683W        W24844  31.318   6.979  13.815
59684W        W24845  44.557  36.162  14.452
59685W        W24846   3.419  21.203  12.584
59686W        W24847  21.656  20.136  11.110
59687W        W24848  20.561   0.867   2.666
59688W        W24849   4.492  18.835  11.858
59689W        W24850  42.288  29.229   2.693
59690W        W24851  31.687  17.659  13.984
59691W        W24852  12.635  39.311   3.254
59692W        W24853  10.801   4.614  11.316
59693W        W24854   6.180  18.688   3.257
59694W        W24855  25.070   9.006  11.158
59695W        W24856  44.238  22.180  12.366
59696W        W24857  44.380  28.472  12.929
59697W        W24858   2.217  18.756   1.665
59698W        W24859  22.448  22.036  12.951
59699W        W24860  34.112   2.268  12.598
59700W        W24861  37.064   8.717  14.479
59701W        W24862  43.462  38.395  14.052
59702W        W24863  23.844  14.787   4.628
59703W        W24864  22.470  16.215  11.199
59704W        W24865  26.588  13.276   2.811
59705W        W24866  44.072  35.224  14.058
59706W        W24867  10.185  22.721  14.920
59707W        W24868  12.261  44.243   1.886
59708W        W24869  36.106   4.840  11.406
59709W        W24870   0.839  11.877  13.466
59710W        W24871  26.599  25.959   2.016
59711W        W24872  27.006  40.295  13.395
59712W        W24873  33.435   3.610  11.686
59713W        W24874  40.592  36.067   1.322
59714W        W24875  15.423   0.341  12.647
59715W        W24876  11.941  17.511   4.481
59716W        W24877  18.106   3.181  13.807
59717W        W24878  14.142   0.691  10.566
59718W        W24879   0.991  17.662   1.752
59719W        W24880  15.908  14.340   2.693
59720W        W24881  24.572  27.308   4.666
59721W        W24882  23.113  25.917  12.676
59722W        W24883  42.632  31.415  11.973
59723W        W24884  26.006   1.137  14.522
59724W        W24885  37.069  35.673  10.688
59725W        W24886  19.544  30.576   3.829
59726W        W24887  16.603  14.285  11.146
59727W        W24888   8.262  22.607   0.312
59728W        W24889  37.995  19.599   0.655
59729W        W24890  30.904  13.335   1.862
59730W        W24891  18.842  14.380   1.828
59731W        W24892   5.500  28.290  10.258
59732W        W24893  42.971   3.527   2.145
59733W        W24894  23.496  19.460  14.572
59734W        W24895  22.540  36.484   1.860
59735W        W24896   3.970  44.990   4.147
59736W        W24897  16.399   6.717  10.939
59737W        W24898  35.116  33.072  11.309
59738W        W24899   7.889  28.585  13.642
59739W        W24900  22.705  15.178   1.860
59740W        W24901   9.563  39.432   1.720
59741W        W24902  14.020   0.196  10.620
59742W        W24903   3.497  11.682   3.135
59743W        W24904   6.394  23.342  10.275
59744W        W24905  13.331  44.104   4.963
59745W        W24906  28.697  37.315  11.132
59746W        W24907  39.074  20.801   0.444
59747W        W24908  42.272  25.280   2.146
59748W        W24909  13.157  22.641   4.660
59749W        W24910  28.965   4.394  14.325
59750W        W24911  20.347  25.907  13.475
59751W        W24912  43.207   2.951   4.130
59752W        W24913  42.071   7.681  13.961
59753W        W24914  16.495  34.371   4.041
59754W        W24915   9.740  24.667   3.892
59755W        W24916  15.008   0.318  13.574
59756W        W24917  43.226  29.931   1.967
59757W        W24918  20.154  23.412   2.793
59758W        W24919   0.054   2.131  12.061
59759W        W24920  10.737  43.664   0.718
59760W        W24921  21.519   3.018   0.848
59761W        W24922  19.534  42.402  13.600
59762W        W24923  19.195  22.140   1.398
59763W        W24924  17.992  17.229   2.370
59764W        W24925  39.068  26.588   0.900
59765W        W24926   4.630  30.485   4.566
59766W        W24927  31.136  32.919  13.882
59767W        W24928  23.197   9.792  13.135
59768W        W24929  26.482  32.236  10.824
59769W        W24930  38.347   8.868   2.597
59770W        W24931  20.729  17.918   4.914
59771W        W24932   6.752  41.139   1.388
59772W        W24933  24.239   5.028  10.743
59773W        W24934   8.923   7.226   0.397
59774W        W24935  44.732  42.378   2.835
59775W        W24936   5.722  30.017   0.772
59776W        W24937  40.425  41.322   2.306
59777W        W24938  39.819  30.329   1.426
59778W        W24939  21.211   9.057   1.719
59779W        W24940   1.194   1.754   2.110
59780W        W24941   2.222  35.729  14.375
59781W        W24942  27.675  44.369   3.615
59782W        W24943  10.461  10.308   3.017
59783W        W24944  26.674  14.481   0.432
59784W        W24945  11.741  31.715   2.327
59785W        W24946   5.710  10.562   3.278
59786W        W24947  28.233  43.317   4.072
59787W        W24948  43.989  24.431  13.537
59788W        W24949  35.104  15.284  12.963
59789W        W24950  25.136  16.471  14.450
59790W        W24951  38.318  23.233   2.687
59791W        W24952  13.234  24.622   3.369
59792W        W24953  12.689  22.668  14.033
59793W        W24954  16.343  29.499  13.898
59794W        W24955   0.475  35.346  13.882
59795W        W24956  29.585  37.493  12.711
59796W        W24957  32.296   3.301   4.292
59797W        W24958  39.861  10.663   4.364
59798W        W24959   4.830   5.502  12.854
59799W        W24960  27.064  36.576   1.134
59800W        W24961  27.431  29.376   4.626
59801W        W24962  28.179  11.428   3.754
59802W        W24963  24.100  14.282   3.685
59803W        W24964   8.616  43.755   1.270
59804W        W24965  15.955  19.625   2.342
59805W        W24966  12.583  14.340   4.162
59806W        W24967  13.216   5.849   2.588
59807W        W24968   9.336  24.549   4.187
59808W        W24969   5.412  44.301   1.040
59809W        W24970  28.938   0.143   1.786
59810W        W24971  43.005   5.785   3.287
59811W        W24972  24.938   5.689   1.802
59812W        W24973  44.453   4.332  14.509
59813W        W24974  22.646  34.454   1.766
59814W        W24975  32.619   4.686   2.586
59815W        W24976  37.308   3.143   3.771
59816W        W24977  19.041  11.333   0.433
59817W        W24978  19.066   0.011   1.265
59818W        W24979  42.086  19.748  13.717
59819W        W24980   5.365  14.788   0.156
59820W        W24981  31.673  31.959   4.164
59821W        W24982  12.431  27.557   4.509
59822W        W24983  20.080   7.416   0.432
59823W        W24984  43.368  36.029   1.653
59824W        W24985  16.703  20.073   0.666
59825W        W24986  12.422   0.430   1.886
59826W        W24987  26.417   6.059  12.850
59827W        W24988  23.964   9.627  11.584
59828W        W24989  27.917  15.086  12.926
59829W        W24990  22.166   6.962  13.103
59830W        W24991   3.242   4.694  12.854
59831W        W24992  14.115   6.918   2.294
59832W        W24993   7.867  38.269   0.856
59833W        W24994   1.401  21.617  10.404
59834W        W24995  18.836  11.385  11.065
59835W        W24996  41.802   1.440  13.898
59836W        W24997   6.317   7.172  11.671
59837W        W24998  27.672  19.099   2.511
59838W        W24999  36.041  10.404   4.878
59839W        W25000  19.177   8.883   1.758
59840W        W25001   0.307  23.536  12.625
59841W        W25002   1.305  35.878  10.265
59842W        W25003  15.288   5.443  12.441
59843W        W25004   5.924  34.364  12.938
59844W        W25005   2.326  36.415   2.201
59845W        W25006   2.179  31.632  13.910
59846W        W25007  34.448  24.497   2.268
59847W        W25008   0.075   8.908  10.690
59848W        W25009  27.365  20.532  11.914
59849W        W25010  30.187  31.230   3.624
59850W        W25011  23.152  28.977  12.401
59851W        W25012  34.159  42.873   3.197
59852W        W25013  14.218  27.109   3.709
59853W        W25014  14.205  33.656   4.531
59854W        W25015  13.839  14.131   1.896
59855W        W25016  15.296  35.579  12.052
59856W        W25017  23.431  14.214   5.009
59857W        W25018  44.782  34.903   0.418
59858W        W25019   1.315  20.553  11.262
59859W        W25020   5.459  28.052   4.639
59860W        W25021  27.239  30.920   1.128
59861W        W25022   0.932  37.132  11.619
59862W        W25023  24.180  28.030   5.037
59863W        W25024  39.458  20.770   4.884
59864W        W25025  44.934  42.284   1.378
59865W        W25026  43.289  39.215   1.998
59866W        W25027  36.073  38.513   0.357
59867W        W25028  43.666   6.909  14.141
59868W        W25029  15.682  38.129  13.508
59869W        W25030  38.908  36.483   3.391
59870W        W25031   9.497  40.964  10.603
59871W        W25032   8.662  39.584  12.436
59872W        W25033   2.273  38.051   0.297
59873W        W25034  25.542  11.662   2.234
59874W        W25035  33.614  13.107  10.960
59875W        W25036  24.061  37.865   2.422
59876W        W25037  39.326  19.783  13.440
59877W        W25038  23.097   4.241   2.187
59878W        W25039  34.845  18.923  14.803
59879W        W25040   0.394  37.656  14.079
59880W        W25041  41.541   9.880  10.690
59881W        W25042  12.644  19.273   1.832
59882W        W25043  18.048  12.762   2.169
59883W        W25044  31.753  16.353  14.454
59884W        W25045  30.587  40.703   1.870
59885W        W25046  43.740  21.581   2.862
59886W        W25047  38.886  18.838  14.332
59887W        W25048   5.500   3.210   2.235
59888W        W25049   4.620  10.487   1.262
59889W        W25050  17.208  15.651  11.211
59890W        W25051  25.425  36.314   0.306
59891W        W25052  34.509   6.674   1.518
59892W        W25053  13.590   4.481   4.187
59893W        W25054   6.598  28.986   3.682
59894W        W25055  37.474  42.367  12.990
59895W        W25056   5.690  43.077   3.695
59896W        W25057   0.366  22.741   1.745
59897W        W25058  23.201   4.735   2.365
59898W        W25059  17.247  29.334  14.464
59899W        W25060  30.549   8.116   1.450
59900W        W25061  24.713  35.643  14.526
59901W        W25062   7.450  32.628  12.427
59902W        W25063  41.498  10.277   2.403
59903W        W25064  40.543   1.391   1.345
59904W        W25065  40.314   1.254  13.382
59905W        W25066  15.595   5.847  12.529
59906W        W25067  25.733  40.486  11.919
59907W        W25068  27.181  24.212  11.088
59908W        W25069  28.411  39.932   0.691
59909W        W25070  27.544   0.409   0.051
59910W        W25071   7.983   4.500   4.200
59911W        W25072  13.105   2.415   1.867
59912W        W25073  20.186  37.386  11.006
59913W        W25074  43.013  26.042  14.320
59914W        W25075   7.005  34.437  12.947
59915W        W25076  15.154  34.258   1.911
59916W        W25077   6.671   0.786   1.432
59917W        W25078   2.907  21.487   3.585
59918W        W25079   8.266  30.634  14.845
59919W        W25080  36.068  43.473   0.298
59920W        W25081  35.931  19.113   3.805
59921W        W25082   5.749  19.745  11.203
59922W        W25083  23.554  23.171  12.382
59923W        W25084  12.136   5.952  14.560
59924W        W25085  34.649  33.322   3.849
59925W        W25086  30.308  36.141  11.095
59926W        W25087  15.882  32.127  12.055
59927W        W25088  19.718  11.922  13.967
59928W        W25089   9.586  17.020  13.427
59929W        W25090  21.276   1.792   0.016
59930W        W25091   4.780  14.509   2.334
59931W        W25092  39.044  13.617  11.969
59932W        W25093  40.525   4.687  14.449
59933W        W25094  34.353  27.288  12.371
59934W        W25095   0.861   1.496  14.942
59935W        W25096  19.071   1.919   4.985
59936W        W25097  34.774   9.580  12.975
59937W        W25098   1.414  42.413  13.069
59938W        W25099   1.197  18.806  11.106
59939W        W25100  40.039  13.407  11.648
59940W        W25101  18.557  14.534   5.402
59941W        W25102   4.945  10.052   5.185
59942W        W25103  27.442  35.462  14.725
59943W        W25104   6.265  38.290   3.663
59944W        W25105   8.877  30.061  10.749
59945W        W25106   6.638  37.589  14.022
59946W        W25107  27.697  23.677   1.430
59947W        W25108  26.225  33.415   2.313
59948W        W25109  36.431  30.251   4.721
59949W        W25110  11.583   3.886  14.533
59950W        W25111  32.612  33.993   0.694
59951W        W25112  25.587  17.697  11.277
59952W        W25113  38.662  28.759   3.655
59953W        W25114  29.401  29.549  11.398
59954W        W25115  11.620  37.067   1.406
59955W        W25116  14.931   7.376  10.270
59956W        W25117  44.754  37.916  13.910
59957W        W25118   0.700  28.446   2.670
59958W        W25119  24.032  13.575   1.143
59959W        W25120   5.171  24.580   0.420
59960W        W25121   3.124  44.982   2.887
59961W        W25122  28.456  29.074   0.286
59962W        W25123  20.178  43.511  12.051
59963W        W25124  31.665   5.842   4.751
59964W        W25125  10.724  11.955   0.412
59965W        W25126   7.250   7.687   1.761
59966W        W25127  31.450  26.407   3.702
59967W        W25128   1.342  15.329  14.804
59968W        W25129  22.528  11.602   0.050
59969W        W25130  29.490   1.934   4.477
59970W        W25131  10.760   5.730   3.990
59971W        W25132  22.775   3.271  12.864
59972W        W25133  38.608  27.625  14.945
59973W        W25134  21.303  17.580   2.679
59974W        W25135  32.598  14.695   4.932
59975W        W25136  30.439  31.439  12.038
59976W        W25137  42.091  34.393  11.724
59977W        W25138  31.608  31.962  12.154
59978W        W25139  14.663  27.593  10.770
59979W        W25140   6.691  29.059  11.048
59980W        W25141  12.773   4.231  13.528
59981W        W25142   6.406  10.534   2.156
59982W        W25143   0.421  37.784   1.900
59983W        W25144   2.985  41.287  14.762
59984W        W25145  26.105  29.965  14.444
59985W        W25146   4.297  44.326  14.052
59986W        W25147  16.853  20.162   3.620
59987W        W25148  44.799  34.389   0.507
59988W        W25149  43.047   7.331   0.424
59989W        W25150   3.802  23.200   0.519
59990W        W25151  40.373  31.106   3.146
59991W        W25152  23.325  10.677  12.877
59992W        W25153  19.227  36.043  13.462
59993W        W25154  43.600  34.199   5.462
59994W        W25155   7.187  18.397  11.497
59995W        W25156  40.466  19.070   0.981
59996W        W25157   3.318  41.898   3.555
59997W        W25158  40.068  27.535   1.823
59998W        W25159  29.490  37.729   4.531
59999W        W25160  17.216  44.809   0.936
60000W        W25161  18.005  30.006   3.314
60001W        W25162  10.586  14.061  11.640
60002W        W25163  26.493  40.051  14.244
60003W        W25164  24.775   4.485   1.650
60004W        W25165  12.821   2.876  14.781
60005W        W25166   9.209  35.894   4.096
60006W        W25167  21.562  37.554  13.516
60007W        W25168   0.496  11.412   4.803
60008W        W25169  38.986  25.281  14.789
60009W        W25170   0.580   1.125   0.291
60010W        W25171  21.353   8.854  13.439
60011W        W25172  16.343  33.018   4.590
60012W        W25173   9.103  30.847  13.893
60013W        W25174  28.425  14.362   2.821
60014W        W25175  39.285   5.355   1.722
60015W        W25176   1.981  38.397   0.001
60016W        W25177  23.702  19.111   9.484
60017W        W25178  26.984  38.155   1.223
60018W        W25179  16.120  26.066  11.420
60019W        W25180  43.888   2.482   3.214
60020W        W25181  15.627  21.547   3.371
60021W        W25182  28.967  29.879   0.026
60022W        W25183  16.570  10.858  14.902
60023W        W25184  33.978  37.463   3.072
60024W        W25185  23.474  15.653  10.376
60025W        W25186   2.922  40.487  13.794
60026W        W25187  31.260  25.007  14.916
60027W        W25188  29.683  40.430  12.477
60028W        W25189   9.209   0.215  11.634
60029W        W25190  30.926  30.747  13.514
60030W        W25191  15.110  34.592  10.741
60031W        W25192  40.024   1.217   4.038
60032W        W25193  35.535  40.287   5.167
60033W        W25194  25.756  23.840  11.739
60034W        W25195  30.321  27.037  14.521
60035W        W25196  37.501  28.991  11.578
60036W        W25197  37.518  21.041  14.981
60037W        W25198  33.543   0.860   3.805
60038W        W25199  34.351  12.753   4.816
60039W        W25200  13.466  14.350  11.066
60040W        W25201  17.049  23.628  11.628
60041W        W25202  42.754  32.891  14.837
60042W        W25203   8.271  25.652  13.751
60043W        W25204  31.172   3.051   1.224
60044W        W25205  28.101  23.043  11.163
60045W        W25206  26.403   2.372  11.591
60046W        W25207  29.006  18.632  14.600
60047W        W25208  11.437   0.926  12.935
60048W        W25209  18.971  12.201   0.739
60049W        W25210  32.339  13.606   4.252
60050W        W25211  20.737  30.354  10.782
60051W        W25212  24.770   0.675   4.182
60052W        W25213   9.091  10.146  13.151
60053W        W25214  36.771  34.475  14.898
60054W        W25215   6.413  27.958  12.822
60055W        W25216  13.397  34.529   1.348
60056W        W25217   1.824  20.665   2.802
60057W        W25218  18.229  16.271   0.778
60058W        W25219   1.828  39.613  13.286
60059W        W25220  30.966  33.565   4.142
60060W        W25221  20.657  27.453  14.409
60061W        W25222  37.341  36.799  12.970
60062W        W25223  37.041   0.432   0.972
60063W        W25224   4.675  37.525   2.153
60064W        W25225  13.109  16.376   4.611
60065W        W25226  38.090  40.401   4.526
60066W        W25227  31.378   9.845  12.513
60067W        W25228  10.478  38.000   1.274
60068W        W25229   6.720   7.154  11.269
60069W        W25230   9.258  33.534  11.227
60070W        W25231  41.739  44.555   4.033
60071W        W25232  24.518  27.902   2.373
60072W        W25233  15.432  16.080  13.998
60073W        W25234  43.931   6.834  12.605
60074W        W25235  17.004  40.956   0.150
60075W        W25236  20.813  19.135  13.300
60076W        W25237  19.389  38.546  12.242
60077W        W25238  38.112  11.605   2.160
60078W        W25239  36.014  35.176   0.245
60079W        W25240  22.052   4.803  11.246
60080W        W25241  32.770  34.963   0.331
60081W        W25242  35.367  26.556   2.613
60082W        W25243   1.386  15.968   4.510
60083W        W25244  42.948  37.943   0.485
60084W        W25245   1.378  22.548  10.770
60085W        W25246  32.249  13.497  14.484
60086W        W25247   4.853  17.331   4.598
60087W        W25248   6.749  30.243   4.195
60088W        W25249   6.174  13.268   0.426
60089W        W25250   9.644  35.573  11.567
60090W        W25251  25.042  12.660  12.333
60091W        W25252  23.110  31.662  10.683
60092W        W25253  29.637  21.989   5.228
60093W        W25254  26.457  13.165  13.008
60094W        W25255  44.156  37.164   3.490
60095W        W25256  14.744   0.229   3.421
60096W        W25257  32.444   4.938  11.755
60097W        W25258  33.489   6.039  13.820
60098W        W25259  38.444   3.192   1.397
60099W        W25260  32.827  32.287   3.360
60100W        W25261  26.977  24.659   2.818
60101W        W25262  34.932  12.859   1.442
60102W        W25263   0.815  25.290  12.513
60103W        W25264  12.793  35.534   2.104
60104W        W25265   4.526   7.964   0.453
60105W        W25266  31.783   5.198   2.816
60106W        W25267   1.933  30.121   4.043
60107W        W25268   6.789  13.101  14.793
60108W        W25269   9.477   5.022   4.487
60109W        W25270   7.292   8.675  14.769
60110W        W25271  41.789  31.977   2.435
60111W        W25272  40.882   9.998   1.509
60112W        W25273   5.738  25.730  11.251
60113W        W25274  26.671  29.961  14.401
60114W        W25275  34.835  37.726  11.897
60115W        W25276  14.584  44.222  11.552
60116W        W25277   3.322  25.998  11.678
60117W        W25278   0.054  43.331   4.477
60118W        W25279   4.967   8.868  13.031
60119W        W25280   4.157  15.180  13.429
60120W        W25281  36.508  37.863   4.210
60121W        W25282  25.113  30.551  14.736
60122W        W25283  17.129  10.317   3.604
60123W        W25284  38.917   1.461  14.543
60124W        W25285  40.626  22.069   3.183
60125W        W25286  17.036  35.789  11.567
60126W        W25287  36.394  21.121   0.500
60127W        W25288  36.027  28.363   5.037
60128W        W25289  34.347  36.474  13.573
60129W        W25290   5.193  44.438  10.701
60130W        W25291  24.409  33.256  11.094
60131W        W25292   6.695  15.264   3.998
60132W        W25293  17.588  34.678  12.023
60133W        W25294   7.886  17.607  11.650
60134W        W25295  12.140  40.429  13.329
60135W        W25296  44.586  10.814   2.333
60136W        W25297  15.087   2.510   1.275
60137W        W25298  21.122  31.133  13.326
60138W        W25299  43.977   6.636   3.756
60139W        W25300  32.358  15.244  11.245
60140W        W25301   8.416  37.047   3.264
60141W        W25302   4.426  17.475   3.024
60142W        W25303  12.251   4.003  10.761
60143W        W25304  28.526  26.127  13.373
60144W        W25305  22.666   4.672  12.690
60145W        W25306  41.505   9.366   3.613
60146W        W25307  35.539  16.614   2.474
60147W        W25308   1.372   5.801   4.621
60148W        W25309  13.223  13.617  12.175
60149W        W25310   0.166  43.234  11.771
60150W        W25311   3.875  41.163   0.623
60151W        W25312   8.287  21.711  12.963
60152W        W25313  29.504  19.799   0.257
60153W        W25314  32.760  37.418   0.233
60154W        W25315   9.718  27.488   3.256
60155W        W25316  37.095  13.283  12.386
60156W        W25317  32.090  30.557  11.143
60157W        W25318  35.593  21.389   3.943
60158W        W25319  12.856  33.055  11.560
60159W        W25320   5.605  29.160   3.451
60160W        W25321  35.870   5.344  13.418
60161W        W25322   2.879  11.930   5.511
60162W        W25323   4.540  31.577  10.684
60163W        W25324  28.482  33.690   1.635
60164W        W25325   2.021   9.331  14.795
60165W        W25326  11.416   2.078   1.029
60166W        W25327  38.383  17.625  13.984
60167W        W25328  30.956   8.112  11.562
60168W        W25329  36.994  25.395   1.928
60169W        W25330   0.363  19.676   0.995
60170W        W25331   9.567   3.221  12.518
60171W        W25332  30.778  20.713   3.307
60172W        W25333  31.475  29.476   3.224
60173W        W25334  29.772   8.823   1.818
60174W        W25335  18.112  31.194  12.937
60175W        W25336  36.301  24.513  12.849
60176W        W25337  11.113  27.024  11.573
60177W        W25338  21.541  18.806   2.727
60178W        W25339  36.802   1.872  12.329
60179W        W25340  44.914  35.435   1.097
60180W        W25341  34.056  10.661  11.630
60181W        W25342  17.510   4.425  11.093
60182W        W25343   5.467  23.351   3.736
60183W        W25344  28.455  24.270   0.856
60184W        W25345   8.048  13.013  14.919
60185W        W25346   6.740  19.103   0.776
60186W        W25347  16.740  41.574  11.572
60187W        W25348  17.386  30.395   0.280
60188W        W25349  43.544  41.850  10.647
60189W        W25350  10.871  15.114  12.313
60190W        W25351  13.669  43.072   1.013
60191W        W25352  26.902  34.419   4.869
60192W        W25353  19.668  21.573  12.436
60193W        W25354   3.411   6.774  12.122
60194W        W25355  34.798  35.968  11.993
60195W        W25356  41.990  42.427  14.033
60196W        W25357  15.876   9.710   4.182
60197W        W25358  22.156  25.091  11.667
60198W        W25359  34.452  36.404   2.359
60199W        W25360  14.205  17.819   3.797
60200W        W25361   6.178  44.049   2.664
60201W        W25362  30.222  11.885   3.259
60202W        W25363  33.507   6.142  10.465
60203W        W25364  42.986  43.087  12.152
60204W        W25365   9.944  23.553   1.700
60205W        W25366  15.872  13.407   0.393
60206W        W25367   8.682  34.873  13.011
60207W        W25368  33.993   0.257  11.118
60208W        W25369  13.370  15.495  10.464
60209W        W25370   5.694   2.465   0.837
60210W        W25371  41.020  30.262  11.779
60211W        W25372  43.752   5.622   2.833
60212W        W25373  35.254   0.971  14.770
60213W        W25374  41.055  40.830   2.744
60214W        W25375   8.146  39.903  13.079
60215W        W25376  21.210  22.084   3.507
60216W        W25377  27.644  15.621  10.665
60217W        W25378   7.806   8.229  13.508
60218W        W25379  23.597   9.718   1.796
60219W        W25380  38.070   2.800   2.276
60220W        W25381  13.027  24.578   0.828
60221W        W25382   0.491   7.686   1.341
60222W        W25383  25.639  29.516   1.642
60223W        W25384  11.918  39.936   3.193
60224W        W25385  12.378  42.040  12.774
60225W        W25386  16.247  21.997  10.772
60226W        W25387  34.456  26.004   3.966
60227W        W25388  19.656  32.721   0.225
60228W        W25389   2.542  10.306  11.962
60229W        W25390  18.776  29.583  12.971
60230W        W25391   7.688   0.238  11.142
60231W        W25392  12.414  39.026  13.358
60232W        W25393  14.088   3.395   0.664
60233W        W25394  44.440  15.853  14.522
60234W        W25395  41.881   2.927   0.179
60235W        W25396   9.891   7.404   2.262
60236W        W25397  15.193  15.889  10.630
60237W        W25398  22.855  11.647   5.445
60238W        W25399   9.294  43.204   0.846
60239W        W25400  15.781   3.838   1.147
60240W        W25401   8.350  39.724  14.914
60241W        W25402  20.251  14.248   0.361
60242W        W25403  17.187  25.897  13.891
60243W        W25404  39.193  33.573   2.450
60244W        W25405  13.675   3.184   3.190
60245W        W25406   4.592   4.463  11.792
60246W        W25407  43.926   7.283  13.836
60247W        W25408  39.312  37.147  10.573
60248W        W25409  11.172  10.133  13.332
60249W        W25410   2.160  13.322   0.859
60250W        W25411  38.592   5.395  12.541
60251W        W25412  25.771  18.328   1.469
60252W        W25413  16.494  13.946  10.749
60253W        W25414  20.160  13.220   3.587
60254W        W25415   7.303   8.726   1.812
60255W        W25416  20.531  34.106  14.393
60256W        W25417  26.034   2.885  11.123
60257W        W25418  22.262  35.145  11.334
60258W        W25419  15.186  38.820   3.760
60259W        W25420  22.046  19.884  13.631
60260W        W25421  38.377  15.638  13.647
60261W        W25422  17.234  23.706   3.920
60262W        W25423   3.907  28.940  14.820
60263W        W25424  43.885  36.436   0.812
60264W        W25425  44.065   8.885  10.824
60265W        W25426  20.976  24.692  14.018
60266W        W25427  13.352  32.768  14.593
60267W        W25428  35.829   6.841   2.565
60268W        W25429   9.854  28.257   2.300
60269W        W25430  33.606  28.695  11.623
60270W        W25431   7.000  13.798   3.779
60271W        W25432  11.134  25.529   2.377
60272W        W25433  39.543   6.771  12.744
60273W        W25434  18.713  35.321  13.285
60274W        W25435  34.473  24.987  10.426
60275W        W25436  22.169  28.162   0.296
60276W        W25437  44.781  37.660   1.645
60277W        W25438  32.166  40.349   3.356
60278W        W25439  29.022  18.236   3.219
60279W        W25440   5.385  21.696  13.775
60280W        W25441   0.847  31.789  10.442
60281W        W25442  41.317  42.582   1.750
60282W        W25443   0.561  37.489  11.504
60283W        W25444  32.457  14.248   0.934
60284W        W25445  13.260  18.707   1.513
60285W        W25446  14.841  10.749  11.968
60286W        W25447  34.355  41.243  12.839
60287W        W25448  18.538  33.809  12.484
60288W        W25449  26.779  29.754  11.565
60289W        W25450  36.250  38.260  12.049
60290W        W25451  26.269  22.666   0.715
60291W        W25452  35.327   2.276   3.253
60292W        W25453   5.793  32.633  12.049
60293W        W25454  32.680  33.773  11.137
60294W        W25455   6.785   7.659   3.255
60295W        W25456   0.248  41.896  14.272
60296W        W25457  42.263  42.402  11.701
60297W        W25458  10.277  31.546   0.968
60298W        W25459  35.891  17.721   4.041
60299W        W25460  21.218   3.488  13.640
60300W        W25461  44.654  20.254   3.539
60301W        W25462  40.272   2.941  11.065
60302W        W25463  17.778  31.572   2.007
60303W        W25464  37.110   3.268   1.467
60304W        W25465  27.500  40.788  14.399
60305W        W25466   5.436  30.938   2.389
60306W        W25467   0.785  23.749  12.450
60307W        W25468   9.559  12.618   3.333
60308W        W25469  32.625   7.868   1.774
60309W        W25470  32.899  38.459  11.967
60310W        W25471  18.381  37.247  13.448
60311W        W25472   6.341  32.826  12.453
60312W        W25473   4.148  41.204   2.407
60313W        W25474  24.706  39.800   1.275
60314W        W25475   6.878   0.558   2.622
60315W        W25476  44.596  25.447  12.845
60316W        W25477  43.971  37.086   1.248
60317W        W25478  36.796  19.328   0.028
60318W        W25479  43.552  11.664  11.233
60319W        W25480   6.921  11.837   2.915
60320W        W25481  26.714   1.002   0.661
60321W        W25482   4.730  13.853  12.459
60322W        W25483  22.253  11.862   3.404
60323W        W25484  32.965  34.565  12.441
60324W        W25485  14.394  34.059   2.844
60325W        W25486  40.791  22.006  12.064
60326W        W25487   0.187  30.443   0.256
60327W        W25488   7.311  40.453   4.059
60328W        W25489  28.988   8.270  11.596
60329W        W25490  28.163  15.811  10.615
60330W        W25491   9.587  25.694   2.855
60331W        W25492   9.982  18.448   2.871
60332W        W25493  35.753  30.459  11.957
60333W        W25494  33.446  28.184  12.163
60334W        W25495  19.214  34.279   2.240
60335W        W25496  19.673  43.368  12.217
60336W        W25497  36.534   8.656   4.111
60337W        W25498   7.166  12.239  11.126
60338W        W25499  14.076  40.447   4.485
60339W        W25500   0.532  18.240  12.809
60340W        W25501  38.878   8.771   1.760
60341W        W25502   2.631  37.564   4.612
60342W        W25503  39.625  26.974  12.488
60343W        W25504  27.529  33.361   4.577
60344W        W25505  39.465  10.896   2.069
60345W        W25506   2.813   9.328   4.063
60346W        W25507  31.265  24.325  13.768
60347W        W25508  40.797   1.745   4.012
60348W        W25509   6.523  44.076   3.060
60349W        W25510  18.487  33.019   4.853
60350W        W25511  10.279  17.431   2.984
60351W        W25512  22.279  35.611  14.402
60352W        W25513  41.881  21.022   2.054
60353W        W25514  35.601  27.471   4.508
60354W        W25515  42.966   6.468   1.457
60355W        W25516   9.658  15.718   1.277
60356W        W25517   5.548  12.771   3.873
60357W        W25518   9.343   4.881  11.479
60358W        W25519  37.073  14.136  13.799
60359W        W25520  22.307  10.463   1.128
60360W        W25521  33.921  21.629  13.815
60361W        W25522  23.907  34.012   3.351
60362W        W25523   5.164  29.989   2.744
60363W        W25524  10.110  25.964  10.666
60364W        W25525  15.034   0.520  14.404
60365W        W25526  37.492  18.464   4.542
60366W        W25527  28.912  18.290   0.369
60367W        W25528  14.108  13.238   0.315
60368W        W25529  44.414  25.203   4.168
60369W        W25530  14.759  41.578   0.448
60370W        W25531   3.952  10.128  14.714
60371W        W25532  28.058   9.867   0.361
60372W        W25533  25.194  13.509  13.422
60373W        W25534  30.603  13.604   4.541
60374W        W25535  30.323  18.094   4.193
60375W        W25536  39.259  13.176  14.530
60376W        W25537  38.825   0.814  12.956
60377W        W25538  44.485  37.330  10.476
60378W        W25539  35.795  40.701  12.520
60379W        W25540  35.101  26.132  14.317
60380W        W25541   0.994  36.005   1.638
60381W        W25542  13.488   7.441  14.277
60382W        W25543  19.861  21.927  11.177
60383W        W25544  32.922  22.591   3.056
60384W        W25545  13.566  28.371   3.745
60385W        W25546   9.359  33.660   0.752
60386W        W25547  39.477   5.817  11.507
60387W        W25548  34.837  11.899  10.453
60388W        W25549   7.931   3.742   4.695
60389W        W25550  27.975   2.842   0.013
60390W        W25551   6.994   5.215   2.307
60391W        W25552  23.060  17.060   2.696
60392W        W25553  34.467   1.918  11.085
60393W        W25554  20.856   2.404   4.814
60394W        W25555   3.008   5.187   3.554
60395W        W25556  16.473  19.993  10.720
60396W        W25557  11.293  20.726   0.867
60397W        W25558  42.671  42.012  10.794
60398W        W25559  12.222  37.605  12.947
60399W        W25560  30.467  35.586   1.965
60400W        W25561   1.714  32.669   0.974
60401W        W25562   8.236  42.310   3.481
60402W        W25563  21.750  34.464   2.385
60403W        W25564  16.382  16.122  12.962
60404W        W25565  31.154  42.755   1.604
60405W        W25566  31.160   4.023   3.582
60406W        W25567  14.154   9.788   3.683
60407W        W25568   8.320  42.869   4.142
60408W        W25569  31.632  16.651   0.465
60409W        W25570  19.310  24.101   4.595
60410W        W25571   1.960  24.801  13.955
60411W        W25572  15.784  43.378   2.800
60412W        W25573   3.468  28.490   1.593
60413W        W25574   5.495  27.576   1.001
60414W        W25575  31.766  30.510   9.952
60415W        W25576  37.416  30.722  13.869
60416W        W25577  16.732  42.327  11.082
60417W        W25578  14.799  19.160   1.410
60418W        W25579  22.718  11.508  12.619
60419W        W25580   2.397  43.885  11.984
60420W        W25581  44.847   7.163   3.607
60421W        W25582  35.362  16.318  14.879
60422W        W25583  20.512  19.572   4.852
60423W        W25584  16.669  28.423   3.846
60424W        W25585  44.776  18.695   4.864
60425W        W25586   9.262  27.361   5.125
60426W        W25587  41.921  37.296  11.979
60427W        W25588  30.374   7.247  11.827
60428W        W25589  20.335   0.069   4.162
60429W        W25590   7.372   5.124   1.037
60430W        W25591  31.060  20.951   3.654
60431W        W25592  27.262  21.143   3.107
60432W        W25593  17.953   0.780   0.708
60433W        W25594  17.814  27.818  11.660
60434W        W25595  35.842  28.229   3.326
60435W        W25596  21.042  15.138   1.742
60436W        W25597  43.857   7.315  14.902
60437W        W25598   4.263  13.104  14.294
60438W        W25599  28.865  39.259   0.048
60439W        W25600  40.862  32.038  13.485
60440W        W25601  16.714  38.276   5.360
60441W        W25602  38.384  14.437  14.430
60442W        W25603  31.615  43.632  11.326
60443W        W25604   8.409  33.054   1.408
60444W        W25605   8.213   6.839   1.257
60445W        W25606  39.926  31.487   4.394
60446W        W25607  18.209   5.931   3.706
60447W        W25608   1.561  27.989   1.304
60448W        W25609  40.178   1.888  13.049
60449W        W25610  42.519   4.879   0.179
60450W        W25611  26.198  29.507  10.376
60451W        W25612  30.172  26.293  12.943
60452W        W25613   2.298  34.827   0.848
60453W        W25614  13.765  11.681  13.038
60454W        W25615  42.062  33.697  11.803
60455W        W25616  25.678  36.833   4.154
60456W        W25617  43.855  33.443  10.612
60457W        W25618  19.572  22.714   5.087
60458W        W25619  33.500  19.741   3.629
60459W        W25620  34.551  33.831  13.032
60460W        W25621  26.167   4.952   4.965
60461W        W25622   9.814  21.512   3.208
60462W        W25623   9.721   7.447   3.675
60463W        W25624  37.882  23.446   1.952
60464W        W25625  44.639  24.104  13.008
60465W        W25626  37.084  42.299  14.344
60466W        W25627  33.416  27.956   2.786
60467W        W25628  23.013  34.867   1.174
60468W        W25629   8.911   3.286   3.483
60469W        W25630  41.141  42.748  14.322
60470W        W25631  32.537  41.921  12.121
60471W        W25632  40.490  27.131  12.053
60472W        W25633  23.691  18.307  11.149
60473W        W25634  19.182   7.252  10.822
60474W        W25635  33.874  23.277  14.339
60475W        W25636  25.607  29.774   2.075
60476W        W25637  28.409  32.371   0.376
60477W        W25638  39.976  37.621  12.364
60478W        W25639  44.309   4.140   4.196
60479W        W25640   8.191  15.668  10.865
60480W        W25641   0.811  24.195  11.564
60481W        W25642   6.098  34.715  13.774
60482W        W25643   2.707  16.599   3.303
60483W        W25644  28.464  30.061   1.690
60484W        W25645  12.051  11.674  10.803
60485W        W25646  30.577  37.968   0.341
60486W        W25647  21.624  41.942  13.358
60487W        W25648  13.552  24.001   4.229
60488W        W25649  13.495  43.389   0.218
60489W        W25650  42.067  25.111   4.646
60490W        W25651   8.296  44.136   2.632
60491W        W25652  17.075  25.561  12.936
60492W        W25653  17.268  37.173   1.026
60493W        W25654  28.769  10.150   1.520
60494W        W25655  34.012   3.281   0.780
60495W        W25656  17.509  25.499   0.616
60496W        W25657  23.018   1.835  11.573
60497W        W25658   8.837  12.803   0.784
60498W        W25659  34.656  23.294  14.813
60499W        W25660  43.536   4.269  11.554
60500W        W25661  33.070  25.482  12.720
60501W        W25662  43.893   4.097  11.937
60502W        W25663  13.243  27.918   0.896
60503W        W25664  32.416  43.979   3.311
60504W        W25665  33.404   5.955   1.446
60505W        W25666  38.063   8.378   0.342
60506W        W25667  23.050  38.889  14.047
60507W        W25668  12.073  37.933  10.520
60508W        W25669  22.904   5.886   3.329
60509W        W25670  20.813  17.842  12.030
60510W        W25671  29.162  44.837   3.603
60511W        W25672   4.920  35.208   0.816
60512W        W25673  43.992   2.857  11.507
60513W        W25674  33.543  28.848  13.575
60514W        W25675  34.491   2.498   0.811
60515W        W25676  21.058  12.021  14.146
60516W        W25677  24.908  30.125   4.660
60517W        W25678  28.022   3.456   3.600
60518W        W25679   6.360  15.422  10.613
60519W        W25680  13.282  35.098  10.744
60520W        W25681   1.932  14.460   1.370
60521W        W25682  14.041  44.544   2.292
60522W        W25683  21.708  28.589   2.693
60523W        W25684  31.929  43.332   1.890
60524W        W25685  19.193  24.619   1.611
60525W        W25686  28.226  37.330  12.519
60526W        W25687  39.478  35.704   3.327
60527W        W25688  21.646  38.939   4.772
60528W        W25689  34.349  35.095  10.632
60529W        W25690  25.042  13.596  11.603
60530W        W25691  43.267   5.379   1.421
60531W        W25692  38.374  20.920  14.765
60532W        W25693  13.426  31.081   1.864
60533W        W25694  28.551  35.586  11.602
60534W        W25695  15.673   1.380  10.910
60535W        W25696  27.793  38.273   3.598
60536W        W25697  32.218  43.925  11.508
60537W        W25698  39.434   7.595   4.111
60538W        W25699  42.373  44.235   1.260
60539W        W25700   3.826  34.690   1.833
60540W        W25701  18.259  41.930   4.371
60541W        W25702  24.229  21.240  12.112
60542W        W25703  23.739  23.785  12.998
60543W        W25704  19.228  36.376  13.905
60544W        W25705   4.205  34.493  14.803
60545W        W25706   4.287   9.201  14.718
60546W        W25707   2.180  25.736  13.633
60547W        W25708  22.057   6.338   0.139
60548W        W25709  22.628  15.097   4.099
60549W        W25710  11.878   2.935   2.805
60550W        W25711   8.693   2.317  14.116
60551W        W25712  33.896  31.263   1.478
60552W        W25713   8.637  44.508  14.746
60553W        W25714   6.889  16.361   2.611
60554W        W25715  21.999   8.442   3.261
60555W        W25716  14.684   1.762  12.424
60556W        W25717  33.374  18.176   4.217
60557W        W25718  34.159  23.026   3.369
60558W        W25719   5.204  10.692   1.777
60559W        W25720   1.516  38.939   1.241
60560W        W25721  39.114  40.865  11.946
60561W        W25722  14.785  32.643  13.768
60562W        W25723  44.192  20.924   4.992
60563W        W25724   2.276  10.702   2.289
60564W        W25725   1.386  27.103   0.799
60565W        W25726  20.801   3.913  10.769
60566W        W25727  36.976   8.021   4.061
60567W        W25728  36.537  24.559  13.848
60568W        W25729   1.760  40.801   1.246
60569W        W25730  17.932  30.147   1.899
60570W        W25731  32.982   4.889   2.211
60571W        W25732   3.149  15.272  12.841
60572W        W25733   4.168  22.583  13.246
60573W        W25734   7.234  39.105  14.765
60574W        W25735   5.777  30.634  11.614
60575W        W25736  30.556   4.957   2.808
60576W        W25737  21.464   9.573  13.470
60577W        W25738   2.496  12.223  13.454
60578W        W25739  41.086   5.203   2.288
60579W        W25740  40.920  14.361   3.695
60580W        W25741  38.429   2.222   4.015
60581W        W25742  28.613   0.786  11.556
60582W        W25743  17.565  28.158  10.330
60583W        W25744  29.243  44.739  14.413
60584W        W25745  16.330  19.690  11.866
60585W        W25746  17.803  29.859  14.779
60586W        W25747  38.687  14.173   3.938
60587W        W25748   2.367  21.423  10.730
60588W        W25749   6.466  41.481   0.521
60589W        W25750  27.834  11.852  14.536
60590W        W25751  25.592  15.592  12.226
60591W        W25752  34.371  15.758   1.227
60592W        W25753  40.184  37.381  11.956
60593W        W25754  42.936  38.043   0.987
60594W        W25755  44.283  39.608   2.756
60595W        W25756  24.366  33.825   2.009
60596W        W25757  31.856  31.928  11.616
60597W        W25758  20.522  37.016  14.884
60598W        W25759  31.787  36.565   1.750
60599W        W25760  33.094  12.149  13.079
60600W        W25761   2.636  32.124   5.012
60601W        W25762  21.858  38.619  10.286
60602W        W25763  42.788  40.969   3.873
60603W        W25764  22.741  42.702  14.358
60604W        W25765   5.443  32.138   2.334
60605W        W25766  10.074  38.621   2.899
60606W        W25767  32.602  43.916   4.267
60607W        W25768  36.102  14.297   2.651
60608W        W25769  28.030  31.098  10.604
60609W        W25770  23.790  30.464  10.738
60610W        W25771  25.029   4.802  12.130
60611W        W25772  38.468  10.462  11.971
60612W        W25773  38.381   7.742  11.713
60613W        W25774  31.702   0.494   4.251
60614W        W25775  35.434  14.721   2.862
60615W        W25776   9.223  10.380  10.377
60616W        W25777  22.645  42.770   4.103
60617W        W25778  17.782  28.533   0.066
60618W        W25779  32.493  41.876  13.985
60619W        W25780  43.959  12.823  12.082
60620W        W25781  15.454  35.665   1.276
60621W        W25782  32.954   5.950  11.115
60622W        W25783  27.648   7.736  12.392
60623W        W25784  40.081  27.990  13.103
60624W        W25785  19.541   4.616   3.876
60625W        W25786  26.044   5.111  11.420
60626W        W25787  33.009  44.419  13.378
60627W        W25788  12.162  32.657  11.587
60628W        W25789  14.694  14.547   3.343
60629W        W25790  30.029  16.152  12.082
60630W        W25791  41.289  42.845  13.122
60631W        W25792  42.233  11.010   4.783
60632W        W25793  21.259  29.090   1.671
60633W        W25794  24.238  18.314   0.745
60634W        W25795  38.276  39.388   3.866
60635W        W25796  39.939   6.740   3.377
60636W        W25797   7.452  18.803  12.386
60637W        W25798  11.647  19.635  12.858
60638W        W25799  21.474  28.607  11.510
60639W        W25800  14.610   5.818   2.410
60640W        W25801  42.783  30.626  10.733
60641W        W25802   8.947  31.256   5.107
60642W        W25803  40.329  30.901  12.053
60643W        W25804  43.539  33.329   1.512
60644W        W25805   1.379  20.516  12.642
60645W        W25806  36.811   7.292  10.473
60646W        W25807  26.200   4.654   2.334
60647W        W25808  19.574   5.781   2.764
60648W        W25809  28.592  24.799  13.895
60649W        W25810  26.481  30.640  12.147
60650W        W25811  23.190  26.289  10.738
60651W        W25812   8.504  36.844   4.153
60652W        W25813  14.010   9.355   3.925
60653W        W25814   2.282   1.384  11.397
60654W        W25815   9.706  15.286  12.844
60655W        W25816  22.564  31.369   2.788
60656W        W25817  13.101   6.339  11.904
60657W        W25818   3.398  12.127   2.894
60658W        W25819  35.896  15.727  13.829
60659W        W25820  36.675  18.133   4.275
60660W        W25821  23.025   7.950   3.856
60661W        W25822  41.132  26.278  13.525
60662W        W25823  23.539  40.399   3.558
60663W        W25824  18.573  19.313   4.938
60664W        W25825   5.973  40.288  11.556
60665W        W25826  29.177  23.025  12.970
60666W        W25827  33.610  43.826   3.009
60667W        W25828   9.641  36.619   3.148
60668W        W25829  10.377  21.231  14.788
60669W        W25830  36.000   9.805  10.470
60670W        W25831   4.927   8.775   2.173
60671W        W25832  15.335  41.048   1.288
60672W        W25833   9.501  12.222   4.545
60673W        W25834  21.755  15.705  11.364
60674W        W25835  39.334  28.215   2.864
60675W        W25836   4.330  24.428  10.617
60676W        W25837   1.707  16.841   3.128
60677W        W25838  32.534  12.760  13.987
60678W        W25839  12.925  15.896  11.183
60679W        W25840  21.751  22.211   2.647
60680W        W25841   9.196  34.664  13.513
60681W        W25842  15.098   8.808  14.380
60682W        W25843  15.666  15.812   1.439
60683W        W25844  17.229  31.728  12.661
60684W        W25845  31.224  43.962  11.614
60685W        W25846  32.865  39.230   1.309
60686W        W25847  25.255   8.889  12.084
60687W        W25848  40.527  36.316  14.801
60688W        W25849  25.861  18.679   4.500
60689W        W25850  38.679  21.715  11.254
60690W        W25851  10.790   9.834  11.400
60691W        W25852  35.010  40.624   4.789
60692W        W25853   7.972   6.462  12.550
60693W        W25854  17.068  18.495   0.290
60694W        W25855  37.408  20.647  12.053
60695W        W25856  29.409  38.385  10.541
60696W        W25857  12.153  10.934  11.538
60697W        W25858  35.597   8.696   1.261
60698W        W25859  12.061   5.664  13.305
60699W        W25860   0.989  16.906  13.246
60700W        W25861  37.007  15.804  13.361
60701W        W25862  13.488  42.793   9.593
60702W        W25863  20.978   7.728   1.249
60703W        W25864  39.430  30.638  13.943
60704W        W25865   4.139  33.602  12.467
60705W        W25866   8.678  25.510  11.757
60706W        W25867  39.820  42.510   4.526
60707W        W25868  21.003  11.266   0.455
60708W        W25869  11.680  43.857  12.147
60709W        W25870  31.663  10.566   3.662
60710W        W25871  22.191   8.249  13.299
60711W        W25872  34.011  17.752  12.466
60712W        W25873  20.075  17.709  14.501
60713W        W25874  17.193  11.452   0.260
60714W        W25875  42.949  31.114  10.784
60715W        W25876  14.929   5.831  13.350
60716W        W25877  36.483  15.238   0.865
60717W        W25878  41.416  12.702  12.899
60718W        W25879  28.699  13.888   0.280
60719W        W25880  39.574  43.495  13.949
60720W        W25881  32.371  25.237  14.872
60721W        W25882  13.763   6.589  10.400
60722W        W25883  41.046   5.277  10.675
60723W        W25884  13.778   1.291   1.642
60724W        W25885  13.623   7.561   4.712
60725W        W25886  22.326   1.447   3.128
60726W        W25887  41.364  20.834   2.786
60727W        W25888  17.734   0.832  10.100
60728W        W25889  41.866   7.166  14.361
60729W        W25890   0.709  26.859   1.270
60730W        W25891  27.800   2.527  10.716
60731W        W25892   7.359  22.685   4.951
60732W        W25893  32.164   7.621  14.019
60733W        W25894  33.556   5.041  14.887
60734W        W25895  27.000  14.838   1.183
60735W        W25896  35.847   4.272  13.369
60736W        W25897  17.915   3.686   4.083
60737W        W25898  43.129  26.897   3.929
60738W        W25899  21.813  10.713  14.388
60739W        W25900  42.775  26.524   1.028
60740W        W25901  18.165  34.168   2.901
60741W        W25902  33.184  19.016  14.063
60742W        W25903  18.613  43.924   1.669
60743W        W25904   6.421  24.585   4.387
60744W        W25905  22.726   3.821  14.993
60745W        W25906  33.499  26.663  14.567
60746W        W25907   9.592   3.910  11.939
60747W        W25908  23.972   2.711  14.495
60748W        W25909  18.743  42.348   3.327
60749W        W25910  31.707   4.714   0.849
60750W        W25911  37.524  10.945  14.285
60751W        W25912  40.017   4.789   1.590
60752W        W25913  34.966  28.478   0.366
60753W        W25914   7.366  19.837  10.519
60754W        W25915  34.894   4.397   4.071
60755W        W25916  26.447  31.172   0.042
60756W        W25917  30.216  40.239   3.286
60757W        W25918  39.672  41.998   0.554
60758W        W25919  31.854  40.938   1.825
60759W        W25920  36.114  15.846   0.905
60760W        W25921  37.385  29.740  13.551
60761W        W25922  12.044  26.489   1.010
60762W        W25923  16.289   4.430   0.365
60763W        W25924  25.140  28.629   4.168
60764W        W25925  22.731  44.393  14.949
60765W        W25926  35.368  14.327   1.247
60766W        W25927  19.585  14.068   3.227
60767W        W25928  15.141  22.310  11.037
60768W        W25929   2.073  38.989  12.507
60769W        W25930   0.659  31.505   2.394
60770W        W25931  14.204  30.249  12.569
60771W        W25932  27.653  42.532  10.726
60772W        W25933  24.064  28.727   0.470
60773W        W25934  41.054  26.663   3.404
60774W        W25935  41.652  27.497  14.884
60775W        W25936  13.449  38.527  14.002
60776W        W25937   4.375   6.797  12.212
60777W        W25938  28.921   1.706  14.566
60778W        W25939  12.287  42.578  13.607
60779W        W25940  30.331  41.479  12.646
60780W        W25941  43.519   8.300   2.385
60781W        W25942  30.735   9.186  14.252
60782W        W25943  38.832   3.388   3.978
60783W        W25944   1.768  35.485  14.213
60784W        W25945   1.701  17.574   2.698
60785W        W25946  11.140   2.324  11.214
60786W        W25947  20.506  13.286   0.841
60787W        W25948  33.298  15.136  12.282
60788W        W25949  23.539   6.210   3.729
60789W        W25950  31.449   5.111  12.632
60790W        W25951   4.816  43.825   2.059
60791W        W25952  10.138  30.438  12.154
60792W        W25953  41.457  21.357  13.534
60793W        W25954  23.217   0.226   0.562
60794W        W25955  33.514  21.440  13.469
60795W        W25956  22.243  42.216  12.340
60796W        W25957  42.332   3.377   3.302
60797W        W25958  35.308  32.506   2.180
60798W        W25959   5.361  28.759  13.754
60799W        W25960  36.377  40.399  10.434
60800W        W25961  23.009  35.594   1.874
60801W        W25962   4.268  29.511   0.848
60802W        W25963  22.465  12.070   3.837
60803W        W25964  23.033  12.360  14.953
60804W        W25965  42.610  19.747   0.992
60805W        W25966  18.053   8.905   3.712
60806W        W25967   8.829  15.336  13.591
60807W        W25968  36.121  31.028   0.899
60808W        W25969  20.628   8.694   3.762
60809W        W25970  12.688  44.436  10.718
60810W        W25971   3.107   4.922  10.717
60811W        W25972   6.749  43.916   0.883
60812W        W25973   2.852   1.788   2.171
60813W        W25974  30.988  40.112   2.873
60814W        W25975  21.298  37.710   0.250
60815W        W25976  39.346   4.650   1.336
60816W        W25977   2.216  39.398   3.986
60817W        W25978  19.098   3.758   4.185
60818W        W25979  28.896  26.202  12.420
60819W        W25980   6.742  11.258   1.518
60820W        W25981  16.632  35.309   3.732
60821W        W25982  26.679  31.734   4.724
60822W        W25983  31.677  17.835  13.053
60823W        W25984  16.247  25.503  12.950
60824W        W25985  14.834   8.658   1.352
60825W        W25986  31.010   3.092   2.644
60826W        W25987  39.322  29.520   2.594
60827W        W25988   9.225  14.661   4.147
60828W        W25989  32.224   7.124  14.031
60829W        W25990  17.222  14.673  13.760
60830W        W25991  33.625  31.167  13.972
60831W        W25992  14.558  26.048   0.248
60832W        W25993  26.151   3.230  14.416
60833W        W25994  41.052  19.759  12.466
60834W        W25995  19.494  11.065   1.690
60835W        W25996  12.747  27.430  11.230
60836W        W25997  44.439   6.389  11.455
60837W        W25998  35.083  42.933   4.443
60838W        W25999  16.553  33.029   4.114
60839W        W26000  13.721  30.076  14.793
60840W        W26001  43.889  24.775  11.603
60841W        W26002   8.307   2.046  11.945
60842W        W26003  17.072  37.069   2.847
60843W        W26004  39.328  37.523  10.191
60844W        W26005  12.925  15.886   0.822
60845W        W26006  11.422  22.629   9.886
60846W        W26007   1.457  27.988   3.123
60847W        W26008   5.945  28.978   3.108
60848W        W26009   7.882  27.146   3.183
60849W        W26010  16.778  18.687  11.483
60850W        W26011  12.394  42.446  10.736
60851W        W26012  42.001  44.643   9.753
60852W        W26013  22.720  27.181   3.721
60853W        W26014   8.003   1.723  10.770
60854W        W26015   9.844  30.179  13.031
60855W        W26016  32.019  26.618   2.067
60856W        W26017  19.221  21.328   4.489
60857W        W26018  19.453  35.517   3.215
60858W        W26019  39.977  13.301   0.922
60859W        W26020  44.408  30.146   0.050
60860W        W26021  29.681  19.316   0.312
60861W        W26022   1.044  30.884  10.371
60862W        W26023   1.421  42.921  10.795
60863W        W26024   1.382   5.585  14.307
60864W        W26025  25.825  12.914   4.054
60865W        W26026   2.235  33.865   4.878
60866W        W26027  27.437  38.306  11.970
60867W        W26028  42.979  24.919   4.212
60868W        W26029  40.331  22.173   3.626
60869W        W26030  25.714  35.009  14.812
60870W        W26031  35.895  42.517  13.952
60871W        W26032  34.590  14.639  12.969
60872W        W26033  30.778   9.776   1.869
60873W        W26034   3.908   1.766  10.413
60874W        W26035  20.934   5.037  14.266
60875W        W26036  34.960   8.503   2.338
60876W        W26037  18.781  16.629   1.527
60877W        W26038  14.204   4.273   2.660
60878W        W26039   2.292  43.465   2.327
60879W        W26040  23.183  33.491   4.677
60880W        W26041   3.430   7.592   1.158
60881W        W26042  27.980  41.622  13.011
60882W        W26043  18.016  17.185  14.410
60883W        W26044  27.754  36.114  13.857
60884W        W26045  10.820  43.503  13.439
60885W        W26046  16.065  20.115  11.983
60886W        W26047  22.130  21.161   1.766
60887W        W26048  44.527  37.500   4.047
60888W        W26049  35.819  43.024   0.236
60889W        W26050  16.828  34.302   4.439
60890W        W26051  43.919  15.896   3.680
60891W        W26052  41.483   6.513   2.306
60892W        W26053   8.194  33.092  13.983
60893W        W26054  15.758  41.851  10.908
60894W        W26055   9.823   4.168  11.534
60895W        W26056  41.470   8.334   2.225
60896W        W26057  42.426   1.975   2.265
60897W        W26058  11.698  23.427  13.120
60898W        W26059  29.492  24.133  13.385
60899W        W26060  29.727  26.526   1.941
60900W        W26061  27.066  14.702  13.285
60901W        W26062  35.352  37.386   2.380
60902W        W26063  35.447  12.668  13.104
60903W        W26064   9.783  11.306   0.814
60904W        W26065  42.045   5.785  13.888
60905W        W26066   9.006  36.828   4.115
60906W        W26067  28.539  42.712   2.224
60907W        W26068   3.706  29.033  14.349
60908W        W26069  13.336  10.711   2.269
60909W        W26070  18.079  29.041  12.888
60910W        W26071  28.948  25.589   1.116
60911W        W26072  31.712  17.724  11.295
60912W        W26073  26.208   7.235  10.700
60913W        W26074  39.321  11.693   4.588
60914W        W26075  39.047  13.218   2.404
60915W        W26076  37.006  41.639   3.164
60916W        W26077  12.862  26.939  13.497
60917W        W26078  22.282  20.793   3.632
60918W        W26079  20.577  40.536  13.884
60919W        W26080  20.527   4.440   0.312
60920W        W26081   5.334  14.658  11.128
60921W        W26082  27.941  36.079   1.619
60922W        W26083  15.313   4.774  10.602
60923W        W26084   9.073  34.420   0.250
60924W        W26085  17.026  24.172  11.605
60925W        W26086  17.402  12.195  10.752
60926W        W26087  37.961  20.614  12.055
60927W        W26088  23.626  31.970   1.483
60928W        W26089  22.661  41.210  14.906
60929W        W26090   1.212   8.928  14.735
60930W        W26091  30.251   9.708   4.627
60931W        W26092  31.930  32.362   0.732
60932W        W26093  14.114  35.494   3.865
60933W        W26094   8.350  39.536   0.402
60934W        W26095  14.237  21.357  13.792
60935W        W26096  18.329   2.540  11.959
60936W        W26097  44.561  19.931   2.368
60937W        W26098  22.677  43.512  14.022
60938W        W26099   7.639  42.747  12.365
60939W        W26100   4.956  14.492  13.184
60940W        W26101  27.937  27.594   4.263
60941W        W26102  20.645  25.656   1.500
60942W        W26103  18.780  44.333   1.952
60943W        W26104   5.176  35.469   3.030
60944W        W26105  20.602  12.822   4.214
60945W        W26106  25.772  14.823  11.144
60946W        W26107   3.792  29.360   1.057
60947W        W26108  11.701  43.031   4.492
60948W        W26109  36.349  18.664  14.412
60949W        W26110  11.461  41.542   0.492
60950W        W26111  20.115  17.953  14.018
60951W        W26112  15.053   3.725  11.215
60952W        W26113  30.041  30.732   4.956
60953W        W26114  17.739  43.913  13.821
60954W        W26115  29.361  40.062  12.083
60955W        W26116   8.645  27.413   2.561
60956W        W26117  34.715  21.786   2.427
60957W        W26118   5.834  32.149   1.396
60958W        W26119   1.239  37.835  13.538
60959W        W26120  26.280  23.992   9.830
60960W        W26121   7.150  35.143   3.727
60961W        W26122  22.666  30.631  13.490
60962W        W26123  33.453   2.982   3.807
60963W        W26124  16.446  21.653   2.682
60964W        W26125   4.868   5.903   1.158
60965W        W26126  35.280  34.891  13.924
60966W        W26127  10.364  43.294  10.677
60967W        W26128  28.166  22.479  11.191
60968W        W26129   3.335   4.007  10.721
60969W        W26130  24.112   9.839   0.059
60970W        W26131  25.095  33.027  13.762
60971W        W26132  15.280  11.151   3.726
60972W        W26133  24.912  15.089  11.841
60973W        W26134  20.594  31.495  11.984
60974W        W26135   6.879  35.056   3.177
60975W        W26136  28.878  35.183   4.077
60976W        W26137  15.851  15.170  13.051
60977W        W26138  11.853  22.950  14.060
60978W        W26139  38.368  19.145  14.502
60979W        W26140  20.864  27.609   3.116
60980W        W26141   0.763  44.359  10.705
60981W        W26142  33.337   3.983  12.625
60982W        W26143  14.565  40.855   5.148
60983W        W26144  25.598  16.213  14.422
60984W        W26145  12.227  40.296   4.253
60985W        W26146  44.573   7.394  13.862
60986W        W26147   8.952  28.636   2.867
60987W        W26148   8.721  42.844   4.916
60988W        W26149  24.644  30.024   4.194
60989W        W26150   0.495  34.405   3.625
60990W        W26151   6.597  12.793   4.557
60991W        W26152  27.781  21.479  12.981
60992W        W26153  26.407  16.644   2.784
60993W        W26154  16.294  29.394  11.511
60994W        W26155  35.136  12.504   2.447
60995W        W26156  43.306  42.433   1.254
60996W        W26157  10.373   5.730   1.547
60997W        W26158  19.727  33.512  14.549
60998W        W26159  20.949  19.254   0.748
60999W        W26160  18.185   1.400   3.939
61000W        W26161  11.089  26.440  11.570
61001W        W26162  39.534  13.373   0.361
61002W        W26163  11.147  31.500  11.611
61003W        W26164  15.540  27.882   2.571
61004W        W26165   6.171  22.408  11.273
61005W        W26166  10.189  27.896   2.171
61006W        W26167   9.496  24.978  13.806
61007W        W26168  42.576  15.702  11.820
61008W        W26169  42.051  23.039   3.699
61009W        W26170  24.520   5.649  11.516
61010W        W26171   5.735  21.660  10.450
61011W        W26172  18.782   5.296  14.668
61012W        W26173  20.224  25.190   4.922
61013W        W26174  28.222  11.177  12.418
61014W        W26175  10.560  37.106  13.331
61015W        W26176  20.252  13.214   4.112
61016W        W26177  25.925  42.387   1.866
61017W        W26178  21.903  25.891   1.492
61018W        W26179  14.763  18.144  13.354
61019W        W26180  13.778  32.024   4.476
61020W        W26181   1.179  38.516  14.346
61021W        W26182   7.148  25.816  12.506
61022W        W26183  41.129   2.055  12.763
61023W        W26184   1.991   5.923   1.388
61024W        W26185  17.914  41.800  14.917
61025W        W26186   4.330  38.792  10.760
61026W        W26187  14.100  25.136   4.573
61027W        W26188  30.568  41.268   0.775
61028W        W26189  36.532  42.493   2.298
61029W        W26190  12.803  42.792  13.540
61030W        W26191  27.906  22.116  13.937
61031W        W26192  12.543  20.662   2.271
61032W        W26193  22.601   1.350  12.994
61033W        W26194  24.552   4.428  13.841
61034W        W26195   9.384   5.822  14.449
61035W        W26196  18.807   7.910  12.038
61036W        W26197  17.602  34.192  13.400
61037W        W26198  44.499   0.579  12.947
61038W        W26199  21.512  11.137  14.476
61039W        W26200  42.761  10.436  12.076
61040W        W26201  27.147  29.483  12.968
61041W        W26202  41.815  33.641  13.782
61042W        W26203   8.836  21.441  14.892
61043W        W26204  35.810  41.390   1.662
61044W        W26205  31.963  18.855  13.587
61045W        W26206  11.776  26.960   0.845
61046W        W26207  28.081  34.830   9.984
61047W        W26208  27.789  17.513   2.286
61048W        W26209  30.021  27.407   0.347
61049W        W26210   0.061  14.069  12.606
61050W        W26211  17.110  33.056  12.667
61051W        W26212  18.176  37.827   4.249
61052W        W26213   2.957  36.093  12.842
61053W        W26214   0.860  33.464   5.020
61054W        W26215  16.831  16.733   0.113
61055W        W26216  27.949   9.742  12.437
61056W        W26217  35.937  14.422   4.277
61057W        W26218  13.683   8.853  12.375
61058W        W26219  29.406  41.866  12.452
61059W        W26220  17.088   2.424  11.152
61060W        W26221  26.018  41.335   5.268
61061W        W26222  44.025   4.197   1.398
61062W        W26223   5.011  18.029  11.937
61063W        W26224  23.527   9.363  12.418
61064W        W26225  19.162  37.508  14.010
61065W        W26226   1.544  15.120  11.514
61066W        W26227  42.961  31.385   0.444
61067W        W26228   2.507  12.039   5.892
61068W        W26229  29.022  41.762  14.874
61069W        W26230  42.845   5.904  12.398
61070W        W26231   0.860  21.815   4.011
61071W        W26232  37.047   4.780   4.537
61072W        W26233  28.694  17.262  12.721
61073W        W26234  41.508  17.816  13.888
61074W        W26235  26.184  10.346   3.670
61075W        W26236  20.004  33.525  11.583
61076W        W26237  43.764  39.145   0.236
61077W        W26238  34.346  13.705   4.680
61078W        W26239  29.118  40.316  11.690
61079W        W26240  12.015  17.093  13.331
61080W        W26241  32.919   9.757   3.872
61081W        W26242   7.941  13.390  11.128
61082W        W26243  40.285  26.858  11.178
61083W        W26244  21.581  27.069   3.354
61084W        W26245  27.540  34.846  11.988
61085W        W26246   4.166  32.033   0.892
61086W        W26247  20.003  41.917   2.036
61087W        W26248  23.860  24.915   2.887
61088W        W26249  35.155   0.338   0.986
61089W        W26250   9.949  31.077  11.905
61090W        W26251  11.105  37.418  11.089
61091W        W26252  29.633  10.582   1.614
61092W        W26253   6.615   8.155   1.258
61093W        W26254  42.101  37.359   0.362
61094W        W26255  32.436  21.933   3.122
61095W        W26256  37.328  36.525  14.378
61096W        W26257  29.254  13.071   0.784
61097W        W26258  32.370  13.670   3.248
61098W        W26259  41.221  27.273  11.041
61099W        W26260  25.955  13.715   0.704
61100W        W26261   2.808  37.807   3.705
61101W        W26262   3.851  23.002   4.605
61102W        W26263   7.138   6.383   3.196
61103W        W26264  38.033  37.402   1.695
61104W        W26265  31.956   4.267  14.130
61105W        W26266  22.594  28.422   0.481
61106W        W26267  34.255  39.147   3.672
61107W        W26268  13.143  15.712   1.272
61108W        W26269  44.001  27.197   2.033
61109W        W26270  15.366  25.594  13.104
61110W        W26271   8.221   7.843   0.519
61111W        W26272  19.546  22.542  13.517
61112W        W26273   6.165  37.692   2.191
61113W        W26274  20.448  30.177   4.149
61114W        W26275  20.701  39.876   0.939
61115W        W26276  32.208  27.430  13.859
61116W        W26277   0.971  26.052  12.878
61117W        W26278  17.648   3.918   2.392
61118W        W26279  34.883   5.305  13.535
61119W        W26280   3.815   8.250  12.902
61120W        W26281  14.220   5.876   0.696
61121W        W26282  30.138  27.991  13.153
61122W        W26283   1.492  30.147   4.834
61123W        W26284  42.473  14.650   3.170
61124W        W26285  38.400  16.169   2.657
61125W        W26286  26.346   8.147   1.812
61126W        W26287  22.667  32.881   2.619
61127W        W26288  35.849  35.408  11.230
61128W        W26289  44.894  36.544  12.043
61129W        W26290  21.674   7.757  12.662
61130W        W26291   0.836   0.700   0.475
61131W        W26292  42.932  23.942   3.944
61132W        W26293  29.783  19.032  11.123
61133W        W26294  17.552  19.329  11.818
61134W        W26295  26.650  21.671  11.249
61135W        W26296   0.376  11.172  11.859
61136W        W26297  38.428   9.266   2.240
61137W        W26298  21.292  15.801   0.995
61138W        W26299  36.274  28.538  10.587
61139W        W26300  34.400  10.715  13.997
61140W        W26301  23.990  23.316  13.142
61141W        W26302  39.409  32.436   0.929
61142W        W26303  21.931  19.420  11.504
61143W        W26304  37.586  22.152   3.456
61144W        W26305  19.569   8.408  12.068
61145W        W26306  10.397  34.995   4.762
61146W        W26307   4.448  29.501   2.846
61147W        W26308   2.231  23.006   0.844
61148W        W26309  30.424  14.350  12.443
61149W        W26310  34.546  16.839   0.418
61150W        W26311  22.780   4.792   1.023
61151W        W26312   1.440  14.221  12.270
61152W        W26313  13.496   5.002  13.013
61153W        W26314  32.692  16.456  12.486
61154W        W26315  36.666  10.218   4.996
61155W        W26316  15.379  29.107  12.574
61156W        W26317   3.983  29.417  14.551
61157W        W26318  36.650   1.770  14.535
61158W        W26319  22.393  24.174   2.564
61159W        W26320  12.635  12.274  14.909
61160W        W26321  12.754   0.868   1.821
61161W        W26322  28.468  35.484   1.483
61162W        W26323   6.739  19.205   1.317
61163W        W26324  34.823  25.847   1.822
61164W        W26325  22.922  31.453  11.982
61165W        W26326  23.636   5.317   3.923
61166W        W26327  44.156  25.423   1.995
61167W        W26328  10.679  32.737   4.418
61168W        W26329   8.986  37.471   3.646
61169W        W26330  19.765   5.294   4.005
61170W        W26331  17.064  39.038   5.065
61171W        W26332  33.826   8.758  12.266
61172W        W26333   9.856  44.404  12.370
61173W        W26334  11.661  15.825   2.768
61174W        W26335  27.010  17.559  12.052
61175W        W26336  14.714  39.499   1.028
61176W        W26337   9.628  25.409   2.411
61177W        W26338   2.530  22.891   0.414
61178W        W26339  35.097   8.984   2.492
61179W        W26340  30.157   5.154  11.160
61180W        W26341  27.452  27.655   1.178
61181W        W26342  39.817  19.056  11.523
61182W        W26343  19.609   4.936  10.713
61183W        W26344  19.578  30.432  10.337
61184W        W26345  12.887   2.974   1.408
61185W        W26346   9.428  40.833   0.023
61186W        W26347  21.289  39.309  11.485
61187W        W26348  20.791  32.326  12.544
61188W        W26349  15.801  36.419   3.005
61189W        W26350  27.407  29.744   4.246
61190W        W26351  43.743  24.572  14.460
61191W        W26352  43.766  11.475   4.182
61192W        W26353  22.212  11.640   3.860
61193W        W26354  11.054  31.272  11.089
61194W        W26355  21.032  25.546   2.376
61195W        W26356  37.477  43.802  12.841
61196W        W26357  37.002  11.570  12.059
61197W        W26358   7.488  36.164  11.165
61198W        W26359   8.445   9.408   4.695
61199W        W26360   5.971  26.674   3.986
61200W        W26361  13.326   9.679   3.238
61201W        W26362  18.708  29.928   4.544
61202W        W26363   5.708   4.638   3.636
61203W        W26364  38.834  43.096  11.541
61204W        W26365  20.959  44.492   0.240
61205W        W26366  43.543  28.692  13.970
61206W        W26367  16.635  30.175  11.843
61207W        W26368   8.253   5.544   1.757
61208W        W26369  21.638   0.809   4.240
61209W        W26370  34.723  13.699   2.793
61210W        W26371  21.619  15.466   4.185
61211W        W26372  15.311   9.648  12.187
61212W        W26373  35.614  38.461   2.649
61213W        W26374   2.808  29.926   3.614
61214W        W26375  11.057  17.168  13.578
61215W        W26376  31.065  20.482   4.583
61216W        W26377  28.426  22.154   1.921
61217W        W26378  21.099  27.814  12.059
61218W        W26379   2.163  24.984   2.651
61219W        W26380   7.165  20.774  12.970
61220W        W26381  25.554  26.001  11.634
61221W        W26382  26.222   6.546  11.347
61222W        W26383  40.802  35.910  11.056
61223W        W26384   4.805   2.217   4.587
61224W        W26385  19.757  10.341   2.112
61225W        W26386  28.916  27.595  13.541
61226W        W26387  30.535  32.147   3.625
61227W        W26388  36.050  44.583  11.605
61228W        W26389  13.215   3.799   2.626
61229W        W26390  14.882  20.668   0.886
61230W        W26391  13.627  29.876  10.792
61231W        W26392  40.826  12.268  11.982
61232W        W26393  21.717  21.509  12.193
61233W        W26394  11.923  31.102   4.512
61234W        W26395  11.319  23.664  14.288
61235W        W26396  31.782   0.872  10.892
61236W        W26397  35.505   0.277   1.423
61237W        W26398  11.818   9.278   3.169
61238W        W26399  16.318   6.453  14.300
61239W        W26400   0.848  15.818  13.420
61240W        W26401  29.084   2.785   2.126
61241W        W26402  39.536  42.758   3.114
61242W        W26403   8.322  30.941   3.576
61243W        W26404  22.718   2.312   0.949
61244W        W26405  16.782   9.932   3.604
61245W        W26406  32.435  17.081   0.389
61246W        W26407  38.308  21.432  12.570
61247W        W26408  13.629   1.931   0.425
61248W        W26409  30.402  42.177   4.131
61249W        W26410  39.292  38.568   0.983
61250W        W26411  25.349  11.179  12.998
61251W        W26412   4.140   5.289  10.722
61252W        W26413  41.947   4.197  13.556
61253W        W26414  38.763   0.274   0.904
61254W        W26415  33.071  26.834  13.048
61255W        W26416  44.228  42.404   2.943
61256W        W26417  28.177   4.144   4.161
61257W        W26418  14.401  39.244   0.178
61258W        W26419  24.945  43.204  12.581
61259W        W26420  25.005  20.295  14.964
61260W        W26421  35.407  26.159   2.265
61261W        W26422   7.909  16.071   1.367
61262W        W26423  30.945  39.522  10.163
61263W        W26424  26.182  22.003   0.282
61264W        W26425   9.727   9.492   0.893
61265W        W26426  12.660  19.387  13.313
61266W        W26427  25.102  24.183  13.582
61267W        W26428  13.379  19.212   4.151
61268W        W26429  19.770  40.100   9.961
61269W        W26430   6.955  35.501   0.467
61270W        W26431  38.345  35.921  11.889
61271W        W26432   0.499  10.205  11.551
61272W        W26433  29.609  36.502  12.478
61273W        W26434  32.880  27.653  13.467
61274W        W26435  23.696  28.160   1.273
61275W        W26436   8.789  20.829   2.479
61276W        W26437  18.225  43.054  12.431
61277W        W26438  17.135  39.086  13.966
61278W        W26439  18.979   3.320  13.506
61279W        W26440   3.404  25.451   0.246
61280W        W26441   4.294  11.842   2.230
61281W        W26442  25.719  13.344   0.357
61282W        W26443  12.140  40.149  14.159
61283W        W26444  19.251   0.425  12.846
61284W        W26445  22.566  30.472   1.257
61285W        W26446   8.465  26.864   5.450
61286W        W26447   8.329   6.071   1.687
61287W        W26448  14.358  28.020  10.680
61288W        W26449  44.292  28.694  12.466
61289W        W26450  36.660  29.445  12.957
61290W        W26451  41.184  15.695  14.222
61291W        W26452  18.954  16.255   1.828
61292W        W26453  19.082  30.051  12.890
61293W        W26454  16.919   7.942  13.691
61294W        W26455   8.178  39.397   3.138
61295W        W26456  23.780   1.618  11.650
61296W        W26457   7.647  30.006   4.248
61297W        W26458  44.092  27.466  12.634
61298W        W26459  29.570  16.049   3.926
61299W        W26460  29.497   2.533  10.823
61300W        W26461   2.426  37.600  14.970
61301W        W26462   8.774  19.648  12.102
61302W        W26463  22.013  22.486  13.043
61303W        W26464  38.946  10.725   3.530
61304W        W26465  36.803  37.114  12.609
61305W        W26466  44.413  21.622  11.105
61306W        W26467  12.606  30.577   0.946
61307W        W26468  41.935   8.811   0.903
61308W        W26469  26.574  39.077   3.084
61309W        W26470  21.098  35.201  14.963
61310W        W26471  32.858   9.270   1.299
61311W        W26472  38.482  24.511   2.520
61312W        W26473  34.337  19.169  12.447
61313W        W26474   5.354  13.730  11.156
61314W        W26475  35.350  18.714   1.018
61315W        W26476   3.881  12.516  12.116
61316W        W26477  12.351  26.942   2.312
61317W        W26478  29.482  21.092  13.039
61318W        W26479  42.399  43.167   0.632
61319W        W26480  25.699   5.218  13.567
61320W        W26481  26.097   3.686   1.265
61321W        W26482   6.384  12.821   3.263
61322W        W26483  33.448   3.162  10.903
61323W        W26484   6.303  31.571  10.272
61324W        W26485  35.784  15.634  10.530
61325W        W26486  34.969  35.349  12.119
61326W        W26487  19.733  13.311  14.442
61327W        W26488  36.927  16.230   2.382
61328W        W26489  32.773  43.418  14.878
61329W        W26490  20.579   0.721  13.870
61330W        W26491  19.917  34.745  14.554
61331W        W26492  43.049  35.300  14.821
61332W        W26493  20.796   8.085   4.110
61333W        W26494  30.217  39.634  12.431
61334W        W26495  24.529  29.600  10.763
61335W        W26496  44.781   5.834   4.853
61336W        W26497  19.312  44.765  12.087
61337W        W26498  16.267  35.590  13.499
61338W        W26499  20.208  20.692   2.423
61339W        W26500  19.656  18.685   5.333
61340W        W26501  22.708  33.236   4.704
61341W        W26502  10.774  41.354  13.868
61342W        W26503  30.151   0.406   0.236
61343W        W26504  32.190  21.154  12.504
61344W        W26505  38.727  28.111  14.709
61345W        W26506   3.250  12.540  12.585
61346W        W26507  12.525  40.305  13.825
61347W        W26508  12.288  16.374   4.071
61348W        W26509  42.051  17.306  12.512
61349W        W26510   9.433   5.251   4.021
61350W        W26511  41.267  41.299   2.707
61351W        W26512  13.862  22.734  11.971
61352W        W26513  35.534  32.981   2.240
61353W        W26514   2.250  40.593   1.246
61354W        W26515  40.583   0.456  13.058
61355W        W26516  10.360  29.055  14.348
61356W        W26517  33.787   8.335   2.839
61357W        W26518  23.575  44.521   4.151
61358W        W26519  15.773  23.817  10.561
61359W        W26520   7.672  15.635  11.173
61360W        W26521  17.818  17.824   2.914
61361W        W26522  43.823  22.891  10.505
61362W        W26523  20.328  20.837  13.414
61363W        W26524   6.325  23.003   0.165
61364W        W26525  32.477  17.062  10.210
61365W        W26526  27.065   6.312  12.238
61366W        W26527  25.518   3.002   1.128
61367W        W26528  18.123   5.844   2.319
61368W        W26529  31.455   0.970   0.865
61369W        W26530  10.145   4.252  12.377
61370W        W26531  13.085  24.610  11.279
61371W        W26532  10.141  37.068   4.980
61372W        W26533   1.788  17.270  13.827
61373W        W26534   4.672  18.728   3.668
61374W        W26535  37.435   6.252  14.469
61375W        W26536   7.982   9.359   3.943
61376W        W26537   1.791  40.285   1.296
61377W        W26538   2.051  37.785   4.725
61378W        W26539  25.080  19.757   0.093
61379W        W26540   3.009  43.982  13.334
61380W        W26541  16.379   7.734   4.039
61381W        W26542  36.910  32.399  14.308
61382W        W26543  37.891  13.074  12.682
61383W        W26544  11.735  17.100   4.028
61384W        W26545   1.248  14.377   3.182
61385W        W26546  11.759  15.551  11.674
61386W        W26547  30.904  24.375   0.720
61387W        W26548  24.643  31.554   2.309
61388W        W26549  43.352  24.382  10.809
61389W        W26550  42.534  27.105  14.900
61390W        W26551  41.876   0.292  10.708
61391W        W26552  17.757  26.028   4.661
61392W        W26553  26.068   8.407  12.868
61393W        W26554  25.956  24.980   1.269
61394W        W26555  40.209  18.182   1.266
61395W        W26556   0.724  30.050  10.904
61396W        W26557  15.760  35.975  10.434
61397W        W26558  34.078   1.732  12.596
61398W        W26559  17.086  20.047   2.089
61399W        W26560  29.224  25.815   1.496
61400W        W26561  30.107  44.804  13.056
61401W        W26562  22.883  23.220  13.985
61402W        W26563   0.845  13.876   1.926
61403W        W26564  42.878  18.001  13.536
61404W        W26565  17.927   4.346  14.644
61405W        W26566  41.930   1.831  11.639
61406W        W26567  14.558  38.990  10.781
61407W        W26568  12.665  42.946   1.907
61408W        W26569   3.477  18.317   2.718
61409W        W26570   1.614  10.268   1.658
61410W        W26571  17.307  16.180   2.114
61411W        W26572  32.973  16.480  12.062
61412W        W26573  26.962   1.009  10.390
61413W        W26574  31.092  17.409  12.434
61414W        W26575   1.181  29.956  12.602
61415W        W26576  19.379   1.588  12.178
61416W        W26577  24.652   4.691  14.331
61417W        W26578   3.780  27.560  11.579
61418W        W26579  18.553  44.987   2.784
61419W        W26580  28.629  37.224   3.174
61420W        W26581  41.839   6.493   4.592
61421W        W26582  10.345  10.211   0.622
61422W        W26583  11.312  44.280  13.475
61423W        W26584  44.567  33.292  11.175
61424W        W26585   1.539  42.406   2.657
61425W        W26586  11.196  42.840  14.680
61426W        W26587  16.263  18.042  14.825
61427W        W26588  25.238  20.196   0.431
61428W        W26589  29.720  10.927  11.814
61429W        W26590   5.354  38.363   0.197
61430W        W26591  30.038  28.734  12.199
61431W        W26592   0.821  20.628   3.075
61432W        W26593  33.907   3.686   3.832
61433W        W26594  15.268  30.379  11.585
61434W        W26595   4.654  22.332  14.192
61435W        W26596  29.964  14.556  12.542
61436W        W26597  41.608  31.209   4.911
61437W        W26598   0.559  24.525  13.524
61438W        W26599  10.421  16.729  10.015
61439W        W26600  15.819  19.500  10.707
61440W        W26601   0.425  43.681  11.643
61441W        W26602  28.887  30.932  10.484
61442W        W26603  14.102  14.496  11.557
61443W        W26604  40.117  15.655   0.056
61444W        W26605   7.184  33.146   1.768
61445W        W26606  24.827  20.119   3.085
61446W        W26607  11.865  13.004   0.926
61447W        W26608  23.106  15.349   4.030
61448W        W26609   4.260  37.942   2.935
61449W        W26610  24.318  40.304  12.969
61450W        W26611  31.053   0.698   3.210
61451W        W26612  28.592  19.191   1.459
61452W        W26613  36.318  27.409  13.150
61453W        W26614   8.179  10.906  14.007
61454W        W26615  28.297  39.920   3.128
61455W        W26616  36.151   5.602  10.527
61456W        W26617  42.083  15.940  14.980
61457W        W26618   2.876  33.977   3.194
61458W        W26619   7.874  39.094  11.339
61459W        W26620  30.654  16.216   1.121
61460W        W26621  13.243  27.124   4.632
61461W        W26622   8.629  42.004   0.666
61462W        W26623  20.029  27.446  11.572
61463W        W26624   3.339  34.843  11.661
61464W        W26625  17.562  40.216   3.169
61465W        W26626  22.152  22.284   2.240
61466W        W26627   9.156  42.580  13.964
61467W        W26628  31.333  22.458  13.520
61468W        W26629  31.553  44.088  10.690
61469W        W26630  25.929  11.643   4.501
61470W        W26631  38.837  29.511   4.409
61471W        W26632  18.757  25.212   4.124
61472W        W26633  32.098  35.031   3.813
61473W        W26634  27.767  23.401   5.400
61474W        W26635  21.162  20.185   3.237
61475W        W26636  20.575   9.016  11.538
61476W        W26637  37.026   6.380   3.042
61477W        W26638  12.727  32.216  13.021
61478W        W26639  17.739   6.686  12.193
61479W        W26640  40.375  11.566  10.529
61480W        W26641  19.064   8.205  11.203
61481W        W26642  10.837  28.392  11.166
61482W        W26643  41.661  18.599  13.555
61483W        W26644  30.479  19.783  10.232
61484W        W26645  20.300  36.375   4.327
61485W        W26646  34.770  21.822   1.537
61486W        W26647  22.004   1.168  14.094
61487W        W26648  23.041  31.915  14.734
61488W        W26649   3.493  17.064   3.140
61489W        W26650  25.738  44.431  10.474
61490W        W26651  22.407  29.691  11.926
61491W        W26652  41.130   1.559  13.150
61492W        W26653  34.564  13.614   4.219
61493W        W26654  36.073  44.412   0.327
61494W        W26655  28.866  17.515   1.032
61495W        W26656  41.346  43.304  10.842
61496W        W26657  23.909  37.803  12.900
61497W        W26658  35.963   4.758  10.917
61498W        W26659  44.246   4.705  10.682
61499W        W26660  44.993  40.480   4.507
61500W        W26661  33.444  22.430   1.129
61501W        W26662  25.717  22.633   3.754
61502W        W26663  42.312  29.204  13.465
61503W        W26664  25.694   9.667   3.979
61504W        W26665  23.225   0.919  11.333
61505W        W26666  25.316  29.648  13.086
61506W        W26667  32.560  25.698  10.898
61507W        W26668  13.414   2.910  13.884
61508W        W26669  37.414   6.576  14.075
61509W        W26670  15.605  25.011  11.992
61510W        W26671  38.404  42.466   2.739
61511W        W26672  19.805  25.315   4.289
61512W        W26673   0.124  30.007   4.940
61513W        W26674  28.006  38.540   0.811
61514W        W26675   5.281  17.685  11.650
61515W        W26676  31.302  17.128   1.367
61516W        W26677   6.729  36.099  11.795
61517W        W26678  33.894  18.848  11.240
61518W        W26679   6.704  33.889   2.749
61519W        W26680  25.959  30.257  12.648
61520W        W26681  31.206   3.883   4.404
61521W        W26682   8.980  29.171   4.657
61522W        W26683  35.113  10.058   3.918
61523W        W26684  21.442  10.236   4.608
61524W        W26685  32.903   8.420   2.877
61525W        W26686  19.625   9.722   3.402
61526W        W26687  30.488  37.841  14.256
61527W        W26688  37.321  40.567   4.644
61528W        W26689   6.778  23.688   0.352
61529W        W26690  20.550  33.236   1.186
61530W        W26691  19.527  36.117  11.169
61531W        W26692   7.569  20.014  14.608
61532W        W26693  28.509  41.457   3.127
61533W        W26694   3.020  13.594  14.977
61534W        W26695  32.649  41.552   1.730
61535W        W26696   3.147  42.917   4.533
61536W        W26697   2.191  35.566   1.203
61537W        W26698  23.927  29.984   1.417
61538W        W26699  12.869  32.733   2.414
61539W        W26700   3.295  29.841   2.822
61540W        W26701  41.957  37.409  13.630
61541W        W26702   8.530  37.903  11.186
61542W        W26703  34.307  10.216  13.891
61543W        W26704  40.547  42.781  12.911
61544W        W26705   2.747  41.484   4.676
61545W        W26706  10.406  26.181  12.576
61546W        W26707  30.561  22.653   1.317
61547W        W26708  17.116  40.767   3.574
61548W        W26709  38.503   5.769  11.730
61549W        W26710   8.319  42.708   0.708
61550W        W26711  13.840  34.482  11.694
61551W        W26712  23.344  13.168   4.472
61552W        W26713  32.184  43.746  12.037
61553W        W26714   6.118  16.171   2.310
61554W        W26715  39.906  27.659  14.605
61555W        W26716  17.318  24.210   1.189
61556W        W26717  15.639   9.411   3.751
61557W        W26718  18.253  12.636   3.179
61558W        W26719  16.859  23.487   4.191
61559W        W26720  22.082  26.921   2.208
61560W        W26721   3.479  30.856  12.049
61561W        W26722  36.146  20.045   0.966
61562W        W26723  29.881   8.903  10.545
61563W        W26724  36.382  25.500  13.078
61564W        W26725  42.999  41.474  12.357
61565W        W26726  40.352  44.535   1.719
61566W        W26727   8.676  11.139   3.658
61567W        W26728  15.362   6.604  13.924
61568W        W26729  34.536  28.700   1.726
61569W        W26730  26.997  12.407  12.027
61570W        W26731  10.564   8.920  14.938
61571W        W26732   8.458  27.960  13.185
61572W        W26733   3.009   8.086   3.568
61573W        W26734  44.921   2.159   0.071
61574W        W26735  33.621  22.569  11.036
61575W        W26736  33.200  35.062   1.456
61576W        W26737  19.179  29.372  14.594
61577W        W26738  11.152  40.779   3.625
61578W        W26739  11.856  18.222  14.907
61579W        W26740  31.569  38.617  14.603
61580W        W26741   1.379  20.514   0.771
61581W        W26742  12.063   9.205   4.485
61582W        W26743  19.109  11.268   3.580
61583W        W26744   6.437  37.863   1.776
61584W        W26745  32.524  32.921   1.229
61585W        W26746  10.096  21.885  11.218
61586W        W26747  10.183  35.446  11.500
61587W        W26748  25.105  12.888   2.382
61588W        W26749  19.536  36.572   4.108
61589W        W26750  35.921  13.828   2.454
61590W        W26751  13.384  25.714  14.404
61591W        W26752  26.475  29.894   2.240
61592W        W26753  36.347  17.293   2.331
61593W        W26754  13.168  24.761  11.788
61594W        W26755   3.984  42.481  10.717
61595W        W26756  38.874  16.842   3.056
61596W        W26757  36.313  21.566   1.266
61597W        W26758  15.087   3.683   4.344
61598W        W26759   7.672  19.663   0.313
61599W        W26760  18.617  24.131  14.328
61600W        W26761   8.901  41.282   2.910
61601W        W26762  36.898  25.728   4.634
61602W        W26763  32.946  37.530   2.817
61603W        W26764  38.288   8.847   3.897
61604W        W26765  30.477  14.138   3.232
61605W        W26766  28.832  33.066   3.419
61606W        W26767  15.274  44.612  12.075
61607W        W26768  21.739  41.914   2.271
61608W        W26769  13.528  21.580   2.453
61609W        W26770  10.429  26.984   1.334
61610W        W26771  32.652   7.341  13.302
61611W        W26772   9.774  34.013  13.612
61612W        W26773  19.828   8.368   4.172
61613W        W26774  22.927  24.764  10.284
61614W        W26775  12.228  43.072  14.347
61615W        W26776  19.030   7.902  12.490
61616W        W26777  24.028   0.009   4.157
61617W        W26778  28.067  34.387  14.927
61618W        W26779  20.133  11.353  10.587
61619W        W26780  14.279  15.119   2.933
61620W        W26781  26.950  29.354  14.818
61621W        W26782  29.851  42.874  10.111
61622W        W26783  25.662  20.030  10.742
61623W        W26784  32.515  40.429   2.950
61624W        W26785  33.373  13.306  14.763
61625W        W26786  31.336  37.771  13.934
61626W        W26787   1.566  17.118  12.823
61627W        W26788  11.834  43.981  11.663
61628W        W26789  34.031   3.002   0.348
61629W        W26790  24.575   9.128   9.967
61630W        W26791   0.915  11.104  11.574
61631W        W26792  43.477  29.875   1.507
61632W        W26793  43.966  27.637   1.736
61633W        W26794  31.098  37.130  13.990
61634W        W26795   4.347  42.632   3.548
61635W        W26796  44.029  29.158   4.051
61636W        W26797  41.408   4.225   4.108
61637W        W26798  13.365  21.787  12.984
61638W        W26799   1.947  26.114  10.387
61639W        W26800  31.367  29.147  14.882
61640W        W26801   8.295  25.399  10.262
61641W        W26802  40.789  37.856   3.608
61642W        W26803  42.820  23.215   0.390
61643W        W26804  10.132  40.313   1.703
61644W        W26805  39.956   4.706   2.093
61645W        W26806  20.135  36.069  12.581
61646W        W26807   4.191   1.038   3.588
61647W        W26808  33.188  26.189   5.012
61648W        W26809   3.408   2.711  13.146
61649W        W26810   9.722   4.243  12.675
61650W        W26811  21.125  21.296  11.122
61651W        W26812  32.880  35.992  11.129
61652W        W26813  37.347  26.471   1.412
61653W        W26814  43.909   9.789  11.440
61654W        W26815  11.424  26.084   1.233
61655W        W26816  38.514  38.134  13.877
61656W        W26817  43.967   8.629  13.582
61657W        W26818  10.815  26.411   4.534
61658W        W26819  10.303  41.011  12.230
61659W        W26820   0.770  17.659   3.686
61660W        W26821  42.203  19.450  13.321
61661W        W26822  14.685  14.339   2.349
61662W        W26823   1.551  13.192  13.025
61663W        W26824  36.864   6.699  14.784
61664W        W26825  27.921  42.180  11.665
61665W        W26826  10.937  28.677  11.565
61666W        W26827  27.462  39.210   2.750
61667W        W26828  34.929  16.093  13.981
61668W        W26829  15.631  11.236   1.747
61669W        W26830  14.636   9.787   4.615
61670W        W26831  17.685  11.434   2.791
61671W        W26832  16.566  38.404  13.676
61672W        W26833  38.621   5.838   1.704
61673W        W26834  29.925  23.686   0.755
61674W        W26835  30.479  32.116  11.517
61675W        W26836  13.598   6.394  13.550
61676W        W26837  13.741  26.210   4.088
61677W        W26838   7.349  41.040  12.957
61678W        W26839  19.104  16.744   1.930
61679W        W26840  27.173  16.673   3.141
61680W        W26841  29.687  15.318  12.106
61681W        W26842  43.418   3.912  12.904
61682W        W26843   3.799  10.177  13.117
61683W        W26844  23.277  30.530  12.897
61684W        W26845  14.646  38.760   2.646
61685W        W26846   6.915  30.836  12.027
61686W        W26847  29.342  34.660  11.987
61687W        W26848  44.433  21.473  14.652
61688W        W26849  41.267   6.739  13.488
61689W        W26850  10.737  13.762   3.082
61690W        W26851  41.837  40.955   3.209
61691W        W26852  13.869  16.328   1.653
61692W        W26853   9.245  18.071  10.573
61693W        W26854  35.125  23.148   4.731
61694W        W26855  21.883  18.281   0.312
61695W        W26856  19.653  12.469  13.994
61696W        W26857  32.558  17.665   2.122
61697W        W26858  44.384  31.223  12.397
61698W        W26859  37.038  15.075  12.032
61699W        W26860  44.249  43.914   2.862
61700W        W26861  37.402  13.686   4.300
61701W        W26862  40.934  12.723   0.013
61702W        W26863  41.392   2.711   0.028
61703W        W26864  21.577  18.366   3.154
61704W        W26865  12.533  38.064  12.147
61705W        W26866  10.123  18.072   3.658
61706W        W26867   0.805   2.246   1.306
61707W        W26868   0.451  40.240   3.779
61708W        W26869  26.175  44.551   2.165
61709W        W26870  23.495  35.479  11.041
61710W        W26871   1.745  13.374   2.219
61711W        W26872  38.901  41.469   0.935
61712W        W26873  14.271   0.586   2.157
61713W        W26874  40.799  12.523   2.595
61714W        W26875  10.388  39.905   0.924
61715W        W26876   0.337  43.568   2.261
61716W        W26877  10.167  21.363  10.323
61717W        W26878  37.624   0.727   4.127
61718W        W26879   5.898   8.744  10.278
61719W        W26880   0.455  44.825  13.931
61720W        W26881  35.429  35.398  12.975
61721W        W26882  10.611  15.776   2.624
61722W        W26883  20.074  30.924   0.255
61723W        W26884  44.636  10.380   0.358
61724W        W26885  30.048  36.407  12.744
61725W        W26886  30.349  37.901  11.109
61726W        W26887  15.308  19.728  11.862
61727W        W26888  42.117  20.204   1.831
61728W        W26889  41.348   6.001   3.858
61729W        W26890  35.581  24.099  12.959
61730W        W26891   5.845  15.336  10.637
61731W        W26892  17.752  42.579  11.168
61732W        W26893  39.139  32.567   2.746
61733W        W26894  32.012  43.594  10.952
61734W        W26895  44.849  28.595   0.680
61735W        W26896   4.868   1.236   1.771
61736W        W26897  22.572  41.928  11.112
61737W        W26898  15.070   5.083   2.126
61738W        W26899  21.258  16.787  14.330
61739W        W26900   3.690  23.146   0.026
61740W        W26901   3.807  28.979  12.884
61741W        W26902   0.236  14.255   0.011
61742W        W26903   1.729  16.321   3.134
61743W        W26904  17.217  41.154   4.519
61744W        W26905   7.792  18.542  10.701
61745W        W26906   3.286  43.907  11.058
61746W        W26907  11.256  37.342   3.199
61747W        W26908  11.642   5.421   1.821
61748W        W26909  29.054  13.137  10.691
61749W        W26910  11.379   9.416  14.352
61750W        W26911   4.777  11.885   4.590
61751W        W26912  33.898  24.157  14.355
61752W        W26913   0.224   3.131   4.222
61753W        W26914   1.288  14.396  10.836
61754W        W26915  16.656  36.651  10.825
61755W        W26916  19.111  44.331  12.329
61756W        W26917  37.446  41.780   4.123
61757W        W26918   6.358  16.170  12.477
61758W        W26919  38.726  32.987   4.944
61759W        W26920  24.900   1.859   4.239
61760W        W26921  18.129  43.461  13.189
61761W        W26922  32.639  37.454   1.163
61762W        W26923  44.211   7.270  12.060
61763W        W26924  44.078  13.754   1.063
61764W        W26925  42.477  28.898  10.577
61765W        W26926   6.863  17.235  12.890
61766W        W26927  23.076  33.123  10.751
61767W        W26928   1.439  40.261  13.820
61768W        W26929   3.731  15.616  11.024
61769W        W26930  35.297  38.451  11.744
61770W        W26931  31.438  24.063  13.000
61771W        W26932  20.873  38.347   2.356
61772W        W26933  12.052   0.192   4.554
61773W        W26934   5.926  34.106  13.574
61774W        W26935   5.306  40.921   0.061
61775W        W26936  29.171  28.566   0.689
61776W        W26937  15.562   6.266  10.016
61777W        W26938   6.572  35.160   0.480
61778W        W26939   8.959  42.804   2.889
61779W        W26940  28.569   2.579   0.230
61780W        W26941  34.534  27.939  12.885
61781W        W26942  15.334  18.171  11.445
61782W        W26943  32.154  20.371  14.169
61783W        W26944   0.408  18.295  13.952
61784W        W26945  24.212  24.949   5.054
61785W        W26946  40.905  13.660   4.548
61786W        W26947  33.657  18.581   0.231
61787W        W26948  11.648   6.117   0.413
61788W        W26949  42.505   2.742  11.659
61789W        W26950   9.318   9.287   1.896
61790W        W26951  34.396  11.704   4.824
61791W        W26952  32.134  30.527   4.689
61792W        W26953  13.728   3.799  14.946
61793W        W26954  15.771  12.953   2.766
61794W        W26955   6.227  22.243   0.879
61795W        W26956  28.632  11.325  10.359
61796W        W26957  23.678  42.359   2.713
61797W        W26958   7.540   5.182   0.550
61798W        W26959  27.545  42.271   4.516
61799W        W26960  42.563   2.496  13.845
61800W        W26961  34.047  28.971   1.827
61801W        W26962  41.116  20.013  12.033
61802W        W26963  39.954  29.003   0.018
61803W        W26964  27.472  26.278   4.159
61804W        W26965   3.741  16.272  12.672
61805W        W26966   3.748   2.292   1.150
61806W        W26967  39.092   7.119   4.370
61807W        W26968  44.466  12.578   4.159
61808W        W26969  10.960  33.362  14.888
61809W        W26970   7.816  33.448  10.423
61810W        W26971  30.661  35.563   4.111
61811W        W26972  34.450  35.004   2.868
61812W        W26973  41.990  40.233  14.823
61813W        W26974  42.882  42.981   4.619
61814W        W26975  24.480  23.072  13.413
61815W        W26976  25.047  15.390  13.463
61816W        W26977   2.371  21.712  14.060
61817W        W26978   4.137  22.129   2.381
61818W        W26979  23.593  44.310   2.342
61819W        W26980  20.919  34.527   2.717
61820W        W26981  10.164  29.567   4.638
61821W        W26982  18.797  26.993   0.754
61822W        W26983  10.598   1.318   0.448
61823W        W26984  20.543  34.690  12.880
61824W        W26985   2.019  27.631  13.596
61825W        W26986  42.801  14.562   0.063
61826W        W26987   3.180   6.837  14.736
61827W        W26988  15.009  36.723   0.825
61828W        W26989   1.849  12.921  13.869
61829W        W26990  39.291  23.980   3.905
61830W        W26991  43.986  29.899  13.843
61831W        W26992  40.299  18.209   3.529
61832W        W26993  30.653  14.609  14.297
61833W        W26994  19.836  42.706   2.620
61834W        W26995   2.142  34.194   0.013
61835W        W26996   3.737  18.610   1.803
61836W        W26997  14.277  13.487  11.452
61837W        W26998  12.857  39.046   2.881
61838W        W26999  13.809   7.763  13.425
61839W        W27000  40.479   4.739   9.918
61840W        W27001   5.156  23.065  13.979
61841W        W27002  30.224  17.455  12.253
61842W        W27003   0.173   7.514   4.569
61843W        W27004  31.917  19.441   0.279
61844W        W27005  17.588  17.084   0.414
61845W        W27006  42.998  25.561   0.551
61846W        W27007   5.791  23.321   1.844
61847W        W27008  38.123  11.393  14.803
61848W        W27009  21.748  15.762  14.019
61849W        W27010  13.846  44.080   4.496
61850W        W27011   2.758  26.845  12.549
61851W        W27012  43.940  36.955   2.606
61852W        W27013   5.515   8.821   0.892
61853W        W27014  24.030   7.052  14.337
61854W        W27015  40.437  38.325  12.015
61855W        W27016  22.613  17.120   2.922
61856W        W27017  36.919   5.969   1.293
61857W        W27018  25.651  20.644  13.347
61858W        W27019  14.301  17.365  11.262
61859W        W27020  11.145  22.263   1.860
61860W        W27021  11.251  12.161  13.851
61861W        W27022   5.645  21.544   3.252
61862W        W27023  23.631  41.469   1.457
61863W        W27024  16.298  21.046   2.241
61864W        W27025  28.529  33.205   3.033
61865W        W27026  11.380  27.483  11.421
61866W        W27027  36.391  35.064   2.974
61867W        W27028  21.994  21.522   0.351
61868W        W27029   3.906  28.498  13.977
61869W        W27030  15.477  12.938  14.014
61870W        W27031  28.612   6.342   3.895
61871W        W27032  38.534   3.659  12.912
61872W        W27033  16.785  15.651  13.851
61873W        W27034  18.761   7.315  10.444
61874W        W27035   3.085   7.970   1.270
61875W        W27036  41.433  40.234   4.506
61876W        W27037  34.909  17.051  14.803
61877W        W27038   4.351   5.857   0.962
61878W        W27039  33.081  43.021   5.159
61879W        W27040  43.056  32.135   4.673
61880W        W27041  28.016   9.143  13.984
61881W        W27042   5.164   3.520  13.441
61882W        W27043   1.328   8.965  12.383
61883W        W27044  16.220   8.288   1.311
61884W        W27045  30.627  31.022   2.676
61885W        W27046  30.093  26.642  14.920
61886W        W27047  36.988  40.080   3.210
61887W        W27048  10.423   3.831  11.661
61888W        W27049  37.348  19.078   3.737
61889W        W27050  37.255   0.466   2.750
61890W        W27051  16.584  16.189   4.317
61891W        W27052  43.514  31.357  13.090
61892W        W27053  31.907   3.957  11.024
61893W        W27054  19.995  19.877   4.097
61894W        W27055  22.168  42.767  12.045
61895W        W27056  34.069  24.698   3.639
61896W        W27057  33.672  11.838   2.761
61897W        W27058   8.004  30.475  13.274
61898W        W27059  40.782   3.134   1.692
61899W        W27060   1.215   4.823   4.784
61900W        W27061  32.511   7.423  14.369
61901W        W27062  32.190  35.831  13.219
61902W        W27063  31.040  24.734  13.543
61903W        W27064  34.288   8.461  11.085
61904W        W27065   3.915  13.533   1.880
61905W        W27066   9.650  44.525  14.817
61906W        W27067   3.876  25.093  13.431
61907W        W27068  13.363  40.163   4.999
61908W        W27069  38.514  25.011   3.737
61909W        W27070  19.251  17.089  12.080
61910W        W27071  28.073  43.824  10.588
61911W        W27072  26.279  40.463   5.277
61912W        W27073  27.422  34.119  13.452
61913W        W27074  28.699   0.417  14.074
61914W        W27075   6.959  27.091   3.363
61915W        W27076  10.505  25.143   2.595
61916W        W27077  33.329  26.760  13.520
61917W        W27078   8.879  33.901   4.461
61918W        W27079   4.939  44.314  12.014
61919W        W27080  17.180  44.157   0.898
61920W        W27081  24.967   1.978  14.802
61921W        W27082  41.561  35.497   3.295
61922W        W27083  26.985  33.517  11.843
61923W        W27084   6.786  28.444   4.648
61924W        W27085   3.265  17.531  12.517
61925W        W27086  13.680  19.999  12.128
61926W        W27087  40.605  18.099  13.038
61927W        W27088  19.362  32.951   0.907
61928W        W27089  42.807   6.313  14.354
61929W        W27090   8.225  28.713  11.639
61930W        W27091   4.630  38.893  14.223
61931W        W27092  32.858  22.218  11.542
61932W        W27093  32.519  15.219  12.005
61933W        W27094  10.716  34.346   3.391
61934W        W27095  26.914  23.568   1.956
61935W        W27096  41.964  33.306   1.235
61936W        W27097  36.324  17.248  12.408
61937W        W27098  20.945  41.276   4.381
61938W        W27099   9.809  16.114   4.393
61939W        W27100   7.835  24.989  11.128
61940W        W27101  39.788  23.326  12.844
61941W        W27102  13.513  30.073   0.709
61942W        W27103  10.452   9.590  13.927
61943W        W27104  26.031  20.250  11.032
61944W        W27105  22.057   6.383   3.850
61945W        W27106  25.901   6.656   3.890
61946W        W27107  20.545   7.747   2.785
61947W        W27108   1.222  21.682   1.325
61948W        W27109  40.015  13.636   2.444
61949W        W27110  29.724   9.501   3.746
61950W        W27111  29.389  15.126  13.997
61951W        W27112   9.996  12.200   4.781
61952W        W27113  16.200  23.553  10.705
61953W        W27114   7.776  23.505   1.352
61954W        W27115  33.026  19.622  12.023
61955W        W27116  31.475   3.034   3.415
61956W        W27117   7.674  29.103  13.013
61957W        W27118  41.024  28.006  13.921
61958W        W27119  23.684  23.691  12.277
61959W        W27120  10.798  14.687   4.556
61960W        W27121  37.945   7.664   4.975
61961W        W27122  23.733  26.866   2.695
61962W        W27123   5.391  13.790   1.461
61963W        W27124  33.436  25.696  12.364
61964W        W27125  36.658   2.081   5.098
61965W        W27126  16.477  43.289  12.991
61966W        W27127  35.906   6.282  13.415
61967W        W27128   3.694   6.086  14.358
61968W        W27129  33.362   5.911   3.716
61969W        W27130   4.217  24.035   0.399
61970W        W27131  25.051  20.039  14.515
61971W        W27132   9.857  29.046  11.996
61972W        W27133  30.458  21.584   0.845
61973W        W27134  27.106  37.986   2.199
61974W        W27135   7.685  44.482  10.667
61975W        W27136   1.401  33.708   4.569
61976W        W27137  27.926   2.748  11.157
61977W        W27138  23.872  29.514   5.136
61978W        W27139  40.228  17.189   1.707
61979W        W27140   0.690  34.496  13.702
61980W        W27141  40.850  28.426   2.197
61981W        W27142  30.936  16.105   2.029
61982W        W27143  23.585  30.336  12.478
61983W        W27144  24.543   5.930   4.811
61984W        W27145  43.704  22.726   1.317
61985W        W27146   1.410  44.234   1.470
61986W        W27147   1.824  41.344   2.068
61987W        W27148   3.877  27.651   4.216
61988W        W27149  25.647  16.987   3.082
61989W        W27150  44.924  43.422  12.218
61990W        W27151  19.775  32.964  10.886
61991W        W27152  21.680  14.832  12.546
61992W        W27153   7.899  31.083  13.350
61993W        W27154   4.420  32.573   3.591
61994W        W27155  37.916  27.368  12.926
61995W        W27156  36.681  44.935   0.925
61996W        W27157   5.742  44.372  10.957
61997W        W27158  15.499  15.136  14.857
61998W        W27159  18.298  21.529  12.389
61999W        W27160   7.777  33.800  11.730
62000W        W27161  33.433  34.540  10.032
62001W        W27162  14.304  21.642   3.618
62002W        W27163  22.560  18.246  10.835
62003W        W27164  19.019  14.705   5.588
62004W        W27165  17.315  14.889   1.835
62005W        W27166  39.348  16.107   1.763
62006W        W27167  18.576  10.274  12.483
62007W        W27168  22.525   8.290  12.914
62008W        W27169  28.275  26.554   1.413
62009W        W27170  19.007  28.047  10.808
62010W        W27171   3.740  44.377  10.374
62011W        W27172  22.663  26.410  13.551
62012W        W27173  17.070  20.590   4.555
62013W        W27174  38.576  13.694   3.754
62014W        W27175   0.301  20.079  14.012
62015W        W27176  30.888  33.077  10.649
62016W        W27177  17.670  23.759  11.394
62017W        W27178  41.841  27.009  12.503
62018W        W27179  11.806  22.813   3.807
62019W        W27180  25.304  22.009   2.602
62020W        W27181  38.430  36.409  12.116
62021W        W27182   2.845  22.405   0.050
62022W        W27183  19.308  18.309   4.638
62023W        W27184  15.574  17.230   0.470
62024W        W27185  38.503  14.443   2.253
62025W        W27186  42.110  37.130   5.328
62026W        W27187  35.084   5.608  10.569
62027W        W27188  39.759  17.001   1.703
62028W        W27189  40.738  23.456  11.471
62029W        W27190  41.260   6.731  12.086
62030W        W27191  25.067  42.908  14.355
62031W        W27192  19.009  36.547   4.145
62032W        W27193  10.785  43.599   3.126
62033W        W27194  40.266  17.201   3.144
62034W        W27195  27.648  14.686   0.488
62035W        W27196   9.368   1.897  10.676
62036W        W27197  21.788  20.153   2.410
62037W        W27198  17.442  28.995   4.033
62038W        W27199   4.482  31.694   3.718
62039W        W27200  15.125  34.709  12.124
62040W        W27201  22.236  36.810  12.972
62041W        W27202  12.745   7.798  13.577
62042W        W27203  38.648  33.050   1.233
62043W        W27204  23.179  23.514   5.364
62044W        W27205  31.177  17.692  13.983
62045W        W27206  38.602  36.553  12.581
62046W        W27207  10.598  17.056   0.504
62047W        W27208  31.532  41.705  14.004
62048W        W27209  17.745  16.352  12.453
62049W        W27210  36.096  43.311  12.451
62050W        W27211  35.912   7.874   1.756
62051W        W27212  38.868   8.345  12.527
62052W        W27213   7.851   0.676  12.915
62053W        W27214  43.777  31.358  14.955
62054W        W27215   1.624  36.416  14.518
62055W        W27216  27.512  36.351  12.927
62056W        W27217  29.241  43.504   4.119
62057W        W27218  21.600   3.543  13.282
62058W        W27219   4.189   9.320   3.214
62059W        W27220   3.558  16.063  14.067
62060W        W27221  33.352  38.000   0.006
62061W        W27222  13.978   2.918  10.790
62062W        W27223  11.721  41.652   1.222
62063W        W27224  14.373  28.532   1.352
62064W        W27225  19.685  21.620   1.529
62065W        W27226   4.475  26.783   3.200
62066W        W27227  29.645  26.584  11.084
62067W        W27228   3.166  35.440   5.611
62068W        W27229   3.818  36.024  13.415
62069W        W27230  25.458  29.843   3.753
62070W        W27231  26.500  29.387   2.005
62071W        W27232  17.509   0.448  14.345
62072W        W27233  19.975  18.612  10.222
62073W        W27234  42.261  29.099   3.967
62074W        W27235  32.346   2.828  13.316
62075W        W27236  43.784   8.691  11.805
62076W        W27237  11.558  35.118   2.436
62077W        W27238   6.609  15.716   1.800
62078W        W27239  18.897  37.315   4.629
62079W        W27240  10.767  10.133   2.271
62080W        W27241  34.099  25.493  12.975
62081W        W27242  22.555   8.472  11.113
62082W        W27243  17.070  31.872  13.537
62083W        W27244  18.085  33.903  14.997
62084W        W27245  12.362  27.479   0.447
62085W        W27246   6.283   6.338   0.934
62086W        W27247  41.022  27.943  14.938
62087W        W27248  12.760  21.966  11.877
62088W        W27249  27.944  16.225   0.893
62089W        W27250  34.934  19.528  10.795
62090W        W27251  43.476   7.457  12.554
62091W        W27252  14.536  44.129   5.099
62092W        W27253  40.614  43.784   4.091
62093W        W27254  35.270  22.096  13.382
62094W        W27255  10.443   0.214  12.331
62095W        W27256  31.469  13.131  14.350
62096W        W27257   2.805  19.693   3.901
62097W        W27258   2.026  36.050   4.733
62098W        W27259  31.917  15.578  14.919
62099W        W27260  37.622  14.783   1.243
62100W        W27261  37.009  43.014   2.186
62101W        W27262   2.791  21.583  14.391
62102W        W27263  44.756  38.404   4.112
62103W        W27264  26.186  34.105  10.531
62104W        W27265  29.037   9.387  13.460
62105W        W27266   2.318  13.757   2.584
62106W        W27267   1.619  24.882  14.348
62107W        W27268   9.421  11.681  10.711
62108W        W27269  20.719   9.463  13.142
62109W        W27270  16.897  40.906   2.860
62110W        W27271  32.281  18.284  10.710
62111W        W27272   9.173   5.908  10.552
62112W        W27273   1.448  22.618  13.072
62113W        W27274  31.895  15.631  13.908
62114W        W27275   7.770  20.499  14.725
62115W        W27276   3.226   5.737   3.360
62116W        W27277  15.232   0.710  11.980
62117W        W27278  28.606  14.632  11.895
62118W        W27279  40.064   2.194   0.813
62119W        W27280  10.292   7.897   3.079
62120W        W27281  16.640  26.060   2.759
62121W        W27282   4.529  12.116   2.829
62122W        W27283  18.274   0.703   1.670
62123W        W27284  14.611  25.691   3.640
62124W        W27285   5.406  27.594   2.016
62125W        W27286  21.201  10.001  12.480
62126W        W27287  11.119  17.314   1.185
62127W        W27288  21.305  36.499   4.607
62128W        W27289  32.080  17.104   0.015
62129W        W27290  21.810  36.462  13.831
62130W        W27291   6.084  42.102   2.625
62131W        W27292  35.640  35.074   0.624
62132W        W27293  35.592  10.388  11.575
62133W        W27294   0.260  38.650  14.056
62134W        W27295  14.447  22.422  11.614
62135W        W27296  37.913  25.180  13.515
62136W        W27297   7.467  21.470   1.199
62137W        W27298  42.197  17.231   1.941
62138W        W27299   4.383  31.384   4.136
62139W        W27300  14.755   9.537   3.380
62140W        W27301  40.730  31.890  12.997
62141W        W27302  44.539   0.501   3.171
62142W        W27303  13.042  42.075   3.408
62143W        W27304   0.383   1.334  14.864
62144W        W27305  39.451  38.483   0.474
62145W        W27306  33.065  24.661  12.959
62146W        W27307   0.517  39.809  13.318
62147W        W27308   5.824   7.801   0.284
62148W        W27309  14.812  32.634   0.351
62149W        W27310  32.997   1.740   4.794
62150W        W27311   8.903  35.299   1.409
62151W        W27312  37.827  32.592   1.255
62152W        W27313   1.049  23.212   2.621
62153W        W27314  30.020  43.690   2.560
62154W        W27315  21.277  31.159   2.502
62155W        W27316  15.382   6.736   2.880
62156W        W27317  19.199  11.242  12.485
62157W        W27318   5.852  35.131  13.548
62158W        W27319  32.092  20.080  12.025
62159W        W27320  40.415  30.655   1.280
62160W        W27321  10.310   4.075   1.470
62161W        W27322   2.541  20.570  14.830
62162W        W27323  26.674  35.651   2.806
62163W        W27324  30.968  27.683  13.294
62164W        W27325  41.121  38.070  14.967
62165W        W27326  22.410  12.340  13.897
62166W        W27327  29.931  11.695  12.876
62167W        W27328  16.862  33.166   4.493
62168W        W27329  43.030  24.016  13.825
62169W        W27330  37.124  42.023  12.922
62170W        W27331  41.338   3.142   3.143
62171W        W27332  22.098   2.208   2.179
62172W        W27333  29.990   6.907  14.991
62173W        W27334  18.668  40.734   0.778
62174W        W27335  40.352   6.243   4.802
62175W        W27336  33.088  28.050   2.196
62176W        W27337   7.148  19.856   4.486
62177W        W27338  37.608  25.016  14.509
62178W        W27339  21.846  18.566  11.757
62179W        W27340  35.565  20.039   0.594
62180W        W27341  16.651  43.779  12.989
62181W        W27342   7.620  38.991  13.946
62182W        W27343  30.172   9.295   3.874
62183W        W27344  40.594  34.052   3.289
62184W        W27345  42.769  19.374   1.794
62185W        W27346   2.736  30.705  11.595
62186W        W27347  37.387  16.858   0.828
62187W        W27348   4.016  42.919  10.367
62188W        W27349  10.636  33.327   3.569
62189W        W27350  14.403   0.837  13.360
62190W        W27351  27.691  24.928   0.789
62191W        W27352  13.106  41.532  13.875
62192W        W27353   1.871  19.711  14.906
62193W        W27354   6.185  30.130   1.781
62194W        W27355   8.691  27.637   3.526
62195W        W27356  14.116   6.619   1.858
62196W        W27357  19.218  34.165   4.164
62197W        W27358   6.815   5.912  14.944
62198W        W27359  18.992  41.842   2.150
62199W        W27360  27.100  38.062   3.618
62200W        W27361   6.859  15.379  12.072
62201W        W27362  14.236  41.304   1.872
62202W        W27363  10.709   2.975  14.515
62203W        W27364   7.863  42.020  11.650
62204W        W27365  21.061   2.768   0.788
62205W        W27366  14.364   1.376   4.311
62206W        W27367   8.757   4.491  12.117
62207W        W27368  27.382  31.566  13.892
62208W        W27369  28.963  20.421  12.932
62209W        W27370  19.222   3.427  12.182
62210W        W27371  30.995  40.789   3.754
62211W        W27372  39.543  24.693   0.368
62212W        W27373  12.094   1.611   0.009
62213W        W27374  27.970   3.186   3.142
62214W        W27375  10.913  44.033   2.429
62215W        W27376   0.252  24.288   4.181
62216W        W27377  36.049  14.297  13.416
62217W        W27378  38.030   7.199  14.950
62218W        W27379  27.149  44.028   2.101
62219W        W27380  19.114  32.413  11.901
62220W        W27381  37.208  27.521   4.712
62221W        W27382  28.532   3.439  13.127
62222W        W27383  25.170  19.350   0.458
62223W        W27384  26.247  20.644  12.717
62224W        W27385  26.634  22.727  10.276
62225W        W27386  44.901  31.869   0.457
62226W        W27387  40.272  12.673   1.420
62227W        W27388  19.508  30.986  14.247
62228W        W27389   8.770  36.008  12.119
62229W        W27390  36.684  29.774  14.266
62230W        W27391  20.156  18.253   0.397
62231W        W27392  43.615  16.338   3.269
62232W        W27393  10.461   4.703   3.699
62233W        W27394  34.007  26.487  12.878
62234W        W27395  14.264  29.446   2.362
62235W        W27396  33.672  19.132   0.253
62236W        W27397  40.584   3.171  10.718
62237W        W27398  18.630  14.029   4.515
62238W        W27399  31.055  38.775  10.664
62239W        W27400  13.754  39.166   2.835
62240W        W27401  31.982  36.110   1.677
62241W        W27402  41.625   6.465  11.887
62242W        W27403  19.536  22.637  11.514
62243W        W27404  36.810  14.537  14.028
62244W        W27405  19.139  33.330  13.328
62245W        W27406  18.292  21.819  11.602
62246W        W27407  17.935  36.426   0.269
62247W        W27408  19.957  20.199   0.320
62248W        W27409  20.803  16.296   1.250
62249W        W27410  12.535  42.246   2.670
62250W        W27411  14.224   7.694   2.842
62251W        W27412   9.799  20.501  14.525
62252W        W27413  32.631  22.590  12.215
62253W        W27414  44.350   6.603  12.756
62254W        W27415  31.667  37.759   3.235
62255W        W27416  20.796  21.125  11.508
62256W        W27417  43.267  14.873  12.794
62257W        W27418  24.771  28.429  10.581
62258W        W27419   6.817  17.081  12.401
62259W        W27420   4.324  39.697  14.234
62260W        W27421  33.464   7.147  14.327
62261W        W27422  35.424  23.530  10.698
62262W        W27423   7.918  33.653   2.692
62263W        W27424  38.534   5.970   4.242
62264W        W27425   8.702  22.062   0.794
62265W        W27426   4.250  27.588   3.437
62266W        W27427  35.397  19.799  10.758
62267W        W27428  26.763  16.809   4.088
62268W        W27429  34.985  17.249  14.325
62269W        W27430  19.050  44.897   2.883
62270W        W27431  14.708   3.762   3.142
62271W        W27432  36.632   2.669  12.908
62272W        W27433  23.544  10.092   3.261
62273W        W27434   4.257  11.860   4.652
62274W        W27435   6.838   5.772   0.468
62275W        W27436   9.962  35.590  12.368
62276W        W27437   3.842  12.698   0.874
62277W        W27438  10.390  11.768  10.813
62278W        W27439   6.517  13.187  10.777
62279W        W27440  27.947  15.663   0.533
62280W        W27441   5.012   0.915   2.743
62281W        W27442  24.260  13.051  14.728
62282W        W27443  34.527  11.529  13.621
62283W        W27444   7.748  40.291   2.200
62284W        W27445   2.999  27.625   5.407
62285W        W27446   0.225  30.044   4.088
62286W        W27447  34.345  30.615  12.562
62287W        W27448  33.972  21.783   1.902
62288W        W27449  13.513  44.980   3.634
62289W        W27450  39.246   3.242   1.757
62290W        W27451  26.596  28.064   0.260
62291W        W27452  23.971  14.867  12.019
62292W        W27453  12.112   1.207  11.166
62293W        W27454   4.935  10.886  11.011
62294W        W27455  36.192  41.733  12.954
62295W        W27456  40.310  38.307   3.168
62296W        W27457  13.212  11.402   0.737
62297W        W27458  36.038  42.402   2.101
62298W        W27459  14.459  40.583  13.332
62299W        W27460   6.764  40.461  11.989
62300W        W27461  23.113  28.554  14.358
62301W        W27462  26.941   3.946  14.377
62302W        W27463   9.008  14.314  14.504
62303W        W27464  37.071  21.674  13.614
62304W        W27465  41.104   8.450  10.729
62305W        W27466  26.989  38.492  12.834
62306W        W27467  44.484  43.006  11.910
62307W        W27468  36.599  41.314  10.927
62308W        W27469  30.779  22.475   2.705
62309W        W27470  18.839   0.932   2.323
62310W        W27471  19.806  43.008   3.616
62311W        W27472  24.805  17.011   2.722
62312W        W27473   9.297  41.140   2.553
62313W        W27474   3.348  34.493   4.693
62314W        W27475  19.663  16.529  12.434
62315W        W27476  23.835  22.228  13.766
62316W        W27477  26.518  36.673   2.886
62317W        W27478  37.344   6.169   1.852
62318W        W27479  22.103   8.764   2.376
62319W        W27480  39.166  15.583   0.383
62320W        W27481  28.087  10.732   1.389
62321W        W27482  38.894  40.778  14.845
62322W        W27483  11.626   9.837   2.354
62323W        W27484  24.007   0.858   1.190
62324W        W27485   3.399   7.125   0.193
62325W        W27486  36.534  19.995  11.971
62326W        W27487   2.804  31.125  13.458
62327W        W27488  18.668  15.565  11.106
62328W        W27489  35.709  22.613  14.342
62329W        W27490  34.796  41.508  12.698
62330W        W27491  32.047  27.645   1.430
62331W        W27492   3.459  25.395   0.774
62332W        W27493  19.286  26.477   2.703
62333W        W27494  18.729  23.104  11.913
62334W        W27495  34.350  12.861  13.952
62335W        W27496  27.189  36.592  12.075
62336W        W27497  25.842  32.468  13.890
62337W        W27498   2.553   2.027   1.326
62338W        W27499  32.501   5.270   3.438
62339W        W27500  15.795  19.543   3.340
62340W        W27501  29.141  21.466  14.919
62341W        W27502  33.957  43.092   1.896
62342W        W27503   8.854  16.129   0.243
62343W        W27504  24.729   9.951  13.449
62344W        W27505  22.151  28.685   0.296
62345W        W27506  35.531  41.472   3.367
62346W        W27507  34.470   4.356   3.774
62347W        W27508  44.506  20.292  10.377
62348W        W27509  17.012  26.177  10.623
62349W        W27510   5.027  36.148   2.626
62350W        W27511  23.554  18.535   1.873
62351W        W27512  18.482  26.709  13.992
62352W        W27513   6.177  40.540  12.484
62353W        W27514  19.117  29.227  13.356
62354W        W27515  14.841  18.089   2.952
62355W        W27516   1.889  39.269   1.366
62356W        W27517  37.413  33.951   3.207
62357W        W27518  12.206  34.910   1.873
62358W        W27519  10.233  37.914  12.456
62359W        W27520  24.684  41.069  14.015
62360W        W27521   5.767  33.081  14.466
62361W        W27522  17.666  44.218  14.219
62362W        W27523  42.811  34.356   1.430
62363W        W27524   6.325  21.164  14.969
62364W        W27525   8.320  12.768   0.894
62365W        W27526  12.324  33.446  14.266
62366W        W27527  44.885  18.414  13.943
62367W        W27528  11.975  21.591  11.377
62368W        W27529  17.583  18.366   2.891
62369W        W27530   0.975  43.079  12.102
62370W        W27531   0.390  37.165  14.199
62371W        W27532  19.025  12.428   3.753
62372W        W27533  40.052   6.931   1.902
62373W        W27534  31.582   4.418  13.138
62374W        W27535  38.996  36.493   2.886
62375W        W27536  31.948  27.940  14.484
62376W        W27537  29.475  35.054  14.945
62377W        W27538  16.863  33.084   1.783
62378W        W27539  20.023   3.212  11.631
62379W        W27540   2.242  10.988  10.275
62380W        W27541  14.084  41.436   3.270
62381W        W27542  32.091  31.583  13.076
62382W        W27543  36.202  10.052   2.393
62383W        W27544   1.930  16.159  11.067
62384W        W27545  19.330   6.118   0.445
62385W        W27546  29.691  35.839  13.360
62386W        W27547   4.610  42.315   1.355
62387W        W27548  43.946  43.093   1.717
62388W        W27549   1.714  25.794  10.685
62389W        W27550  30.167  28.010   1.715
62390W        W27551  29.180  40.329  12.511
62391W        W27552  37.628  25.195   4.135
62392W        W27553   7.113  12.775  13.929
62393W        W27554  42.962  29.723  12.908
62394W        W27555  26.904  19.773   1.508
62395W        W27556   2.247   6.045  13.238
62396W        W27557  22.037  37.946   1.977
62397W        W27558  25.709  22.286  12.672
62398W        W27559  25.097  26.178   0.427
62399W        W27560  16.215  37.364   4.137
62400W        W27561   3.374   7.012  13.460
62401W        W27562  30.064  22.816   0.254
62402W        W27563  39.964  43.282  11.156
62403W        W27564  12.168  22.572  12.090
62404W        W27565  16.792  28.690   1.945
62405W        W27566  44.861  39.203   1.407
62406W        W27567   2.031  21.678   2.242
62407W        W27568  21.263  36.512  10.794
62408W        W27569   4.745   4.978   4.175
62409W        W27570   9.480  16.531   4.788
62410W        W27571  29.166   2.366   4.379
62411W        W27572  13.299  41.093   3.187
62412W        W27573  17.691  35.489  12.403
62413W        W27574   0.943  27.760   3.654
62414W        W27575  18.531  16.153  13.801
62415W        W27576   8.696  13.994  14.823
62416W        W27577   2.026  28.139   2.179
62417W        W27578  18.292  11.739   3.231
62418W        W27579  16.230  26.358   2.698
62419W        W27580  12.855   6.932  13.886
62420W        W27581  40.422  27.249   3.194
62421W        W27582  28.368  12.128   0.764
62422W        W27583  37.744  41.805  12.069
62423W        W27584  44.401  27.230   3.205
62424W        W27585  28.522  15.619  12.449
62425W        W27586  18.999   6.656   3.162
62426W        W27587  32.477  36.594  13.326
62427W        W27588  23.688  23.422  13.976
62428W        W27589  33.606  37.328  14.006
62429W        W27590  18.627  42.921  11.663
62430W        W27591  19.602  44.243  13.933
62431W        W27592  18.414  19.071   4.395
62432W        W27593   2.359   8.647  11.040
62433W        W27594  27.277  41.056  12.564
62434W        W27595  33.387  18.260  12.881
62435W        W27596   2.279  33.099   1.876
62436W        W27597  24.487   3.362  11.608
62437W        W27598  27.887   7.373  11.944
62438W        W27599  11.607  28.368   4.428
62439W        W27600  12.834  13.655  11.333
62440W        W27601  37.611  10.821  10.620
62441W        W27602  20.168  24.515   2.666
62442W        W27603  43.845  41.638   1.212
62443W        W27604  25.026  26.640  14.404
62444W        W27605  36.099  33.500   1.929
62445W        W27606  27.109  24.426   1.388
62446W        W27607  42.862  30.320   3.920
62447W        W27608  43.401  43.737  13.624
62448W        W27609  36.660  24.254   0.951
62449W        W27610  32.440  15.763   2.901
62450W        W27611   2.885  34.622  14.392
62451W        W27612  17.009  37.586  10.209
62452W        W27613  44.418  34.526  10.298
62453W        W27614  18.781   6.243   4.516
62454W        W27615  41.038  23.661  10.646
62455W        W27616   0.295   8.793   5.197
62456W        W27617  32.483  41.251  14.871
62457W        W27618   3.537  29.020   3.294
62458W        W27619   5.969  17.741  13.900
62459W        W27620  17.879  13.836  11.414
62460W        W27621  21.463  18.384  14.450
62461W        W27622  11.881  44.838  14.478
62462W        W27623   0.106  39.915  13.022
62463W        W27624  22.774  35.008   4.969
62464W        W27625   0.899   9.727   4.573
62465W        W27626  39.386   0.268   1.643
62466W        W27627  35.606  29.175   4.316
62467W        W27628  11.390   4.517   4.060
62468W        W27629  10.141  32.219   3.416
62469W        W27630  32.801  19.759  12.509
62470W        W27631  21.266   8.139   0.317
62471W        W27632   1.031   3.880  12.908
62472W        W27633  21.755  25.058  13.847
62473W        W27634  32.318  16.227  12.185
62474W        W27635  11.989  43.384   1.793
62475W        W27636  39.925   4.826   3.651
62476W        W27637  38.556  34.911   0.917
62477W        W27638   2.356  28.552  11.176
62478W        W27639   2.534   4.860   3.718
62479W        W27640  18.500  31.438   0.582
62480W        W27641  35.096   8.762   0.290
62481W        W27642  10.206  26.745   0.945
62482W        W27643  38.835  15.729   2.469
62483W        W27644  34.380  19.644  13.999
62484W        W27645  20.567  34.834   1.238
62485W        W27646  15.709  31.893   4.955
62486W        W27647  21.966  13.714  10.333
62487W        W27648   9.569  12.748   2.166
62488W        W27649  26.445   5.815  14.604
62489W        W27650  37.335  13.249   3.185
62490W        W27651  22.453   7.905  13.947
62491W        W27652  18.240  10.595   1.828
62492W        W27653   1.281   2.059  11.792
62493W        W27654   7.969   9.814   1.648
62494W        W27655  39.112  22.139   4.689
62495W        W27656  24.495  14.560  13.936
62496W        W27657  19.548  22.035  13.533
62497W        W27658  16.382   1.945   2.880
62498W        W27659  10.789  13.255  14.981
62499W        W27660  11.136   3.967   0.233
62500W        W27661  38.213  42.840  12.856
62501W        W27662  39.137  26.184   4.085
62502W        W27663  26.043  38.490  13.827
62503W        W27664  24.579  35.752  10.629
62504W        W27665  28.567  41.895  11.678
62505W        W27666   5.328  25.942  13.360
62506W        W27667  16.161   2.271  13.345
62507W        W27668  23.066   6.669   0.997
62508W        W27669   9.385  42.843   1.790
62509W        W27670   0.516  24.491  12.251
62510W        W27671  44.105  40.742   9.699
62511W        W27672  15.828  41.928   3.231
62512W        W27673  10.873  40.005  12.966
62513W        W27674   3.846  15.015  13.921
62514W        W27675  28.920  20.687  11.949
62515W        W27676   8.404  29.306   2.680
62516W        W27677  26.202  28.215   2.311
62517W        W27678  12.912  43.626  12.957
62518W        W27679  35.616  32.834  10.625
62519W        W27680   9.427  24.458  13.727
62520W        W27681   2.366   6.748   0.319
62521W        W27682  21.600   2.192   2.883
62522W        W27683   8.259   1.704   1.167
62523W        W27684  36.874  41.289  12.238
62524W        W27685  39.877  31.899  10.588
62525W        W27686  38.341  11.177   2.580
62526W        W27687  33.520  44.068  14.836
62527W        W27688   2.229  34.841   1.372
62528W        W27689   9.162  17.134   0.331
62529W        W27690  38.527  38.155   2.943
62530W        W27691  44.205  27.415   1.318
62531W        W27692  29.193   5.454   3.962
62532W        W27693  44.149  22.672   3.830
62533W        W27694   1.811  18.207   4.477
62534W        W27695  30.053  15.715   4.923
62535W        W27696  18.364  30.390  10.673
62536W        W27697  26.031   3.165   2.475
62537W        W27698  35.501  14.167  14.925
62538W        W27699   4.733  38.364   1.884
62539W        W27700   1.303  32.636   3.740
62540W        W27701  13.559  26.142  10.735
62541W        W27702  12.332   2.763   2.578
62542W        W27703  42.693  16.065  14.911
62543W        W27704  38.513  44.423  12.189
62544W        W27705  12.346  40.353   1.182
62545W        W27706  22.509  42.297   2.217
62546W        W27707  11.323  34.042  12.423
62547W        W27708   4.679  26.016   0.430
62548W        W27709  42.630  15.081   2.931
62549W        W27710  14.132  39.815  10.575
62550W        W27711  29.195  18.548  11.139
62551W        W27712  43.819  31.854   2.178
62552W        W27713  25.576  16.784  12.707
62553W        W27714  21.784   8.266   4.077
62554W        W27715  22.016  44.920  13.030
62555W        W27716  18.848   1.078  13.525
62556W        W27717  34.391   3.919   0.156
62557W        W27718   1.365   4.495   1.789
62558W        W27719   0.653  11.385  13.577
62559W        W27720  32.086   8.781  10.273
62560W        W27721  34.980  36.500  10.682
62561W        W27722  28.421  44.503   2.867
62562W        W27723  29.474  38.897   2.313
62563W        W27724  43.836  40.356   4.210
62564W        W27725  12.792  10.204  12.963
62565W        W27726  31.959  35.802  12.041
62566W        W27727  11.634  21.257  13.147
62567W        W27728   5.308   4.743   0.817
62568W        W27729  10.887  38.234   2.240
62569W        W27730  38.109  27.113  13.762
62570W        W27731   9.852  17.148  10.879
62571W        W27732  10.544  20.562   4.968
62572W        W27733  20.238   4.894  11.500
62573W        W27734  36.448  43.090   4.537
62574W        W27735  11.327  32.809   3.266
62575W        W27736  25.133   4.797  10.708
62576W        W27737   5.987  31.502  11.630
62577W        W27738   1.488  28.026   0.324
62578W        W27739   2.757   5.669  10.998
62579W        W27740   1.832   5.760   2.675
62580W        W27741  40.067  11.181   1.333
62581W        W27742  34.337   6.767  11.430
62582W        W27743  23.646  37.863  13.332
62583W        W27744  41.259   7.735   4.624
62584W        W27745  34.523  32.203  13.801
62585W        W27746  32.494   2.841   4.131
62586W        W27747  36.619  44.272  10.832
62587W        W27748  16.355  32.069  12.952
62588W        W27749  24.237  14.365   1.678
62589W        W27750  30.495  23.280  13.977
62590W        W27751  34.998  22.903   3.902
62591W        W27752  26.560  30.913   2.808
62592W        W27753   3.085   3.036  13.395
62593W        W27754  11.244  11.918  11.166
62594W        W27755  24.878  29.023   2.195
62595W        W27756   7.199  20.214   0.843
62596W        W27757  23.454   8.999   1.328
62597W        W27758  37.366  15.210  13.946
62598W        W27759   0.285   1.395  13.517
62599W        W27760  13.170  22.686   1.758
62600W        W27761  19.222  18.849   2.632
62601W        W27762   6.532   7.354  12.165
62602W        W27763  34.065  22.556   3.635
62603W        W27764  15.139  43.987  13.110
62604W        W27765  23.667  40.459   0.882
62605W        W27766   5.251  21.204   2.415
62606W        W27767  25.749  40.041   3.277
62607W        W27768  35.633  15.368  14.952
62608W        W27769  30.034  44.494  13.749
62609W        W27770   4.011  28.461   2.793
62610W        W27771  23.065  17.692  11.518
62611W        W27772  41.276  10.673   1.657
62612W        W27773   2.688  38.358  13.506
62613W        W27774  44.383  38.518   3.591
62614W        W27775  34.117  31.642  14.575
62615W        W27776   5.811  14.942   1.501
62616W        W27777  17.053  32.571   0.892
62617W        W27778  42.074  31.933  13.944
62618W        W27779  42.936   0.036   2.460
62619W        W27780  37.767  24.226  10.809
62620W        W27781   9.190  29.331   2.274
62621W        W27782   0.752  23.430   0.478
62622W        W27783  13.593  16.493  10.782
62623W        W27784   3.231  26.925  11.492
62624W        W27785   6.269  44.443  12.903
62625W        W27786  29.602  39.137  14.967
62626W        W27787   7.348   8.197  14.545
62627W        W27788  19.842  20.105  11.877
62628W        W27789  44.936  31.473  10.779
62629W        W27790  41.186  20.611   4.146
62630W        W27791   6.675  35.465   0.889
62631W        W27792  20.638  24.132   1.818
62632W        W27793  44.218  34.385   2.803
62633W        W27794  21.948  39.628   2.801
62634W        W27795  23.142   7.701  14.711
62635W        W27796  12.780   2.983   4.362
62636W        W27797  18.532  26.787  13.024
62637W        W27798  20.174  20.003   3.221
62638W        W27799  38.304  25.234   2.286
62639W        W27800  27.234  17.599   0.545
62640W        W27801  36.839  20.319  14.836
62641W        W27802  23.732  23.418   4.495
62642W        W27803  32.076  36.148   0.308
62643W        W27804  17.532  15.844   4.951
62644W        W27805   9.597  43.870   1.479
62645W        W27806  19.686  15.530  12.388
62646W        W27807  21.149  39.118   4.846
62647W        W27808  40.600  35.037  13.906
62648W        W27809  11.734  37.364  14.927
62649W        W27810  25.912  20.521   1.237
62650W        W27811  42.981  27.450   0.773
62651W        W27812  16.834  30.908  13.094
62652W        W27813   3.119  27.921  14.176
62653W        W27814  40.424  35.297  12.006
62654W        W27815  11.112  27.115   4.794
62655W        W27816  18.371  33.014   0.878
62656W        W27817  36.362  10.183   3.651
62657W        W27818  25.178  25.940  11.282
62658W        W27819  32.396  18.507  14.566
62659W        W27820  27.999   6.691   1.369
62660W        W27821  42.310  11.227  14.418
62661W        W27822  29.625   5.541  14.245
62662W        W27823   1.723  34.425   4.110
62663W        W27824  39.848  12.613   2.261
62664W        W27825  33.240  41.210   3.519
62665W        W27826  41.556  35.222   2.175
62666W        W27827  12.594   0.887  11.574
62667W        W27828  35.617  37.893   3.165
62668W        W27829   9.720  44.858   0.561
62669W        W27830  34.080  25.119   1.838
62670W        W27831  42.033   2.875   3.546
62671W        W27832  31.645  28.541   0.751
62672W        W27833  43.458  42.421  12.190
62673W        W27834  32.342  35.973  10.340
62674W        W27835  41.057   7.183  13.361
62675W        W27836   0.010   5.815  12.942
62676W        W27837  15.282  15.634  14.990
62677W        W27838  37.038   6.836  10.608
62678W        W27839  23.441  26.215  12.925
62679W        W27840  15.188   8.393  10.758
62680W        W27841  31.089  16.122  14.909
62681W        W27842  34.362   3.415   0.312
62682W        W27843   1.489  20.527  14.456
62683W        W27844  33.029   6.962   2.330
62684W        W27845  27.058   2.169   3.279
62685W        W27846  44.944  31.382  11.664
62686W        W27847  32.485  29.480  13.432
62687W        W27848  19.552  21.721   2.729
62688W        W27849  18.839  39.811  13.380
62689W        W27850  19.505  23.085   1.239
62690W        W27851   2.879  39.063  13.319
62691W        W27852   2.832  11.138   1.810
62692W        W27853   5.866   0.924   2.716
62693W        W27854   1.735  22.218   0.941
62694W        W27855   9.121   0.972   1.396
62695W        W27856   7.464  31.280  14.380
62696W        W27857   6.501  14.822   2.017
62697W        W27858  33.949  14.678  11.760
62698W        W27859  34.560   8.127   3.169
62699W        W27860   8.371  33.386   0.724
62700W        W27861  42.458   7.264   1.653
62701W        W27862  38.541  43.427  11.210
62702W        W27863  37.106   3.724  11.627
62703W        W27864  37.639  13.196   4.111
62704W        W27865  34.065  15.659  14.908
62705W        W27866  42.197   4.294   3.200
62706W        W27867  42.830  14.813   3.551
62707W        W27868  12.842  32.237   2.318
62708W        W27869  16.833   0.793  11.097
62709W        W27870  22.185  17.075  13.967
62710W        W27871  15.764  26.515  11.964
62711W        W27872  29.681  35.923   4.132
62712W        W27873  41.319  28.635  13.999
62713W        W27874  19.646  14.244   2.744
62714W        W27875   1.157  20.098   3.754
62715W        W27876  14.333  31.910   1.214
62716W        W27877   0.773  44.314  10.169
62717W        W27878  38.403  34.985  13.004
62718W        W27879  42.077  15.377   0.871
62719W        W27880  18.792  19.355   1.782
62720W        W27881  34.990  33.770   2.762
62721W        W27882  41.951  18.117   3.143
62722W        W27883  34.399  14.901   3.532
62723W        W27884  22.603   4.322  14.882
62724W        W27885  31.747  17.638   2.572
62725W        W27886  14.401  18.190  14.399
62726W        W27887  17.584   1.498  13.272
62727W        W27888  30.146   8.312  11.052
62728W        W27889  23.645  38.003   2.108
62729W        W27890   9.790  35.534   0.429
62730W        W27891   3.552  19.637  13.375
62731W        W27892  21.291  40.348  14.373
62732W        W27893   8.564  38.994  10.746
62733W        W27894   0.231  12.893  14.400
62734W        W27895   8.398  34.631  12.493
62735W        W27896  44.973   8.766   3.242
62736W        W27897  26.279  23.980   4.527
62737W        W27898  14.747  36.247   2.723
62738W        W27899  16.841  24.559   3.525
62739W        W27900  40.988  37.936  10.678
62740W        W27901   6.721  24.489  12.583
62741W        W27902  36.576  18.057  13.993
62742W        W27903  18.590  38.443  12.566
62743W        W27904  15.407   2.067   3.131
62744W        W27905  15.509  31.588   4.596
62745W        W27906  15.594   7.672   3.345
62746W        W27907  27.928  14.824  13.465
62747W        W27908  41.799  36.078   4.607
62748W        W27909  37.412  12.169   0.393
62749W        W27910  13.981  12.735   0.234
62750W        W27911  24.083  29.142   0.163
62751W        W27912  14.051  10.871  14.743
62752W        W27913   3.250   4.862   3.179
62753W        W27914  27.174  18.200   2.223
62754W        W27915   3.795  28.022  12.876
62755W        W27916  23.340  19.225  12.110
62756W        W27917   7.856  12.102  13.429
62757W        W27918  43.962  41.500  13.330
62758W        W27919  30.624  26.342  11.109
62759W        W27920  34.461   2.485   1.920
62760W        W27921  34.314  28.749  12.128
62761W        W27922  39.166   4.071  14.565
62762W        W27923  44.215  15.974  10.305
62763W        W27924  24.969  31.625  11.124
62764W        W27925  16.810  14.762   0.927
62765W        W27926  10.351  14.276   0.037
62766W        W27927  10.526  21.634  12.424
62767W        W27928  17.336  33.014   0.885
62768W        W27929  40.482  17.013   0.859
62769W        W27930  15.496  22.449   2.835
62770W        W27931  34.872  24.045   4.573
62771W        W27932  26.108  31.993  11.235
62772W        W27933  35.744  40.941  13.432
62773W        W27934  20.865   2.006  13.349
62774W        W27935  25.877  37.291   9.846
62775W        W27936   9.375  31.805  13.872
62776W        W27937   5.163  27.409   3.469
62777W        W27938  20.016  34.233  14.509
62778W        W27939   3.295  16.306   2.721
62779W        W27940  35.022  34.401   0.473
62780W        W27941  14.062  32.271  14.929
62781W        W27942  20.746  10.225   4.115
62782W        W27943  39.072  13.350  14.999
62783W        W27944  10.805   7.748   3.015
62784W        W27945   5.858  38.410  11.799
62785W        W27946  10.690  22.739   0.281
62786W        W27947  11.824  33.918   1.921
62787W        W27948  11.148  42.421  14.407
62788W        W27949  35.700  20.866  12.353
62789W        W27950  36.965   9.770   0.384
62790W        W27951  44.227   7.674  12.997
62791W        W27952  36.894  24.237   1.431
62792W        W27953  12.542   8.839  12.007
62793W        W27954  10.095  15.370   2.454
62794W        W27955  28.018  28.126  14.820
62795W        W27956  26.682  25.926   2.909
62796W        W27957  17.306  28.573  13.695
62797W        W27958   5.040  31.412   4.929
62798W        W27959  12.338  18.625  12.137
62799W        W27960  36.614   7.475   0.746
62800W        W27961   6.257  43.744   0.781
62801W        W27962  41.496  24.996  13.838
62802W        W27963  39.860  39.582  12.048
62803W        W27964  21.813  19.050   0.836
62804W        W27965  26.030   8.950  10.272
62805W        W27966  39.622  15.668   0.187
62806W        W27967  18.079  36.632  10.748
62807W        W27968  17.688  33.872  10.870
62808W        W27969  23.458  26.566  11.184
62809W        W27970  12.617   1.367  11.125
62810W        W27971  34.519  11.088   0.828
62811W        W27972  17.350   7.980   1.879
62812W        W27973  44.185  18.125   3.232
62813W        W27974   1.053  43.587   1.309
62814W        W27975  29.113  23.244  14.528
62815W        W27976  22.511  40.969  11.224
62816W        W27977  34.936  31.442   2.836
62817W        W27978  13.593  10.789   0.005
62818W        W27979  21.743  13.263   1.703
62819W        W27980  31.318  16.595   1.813
62820W        W27981   6.894   3.191   1.585
62821W        W27982   1.838   3.693  11.582
62822W        W27983  27.405  23.773  10.192
62823W        W27984   4.376  11.797  14.847
62824W        W27985  11.385  18.505   0.674
62825W        W27986  40.991  44.481   4.738
62826W        W27987  12.066  20.834  12.465
62827W        W27988  10.733  13.834   0.670
62828W        W27989   1.240  40.865   2.267
62829W        W27990   1.970  40.030   4.557
62830W        W27991  34.880   5.069  12.089
62831W        W27992   9.809  10.101  14.552
62832W        W27993  14.380   9.355   4.854
62833W        W27994  40.476  15.748  12.184
62834W        W27995   5.003   5.095  13.751
62835W        W27996  44.749  16.192   0.862
62836W        W27997  16.758  17.665  12.428
62837W        W27998  16.779  23.659  11.198
62838W        W27999  20.288  30.681   4.286
62839W        W28000  21.706   8.288   2.739
62840W        W28001  38.206  13.213  14.777
62841W        W28002  33.215  32.964   1.793
62842W        W28003  42.956  10.110  13.029
62843W        W28004  15.355  11.036   2.739
62844W        W28005   9.435  44.304  10.591
62845W        W28006  38.014  43.366   1.334
62846W        W28007  41.367  40.847   2.309
62847W        W28008  43.291  32.681  13.516
62848W        W28009   6.406   6.325  11.089
62849W        W28010   8.390  19.644   1.182
62850W        W28011  27.970  24.609  11.212
62851W        W28012  25.707  44.411  10.985
62852W        W28013  20.434   2.982  14.080
62853W        W28014  24.032  24.256  14.992
62854W        W28015   7.149  29.901   4.155
62855W        W28016  36.828  15.834  12.440
62856W        W28017  12.647  32.570   0.884
62857W        W28018  36.158  24.749  11.824
62858W        W28019  10.652  25.422  13.996
62859W        W28020  31.981  37.344  13.487
62860W        W28021  15.608   0.481   2.893
62861W        W28022  20.353  32.318  10.915
62862W        W28023  30.658   8.061   0.572
62863W        W28024  19.991   7.424  12.476
62864W        W28025  24.718  12.961  12.686
62865W        W28026  24.756  43.302   1.698
62866W        W28027   0.940   4.383   4.636
62867W        W28028   9.611  18.003   3.584
62868W        W28029  43.343  34.473   1.284
62869W        W28030  28.106  33.348   2.820
62870W        W28031  15.811  28.936   0.922
62871W        W28032   8.718  18.823  10.760
62872W        W28033  38.392  34.523   4.838
62873W        W28034  29.088  36.145  10.493
62874W        W28035  28.559  39.094   1.282
62875W        W28036  24.172   3.843   1.367
62876W        W28037  19.413  13.300   4.528
62877W        W28038  44.335  11.213   0.847
62878W        W28039  19.089  25.649  12.143
62879W        W28040   5.715  25.170   2.916
62880W        W28041  28.645  43.452   2.576
62881W        W28042  10.207  40.503   3.807
62882W        W28043  19.525  11.370   4.567
62883W        W28044  10.349  24.183   3.234
62884W        W28045   0.133  37.926  14.891
62885W        W28046   6.390  21.526   2.762
62886W        W28047  42.661  14.862   2.207
62887W        W28048  44.960   2.651   1.212
62888W        W28049  24.030  27.717   0.403
62889W        W28050  27.447  15.219   5.314
62890W        W28051  14.769   1.208   1.285
62891W        W28052  37.715  35.000  11.131
62892W        W28053  33.362   4.492   4.207
62893W        W28054  18.478  25.637   3.830
62894W        W28055   0.767  41.383  11.002
62895W        W28056  25.097  37.864   1.798
62896W        W28057  17.163  44.758  14.922
62897W        W28058   3.754   7.606   3.754
62898W        W28059   1.346  43.003   4.535
62899W        W28060   9.244  22.454   2.449
62900W        W28061  23.478   4.013  11.156
62901W        W28062  34.913  39.324  13.252
62902W        W28063  16.105  30.011  14.085
62903W        W28064  26.653  40.471  12.279
62904W        W28065  36.957   2.988   4.422
62905W        W28066  38.835   5.125  11.357
62906W        W28067  26.537  26.932   3.081
62907W        W28068  34.793   7.410   1.314
62908W        W28069  27.578   0.788   1.339
62909W        W28070   1.678   3.639  14.377
62910W        W28071   8.651  34.058  12.058
62911W        W28072  42.140  22.233  12.020
62912W        W28073  25.123  13.641  12.564
62913W        W28074  12.069  25.204   0.493
62914W        W28075   7.750   0.375   2.350
62915W        W28076  14.613  35.417   3.778
62916W        W28077  17.757   2.013  13.398
62917W        W28078  14.053  24.979   1.443
62918W        W28079  38.994  11.490   1.835
62919W        W28080   4.810  15.985   0.350
62920W        W28081   9.709  13.327  14.512
62921W        W28082  18.157   9.380  12.841
62922W        W28083  29.191   2.401   3.755
62923W        W28084  24.635  33.547   0.770
62924W        W28085  10.365  29.564  13.546
62925W        W28086  41.510  26.043   3.846
62926W        W28087  28.370  14.808  14.717
62927W        W28088  20.705  38.760  12.786
62928W        W28089  16.587   1.296  14.812
62929W        W28090  36.969  27.913   0.423
62930W        W28091  19.365  39.629  14.243
62931W        W28092  34.044   0.966   3.874
62932W        W28093  36.980  27.261   0.050
62933W        W28094  27.710  19.968  12.677
62934W        W28095  10.206  30.879   2.312
62935W        W28096  15.624  44.327  10.743
62936W        W28097   0.970  38.409  13.844
62937W        W28098  36.290   3.157   1.262
62938W        W28099   9.815  16.163  14.373
62939W        W28100  44.162   6.395  13.586
62940W        W28101   9.081  39.394   0.956
62941W        W28102   9.324  22.762   4.171
62942W        W28103  32.446  14.765  12.484
62943W        W28104  34.177  11.845  12.582
62944W        W28105  15.030  34.346  13.393
62945W        W28106  37.362  36.883  14.902
62946W        W28107   9.363  37.173  11.595
62947W        W28108  38.629  17.817   0.495
62948W        W28109  28.633  38.888  12.088
62949W        W28110  34.664  29.572  11.942
62950W        W28111   3.937  21.787  11.564
62951W        W28112  36.119  38.297   3.708
62952W        W28113   5.190  44.126  11.112
62953W        W28114  25.148  36.295   1.771
62954W        W28115  26.116  30.399  13.159
62955W        W28116  36.306   8.890   3.665
62956W        W28117  23.191  10.559   4.605
62957W        W28118  17.210  25.381   2.267
62958W        W28119  39.007   1.272  12.026
62959W        W28120  15.697  14.126  11.638
62960W        W28121  19.227   2.956   1.466
62961W        W28122  14.738  29.919   4.851
62962W        W28123  15.769  30.491  11.458
62963W        W28124  30.712  23.096  10.288
62964W        W28125  25.575  44.448   3.071
62965W        W28126  32.936  24.998  11.952
62966W        W28127  10.362  17.159  10.780
62967W        W28128  20.186  39.151  11.706
62968W        W28129  21.648  40.834   4.857
62969W        W28130  31.848   3.335   1.729
62970W        W28131   1.032  12.668   3.608
62971W        W28132  28.741  18.073  13.951
62972W        W28133   0.952  11.175  13.170
62973W        W28134  18.654  44.326  13.797
62974W        W28135   5.440   8.754  12.070
62975W        W28136  37.776  31.673  11.565
62976W        W28137   4.078  14.845   1.540
62977W        W28138  14.701   7.667  13.275
62978W        W28139  13.198  43.670  11.194
62979W        W28140  26.140   8.807   0.942
62980W        W28141  38.894  11.082  10.999
62981W        W28142   0.936  43.017   0.115
62982W        W28143   0.466  38.005  13.107
62983W        W28144  40.920  20.029  10.743
62984W        W28145  22.419  23.722   2.820
62985W        W28146  33.131  17.775  10.643
62986W        W28147  13.809  32.365   3.246
62987W        W28148  15.628  29.550  12.651
62988W        W28149  15.130  37.145  14.913
62989W        W28150  19.073  14.778   0.225
62990W        W28151  25.691   8.649   0.054
62991W        W28152  15.894  41.074   3.029
62992W        W28153  37.321  10.193   3.195
62993W        W28154  37.294  39.370   1.216
62994W        W28155   3.192  10.934   4.301
62995W        W28156  24.827   2.392   4.909
62996W        W28157  33.917  22.208   4.965
62997W        W28158   0.888  40.042   5.164
62998W        W28159  20.741  39.360   4.362
62999W        W28160  12.916  36.274   0.872
63000W        W28161  23.146  32.031   0.696
63001W        W28162  16.612  27.683   0.484
63002W        W28163   9.329  21.564   2.471
63003W        W28164  17.536  42.967  11.428
63004W        W28165  19.144  41.332   2.234
63005W        W28166  16.179  17.219  12.889
63006W        W28167   9.809  25.171   3.703
63007W        W28168  38.137  44.355   0.440
63008W        W28169  40.858  24.262   1.456
63009W        W28170  30.883  27.303  11.191
63010W        W28171  14.638  27.669  14.405
63011W        W28172  26.762  24.586   3.284
63012W        W28173  37.284  10.670   4.564
63013W        W28174  44.329  14.127  12.022
63014W        W28175  17.783  41.971   3.679
63015W        W28176  22.018  26.647   2.664
63016W        W28177  26.636   8.663   1.366
63017W        W28178   4.383  24.608   1.454
63018W        W28179  14.078  20.976  11.504
63019W        W28180  13.539  19.634  13.488
63020W        W28181   5.062  27.297   3.986
63021W        W28182  19.197   7.556  14.446
63022W        W28183  24.021  44.676   3.755
63023W        W28184  12.834  12.814  14.369
63024W        W28185  19.899   6.182   2.813
63025W        W28186  30.753  20.015   2.798
63026W        W28187  14.278  14.842  11.070
63027W        W28188  32.005  33.117   2.383
63028W        W28189   9.837  35.148   3.906
63029W        W28190  39.212  40.277   0.374
63030W        W28191   1.602  27.268  13.126
63031W        W28192  32.435  28.614   2.238
63032W        W28193  35.195  30.345  12.039
63033W        W28194  28.984  20.017   3.744
63034W        W28195  16.391  35.311   4.208
63035W        W28196  37.567  40.910   4.145
63036W        W28197  40.354  44.280  10.791
63037W        W28198   3.233  43.500   2.783
63038W        W28199  24.736   7.773  11.691
63039W        W28200   9.639  23.224  13.672
63040W        W28201   9.483  20.139  13.002
63041W        W28202  29.592  33.087  12.989
63042W        W28203  42.831  31.921  13.573
63043W        W28204   5.171  44.379  11.562
63044W        W28205   6.731  36.280   4.814
63045W        W28206  11.185  41.877  13.747
63046W        W28207   4.185  15.109   0.111
63047W        W28208  30.628   9.104  10.701
63048W        W28209  12.867  36.568  13.890
63049W        W28210  17.906   7.501   2.854
63050W        W28211  32.928  19.784   2.218
63051W        W28212  29.120  20.031  11.569
63052W        W28213  23.141  42.550   4.817
63053W        W28214  21.633  28.898   0.380
63054W        W28215  20.349  21.815   5.089
63055W        W28216  23.035  30.097   0.329
63056W        W28217  30.729  35.717  12.494
63057W        W28218  15.333  22.004   1.905
63058W        W28219  40.531  10.861   0.457
63059W        W28220   8.725  16.132   2.888
63060W        W28221  43.895   2.445  12.434
63061W        W28222  26.917  31.256   2.716
63062W        W28223  31.618  29.548  10.999
63063W        W28224  16.492  27.653   1.479
63064W        W28225  34.836  16.537   0.701
63065W        W28226   4.446  12.181   0.489
63066W        W28227  38.794  20.358   3.499
63067W        W28228   0.233  13.819  10.137
63068W        W28229  34.541  23.543  12.791
63069W        W28230   8.828  27.814  12.049
63070W        W28231  29.514  28.622   3.264
63071W        W28232   3.087  23.615   3.648
63072W        W28233  20.161  11.711  13.834
63073W        W28234  28.691  11.883  11.149
63074W        W28235  26.182  36.298  12.523
63075W        W28236  13.158  32.895  10.998
63076W        W28237  11.705  36.174  11.119
63077W        W28238  38.849  29.428   0.957
63078W        W28239  13.646   8.130  13.091
63079W        W28240  31.182  28.217   0.000
63080W        W28241  35.889  21.758  12.495
63081W        W28242  13.801  31.946  12.904
63082W        W28243  12.853   9.153  13.653
63083W        W28244  26.911  17.246  14.344
63084W        W28245  15.810   4.773  14.892
63085W        W28246   1.667  22.607   1.330
63086W        W28247  44.341   0.849   3.472
63087W        W28248  36.805  32.745  12.520
63088W        W28249  32.047  36.370   0.772
63089W        W28250  15.391  30.867  11.580
63090W        W28251  35.927   1.222  12.087
63091W        W28252  26.885  23.987  11.529
63092W        W28253  11.116   7.768  12.441
63093W        W28254  31.814  20.785  12.461
63094W        W28255  38.717  39.054  11.650
63095W        W28256  16.565  41.306  11.155
63096W        W28257  35.903  12.302   2.798
63097W        W28258   3.113  41.788  12.963
63098W        W28259  28.471  31.467   0.770
63099W        W28260  38.032  17.236   4.786
63100W        W28261  16.018   1.820   3.819
63101W        W28262  30.847   2.233  14.503
63102W        W28263  25.041  14.622  11.617
63103W        W28264  17.062  10.104  13.337
63104W        W28265  15.753   8.685   0.179
63105W        W28266  31.420  19.271   1.367
63106W        W28267  35.617  11.651  10.771
63107W        W28268  12.201  30.621   4.330
63108W        W28269  37.195  40.077   0.171
63109W        W28270  44.946  42.298   0.467
63110W        W28271   3.492  22.458  11.928
63111W        W28272  13.363  20.141  13.982
63112W        W28273  32.913  20.961   0.221
63113W        W28274  21.109  16.471  12.929
63114W        W28275   6.721   0.762  14.520
63115W        W28276  38.629   6.842   4.355
63116W        W28277  29.453  42.012   3.495
63117W        W28278  25.606  35.542   4.263
63118W        W28279  43.615  39.966   1.060
63119W        W28280  19.940  21.186   1.695
63120W        W28281   4.719  37.999  10.523
63121W        W28282  33.237   7.264   3.839
63122W        W28283   0.076  11.174   1.800
63123W        W28284   6.252   4.954   2.374
63124W        W28285   6.142  37.072   1.330
63125W        W28286  35.851   9.447   2.217
63126W        W28287  35.977  21.716   3.746
63127W        W28288  12.913  28.985  14.443
63128W        W28289  22.748  26.938  14.466
63129W        W28290  44.364  22.225   2.288
63130W        W28291  21.543  38.934  11.700
63131W        W28292  25.095   2.922   1.891
63132W        W28293   6.457   6.890  14.623
63133W        W28294  36.400  43.742  14.979
63134W        W28295  28.479   9.318  13.671
63135W        W28296   1.490  11.085   0.246
63136W        W28297  34.476  36.262   4.713
63137W        W28298  31.250   6.090   0.766
63138W        W28299  10.614  25.545   4.224
63139W        W28300  14.182  15.879   3.142
63140W        W28301  43.840  10.903   0.726
63141W        W28302   5.601  25.465   0.348
63142W        W28303  13.353  29.960  12.912
63143W        W28304   3.330   5.736  12.118
63144W        W28305   5.409  14.202  11.371
63145W        W28306  30.214  31.018   2.318
63146W        W28307  25.704   0.533  11.593
63147W        W28308  40.283  11.595   1.877
63148W        W28309  44.840   9.709   4.406
63149W        W28310  23.271  20.649   5.207
63150W        W28311  12.480  10.828  14.967
63151W        W28312   5.492  15.294   1.291
63152W        W28313  17.259  42.350   2.236
63153W        W28314  36.759  25.578  13.485
63154W        W28315  25.214   5.928  11.194
63155W        W28316   9.577   7.317   2.662
63156W        W28317  27.984  35.421   3.191
63157W        W28318   2.803  21.091  11.961
63158W        W28319  32.825  30.530  14.262
63159W        W28320   5.860  37.451  14.417
63160W        W28321  30.604  12.370   2.668
63161W        W28322  15.717   0.837   0.095
63162W        W28323  43.047  43.989  13.938
63163W        W28324  41.021  36.375   2.739
63164W        W28325  34.038  14.128   4.705
63165W        W28326   9.677   8.588  11.123
63166W        W28327  20.558  31.616   2.730
63167W        W28328  43.043  24.565  13.863
63168W        W28329  24.094  39.352   1.888
63169W        W28330  16.678  10.930   1.740
63170W        W28331  22.587  24.962  13.505
63171W        W28332  22.960   0.702  14.845
63172W        W28333  41.053  14.194   2.183
63173W        W28334   3.389  42.946   3.648
63174W        W28335  14.185   4.938  10.191
63175W        W28336  40.810   9.088  13.019
63176W        W28337  27.302  37.447  12.575
63177W        W28338  25.233   3.822  11.493
63178W        W28339  40.859  42.993  10.579
63179W        W28340  23.684  12.619  10.945
63180W        W28341  40.164  16.384  13.869
63181W        W28342  12.709  29.933  11.314
63182W        W28343  39.543   1.265  11.999
63183W        W28344  22.554  41.102   0.406
63184W        W28345   9.464  30.148   0.457
63185W        W28346  13.835  16.470  11.249
63186W        W28347  25.876   9.268   0.885
63187W        W28348  33.650   8.805   4.514
63188W        W28349  13.394  32.031   4.055
63189W        W28350  37.045  18.086  14.232
63190W        W28351  29.085  36.830  12.357
63191W        W28352   8.868  13.087  11.194
63192W        W28353   7.125  28.068   1.690
63193W        W28354   1.248   6.344  11.131
63194W        W28355  25.256  14.210   4.427
63195W        W28356   8.253  29.583  14.350
63196W        W28357   5.826  41.207   0.472
63197W        W28358   1.876  18.095  12.418
63198W        W28359  12.306   6.482  13.901
63199W        W28360  29.420  42.086   0.001
63200W        W28361   5.977   4.580  14.722
63201W        W28362  17.754  18.706   3.821
63202W        W28363   9.693  14.601   0.263
63203W        W28364  33.946  11.772  14.334
63204W        W28365  34.555   3.510  11.085
63205W        W28366   2.800  17.084   0.875
63206W        W28367   6.171  18.691  14.765
63207W        W28368   0.956  12.421  12.760
63208W        W28369  12.513  18.962   3.292
63209W        W28370  37.631   1.908  14.416
63210W        W28371   1.485   3.433   2.713
63211W        W28372   6.634  30.548  11.684
63212W        W28373  10.483  19.506  10.699
63213W        W28374   0.968   1.699   3.379
63214W        W28375  26.983  33.505   1.016
63215W        W28376  32.779  26.646  12.457
63216W        W28377  27.907   7.750   4.282
63217W        W28378  38.594  29.584  12.975
63218W        W28379  30.489  29.500   1.588
63219W        W28380   4.435  14.816  11.163
63220W        W28381  27.062  24.224   0.304
63221W        W28382   3.748  25.223  12.047
63222W        W28383  36.915   2.318  12.045
63223W        W28384   2.845  25.971   4.310
63224W        W28385   1.870   5.867   3.178
63225W        W28386  10.449  41.521   4.548
63226W        W28387   8.682  30.677   2.234
63227W        W28388   5.302  28.840  14.266
63228W        W28389  18.598  20.047  14.382
63229W        W28390   5.451  26.686   2.822
63230W        W28391  32.969  35.181  11.643
63231W        W28392  23.016  39.287   0.749
63232W        W28393  16.492  22.902  13.816
63233W        W28394   7.494  24.475   3.279
63234W        W28395  32.373  31.876  11.583
63235W        W28396  26.752  24.027  13.905
63236W        W28397   4.460  25.088  11.734
63237W        W28398  17.787  18.169   2.481
63238W        W28399  32.614   4.947   1.265
63239W        W28400  37.020   5.740   0.831
63240W        W28401  25.688   6.455   1.291
63241W        W28402  43.745  32.869  14.962
63242W        W28403  13.369   6.846  10.674
63243W        W28404   2.884  13.771  10.823
63244W        W28405   8.260  17.999   0.319
63245W        W28406   8.673  19.204   1.222
63246W        W28407  36.650  22.082  12.766
63247W        W28408   6.496  41.239  12.940
63248W        W28409  21.155   0.652   1.267
63249W        W28410  36.106  17.903   0.213
63250W        W28411  34.248   1.904  11.770
63251W        W28412   1.549  24.564   1.722
63252W        W28413   1.496  23.005  10.542
63253W        W28414  28.055  40.036   1.792
63254W        W28415  32.360  15.615  14.164
63255W        W28416  16.548  16.776   3.731
63256W        W28417  16.067   6.646   0.423
63257W        W28418  14.494   0.946   3.679
63258W        W28419  30.193  35.165   1.839
63259W        W28420  44.660  25.481   1.812
63260W        W28421   5.051  20.597   3.680
63261W        W28422   3.753  31.303  13.092
63262W        W28423   7.688  17.009  10.878
63263W        W28424   4.237  41.387   4.619
63264W        W28425  37.005  18.257  13.747
63265W        W28426  36.077   8.030   4.561
63266W        W28427  23.259   7.059   1.854
63267W        W28428  22.622  14.674  13.827
63268W        W28429   1.795  41.047   3.848
63269W        W28430  20.786  44.521   0.931
63270W        W28431  30.666  35.606   3.304
63271W        W28432  29.965  12.595  13.322
63272W        W28433  28.042  42.839   4.052
63273W        W28434   2.735  28.635   3.260
63274W        W28435  23.463  41.896   3.693
63275W        W28436   2.039  39.915  11.174
63276W        W28437  36.791  36.124   3.371
63277W        W28438  18.080  26.620   2.298
63278W        W28439  30.182  36.020   4.113
63279W        W28440  20.580  38.523   4.334
63280W        W28441   6.178  26.140  13.330
63281W        W28442  32.654  28.409  12.525
63282W        W28443  33.327  30.022  10.664
63283W        W28444  18.995  33.582  12.428
63284W        W28445  28.121  43.302  10.671
63285W        W28446  34.960  18.685  13.886
63286W        W28447   3.104  18.705   2.737
63287W        W28448  24.806  38.990   0.297
63288W        W28449  15.686  22.788  11.576
63289W        W28450  27.094  12.630   2.755
63290W        W28451  11.126  16.681   2.756
63291W        W28452  19.085  40.059  14.298
63292W        W28453  40.394   4.957   4.601
63293W        W28454  25.436  26.667   3.767
63294W        W28455  22.897  35.710  14.461
63295W        W28456  19.049  29.847  11.073
63296W        W28457   4.390  43.821  14.178
63297W        W28458  43.537  13.251  13.808
63298W        W28459  33.932  34.851  10.190
63299W        W28460  14.179  13.767  13.409
63300W        W28461  11.225  43.418   2.942
63301W        W28462  17.272  11.792   4.901
63302W        W28463  10.692  22.171  13.122
63303W        W28464  32.381  11.348  10.463
63304W        W28465  19.234   5.453   2.565
63305W        W28466  38.309  30.319   4.775
63306W        W28467  32.987   6.360   0.750
63307W        W28468   9.633  20.291  13.539
63308W        W28469  34.429  31.740  10.159
63309W        W28470  24.154  24.043  14.544
63310W        W28471  39.428   9.439   1.253
63311W        W28472   2.305  43.791  12.487
63312W        W28473   7.983   6.224   2.096
63313W        W28474  24.055  33.683   1.597
63314W        W28475  42.770   0.050  12.746
63315W        W28476   9.161  22.696  11.848
63316W        W28477  15.122   8.712   0.751
63317W        W28478  27.613  10.524   2.212
63318W        W28479  27.276  24.098  13.918
63319W        W28480  33.551  20.971   4.162
63320W        W28481  14.646  24.632  14.282
63321W        W28482   3.319  44.550   1.938
63322W        W28483  24.201  18.850  12.813
63323W        W28484  43.933   6.335   2.647
63324W        W28485  31.485  21.200  11.720
63325W        W28486  16.106  20.167   3.105
63326W        W28487   7.167  37.065   1.226
63327W        W28488  37.813   3.211  11.999
63328W        W28489  34.078  27.960  14.312
63329W        W28490  24.237  42.873   3.245
63330W        W28491   0.962  25.785  12.416
63331W        W28492   4.364   4.677  13.428
63332W        W28493  28.949  40.818  11.690
63333W        W28494  13.642   4.751  11.062
63334W        W28495  13.819   0.915  12.111
63335W        W28496  10.861  25.485   1.935
63336W        W28497  12.745  11.932  13.477
63337W        W28498  31.625  28.552  11.542
63338W        W28499  39.992   6.715  10.715
63339W        W28500  29.897   9.617   4.223
63340W        W28501  22.594  18.612  10.171
63341W        W28502   1.959  36.021  10.443
63342W        W28503  33.874   4.865  12.703
63343W        W28504  13.109  44.463   4.649
63344W        W28505  12.933  10.883   3.700
63345W        W28506  25.035   4.416  12.479
63346W        W28507  19.025  33.354  10.510
63347W        W28508  32.866  29.128  11.166
63348W        W28509  21.161  10.280  13.554
63349W        W28510  21.988  21.074   3.283
63350W        W28511  29.536  38.343   3.137
63351W        W28512  32.382  10.689  11.697
63352W        W28513  10.918  32.358   3.518
63353W        W28514  29.547  40.075  11.566
63354W        W28515  44.916  34.437  14.458
63355W        W28516  16.179  28.418   2.671
63356W        W28517  13.326  39.563   1.298
63357W        W28518  28.651  15.238   2.302
63358W        W28519  23.165  15.137   1.580
63359W        W28520  11.588  34.565   3.707
63360W        W28521  18.500  36.105  13.818
63361W        W28522  39.371  28.699   0.710
63362W        W28523  13.900  21.087  14.205
63363W        W28524  32.119  28.449   1.859
63364W        W28525   6.215  17.025   4.850
63365W        W28526  19.124   5.100  10.502
63366W        W28527  17.756   0.933  10.700
63367W        W28528  21.731  12.775  14.831
63368W        W28529  37.472   7.365  14.279
63369W        W28530  30.537  22.568   3.665
63370W        W28531  32.975   9.220  14.491
63371W        W28532  30.531  44.256  13.990
63372W        W28533   7.793   2.870   4.628
63373W        W28534  29.683  31.045   2.371
63374W        W28535  20.756  35.607  14.888
63375W        W28536  12.565   0.427  13.520
63376W        W28537  43.359   2.724  10.661
63377W        W28538  10.182  34.482  11.306
63378W        W28539  20.366   0.904  12.023
63379W        W28540  22.861  28.187  14.992
63380W        W28541  35.360   6.225   3.244
63381W        W28542  12.574   2.981   0.775
63382W        W28543  20.106   2.288  10.464
63383W        W28544  24.636  33.663  14.239
63384W        W28545  18.523   7.292   1.521
63385W        W28546  24.019  39.288   0.880
63386W        W28547  15.074  29.028   0.254
63387W        W28548  22.569  18.119  11.374
63388W        W28549  21.212  40.603   1.616
63389W        W28550  18.718  15.161   0.203
63390W        W28551  12.371  27.793   0.893
63391W        W28552  21.142  36.050   0.548
63392W        W28553  41.393  32.206   1.021
63393W        W28554  31.400  12.840   2.152
63394W        W28555  14.346  42.187  13.883
63395W        W28556  36.887   2.538   3.250
63396W        W28557  38.043  20.347   0.979
63397W        W28558  20.820  23.715   3.733
63398W        W28559  39.094   2.474   0.848
63399W        W28560  43.298  28.931  13.414
63400W        W28561  43.062   7.147  12.450
63401W        W28562  24.990  22.118   0.069
63402W        W28563  31.124  29.441   0.839
63403W        W28564  19.044  16.116  11.953
63404W        W28565  10.050  43.547   3.583
63405W        W28566  39.339  44.016   1.344
63406W        W28567  30.171  15.094  12.031
63407W        W28568   8.825  34.005   0.892
63408W        W28569   0.086  10.607   0.435
63409W        W28570  26.467  26.652   3.694
63410W        W28571   7.841  25.100   1.828
63411W        W28572  33.149  27.885   4.127
63412W        W28573  16.230  33.561   1.588
63413W        W28574  40.377   3.482   3.788
63414W        W28575   8.421   7.300  14.507
63415W        W28576  30.109  40.601  11.055
63416W        W28577  18.832   7.043   0.462
63417W        W28578  16.740  30.766   0.687
63418W        W28579  11.779   5.842  13.818
63419W        W28580   1.845  34.330  14.233
63420W        W28581  35.902   7.859  11.670
63421W        W28582  35.413  21.350   0.352
63422W        W28583  38.465  41.434   4.945
63423W        W28584  30.524   6.342  12.891
63424W        W28585   7.094   5.516   2.733
63425W        W28586  13.812  34.203  13.254
63426W        W28587   4.810  12.628  14.848
63427W        W28588  10.711  39.457   4.606
63428W        W28589  11.333   8.671  10.642
63429W        W28590  25.951  43.305   2.762
63430W        W28591   5.626  28.134   1.004
63431W        W28592   8.878  38.940  13.346
63432W        W28593   8.388  20.664  10.827
63433W        W28594  19.491  13.614  10.644
63434W        W28595  18.736  27.185   1.252
63435W        W28596  36.836  24.161   4.576
63436W        W28597  14.274   3.528   4.755
63437W        W28598  24.670   4.283   4.344
63438W        W28599  39.773  18.257   2.763
63439W        W28600  16.783   0.251   2.717
63440W        W28601  39.699  28.909  12.842
63441W        W28602  27.792  35.120  11.616
63442W        W28603  18.883   9.283  12.660
63443W        W28604  11.808  40.570   0.956
63444W        W28605  17.053  44.554   2.399
63445W        W28606   3.886  23.626   0.193
63446W        W28607   0.154  23.397  14.716
63447W        W28608  31.584   6.542  12.548
63448W        W28609   4.676   8.144  11.927
63449W        W28610  33.368  34.835   3.883
63450W        W28611   9.669   2.327  10.671
63451W        W28612   1.460  33.096   3.574
63452W        W28613  22.279   1.102  12.631
63453W        W28614  34.529  30.050  11.299
63454W        W28615  33.357   6.690   2.627
63455W        W28616  21.459  37.940  14.810
63456W        W28617  17.107  27.072   0.022
63457W        W28618   3.249  22.649  14.793
63458W        W28619  27.394  28.163   1.044
63459W        W28620  31.862  41.423   4.444
63460W        W28621  28.140  26.122   2.204
63461W        W28622  35.043  15.566   2.308
63462W        W28623  43.417  14.078  14.068
63463W        W28624   3.510   2.725   2.252
63464W        W28625  13.283  11.100  12.459
63465W        W28626  23.074  19.854  14.685
63466W        W28627  35.431  13.511   0.789
63467W        W28628  43.940  21.992  10.524
63468W        W28629  20.485  26.717  13.816
63469W        W28630   7.327   6.940   1.270
63470W        W28631   7.444  44.184  13.450
63471W        W28632  27.348  38.130   5.095
63472W        W28633  16.399  34.589   0.787
63473W        W28634  26.073  14.152   0.982
63474W        W28635  12.451  33.387  14.757
63475W        W28636  18.733   1.428   2.128
63476W        W28637  25.253  36.541   1.319
63477W        W28638   0.906  21.346  11.029
63478W        W28639  30.236  34.146   4.014
63479W        W28640  21.645  22.427  12.648
63480W        W28641  31.000   9.271   2.176
63481W        W28642  38.531  28.595   0.348
63482W        W28643  34.446  40.909  13.558
63483W        W28644  27.672   7.382  10.657
63484W        W28645  42.791  11.239  14.595
63485W        W28646  11.661  11.242  14.562
63486W        W28647  23.526  17.191   0.022
63487W        W28648  42.566   1.911   0.314
63488W        W28649  17.985  33.602   4.263
63489W        W28650  44.101  42.048   1.095
63490W        W28651  22.860  24.904   1.578
63491W        W28652  42.490  12.651  13.128
63492W        W28653  19.357  29.174  11.523
63493W        W28654  40.709  35.927  11.995
63494W        W28655  40.401  17.484  13.101
63495W        W28656  33.661  27.077  12.345
63496W        W28657  29.526  12.673   4.282
63497W        W28658  39.374   8.257   0.331
63498W        W28659  27.565   8.866  10.688
63499W        W28660   9.392  17.799  12.936
63500W        W28661   4.810  18.493   4.098
63501W        W28662  30.298   4.835   4.799
63502W        W28663  15.143  38.619  14.667
63503W        W28664  34.865   1.253   2.128
63504W        W28665  10.646  25.139   4.553
63505W        W28666  11.424  44.404  11.303
63506W        W28667  44.674  32.377  13.315
63507W        W28668  31.415  35.881   2.329
63508W        W28669  34.022  41.747  11.196
63509W        W28670  32.081  23.117   0.042
63510W        W28671  41.037  29.603  11.958
63511W        W28672  43.798  16.138  13.793
63512W        W28673  13.042  14.595   4.062
63513W        W28674  34.361  34.532  14.230
63514W        W28675  23.537  22.459  14.938
63515W        W28676  29.381  41.146   3.693
63516W        W28677  15.896  16.946  13.211
63517W        W28678  33.517   1.467  14.917
63518W        W28679  40.366  15.759   3.174
63519W        W28680  15.550   0.432  10.749
63520W        W28681  21.429  10.496  11.579
63521W        W28682  18.144  22.453  11.967
63522W        W28683  11.883  34.468   4.121
63523W        W28684   9.226  33.632  10.195
63524W        W28685  26.269   4.353   1.892
63525W        W28686  13.062  16.755  13.008
63526W        W28687   4.831  29.172   4.113
63527W        W28688  32.794  44.024   1.996
63528W        W28689  43.117  34.588   1.786
63529W        W28690   8.630  41.954   2.463
63530W        W28691  44.795  39.826  14.432
63531W        W28692   1.947   1.221  13.904
63532W        W28693  15.033  38.094   1.189
63533W        W28694  11.174  18.212   3.727
63534W        W28695  42.498  21.831   3.175
63535W        W28696  10.308  18.739  14.009
63536W        W28697  11.266  37.471  14.731
63537W        W28698   9.616   6.598   1.310
63538W        W28699   7.540  26.752   3.130
63539W        W28700  29.968  33.561   4.639
63540W        W28701   7.932  23.171   2.332
63541W        W28702  33.018   4.928  13.384
63542W        W28703  16.199  37.117  13.334
63543W        W28704  16.667  27.920  11.403
63544W        W28705  13.427   3.631  10.319
63545W        W28706  14.801  43.018  12.423
63546W        W28707   6.974  42.288  10.681
63547W        W28708  10.234   5.335   4.641
63548W        W28709   8.911  33.722   3.968
63549W        W28710  18.272   2.876  13.424
63550W        W28711  16.066  38.146   4.816
63551W        W28712   2.255   6.793  11.568
63552W        W28713  13.184  25.181  13.441
63553W        W28714  39.170  20.810  13.634
63554W        W28715   9.608   4.338   4.583
63555W        W28716  22.759  10.786   4.769
63556W        W28717  19.493  39.353   2.244
63557W        W28718   8.624  29.079  13.393
63558W        W28719  11.881  39.461   0.412
63559W        W28720  32.094   8.485   2.472
63560W        W28721   1.747  40.467  13.423
63561W        W28722   0.826  16.629  10.656
63562W        W28723  21.522  37.888   1.871
63563W        W28724  30.948  31.968  11.374
63564W        W28725  28.512  41.594  12.558
63565W        W28726   2.955   0.840  11.084
63566W        W28727  29.329   6.163  13.498
63567W        W28728   6.726  17.814   4.514
63568W        W28729   2.398  16.165   3.202
63569W        W28730  10.180   5.248   1.477
63570W        W28731  28.563  40.921  12.047
63571W        W28732  34.673  40.958   1.405
63572W        W28733  32.499  35.998  11.475
63573W        W28734  43.659  35.607  12.642
63574W        W28735  22.037  36.522   1.982
63575W        W28736  35.415   1.677   0.340
63576W        W28737   1.599  16.138   4.946
63577W        W28738   6.979  10.798   1.650
63578W        W28739  19.092   0.726   1.905
63579W        W28740  32.955  41.460  14.755
63580W        W28741   3.772   9.583   2.399
63581W        W28742  13.601  31.071  11.068
63582W        W28743   9.355  43.943   3.295
63583W        W28744   4.984  10.723   3.924
63584W        W28745  18.562  19.382  14.818
63585W        W28746   1.885  24.288  13.803
63586W        W28747   2.085   8.043   3.605
63587W        W28748  23.460  35.275   1.753
63588W        W28749  31.379  39.994  14.386
63589W        W28750  25.878  41.418   0.947
63590W        W28751  13.856  24.089  12.406
63591W        W28752  28.848  33.965   0.288
63592W        W28753  24.199  25.976   5.000
63593W        W28754  21.692  11.326   2.702
63594W        W28755  44.836   5.478  13.848
63595W        W28756  30.460   8.219  14.039
63596W        W28757  38.878  21.767   3.309
63597W        W28758  12.310   2.877   4.099
63598W        W28759  10.139   3.438   4.607
63599W        W28760  26.984  24.051  10.647
63600W        W28761   8.016  24.656   3.305
63601W        W28762  38.576  35.131   2.263
63602W        W28763  27.334  35.759   0.877
63603W        W28764  18.642   6.354   1.129
63604W        W28765  10.746  41.485  10.664
63605W        W28766  10.830  18.107  14.858
63606W        W28767  30.578   4.922  12.556
63607W        W28768  20.665  44.556  11.604
63608W        W28769  18.664  32.345   0.521
63609W        W28770  42.045  23.192   0.760
63610W        W28771  11.851  39.979   2.668
63611W        W28772  29.512   5.293   2.199
63612W        W28773  11.193  21.658   4.297
63613W        W28774  38.559  14.564   1.363
63614W        W28775  19.947   5.490  13.461
63615W        W28776  10.810  23.784   1.354
63616W        W28777  11.072   3.744   2.927
63617W        W28778  26.623  12.402   1.487
63618W        W28779  10.290  26.927   0.470
63619W        W28780  33.025  13.743  12.965
63620W        W28781   9.280  28.393   5.040
63621W        W28782  38.394   6.741  13.992
63622W        W28783   8.698  16.142   1.998
63623W        W28784  27.497  32.588   4.155
63624W        W28785  24.023  36.433  14.516
63625W        W28786   2.688  34.685   1.168
63626W        W28787  11.375  33.126   1.640
63627W        W28788  42.315  33.862   1.812
63628W        W28789   3.145  43.366  12.371
63629W        W28790   8.807   6.649   4.797
63630W        W28791  12.056  11.704   0.776
63631W        W28792   1.272  18.433  11.969
63632W        W28793  25.994  30.417  14.710
63633W        W28794  22.182  26.109  10.732
63634W        W28795  28.506   5.868  11.803
63635W        W28796  34.549  27.627  14.831
63636W        W28797  22.390  26.708   3.505
63637W        W28798  34.570  35.072  12.331
63638W        W28799  17.376   9.816  13.049
63639W        W28800  23.673  14.159   3.986
63640W        W28801  44.101  39.831   0.931
63641W        W28802  15.605   7.648  11.975
63642W        W28803  24.715  12.821  14.876
63643W        W28804  37.151   6.640   3.916
63644W        W28805  35.296   7.567   9.841
63645W        W28806  29.890   1.398   0.534
63646W        W28807  38.465  23.209   4.589
63647W        W28808  38.526  34.385   0.920
63648W        W28809  20.267  17.128   2.016
63649W        W28810  36.882  42.817   1.718
63650W        W28811  25.000  17.068  12.033
63651W        W28812  44.532  35.539   2.375
63652W        W28813  36.887  10.598   0.962
63653W        W28814  29.446  37.125   0.565
63654W        W28815  29.917  31.142  12.174
63655W        W28816  16.833  39.472  14.179
63656W        W28817  28.974  16.985   3.126
63657W        W28818   6.802  12.574  11.667
63658W        W28819  19.479  28.547   1.735
63659W        W28820   9.206  10.892  11.089
63660W        W28821   0.503   1.498  11.526
63661W        W28822  39.781  21.501  14.006
63662W        W28823  17.254  28.483   1.800
63663W        W28824  15.028  34.123  12.911
63664W        W28825   8.488   0.648  13.818
63665W        W28826  24.416  23.610  14.575
63666W        W28827  20.278   4.417   1.507
63667W        W28828  11.687  30.218   3.350
63668W        W28829  22.355  32.641   1.693
63669W        W28830  37.570  12.943  10.612
63670W        W28831  16.053   9.402  12.015
63671W        W28832   6.741  39.452   4.635
63672W        W28833  11.719  29.025  11.059
63673W        W28834   5.639  25.892  10.768
63674W        W28835  18.110  39.877   0.793
63675W        W28836  25.150  18.852   3.227
63676W        W28837  29.064  16.824   0.221
63677W        W28838  13.860  38.210  13.877
63678W        W28839  16.503  26.659  10.963
63679W        W28840  27.132  15.810  12.580
63680W        W28841   7.840  20.526   1.193
63681W        W28842  19.680  42.804  14.896
63682W        W28843  16.825  37.142  10.993
63683W        W28844  25.081   8.848   0.878
63684W        W28845   7.302  44.589  11.005
63685W        W28846   9.534   6.431   2.257
63686W        W28847   9.702  38.876   1.556
63687W        W28848  14.057   2.217   2.817
63688W        W28849  14.400   8.854  13.915
63689W        W28850   1.330  22.321  12.220
63690W        W28851  23.131   9.553  12.696
63691W        W28852   4.862  38.423  14.137
63692W        W28853  37.995  20.038   0.280
63693W        W28854  16.674  10.809   0.914
63694W        W28855  36.843  21.667   4.356
63695W        W28856   6.286  32.399   1.267
63696W        W28857  13.209  16.319   3.312
63697W        W28858  34.964  21.013  11.211
63698W        W28859  23.112  12.634  10.983
63699W        W28860  35.173  38.136  12.900
63700W        W28861  44.633  29.612   0.891
63701W        W28862  24.061  35.152   3.419
63702W        W28863  25.968  29.481   4.494
63703W        W28864  20.626  15.675   5.520
63704W        W28865  40.970  33.589   2.705
63705W        W28866   2.749  23.268   2.175
63706W        W28867   7.500  19.518   4.237
63707W        W28868  38.939  21.951  12.992
63708W        W28869  33.131  19.646   4.755
63709W        W28870   9.938   3.431  13.512
63710W        W28871  40.810  18.603   2.209
63711W        W28872  24.645  37.547   4.509
63712W        W28873  26.495  13.753  13.776
63713W        W28874  28.156  35.807  10.608
63714W        W28875   5.338  43.962  13.819
63715W        W28876   2.721  15.072   4.606
63716W        W28877  30.573   6.391   0.828
63717W        W28878  24.260  18.807  14.820
63718W        W28879  34.070  42.593   1.820
63719W        W28880  30.916  25.475  11.454
63720W        W28881  10.916   0.720   2.121
63721W        W28882  23.537  24.727   4.159
63722W        W28883  22.165  29.008   1.506
63723W        W28884  32.198   7.078  14.849
63724W        W28885  37.847   0.961  12.405
63725W        W28886   5.368  43.625   0.278
63726W        W28887  28.510  32.340  13.452
63727W        W28888  11.677  22.823   2.874
63728W        W28889  29.108  39.088  11.974
63729W        W28890   4.923  21.124  13.910
63730W        W28891  25.206   6.817   1.794
63731W        W28892  35.858  13.044  11.117
63732W        W28893  35.511   4.222  12.328
63733W        W28894  26.753  28.505   0.925
63734W        W28895  31.991  21.706  13.275
63735W        W28896   9.614   9.370  12.407
63736W        W28897   2.315  17.333   0.120
63737W        W28898   4.367  20.725   2.374
63738W        W28899  42.121  31.827  13.039
63739W        W28900   1.372   7.658   0.105
63740W        W28901  35.021  43.325  12.652
63741W        W28902  44.335  42.520  11.990
63742W        W28903  39.928  33.260  11.054
63743W        W28904  34.474  22.705   4.085
63744W        W28905  27.913   1.561   2.113
63745W        W28906  11.066  43.347  12.427
63746W        W28907  28.327  18.617   2.810
63747W        W28908   8.233  36.540   0.719
63748W        W28909  28.203  42.339   5.139
63749W        W28910  11.068  43.667  14.078
63750W        W28911  26.020  18.022   2.794
63751W        W28912   9.211  18.732   3.172
63752W        W28913  26.722  26.872   4.222
63753W        W28914   7.157  30.579   9.695
63754W        W28915  10.847   0.448  12.026
63755W        W28916  10.460  31.851  13.906
63756W        W28917   8.289  44.128   4.613
63757W        W28918  43.227  27.897  11.972
63758W        W28919  36.984  16.301   1.398
63759W        W28920   8.647  29.138   1.307
63760W        W28921  23.951  28.699  14.427
63761W        W28922  20.102  22.253   9.353
63762W        W28923  42.016  31.066  10.632
63763W        W28924  42.968   7.847  10.970
63764W        W28925   1.418  32.155  12.884
63765W        W28926  25.835  35.050  14.298
63766W        W28927  11.495  14.965   0.449
63767W        W28928   2.217  16.934   3.628
63768W        W28929  35.130  31.440   2.338
63769W        W28930  38.557  36.819  14.772
63770W        W28931  21.617   3.915  12.918
63771W        W28932  10.173  24.801   3.676
63772W        W28933  20.875  16.043  14.261
63773W        W28934  39.979   9.575  12.675
63774W        W28935  43.278  22.582  12.586
63775W        W28936  21.960  10.846   4.116
63776W        W28937  23.061   3.103  14.386
63777W        W28938  33.748  32.525   3.182
63778W        W28939   7.463  14.235  14.659
63779W        W28940  32.614   0.343   0.489
63780W        W28941  35.088  15.491  14.981
63781W        W28942  27.135  16.927  13.963
63782W        W28943   2.607  11.190  11.905
63783W        W28944  31.119  27.788   1.516
63784W        W28945  37.545  22.853   4.275
63785W        W28946   4.621  33.393   3.275
63786W        W28947  41.455  17.205   0.897
63787W        W28948  31.116  16.878   4.204
63788W        W28949   3.596  22.620   3.585
63789W        W28950  34.971  41.646  14.505
63790W        W28951  24.815  21.267  14.863
63791W        W28952   0.884  19.069  12.548
63792W        W28953  38.073  12.811   1.585
63793W        W28954  32.760  17.135   3.603
63794W        W28955  11.801  25.482  11.948
63795W        W28956  42.802  12.878  11.180
63796W        W28957  40.507  43.316   0.186
63797W        W28958  35.837  19.750  12.959
63798W        W28959  23.302  15.172   0.070
63799W        W28960   7.675  34.949   2.762
63800W        W28961  36.393  38.009  11.023
63801W        W28962  21.706  37.090   1.237
63802W        W28963  35.120  42.956  11.242
63803W        W28964  13.909  31.352   1.108
63804W        W28965  21.416  22.871   1.783
63805W        W28966  30.890  20.183   3.308
63806W        W28967  33.195  41.509   0.209
63807W        W28968   2.916  17.661   3.602
63808W        W28969  41.338   4.467  13.785
63809W        W28970   1.548  24.091  12.952
63810W        W28971  39.370   5.247   3.176
63811W        W28972   3.281  10.429   4.149
63812W        W28973  43.717  19.118  12.885
63813W        W28974  16.766  21.954  14.756
63814W        W28975  20.725  30.299  12.527
63815W        W28976   2.325  15.875   4.552
63816W        W28977  17.040  20.121   5.044
63817W        W28978  15.131  44.440  10.723
63818W        W28979  14.042   6.667   2.738
63819W        W28980  39.905   8.699  14.271
63820W        W28981  20.292  31.919   9.910
63821W        W28982  15.725  12.869  13.543
63822W        W28983  32.102   6.944   0.447
63823W        W28984  40.867  18.865   4.671
63824W        W28985  36.104   7.713   2.795
63825W        W28986   2.433   3.875   3.076
63826W        W28987   4.553  20.351   4.070
63827W        W28988  26.960   1.409   0.871
63828W        W28989   7.719  20.699   0.188
63829W        W28990   8.186  12.519  11.998
63830W        W28991  16.274  14.272  13.779
63831W        W28992  36.772  16.107  11.991
63832W        W28993  11.297  43.250  10.737
63833W        W28994   2.772  24.988   0.063
63834W        W28995   3.840  22.913  14.119
63835W        W28996   4.366  12.750  12.026
63836W        W28997  16.771   0.954  14.194
63837W        W28998  18.019  38.131  14.462
63838W        W28999   8.007   7.130   4.982
63839W        W29000  34.886   3.243  11.725
63840W        W29001  36.603  18.561  10.780
63841W        W29002  38.535   2.156   4.519
63842W        W29003   3.688  37.347   3.852
63843W        W29004  26.983   0.788  13.589
63844W        W29005  34.174  42.500   0.061
63845W        W29006  40.932   5.332   3.372
63846W        W29007   5.336  15.665  11.996
63847W        W29008   3.465  42.497  10.777
63848W        W29009  16.857  10.220   2.305
63849W        W29010   7.257  26.505   0.260
63850W        W29011  31.800  33.187  10.498
63851W        W29012  18.227   5.904  14.986
63852W        W29013  43.082  40.250  11.987
63853W        W29014  30.497  33.895   4.397
63854W        W29015  21.307  30.565  14.997
63855W        W29016   1.373  36.818   0.389
63856W        W29017  21.738  27.241   1.427
63857W        W29018  43.784  14.342  11.157
63858W        W29019   8.599  20.294  10.431
63859W        W29020  39.866  42.510   3.737
63860W        W29021  42.087  11.279  10.844
63861W        W29022  43.892   5.455  13.360
63862W        W29023  20.198   4.397   4.325
63863W        W29024  36.480  18.628   2.236
63864W        W29025  34.488   7.446  13.881
63865W        W29026  36.813   6.259   1.732
63866W        W29027  24.999  29.956  13.391
63867W        W29028   9.022  41.699   0.871
63868W        W29029  35.077  37.438   1.046
63869W        W29030  18.366   9.159  11.633
63870W        W29031  32.984  44.224  12.568
63871W        W29032  31.120  29.759  13.401
63872W        W29033  11.659   5.632   0.312
63873W        W29034  10.723  10.406  12.584
63874W        W29035   4.707  24.246   1.236
63875W        W29036  15.661  24.734   0.952
63876W        W29037  13.051  42.916   5.060
63877W        W29038  17.954  29.941   2.387
63878W        W29039  36.490  18.079   0.537
63879W        W29040  27.214  42.871  13.142
63880W        W29041  30.542  22.767  13.953
63881W        W29042   0.678   5.370  13.752
63882W        W29043  22.520   6.878   3.376
63883W        W29044  25.179  39.770   1.749
63884W        W29045  23.523  27.749  12.221
63885W        W29046   8.669  28.099  14.708
63886W        W29047  15.390  30.159  11.133
63887W        W29048  16.207  44.057   3.252
63888W        W29049   5.273   8.877  14.819
63889W        W29050  17.771  18.054   1.133
63890W        W29051  39.404  13.139  13.971
63891W        W29052  43.752  32.949  11.824
63892W        W29053  42.934   0.180  11.363
63893W        W29054  39.427  22.126  12.880
63894W        W29055   4.379  21.179   3.694
63895W        W29056  21.252  25.926  13.018
63896W        W29057  40.251  32.144  12.938
63897W        W29058  43.894  29.386   3.605
63898W        W29059  28.979  37.557  13.001
63899W        W29060  22.029  33.468  13.411
63900W        W29061  16.093  11.555   4.300
63901W        W29062   6.362  40.880   1.157
63902W        W29063  17.282  22.477  11.605
63903W        W29064  31.769  23.115   3.374
63904W        W29065   5.486  20.648  12.782
63905W        W29066  33.497  25.665  10.954
63906W        W29067  42.625   5.436  11.060
63907W        W29068  44.966  14.173  10.424
63908W        W29069   1.729  40.038   2.312
63909W        W29070  34.362  37.071  14.295
63910W        W29071  21.636  34.020  11.662
63911W        W29072  26.248  35.525   4.893
63912W        W29073   6.809  23.394   0.993
63913W        W29074  26.191  25.702  12.081
63914W        W29075  23.036  34.681  10.999
63915W        W29076  36.016  35.046   4.321
63916W        W29077  29.104   8.864  13.396
63917W        W29078  15.320  23.169  12.554
63918W        W29079  27.189  35.098  14.249
63919W        W29080  37.346  39.777  13.783
63920W        W29081  20.654  23.474  13.803
63921W        W29082  28.644  11.563   3.596
63922W        W29083  20.013  25.078   1.801
63923W        W29084  17.548   1.134   1.858
63924W        W29085  28.421   1.273  13.581
63925W        W29086  44.077   7.282   0.347
63926W        W29087  19.655  29.046  12.054
63927W        W29088   8.769  27.926   0.834
63928W        W29089  39.114  44.877  11.119
63929W        W29090  41.521  39.722   4.582
63930W        W29091  29.534  32.987   1.379
63931W        W29092  10.461  44.751   4.027
63932W        W29093  43.865  15.767   0.704
63933W        W29094  26.405   0.443   0.802
63934W        W29095  27.135  16.781  14.479
63935W        W29096  23.728  38.939   2.455
63936W        W29097   7.816  32.681   0.885
63937W        W29098  40.204  40.261  14.257
63938W        W29099   2.739  11.354   3.668
63939W        W29100  22.617  28.639   0.018
63940W        W29101  29.400  26.521  10.628
63941W        W29102  22.137  38.569   4.105
63942W        W29103  25.205  39.213   1.355
63943W        W29104  17.489  10.764  14.860
63944W        W29105  34.210  32.472  14.118
63945W        W29106  29.477  21.069  10.333
63946W        W29107   3.743  13.777  11.651
63947W        W29108  37.112  11.303   2.691
63948W        W29109  14.702  29.733  12.811
63949W        W29110  24.685  20.271   3.568
63950W        W29111  30.600  24.400   4.390
63951W        W29112   4.008  14.740   4.204
63952W        W29113  20.939  25.140  11.245
63953W        W29114  24.028  14.639  14.969
63954W        W29115  16.649  43.975   1.668
63955W        W29116  25.394  29.259  10.787
63956W        W29117  30.952  40.200  13.002
63957W        W29118  41.837   4.707  13.522
63958W        W29119  20.263  38.325  14.707
63959W        W29120  10.922  31.982  11.735
63960W        W29121  34.130  18.635  12.971
63961W        W29122  23.698  32.847   2.826
63962W        W29123   0.599  29.503  12.522
63963W        W29124  24.500  33.996   1.003
63964W        W29125  41.796   3.407   1.814
63965W        W29126  37.104   3.244   0.218
63966W        W29127  37.687  28.425   0.937
63967W        W29128   3.933  33.386  12.918
63968W        W29129  19.661   0.385   4.211
63969W        W29130   7.041   9.122  12.050
63970W        W29131  39.349  42.821   5.307
63971W        W29132  30.727  35.815  14.619
63972W        W29133  15.353  44.643  11.158
63973W        W29134  33.482  43.121   0.852
63974W        W29135  30.434  21.335   3.996
63975W        W29136  21.776  10.636   4.580
63976W        W29137  31.205  33.046  13.391
63977W        W29138  18.424  19.263  10.778
63978W        W29139  17.153  35.019  13.293
63979W        W29140   6.378  36.476  14.409
63980W        W29141  26.694  12.770   4.601
63981W        W29142  22.093   2.933   1.791
63982W        W29143  10.141  19.282   1.734
63983W        W29144   5.705   8.770   2.954
63984W        W29145  11.675   5.842  14.319
63985W        W29146  18.573  20.379   4.220
63986W        W29147  42.327  43.439  14.208
63987W        W29148  33.561  44.801  11.766
63988W        W29149  13.233  24.669  14.365
63989W        W29150  37.175  24.598   3.684
63990W        W29151   5.272  11.822  12.400
63991W        W29152   3.904  13.158  14.936
63992W        W29153  27.290  16.706   1.046
63993W        W29154  14.654  30.564   2.884
63994W        W29155  13.224  26.825  10.940
63995W        W29156   6.755  23.914  13.139
63996W        W29157  28.668   0.016   3.666
63997W        W29158   5.709  21.214  10.150
63998W        W29159  22.035  16.036   0.322
63999W        W29160  21.041  10.813  10.698
64000W        W29161  32.613   7.925  10.774
64001W        W29162  24.437  17.216   4.213
64002W        W29163  42.582  23.051   3.532
64003W        W29164  27.967  24.175   3.611
64004W        W29165  40.038  38.072  10.756
64005W        W29166  41.936  24.775  14.749
64006W        W29167  43.968   7.667  13.444
64007W        W29168  33.426  12.291  11.561
64008W        W29169   4.356   3.444  14.916
64009W        W29170  40.276   1.587  11.717
64010W        W29171   5.090  25.501  13.156
64011W        W29172   2.177  30.058  12.921
64012W        W29173  21.760  36.560   1.227
64013W        W29174  30.248  42.815   0.029
64014W        W29175  34.988  14.227   3.402
64015W        W29176  29.535  39.792  11.068
64016W        W29177  28.271  18.656   4.160
64017W        W29178  32.655  11.213  14.256
64018W        W29179  16.055  23.359   1.610
64019W        W29180  22.699  12.773   1.591
64020W        W29181   4.397   3.911  13.988
64021W        W29182   7.138  21.565   2.131
64022W        W29183   9.224  27.063  14.362
64023W        W29184  12.791  43.735   3.247
64024W        W29185   2.297   8.875  14.867
64025W        W29186  31.897   0.347  11.106
64026W        W29187  34.383  14.273  11.133
64027W        W29188  20.019  34.230  11.098
64028W        W29189  35.761   4.304  11.033
64029W        W29190  42.470   0.429  14.582
64030W        W29191   7.291  25.611   2.280
64031W        W29192   4.899  21.586   2.499
64032W        W29193  13.233  28.373   3.333
64033W        W29194  29.945   2.367   1.320
64034W        W29195  37.852   9.314   4.052
64035W        W29196  34.492  33.396   4.343
64036W        W29197  39.835   0.026   1.845
64037W        W29198   3.758  43.331  12.451
64038W        W29199  42.749  38.063  11.708
64039W        W29200   3.502  15.082   2.357
64040W        W29201  14.329  41.019  12.975
64041W        W29202  25.909   1.399   1.831
64042W        W29203  37.128  34.799   4.144
64043W        W29204   4.963   3.971   0.129
64044W        W29205  44.007  21.572   4.159
64045W        W29206  11.669  25.137   4.793
64046W        W29207  30.881   4.475   3.630
64047W        W29208  34.486  11.494   4.082
64048W        W29209  43.368  41.277  13.040
64049W        W29210  41.900  34.178   0.915
64050W        W29211  11.153  23.735  11.195
64051W        W29212  29.566   8.546   2.265
64052W        W29213  11.390  43.042   2.147
64053W        W29214   3.238   4.996   2.263
64054W        W29215  19.224  23.218  11.996
64055W        W29216  25.573  16.362  12.431
64056W        W29217  12.271  12.732   4.883
64057W        W29218  43.158  31.981  10.603
64058W        W29219   0.985   2.996   3.622
64059W        W29220  32.691  40.202  14.328
64060W        W29221  11.722  12.532  11.895
64061W        W29222  17.450  16.369  12.004
64062W        W29223  44.837  28.265   1.744
64063W        W29224   3.994  29.060   0.683
64064W        W29225  19.640  33.643  12.873
64065W        W29226  31.135  31.265  14.396
64066W        W29227   9.388  14.381  12.052
64067W        W29228  29.520  20.096   3.856
64068W        W29229  18.585  22.190  12.347
64069W        W29230   6.504  32.524   2.835
64070W        W29231  26.964   2.831  12.125
64071W        W29232  38.400  33.985   1.273
64072W        W29233  20.201  40.632   1.743
64073W        W29234  19.989  21.459   0.356
64074W        W29235  30.931  10.786  11.357
64075W        W29236  24.641  36.639   2.615
64076W        W29237  21.310  28.647  10.633
64077W        W29238  18.627  31.320   1.481
64078W        W29239   7.930  13.577   3.585
64079W        W29240  20.145  39.923  14.030
64080W        W29241   3.048  31.572  13.330
64081W        W29242  31.275  37.802   2.384
64082W        W29243  28.158  15.800   3.712
64083W        W29244   4.694  31.176   0.820
64084W        W29245   9.700  16.714   0.133
64085W        W29246  16.506   7.426   1.863
64086W        W29247  13.667  15.536   3.854
64087W        W29248  31.559  15.197  14.992
64088W        W29249   2.232   0.479  12.835
64089W        W29250  43.373  44.841  13.426
64090W        W29251   2.350   0.020  13.691
64091W        W29252  39.769  16.375   3.159
64092W        W29253  13.290   9.258   0.870
64093W        W29254  34.162  25.103  11.514
64094W        W29255  34.099  30.023   4.137
64095W        W29256  27.642  30.749  10.614
64096W        W29257   1.414  11.735  11.081
64097W        W29258  36.688  40.846  11.185
64098W        W29259  38.458  40.600   3.758
64099W        W29260   5.005  18.252   3.637
64100W        W29261   4.408  37.473   2.783
64101W        W29262  44.729  19.771  10.876
64102W        W29263  10.751  19.598  13.925
64103W        W29264  19.993  24.136  13.316
64104W        W29265  41.403  16.625   2.594
64105W        W29266  27.660  18.062   2.409
64106W        W29267   9.592  26.284   0.299
64107W        W29268  31.598  11.099   2.738
64108W        W29269  23.442  30.842  13.598
64109W        W29270  35.554   4.006  11.835
64110W        W29271  37.556  19.020   3.245
64111W        W29272   3.861   4.737  13.525
64112W        W29273  35.920  42.823  12.563
64113W        W29274  13.650  31.942   3.520
64114W        W29275  24.409  43.360   4.282
64115W        W29276  28.168   6.261   2.299
64116W        W29277   3.292  32.859  14.440
64117W        W29278  21.000   5.070   2.696
64118W        W29279   5.649  21.270   0.213
64119W        W29280   4.216  23.252   5.227
64120W        W29281   8.763  41.510   3.360
64121W        W29282  31.516  15.647   2.343
64122W        W29283  32.509  17.268  11.199
64123W        W29284  11.699   9.105   1.163
64124W        W29285  43.782   6.165   1.654
64125W        W29286  42.362  39.321   0.882
64126W        W29287   8.956  37.605  12.834
64127W        W29288  27.063  12.774   0.994
64128W        W29289   0.447  22.472  14.690
64129W        W29290  17.743  14.552   2.730
64130W        W29291   7.679   6.649  12.912
64131W        W29292  27.168  23.787   9.726
64132W        W29293  31.897  10.183  13.959
64133W        W29294   3.757  40.600  14.936
64134W        W29295   1.110  17.320  12.965
64135W        W29296  12.508   6.789   4.023
64136W        W29297  35.559   2.912  11.681
64137W        W29298  25.025   3.148   1.219
64138W        W29299  40.644  44.338   2.095
64139W        W29300   4.383  16.554   3.283
64140W        W29301  41.541   1.949   4.787
64141W        W29302  21.717  39.633   4.367
64142W        W29303  37.342   7.668   1.887
64143W        W29304   6.292  38.602  11.579
64144W        W29305   0.565  23.137   2.381
64145W        W29306  37.554  39.932  10.551
64146W        W29307  19.379  20.260   2.805
64147W        W29308  44.366  41.088  13.364
64148W        W29309  24.972  40.902   0.980
64149W        W29310  26.401   8.372   0.997
64150W        W29311   5.612   4.091   1.020
64151W        W29312  19.287   5.158   3.254
64152W        W29313   4.958  14.606   3.734
64153W        W29314   0.383   8.738  13.845
64154W        W29315  19.976  35.137   2.255
64155W        W29316  12.368  28.064  11.939
64156W        W29317   0.183  10.195   2.748
64157W        W29318  32.204  31.465   1.889
64158W        W29319  33.159   3.601   4.274
64159W        W29320   9.100  34.321   4.892
64160W        W29321  21.454  28.817  11.990
64161W        W29322  24.274  32.435  14.201
64162W        W29323  27.536  40.336   3.178
64163W        W29324   4.288  20.097   4.631
64164W        W29325  26.411  26.996  11.007
64165W        W29326  33.340  18.871  14.925
64166W        W29327  44.982  15.248  12.544
64167W        W29328  15.179  20.217  11.735
64168W        W29329  31.862   3.361   0.340
64169W        W29330  32.517  43.538  11.170
64170W        W29331   9.349  40.901   2.069
64171W        W29332  10.632  10.983   2.429
64172W        W29333  26.441   6.349  14.798
64173W        W29334  29.677   1.209  13.633
64174W        W29335  11.731  44.926   3.988
64175W        W29336   4.735  39.720   4.247
64176W        W29337  11.938  11.235   2.640
64177W        W29338  42.394  26.204   0.974
64178W        W29339  18.315  35.088   0.766
64179W        W29340  12.133  32.919   3.616
64180W        W29341  15.300   0.787  14.773
64181W        W29342  38.432  31.172   2.415
64182W        W29343  16.765  22.450   1.423
64183W        W29344  40.382  21.043   4.525
64184W        W29345  37.690  42.084   0.052
64185W        W29346  26.535   1.194  12.447
64186W        W29347  36.038  21.167   2.434
64187W        W29348  23.874  38.516  13.479
64188W        W29349  35.955  16.861   3.745
64189W        W29350  23.773  16.311   2.235
64190W        W29351  22.838  13.462   0.967
64191W        W29352  27.521  20.977   1.398
64192W        W29353   3.819   0.937  14.544
64193W        W29354   2.665  39.048   2.226
64194W        W29355  41.713  31.025   0.275
64195W        W29356   9.099  10.667   4.465
64196W        W29357   0.464  15.655  11.361
64197W        W29358  27.670  28.757  13.848
64198W        W29359   6.570   0.389   0.229
64199W        W29360  17.627  20.046   2.091
64200W        W29361  11.585  32.945  13.846
64201W        W29362  22.977   3.146   1.397
64202W        W29363  11.124  38.838   1.370
64203W        W29364  40.945  21.006  10.705
64204W        W29365  43.426  34.693   5.515
64205W        W29366  41.030  26.466   0.165
64206W        W29367  18.445   2.446  12.461
64207W        W29368  18.833  33.449   4.737
64208W        W29369  30.478   7.762  13.133
64209W        W29370  14.577  33.505  11.475
64210W        W29371  36.164  24.482  11.019
64211W        W29372  25.182  42.904   0.534
64212W        W29373   1.300   6.984  14.481
64213W        W29374  24.033  33.068  12.548
64214W        W29375  11.410  28.171   2.796
64215W        W29376  25.737   3.716  11.439
64216W        W29377  23.614  44.430  12.861
64217W        W29378   7.738  38.918   5.170
64218W        W29379  23.294  21.081  14.825
64219W        W29380   3.982   9.842   4.155
64220W        W29381  27.508   8.555   0.405
64221W        W29382  10.062  12.823   4.191
64222W        W29383  13.365  20.721   1.047
64223W        W29384   0.963  20.517  11.648
64224W        W29385  19.426  33.859  12.445
64225W        W29386  19.971  17.890   4.906
64226W        W29387  15.387  39.045  14.460
64227W        W29388   6.241  17.450   0.487
64228W        W29389  43.819   6.874   1.249
64229W        W29390  40.094  30.040   1.771
64230W        W29391  24.415  43.752  11.986
64231W        W29392  44.809   2.318   3.255
64232W        W29393  14.233  39.850   3.943
64233W        W29394  41.548   4.653  12.473
64234W        W29395  43.255  33.392   3.694
64235W        W29396  33.384  10.566   2.165
64236W        W29397  27.609   3.034  12.965
64237W        W29398  31.123  36.103  10.605
64238W        W29399  26.397   5.450   1.196
64239W        W29400  19.056  32.562   4.037
64240W        W29401  39.403  41.850   4.086
64241W        W29402  18.493  33.785  13.366
64242W        W29403  33.278  20.463  14.420
64243W        W29404  24.415  34.776   1.880
64244W        W29405   5.979  21.070   5.268
64245W        W29406  40.813  43.526   1.482
64246W        W29407  17.728  18.439  13.834
64247W        W29408   1.013   0.292   0.903
64248W        W29409  25.208  35.299  12.955
64249W        W29410  41.003   2.038  13.274
64250W        W29411  43.079   7.350  10.794
64251W        W29412  28.307   3.309   2.243
64252W        W29413  10.470  22.637  11.620
64253W        W29414  28.434  23.967  10.205
64254W        W29415  38.839  43.901  12.942
64255W        W29416  19.741  20.194  12.932
64256W        W29417  40.597   5.887   2.235
64257W        W29418  26.534  35.343   3.225
64258W        W29419   1.956  39.819  12.050
64259W        W29420   3.435  12.111   3.783
64260W        W29421  28.065  34.376   1.138
64261W        W29422  36.764  38.355  11.541
64262W        W29423   5.974  14.664  14.735
64263W        W29424  33.894  15.512   0.370
64264W        W29425  20.795   8.834  11.980
64265W        W29426  26.454   4.825   3.178
64266W        W29427   2.404  44.929  13.144
64267W        W29428  22.308  40.645   2.930
64268W        W29429  40.820  20.769   1.470
64269W        W29430   2.432   5.117   1.569
64270W        W29431  11.230  14.442   4.738
64271W        W29432  41.947  32.064  12.258
64272W        W29433  24.186  18.994   1.237
64273W        W29434  31.356   5.349   2.567
64274W        W29435  44.843  16.132   1.719
64275W        W29436   5.250   4.479  10.755
64276W        W29437   4.757  33.152  13.171
64277W        W29438  12.183  37.268   0.156
64278W        W29439   1.247   8.674   1.375
64279W        W29440  39.410  41.599  14.890
64280W        W29441  26.053   8.771   4.602
64281W        W29442  30.801  13.037  12.155
64282W        W29443   3.807  17.602   3.202
64283W        W29444  17.302  26.224  11.060
64284W        W29445  20.788  37.658  11.382
64285W        W29446   9.888  24.253   1.058
64286W        W29447  36.591  32.897  10.681
64287W        W29448  27.695  19.072  11.551
64288W        W29449  28.753   1.426  11.027
64289W        W29450  40.017  13.668  14.447
64290W        W29451  12.015  18.845   2.578
64291W        W29452  20.075  12.811  13.824
64292W        W29453  20.811  30.688   0.801
64293W        W29454  40.444  40.757  13.583
64294W        W29455  31.568   6.184   0.358
64295W        W29456  29.999  21.593   3.988
64296W        W29457  27.821  26.494  13.840
64297W        W29458  16.763  35.564  10.775
64298W        W29459  44.892  19.567   4.613
64299W        W29460  11.650  25.409   4.271
64300W        W29461   1.853  14.580   3.749
64301W        W29462  22.700  12.910   0.257
64302W        W29463  35.747   7.819   4.928
64303W        W29464  44.807   3.672  10.810
64304W        W29465  37.238  42.589   4.552
64305W        W29466  10.380  40.877   1.874
64306W        W29467   6.127  34.841  12.990
64307W        W29468   4.112  11.389   0.886
64308W        W29469  39.339  29.465  13.414
64309W        W29470  27.164   4.714  13.330
64310W        W29471  35.062  39.836  13.396
64311W        W29472  19.200   1.275   3.378
64312W        W29473  12.847  32.944  14.423
64313W        W29474  10.389  14.078   2.765
64314W        W29475  10.518  26.107  13.447
64315W        W29476  13.374  21.581   1.351
64316W        W29477   4.321   8.798  12.447
64317W        W29478  33.890  39.774  12.100
64318W        W29479  38.846  19.771   4.209
64319W        W29480  11.185  15.654  10.996
64320W        W29481  34.670  23.751   2.878
64321W        W29482  42.508  12.989   0.477
64322W        W29483  40.135  34.530   2.419
64323W        W29484   7.985  40.007  12.223
64324W        W29485   4.573  35.412   4.884
64325W        W29486   1.296   9.924   3.504
64326W        W29487  19.515  25.274   3.199
64327W        W29488  18.300  32.001   3.114
64328W        W29489  14.148  18.881  13.913
64329W        W29490  43.713   7.120  12.252
64330W        W29491   6.757  20.999   1.831
64331W        W29492  34.317   8.762   3.721
64332W        W29493  19.528  16.995  14.384
64333W        W29494  11.240   5.671   4.732
64334W        W29495  43.452  38.114   1.632
64335W        W29496  33.761  44.353   4.877
64336W        W29497  33.468   8.344   4.675
64337W        W29498  21.579  43.757   2.676
64338W        W29499  38.631  41.782  14.659
64339W        W29500  29.695  38.329  14.831
64340W        W29501  14.011  39.386   0.508
64341W        W29502   0.356  40.522  13.012
64342W        W29503   8.942  15.023  14.005
64343W        W29504  13.432  43.183  11.327
64344W        W29505  28.384   7.448  14.268
64345W        W29506   5.004  35.075   5.107
64346W        W29507  33.315  14.785   1.289
64347W        W29508  31.385  35.774  12.913
64348W        W29509  39.115  20.274  11.110
64349W        W29510  43.013  39.977  11.541
64350W        W29511  22.231  38.645   4.994
64351W        W29512  13.789  31.510  14.015
64352W        W29513  42.543  37.651  10.667
64353W        W29514  26.595  39.017   1.650
64354W        W29515   3.088  21.513  10.642
64355W        W29516  18.373   4.221  11.155
64356W        W29517  10.193   2.802  13.121
64357W        W29518  25.035  22.643   1.823
64358W        W29519  17.202  17.737  13.324
64359W        W29520   2.757  43.641   2.214
64360W        W29521   5.272  28.881  13.265
64361W        W29522  25.704   4.746  12.819
64362W        W29523  22.759  37.396  12.112
64363W        W29524  10.892  24.135  13.774
64364W        W29525  35.711  36.158  11.163
64365W        W29526  23.096  26.705   0.280
64366W        W29527  12.616  32.916  14.876
64367W        W29528   3.101  37.775   4.542
64368W        W29529  34.874   2.775  12.954
64369W        W29530   0.250  23.017  12.470
64370W        W29531  16.743  30.231   3.351
64371W        W29532  43.273  33.648  13.815
64372W        W29533  36.098  42.772   2.465
64373W        W29534  29.435  10.204   2.865
64374W        W29535  21.129  32.924   2.746
64375W        W29536  25.537   2.460  12.201
64376W        W29537  24.954  20.763   0.579
64377W        W29538  23.145   1.705   1.095
64378W        W29539  44.344  28.184  10.755
64379W        W29540  10.281   1.333  10.337
64380W        W29541  33.154  18.852   3.919
64381W        W29542  20.772  29.018   4.769
64382W        W29543  36.274  30.689  11.315
64383W        W29544  11.235  20.773   0.327
64384W        W29545  13.386  27.844  12.092
64385W        W29546  26.961   5.983   3.682
64386W        W29547  33.051  33.387  10.616
64387W        W29548  24.474  10.873   0.845
64388W        W29549  11.691  26.989  12.953
64389W        W29550  10.242  27.918  13.869
64390W        W29551  29.499  38.648   5.004
64391W        W29552  13.724  26.638   1.760
64392W        W29553  10.300   8.439  14.526
64393W        W29554  43.036   4.775  11.587
64394W        W29555  29.080  41.742   0.789
64395W        W29556  11.524  17.090   0.506
64396W        W29557  42.597  18.228  11.755
64397W        W29558  21.815  41.293   1.255
64398W        W29559  21.754  28.674  12.390
64399W        W29560  38.071  36.653  13.921
64400W        W29561  23.474  43.381   0.482
64401W        W29562  29.716  37.887   2.272
64402W        W29563  26.747  35.110   2.820
64403W        W29564   2.481  20.271   2.040
64404W        W29565  32.124  22.246  14.464
64405W        W29566   1.891  15.122   1.888
64406W        W29567   7.849   0.373   4.237
64407W        W29568  17.977  24.192   1.900
64408W        W29569  22.335  40.816  14.875
64409W        W29570  35.195   1.679  11.636
64410W        W29571   0.407   1.802  12.210
64411W        W29572  19.208  10.622   0.910
64412W        W29573  37.412  29.895   2.228
64413W        W29574   0.968  13.741  13.452
64414W        W29575  33.693  38.087   0.991
64415W        W29576  42.338  36.021  14.193
64416W        W29577   0.455  28.005   0.281
64417W        W29578  31.185   9.753   0.904
64418W        W29579  43.331  38.677  11.646
64419W        W29580  25.794  17.140  13.479
64420W        W29581   9.399   3.908  10.794
64421W        W29582  40.951  26.442  11.594
64422W        W29583  27.183  37.459   2.114
64423W        W29584   7.405  25.609   0.226
64424W        W29585  31.465  10.628   1.048
64425W        W29586  33.060   0.196  11.328
64426W        W29587  43.451  28.192  14.911
64427W        W29588  21.248   8.050   2.923
64428W        W29589   9.507  19.568  14.178
64429W        W29590  25.542  34.226   4.038
64430W        W29591  28.062  20.146   1.769
64431W        W29592   2.946  14.078  12.302
64432W        W29593  12.870   4.318   1.714
64433W        W29594  11.258   6.800   1.429
64434W        W29595  24.969  35.294   1.790
64435W        W29596  14.091  36.886  14.881
64436W        W29597  20.414  29.376   3.380
64437W        W29598  42.936   0.402  14.828
64438W        W29599   6.003  25.045  14.758
64439W        W29600  32.532   0.540   0.965
64440W        W29601  30.799  26.963   0.783
64441W        W29602  11.610  26.073   0.297
64442W        W29603  43.373  20.234  10.748
64443W        W29604   2.468  13.349   1.816
64444W        W29605  41.804  25.697  12.989
64445W        W29606  19.662  22.692  12.487
64446W        W29607  18.766  14.738  12.421
64447W        W29608  18.789  20.256  12.053
64448W        W29609   4.174   0.906   4.084
64449W        W29610  35.317  19.714  12.996
64450W        W29611  19.026  43.859   0.381
64451W        W29612  10.213  36.207   0.850
64452W        W29613  31.516  35.446  11.262
64453W        W29614   2.705  20.034   2.833
64454W        W29615  26.461  18.310  12.004
64455W        W29616   7.200  42.524   1.708
64456W        W29617   8.315  24.581   2.235
64457W        W29618   8.278  21.313  14.907
64458W        W29619   1.380  40.302  11.544
64459W        W29620  14.222  35.436  13.855
64460W        W29621  28.005  26.042  11.551
64461W        W29622  36.023   2.189  12.543
64462W        W29623  35.105  32.690  11.668
64463W        W29624   2.319  15.533   2.359
64464W        W29625  41.317  34.620   1.354
64465W        W29626  37.154   4.907  14.354
64466W        W29627   0.998  32.110   2.839
64467W        W29628  34.379   3.271  10.648
64468W        W29629  27.051  44.806   4.175
64469W        W29630  19.947  42.207   3.226
64470W        W29631   2.853  30.015   3.106
64471W        W29632  14.068  26.537  14.739
64472W        W29633  39.245   4.413  11.319
64473W        W29634  21.208  11.640  13.347
64474W        W29635  21.548  36.148   3.727
64475W        W29636  41.155  21.486  10.646
64476W        W29637  18.526   5.637   2.624
64477W        W29638  11.382   8.237  13.410
64478W        W29639  42.164  38.051  14.782
64479W        W29640  36.887  18.575  12.123
64480W        W29641  31.200  13.161  13.102
64481W        W29642  32.471  31.520  11.049
64482W        W29643  28.094  29.657   2.667
64483W        W29644  26.991  36.737   0.247
64484W        W29645  18.241   9.286   1.700
64485W        W29646   4.731  32.841   1.913
64486W        W29647  27.497  39.005  12.697
64487W        W29648  31.113  21.923   4.638
64488W        W29649  19.344   6.804  11.072
64489W        W29650  32.309   5.430   1.983
64490W        W29651  10.902  21.616   0.878
64491W        W29652   0.609  24.255   4.563
64492W        W29653  15.341  22.032  10.623
64493W        W29654  15.742  19.319  11.175
64494W        W29655  13.299  23.909   2.904
64495W        W29656   4.970  35.659  11.991
64496W        W29657  36.810  17.813   0.884
64497W        W29658  39.595  38.522  12.834
64498W        W29659  11.273   8.864   1.631
64499W        W29660  16.748  35.009  11.966
64500W        W29661  31.485  44.055   4.990
64501W        W29662  44.580  13.083  13.655
64502W        W29663  30.519   3.979  14.296
64503W        W29664   2.693  17.416  12.759
64504W        W29665  13.670  27.945   2.710
64505W        W29666  28.004  13.060   2.316
64506W        W29667  23.969  43.774   3.625
64507W        W29668  15.123  27.661  12.295
64508W        W29669   3.903   6.325   1.397
64509W        W29670  25.109  42.747  10.700
64510W        W29671   8.837  33.284  11.440
64511W        W29672  13.377  12.538   4.106
64512W        W29673  37.091  29.574  10.723
64513W        W29674  16.782  26.786   4.080
64514W        W29675  41.341   8.216   4.147
64515W        W29676  19.102   0.981   1.451
64516W        W29677  12.322  29.174   2.790
64517W        W29678  34.609   6.733  13.472
64518W        W29679  20.196  17.450  14.959
64519W        W29680  34.425  13.857   3.304
64520W        W29681  18.298  35.629  10.759
64521W        W29682  42.347   5.842   0.304
64522W        W29683  43.485  28.992  12.918
64523W        W29684  30.566  22.656   3.155
64524W        W29685  43.742  40.884  14.067
64525W        W29686  16.991  18.819   3.438
64526W        W29687  34.041  31.030   4.300
64527W        W29688  28.709   0.315   0.075
64528W        W29689  30.685  36.130   3.296
64529W        W29690   9.751  23.752  12.871
64530W        W29691  35.516  40.579  14.821
64531W        W29692  22.199  39.793  11.379
64532W        W29693  13.786  29.447   1.347
64533W        W29694  25.662  25.340   0.995
64534W        W29695  35.349  18.251   2.968
64535W        W29696  26.798  32.698  14.050
64536W        W29697  28.240   9.579   2.894
64537W        W29698  26.762  39.117   0.327
64538W        W29699  32.630  28.552  14.873
64539W        W29700  21.267  34.850   3.399
64540W        W29701  18.250  26.736  12.560
64541W        W29702  37.306  23.524  10.991
64542W        W29703  24.682  37.501   1.365
64543W        W29704  34.656  15.962   1.816
64544W        W29705  15.229  25.511  12.620
64545W        W29706   0.896   3.354  12.053
64546W        W29707  34.340  30.288  12.184
64547W        W29708   1.506   5.798   2.283
64548W        W29709  36.780  13.650  13.919
64549W        W29710  14.761   4.456   2.735
64550W        W29711  28.446  24.460  11.104
64551W        W29712  28.758  32.961   3.912
64552W        W29713  28.505  29.120   4.144
64553W        W29714  12.447  19.483   1.416
64554W        W29715  29.009   2.729  13.031
64555W        W29716  37.322  37.119  13.453
64556W        W29717  25.970  36.468  10.693
64557W        W29718  13.762  43.842  12.890
64558W        W29719  17.311  25.546  14.717
64559W        W29720  32.706  41.700  11.670
64560W        W29721  15.628  31.836   2.419
64561W        W29722  29.070  17.024  13.010
64562W        W29723  34.592   4.875  13.392
64563W        W29724  39.136  34.051  14.276
64564W        W29725  13.124  40.963   0.897
64565W        W29726  24.781   3.175  14.059
64566W        W29727  23.205  16.738   0.487
64567W        W29728  25.582  42.902   0.234
64568W        W29729  14.633  38.130   1.539
64569W        W29730  22.660  12.558   4.531
64570W        W29731  32.943  36.282   0.869
64571W        W29732  18.520  34.483   1.417
64572W        W29733  26.754  39.019  11.693
64573W        W29734  36.634   9.086  13.739
64574W        W29735  18.744  36.080   0.977
64575W        W29736  28.749   8.459  11.173
64576W        W29737  39.628   9.934  12.802
64577W        W29738  25.942  13.429   2.193
64578W        W29739  14.995  16.111  14.894
64579W        W29740  14.087   9.827  11.373
64580W        W29741  44.018  11.625  11.425
64581W        W29742   0.794   5.258  10.804
64582W        W29743  28.320  26.755  12.714
64583W        W29744  39.129   7.617  12.083
64584W        W29745   9.458  19.304   2.725
64585W        W29746  27.244   1.662   2.483
64586W        W29747  26.349   6.961   2.455
64587W        W29748  29.039  12.460   9.884
64588W        W29749  20.339   7.716  11.143
64589W        W29750  41.594  43.807   2.388
64590W        W29751  23.309   0.701   3.238
64591W        W29752  13.044   3.540   5.030
64592W        W29753  23.464  33.621  14.806
64593W        W29754  27.592   2.522  13.019
64594W        W29755  31.979  33.668   4.864
64595W        W29756   9.407  40.297  11.977
64596W        W29757  11.814  36.757   4.546
64597W        W29758  19.779  44.218  12.074
64598W        W29759  18.172  15.914   1.936
64599W        W29760  42.224  31.478   4.190
64600W        W29761  44.000   2.798   1.858
64601W        W29762  32.581  27.574   1.192
64602W        W29763   0.422  40.918  10.343
64603W        W29764   8.071  10.754  12.282
64604W        W29765  15.712   1.758  14.101
64605W        W29766  36.011  22.124  11.176
64606W        W29767  28.426   2.751   4.119
64607W        W29768  18.162  31.025   4.060
64608W        W29769  41.338  18.575  11.233
64609W        W29770   2.812  16.949  12.489
64610W        W29771  24.664  19.180   1.387
64611W        W29772   2.741  34.609   0.245
64612W        W29773  28.661  37.925   3.939
64613W        W29774   6.550   6.716  11.492
64614W        W29775  12.836  14.732  12.362
64615W        W29776  18.185  24.504  12.168
64616W        W29777  37.137  17.081  12.032
64617W        W29778   1.838  43.212   2.376
64618W        W29779  36.806  31.853  10.236
64619W        W29780  17.589   1.138   1.044
64620W        W29781   8.360  26.013   4.229
64621W        W29782   6.260  30.687  10.873
64622W        W29783  17.825  19.267   2.754
64623W        W29784  40.597  27.949  13.103
64624W        W29785   7.831  27.179  13.407
64625W        W29786  19.177   2.556   3.661
64626W        W29787  18.959  41.585  10.545
64627W        W29788  12.334   9.577   4.243
64628W        W29789  10.598   7.254  13.681
64629W        W29790  24.118  24.466   2.872
64630W        W29791  41.433   2.954   0.475
64631W        W29792   9.779  11.088  14.415
64632W        W29793  33.636   8.785  13.507
64633W        W29794  15.271  26.911  12.584
64634W        W29795  39.852  31.596   3.890
64635W        W29796  36.021  19.176  13.739
64636W        W29797   8.977   4.908  12.337
64637W        W29798  42.799  40.204  11.123
64638W        W29799  31.211  12.288  14.474
64639W        W29800  26.039   9.678  10.570
64640W        W29801  25.660  18.643   4.994
64641W        W29802   7.676  27.064  12.042
64642W        W29803  27.561  25.500   2.610
64643W        W29804  24.105  31.389   3.615
64644W        W29805  21.479  43.228  13.035
64645W        W29806  26.467  13.326   5.406
64646W        W29807  43.449  33.869   4.556
64647W        W29808  21.297  19.312  13.312
64648W        W29809   4.174  37.014   2.773
64649W        W29810  38.002  20.551   3.779
64650W        W29811  26.139  22.711  10.463
64651W        W29812  13.548   1.818   4.943
64652W        W29813  34.962  24.074  10.217
64653W        W29814  11.062  29.984   2.145
64654W        W29815  21.999  16.344  13.342
64655W        W29816  31.981  41.980  14.073
64656W        W29817   4.330   0.785  13.128
64657W        W29818   4.126  44.991   2.728
64658W        W29819  44.864   2.511   4.741
64659W        W29820  22.943   6.898   4.501
64660W        W29821  10.306  41.236  14.025
64661W        W29822  20.251  29.529  12.108
64662W        W29823  39.566  26.935   3.917
64663W        W29824  27.662   8.215   1.798
64664W        W29825   1.330  32.453   1.886
64665W        W29826  14.876  40.379  12.460
64666W        W29827  42.755  30.215   1.801
64667W        W29828  29.665  19.949  12.701
64668W        W29829  12.909   8.201   2.880
64669W        W29830   1.218  20.083   4.595
64670W        W29831  11.368  16.883   2.331
64671W        W29832  32.924  25.748   0.276
64672W        W29833  41.377  34.580  14.049
64673W        W29834  22.200  26.646  10.680
64674W        W29835   1.456  28.610  14.334
64675W        W29836  29.655  21.126   3.817
64676W        W29837  11.470   8.395   2.795
64677W        W29838  40.079  13.780  12.558
64678W        W29839  25.071  33.947  11.055
64679W        W29840   6.292  42.944   4.167
64680W        W29841  16.380   0.881   4.828
64681W        W29842  41.857  15.572  13.463
64682W        W29843  40.039  28.165  14.689
64683W        W29844  37.246  38.103   0.765
64684W        W29845  21.157   3.768  11.181
64685W        W29846  14.623  30.920  13.604
64686W        W29847  16.688   5.346   3.224
64687W        W29848   8.778  33.057   4.909
64688W        W29849  37.408  32.411  13.750
64689W        W29850  39.469   8.470  11.472
64690W        W29851  36.727   9.889  13.007
64691W        W29852  19.498  12.975  13.095
64692W        W29853   9.814  22.700   0.374
64693W        W29854  39.530  39.047   3.593
64694W        W29855  38.908  26.144  13.135
64695W        W29856  23.263  35.972  11.678
64696W        W29857  31.943  23.470   2.617
64697W        W29858  11.797  20.317   2.608
64698W        W29859   5.306  21.853  12.766
64699W        W29860   6.665  29.059  13.326
64700W        W29861  25.749  36.654  13.750
64701W        W29862  11.363  37.945   0.950
64702W        W29863  16.550   6.446   3.689
64703W        W29864  28.169  18.840   1.313
64704W        W29865  21.185   5.674   4.595
64705W        W29866  32.120  43.319  12.414
64706W        W29867  20.146  21.180   4.534
64707W        W29868  37.429  32.154  11.588
64708W        W29869  13.645  29.573   0.843
64709W        W29870  33.026   4.133   0.213
64710W        W29871  22.212  27.078  13.807
64711W        W29872  40.108  14.094   2.214
64712W        W29873  38.084  28.643   1.164
64713W        W29874   0.849  31.407  14.021
64714W        W29875  28.128   6.735   3.222
64715W        W29876  35.464  19.252   2.889
64716W        W29877  39.930  27.072  12.065
64717W        W29878   8.854  41.591   0.393
64718W        W29879  20.017  34.999   2.766
64719W        W29880  22.077  35.328  14.813
64720W        W29881   1.018  34.316   2.701
64721W        W29882  35.329   7.445  14.496
64722W        W29883  28.361  34.454  10.359
64723W        W29884   4.784   7.213  11.177
64724W        W29885   8.638  40.857  13.004
64725W        W29886  13.671   8.889   1.681
64726W        W29887   6.670   3.316   0.761
64727W        W29888  31.716  41.460   1.812
64728W        W29889   9.734  42.468  13.807
64729W        W29890   0.134   3.206   3.661
64730W        W29891  40.509  30.365   2.647
64731W        W29892  10.129  22.817  13.042
64732W        W29893  38.598  25.096   4.300
64733W        W29894  40.320  16.775   3.466
64734W        W29895  24.793  39.055  13.200
64735W        W29896  27.705  22.331   4.597
64736W        W29897  30.617  19.286   0.054
64737W        W29898  29.070   1.961   1.282
64738W        W29899  21.656   8.216  12.408
64739W        W29900   1.722  24.733   1.245
64740W        W29901  26.900  19.192   3.805
64741W        W29902  12.057  38.890   4.576
64742W        W29903  13.731   3.748  11.096
64743W        W29904  30.907  18.477   0.581
64744W        W29905  23.954  20.310   1.610
64745W        W29906   1.043  15.224  11.208
64746W        W29907  27.783  26.606   1.260
64747W        W29908  30.720  39.500  12.485
64748W        W29909  41.479   0.347  13.543
64749W        W29910  37.995   2.462   3.875
64750W        W29911  15.713   3.207  13.058
64751W        W29912  15.144  17.064   2.662
64752W        W29913   5.925   4.385   2.357
64753W        W29914  16.385   9.890  10.833
64754W        W29915  24.669  26.114  13.960
64755W        W29916   5.676   6.651   2.283
64756W        W29917  35.988  41.905   1.642
64757W        W29918  44.645  18.270   2.452
64758W        W29919  10.412  27.953   0.317
64759W        W29920  20.768  17.083  13.258
64760W        W29921  16.721  40.074   0.547
64761W        W29922  12.888  15.240   2.620
64762W        W29923  14.126   5.814   4.265
64763W        W29924  20.556  38.672   3.797
64764W        W29925  27.966  17.224  10.589
64765W        W29926  17.351  25.643  12.513
64766W        W29927   9.959  21.076  11.869
64767W        W29928  43.347  37.155  13.527
64768W        W29929  36.224  25.645   1.357
64769W        W29930  39.338  26.642   4.267
64770W        W29931   3.381  35.923   4.542
64771W        W29932  37.809  18.328  14.878
64772W        W29933  33.853  37.747  11.213
64773W        W29934   7.259  33.395   1.305
64774W        W29935  32.248  44.267  11.914
64775W        W29936  27.673  29.548  12.483
64776W        W29937  10.742  30.207  14.885
64777W        W29938  17.640  10.724   1.320
64778W        W29939  32.993  39.802   0.965
64779W        W29940  17.084  41.832  12.063
64780W        W29941  32.818   9.249  11.250
64781W        W29942  24.043  31.667   1.304
64782W        W29943  29.327  25.295   1.327
64783W        W29944  25.085  40.009   3.611
64784W        W29945  31.708  10.752  11.941
64785W        W29946  41.002  26.052   3.873
64786W        W29947   7.487  43.918   1.453
64787W        W29948  42.242  22.245   2.981
64788W        W29949   6.977  41.407  12.942
64789W        W29950  18.239   8.639  11.747
64790W        W29951   3.841   1.157   0.012
64791W        W29952  10.588   6.199   4.134
64792W        W29953  42.133  42.368   1.919
64793W        W29954  31.956  20.225   4.714
64794W        W29955  12.189  25.125  11.893
64795W        W29956  18.599  37.811   1.863
64796W        W29957  33.641  18.243   2.841
64797W        W29958   0.852  21.653  12.175
64798W        W29959  31.169   6.115  13.416
64799W        W29960  39.896   4.670   0.763
64800W        W29961  17.087   3.259  10.508
64801W        W29962  16.202  22.966  13.085
64802W        W29963   2.805  32.925   4.600
64803W        W29964  10.569   8.083   0.878
64804W        W29965  38.099  35.340   2.219
64805W        W29966   5.131  35.389   0.119
64806W        W29967  11.184   5.486  14.816
64807W        W29968  20.074  25.988   0.820
64808W        W29969  28.545  43.957  12.958
64809W        W29970  40.549  23.211   3.676
64810W        W29971  24.436   1.692   4.072
64811W        W29972  33.186  12.898  12.681
64812W        W29973   8.750   4.483   3.272
64813W        W29974  43.955  20.777  10.930
64814W        W29975   8.723  26.848  14.328
64815W        W29976  40.436  11.624  12.941
64816W        W29977  42.328  20.479  13.363
64817W        W29978   2.955  36.631   2.386
64818W        W29979   4.381  37.440  13.459
64819W        W29980   9.322  15.632  12.316
64820W        W29981  38.393  22.669  12.805
64821W        W29982  31.091  20.631  11.788
64822W        W29983   5.647  11.384   3.847
64823W        W29984   5.731   5.917  12.027
64824W        W29985  11.602  13.691   1.183
64825W        W29986  41.063   6.914  11.637
64826W        W29987   3.720  22.744   1.801
64827W        W29988  24.201  35.510   1.287
64828W        W29989  22.002  20.086   0.378
64829W        W29990  29.116  36.161   4.806
64830W        W29991   1.584  11.714   9.847
64831W        W29992  11.153   5.826  10.523
64832W        W29993  41.321  13.898   0.364
64833W        W29994  25.083  30.188  12.897
64834W        W29995   0.148  38.313   3.234
64835W        W29996  33.941   4.214   3.755
64836W        W29997  26.914   1.462   1.895
64837W        W29998  31.320   4.884  13.067
64838W        W29999  41.356   8.190  14.328
64839W        W30000   9.119  17.572  10.482
64840W        W30001  32.534  18.857  12.882
64841W        W30002   9.452  18.807  14.842
64842W        W30003  31.596  32.857   2.170
64843W        W30004  29.958  30.328   1.812
64844W        W30005  31.637  39.306  12.399
64845W        W30006  41.243  18.979  13.014
64846W        W30007  41.743  39.419  11.074
64847W        W30008  22.868  18.034   1.332
64848W        W30009   8.954  27.161  11.168
64849W        W30010  25.744   9.849  13.034
64850W        W30011  37.900  44.930   4.018
64851W        W30012   3.955  32.452  13.831
64852W        W30013  37.953  37.810   1.964
64853W        W30014  26.258   6.511  13.452
64854W        W30015  44.307  22.212   0.045
64855W        W30016   7.198  31.826   0.374
64856W        W30017  20.067   7.927   2.699
64857W        W30018  36.616  23.564  11.648
64858W        W30019  39.659  29.657  13.892
64859W        W30020  35.019  43.850   4.784
64860W        W30021  40.277  14.889   2.961
64861W        W30022  18.355  43.380   4.465
64862W        W30023  21.474  25.287  14.965
64863W        W30024  15.898  18.100   3.680
64864W        W30025  42.997   5.711   1.926
64865W        W30026  21.381  44.621   4.905
64866W        W30027  14.625  26.839   0.867
64867W        W30028  16.208  21.073  13.794
64868W        W30029  17.666  19.952  13.517
64869W        W30030  34.976  21.338  12.799
64870W        W30031  15.989  30.263   2.287
64871W        W30032  42.519  13.379   4.489
64872W        W30033   7.107  15.947  11.519
64873W        W30034  14.144  29.178  11.241
64874W        W30035  15.245   1.652   0.485
64875W        W30036  38.236  27.550   2.423
64876W        W30037  43.776  23.925  13.540
64877W        W30038  40.645  14.722  11.638
64878W        W30039   6.242  11.543   1.194
64879W        W30040   8.356  17.756  11.439
64880W        W30041   8.300  11.852   4.232
64881W        W30042  26.482   3.966   2.194
64882W        W30043  11.732  37.392  13.539
64883W        W30044  44.926   5.776   3.819
64884W        W30045   9.087  24.903   3.217
64885W        W30046  10.480  12.170  12.451
64886W        W30047  30.219   8.846   3.607
64887W        W30048   9.495  35.153   0.738
64888W        W30049  19.193   7.754   2.576
64889W        W30050  23.542   6.195   1.282
64890W        W30051   7.227   8.792  11.718
64891W        W30052  31.362  44.765   2.880
64892W        W30053   4.393  42.145  11.842
64893W        W30054  25.441  34.835  12.921
64894W        W30055   2.226  26.560   4.073
64895W        W30056  33.484  11.628   1.408
64896W        W30057  22.920  30.108   1.374
64897W        W30058  20.990  38.886   2.335
64898W        W30059  34.101  26.912  11.201
64899W        W30060  17.214  36.990   3.776
64900W        W30061  12.897   6.806   2.454
64901W        W30062  40.390  12.195   3.226
64902W        W30063  11.265  31.492   1.352
64903W        W30064  31.975  12.588   4.700
64904W        W30065  21.731   5.955  11.306
64905W        W30066  26.984  33.793  12.287
64906W        W30067  40.733   1.816  11.188
64907W        W30068   6.742  27.407  14.484
64908W        W30069   8.444  26.113  12.487
64909W        W30070  33.175  23.497  14.557
64910W        W30071  32.737  22.996  11.486
64911W        W30072  22.371  24.465   3.598
64912W        W30073  41.879  21.046  13.373
64913W        W30074  11.109  16.549  14.234
64914W        W30075   6.713  12.089  10.915
64915W        W30076  14.676  35.825   1.184
64916W        W30077  37.281  13.230  14.279
64917W        W30078   2.804   1.340   0.814
64918W        W30079  30.214  25.267   3.289
64919W        W30080  19.098  25.016   3.777
64920W        W30081  42.053   4.163   0.908
64921W        W30082  41.867  44.238   2.559
64922W        W30083  40.856  16.057   2.407
64923W        W30084   5.939  39.285   2.276
64924W        W30085  41.670  40.981   4.720
64925W        W30086  13.252  39.031  10.950
64926W        W30087  31.919  29.101  13.588
64927W        W30088  29.442  26.677   4.504
64928W        W30089  22.159  39.432   3.742
64929W        W30090   2.227  15.821  13.966
64930W        W30091  33.002  35.135  13.081
64931W        W30092  36.119  37.573  10.812
64932W        W30093   7.121  39.836   1.807
64933W        W30094  28.089  36.546  14.759
64934W        W30095  38.448   7.221   0.486
64935W        W30096  18.286  19.949   4.037
64936W        W30097   5.678   3.148   0.093
64937W        W30098  26.639   1.054   1.702
64938W        W30099  30.823  21.807   3.125
64939W        W30100  25.746  15.704   0.347
64940W        W30101  39.844   7.281  13.148
64941W        W30102   0.423  16.599   2.603
64942W        W30103  25.132  21.105   2.175
64943W        W30104  33.656  38.868   0.487
64944W        W30105   5.479  29.582   2.698
64945W        W30106  22.221  24.585   3.129
64946W        W30107  16.563  24.975  14.566
64947W        W30108  29.626   5.214  13.468
64948W        W30109  12.302   4.185   2.321
64949W        W30110  38.337   4.798   1.440
64950W        W30111  12.243  13.669   2.619
64951W        W30112  38.556  44.274  10.838
64952W        W30113  15.067  37.235  12.914
64953W        W30114  40.282  40.524   4.595
64954W        W30115   1.396  15.152  13.323
64955W        W30116  15.110  18.675   1.430
64956W        W30117   0.046  29.698  12.873
64957W        W30118  33.107  36.436   3.092
64958W        W30119  38.996   1.979  11.533
64959W        W30120  31.820   4.899  12.945
64960W        W30121   9.330   4.948   1.711
64961W        W30122   3.979  30.062  11.194
64962W        W30123  19.525  38.363   4.205
64963W        W30124   9.405  15.790  10.567
64964W        W30125   5.219  26.154   0.746
64965W        W30126  22.985  40.337   4.518
64966W        W30127   6.180   9.415  13.918
64967W        W30128  18.129  14.743   4.110
64968W        W30129  37.473  38.347  12.372
64969W        W30130  43.243   0.840  13.105
64970W        W30131  18.207   6.139   4.211
64971W        W30132  10.861  37.419  13.589
64972W        W30133   5.640  28.786  10.154
64973W        W30134   6.341   7.493  11.235
64974W        W30135  33.971  24.597   2.748
64975W        W30136  44.424  31.998  12.035
64976W        W30137  34.252  39.223  11.592
64977W        W30138  40.034  30.927   3.482
64978W        W30139  44.208  42.833   0.478
64979W        W30140  16.193  21.953  13.973
64980W        W30141  20.438  18.318   2.601
64981W        W30142  25.220  18.735  10.559
64982W        W30143  43.991  30.839  14.383
64983W        W30144  17.121  34.463  13.478
64984W        W30145   4.276  38.602  13.973
64985W        W30146  41.086  25.504  14.680
64986W        W30147  11.586  19.166   1.872
64987W        W30148  24.674  25.278   3.313
64988W        W30149  12.288   6.374   2.310
64989W        W30150   5.866   7.952  13.330
64990W        W30151   5.778  17.520  13.424
64991W        W30152   2.217  31.715   3.325
64992W        W30153  44.335   3.580  13.443
64993W        W30154  30.517  40.930  12.813
64994W        W30155   6.502  30.744   4.071
64995W        W30156  26.627  18.272   1.182
64996W        W30157   2.985  39.606   0.878
64997W        W30158   2.274  30.842  12.484
64998W        W30159  32.877  20.201   0.915
64999W        W30160  28.104  42.438   2.261
65000W        W30161  36.159   1.785   4.237
65001W        W30162  20.375   5.958   4.095
65002W        W30163   2.315  36.892   1.438
65003W        W30164   0.298  32.187  14.102
65004W        W30165  28.233   7.604  10.684
65005W        W30166  16.266  36.994   1.280
65006W        W30167  18.982  30.126   1.877
65007W        W30168  26.442  23.053  14.068
65008W        W30169  12.360  31.513   0.429
65009W        W30170  35.516  21.504   4.785
65010W        W30171  32.215  18.067  14.018
65011W        W30172  23.763   4.153  12.999
65012W        W30173  16.864  13.496   3.282
65013W        W30174  21.168  40.126   9.659
65014W        W30175   9.437   2.909   0.124
65015W        W30176  32.436  14.891  13.485
65016W        W30177   6.223  10.913  10.202
65017W        W30178  19.705  14.575  12.053
65018W        W30179  38.864   6.649  12.991
65019W        W30180   1.914  17.040   0.949
65020W        W30181  43.577   2.947  12.462
65021W        W30182  43.148   0.761  10.573
65022W        W30183   0.860  17.186  11.980
65023W        W30184  20.721   0.865  11.079
65024W        W30185   9.298  19.818   3.425
65025W        W30186  16.370  40.109   3.270
65026W        W30187  38.629   8.260  10.452
65027W        W30188   5.055  31.510  10.710
65028W        W30189  16.416  39.743  11.581
65029W        W30190   8.192  15.643  13.996
65030W        W30191  20.851  40.042   3.690
65031W        W30192  23.992  14.298   2.677
65032W        W30193   8.602  12.842   1.366
65033W        W30194  24.399   0.931  13.843
65034W        W30195  43.779   0.387   2.681
65035W        W30196  24.415  14.800  12.763
65036W        W30197  12.802   3.065   4.896
65037W        W30198  25.493  24.554   4.047
65038W        W30199  41.284  15.812   2.873
65039W        W30200  33.121  23.332   1.251
65040W        W30201  13.076  19.954   1.423
65041W        W30202   5.970  30.544  14.110
65042W        W30203  30.139  13.368   4.382
65043W        W30204  37.538  30.354   2.476
65044W        W30205   9.771   2.999  14.374
65045W        W30206  30.884  14.410  11.544
65046W        W30207   5.956  26.892   3.076
65047W        W30208  37.575   5.763  14.556
65048W        W30209  17.740  42.260   2.330
65049W        W30210   0.755  30.597   2.181
65050W        W30211  28.600  36.085  10.690
65051W        W30212   1.927  29.570  11.195
65052W        W30213   9.511  21.452  14.469
65053W        W30214  28.644  12.209   4.038
65054W        W30215   8.884  31.059  10.502
65055W        W30216  39.391  17.093  14.371
65056W        W30217  16.769  37.126  14.295
65057W        W30218   6.710  32.056   0.483
65058W        W30219  18.510  43.099   0.480
65059W        W30220  26.022   8.235   0.031
65060W        W30221  19.250  27.741  12.062
65061W        W30222  17.003  39.376   2.249
65062W        W30223   4.761  23.844   2.113
65063W        W30224  42.290   8.410   1.368
65064W        W30225   0.001  30.954   2.482
65065W        W30226   8.345  41.294  13.135
65066W        W30227   3.802   8.730   0.410
65067W        W30228  27.516  25.985  11.757
65068W        W30229  18.377   7.987   3.688
65069W        W30230  27.879  27.971   0.931
65070W        W30231  43.245  28.104   4.606
65071W        W30232  41.477  32.949   0.439
65072W        W30233  25.547  17.835   4.313
65073W        W30234  23.695   3.789  11.555
65074W        W30235   3.233  28.158  12.035
65075W        W30236  31.227  17.580  11.213
65076W        W30237  26.862  14.726   4.986
65077W        W30238  19.806  24.913  12.916
65078W        W30239  25.741  35.551  14.495
65079W        W30240   5.926   3.007  12.069
65080W        W30241  35.012  40.302   1.029
65081W        W30242   9.476  22.620  11.440
65082W        W30243  25.708  28.676  13.338
65083W        W30244  41.246  18.339   3.896
65084W        W30245  38.875  11.429   4.132
65085W        W30246  18.770  27.475  11.222
65086W        W30247   4.691  44.137   3.536
65087W        W30248   5.145  26.835   3.695
65088W        W30249   3.479  15.782   0.347
65089W        W30250  43.247  20.151   3.618
65090W        W30251  19.223  23.810  13.359
65091W        W30252  30.547  26.341  13.807
65092W        W30253  12.299  23.562   2.731
65093W        W30254  34.667  23.686   2.002
65094W        W30255  36.589   8.918   4.555
65095W        W30256  14.379  26.933  13.881
65096W        W30257   9.164  32.087   1.206
65097W        W30258  24.064   6.984  10.468
65098W        W30259  29.438  15.596  11.688
65099W        W30260   2.266  41.417   2.352
65100W        W30261  22.501  13.606  10.378
65101W        W30262  29.619  26.530   3.202
65102W        W30263   7.377  42.303   3.734
65103W        W30264   8.188  18.009  14.329
65104W        W30265  14.157  32.830  11.928
65105W        W30266  18.750  22.977  13.815
65106W        W30267  31.330  25.010   5.233
65107W        W30268   4.985   5.896  11.611
65108W        W30269  40.515  24.914  10.852
65109W        W30270  42.001   1.745   4.620
65110W        W30271   4.264  31.175  12.445
65111W        W30272  24.396   0.927   3.462
65112W        W30273  10.335  16.887   2.286
65113W        W30274   0.076  40.875  14.537
65114W        W30275   8.617  22.495  14.943
65115W        W30276  12.837  30.433  13.456
65116W        W30277  22.665  13.681   2.801
65117W        W30278  36.500   9.540  12.036
65118W        W30279  28.154  25.693   3.253
65119W        W30280  30.948  17.264  11.497
65120W        W30281  16.781  15.317   4.043
65121W        W30282  21.967   9.843  14.453
65122W        W30283  38.573  32.909  12.029
65123W        W30284   7.846  11.371   3.609
65124W        W30285  39.050  36.356  11.431
65125W        W30286  44.944   5.163   3.622
65126W        W30287  16.815  42.368   0.234
65127W        W30288  23.433   2.386   2.209
65128W        W30289  39.638  24.427   2.026
65129W        W30290  12.385   4.747   2.736
65130W        W30291  35.046  33.903  11.956
65131W        W30292   4.513  17.987  12.040
65132W        W30293  18.228  14.246   4.246
65133W        W30294   1.851   8.684  13.895
65134W        W30295   9.914  26.513   3.114
65135W        W30296  11.654  35.835  10.703
65136W        W30297  10.296  42.990   0.704
65137W        W30298  35.488  33.835  12.915
65138W        W30299   6.217  19.932  11.109
65139W        W30300  35.507  43.070   5.112
65140W        W30301  13.757   9.184  13.532
65141W        W30302   7.314  23.680   3.848
65142W        W30303  29.373   6.827   2.673
65143W        W30304  20.391   5.697  12.048
65144W        W30305  20.278  30.582  14.900
65145W        W30306  42.628  32.371  14.842
65146W        W30307  13.782  14.877   1.440
65147W        W30308   8.736  34.456  14.818
65148W        W30309  36.277   3.657   1.312
65149W        W30310  13.802  17.934   2.647
65150W        W30311  30.674  14.776   0.350
65151W        W30312  41.458   0.356   3.668
65152W        W30313  18.227   7.333  10.561
65153W        W30314   0.011  34.894   0.903
65154W        W30315   8.822   2.747  12.861
65155W        W30316  20.252   5.336   0.338
65156W        W30317  29.552  10.645  14.508
65157W        W30318  44.873  33.934   4.516
65158W        W30319  14.115  39.579  11.071
65159W        W30320   0.753  29.881   3.287
65160W        W30321  39.545   9.094  14.326
65161W        W30322   8.288  43.281   3.300
65162W        W30323  28.326  24.160   0.355
65163W        W30324  14.150  38.114   1.372
65164W        W30325  23.101  35.630   3.830
65165W        W30326  22.651  31.650  13.505
65166W        W30327   1.556   9.180   3.233
65167W        W30328  38.417   7.421  11.300
65168W        W30329  33.062  11.330  10.655
65169W        W30330   9.231  37.689  11.634
65170W        W30331  31.494   3.218   2.464
65171W        W30332  39.796   3.579   0.063
65172W        W30333   5.871  17.789   3.605
65173W        W30334  40.104  25.833  12.955
65174W        W30335   3.501  27.460   1.238
65175W        W30336  44.499  33.538   1.786
65176W        W30337  14.758  27.344   0.890
65177W        W30338  11.715  27.496  12.981
65178W        W30339  35.446  42.261   3.301
65179W        W30340  20.950   1.128  11.460
65180W        W30341  13.498   9.001   4.559
65181W        W30342  32.911  20.654   1.384
65182W        W30343  43.712   3.822   1.575
65183W        W30344  39.165  33.986   3.725
65184W        W30345  38.044  41.037   1.832
65185W        W30346   6.997  17.788  12.003
65186W        W30347  29.031  25.460  12.917
65187W        W30348  20.963  30.565  10.357
65188W        W30349   6.096  10.635   2.845
65189W        W30350  41.493  30.475  13.843
65190W        W30351  16.549  26.070  13.506
65191W        W30352  29.623  15.827  12.142
65192W        W30353  42.878   8.471   3.537
65193W        W30354  21.293  17.514  10.588
65194W        W30355  36.185   6.845  14.237
65195W        W30356  28.525  16.056   1.822
65196W        W30357   4.943  29.340   4.593
65197W        W30358  33.452  34.933  13.290
65198W        W30359  18.698   3.273  12.484
65199W        W30360  18.315   9.699   0.443
65200W        W30361  17.345  18.048   0.391
65201W        W30362   3.400   8.331  11.587
65202W        W30363   1.895  24.539   2.719
65203W        W30364  33.315  23.352   0.778
65204W        W30365  22.098  19.456   1.771
65205W        W30366  14.808  28.890   4.761
65206W        W30367   2.785  43.433   4.817
65207W        W30368  24.790  25.989   1.206
65208W        W30369  15.100  28.564  10.702
65209W        W30370  26.312  31.537   3.432
65210W        W30371  12.868  21.750   0.325
65211W        W30372  18.903  32.054   4.594
65212W        W30373  12.638   8.906   0.522
65213W        W30374  18.730  19.864  14.852
65214W        W30375  37.967  41.503   3.045
65215W        W30376  30.871  12.867   1.264
65216W        W30377   8.161  22.156  13.668
65217W        W30378   9.918  37.717  14.121
65218W        W30379  39.803  32.591  11.641
65219W        W30380  32.043  20.604  12.016
65220W        W30381  17.766  25.906  14.772
65221W        W30382  36.489   8.798  12.429
65222W        W30383  40.728  31.609  10.692
65223W        W30384  29.702  33.216   3.202
65224W        W30385   4.938  14.741   4.215
65225W        W30386   8.657  26.106   2.143
65226W        W30387  13.632  14.082  14.255
65227W        W30388   4.135  30.924   3.985
65228W        W30389  35.142  25.834   0.579
65229W        W30390  34.096  11.192   3.221
65230W        W30391  40.834  28.001  14.428
65231W        W30392  33.952  44.254  12.449
65232W        W30393  37.476  37.277   1.317
65233W        W30394  11.354   1.567   0.445
65234W        W30395  39.754  34.093  13.391
65235W        W30396   4.278  23.996   2.239
65236W        W30397   9.704   1.445  11.162
65237W        W30398  15.641  12.475  13.898
65238W        W30399  29.192   2.337  13.366
65239W        W30400  21.317   7.198  10.824
65240W        W30401  10.206  35.813  14.344
65241W        W30402  29.978  10.355  10.640
65242W        W30403  16.740  34.217   2.599
65243W        W30404  12.130   3.341   0.788
65244W        W30405  18.283  30.523   4.127
65245W        W30406   5.436  33.234  10.543
65246W        W30407  23.602  15.311   1.204
65247W        W30408  33.597  26.852   0.935
65248W        W30409  14.398  28.464   3.174
65249W        W30410  15.738  23.123  13.803
65250W        W30411  44.412   4.406   1.126
65251W        W30412  44.003  13.029   2.572
65252W        W30413   9.198  11.720   3.898
65253W        W30414  23.335  39.213   2.256
65254W        W30415  28.964   6.812   0.935
65255W        W30416  27.143   5.596  12.703
65256W        W30417  42.450   0.951   2.494
65257W        W30418  22.002   4.689   0.311
65258W        W30419   0.716  28.498  10.720
65259W        W30420   1.588  42.359  11.648
65260W        W30421   2.800  40.098  11.467
65261W        W30422  43.987  35.299  14.785
65262W        W30423  31.577   9.707   4.172
65263W        W30424  16.287   9.149   1.916
65264W        W30425  15.248   8.844   0.268
65265W        W30426  32.184   4.944   4.763
65266W        W30427  13.732  40.083  10.722
65267W        W30428  22.158  23.014   0.069
65268W        W30429   1.626   8.248  14.109
65269W        W30430  24.384  17.096   3.001
65270W        W30431  31.472  29.212  13.854
65271W        W30432  22.486   7.102  13.470
65272W        W30433  25.939  42.530   3.772
65273W        W30434  11.662  26.299   4.709
65274W        W30435  20.482  20.741   0.868
65275W        W30436  19.721   1.316  12.996
65276W        W30437  20.415  30.096  12.894
65277W        W30438  41.391  20.201  11.589
65278W        W30439  19.692  28.647  10.703
65279W        W30440   3.280  19.841   4.159
65280W        W30441  25.014  15.031   2.837
65281W        W30442   9.353   4.315   4.109
65282W        W30443  41.210  30.925   0.395
65283W        W30444   4.100  30.500   4.612
65284W        W30445  37.105  22.600   0.307
65285W        W30446  20.031  32.985   4.534
65286W        W30447  13.588  18.186   0.483
65287W        W30448  26.852  19.603   1.015
65288W        W30449  11.887  37.412  12.596
65289W        W30450   7.453  21.172  10.086
65290W        W30451  13.907  39.344  13.960
65291W        W30452  20.353   6.042   3.140
65292W        W30453  22.026  43.181  11.118
65293W        W30454  31.131   6.685   2.215
65294W        W30455  28.338  34.930  10.643
65295W        W30456  35.325  40.465  12.512
65296W        W30457  35.844  36.674   2.494
65297W        W30458  17.896  44.006   5.053
65298W        W30459   5.084  42.684   4.635
65299W        W30460   4.698  32.604  14.315
65300W        W30461   2.358  14.330   4.822
65301W        W30462   0.699   4.441   2.890
65302W        W30463   4.307  29.217  10.943
65303W        W30464  28.220   2.326  12.164
65304W        W30465  19.114  33.700   0.842
65305W        W30466   1.413  30.987  13.380
65306W        W30467   2.828   6.346   3.281
65307W        W30468  19.995  31.848   2.816
65308W        W30469  42.890  20.042  13.027
65309W        W30470  14.668   3.747  10.636
65310W        W30471  14.240  30.976  12.946
65311W        W30472  27.176  41.974   4.270
65312W        W30473  24.453   6.379   1.183
65313W        W30474  13.162  29.981   3.200
65314W        W30475   9.395  17.335   1.817
65315W        W30476  17.563  24.243   3.239
65316W        W30477  43.309  19.766  10.514
65317W        W30478   1.085  14.877  11.630
65318W        W30479  22.245  44.355  14.727
65319W        W30480  20.115  14.783   4.088
65320W        W30481  31.320  27.854   3.472
65321W        W30482  16.561  17.843   0.825
65322W        W30483  12.653  22.263  10.431
65323W        W30484  16.752  32.674  12.577
65324W        W30485  37.567  23.648   0.871
65325W        W30486   8.271  41.991   4.359
65326W        W30487   7.768   9.537   2.545
65327W        W30488  19.020  39.103  12.516
65328W        W30489  28.186  43.870  12.470
65329W        W30490  10.790  12.262  13.517
65330W        W30491  15.498  30.484   3.525
65331W        W30492  23.577  22.727   0.393
65332W        W30493  25.653   8.735   2.779
65333W        W30494  23.154  30.588   4.108
65334W        W30495   7.885  35.582   2.213
65335W        W30496  20.476  24.569   4.091
65336W        W30497  36.553  10.802  11.694
65337W        W30498   7.650  37.988   2.738
65338W        W30499  24.505  14.782   1.427
65339W        W30500  28.946  22.530   0.748
65340W        W30501  28.648  17.064   4.830
65341W        W30502  35.454  31.146  14.637
65342W        W30503   2.530  44.548   3.256
65343W        W30504  31.889  28.503  10.579
65344W        W30505  23.602  19.555  13.109
65345W        W30506  17.810  27.246   0.205
65346W        W30507  42.867  29.684   2.677
65347W        W30508  23.687  43.903   4.054
65348W        W30509  18.793  17.204  12.300
65349W        W30510  40.553  24.093   2.278
65350W        W30511  20.319  23.677   3.652
65351W        W30512  17.227  39.958  11.992
65352W        W30513  44.977  19.765   1.634
65353W        W30514   0.574  43.962  12.043
65354W        W30515  37.819  23.209  13.884
65355W        W30516  43.793   0.493  13.447
65356W        W30517  19.068   7.959   1.307
65357W        W30518   3.271  43.029   1.825
65358W        W30519  28.694  38.634   0.003
65359W        W30520  12.148  15.664  11.146
65360W        W30521  36.857  43.892   0.575
65361W        W30522   7.874  19.687  11.669
65362W        W30523  38.557  32.022  11.235
65363W        W30524  33.306   5.412  14.628
65364W        W30525  16.338  44.581  12.079
65365W        W30526   6.602   8.200  13.425
65366W        W30527   9.410  30.559   0.831
65367W        W30528   8.193  40.428  14.419
65368W        W30529  37.472   8.769   2.274
65369W        W30530   2.361  11.706   1.223
65370W        W30531  21.561  21.819   1.719
65371W        W30532  40.972  13.157   4.618
65372W        W30533   9.284  29.570   4.479
65373W        W30534  20.743  42.822   4.667
65374W        W30535  40.371  21.206   1.705
65375W        W30536  30.551  38.783   3.232
65376W        W30537   3.778  30.120   3.884
65377W        W30538  41.640  13.583  11.538
65378W        W30539  24.194   8.338   4.086
65379W        W30540  34.108  23.300   0.386
65380W        W30541  42.246   8.697  12.980
65381W        W30542   0.010  17.936   2.596
65382W        W30543  16.662  16.931  14.118
65383W        W30544  24.980  19.584   2.746
65384W        W30545  25.623  32.144  11.177
65385W        W30546  39.191   9.814   1.509
65386W        W30547   0.359  19.678  11.148
65387W        W30548  14.266  15.121  10.642
65388W        W30549   4.173  21.113   4.550
65389W        W30550  25.494  13.916   9.814
65390W        W30551  12.173   3.825   2.670
65391W        W30552  10.703  41.949  10.942
65392W        W30553  22.771  14.339  14.484
65393W        W30554  43.065  16.242  12.324
65394W        W30555  32.220  24.529   0.515
65395W        W30556  40.373  44.816   0.414
65396W        W30557  41.856  25.627  14.813
65397W        W30558  22.824   1.060   0.301
65398W        W30559  17.284  44.039   3.237
65399W        W30560  43.086  19.602   3.078
65400W        W30561  35.625  41.854   2.634
65401W        W30562  20.586  24.157  11.338
65402W        W30563  30.159   3.904   0.116
65403W        W30564  37.125  40.340   1.314
65404W        W30565  28.557  20.518   4.245
65405W        W30566  31.105  18.031   3.803
65406W        W30567   6.287  33.610  14.766
65407W        W30568  25.240  11.889  12.245
65408W        W30569  20.042  35.889   1.800
65409W        W30570  19.615  32.927   2.876
65410W        W30571  41.625  19.749  11.629
65411W        W30572  44.405  42.841  12.415
65412W        W30573   7.884  19.965   2.593
65413W        W30574  10.343  17.550  14.290
65414W        W30575   0.120  23.074  11.761
65415W        W30576  14.850   8.363  12.120
65416W        W30577  23.422  34.350  14.201
65417W        W30578   9.658  39.980   2.579
65418W        W30579  20.654   4.849  13.465
65419W        W30580  18.001  33.789  12.550
65420W        W30581  16.600  36.365  12.202
65421W        W30582  20.224  29.149   1.682
65422W        W30583  37.159  22.784  14.294
65423W        W30584  41.336   5.760  12.005
65424W        W30585  42.630  26.868   4.163
65425W        W30586  35.625  42.335   2.383
65426W        W30587   0.608   4.940  14.089
65427W        W30588  38.396  13.693   0.407
65428W        W30589   9.531  28.311  10.114
65429W        W30590  27.230  43.177  14.955
65430W        W30591  29.298  17.859  11.612
65431W        W30592   3.360  13.394  12.389
65432W        W30593   1.956  25.551   4.427
65433W        W30594   4.861  25.501   1.371
65434W        W30595  34.374  13.824   0.446
65435W        W30596  16.986  16.260   0.307
65436W        W30597  21.097  12.241  13.127
65437W        W30598  38.997  11.049  10.498
65438W        W30599  34.535  20.944  14.177
65439W        W30600  18.196  32.124   4.036
65440W        W30601  37.481  37.632  10.581
65441W        W30602  40.849  17.024   2.273
65442W        W30603  27.599  31.589  12.105
65443W        W30604  17.598  22.803  13.349
65444W        W30605  21.705   0.590   3.285
65445W        W30606  30.417  22.146   1.271
65446W        W30607  27.106  15.591  10.773
65447W        W30608  39.192  40.235  14.281
65448W        W30609  40.542   4.757   1.632
65449W        W30610  21.521  10.754  14.830
65450W        W30611   7.857  12.190  12.192
65451W        W30612  38.387  42.353  11.417
65452W        W30613  42.020  22.730  14.402
65453W        W30614  13.764  43.275   1.477
65454W        W30615   1.834  16.569   2.685
65455W        W30616  17.994  18.264  10.724
65456W        W30617  31.857   6.336   4.665
65457W        W30618   3.775  43.883  12.139
65458W        W30619  42.325  17.122  14.489
65459W        W30620  24.139  14.854  14.512
65460W        W30621  14.753   4.219  14.420
65461W        W30622  35.918   3.789  11.106
65462W        W30623  17.151  23.215  14.556
65463W        W30624   0.961  26.748   3.688
65464W        W30625  10.626  18.894   0.273
65465W        W30626  15.200  15.055   1.805
65466W        W30627  16.777  38.823  13.437
65467W        W30628  15.513  44.806  14.175
65468W        W30629   8.877  18.030   4.183
65469W        W30630  41.543   8.677   1.731
65470W        W30631  34.056  20.254   3.280
65471W        W30632   8.191  20.169  10.708
65472W        W30633  13.479  44.136  13.822
65473W        W30634  32.624  40.493  14.763
65474W        W30635  27.585  12.316  13.932
65475W        W30636  11.870  44.801   2.455
65476W        W30637  34.507   0.387  11.254
65477W        W30638  39.923  16.623  14.916
65478W        W30639   4.749  43.828  12.068
65479W        W30640  33.762  36.996  10.809
65480W        W30641   6.787  26.714   2.096
65481W        W30642  23.745   0.846  13.604
65482W        W30643  25.986  42.073  10.755
65483W        W30644   9.567   0.858   4.405
65484W        W30645  10.494  36.169   0.420
65485W        W30646  17.303   6.601  11.109
65486W        W30647  29.491  29.653   0.034
65487W        W30648  12.973  25.423  13.003
65488W        W30649  39.871  20.457  11.565
65489W        W30650   2.616  28.023  14.299
65490W        W30651  33.466  39.518   0.700
65491W        W30652  19.893  40.538   4.877
65492W        W30653  23.502   9.164  13.742
65493W        W30654  18.438  32.507   0.980
65494W        W30655  21.216  31.857   3.521
65495W        W30656  14.181  39.393   2.653
65496W        W30657  16.855  14.175  14.367
65497W        W30658  17.324  22.586   0.432
65498W        W30659  43.393   4.448   0.685
65499W        W30660   5.957  42.189   0.469
65500W        W30661   4.116  29.522   2.221
65501W        W30662  38.077   3.344  12.882
65502W        W30663  18.767  15.258  14.359
65503W        W30664  43.112  12.663  13.906
65504W        W30665  39.336  22.776   3.699
65505W        W30666  40.546  31.537  13.604
65506W        W30667   8.588  24.142   3.734
65507W        W30668  11.404  44.528   2.631
65508W        W30669  16.623   5.840   1.228
65509W        W30670   6.336  27.523  12.549
65510W        W30671  34.711  26.315  11.187
65511W        W30672  35.325  14.621  11.594
65512W        W30673   0.273  26.074   1.564
65513W        W30674   3.514  34.192   0.914
65514W        W30675  10.169  38.441   3.794
65515W        W30676  18.023  34.593   0.703
65516W        W30677  31.645  27.685  10.181
65517W        W30678   8.233   6.069  13.603
65518W        W30679  30.429  41.589  11.694
65519W        W30680   1.375  19.895  11.903
65520W        W30681  10.338  37.412  14.899
65521W        W30682  15.082  23.753   0.909
65522W        W30683  41.641  16.644  12.125
65523W        W30684  36.671  17.126   1.246
65524W        W30685  16.426  42.490  11.459
65525W        W30686  17.345  36.089  11.842
65526W        W30687  23.244  10.879  13.346
65527W        W30688  13.201  17.534   1.746
65528W        W30689  15.679  28.210   2.210
65529W        W30690  23.411  28.014   1.699
65530W        W30691   0.229   3.517   1.157
65531W        W30692  16.791  26.211  11.088
65532W        W30693  34.412   3.410  11.968
65533W        W30694  36.650   8.225  11.618
65534W        W30695   3.478  41.288  13.845
65535W        W30696  37.526  38.221   9.689
65536W        W30697  24.373  17.282   3.706
65537W        W30698   7.732  17.506  12.503
65538W        W30699  20.508   9.329   2.781
65539W        W30700  14.762  32.550  14.278
65540W        W30701  20.824  21.410  12.009
65541W        W30702   9.701  17.314   2.252
65542W        W30703   0.211  40.959   2.522
65543W        W30704  43.872  39.533   0.572
65544W        W30705  39.761   2.379  13.807
65545W        W30706  27.736   3.219  11.168
65546W        W30707   6.242  39.151  14.923
65547W        W30708  24.685  42.885   0.469
65548W        W30709  21.030   3.022   4.770
65549W        W30710  16.118  36.206  12.232
65550W        W30711   2.745   2.448  13.848
65551W        W30712  22.983   8.425  11.392
65552W        W30713  44.459   2.817  14.806
65553W        W30714  36.868  25.677  14.385
65554W        W30715  21.142   5.200  11.309
65555W        W30716   8.800  16.797   1.435
65556W        W30717  16.222   7.807  14.504
65557W        W30718  18.145   5.607  11.516
65558W        W30719  25.546  34.412   3.559
65559W        W30720  32.953  30.569   0.608
65560W        W30721  25.785  19.301   2.892
65561W        W30722  24.077   2.949   5.084
65562W        W30723  19.215  13.309  13.493
65563W        W30724  12.740  18.533   3.069
65564W        W30725  16.777  39.341  10.696
65565W        W30726   6.419   2.894   4.405
65566W        W30727  27.233  31.333  13.436
65567W        W30728   8.100  19.339   5.059
65568W        W30729  31.787  18.530   4.159
65569W        W30730  12.921  19.041   3.625
65570W        W30731  31.055  29.552   2.298
65571W        W30732   3.030  33.867  14.756
65572W        W30733  30.131  20.635   4.258
65573W        W30734  27.240  17.273   2.946
65574W        W30735  27.984  17.274   3.244
65575W        W30736  16.557  23.199   1.726
65576W        W30737  44.936  25.033   2.110
65577W        W30738  21.908  41.632   2.645
65578W        W30739   5.183  29.594   4.976
65579W        W30740   7.921   5.885   0.832
65580W        W30741  36.970   0.559  12.822
65581W        W30742   4.222  35.028   4.760
65582W        W30743  22.202   0.938  13.458
65583W        W30744   3.734  20.771   4.261
65584W        W30745  36.012   0.790  11.818
65585W        W30746  36.421  21.639   4.689
65586W        W30747  44.855  29.389  13.613
65587W        W30748  37.139  21.246  13.301
65588W        W30749  11.640  37.893  10.060
65589W        W30750  43.872   0.854  11.619
65590W        W30751  41.841  18.723  10.925
65591W        W30752   9.390  25.737  14.824
65592W        W30753  36.817   1.758  10.505
65593W        W30754  18.670  25.614  14.792
65594W        W30755  40.537  20.907  13.348
65595W        W30756  10.433  37.104   3.618
65596W        W30757  38.789  12.261  12.054
65597W        W30758   9.285   9.133   2.409
65598W        W30759   9.749  25.699  10.325
65599W        W30760  18.609  30.547  13.803
65600W        W30761  14.981   9.883  12.495
65601W        W30762  31.823  30.738  14.380
65602W        W30763  35.509  34.628  13.413
65603W        W30764  11.658   2.184  12.450
65604W        W30765  39.242   3.433  10.780
65605W        W30766  22.906  20.311   2.482
65606W        W30767  15.225  38.698   2.017
65607W        W30768  14.103  38.335   0.653
65608W        W30769  30.078  22.698   1.530
65609W        W30770  39.734  31.587  12.394
65610W        W30771  32.543  33.993   2.689
65611W        W30772  19.521   8.084   1.511
65612W        W30773  12.088  19.289   4.559
65613W        W30774  38.561  29.248   3.776
65614W        W30775  10.147  30.062   0.642
65615W        W30776  44.855   7.198   1.913
65616W        W30777  44.869  13.033  14.068
65617W        W30778   6.294  38.394  14.081
65618W        W30779  19.293  28.280  11.184
65619W        W30780  15.302  31.902   2.044
65620W        W30781  34.936   0.523  12.101
65621W        W30782   9.704  34.354  12.129
65622W        W30783  36.761  16.658   2.722
65623W        W30784  20.512  10.594  11.684
65624W        W30785   9.416  27.218   3.595
65625W        W30786  33.063  15.810   3.204
65626W        W30787  41.189  24.364  14.857
65627W        W30788   9.168  23.028  12.875
65628W        W30789  37.551  12.126  13.085
65629W        W30790  36.057   0.368   3.237
65630W        W30791  10.853  36.051  11.897
65631W        W30792  35.427   1.261  12.360
65632W        W30793  17.358   5.685  11.118
65633W        W30794   5.112   2.064   2.004
65634W        W30795  16.518  42.351  14.239
65635W        W30796  18.714  12.970  13.462
65636W        W30797  22.770  20.532   1.195
65637W        W30798  26.699   6.192  13.287
65638W        W30799   1.400  43.770   2.324
65639W        W30800  44.465  30.684   2.591
65640W        W30801   0.364  16.173   1.824
65641W        W30802  13.516   8.517   4.728
65642W        W30803  41.933  42.339  13.514
65643W        W30804  26.540  32.376   0.373
65644W        W30805  13.456  34.214   0.927
65645W        W30806  42.808  16.733   5.049
65646W        W30807   5.861  39.529   0.437
65647W        W30808   2.883  23.136   1.707
65648W        W30809  13.734  43.199   2.346
65649W        W30810  15.866  39.082  13.337
65650W        W30811  42.211  37.303  14.070
65651W        W30812  41.347  29.725   1.970
65652W        W30813  29.172  34.009  14.329
65653W        W30814  27.054  27.701   4.084
65654W        W30815  42.584  30.175   2.660
65655W        W30816  34.381  28.431   2.176
65656W        W30817  39.973   1.135   3.131
65657W        W30818  18.996  30.294  11.379
65658W        W30819  39.671  42.896   4.886
65659W        W30820   4.507  18.726   4.527
65660W        W30821  24.776  15.747  12.880
65661W        W30822  12.324   7.286   1.930
65662W        W30823  29.712  39.416  12.226
65663W        W30824   1.335  39.424   1.007
65664W        W30825  20.900  21.757  11.077
65665W        W30826  33.292  30.394   1.884
65666W        W30827  25.440  23.050   2.714
65667W        W30828  31.036   9.859   0.422
65668W        W30829  10.830   7.159   3.237
65669W        W30830  15.689   6.056  10.489
65670W        W30831   0.290  27.527  12.669
65671W        W30832  27.977  20.142   4.550
65672W        W30833  38.266  14.476   3.166
65673W        W30834  41.990  26.692   1.259
65674W        W30835  11.207   9.188   4.812
65675W        W30836  37.260  23.967   2.830
65676W        W30837  15.126  22.764   2.485
65677W        W30838   6.290  21.691   1.771
65678W        W30839  34.851  28.064  13.619
65679W        W30840  36.604   9.918  11.698
65680W        W30841   9.786  37.398   5.187
65681W        W30842  42.028   7.838   3.210
65682W        W30843   9.335  33.952   1.168
65683W        W30844  17.998  15.473   1.744
65684W        W30845  31.937  19.567  13.984
65685W        W30846  43.840  34.415  13.588
65686W        W30847  36.329   9.032  10.893
65687W        W30848  15.703   8.957   1.673
65688W        W30849  25.682  26.509  11.613
65689W        W30850  17.014  24.135  13.366
65690W        W30851  11.845  17.248  10.739
65691W        W30852  28.951   6.755  11.197
65692W        W30853  11.873  10.618   1.714
65693W        W30854   0.775  13.572  12.164
65694W        W30855  24.738  25.516   1.962
65695W        W30856  11.247  37.816   3.384
65696W        W30857   3.211  10.950  13.401
65697W        W30858  27.881  22.114  13.027
65698W        W30859   1.929   9.748   3.743
65699W        W30860   9.612  30.596  14.538
65700W        W30861  41.550   1.245   0.511
65701W        W30862  10.200  35.337   3.208
65702W        W30863   9.336  11.816  14.743
65703W        W30864  37.644   5.642  13.248
65704W        W30865  12.096  31.712  11.629
65705W        W30866   5.385  44.399  14.851
65706W        W30867  27.181  20.940   0.611
65707W        W30868  24.242  43.255   2.873
65708W        W30869  43.538   2.306  11.031
65709W        W30870  24.527  22.022  12.084
65710W        W30871  32.505   9.730  11.693
65711W        W30872  19.696  39.411   4.500
65712W        W30873  44.174  31.985  10.652
65713W        W30874   2.694   7.715   3.785
65714W        W30875  28.583  20.297  14.021
65715W        W30876  35.539  41.526  14.851
65716W        W30877   3.066   5.345   3.012
65717W        W30878  17.076  35.630   3.686
65718W        W30879   6.243  25.662  12.089
65719W        W30880  44.618  23.244  14.257
65720W        W30881  28.043   6.484   2.738
65721W        W30882   3.329  36.528  10.633
65722W        W30883  24.761  42.456   0.183
65723W        W30884  42.073  36.022   0.959
65724W        W30885  29.940   3.847  12.123
65725W        W30886   9.902  20.183  12.321
65726W        W30887  13.232   3.517  11.073
65727W        W30888   4.340   3.497  11.081
65728W        W30889  36.991  38.074  13.052
65729W        W30890  38.639  19.920   1.390
65730W        W30891   4.130  32.958   0.474
65731W        W30892  38.988  35.649   0.753
65732W        W30893  28.008   4.240  14.921
65733W        W30894   2.915  44.422   3.578
65734W        W30895   8.826   5.327  10.646
65735W        W30896   9.238   8.428  13.117
65736W        W30897  21.696  27.992   4.438
65737W        W30898   0.231  30.629  14.093
65738W        W30899   7.199   2.478  10.754
65739W        W30900  41.797  20.538  13.408
65740W        W30901   0.334   1.389   1.864
65741W        W30902  38.046  39.967   0.387
65742W        W30903  11.651   5.420  13.048
65743W        W30904  23.391  20.260  14.777
65744W        W30905  30.241  36.899  11.995
65745W        W30906   3.375   6.246  10.639
65746W        W30907  17.698  35.731  11.955
65747W        W30908   3.242  21.540   1.161
65748W        W30909  22.334  25.280  13.025
65749W        W30910  31.522  30.002  10.708
65750W        W30911  20.192   1.416  10.413
65751W        W30912  21.465  44.931   2.768
65752W        W30913  19.031  15.287  14.820
65753W        W30914  40.713   8.128  13.223
65754W        W30915  31.186  38.141  12.998
65755W        W30916  37.421  44.526  13.502
65756W        W30917  17.117   6.224   2.425
65757W        W30918   6.567  30.083  14.011
65758W        W30919  31.964  39.505  14.051
65759W        W30920  44.917  22.447   0.868
65760W        W30921  30.870  40.946  12.410
65761W        W30922  38.799  27.284  12.065
65762W        W30923  35.381  39.897  13.001
65763W        W30924  33.819  18.263  13.142
65764W        W30925  17.731  21.226  10.767
65765W        W30926  23.106  14.340  14.929
65766W        W30927  18.191   2.141   2.339
65767W        W30928  27.204   1.309  12.806
65768W        W30929  39.341  33.192   3.217
65769W        W30930   3.254   8.907  12.815
65770W        W30931   1.198   1.165  13.333
65771W        W30932  13.655  28.944   2.869
65772W        W30933  42.774   1.288   2.711
65773W        W30934  37.171  41.879   3.653
65774W        W30935  41.980  38.920  13.335
65775W        W30936  36.290  22.473  12.531
65776W        W30937  21.295  21.502   4.274
65777W        W30938  29.679   2.443   2.664
65778W        W30939   8.421  44.902   1.950
65779W        W30940  28.472  38.906   2.362
65780W        W30941  28.513  25.095   2.543
65781W        W30942   0.714  29.867  13.920
65782W        W30943  13.702  37.896   1.150
65783W        W30944  32.816   7.846  13.466
65784W        W30945   6.734  23.673  11.919
65785W        W30946  18.221  13.083  10.751
65786W        W30947  10.254  37.607   0.892
65787W        W30948  33.117  37.056   0.375
65788W        W30949   6.921   3.483   1.176
65789W        W30950   8.277   0.339  10.482
65790W        W30951  39.380  17.042   3.047
65791W        W30952  29.478   6.863  14.857
65792W        W30953   7.961  29.472   1.837
65793W        W30954  39.431  16.409  14.811
65794W        W30955  11.427   4.921   1.040
65795W        W30956  22.246  25.200  13.938
65796W        W30957  29.621   5.396   3.139
65797W        W30958  30.510  34.081  13.596
65798W        W30959  43.790  19.144   3.289
65799W        W30960  25.746   1.017   1.269
65800W        W30961  33.449  19.768   2.289
65801W        W30962  30.519  17.091   2.150
65802W        W30963  42.691  38.470   4.216
65803W        W30964  27.919  19.549   3.598
65804W        W30965  11.983  40.280  10.130
65805W        W30966   7.459   2.375   3.896
65806W        W30967  38.276  14.668   2.667
65807W        W30968  13.331  35.566   1.630
65808W        W30969  18.412  19.629   0.240
65809W        W30970   2.852  28.270  13.885
65810W        W30971  10.443  26.861  13.217
65811W        W30972  17.714  29.413  12.873
65812W        W30973   4.940  23.715   4.165
65813W        W30974  39.879  24.899   0.737
65814W        W30975  24.175  15.693   0.248
65815W        W30976  34.330  35.806   3.255
65816W        W30977  25.832  44.034   1.183
65817W        W30978  14.796  42.926   1.955
65818W        W30979  37.392  15.016   3.598
65819W        W30980  21.978  13.646  13.072
65820W        W30981   6.460  19.112  14.891
65821W        W30982  27.533   8.361  10.763
65822W        W30983  43.721   8.977  14.983
65823W        W30984  14.264  18.548   5.079
65824W        W30985  27.158  22.988  12.444
65825W        W30986  44.973  18.806  12.117
65826W        W30987  13.272   7.748  13.283
65827W        W30988  24.343  12.131  14.732
65828W        W30989   4.177   1.274  10.689
65829W        W30990  11.835  29.601  13.338
65830W        W30991  37.431  36.717   2.151
65831W        W30992   2.248  35.012  12.628
65832W        W30993  44.846  21.777  12.102
65833W        W30994   4.123   1.234   2.838
65834W        W30995  30.491  17.191  10.741
65835W        W30996  23.831  20.915  12.067
65836W        W30997  26.568  41.841  14.088
65837W        W30998  15.966  13.756   1.373
65838W        W30999  42.015  42.945   1.395
65839W        W31000  22.994  15.756   0.448
65840W        W31001  40.265  27.332  14.373
65841W        W31002  13.933  16.822   1.840
65842W        W31003   0.524  11.200  14.899
65843W        W31004  31.182   6.612   3.183
65844W        W31005   4.926  22.238  11.213
65845W        W31006  42.516   4.443  10.769
65846W        W31007   4.346   0.218   2.265
65847W        W31008  30.546   9.643  14.736
65848W        W31009   9.184  19.242   4.251
65849W        W31010  40.860  37.854   1.403
65850W        W31011  14.940   3.465   0.462
65851W        W31012  30.921  44.531   2.582
65852W        W31013  39.736   1.073   3.632
65853W        W31014  34.509  32.420   1.777
65854W        W31015  14.048   7.921  12.100
65855W        W31016  28.313  34.627   1.938
65856W        W31017  34.560  28.705   3.181
65857W        W31018  14.948  34.369   4.532
65858W        W31019  42.299   9.323  12.798
65859W        W31020  34.012  29.762   1.211
65860W        W31021  41.977   8.155   2.293
65861W        W31022  39.024  21.295   1.288
65862W        W31023   0.909  38.385   3.593
65863W        W31024  14.104  19.485  11.668
65864W        W31025   9.571  34.500   4.754
65865W        W31026  17.864  39.992   2.834
65866W        W31027  41.047   4.384  13.079
65867W        W31028  16.196   3.213   3.593
65868W        W31029  33.311  30.722   2.720
65869W        W31030   1.209  26.952  11.130
65870W        W31031  38.591  38.095   1.347
65871W        W31032  40.681  44.855  13.486
65872W        W31033   9.768  16.176  11.303
65873W        W31034  21.048  37.810  13.481
65874W        W31035  18.716  35.461  12.772
65875W        W31036  26.530  27.428  11.896
65876W        W31037   4.293  40.910  13.564
65877W        W31038   8.888  24.605   4.910
65878W        W31039  37.824  37.369  10.865
65879W        W31040   1.625  44.756  12.492
65880W        W31041  28.853  29.856   1.408
65881W        W31042   8.659   9.393  11.205
65882W        W31043   0.948  41.859  10.969
65883W        W31044   0.822   9.210   2.332
65884W        W31045  41.602  42.292   3.530
65885W        W31046  12.401  15.114   3.579
65886W        W31047  19.118  33.015   2.757
65887W        W31048  12.718  44.625   2.289
65888W        W31049  17.088  17.773  11.524
65889W        W31050  29.362  31.439  13.781
65890W        W31051  10.830  34.584   2.966
65891W        W31052  12.071  30.474  12.977
65892W        W31053  38.424  33.395   0.886
65893W        W31054  23.759  12.906  12.586
65894W        W31055   5.833  28.130   0.143
65895W        W31056  28.784   9.001  11.078
65896W        W31057   3.472  38.055  14.546
65897W        W31058  31.965   5.676   2.721
65898W        W31059  44.369  34.017  12.358
65899W        W31060  23.746  28.616   3.893
65900W        W31061  21.263  31.377   2.031
65901W        W31062  14.522   4.503   3.593
65902W        W31063   6.902  32.357  11.967
65903W        W31064  17.778  23.687   4.623
65904W        W31065   4.855  44.546  11.147
65905W        W31066  34.367  21.011   0.309
65906W        W31067  17.871   7.182  12.026
65907W        W31068  33.085  16.436  13.247
65908W        W31069  39.222  31.558  12.443
65909W        W31070  42.365  31.818  11.131
65910W        W31071  13.393   1.239  11.631
65911W        W31072  18.741  39.028   2.490
65912W        W31073  35.478  17.700  11.986
65913W        W31074  43.688  17.133   0.355
65914W        W31075  40.568  36.820  14.912
65915W        W31076  19.049  33.852  10.668
65916W        W31077  22.236  27.718   3.609
65917W        W31078   0.301  29.710  12.021
65918W        W31079   2.419  32.572  12.471
65919W        W31080  28.850  21.537  11.946
65920W        W31081  26.815  10.211  12.696
65921W        W31082  14.378  14.102   3.977
65922W        W31083  21.087  30.568  12.263
65923W        W31084   7.972  23.726   2.228
65924W        W31085  12.158   7.318  14.504
65925W        W31086  26.965  25.127   4.072
65926W        W31087   2.755  38.934   3.134
65927W        W31088  17.038  28.668  10.665
65928W        W31089  33.209  44.541  12.926
65929W        W31090  24.512  23.251  14.965
65930W        W31091  41.912  39.360   4.594
65931W        W31092  24.059  21.001  12.517
65932W        W31093  36.388  20.930   4.713
65933W        W31094  22.980   4.288  13.739
65934W        W31095  31.503  15.038   1.455
65935W        W31096  41.907  13.908   2.948
65936W        W31097   7.221  41.392  14.395
65937W        W31098  35.874  24.540   2.636
65938W        W31099   8.807  23.976  11.629
65939W        W31100  30.060  22.224  10.723
65940W        W31101  38.217  10.196   2.214
65941W        W31102   6.256   8.026  12.668
65942W        W31103   1.382  41.386   0.541
65943W        W31104  35.378  35.647  12.000
65944W        W31105   2.051  42.772   2.284
65945W        W31106  29.724  32.512  11.163
65946W        W31107  32.263  33.449   2.729
65947W        W31108  15.087   1.264  14.839
65948W        W31109  35.601   1.990   3.631
65949W        W31110  19.310   4.286  11.595
65950W        W31111   5.742  19.487  11.668
65951W        W31112   4.688  42.432   4.087
65952W        W31113  16.720   2.170   4.326
65953W        W31114  10.315  41.888  12.790
65954W        W31115  18.344  30.356   1.387
65955W        W31116  36.920  21.718  11.449
65956W        W31117  38.801  21.631   4.339
65957W        W31118  11.224  24.575  10.733
65958W        W31119  23.071  22.541  12.529
65959W        W31120  42.251  17.134   0.510
65960W        W31121  14.446  33.986   1.799
65961W        W31122  22.966  18.456   4.049
65962W        W31123  15.601  32.499   0.531
65963W        W31124   0.276  43.326   1.824
65964W        W31125  19.054  15.626  13.601
65965W        W31126  34.380  28.191   3.341
65966W        W31127  15.863  12.704   3.735
65967W        W31128  30.748  19.253  13.033
65968W        W31129  11.630  27.857   4.361
65969W        W31130  34.431  29.314  13.572
65970W        W31131  16.560   7.027  13.321
65971W        W31132  18.559  10.223   2.713
65972W        W31133  25.540  12.870   1.348
65973W        W31134  16.919  11.664  12.055
65974W        W31135   7.281   8.199   0.580
65975W        W31136  29.306   9.181   3.793
65976W        W31137   1.548  37.356   2.579
65977W        W31138  22.753  36.427   0.839
65978W        W31139   5.022   6.276  11.204
65979W        W31140  20.955  23.105  13.505
65980W        W31141   7.013  44.849  10.672
65981W        W31142   9.891  44.029  10.731
65982W        W31143  12.759  24.633   2.166
65983W        W31144  35.606  24.214   0.433
65984W        W31145   8.258  20.195  11.731
65985W        W31146  19.279   8.700  13.465
65986W        W31147  19.763  29.493  12.295
65987W        W31148  27.058  38.369  13.366
65988W        W31149   2.781  16.149   3.579
65989W        W31150  18.619  21.863   2.777
65990W        W31151  21.285   2.904  14.942
65991W        W31152   4.084   1.766   0.608
65992W        W31153  33.033  34.251   0.845
65993W        W31154  16.882   1.992   2.341
65994W        W31155  41.149  21.870   3.835
65995W        W31156  21.595  31.340  10.755
65996W        W31157   8.261  41.814   3.838
65997W        W31158  42.613  11.945  11.080
65998W        W31159  25.219   9.741   4.167
65999W        W31160  39.854  44.825  13.270
66000W        W31161  37.842   9.109   4.530
66001W        W31162   5.017  44.921  10.594
66002W        W31163  33.189   4.669   3.368
66003W        W31164  43.620  21.008   0.829
66004W        W31165  25.255   5.172   4.064
66005W        W31166  10.986  12.634   4.017
66006W        W31167  43.114  23.443   4.600
66007W        W31168  35.613   7.568   2.747
66008W        W31169  43.360  38.792   3.837
66009W        W31170  13.176  14.881  11.636
66010W        W31171  40.546  26.888  14.521
66011W        W31172  30.024  26.071   1.859
66012W        W31173   1.388  41.826  14.203
66013W        W31174  10.324  13.656  12.778
66014W        W31175  37.268   2.405   2.055
66015W        W31176   4.223   0.786   1.330
66016W        W31177  10.826  36.905  13.736
66017W        W31178  13.225  31.040  10.733
66018W        W31179   4.291  10.290   3.414
66019W        W31180  40.320   2.952   0.276
66020W        W31181  11.076  26.664  13.785
66021W        W31182  32.132  15.128  14.074
66022W        W31183  27.909   7.317   2.159
66023W        W31184   5.702  17.271  12.947
66024W        W31185  38.819  27.030   0.848
66025W        W31186   0.992   4.938  13.751
66026W        W31187  37.112  26.587   2.384
66027W        W31188  41.426   2.654   1.444
66028W        W31189  19.512   3.384   4.058
66029W        W31190  40.972  10.897  13.314
66030W        W31191  15.233  38.969  10.603
66031W        W31192  35.818  44.749  11.026
66032W        W31193   2.799  12.231  12.522
66033W        W31194  23.153   1.450  14.328
66034W        W31195  30.063   2.252  14.893
66035W        W31196  11.367  38.012  14.163
66036W        W31197  30.844   1.372   4.579
66037W        W31198   8.775  13.797  10.473
66038W        W31199  30.431  13.063  10.584
66039W        W31200  33.860  25.337  12.030
66040W        W31201  10.540  32.081  13.068
66041W        W31202  11.641  13.202  11.675
66042W        W31203  11.567   1.415  13.075
66043W        W31204  12.859  31.510  13.741
66044W        W31205   9.736  28.679  10.747
66045W        W31206  42.089  19.376   0.011
66046W        W31207  29.450  19.517  12.566
66047W        W31208  12.134  25.401   1.483
66048W        W31209  15.351   6.620   4.897
66049W        W31210  19.285  10.234   3.356
66050W        W31211  10.126  23.211   0.837
66051W        W31212   7.938   8.612  12.838
66052W        W31213  29.822  43.006  11.076
66053W        W31214  35.926  10.484   2.499
66054W        W31215  39.714  37.488  10.688
66055W        W31216  38.905  13.052  11.120
66056W        W31217  12.549  23.560   2.224
66057W        W31218  28.053  10.436   2.714
66058W        W31219  10.060   6.135  10.929
66059W        W31220  18.858  13.239   4.155
66060W        W31221  16.740  38.322   0.676
66061W        W31222  21.076  18.714  12.012
66062W        W31223  15.162  11.708  10.452
66063W        W31224  20.990   3.431  10.660
66064W        W31225   7.715   0.979  12.523
66065W        W31226   4.314  19.588   4.521
66066W        W31227  34.670   2.678  14.358
66067W        W31228   9.788  10.159  14.001
66068W        W31229  31.636  11.799  14.883
66069W        W31230  16.689  21.736  11.652
66070W        W31231  11.403   4.951   1.820
66071W        W31232  15.717  26.413   2.205
66072W        W31233   9.146  42.211   0.805
66073W        W31234  37.380   6.940   4.308
66074W        W31235  24.795  10.605  13.907
66075W        W31236  38.003  18.288   1.152
66076W        W31237  28.002  16.308   4.621
66077W        W31238  12.966  20.953   2.274
66078W        W31239  43.375  27.365  14.462
66079W        W31240  10.456  33.814  12.562
66080W        W31241   9.172  43.153  11.992
66081W        W31242  39.756   3.453   4.072
66082W        W31243   1.363  25.767  13.091
66083W        W31244  41.424  21.094   1.320
66084W        W31245   8.272  11.074  11.908
66085W        W31246  15.620  17.604  10.602
66086W        W31247  37.603  38.839  11.092
66087W        W31248  26.132  25.087   2.363
66088W        W31249  28.662  13.663   1.321
66089W        W31250  36.317   4.006  14.444
66090W        W31251   4.904  40.043  10.305
66091W        W31252  36.810  16.788   1.746
66092W        W31253   2.042  22.722   0.404
66093W        W31254  30.692  18.457   1.871
66094W        W31255  29.371  37.836   3.139
66095W        W31256  10.509  17.090  14.966
66096W        W31257  25.338  17.227   1.495
66097W        W31258   2.630   8.945  14.387
66098W        W31259  27.469  42.001  13.624
66099W        W31260   2.945  26.900   1.799
66100W        W31261   0.120  41.389  14.399
66101W        W31262   1.699  17.736   5.581
66102W        W31263  42.965   7.200   1.805
66103W        W31264  19.182   4.931   3.699
66104W        W31265  28.644   6.756   1.372
66105W        W31266   3.865  39.759   3.391
66106W        W31267  26.060  33.074  13.737
66107W        W31268   3.413  24.824   4.474
66108W        W31269  20.565   4.914  10.991
66109W        W31270  39.993  44.227  12.471
66110W        W31271  18.798  15.194  13.446
66111W        W31272  44.031  37.645   3.889
66112W        W31273  32.725  18.587  12.456
66113W        W31274  33.081  28.123  12.542
66114W        W31275  34.403  37.415   4.826
66115W        W31276  17.759  11.822   3.189
66116W        W31277  14.547  37.149   1.876
66117W        W31278  17.096  36.822   2.385
66118W        W31279   0.307  37.162  10.735
66119W        W31280  22.768  20.266  14.075
66120W        W31281  41.465  24.500  10.733
66121W        W31282  26.592  33.780   4.340
66122W        W31283  44.724   3.302   4.050
66123W        W31284  28.638  36.569  12.406
66124W        W31285   3.282   1.401  10.917
66125W        W31286  13.268   7.822   2.787
66126W        W31287  10.843  25.943  11.970
66127W        W31288   6.211   3.232   1.864
66128W        W31289  37.133  14.361  12.531
66129W        W31290   4.865  29.667   0.243
66130W        W31291  33.668  12.243  14.392
66131W        W31292  16.049  37.914   3.457
66132W        W31293  19.263  31.873  13.068
66133W        W31294  27.175  12.795  14.702
66134W        W31295   4.097   9.107   4.602
66135W        W31296  23.860  43.121   0.879
66136W        W31297  11.075   9.658   3.308
66137W        W31298   7.895   8.115  14.421
66138W        W31299  12.263  34.330   1.379
66139W        W31300  24.490   0.712  10.980
66140W        W31301  19.614   4.423  10.947
66141W        W31302  31.395  19.017  10.647
66142W        W31303  29.862  38.360   0.925
66143W        W31304  14.611  35.055  14.748
66144W        W31305  29.118  35.398  10.723
66145W        W31306   9.092  29.543   0.431
66146W        W31307  13.820   8.394  12.091
66147W        W31308  36.357   9.077  14.642
66148W        W31309   7.918  37.991  13.936
66149W        W31310  39.519  27.643   4.518
66150W        W31311  38.093  28.398   0.558
66151W        W31312  29.578  44.976  10.690
66152W        W31313  44.401  31.579  14.311
66153W        W31314  18.811  40.392  14.594
66154W        W31315  20.259  25.533   4.157
66155W        W31316  34.129  13.798  14.991
66156W        W31317   0.022  39.581   4.049
66157W        W31318  14.886  13.753  11.610
66158W        W31319   1.007  30.123  13.581
66159W        W31320  19.680  12.170  14.441
66160W        W31321  41.775   4.486  11.225
66161W        W31322  39.417  22.480   4.140
66162W        W31323  35.270  19.388   2.437
66163W        W31324   0.007  22.544  13.806
66164W        W31325  23.250  37.834  12.969
66165W        W31326  12.291  37.503   4.561
66166W        W31327  35.965  18.088   0.674
66167W        W31328  13.618  26.506   3.180
66168W        W31329   4.520  21.155   1.410
66169W        W31330   4.862   4.782   2.125
66170W        W31331  31.999  13.462  12.858
66171W        W31332   6.957  31.855  11.891
66172W        W31333  23.580  37.078  11.676
66173W        W31334  19.247  37.608  12.893
66174W        W31335  25.708  11.196   1.257
66175W        W31336   1.064  30.456   4.065
66176W        W31337  15.471  43.829  10.717
66177W        W31338   9.679   4.377  12.168
66178W        W31339  10.791  24.946  12.984
66179W        W31340  10.222   0.983  13.970
66180W        W31341  35.997  39.469  14.428
66181W        W31342  28.213  25.549  11.970
66182W        W31343  15.492  14.651  10.337
66183W        W31344   9.246  21.966  13.850
66184W        W31345  10.328  29.444   3.174
66185W        W31346   3.723  11.160   3.748
66186W        W31347   6.020   6.914  10.363
66187W        W31348  13.815  14.520  14.010
66188W        W31349   5.391  23.979  11.414
66189W        W31350  21.787  10.224  11.901
66190W        W31351  29.167  32.655  11.114
66191W        W31352  35.332   8.861   3.745
66192W        W31353  11.929   7.180  11.479
66193W        W31354  28.149  26.122  14.039
66194W        W31355  17.591  24.788  12.503
66195W        W31356  31.036  25.048   4.821
66196W        W31357  27.478  44.074  13.033
66197W        W31358  20.516  19.576   3.266
66198W        W31359   9.719  20.283   0.868
66199W        W31360   1.216  23.701   1.857
66200W        W31361   5.794  34.622   1.816
66201W        W31362  23.926  40.233   1.826
66202W        W31363  40.436  24.432   1.725
66203W        W31364  14.034  22.229   1.773
66204W        W31365  40.435  33.997   4.701
66205W        W31366  30.490  22.084   3.854
66206W        W31367  30.506  28.464   4.773
66207W        W31368  23.696  23.909  14.730
66208W        W31369  32.270  20.665   3.083
66209W        W31370  18.829   1.382   3.707
66210W        W31371  21.254  42.824   2.430
66211W        W31372  40.646  29.930  12.004
66212W        W31373  32.311  10.700  13.423
66213W        W31374  35.876  38.011   2.729
66214W        W31375  21.015  25.093   4.277
66215W        W31376  28.891   1.372   3.718
66216W        W31377  26.516   5.912   0.996
66217W        W31378  31.079  30.735   4.479
66218W        W31379  30.192  18.320  11.466
66219W        W31380  19.700  30.008  14.072
66220W        W31381  16.216  16.358   3.630
66221W        W31382  10.782   1.712  12.568
66222W        W31383   1.501  43.936  13.596
66223W        W31384  35.707  32.990  14.962
66224W        W31385  34.539  17.463  13.983
66225W        W31386  24.010   4.436  12.566
66226W        W31387  11.752   1.926  11.983
66227W        W31388  15.242  31.397   1.766
66228W        W31389  13.618  32.532  12.163
66229W        W31390  39.705  24.406   0.783
66230W        W31391  15.144  19.808   0.720
66231W        W31392  41.741  31.551  14.381
66232W        W31393  30.448   3.747  13.497
66233W        W31394  25.041   4.527   2.704
66234W        W31395  19.093   0.492   4.172
66235W        W31396  39.762  40.728   0.895
66236W        W31397   0.621  10.848  14.046
66237W        W31398  15.227  19.312  14.349
66238W        W31399  24.488  27.837  12.563
66239W        W31400  16.385   4.911   1.036
66240W        W31401  44.083  33.478  14.839
66241W        W31402  22.701  29.380   4.105
66242W        W31403  36.444  31.145  11.455
66243W        W31404  27.234  15.650  14.942
66244W        W31405  12.380  39.406   0.403
66245W        W31406  11.615  13.280   2.933
66246W        W31407  10.316   1.453  14.958
66247W        W31408  37.916  13.599   4.265
66248W        W31409  39.346  14.289   3.641
66249W        W31410  30.513  36.520   1.866
66250W        W31411  13.099   2.094   1.363
66251W        W31412  36.644   2.111  11.662
66252W        W31413  17.232  39.590  13.836
66253W        W31414  13.776  27.592   0.262
66254W        W31415  17.361  29.164  12.221
66255W        W31416  24.925  22.946  14.740
66256W        W31417   5.414  27.721  12.103
66257W        W31418  34.246  44.457  14.298
66258W        W31419  37.535  12.294   4.845
66259W        W31420  21.185  42.098  14.764
66260W        W31421  28.034   9.076  10.820
66261W        W31422  26.457  26.407   0.993
66262W        W31423  37.976  16.572  12.835
66263W        W31424  36.499  11.033   2.150
66264W        W31425  35.029  14.703   3.230
66265W        W31426  38.940  41.613  11.238
66266W        W31427  16.822  10.446   1.818
66267W        W31428  14.058  23.937   4.025
66268W        W31429   6.417  26.805   2.873
66269W        W31430  42.598  19.040  12.048
66270W        W31431  40.899  30.397   1.248
66271W        W31432   3.708  43.741   2.839
66272W        W31433  16.873  36.451  13.549
66273W        W31434  22.003  35.379  12.581
66274W        W31435   9.615  38.851   2.820
66275W        W31436  41.493  12.819  12.065
66276W        W31437  18.184  12.685  12.083
66277W        W31438  19.847  37.366  10.640
66278W        W31439  22.084   6.987  14.355
66279W        W31440  17.027  29.448   0.975
66280W        W31441  20.681  18.734   3.857
66281W        W31442   7.226  10.850  11.050
66282W        W31443  25.334  19.515  10.099
66283W        W31444  14.129   5.678  11.589
66284W        W31445   8.887  17.640  12.973
66285W        W31446  26.482  26.317   1.657
66286W        W31447  21.454   5.823  14.937
66287W        W31448  10.818  20.221  12.233
66288W        W31449   0.894  19.806  12.126
66289W        W31450  32.426  39.386  13.825
66290W        W31451  13.858  35.086  13.352
66291W        W31452   3.737  20.716   3.346
66292W        W31453   1.961  15.158  10.816
66293W        W31454  29.569   7.412   3.114
66294W        W31455  12.670  12.148   0.409
66295W        W31456  44.413  27.149   2.348
66296W        W31457  11.085   3.020  11.837
66297W        W31458  24.171  29.751   2.414
66298W        W31459  19.429  14.951   3.097
66299W        W31460  23.686   5.459  14.822
66300W        W31461  19.247   3.198   3.310
66301W        W31462   1.759   7.187   4.565
66302W        W31463  40.559  31.990   0.948
66303W        W31464  33.434  21.208  14.971
66304W        W31465   8.803  33.940   2.415
66305W        W31466  37.176  25.707   1.528
66306W        W31467  43.501   6.029   4.174
66307W        W31468  38.357  19.860   1.826
66308W        W31469  39.795  39.357  12.507
66309W        W31470  18.723  10.428   2.215
66310W        W31471  18.399   7.354   2.905
66311W        W31472  39.142  12.042   0.009
66312W        W31473  10.726  22.206   1.157
66313W        W31474   3.576  19.441   3.984
66314W        W31475  37.538  42.346  12.050
66315W        W31476  40.952  28.086   3.421
66316W        W31477  36.326  39.160  14.797
66317W        W31478  41.303  40.482   0.849
66318W        W31479  23.961   7.890   3.823
66319W        W31480   9.102   2.488   4.338
66320W        W31481  25.384   1.764  12.948
66321W        W31482  13.311   9.579   0.432
66322W        W31483  41.414  40.235  10.651
66323W        W31484  32.509   7.928  14.451
66324W        W31485  39.078  27.026   4.010
66325W        W31486  34.571  22.786  14.033
66326W        W31487  41.988  11.683  11.648
66327W        W31488  37.951  30.463  10.753
66328W        W31489  33.544   7.928   2.272
66329W        W31490  37.564  16.278  11.566
66330W        W31491  25.935   0.838   3.715
66331W        W31492  11.313  43.260  13.883
66332W        W31493  31.600  27.411   4.743
66333W        W31494  35.011   4.917  11.253
66334W        W31495  20.322   6.407  10.666
66335W        W31496  26.511   7.624  13.011
66336W        W31497  43.572  12.795   4.469
66337W        W31498  20.603   7.603   4.123
66338W        W31499   5.892  21.897  14.657
66339W        W31500  21.583  21.518  11.686
66340W        W31501  44.976  27.410   2.797
66341W        W31502  37.416  29.368   3.379
66342W        W31503  29.912  30.244   2.691
66343W        W31504  25.696  32.643  11.201
66344W        W31505  39.863   7.890   1.885
66345W        W31506   6.397  29.779  10.708
66346W        W31507  24.095  18.347   2.645
66347W        W31508  40.268   6.206  10.519
66348W        W31509  12.958   3.374  14.665
66349W        W31510  28.036  20.724   2.632
66350W        W31511   6.974  18.826  11.223
66351W        W31512   2.422  34.546  11.433
66352W        W31513   1.761   0.653  12.616
66353W        W31514  12.870  29.962  13.161
66354W        W31515  31.394  44.261  14.066
66355W        W31516   5.137  22.645  13.355
66356W        W31517  44.037  24.718   2.867
66357W        W31518  35.934   9.875  14.744
66358W        W31519  20.969  11.562   2.923
66359W        W31520   3.850  30.656   2.045
66360W        W31521  26.477  14.091   4.059
66361W        W31522  24.811  30.734   2.729
66362W        W31523  38.964   5.345   4.526
66363W        W31524  17.279  37.847   3.328
66364W        W31525  20.146  27.199  11.128
66365W        W31526  35.188  14.626   1.910
66366W        W31527  14.209   3.787  11.341
66367W        W31528   3.972   5.595  11.600
66368W        W31529  18.586   6.799   2.889
66369W        W31530  10.903  11.859  12.485
66370W        W31531  43.825   2.751   3.674
66371W        W31532  10.875  20.771  10.936
66372W        W31533  23.312  11.768   3.713
66373W        W31534  35.033  17.577   3.124
66374W        W31535  37.853  20.734  14.730
66375W        W31536   3.066   7.224  14.418
66376W        W31537  14.840  32.967   1.752
66377W        W31538  20.701  39.431   1.859
66378W        W31539  32.172  35.634   3.357
66379W        W31540  35.402   0.877   2.720
66380W        W31541  22.633  26.788  12.162
66381W        W31542  19.615  36.383  13.541
66382W        W31543  22.242   6.886   3.813
66383W        W31544  41.352   6.878   2.717
66384W        W31545   5.276  42.491   2.131
66385W        W31546  30.968   9.362   1.142
66386W        W31547  12.185  19.596  10.675
66387W        W31548  25.498  16.355  10.226
66388W        W31549  10.352  27.831  12.862
66389W        W31550  17.341   2.939   4.680
66390W        W31551  39.783  13.597  13.972
66391W        W31552  16.774  32.611  11.662
66392W        W31553  10.590  33.296   0.236
66393W        W31554  16.749  23.482   2.596
66394W        W31555  11.404   0.818   3.328
66395W        W31556  35.468   3.327  11.415
66396W        W31557   7.137  22.650   2.430
66397W        W31558   9.786  37.498  12.784
66398W        W31559  30.024  34.209  13.425
66399W        W31560  36.473  43.939  12.339
66400W        W31561  32.604  17.731  13.663
66401W        W31562  12.796  22.667   1.366
66402W        W31563  17.002  19.451  11.123
66403W        W31564  24.880   9.679  11.711
66404W        W31565   0.406  23.099  10.767
66405W        W31566  40.866  29.658   1.714
66406W        W31567  18.762  25.126   1.269
66407W        W31568  30.229  18.827  13.789
66408W        W31569  36.024  25.048   3.369
66409W        W31570  38.552  14.840   4.052
66410W        W31571  38.029   9.604   4.522
66411W        W31572   4.875   4.118  12.058
66412W        W31573  26.700  23.661   1.501
66413W        W31574  17.801  36.510  11.543
66414W        W31575  39.407  12.562   4.608
66415W        W31576  16.256  35.293  13.034
66416W        W31577  16.797  27.854  10.376
66417W        W31578  16.087  22.323   0.885
66418W        W31579  38.773  31.935   5.215
66419W        W31580  38.191   2.180  14.811
66420W        W31581  18.118  15.516   2.239
66421W        W31582  10.758  19.566   1.469
66422W        W31583  14.259  24.145  13.074
66423W        W31584  18.320   2.384   4.367
66424W        W31585  21.026  18.245  11.750
66425W        W31586  12.089   1.292   4.088
66426W        W31587  30.048   0.751  12.940
66427W        W31588   7.031  12.806   1.245
66428W        W31589  20.047  28.420   2.870
66429W        W31590  35.359   8.926  13.559
66430W        W31591  29.076  32.012  12.470
66431W        W31592   3.004  41.325  11.237
66432W        W31593   8.468   5.760   2.688
66433W        W31594  38.291   7.740   3.628
66434W        W31595  15.381  37.482   4.998
66435W        W31596  12.610  32.716  13.021
66436W        W31597  18.069   4.114  11.682
66437W        W31598  36.668  25.101   1.678
66438W        W31599  28.382  23.315  12.837
66439W        W31600  38.282  29.179   4.205
66440W        W31601  35.208   8.243   4.076
66441W        W31602  26.162  44.319   3.886
66442W        W31603   0.264  30.029   1.050
66443W        W31604  32.386  32.987  12.894
66444W        W31605  37.075  36.054   1.775
66445W        W31606  28.514  22.036  14.358
66446W        W31607   4.030   7.990   1.809
66447W        W31608  11.300   5.387   0.858
66448W        W31609  43.382  31.508  14.247
66449W        W31610  36.405  21.607  12.851
66450W        W31611   9.822   6.238  12.442
66451W        W31612  11.152   0.935  12.494
66452W        W31613  34.988   4.118  11.488
66453W        W31614   5.723  42.871   0.783
66454W        W31615  24.295  21.485   5.261
66455W        W31616  15.921  11.279   0.763
66456W        W31617   8.282  18.080   1.270
66457W        W31618  10.456  15.647   1.722
66458W        W31619  37.398  27.577  11.933
66459W        W31620   7.865  15.990  13.400
66460W        W31621  24.049  40.738   0.299
66461W        W31622  10.867  18.804  10.644
66462W        W31623  44.785  30.192  14.700
66463W        W31624  41.929  30.642   1.966
66464W        W31625  18.790  18.061  14.449
66465W        W31626  40.975  41.489   0.795
66466W        W31627   1.524   9.832   1.914
66467W        W31628  30.766   4.179  12.120
66468W        W31629  28.179  23.794  14.299
66469W        W31630   5.284   3.846   3.373
66470W        W31631   3.664   5.004  10.749
66471W        W31632  35.510  13.653  14.815
66472W        W31633  23.283  35.273   0.411
66473W        W31634  29.985  14.378   1.043
66474W        W31635  44.058  13.367   3.785
66475W        W31636   5.418   2.720   0.317
66476W        W31637  21.827  29.474   2.328
66477W        W31638  39.375  37.276  13.352
66478W        W31639   4.891  11.080   0.833
66479W        W31640  41.808  41.196   0.571
66480W        W31641  11.240  34.335  14.811
66481W        W31642  38.569  44.497   2.679
66482W        W31643  23.569  42.204   4.579
66483W        W31644  13.569  28.570  13.774
66484W        W31645  34.409   7.698  10.743
66485W        W31646  35.627  36.160   1.940
66486W        W31647  30.958  39.342   4.586
66487W        W31648  22.289  24.252  12.968
66488W        W31649  36.487  21.478  11.501
66489W        W31650  25.178   2.701   1.400
66490W        W31651  29.036  38.400   1.135
66491W        W31652   2.821  16.075  11.081
66492W        W31653  29.955  15.183   1.015
66493W        W31654  20.588  10.300   1.404
66494W        W31655  30.996   2.471  10.733
66495W        W31656  18.582  12.405   1.316
66496W        W31657  30.169  31.090   0.728
66497W        W31658  43.264  11.357   4.302
66498W        W31659   7.360  44.810  11.458
66499W        W31660   9.938  26.720  10.194
66500W        W31661   8.899  22.032  10.947
66501W        W31662  19.128  28.167  12.943
66502W        W31663   0.824  34.321  14.710
66503W        W31664  35.411  35.926   2.438
66504W        W31665  22.423  32.960   2.142
66505W        W31666  31.521  15.768  13.102
66506W        W31667  35.973   1.209   0.423
66507W        W31668  26.626  29.472  11.982
66508W        W31669  41.395   5.152  12.438
66509W        W31670  17.700  27.308   2.695
66510W        W31671   7.997  41.509  13.806
66511W        W31672   5.810  18.531   4.323
66512W        W31673   0.546  26.783   0.244
66513W        W31674  11.804  34.359   3.288
66514W        W31675  25.625  21.242   4.402
66515W        W31676  25.552  13.986  10.349
66516W        W31677  17.566  43.428   0.379
66517W        W31678  11.660   8.675   1.943
66518W        W31679  10.627  33.125  10.700
66519W        W31680  40.883   2.518   2.356
66520W        W31681  17.076  41.657   5.420
66521W        W31682  41.406   6.875  12.550
66522W        W31683  26.435   1.099   3.643
66523W        W31684  15.177  35.041  10.449
66524W        W31685  37.686  38.819   3.221
66525W        W31686  40.747  39.333   1.732
66526W        W31687   4.005  18.115  12.046
66527W        W31688   8.579  30.116   4.641
66528W        W31689   6.165  22.857  10.348
66529W        W31690   6.291  21.169   3.475
66530W        W31691  17.779  18.195  11.195
66531W        W31692   6.469  21.618   3.624
66532W        W31693  42.029  37.634  10.721
66533W        W31694  11.549  15.200  13.357
66534W        W31695   6.127   1.049   0.398
66535W        W31696   7.382  30.104  12.108
66536W        W31697  12.223  44.303   1.369
66537W        W31698  42.467  24.964  12.901
66538W        W31699  43.584  43.471  11.036
66539W        W31700   3.870  12.962  13.043
66540W        W31701   7.681  32.165   3.749
66541W        W31702   2.792  25.707  12.959
66542W        W31703  22.077  29.724   0.410
66543W        W31704  44.884  26.188   1.254
66544W        W31705  17.868  42.100  11.688
66545W        W31706  26.151  28.666  14.745
66546W        W31707   9.896   8.352  14.242
66547W        W31708  41.106  18.036  12.952
66548W        W31709  18.324  37.395  11.635
66549W        W31710  29.186   1.831  13.576
66550W        W31711  14.119  15.014  11.509
66551W        W31712  37.093  14.723  11.149
66552W        W31713  36.465   7.945   3.086
66553W        W31714  36.394  31.045   1.894
66554W        W31715  14.773   0.061   1.882
66555W        W31716  36.543  40.366   3.156
66556W        W31717   6.762  13.618  11.691
66557W        W31718  11.151  20.891  12.578
66558W        W31719   4.313  38.321   2.183
66559W        W31720  20.707   8.643  13.814
66560W        W31721  30.445  35.800   4.520
66561W        W31722  10.201  19.658   2.127
66562W        W31723   8.301  32.900   0.922
66563W        W31724  39.405  17.631   1.330
66564W        W31725  11.110   0.415   1.171
66565W        W31726  16.347   9.630   2.726
66566W        W31727  27.842  10.638   5.060
66567W        W31728  23.385  37.534   0.733
66568W        W31729  11.174   2.208  10.709
66569W        W31730  44.428  18.578   3.187
66570W        W31731  32.881  27.030   1.351
66571W        W31732  35.400  18.382  11.448
66572W        W31733  24.079  28.675  12.641
66573W        W31734  26.476   2.192  12.500
66574W        W31735  33.024  24.051  13.767
66575W        W31736  31.072  19.717   0.731
66576W        W31737   4.298  34.419  12.290
66577W        W31738  10.186  35.366  12.789
66578W        W31739  26.215  16.794  13.418
66579W        W31740  19.016  31.228   4.305
66580W        W31741  38.285  12.779   0.334
66581W        W31742   9.097  19.677   1.946
66582W        W31743  23.636  22.029  13.338
66583W        W31744  20.519  35.984   2.726
66584W        W31745  22.961  22.024  14.260
66585W        W31746  19.367   1.991   0.327
66586W        W31747  10.042   6.194   0.370
66587W        W31748  43.485  27.523   2.892
66588W        W31749  32.565  19.990   3.543
66589W        W31750  41.461  11.817   3.113
66590W        W31751  37.567  16.602   3.076
66591W        W31752  26.635  13.329  12.101
66592W        W31753  35.981  35.490   3.267
66593W        W31754   2.707  33.607  13.432
66594W        W31755  28.485   4.787  14.050
66595W        W31756  28.714  19.958  12.677
66596W        W31757  11.619  31.964   2.810
66597W        W31758   6.604  28.572  11.828
66598W        W31759  13.280  36.235  13.789
66599W        W31760  44.456   8.859   3.425
66600W        W31761   6.368  39.126   4.712
66601W        W31762  39.575  20.050   3.168
66602W        W31763  21.407  38.962   3.841
66603W        W31764  11.831  14.784  13.507
66604W        W31765   7.391  16.015   1.268
66605W        W31766   0.445  10.790  14.525
66606W        W31767  27.628  10.651   4.562
66607W        W31768  27.798   5.207  13.770
66608W        W31769  22.246   8.720   4.594
66609W        W31770  27.287  42.224   3.849
66610W        W31771  26.685  44.462   0.740
66611W        W31772  22.623  42.551  12.978
66612W        W31773  17.735  20.889   3.220
66613W        W31774  18.316  26.950   3.321
66614W        W31775  18.969  26.514   3.571
66615W        W31776   2.741  24.795  13.050
66616W        W31777  29.529  42.965  10.543
66617W        W31778  21.702  33.042  14.971
66618W        W31779  15.655   9.810   4.677
66619W        W31780  22.511  15.728   2.693
66620W        W31781  29.945  27.269  12.496
66621W        W31782  13.688  22.588   1.930
66622W        W31783  26.975  25.049   3.285
66623W        W31784  32.373  14.285  14.914
66624W        W31785  14.453  17.667   0.961
66625W        W31786  43.487  32.875  14.519
66626W        W31787  26.967   0.700   3.691
66627W        W31788   9.103  42.228  14.369
66628W        W31789   8.270  33.465   1.944
66629W        W31790  36.821  16.541  11.174
66630W        W31791  19.806  43.723   2.672
66631W        W31792   7.615  14.735  13.073
66632W        W31793   2.467  42.039  10.728
66633W        W31794  14.679  41.203  12.102
66634W        W31795  13.625  40.960   5.609
66635W        W31796   1.041  30.384  11.488
66636W        W31797   7.820  13.140   4.617
66637W        W31798  32.001  31.413   0.418
66638W        W31799   2.520  42.997   2.314
66639W        W31800  29.050  36.448   3.956
66640W        W31801  43.969   4.168  10.631
66641W        W31802  23.860   1.555  10.694
66642W        W31803  18.957  13.789   3.681
66643W        W31804  43.973  32.526   4.610
66644W        W31805   9.881  30.613  11.677
66645W        W31806  27.884   4.481   0.379
66646W        W31807  13.620  33.234   2.410
66647W        W31808  15.011  12.915   2.325
66648W        W31809  32.021  19.017  11.154
66649W        W31810  23.815  34.585  12.476
66650W        W31811   8.881   9.781   3.151
66651W        W31812  25.930  14.328  12.513
66652W        W31813  12.269  41.482   3.790
66653W        W31814  16.708  41.934   3.686
66654W        W31815  30.699  32.618   2.714
66655W        W31816  17.760  11.737  14.994
66656W        W31817   3.722  35.192   1.710
66657W        W31818  44.969   2.264   0.579
66658W        W31819   4.604  39.635  10.505
66659W        W31820  35.134  24.747  12.834
66660W        W31821  26.020  18.984  13.949
66661W        W31822  25.693  39.593   4.999
66662W        W31823  26.418   1.390   4.125
66663W        W31824  23.181  19.668  11.917
66664W        W31825   6.681  16.537   4.291
66665W        W31826  15.822  36.952  14.195
66666W        W31827  26.480  40.552   0.862
66667W        W31828   2.385  13.353  13.310
66668W        W31829  39.471  27.469  12.544
66669W        W31830   0.673  40.004   3.396
66670W        W31831  24.160  20.076  14.405
66671W        W31832  39.609   9.183   0.323
66672W        W31833  15.553  28.963   2.742
66673W        W31834  25.065  32.634  11.696
66674W        W31835   6.742  26.360  14.364
66675W        W31836  13.391  41.881  11.528
66676W        W31837  40.999  20.314   0.042
66677W        W31838  22.101  26.301  14.854
66678W        W31839   4.365  18.460  12.225
66679W        W31840  34.937  23.794   2.440
66680W        W31841  22.207  19.538  10.591
66681W        W31842  22.961  36.728   3.373
66682W        W31843   2.894  21.659  13.832
66683W        W31844  32.597  34.120  14.770
66684W        W31845  31.687  22.504  14.373
66685W        W31846  13.221   2.719   0.643
66686W        W31847  27.475  35.289   4.340
66687W        W31848   0.702  42.823  12.890
66688W        W31849   4.215  21.557   1.238
66689W        W31850  40.063  33.538  11.723
66690W        W31851  15.855  10.611   4.805
66691W        W31852  32.745  44.472  11.048
66692W        W31853  11.111  12.690   1.322
66693W        W31854   5.672  30.687  14.507
66694W        W31855  39.545   7.278  11.195
66695W        W31856   2.500  15.619  13.448
66696W        W31857  35.463  22.662   0.861
66697W        W31858  43.791  17.346  12.326
66698W        W31859  25.094  40.029   2.742
66699W        W31860   6.237  30.296   4.096
66700W        W31861  42.334  19.130   3.658
66701W        W31862  36.107  19.174   0.887
66702W        W31863  12.268   7.719  13.357
66703W        W31864  12.377  31.999   1.200
66704W        W31865  10.258  34.982   2.813
66705W        W31866  22.128  31.124   3.898
66706W        W31867  39.800  43.856  12.105
66707W        W31868  33.168  36.472  12.560
66708W        W31869   1.865  36.768  12.028
66709W        W31870   0.363  41.361   2.230
66710W        W31871   5.531   8.329   2.259
66711W        W31872   9.897   0.990  10.376
66712W        W31873  20.637   7.301   4.911
66713W        W31874   9.805   9.085   3.089
66714W        W31875  33.491  44.707  10.705
66715W        W31876  23.567  34.356   1.197
66716W        W31877  23.394  35.889  14.504
66717W        W31878  19.757  29.047  11.132
66718W        W31879   9.787  26.781   1.256
66719W        W31880   4.886  29.543  12.138
66720W        W31881  39.050   0.344  12.081
66721W        W31882   4.928   0.140   0.213
66722W        W31883   6.370   0.318  10.757
66723W        W31884   0.895  41.836   3.237
66724W        W31885  34.440  10.654   3.680
66725W        W31886   7.221  10.190   2.913
66726W        W31887  21.256  44.056  12.706
66727W        W31888  35.112  12.569  14.941
66728W        W31889   6.691  20.167  11.211
66729W        W31890  18.302  10.300  14.703
66730W        W31891   8.990  38.081   2.356
66731W        W31892   3.166  25.214   4.769
66732W        W31893   4.374  36.861   1.667
66733W        W31894   1.981   1.830  13.015
66734W        W31895   3.806  36.693  10.520
66735W        W31896  37.851  42.837   1.154
66736W        W31897   6.291  36.331  11.009
66737W        W31898  34.320  23.567   4.208
66738W        W31899  42.930  11.566   2.497
66739W        W31900  13.343  14.661   1.267
66740W        W31901  14.416   0.933   0.385
66741W        W31902  42.154  21.458   3.251
66742W        W31903   6.910  37.962   4.843
66743W        W31904  28.985  30.992  11.451
66744W        W31905  21.559  27.741   1.474
66745W        W31906  43.617  19.168   1.889
66746W        W31907  18.891  13.437  12.437
66747W        W31908  16.694  42.943   0.817
66748W        W31909   7.432  37.503   3.865
66749W        W31910  11.550  25.938   3.694
66750W        W31911  36.930   5.950  12.842
66751W        W31912  17.273   5.267   4.228
66752W        W31913  28.046   5.283   0.970
66753W        W31914  13.333   1.739  11.464
66754W        W31915   3.620  14.191   3.741
66755W        W31916   4.347   4.857   3.827
66756W        W31917  39.686   5.415  14.810
66757W        W31918  26.678  37.615   3.757
66758W        W31919  18.573  17.547   1.921
66759W        W31920   2.767  14.404   0.327
66760W        W31921   1.546   8.147   1.470
66761W        W31922  38.157  41.956   3.669
66762W        W31923  42.273  16.562  11.377
66763W        W31924  12.252   8.403  14.119
66764W        W31925  33.661  32.133   1.372
66765W        W31926   7.087  40.895  13.386
66766W        W31927  30.430  30.676  13.339
66767W        W31928  36.490  31.861  14.879
66768W        W31929  19.566  19.308   0.963
66769W        W31930  24.242   4.305  12.083
66770W        W31931  20.804  26.689   4.639
66771W        W31932   3.150  10.193   4.593
66772W        W31933  35.967  27.139   4.655
66773W        W31934  29.535  21.198   2.327
66774W        W31935  28.966  35.355   3.221
66775W        W31936  28.144   8.980   1.429
66776W        W31937  17.211  30.445  11.616
66777W        W31938   7.858  43.348   1.494
66778W        W31939  23.603  13.912  11.165
66779W        W31940  20.066   2.734  11.366
66780W        W31941  20.422  42.529  13.899
66781W        W31942   0.693  32.968  13.964
66782W        W31943  21.765  44.815  12.597
66783W        W31944  17.689   0.988  13.135
66784W        W31945   9.943  27.923   4.366
66785W        W31946  19.070   2.913  11.431
66786W        W31947  27.005   9.888   1.300
66787W        W31948   3.517  25.150  12.500
66788W        W31949  40.831  43.924  12.579
66789W        W31950  11.628  25.001  11.879
66790W        W31951  39.830  11.285   0.874
66791W        W31952  25.113  19.829  13.532
66792W        W31953   8.423   6.015   0.853
66793W        W31954  17.633   4.801  12.482
66794W        W31955  14.195  37.479   3.137
66795W        W31956  13.552  29.013   0.262
66796W        W31957  28.202  30.314   9.591
66797W        W31958  41.828  40.359  13.907
66798W        W31959  42.392  23.549   2.718
66799W        W31960  19.448   5.567  13.539
66800W        W31961  40.278   9.232   2.730
66801W        W31962  21.697  24.764   4.060
66802W        W31963  32.928  12.883  14.793
66803W        W31964  41.194  14.243  14.215
66804W        W31965  21.184  16.782  13.318
66805W        W31966  11.630  14.656  14.360
66806W        W31967  39.804  13.183  14.522
66807W        W31968  33.364  20.332  12.968
66808W        W31969  24.285  24.524  14.485
66809W        W31970   6.464  31.669   3.459
66810W        W31971  44.479   3.897   4.610
66811W        W31972  13.603  17.319  13.436
66812W        W31973   1.128  23.104  11.360
66813W        W31974  33.164  42.922   2.248
66814W        W31975  36.882   5.928   0.344
66815W        W31976  40.446  26.999   1.359
66816W        W31977  11.280  37.563  13.347
66817W        W31978  28.733  15.693  12.002
66818W        W31979  12.815  30.397  10.759
66819W        W31980   8.456  15.220  10.933
66820W        W31981   8.390   0.983  11.144
66821W        W31982  36.544  24.518  14.993
66822W        W31983  10.931  44.436   3.968
66823W        W31984  12.237   0.321   0.906
66824W        W31985  38.603  22.407  11.602
66825W        W31986  36.892  25.723  12.599
66826W        W31987  11.234  43.818   0.763
66827W        W31988  11.217   2.033   2.161
66828W        W31989   7.177  25.438   5.497
66829W        W31990   4.375  34.394   3.720
66830W        W31991  27.640   3.929  10.759
66831W        W31992   7.792   9.062   3.533
66832W        W31993   5.954  23.270   4.990
66833W        W31994  19.236  10.311   3.865
66834W        W31995  14.415  27.682  10.284
66835W        W31996  32.450  16.966  14.527
66836W        W31997  44.634  34.403  11.662
66837W        W31998  12.869  27.914   1.770
66838W        W31999  23.757  18.114   0.861
66839W        W32000  27.657  31.758  10.608
66840W        W32001  41.101   5.010   0.868
66841W        W32002  20.041  35.512  10.791
66842W        W32003   5.077  25.169  14.020
66843W        W32004  11.664  21.403  14.948
66844W        W32005  23.452   9.246  14.249
66845W        W32006  16.197  19.303   3.614
66846W        W32007   0.009  20.401   0.953
66847W        W32008  30.906  44.324  12.368
66848W        W32009  40.146   9.243  10.741
66849W        W32010  44.265  24.506  11.844
66850W        W32011  16.365  24.293   3.696
66851W        W32012  24.126  12.301   0.727
66852W        W32013  31.358  35.512   3.751
66853W        W32014   7.931  36.198  14.273
66854W        W32015  32.668  10.314  13.432
66855W        W32016  44.836  13.246   2.794
66856W        W32017   3.052  11.153  14.038
66857W        W32018   5.760  36.727  11.758
66858W        W32019  30.702   4.140  11.201
66859W        W32020  16.569  18.163  13.146
66860W        W32021  42.444  22.530  13.504
66861W        W32022  43.971  38.249  14.281
66862W        W32023  11.948   0.377  12.145
66863W        W32024  38.012  42.849   4.638
66864W        W32025  22.312   7.216   0.547
66865W        W32026  23.166  12.403   4.176
66866W        W32027  13.703  28.686   4.160
66867W        W32028  26.137   8.913   0.045
66868W        W32029  27.521  28.373  12.021
66869W        W32030  37.965  37.769   4.822
66870W        W32031  24.032  32.912   0.070
66871W        W32032  43.241   9.770   0.520
66872W        W32033  12.588   2.244  13.046
66873W        W32034  28.442  40.368   2.819
66874W        W32035  26.768  14.216  13.898
66875W        W32036  26.662  33.115   9.994
66876W        W32037  39.848   8.204  12.583
66877W        W32038  33.502  42.152   5.017
66878W        W32039  23.598   8.752  14.344
66879W        W32040   2.324   4.679  13.900
66880W        W32041  21.723   3.983  14.238
66881W        W32042  37.108  25.356  14.743
66882W        W32043  32.106  18.784   0.744
66883W        W32044  38.759  11.420  14.403
66884W        W32045  40.384  18.298   4.957
66885W        W32046  12.772   6.409  12.310
66886W        W32047   6.884  34.332  12.426
66887W        W32048   4.032   2.312  12.530
66888W        W32049   0.259  30.600   3.694
66889W        W32050  44.507  28.490   4.423
66890W        W32051  28.966  44.700  12.136
66891W        W32052  23.068  31.140   0.321
66892W        W32053   6.289  22.496   0.384
66893W        W32054  31.639  44.922   4.875
66894W        W32055  41.828  27.038  13.498
66895W        W32056  24.629  15.087  12.298
66896W        W32057  39.373  11.968  14.487
66897W        W32058  15.843  26.472  10.124
66898W        W32059  21.603  17.420  11.923
66899W        W32060  27.219  44.310   3.847
66900W        W32061  42.978  17.909  14.531
66901W        W32062  17.059   2.225  12.312
66902W        W32063  22.170  21.625  14.890
66903W        W32064  41.111   8.957  12.418
66904W        W32065  13.036  29.415   4.412
66905W        W32066  14.318  13.678  10.959
66906W        W32067  27.640  33.546   3.591
66907W        W32068  40.995  29.241   4.489
66908W        W32069  32.049  20.707   3.832
66909W        W32070  44.047   2.277  12.898
66910W        W32071   9.703  32.942  12.218
66911W        W32072  19.044   6.393  11.140
66912W        W32073  40.915  44.078  13.058
66913W        W32074  29.896  25.283   3.686
66914W        W32075   1.521  39.919   0.923
66915W        W32076   7.025  27.133   3.876
66916W        W32077   3.697  29.358   5.078
66917W        W32078   9.223  39.669  11.620
66918W        W32079  27.172  43.927  14.361
66919W        W32080  19.030  27.464   0.891
66920W        W32081   6.528  23.237   3.675
66921W        W32082   1.853   0.721   4.003
66922W        W32083  17.534   9.832   4.818
66923W        W32084  33.377  40.510   4.454
66924W        W32085  29.086  40.106   1.440
66925W        W32086  14.059   6.258   4.534
66926W        W32087  31.875  11.598   0.286
66927W        W32088  34.588  16.679  10.622
66928W        W32089  25.663  21.581  13.914
66929W        W32090  30.243  39.701   3.348
66930W        W32091  19.581  26.100   4.335
66931W        W32092   9.867  40.530   4.603
66932W        W32093  32.949  42.321   3.999
66933W        W32094   8.796  31.356   0.874
66934W        W32095  43.135   3.427   0.403
66935W        W32096   8.501   4.050   0.934
66936W        W32097  42.484  13.012  11.643
66937W        W32098  26.422  27.961  11.291
66938W        W32099   6.983  19.624  11.897
66939W        W32100   6.908  27.776  13.395
66940W        W32101  18.171  42.909  13.276
66941W        W32102  32.859   5.883   2.753
66942W        W32103  12.637  44.175  13.776
66943W        W32104  19.971  37.737   0.081
66944W        W32105  14.732  27.412  12.538
66945W        W32106  42.703  37.279   3.644
66946W        W32107   5.013   8.287   2.315
66947W        W32108  27.897  42.360   0.842
66948W        W32109  43.808  10.195   2.287
66949W        W32110   1.559  14.420  10.395
66950W        W32111  22.081  26.344   1.273
66951W        W32112   6.796   2.451   2.264
66952W        W32113  11.396  37.304  11.484
66953W        W32114  28.104  17.030  13.413
66954W        W32115  28.048  12.039  13.814
66955W        W32116  25.212   9.760   5.016
66956W        W32117   1.014  10.690  10.598
66957W        W32118   6.890  10.906  12.089
66958W        W32119  19.154  25.070  10.726
66959W        W32120  24.226  37.708  12.374
66960W        W32121  10.212   2.697  12.163
66961W        W32122  14.592   6.825   0.880
66962W        W32123   6.425   6.226   0.399
66963W        W32124  11.394  15.545   4.145
66964W        W32125  28.535  29.180   1.733
66965W        W32126  28.643  40.163   4.924
66966W        W32127   2.384  33.044   3.397
66967W        W32128   0.111  10.256   1.746
66968W        W32129   8.616  21.900  12.421
66969W        W32130  27.135   8.847   1.176
66970W        W32131  40.011   5.821  14.860
66971W        W32132   6.557  12.614  14.836
66972W        W32133   1.397  28.929  11.342
66973W        W32134  17.006  28.991  10.249
66974W        W32135   3.814  39.832  11.686
66975W        W32136  42.589  27.221  12.019
66976W        W32137   4.723  16.281  14.938
66977W        W32138  26.898  18.745  13.474
66978W        W32139  39.144  44.673  12.646
66979W        W32140   0.421  13.632  13.411
66980W        W32141   4.783  28.034  12.988
66981W        W32142  31.141   5.697  10.626
66982W        W32143  28.009   2.296  12.652
66983W        W32144  24.232  16.294  12.067
66984W        W32145  14.670  12.781   2.698
66985W        W32146  22.633  25.118  12.539
66986W        W32147  37.941  21.458  11.078
66987W        W32148  26.709  41.497  12.104
66988W        W32149  30.469  44.288  14.520
66989W        W32150  28.912  31.423   2.288
66990W        W32151  44.865  23.650   2.770
66991W        W32152   4.180   9.432  11.607
66992W        W32153  33.948  41.127  12.446
66993W        W32154   7.153  22.898  14.422
66994W        W32155   2.886   8.119  14.366
66995W        W32156  12.395  20.774   3.612
66996W        W32157  30.054  33.468   3.694
66997W        W32158   8.383  16.558  10.889
66998W        W32159  34.302  13.053  10.751
66999W        W32160  39.302  43.861  10.169
67000W        W32161  11.935  37.752   2.746
67001W        W32162   6.311   0.986  12.880
67002W        W32163   8.377  18.808   2.209
67003W        W32164  42.778  19.404   0.389
67004W        W32165   6.176  13.507   2.437
67005W        W32166  17.084  37.899  10.640
67006W        W32167  39.067  10.978  14.347
67007W        W32168  16.032  17.978   0.800
67008W        W32169  17.123  34.340   0.285
67009W        W32170  18.505  18.566   2.183
67010W        W32171  26.713  12.998   0.402
67011W        W32172  35.322  43.354  13.063
67012W        W32173  34.457  22.758  12.668
67013W        W32174  13.239  12.239   1.884
67014W        W32175   8.254  11.824  11.493
67015W        W32176  24.742   7.724   1.670
67016W        W32177   9.734   3.812   3.141
67017W        W32178  24.855  37.368   2.686
67018W        W32179  40.936   5.485   0.870
67019W        W32180  21.198  12.760  10.333
67020W        W32181  24.504  15.119   3.687
67021W        W32182   4.240   2.049   1.919
67022W        W32183  12.377  32.030  14.827
67023W        W32184  25.449   7.886   3.163
67024W        W32185   8.717  29.017   3.148
67025W        W32186  32.917  10.837   2.795
67026W        W32187  22.913  20.139   0.670
67027W        W32188   7.710  27.748   2.380
67028W        W32189  13.613  19.174   0.424
67029W        W32190  17.106  39.387   2.753
67030W        W32191  25.916   1.791  12.659
67031W        W32192  14.734  31.348   4.509
67032W        W32193  38.686  15.276   3.146
67033W        W32194  26.988  21.985   0.725
67034W        W32195   3.556  26.523   3.609
67035W        W32196  43.939  17.113  12.738
67036W        W32197  16.579  25.127   4.384
67037W        W32198   1.755  12.422  13.747
67038W        W32199  14.907  32.188   1.829
67039W        W32200  37.744  12.042   1.269
67040W        W32201  14.125   1.836   4.089
67041W        W32202  32.636   3.050  10.761
67042W        W32203  44.865  37.311  14.765
67043W        W32204  43.980   0.032  10.438
67044W        W32205  27.463  20.266   2.029
67045W        W32206  35.807  41.903   3.638
67046W        W32207  41.512  10.287   1.897
67047W        W32208  30.200  13.175  12.891
67048W        W32209  12.255   5.937  11.994
67049W        W32210  28.637  36.520   3.682
67050W        W32211  23.992  30.539  12.176
67051W        W32212  38.431  23.398  11.682
67052W        W32213  28.942   6.284   4.696
67053W        W32214   7.657   0.876   2.209
67054W        W32215   6.664  22.059  14.928
67055W        W32216  24.521  27.958   0.329
67056W        W32217  30.998  37.097  11.562
67057W        W32218  40.543  32.414  13.266
67058W        W32219  40.127  44.026   0.918
67059W        W32220  27.260  26.564   0.420
67060W        W32221  25.043   9.618   3.694
67061W        W32222   5.772  25.583  12.697
67062W        W32223  13.889   5.344  13.128
67063W        W32224   2.788   7.820   2.301
67064W        W32225  40.930  32.098   4.127
67065W        W32226  40.070  39.921  10.553
67066W        W32227  13.170  43.356   2.286
67067W        W32228  17.774   6.204   0.039
67068W        W32229  29.019  12.618   0.828
67069W        W32230  15.541  41.130   0.518
67070W        W32231  39.235   3.123  13.866
67071W        W32232  42.853  40.562  10.261
67072W        W32233   6.831  32.674  13.896
67073W        W32234   2.690  21.744   3.195
67074W        W32235  31.322  42.403   2.334
67075W        W32236  40.112  10.456   2.681
67076W        W32237  20.242  40.329   4.558
67077W        W32238  38.563   1.160  10.791
67078W        W32239  16.343  32.606  12.918
67079W        W32240  38.014   3.866  10.636
67080W        W32241  26.732   3.197   5.026
67081W        W32242  22.542   3.840  13.566
67082W        W32243  27.633  29.236  10.854
67083W        W32244  41.621  37.007  14.023
67084W        W32245  39.104  20.252   3.081
67085W        W32246  14.605  11.196  14.005
67086W        W32247  23.246  20.186   5.027
67087W        W32248  25.734  19.403   4.959
67088W        W32249  34.599   9.785   2.392
67089W        W32250  19.786  14.368  10.250
67090W        W32251   8.884  16.531  14.479
67091W        W32252  31.293  25.595  12.330
67092W        W32253  40.017  10.217   4.130
67093W        W32254  30.550  21.626   3.589
67094W        W32255  42.400  28.773   1.827
67095W        W32256   2.927  34.091  13.447
67096W        W32257   3.544  11.237   2.330
67097W        W32258  19.652  15.215   4.595
67098W        W32259  10.290  19.829   4.586
67099W        W32260  33.356  34.282   3.208
67100W        W32261  43.394  38.264   1.120
67101W        W32262  41.257   8.797  12.908
67102W        W32263   6.807  39.981   1.401
67103W        W32264   7.857   8.277   0.403
67104W        W32265  20.467  28.913  13.443
67105W        W32266  35.346  18.751   2.838
67106W        W32267  19.207  33.631   5.055
67107W        W32268   9.931  43.023  10.550
67108W        W32269   5.175  30.100  14.591
67109W        W32270  18.870  36.450  14.334
67110W        W32271  27.955  39.355  12.507
67111W        W32272   8.815  38.962   0.760
67112W        W32273   0.205   1.860   1.664
67113W        W32274   1.093  22.285   3.947
67114W        W32275  36.693   9.287   1.927
67115W        W32276   6.178  29.732  11.163
67116W        W32277  18.095  30.919  12.010
67117W        W32278  37.526   3.860   0.011
67118W        W32279  14.150  31.902  11.202
67119W        W32280  16.293  15.096  14.373
67120W        W32281   9.863  19.014  13.988
67121W        W32282   3.923  11.517   3.421
67122W        W32283  12.339  13.657  12.084
67123W        W32284  16.694  43.625   2.075
67124W        W32285  42.246  41.322  13.898
67125W        W32286  33.029  38.399  14.766
67126W        W32287   3.464   4.906   3.637
67127W        W32288  20.565  19.011   0.260
67128W        W32289  40.412   0.498  11.509
67129W        W32290   5.330  17.650  14.269
67130W        W32291  38.354  11.010   0.622
67131W        W32292  19.738   1.353   1.696
67132W        W32293   8.701  26.247  11.066
67133W        W32294  14.610  17.804   2.604
67134W        W32295  25.167  13.082   4.292
67135W        W32296  41.858   9.825  12.106
67136W        W32297  38.117   0.942  10.548
67137W        W32298   1.809   9.070  12.520
67138W        W32299  28.758  19.849   0.847
67139W        W32300  22.353  22.610   1.523
67140W        W32301  35.488  42.718   4.694
67141W        W32302  32.084  31.468  10.708
67142W        W32303   4.286  13.073   4.241
67143W        W32304   0.004  35.862  14.510
67144W        W32305  41.517   2.264   4.084
67145W        W32306   7.157  12.883   0.376
67146W        W32307  18.818  21.129  14.842
67147W        W32308  29.986  33.534  10.587
67148W        W32309   3.872   1.535  11.527
67149W        W32310  12.237   6.695   3.579
67150W        W32311   6.862  31.033   3.825
67151W        W32312   4.356   6.891  11.707
67152W        W32313  23.132  33.961   1.691
67153W        W32314  40.519  28.726   1.849
67154W        W32315  27.538  44.963   0.660
67155W        W32316   4.854  36.828   1.847
67156W        W32317  28.457  24.078   2.876
67157W        W32318   8.228  21.140  10.668
67158W        W32319  43.243  23.066  12.846
67159W        W32320  37.189   3.661  12.508
67160W        W32321  19.735   7.894   4.360
67161W        W32322  22.105   6.151  13.846
67162W        W32323  44.958  20.427   4.052
67163W        W32324  14.347  38.576  11.429
67164W        W32325  12.373  32.684   3.203
67165W        W32326  21.029  44.205  10.320
67166W        W32327  33.126  32.121   4.667
67167W        W32328  11.895  39.443   1.420
67168W        W32329  15.322  10.103   0.817
67169W        W32330  34.312  39.899  12.943
67170W        W32331   9.648  41.964   4.818
67171W        W32332  42.560  14.102  14.296
67172W        W32333  24.976   5.479   2.584
67173W        W32334  27.188   4.475  10.849
67174W        W32335  31.225  21.644   1.504
67175W        W32336  41.602   0.861   0.158
67176W        W32337  39.308   2.730   4.171
67177W        W32338  25.248   2.451  13.026
67178W        W32339   4.664  16.322   1.321
67179W        W32340  28.498   8.965  12.806
67180W        W32341  43.127   9.244   0.719
67181W        W32342   4.207  11.083  14.332
67182W        W32343  34.674  38.030  12.972
67183W        W32344  20.443  31.486   3.643
67184W        W32345  32.794  15.905  13.386
67185W        W32346  39.405  30.085   0.326
67186W        W32347  20.335   4.031  12.447
67187W        W32348  33.085  25.044  12.452
67188W        W32349  44.876  37.609   3.252
67189W        W32350  17.552  36.069  13.494
67190W        W32351  28.770  26.694   0.275
67191W        W32352  12.598  42.428   4.093
67192W        W32353   4.767  40.700   1.787
67193W        W32354  18.929  18.174  14.955
67194W        W32355  20.188  16.816  12.166
67195W        W32356  32.117   0.752   4.597
67196W        W32357   4.452  13.667   1.799
67197W        W32358  10.649  13.636  14.691
67198W        W32359  26.607  35.506   1.554
67199W        W32360  30.012  25.593  13.949
67200W        W32361  21.700  37.481  14.843
67201W        W32362  27.910  38.019  12.137
67202W        W32363  22.035  23.082  14.581
67203W        W32364   2.296  27.273  11.685
67204W        W32365  10.343  38.633   0.657
67205W        W32366  19.674  44.434  13.418
67206W        W32367  32.415  43.340   0.236
67207W        W32368   2.538  15.853   0.287
67208W        W32369  36.886  35.207  10.784
67209W        W32370  28.611  12.635  13.161
67210W        W32371  38.076  29.469  12.881
67211W        W32372  18.083  25.027   1.984
67212W        W32373  14.174  37.805  12.944
67213W        W32374  33.844   5.894   0.824
67214W        W32375   7.893  20.728  13.821
67215W        W32376  10.880   9.031   1.346
67216W        W32377  44.521  20.708   3.315
67217W        W32378   8.570   3.193  12.668
67218W        W32379  26.925  15.036   1.664
67219W        W32380  24.242  43.814   0.311
67220W        W32381  27.607  25.174   0.263
67221W        W32382   4.794  37.922  14.337
67222W        W32383   8.886  14.726  12.931
67223W        W32384  15.168  20.509  10.879
67224W        W32385  31.573  43.311   3.850
67225W        W32386   6.560   3.869  13.065
67226W        W32387   1.984  39.909   3.656
67227W        W32388  16.697  22.957  12.910
67228W        W32389  15.274  23.172   3.256
67229W        W32390   5.314   8.469   4.889
67230W        W32391  28.051  24.708  13.810
67231W        W32392  36.232  31.113   4.984
67232W        W32393  13.785  11.761   2.266
67233W        W32394  12.508  22.086   1.701
67234W        W32395  21.385   0.130  12.798
67235W        W32396  16.557  12.175   1.387
67236W        W32397  42.019  21.969  11.577
67237W        W32398  21.762   5.989   1.698
67238W        W32399  36.395  19.181  10.701
67239W        W32400   0.523  10.076   4.441
67240W        W32401  25.684  27.238   0.818
67241W        W32402  44.692  28.560  10.699
67242W        W32403  22.140  23.236   2.212
67243W        W32404  11.762  18.817   3.053
67244W        W32405  14.733  29.705   1.369
67245W        W32406   9.098   0.439  11.180
67246W        W32407  23.879  10.429   2.219
67247W        W32408  33.894  25.047   0.955
67248W        W32409   1.183  27.486  11.038
67249W        W32410  27.777  33.416   1.604
67250W        W32411  29.596   8.084   2.498
67251W        W32412  20.308  30.700   2.237
67252W        W32413  22.245  38.368  14.898
67253W        W32414  30.091  14.669  13.035
67254W        W32415  15.255   8.091  12.000
67255W        W32416  32.871  23.263  12.377
67256W        W32417  40.014  44.465  13.842
67257W        W32418  13.216  41.264  10.515
67258W        W32419  18.627  34.996  10.586
67259W        W32420  39.280  38.509  10.944
67260W        W32421  26.509  29.249  10.711
67261W        W32422  31.137  25.571   2.647
67262W        W32423  36.156  28.200  14.023
67263W        W32424  16.097  44.516  13.490
67264W        W32425   7.373  18.138   3.248
67265W        W32426   1.326  19.505   2.827
67266W        W32427   7.182  22.441   4.523
67267W        W32428  42.978   5.928   4.138
67268W        W32429  15.441  26.659   4.235
67269W        W32430   2.350  16.348  10.329
67270W        W32431  36.156  11.290  11.089
67271W        W32432  19.580  32.462  11.619
67272W        W32433   0.618  25.700   0.764
67273W        W32434  39.263  38.949  10.658
67274W        W32435  10.181   7.308  11.309
67275W        W32436  32.022  12.936  10.579
67276W        W32437  14.604  12.896  12.023
67277W        W32438  26.024  17.556   2.583
67278W        W32439   2.292   2.671   4.662
67279W        W32440  40.805  23.681   3.806
67280W        W32441  18.710  24.065  10.516
67281W        W32442  18.325  14.515  14.748
67282W        W32443  39.538   4.954  14.993
67283W        W32444  33.340   4.623   5.074
67284W        W32445  30.905  22.734  11.311
67285W        W32446   3.937  19.445   0.294
67286W        W32447  13.014  10.846  14.997
67287W        W32448  15.986  14.797   1.399
67288W        W32449  40.709  22.983  12.883
67289W        W32450  38.825  29.059   4.164
67290W        W32451  12.261  41.418   2.738
67291W        W32452   6.515   7.397  13.874
67292W        W32453  21.100  16.772   3.225
67293W        W32454  18.322  14.403   3.772
67294W        W32455  30.208  36.923   1.719
67295W        W32456   0.224  25.550   0.435
67296W        W32457  12.875  42.513   0.337
67297W        W32458  12.577  36.858  11.452
67298W        W32459   3.806   2.156  13.851
67299W        W32460  44.415  27.434  11.024
67300W        W32461  25.667  25.922   0.222
67301W        W32462  35.081  32.414  13.954
67302W        W32463   5.446  43.520   2.559
67303W        W32464  29.337  41.415  13.145
67304W        W32465  31.219  23.596  13.588
67305W        W32466  21.509  36.486  12.072
67306W        W32467   6.743  17.606  11.570
67307W        W32468   5.904   9.228  11.558
67308W        W32469   0.343   4.111   2.660
67309W        W32470  10.424  11.922   3.632
67310W        W32471  41.000   0.391   0.814
67311W        W32472  25.231  44.442  11.179
67312W        W32473  22.105  39.281  10.545
67313W        W32474  14.260  36.116  10.380
67314W        W32475  25.690  25.873   2.201
67315W        W32476  31.388  27.409   0.314
67316W        W32477  13.765  10.400  13.892
67317W        W32478  22.153  34.161   1.885
67318W        W32479  21.629  40.690  13.001
67319W        W32480  12.588  34.156   2.329
67320W        W32481  22.400   6.244  12.611
67321W        W32482  29.638   2.284   1.749
67322W        W32483   3.458   1.037   5.023
67323W        W32484  26.101  14.745  13.777
67324W        W32485  27.727  18.738  14.842
67325W        W32486   1.693  28.494   2.419
67326W        W32487  41.985  41.060   4.313
67327W        W32488   3.409  19.464  13.838
67328W        W32489   2.703  39.476  13.067
67329W        W32490   8.767  15.745   3.811
67330W        W32491   8.311   5.776   4.598
67331W        W32492  30.043  20.392   1.434
67332W        W32493   0.516  29.612   1.192
67333W        W32494  31.414  10.796   0.013
67334W        W32495  11.216  44.270   3.534
67335W        W32496  16.712  11.774  10.773
67336W        W32497   2.268  21.038   0.735
67337W        W32498  40.749  15.857   3.715
67338W        W32499  38.725  36.002   3.373
67339W        W32500  38.225   4.610  12.641
67340W        W32501   9.057  25.090  14.074
67341W        W32502  25.514  15.294  12.658
67342W        W32503  43.850  41.200   4.679
67343W        W32504  40.512  28.062  14.875
67344W        W32505   0.975  19.302  11.159
67345W        W32506  12.955  43.193  13.853
67346W        W32507  17.015  26.517   2.709
67347W        W32508   0.980  12.893   1.645
67348W        W32509  43.909  28.665  11.427
67349W        W32510  27.917  36.954  14.348
67350W        W32511  44.853   6.699   4.302
67351W        W32512  38.617  39.520  14.765
67352W        W32513  25.342  12.719  10.685
67353W        W32514  15.541  24.936   9.986
67354W        W32515  41.768  41.547  10.617
67355W        W32516  38.484  17.287   0.270
67356W        W32517  35.048  42.571   3.133
67357W        W32518  31.241   8.833  14.906
67358W        W32519   5.275  29.220   1.993
67359W        W32520   7.376  34.493  12.565
67360W        W32521  21.001  34.432  12.948
67361W        W32522  11.319  24.732  12.970
67362W        W32523  23.589   4.874   3.610
67363W        W32524  42.789  25.175   3.795
67364W        W32525   7.394   9.673   2.883
67365W        W32526  34.470  43.287   4.585
67366W        W32527  28.596   6.002  12.286
67367W        W32528  26.500  26.923  11.986
67368W        W32529  33.573  10.431  11.555
67369W        W32530  19.931  41.470   3.248
67370W        W32531  42.195   5.253   3.290
67371W        W32532  17.494   3.155   1.773
67372W        W32533  32.915  30.085  11.404
67373W        W32534  12.143   5.373  12.867
67374W        W32535  10.326  40.358   1.212
67375W        W32536  31.549  19.745   4.310
67376W        W32537  10.146  37.614   0.347
67377W        W32538  33.643   4.315   3.304
67378W        W32539  38.934   6.072  14.176
67379W        W32540  24.762  14.366   4.187
67380W        W32541  44.398  40.349  13.924
67381W        W32542  21.590  43.566  12.069
67382W        W32543  26.221   0.655   3.332
67383W        W32544  44.556  14.207   4.593
67384W        W32545  14.521  14.820   0.261
67385W        W32546  25.241  30.900   5.074
67386W        W32547  34.002  43.474   0.350
67387W        W32548  11.120  40.327  11.511
67388W        W32549   0.771  19.091  14.781
67389W        W32550   0.670   7.450  12.170
67390W        W32551  42.310  30.521   1.257
67391W        W32552  19.377  28.638  12.907
67392W        W32553  38.507  33.347  14.931
67393W        W32554  12.788   0.027  14.899
67394W        W32555  33.564  41.105  13.396
67395W        W32556  14.855  35.975   0.174
67396W        W32557   8.255  43.975  11.267
67397W        W32558  21.680  11.615  13.070
67398W        W32559  42.377  38.478   4.626
67399W        W32560  11.508  27.392   3.391
67400W        W32561  24.042  38.158  12.562
67401W        W32562  16.741  13.202  11.993
67402W        W32563  31.286  26.256  14.829
67403W        W32564  29.897  39.738   2.021
67404W        W32565  26.992   6.461   2.887
67405W        W32566  44.413  32.040   0.358
67406W        W32567  12.771  29.968   3.569
67407W        W32568   0.596  37.918   4.450
67408W        W32569   3.842  44.821   1.851
67409W        W32570  13.309  41.224   5.162
67410W        W32571  20.711  37.888  12.122
67411W        W32572  38.492  18.827   1.767
67412W        W32573  33.346  23.971   2.884
67413W        W32574  18.798  28.615   4.174
67414W        W32575   8.329  27.495  13.403
67415W        W32576  28.929  15.344   0.267
67416W        W32577  27.445   0.024   1.772
67417W        W32578  16.280  38.877  11.228
67418W        W32579  43.987  43.953   3.895
67419W        W32580  40.525  18.442  12.660
67420W        W32581  15.601  27.619   1.465
67421W        W32582  12.406  31.542   2.840
67422W        W32583   3.087  37.924   1.437
67423W        W32584  25.826  30.506   4.468
67424W        W32585  36.315  44.907   0.559
67425W        W32586  41.326  13.767  10.641
67426W        W32587   7.488  11.181   3.259
67427W        W32588  22.546  15.193  14.591
67428W        W32589   9.147  35.479  11.601
67429W        W32590  18.802  10.856   0.329
67430W        W32591  21.260  19.757  11.050
67431W        W32592  40.445  18.618   3.982
67432W        W32593  31.521  16.901  14.422
67433W        W32594   3.197  18.464  13.581
67434W        W32595   8.949   4.190  14.215
67435W        W32596  14.101   4.249  11.140
67436W        W32597  22.109  25.673   0.544
67437W        W32598  12.249  37.010   4.398
67438W        W32599   4.432  38.309   0.797
67439W        W32600  22.776  10.196  11.888
67440W        W32601  19.102  21.857   2.926
67441W        W32602  40.966  21.528  13.900
67442W        W32603   9.994  27.261   1.282
67443W        W32604  19.059  43.524  12.898
67444W        W32605   0.491  12.637   2.681
67445W        W32606   4.729  15.470   0.310
67446W        W32607   4.427  15.846  11.190
67447W        W32608  21.006  15.888  11.021
67448W        W32609   3.270  13.978   5.370
67449W        W32610  36.789  12.916   0.475
67450W        W32611  31.945  38.272  11.517
67451W        W32612  37.367  37.324  12.969
67452W        W32613   2.508  22.232  12.300
67453W        W32614  41.403  42.391  13.413
67454W        W32615  44.726  27.412   0.166
67455W        W32616  28.921   8.813   0.840
67456W        W32617   8.807   9.778   2.626
67457W        W32618  31.488  14.787   1.917
67458W        W32619  20.006  21.720  10.702
67459W        W32620  26.988  33.277  12.362
67460W        W32621  15.106  10.263  12.835
67461W        W32622  18.185  11.655   2.737
67462W        W32623   0.313  15.727  12.004
67463W        W32624  35.582  35.918  12.466
67464W        W32625  20.112  35.067   1.356
67465W        W32626  20.547  29.925   4.622
67466W        W32627  18.649  44.013  14.317
67467W        W32628   8.553  20.243   0.450
67468W        W32629  34.483  40.919   2.725
67469W        W32630  33.078  27.800  12.156
67470W        W32631   9.220  30.620   0.331
67471W        W32632  12.572  19.887  13.371
67472W        W32633  33.267  35.591  11.954
67473W        W32634   3.164   4.627  11.566
67474W        W32635   8.864  22.267   2.085
67475W        W32636   9.703   8.957   1.726
67476W        W32637   4.706  31.619   2.231
67477W        W32638   7.432  43.039  11.523
67478W        W32639  16.017   0.030   2.963
67479W        W32640  24.138  34.462   2.186
67480W        W32641  35.303   2.888  12.674
67481W        W32642   2.628  31.191  11.615
67482W        W32643  33.057  25.115  10.760
67483W        W32644  12.302   8.751   0.170
67484W        W32645   7.736  33.520   1.157
67485W        W32646   7.203  10.209   1.932
67486W        W32647  44.480  35.425  13.769
67487W        W32648   0.802  18.574   0.031
67488W        W32649  44.952  26.519   3.773
67489W        W32650  31.865   0.750   0.605
67490W        W32651   8.639  42.079  12.578
67491W        W32652   7.710   2.287  12.956
67492W        W32653   7.850   7.601   2.322
67493W        W32654   8.566  22.637   1.890
67494W        W32655  41.553  35.368   4.132
67495W        W32656  22.241   6.925  11.834
67496W        W32657  16.162  18.276   3.154
67497W        W32658   9.325  31.021   3.240
67498W        W32659  13.973  24.575  12.857
67499W        W32660  16.168  30.252  12.032
67500W        W32661   9.207   7.431   1.705
67501W        W32662  39.372  20.716  11.251
67502W        W32663  43.240  26.168  12.804
67503W        W32664  29.091  23.751  14.466
67504W        W32665   2.511  35.091  13.064
67505W        W32666  13.588  32.659   1.192
67506W        W32667  13.187  13.319   1.843
67507W        W32668  40.422  29.391  14.368
67508W        W32669   4.230  41.405   0.932
67509W        W32670  22.072  36.421   3.370
67510W        W32671  36.608  39.979  11.246
67511W        W32672  30.897   0.241   1.707
67512W        W32673  44.357  38.930   0.426
67513W        W32674   1.327  19.753  12.445
67514W        W32675  11.158  27.667  12.553
67515W        W32676  21.446  42.447  13.956
67516W        W32677  35.061   7.843   1.342
67517W        W32678  44.913  37.038  10.407
67518W        W32679  39.097  31.593   5.012
67519W        W32680  40.430   8.309   2.409
67520W        W32681   0.392  10.723  11.606
67521W        W32682  31.600  40.983  11.752
67522W        W32683  14.192   1.916  12.511
67523W        W32684  19.581   8.239  11.204
67524W        W32685   8.236  16.417   1.184
67525W        W32686  27.648  14.138  11.168
67526W        W32687  15.913  40.356   0.878
67527W        W32688  27.060  28.990   4.678
67528W        W32689  20.704  33.865  13.248
67529W        W32690  38.336   0.088  13.948
67530W        W32691  30.631  39.392   0.526
67531W        W32692  12.586  15.237   1.340
67532W        W32693   5.642  11.635   1.276
67533W        W32694  24.948  32.697   0.263
67534W        W32695  41.600  19.940  12.108
67535W        W32696  34.874  13.675   4.645
67536W        W32697  36.106  16.590   0.358
67537W        W32698  28.962  41.293   3.331
67538W        W32699  42.827  21.339   1.836
67539W        W32700   8.160  20.243   0.817
67540W        W32701  11.044  34.390  12.151
67541W        W32702   5.673  40.419   0.733
67542W        W32703   6.772   6.193   1.403
67543W        W32704  44.826  36.732   2.685
67544W        W32705  42.416  43.807   0.181
67545W        W32706  14.329   0.520   3.252
67546W        W32707  26.411   4.243   2.613
67547W        W32708  14.772  15.031   3.125
67548W        W32709  26.516  22.490  10.759
67549W        W32710  35.160  33.402  13.960
67550W        W32711  13.694  30.585  13.357
67551W        W32712  23.775  40.550  10.760
67552W        W32713   0.315  35.628  12.216
67553W        W32714  38.864  42.199  10.688
67554W        W32715  28.300  28.938  12.558
67555W        W32716  34.063  38.449  14.713
67556W        W32717  10.851  16.777  12.525
67557W        W32718  24.201  34.158  14.558
67558W        W32719  42.400  33.053  10.472
67559W        W32720  21.624  14.188   0.847
67560W        W32721  11.434  30.042  13.152
67561W        W32722  41.952  12.515   2.391
67562W        W32723  32.798  44.272  13.833
67563W        W32724  38.808  30.413   3.424
67564W        W32725  28.023  26.850   3.972
67565W        W32726  38.551   8.394   0.557
67566W        W32727   2.164  11.490  10.357
67567W        W32728  24.633  25.442   3.801
67568W        W32729  32.180  10.121   0.417
67569W        W32730  41.004  36.682   0.778
67570W        W32731  19.669  31.541  14.008
67571W        W32732  12.616  35.392  11.628
67572W        W32733  39.491  42.388  14.243
67573W        W32734   5.865  22.732  14.123
67574W        W32735  24.257  37.039   3.321
67575W        W32736  25.726   3.698  10.748
67576W        W32737  41.030  35.539   4.182
67577W        W32738   7.272  17.342  11.555
67578W        W32739   4.849  25.493   2.156
67579W        W32740  34.503  17.207  12.586
67580W        W32741  15.730   0.975   2.410
67581W        W32742  19.714  24.112   0.917
67582W        W32743  33.372  31.900  13.021
67583W        W32744   8.834  20.549   3.350
67584W        W32745   8.683  14.730  10.880
67585W        W32746  34.535   1.078   1.427
67586W        W32747  36.618   2.642   2.808
67587W        W32748   7.430  42.020  10.604
67588W        W32749  28.827  14.599  14.604
67589W        W32750  19.038   6.135   3.183
67590W        W32751  22.070  40.468   1.645
67591W        W32752  35.284  32.744   4.094
67592W        W32753  37.872   1.356  14.704
67593W        W32754   8.662  11.113  12.985
67594W        W32755  43.046  26.267   3.707
67595W        W32756  30.025  16.579  13.429
67596W        W32757  26.109  13.854  12.484
67597W        W32758   9.297  16.682  11.871
67598W        W32759  19.161  33.449   1.289
67599W        W32760  31.494  17.928   1.749
67600W        W32761   8.627  13.604   1.380
67601W        W32762   1.059  37.793   4.651
67602W        W32763  26.362  27.924  11.829
67603W        W32764   2.007   8.451  12.799
67604W        W32765  35.325   0.149  12.103
67605W        W32766  25.236  42.375   4.016
67606W        W32767   4.824  38.043   2.816
67607W        W32768  27.593   0.945  14.969
67608W        W32769  38.173   4.608  10.941
67609W        W32770  40.630  40.536  14.058
67610W        W32771  16.882  34.176  11.341
67611W        W32772   7.281   5.971   0.294
67612W        W32773   4.790  15.192  12.006
67613W        W32774  37.594  36.075  14.450
67614W        W32775  39.347  39.328   0.380
67615W        W32776  22.626  43.931  10.830
67616W        W32777   7.825  21.550  11.517
67617W        W32778  13.538  41.857   0.006
67618W        W32779  34.441  30.483  11.677
67619W        W32780  13.360  36.600   3.417
67620W        W32781  43.272   5.687  11.513
67621W        W32782  35.919  16.098  10.722
67622W        W32783  12.270   2.348   0.722
67623W        W32784  22.172  34.597   0.650
67624W        W32785   1.294  43.322  11.114
67625W        W32786   4.111  18.932  11.530
67626W        W32787  20.726   5.510   0.440
67627W        W32788  34.155  10.888  13.061
67628W        W32789  37.911  31.510  13.790
67629W        W32790  24.238  41.304   1.683
67630W        W32791  39.555   3.881  11.625
67631W        W32792  28.226  16.089   0.475
67632W        W32793  19.185  25.680  14.866
67633W        W32794  17.000  11.165   3.177
67634W        W32795  40.371   1.665   5.536
67635W        W32796  38.954  25.561  12.411
67636W        W32797  29.134  36.318  12.339
67637W        W32798  18.371  30.569  14.377
67638W        W32799  34.778  16.744   3.827
67639W        W32800   2.531  22.154  11.090
67640W        W32801   0.841  18.958   2.207
67641W        W32802  18.289  34.988   5.087
67642W        W32803   0.065  19.141   4.866
67643W        W32804  30.703   6.702   4.270
67644W        W32805   0.795   7.668   3.611
67645W        W32806  35.833  42.775  13.507
67646W        W32807  40.348  17.169   2.208
67647W        W32808   6.197  20.708  13.419
67648W        W32809  13.902  34.966   2.735
67649W        W32810  37.845  11.799   0.036
67650W        W32811  28.110  23.036   5.605
67651W        W32812  25.667  21.696   1.823
67652W        W32813  40.124   5.950  12.809
67653W        W32814  13.199  27.391  12.990
67654W        W32815   4.891   6.434   1.212
67655W        W32816  17.843  33.409  13.873
67656W        W32817   4.648   4.423   2.468
67657W        W32818  19.273  14.320  14.427
67658W        W32819   6.355  22.570  14.009
67659W        W32820  39.871  20.865  11.246
67660W        W32821   7.041  22.575  14.024
67661W        W32822  22.515   4.871  11.075
67662W        W32823  33.528   0.858  12.579
67663W        W32824  20.848   9.786   0.296
67664W        W32825  29.566  29.363   4.228
67665W        W32826  44.255  30.251  10.588
67666W        W32827  44.333  39.117  12.568
67667W        W32828  14.418   7.297   3.160
67668W        W32829  27.611  28.659   3.405
67669W        W32830   6.817   1.466   4.277
67670W        W32831  24.269  31.704  10.830
67671W        W32832   8.244  40.945  14.500
67672W        W32833  41.293  37.124  12.056
67673W        W32834  34.381  29.929   2.913
67674W        W32835  15.678  44.270   2.264
67675W        W32836  21.747  11.852  14.045
67676W        W32837  21.606   3.798   4.053
67677W        W32838  16.780  14.644   3.682
67678W        W32839  32.981  18.536  11.190
67679W        W32840   4.782  42.799   9.776
67680W        W32841  19.380  27.456   2.298
67681W        W32842  39.468  33.475   4.372
67682W        W32843  32.113  34.456  11.558
67683W        W32844  23.086  37.801  13.490
67684W        W32845  42.862  43.005  12.632
67685W        W32846  38.835  11.662  14.857
67686W        W32847  13.355  25.031   2.195
67687W        W32848  41.351   4.355  12.093
67688W        W32849  16.657  21.880   2.261
67689W        W32850   3.942  24.717   1.188
67690W        W32851  26.015  34.434  13.505
67691W        W32852  44.059  14.143  13.294
67692W        W32853  11.767  11.123   1.516
67693W        W32854   4.550  34.512   1.160
67694W        W32855   8.251  18.460   4.632
67695W        W32856  19.216   9.746   1.162
67696W        W32857  30.718  30.522   2.874
67697W        W32858  20.632   9.756   4.856
67698W        W32859  36.163  21.432  11.879
67699W        W32860   7.636  15.869  11.630
67700W        W32861  40.155  29.122   1.725
67701W        W32862  24.319  24.447   3.340
67702W        W32863  18.315  12.161  12.097
67703W        W32864  28.040  36.082  12.921
67704W        W32865   7.671  11.894   2.311
67705W        W32866  39.411  23.583   2.140
67706W        W32867  33.046  30.947  14.537
67707W        W32868  16.766  39.846   2.324
67708W        W32869  16.969  18.250  11.676
67709W        W32870  17.577  22.161   4.079
67710W        W32871  20.599   7.777  10.715
67711W        W32872  41.937  17.987  12.579
67712W        W32873   3.258   2.667  12.174
67713W        W32874  11.823  18.809  12.138
67714W        W32875  29.236  38.029  10.196
67715W        W32876   7.749  12.161   1.865
67716W        W32877  30.565  22.961   2.730
67717W        W32878  36.497  18.234   4.762
67718W        W32879  40.137  19.818   1.343
67719W        W32880   7.372  29.989   3.713
67720W        W32881  13.315   4.007   1.871
67721W        W32882  23.754   3.490   1.725
67722W        W32883   6.099  15.706  12.527
67723W        W32884   2.847  12.804  12.796
67724W        W32885  38.412  18.572   1.314
67725W        W32886  12.512  24.036   0.310
67726W        W32887  32.218  34.345   0.559
67727W        W32888  11.885   0.272  11.244
67728W        W32889   5.745  34.786   2.711
67729W        W32890   2.915   1.550   1.702
67730W        W32891  15.725  13.294  11.547
67731W        W32892  34.643  22.266   1.126
67732W        W32893  42.942   4.643   5.055
67733W        W32894  43.879  20.020   3.427
67734W        W32895  26.532  12.719   2.836
67735W        W32896  32.491  13.295   1.931
67736W        W32897  10.383  35.980   4.206
67737W        W32898  10.378  36.412  10.419
67738W        W32899  19.177  33.869  11.190
67739W        W32900   2.364   6.024  14.538
67740W        W32901  29.902   4.394   1.229
67741W        W32902   8.459  11.635  11.064
67742W        W32903  38.917   9.327   1.300
67743W        W32904  35.410  23.610   3.205
67744W        W32905  41.306  38.475   0.562
67745W        W32906  10.752   2.884   3.255
67746W        W32907  38.981  30.459  11.935
67747W        W32908  33.545  17.475  11.603
67748W        W32909  33.963  29.653  12.690
67749W        W32910   6.551  41.862  11.620
67750W        W32911  32.442   6.506   2.676
67751W        W32912  31.824  44.720  14.749
67752W        W32913  22.659  14.885   4.553
67753W        W32914  14.343  22.661  12.140
67754W        W32915   3.334   1.899   3.147
67755W        W32916   9.229   6.473   4.061
67756W        W32917  43.612   6.895  14.689
67757W        W32918  41.253  10.018  14.713
67758W        W32919   4.272   3.453  13.040
67759W        W32920  28.478   5.143  11.694
67760W        W32921  16.608   8.498  12.158
67761W        W32922  12.338   9.322   1.980
67762W        W32923  10.614  35.883   2.504
67763W        W32924   2.998  14.140  14.930
67764W        W32925  20.071  21.763   3.303
67765W        W32926  31.411  16.978  13.105
67766W        W32927  44.505  43.288  10.594
67767W        W32928  27.542   3.485   3.320
67768W        W32929  17.089  29.678  10.661
67769W        W32930  14.570  34.849   2.155
67770W        W32931   5.285   5.175  14.421
67771W        W32932   6.797  38.988   2.314
67772W        W32933  24.929  17.462   1.845
67773W        W32934  44.936   6.633  11.041
67774W        W32935  44.906  41.859   1.088
67775W        W32936  29.553  34.679   3.074
67776W        W32937  29.141   7.851  14.248
67777W        W32938   6.796   7.984   1.767
67778W        W32939  15.633   5.831   3.171
67779W        W32940   7.303  30.729   4.621
67780W        W32941  15.325  35.088   2.409
67781W        W32942  23.948  20.490  12.363
67782W        W32943  21.747   7.170   2.134
67783W        W32944   2.889  26.512  14.238
67784W        W32945  21.604  33.547   0.034
67785W        W32946  20.622  42.053  14.858
67786W        W32947   3.059  24.032   4.636
67787W        W32948  22.630  33.720   2.890
67788W        W32949  21.780  38.957  13.466
67789W        W32950  44.739   5.388   2.072
67790W        W32951  31.354  18.025  10.977
67791W        W32952  36.925  29.021   2.399
67792W        W32953  42.875  38.909   3.990
67793W        W32954  34.103  17.491   2.681
67794W        W32955  43.816  13.392  12.893
67795W        W32956  39.804   8.355   4.284
67796W        W32957   5.422   2.379   3.778
67797W        W32958   5.289  10.848   3.126
67798W        W32959  17.522  14.677   2.267
67799W        W32960  37.704  26.467   4.108
67800W        W32961  20.139  36.326   3.277
67801W        W32962  30.253  12.935  11.897
67802W        W32963   0.518  14.703  12.205
67803W        W32964  28.495  11.094   3.490
67804W        W32965  28.550   7.026   3.248
67805W        W32966  35.071  29.745  13.341
67806W        W32967   1.176   3.751   2.354
67807W        W32968  35.071  20.525  11.128
67808W        W32969  27.301  24.387  14.352
67809W        W32970  20.631  36.972   4.196
67810W        W32971  29.377  31.717  12.919
67811W        W32972  29.145  35.939  13.491
67812W        W32973  29.479  14.781   3.277
67813W        W32974  18.084  43.480   3.135
67814W        W32975  20.042   4.728   2.358
67815W        W32976  28.084  17.807  14.789
67816W        W32977  42.345  22.338  10.654
67817W        W32978  32.471  27.050   0.407
67818W        W32979   8.335   9.728  12.108
67819W        W32980  31.170  11.874  13.632
67820W        W32981  34.219  36.073  13.907
67821W        W32982  18.747  34.495   2.219
67822W        W32983   4.451  16.055   3.408
67823W        W32984  41.669   3.409   0.309
67824W        W32985   6.313  28.788  10.785
67825W        W32986   1.497  17.792   4.487
67826W        W32987  28.643  21.483   4.348
67827W        W32988  14.504   4.553  11.130
67828W        W32989  22.418   7.074  12.637
67829W        W32990  25.655  22.330  14.404
67830W        W32991  43.584   2.592   4.169
67831W        W32992   8.180   9.409  10.809
67832W        W32993  37.988   7.473  11.947
67833W        W32994  17.204  18.699   2.402
67834W        W32995  16.071  29.466  13.451
67835W        W32996   8.361  13.853   4.875
67836W        W32997  20.250  37.977  14.064
67837W        W32998  27.449  43.258   3.047
67838W        W32999  13.778  30.626   3.062
67839W        W33000  19.021  25.752  10.935
67840W        W33001   1.281  12.317  12.400
67841W        W33002  19.295   3.435   2.852
67842W        W33003  21.591  42.007  11.049
67843W        W33004  38.480  25.610   1.405
67844W        W33005  35.560  34.622  14.282
67845W        W33006   8.373   2.975   2.856
67846W        W33007  19.198  42.920  12.524
67847W        W33008  40.932   4.443   3.211
67848W        W33009  31.320  37.480   4.644
67849W        W33010  10.826  15.121  12.825
67850W        W33011   8.679  26.550   2.406
67851W        W33012  33.585  25.693   3.219
67852W        W33013  17.995   1.692  14.064
67853W        W33014  31.908  43.851   2.017
67854W        W33015  39.951  15.640   1.088
67855W        W33016  22.122  37.314  11.627
67856W        W33017  10.644  20.156   0.771
67857W        W33018  41.807  16.994  10.665
67858W        W33019  38.471  18.691   0.391
67859W        W33020  22.231  32.290  12.631
67860W        W33021   9.254  16.275  11.569
67861W        W33022  37.352   0.762   1.791
67862W        W33023  36.989   5.774   4.408
67863W        W33024  37.564   7.139  14.737
67864W        W33025  12.619  41.608   0.102
67865W        W33026   3.487  11.719  10.288
67866W        W33027   9.372   4.347   0.441
67867W        W33028  15.252  34.795  14.545
67868W        W33029  28.683  39.436  11.984
67869W        W33030   4.756   5.922  14.696
67870W        W33031  11.556  40.977  14.847
67871W        W33032  43.576  23.132   1.024
67872W        W33033  32.938   1.486  12.068
67873W        W33034   9.118  41.260   0.025
67874W        W33035  34.497  17.587  14.941
67875W        W33036  33.583  43.722  12.908
67876W        W33037  41.305  21.822   1.510
67877W        W33038  24.104  44.188   2.831
67878W        W33039  24.561  15.345   0.735
67879W        W33040  14.992  41.373  13.371
67880W        W33041  28.211  19.089   3.835
67881W        W33042  25.506  26.952   2.756
67882W        W33043  12.205  43.064   0.387
67883W        W33044  31.335  24.539   1.365
67884W        W33045  30.034  15.976  13.412
67885W        W33046   3.025  41.852   4.316
67886W        W33047  33.281  13.123  11.376
67887W        W33048  26.769  33.406   3.204
67888W        W33049  15.380  41.032   3.125
67889W        W33050  41.464  16.459   4.527
67890W        W33051   4.801  21.612   3.978
67891W        W33052  10.826  37.114  10.362
67892W        W33053  23.682   5.696   4.569
67893W        W33054  36.677   6.838  14.323
67894W        W33055  43.876  17.260   3.655
67895W        W33056   8.709  25.440   4.511
67896W        W33057  31.173  38.416  14.888
67897W        W33058  13.808  27.436   3.568
67898W        W33059  38.508   8.978  13.021
67899W        W33060  20.432  23.003   4.809
67900W        W33061   0.869  10.603  11.468
67901W        W33062  40.335  22.664  13.026
67902W        W33063  31.712  43.556  11.850
67903W        W33064  36.573  37.309   1.448
67904W        W33065   4.005  15.261   2.372
67905W        W33066  11.152   0.746   3.765
67906W        W33067  36.966  20.437   0.867
67907W        W33068   2.162  25.859  14.511
67908W        W33069   5.518  30.490   1.372
67909W        W33070  33.818   7.195   0.379
67910W        W33071  37.597   8.046  14.727
67911W        W33072  24.468  14.136   2.855
67912W        W33073   7.280  23.620   2.738
67913W        W33074  12.125   2.278  14.436
67914W        W33075  10.870  37.854  11.909
67915W        W33076  42.408  23.508   0.486
67916W        W33077  26.184  25.097   4.513
67917W        W33078  42.241  22.682   4.366
67918W        W33079   5.768  32.435   0.904
67919W        W33080   2.368   9.719   3.050
67920W        W33081   1.972   8.763   0.289
67921W        W33082  31.604  16.552  12.882
67922W        W33083  33.350  38.798   0.058
67923W        W33084  41.355  25.219  14.282
67924W        W33085   2.748  44.728  14.947
67925W        W33086  25.769  20.841   1.624
67926W        W33087  10.831   8.097  13.813
67927W        W33088  42.302  38.482  10.695
67928W        W33089   6.286   3.511   5.044
67929W        W33090  38.419  21.776   3.576
67930W        W33091  36.766  12.132   2.206
67931W        W33092  38.627  22.330   2.675
67932W        W33093   6.173  43.989  11.149
67933W        W33094  30.154  34.591   3.769
67934W        W33095  20.167   9.532  10.983
67935W        W33096  14.183  22.676   2.085
67936W        W33097  41.492  21.358   1.781
67937W        W33098   8.203  36.804  12.190
67938W        W33099   8.361  10.797  11.468
67939W        W33100   5.352  44.398   1.849
67940W        W33101  29.524  36.352  10.715
67941W        W33102  28.012  17.763  13.315
67942W        W33103  19.983  14.750   2.323
67943W        W33104  44.842  19.829   3.746
67944W        W33105  23.249  32.570  11.004
67945W        W33106  26.287  33.041  11.966
67946W        W33107  29.020  30.440   3.119
67947W        W33108  24.732  28.276   0.710
67948W        W33109  28.925  10.226   1.993
67949W        W33110   9.417  24.033  11.163
67950W        W33111   4.454  20.084   0.801
67951W        W33112  37.358   9.688   4.681
67952W        W33113  34.762  32.999   1.790
67953W        W33114  20.859  17.040  12.427
67954W        W33115  29.639  30.215  13.216
67955W        W33116  18.251   3.250   3.559
67956W        W33117  43.231   8.324  11.688
67957W        W33118  16.611  11.407   1.921
67958W        W33119  44.367  18.534   2.104
67959W        W33120  37.991  24.237  13.423
67960W        W33121  23.452  27.123  12.930
67961W        W33122  34.650   6.204  14.350
67962W        W33123   0.794  28.107   0.872
67963W        W33124  24.041  15.100  14.030
67964W        W33125  35.980  10.332   0.994
67965W        W33126  23.428  41.897   2.828
67966W        W33127  16.072   0.411  10.766
67967W        W33128  26.524  26.474  14.250
67968W        W33129  26.535  16.505   4.696
67969W        W33130  37.179  29.371   2.888
67970W        W33131  25.232  17.217   0.957
67971W        W33132  40.635  42.822   0.167
67972W        W33133  31.320   8.662   1.741
67973W        W33134  35.384   1.152   3.326
67974W        W33135  27.490  22.251  12.704
67975W        W33136   8.589  20.060   1.429
67976W        W33137  21.926   4.740  14.401
67977W        W33138  13.868  44.322  13.035
67978W        W33139  27.924  39.492  11.246
67979W        W33140  20.162   1.259   2.474
67980W        W33141   6.192  43.720   1.734
67981W        W33142  35.798  44.916  10.535
67982W        W33143   1.804   4.520  13.424
67983W        W33144  12.515  35.366   1.241
67984W        W33145   0.969   2.750   1.413
67985W        W33146  30.689  29.054   2.358
67986W        W33147  10.090  39.932   0.396
67987W        W33148  17.068  33.917  14.268
67988W        W33149  35.493  12.383  13.578
67989W        W33150  23.172  27.065  13.815
67990W        W33151  38.990  18.861  10.130
67991W        W33152  31.847   7.439   0.446
67992W        W33153  36.286  15.726  10.741
67993W        W33154   2.768  41.143  12.586
67994W        W33155  41.793   4.119  14.497
67995W        W33156  36.120  15.142   2.043
67996W        W33157  44.828  23.716   1.435
67997W        W33158  36.448  16.106   1.324
67998W        W33159  36.041  12.410   4.251
67999W        W33160  23.182  21.453   0.592
68000W        W33161  13.329   3.460   1.661
68001W        W33162  36.063  25.517   3.647
68002W        W33163  35.134  23.992  11.612
68003W        W33164  42.224  38.783  12.006
68004W        W33165  41.496  36.846  14.792
68005W        W33166  33.880  41.142   2.920
68006W        W33167  40.675  37.263  12.068
68007W        W33168  27.512  42.936  14.584
68008W        W33169  27.513  13.848  14.008
68009W        W33170  31.860   8.925   2.307
68010W        W33171  31.878  17.884   1.417
68011W        W33172  30.023  18.667   1.068
68012W        W33173  38.061  43.200  12.088
68013W        W33174  22.468  10.380  11.521
68014W        W33175  44.453  12.955  11.467
68015W        W33176  44.379  30.623  13.692
68016W        W33177  40.522  18.068  11.497
68017W        W33178  17.009   0.757   2.762
68018W        W33179  22.481  23.155   1.267
68019W        W33180  21.172  12.936  12.573
68020W        W33181  21.969   2.826   4.907
68021W        W33182  40.829   4.016  12.349
68022W        W33183  34.013  15.816  14.037
68023W        W33184  30.355  19.109   1.761
68024W        W33185  40.014  15.786  11.995
68025W        W33186  14.035  37.055  11.153
68026W        W33187  41.619  12.347  11.223
68027W        W33188  19.262   2.355   0.967
68028W        W33189   1.700  26.930  13.974
68029W        W33190   6.645  39.989   0.748
68030W        W33191  39.353  18.049   3.249
68031W        W33192  40.532  10.243  12.599
68032W        W33193  16.823  28.034   0.842
68033W        W33194  43.409  17.082  12.078
68034W        W33195  41.826  11.442  13.905
68035W        W33196  23.992   9.010   4.871
68036W        W33197  19.623  26.172  13.520
68037W        W33198  33.418  42.838   2.715
68038W        W33199  31.662  32.294  11.322
68039W        W33200  28.046  15.594  14.129
68040W        W33201   1.841  24.279  10.591
68041W        W33202  17.672  31.698  10.425
68042W        W33203  16.265  42.323   0.564
68043W        W33204  24.563   5.595  12.462
68044W        W33205  39.406  25.764   4.218
68045W        W33206  16.164  43.400  10.231
68046W        W33207  36.874  31.101  13.355
68047W        W33208   1.887  36.142   3.414
68048W        W33209  15.062  44.185   5.015
68049W        W33210   3.232   5.250  13.714
68050W        W33211   7.885  35.051   2.284
68051W        W33212   6.361  11.748  10.630
68052W        W33213   1.307  42.901   5.037
68053W        W33214   3.246   3.129   2.026
68054W        W33215   5.762   0.076   4.461
68055W        W33216  20.489  36.467   1.146
68056W        W33217  26.288  21.745   9.489
68057W        W33218  42.122  16.587  10.746
68058W        W33219  20.757   0.854  14.359
68059W        W33220   9.267  15.056  13.583
68060W        W33221  31.235  40.480   3.229
68061W        W33222  15.179  43.145  11.151
68062W        W33223  36.390  42.031  13.911
68063W        W33224   1.400  18.088  13.800
68064W        W33225  24.936  24.933  14.190
68065W        W33226  13.244  19.427  12.578
68066W        W33227  29.512  12.738  14.891
68067W        W33228  41.905  42.684  14.840
68068W        W33229  28.827  33.846  13.956
68069W        W33230  28.223   6.057   5.146
68070W        W33231  22.197   0.198  13.829
68071W        W33232  19.588  44.741   3.732
68072W        W33233   3.911  21.462   3.712
68073W        W33234  26.473  21.246   4.017
68074W        W33235  23.672  14.590   3.655
68075W        W33236  32.673   6.068  11.551
68076W        W33237   0.949  24.599   3.135
68077W        W33238  27.096  39.539  13.861
68078W        W33239  21.342  15.329  13.183
68079W        W33240  11.087   2.957  12.333
68080W        W33241  44.274  18.385  11.599
68081W        W33242   3.446   6.362   1.660
68082W        W33243  42.512  12.446  11.171
68083W        W33244  18.377  10.042  12.076
68084W        W33245   6.148   0.568   0.590
68085W        W33246   9.247  25.408   3.191
68086W        W33247  19.990  44.048   1.414
68087W        W33248  17.718   4.225   4.332
68088W        W33249   3.215  16.033   2.253
68089W        W33250   5.009  14.752   4.987
68090W        W33251   3.293   7.950   2.421
68091W        W33252  17.685  44.250  11.008
68092W        W33253   0.418   0.769  12.857
68093W        W33254  16.986  21.955  11.303
68094W        W33255   8.454  38.809  12.079
68095W        W33256  13.870  16.813  13.394
68096W        W33257  19.737  33.619  12.105
68097W        W33258  24.537   5.298   2.819
68098W        W33259  10.391  26.014  11.099
68099W        W33260  41.836  44.260   4.446
68100W        W33261  38.591   9.189   1.747
68101W        W33262   6.719   5.313   0.235
68102W        W33263   8.029  16.358  14.936
68103W        W33264   0.578   2.866  13.439
68104W        W33265  38.457  22.195  13.042
68105W        W33266  43.109  10.943   4.581
68106W        W33267   4.233  32.147   4.613
68107W        W33268  44.220  41.908   0.581
68108W        W33269  43.741  27.630   2.202
68109W        W33270   6.910   2.658  14.328
68110W        W33271  14.217   0.896  14.921
68111W        W33272   2.700  15.072  14.612
68112W        W33273  28.096  31.711  12.006
68113W        W33274   7.179  38.035   3.006
68114W        W33275   9.213  41.302   3.911
68115W        W33276  28.984  10.819   4.074
68116W        W33277  12.759  16.225   4.255
68117W        W33278  29.027   6.875  14.581
68118W        W33279  19.653   3.199   4.526
68119W        W33280  39.736  20.042   4.460
68120W        W33281  17.718  26.927  11.760
68121W        W33282  11.315  42.756   0.732
68122W        W33283  18.032  27.905   1.447
68123W        W33284  19.565   3.996  11.232
68124W        W33285   5.380  36.434  14.330
68125W        W33286  42.149  37.981   3.798
68126W        W33287  16.623  41.608  12.442
68127W        W33288   1.750  20.818  11.340
68128W        W33289  30.642  28.695   4.335
68129W        W33290  35.228   0.688   0.235
68130W        W33291  43.271  19.561   1.706
68131W        W33292  19.737  10.179   4.182
68132W        W33293  43.304  38.292   0.602
68133W        W33294  19.918  40.431  14.642
68134W        W33295  24.976  14.130  14.856
68135W        W33296   1.999  17.736   4.665
68136W        W33297  30.744  24.565   2.211
68137W        W33298  32.859  16.100   2.796
68138W        W33299  29.075  43.337   1.733
68139W        W33300  14.770   5.826  13.847
68140W        W33301  39.369  31.893  13.310
68141W        W33302  27.110  42.215  11.733
68142W        W33303   0.247  24.293   2.270
68143W        W33304   2.776  44.338   0.723
68144W        W33305  37.603  32.866  14.878
68145W        W33306  29.174  41.063   2.912
68146W        W33307  39.437  33.022   4.604
68147W        W33308  10.930  35.971   2.915
68148W        W33309  43.005  38.560  12.480
68149W        W33310   2.736  35.964  14.849
68150W        W33311   2.570  24.567   0.855
68151W        W33312  41.246   9.808  13.896
68152W        W33313  17.207  14.024  13.490
68153W        W33314  35.071  25.233  12.975
68154W        W33315   2.153  35.161  13.942
68155W        W33316  34.184  40.079  10.260
68156W        W33317  35.485   6.230   4.213
68157W        W33318  39.376  25.643   0.743
68158W        W33319  27.642  22.580   0.460
68159W        W33320  13.118  13.804   1.667
68160W        W33321  40.060   6.666  14.214
68161W        W33322   9.407  10.390  12.241
68162W        W33323  33.989  15.647  11.459
68163W        W33324  31.067  36.388   2.968
68164W        W33325   2.252  30.523   0.541
68165W        W33326   5.218  40.201  10.690
68166W        W33327  12.098  36.095   3.274
68167W        W33328  31.604  15.790   3.869
68168W        W33329   6.340  31.572  11.209
68169W        W33330  36.930  12.032   3.223
68170W        W33331  25.635   2.950  12.397
68171W        W33332   7.215  17.026   0.318
68172W        W33333   0.865  38.054   0.582
68173W        W33334  42.903  14.398   3.218
68174W        W33335   5.877   4.245  11.516
68175W        W33336   3.257  32.200  10.787
68176W        W33337   1.115  35.399  12.901
68177W        W33338  30.966  27.761   2.634
68178W        W33339  17.601  18.835   0.751
68179W        W33340  17.908  39.851  12.625
68180W        W33341  39.544  14.632  12.469
68181W        W33342  35.394   5.313   3.210
68182W        W33343  20.656  37.843  12.649
68183W        W33344  21.438  24.947   0.356
68184W        W33345  23.296   7.334   4.481
68185W        W33346  42.826  40.028   0.664
68186W        W33347   9.276  34.053   2.658
68187W        W33348  31.371  11.680  13.018
68188W        W33349  23.387  43.812   4.488
68189W        W33350  41.805   3.480   2.701
68190W        W33351   7.782  22.572  13.295
68191W        W33352  28.916   4.894  11.784
68192W        W33353  12.653  12.769   1.235
68193W        W33354  10.212  42.785   4.374
68194W        W33355  28.699  30.348  12.381
68195W        W33356  30.043   5.791  14.455
68196W        W33357  12.571   3.121   2.258
68197W        W33358   2.818   5.341  14.092
68198W        W33359  22.601  35.333  14.691
68199W        W33360  44.381  19.252   4.108
68200W        W33361  31.200  12.382   1.862
68201W        W33362  10.335  29.675   0.945
68202W        W33363   7.434  32.666  11.569
68203W        W33364  32.936  18.069   1.819
68204W        W33365  32.982  16.892  14.855
68205W        W33366   9.262  24.740   3.690
68206W        W33367  22.002   7.840   1.306
68207W        W33368  36.052  33.395  12.086
68208W        W33369  17.145  26.119  14.376
68209W        W33370  22.579  31.049   1.987
68210W        W33371   1.635  25.014   2.621
68211W        W33372   5.132  14.315   5.402
68212W        W33373  21.434  11.711  14.904
68213W        W33374   1.506  13.268  12.101
68214W        W33375  17.059   1.840   4.126
68215W        W33376  24.984  15.561   1.960
68216W        W33377  35.723  13.740   3.665
68217W        W33378   8.881  23.478  11.594
68218W        W33379  26.822  14.749  11.240
68219W        W33380  38.570  10.265   1.233
68220W        W33381  12.039  40.975   0.685
68221W        W33382  40.741  24.236   0.946
68222W        W33383  42.691   1.702  14.851
68223W        W33384  14.831  37.061  13.901
68224W        W33385  20.345  42.313   1.682
68225W        W33386  24.675  15.687   1.568
68226W        W33387  32.691  20.162  13.910
68227W        W33388  40.188  30.645  12.496
68228W        W33389  17.202  32.374   4.254
68229W        W33390   1.445  37.077  12.871
68230W        W33391  16.041  43.255   3.297
68231W        W33392  12.534   9.809  12.774
68232W        W33393  13.648  35.402  10.541
68233W        W33394   8.970  14.234  13.051
68234W        W33395   2.330  33.981   3.853
68235W        W33396  38.155   7.845   1.220
68236W        W33397  19.019  34.406  11.241
68237W        W33398  42.489   8.580   2.816
68238W        W33399  16.280   1.104   2.360
68239W        W33400  15.683   6.338   5.163
68240W        W33401  14.138  43.444   0.425
68241W        W33402  13.207  34.035   1.387
68242W        W33403  26.822  27.053   2.652
68243W        W33404  43.459  16.456   0.472
68244W        W33405  23.485   3.212  11.485
68245W        W33406  37.686  22.587   2.810
68246W        W33407  19.263   6.739   1.857
68247W        W33408  31.565  15.658   3.377
68248W        W33409   6.269  32.571   0.770
68249W        W33410  17.714  15.904   9.792
68250W        W33411   6.817   8.932   2.551
68251W        W33412  13.435  31.543   3.787
68252W        W33413  20.501  26.238  12.899
68253W        W33414  27.767  27.140   3.641
68254W        W33415  42.319  15.824   4.515
68255W        W33416  33.467   0.942   3.305
68256W        W33417  15.540  14.198  14.561
68257W        W33418   8.826   9.924  14.729
68258W        W33419  28.982  25.783   2.560
68259W        W33420  42.517  11.988   1.169
68260W        W33421  27.097  17.873   1.800
68261W        W33422  18.287  12.640   2.639
68262W        W33423  43.038  32.146   4.148
68263W        W33424  38.803  21.414  11.660
68264W        W33425   5.861  44.697   3.185
68265W        W33426   0.838   7.597   0.035
68266W        W33427  29.947   7.000  12.086
68267W        W33428   1.255  44.243  13.263
68268W        W33429  29.450  18.270   0.354
68269W        W33430   8.288   2.433  12.272
68270W        W33431  42.595  42.516   1.665
68271W        W33432  21.760  43.362  13.950
68272W        W33433  22.328   3.434  13.069
68273W        W33434  31.631  11.731  12.123
68274W        W33435  43.610  36.445   2.194
68275W        W33436  30.443  16.236  14.471
68276W        W33437  12.319  43.912  11.505
68277W        W33438   4.875  41.964  10.241
68278W        W33439  43.946   8.982   3.265
68279W        W33440  32.530   2.538   4.978
68280W        W33441   9.448   6.338   0.868
68281W        W33442  37.014  12.330   2.799
68282W        W33443  17.621  37.236   1.772
68283W        W33444  44.692  41.333   1.951
68284W        W33445  40.425  27.086   2.331
68285W        W33446  28.145  41.082  14.886
68286W        W33447  39.199  13.849   5.061
68287W        W33448  36.515  36.047   3.830
68288W        W33449   0.361  17.653  14.554
68289W        W33450  30.626  43.421   3.761
68290W        W33451   4.339  30.040  13.992
68291W        W33452  18.168  20.165  11.207
68292W        W33453  38.980  39.560  12.879
68293W        W33454  16.661  42.877   1.340
68294W        W33455   8.958  26.107  12.432
68295W        W33456  21.690  23.483  13.852
68296W        W33457   1.170   0.277  10.941
68297W        W33458  35.626  16.787   3.341
68298W        W33459  19.525   8.246   2.951
68299W        W33460  31.399   0.401  12.029
68300W        W33461  20.106   0.029  11.956
68301W        W33462   5.399  36.086   4.475
68302W        W33463   3.991  12.146   1.883
68303W        W33464   4.813  20.625  13.816
68304W        W33465   9.347  38.012  13.452
68305W        W33466  15.593   6.575  10.483
68306W        W33467  32.276  26.289   5.030
68307W        W33468  22.557  43.262   4.164
68308W        W33469  36.039   0.480   4.796
68309W        W33470  19.940   7.579   3.566
68310W        W33471   7.734   9.046  11.401
68311W        W33472  26.674  25.031   9.853
68312W        W33473  10.025  37.405   3.708
68313W        W33474  12.901  18.063   2.870
68314W        W33475  38.454   6.772  10.701
68315W        W33476  30.969  39.184   9.762
68316W        W33477  20.521  34.353  10.279
68317W        W33478  24.713  19.575   2.276
68318W        W33479  11.486  26.537   0.956
68319W        W33480   6.078  35.506   2.987
68320W        W33481  21.799  33.962   4.467
68321W        W33482  30.381  17.715  14.988
68322W        W33483  33.516   2.933   1.711
68323W        W33484  18.963  35.816   2.719
68324W        W33485  34.499  20.004  10.730
68325W        W33486   3.140  10.347  14.508
68326W        W33487  11.095  21.700  14.354
68327W        W33488  18.741  25.584   1.924
68328W        W33489  25.484  31.582  14.025
68329W        W33490  12.316  32.653  10.731
68330W        W33491  17.230  13.664   4.187
68331W        W33492  21.030  28.767   3.794
68332W        W33493   8.726   6.923   1.302
68333W        W33494  38.303  43.735   2.057
68334W        W33495  35.516   1.877  13.142
68335W        W33496  26.661  43.540   2.319
68336W        W33497  20.032  17.754   0.391
68337W        W33498  29.509  33.489   2.603
68338W        W33499  24.872  39.765   4.447
68339W        W33500  36.540   5.231   4.662
68340W        W33501  15.561  16.701   4.725
68341W        W33502  36.522   2.956  13.386
68342W        W33503  25.935  25.409  13.533
68343W        W33504   4.807  43.694  12.607
68344W        W33505   7.360  35.091   2.337
68345W        W33506  42.480  19.683   5.055
68346W        W33507   7.156   2.394   2.634
68347W        W33508  17.230  19.569  14.402
68348W        W33509  38.409  29.844   1.770
68349W        W33510  41.915  13.265   1.684
68350W        W33511  30.898  37.245  10.822
68351W        W33512  28.935  34.293  12.395
68352W        W33513   0.754  43.780   4.793
68353W        W33514   5.574  21.112  14.505
68354W        W33515  15.689   2.239  13.540
68355W        W33516  11.167  14.822  13.557
68356W        W33517   1.949  39.041   1.890
68357W        W33518  35.454  22.613   3.860
68358W        W33519  13.247  44.706   3.256
68359W        W33520  27.108  37.805   1.714
68360W        W33521  39.228  33.111   4.069
68361W        W33522   0.694  36.918  12.132
68362W        W33523  41.057  25.517  10.610
68363W        W33524  12.036  20.623   2.240
68364W        W33525  27.443  28.477   0.333
68365W        W33526  21.931  21.570   1.456
68366W        W33527   6.518  32.367  12.590
68367W        W33528  29.004  28.481  14.998
68368W        W33529  24.977  24.676   1.910
68369W        W33530  25.152  40.331  14.573
68370W        W33531  32.922  18.485   4.201
68371W        W33532  30.243   1.877   2.181
68372W        W33533  33.930  31.228   3.306
68373W        W33534  29.536   8.442   2.867
68374W        W33535  22.747  38.489   5.001
68375W        W33536   8.184  19.685   4.677
68376W        W33537   9.454  25.961  12.074
68377W        W33538  37.829   8.353  13.013
68378W        W33539  44.894  29.667   4.190
68379W        W33540  37.129   7.393  11.365
68380W        W33541  27.131  14.705  10.815
68381W        W33542  37.468  16.173  14.416
68382W        W33543  39.348  28.386  13.448
68383W        W33544  26.588  24.962   1.804
68384W        W33545  11.568  17.566   4.125
68385W        W33546  26.977  37.016   2.465
68386W        W33547  16.967   0.550  11.655
68387W        W33548  33.067   4.325  14.736
68388W        W33549  33.349  15.204   4.921
68389W        W33550  29.474  18.335   4.226
68390W        W33551  21.713  29.261   1.354
68391W        W33552   6.235   4.769   1.880
68392W        W33553  39.177  20.611  14.966
68393W        W33554  25.619  15.044  10.481
68394W        W33555   0.506   5.375  12.530
68395W        W33556  42.927  20.574   4.827
68396W        W33557  11.353  44.276   1.703
68397W        W33558  41.777   9.252  10.843
68398W        W33559  31.386   7.839   2.728
68399W        W33560  37.637  13.281  10.988
68400W        W33561  35.030   4.979   3.737
68401W        W33562  32.001  27.732  12.572
68402W        W33563  18.360  38.958   4.125
68403W        W33564   2.252  34.166  14.514
68404W        W33565   9.751   6.757  12.685
68405W        W33566  23.985   0.797  13.144
68406W        W33567  38.997  40.305  11.202
68407W        W33568  30.967   8.680   3.269
68408W        W33569  26.680  14.680  12.540
68409W        W33570  25.968  24.313   4.117
68410W        W33571  38.852  29.387   0.406
68411W        W33572  31.709  44.327  12.810
68412W        W33573  11.427  28.101  14.411
68413W        W33574  20.159  30.398  14.416
68414W        W33575  41.764   2.529   2.709
68415W        W33576  15.065  30.098   0.847
68416W        W33577   1.811  42.071  14.496
68417W        W33578  28.714   1.426   4.204
68418W        W33579  18.661  41.258   0.771
68419W        W33580   7.334  11.278   4.779
68420W        W33581  13.900  39.565  11.547
68421W        W33582   8.034  26.569   5.481
68422W        W33583  32.375  11.817   0.309
68423W        W33584  39.393   1.722   5.228
68424W        W33585  36.826  31.034   2.195
68425W        W33586  22.779  31.545  14.403
68426W        W33587  20.959  20.864  13.057
68427W        W33588  25.737   5.454  14.907
68428W        W33589  32.144  15.761   0.365
68429W        W33590  33.582  17.551  10.737
68430W        W33591  20.462   3.010   1.829
68431W        W33592   7.200   0.199   0.923
68432W        W33593  37.188  44.521   1.262
68433W        W33594  12.015  30.059   1.259
68434W        W33595   6.412  23.711  11.525
68435W        W33596  27.176   0.097  12.870
68436W        W33597   4.937  42.092  11.789
68437W        W33598  34.083  18.043  11.580
68438W        W33599  41.893   8.703   0.401
68439W        W33600  37.515  37.294   4.798
68440W        W33601   9.266  16.055  12.603
68441W        W33602  21.337   6.750  13.980
68442W        W33603   5.903  42.450   1.012
68443W        W33604  14.419  16.728  13.346
68444W        W33605  23.080   1.285   9.850
68445W        W33606  17.248  38.515  11.985
68446W        W33607   0.683  41.750   1.235
68447W        W33608  44.466  30.188   3.616
68448W        W33609   4.305  24.100   2.780
68449W        W33610  23.925   1.319  13.008
68450W        W33611  12.878   5.608   3.394
68451W        W33612  36.816  23.108  14.077
68452W        W33613  39.880   0.714   3.993
68453W        W33614   8.575  37.141  11.242
68454W        W33615   1.488   9.454  12.366
68455W        W33616  15.252  35.844   1.745
68456W        W33617  10.310  38.827   4.094
68457W        W33618  27.638  36.856   0.967
68458W        W33619  29.243  24.646  12.591
68459W        W33620  15.493  27.162   4.194
68460W        W33621  35.022  22.236  10.734
68461W        W33622  21.585  25.808   5.659
68462W        W33623  25.717  39.222   3.638
68463W        W33624  33.978  10.741   0.365
68464W        W33625  19.794  37.557  12.873
68465W        W33626  19.838   0.830   0.950
68466W        W33627  41.465  28.670   0.273
68467W        W33628   2.717  39.101  14.824
68468W        W33629  11.765  23.967  12.223
68469W        W33630  34.373  26.022   2.205
68470W        W33631  17.296  15.225   1.423
68471W        W33632  23.448   6.734   1.424
68472W        W33633  13.271  37.676  11.502
68473W        W33634  23.671  20.092  13.962
68474W        W33635   1.001  18.743   3.283
68475W        W33636  39.507  15.168   1.925
68476W        W33637  44.831  42.200  14.114
68477W        W33638  13.795  33.797   0.961
68478W        W33639   7.458  28.750  12.678
68479W        W33640  43.527  18.662   2.633
68480W        W33641  20.582   1.249  10.735
68481W        W33642  38.886  41.665   3.156
68482W        W33643  34.809  41.443   5.021
68483W        W33644  36.388   8.632  11.808
68484W        W33645  32.472  26.629   1.186
68485W        W33646  25.176  25.996  13.599
68486W        W33647   8.919  23.491  10.715
68487W        W33648   1.832  33.518  11.190
68488W        W33649  35.049   1.145   1.334
68489W        W33650  19.605  33.561   1.059
68490W        W33651   5.629  34.328  14.844
68491W        W33652  44.039  19.143  12.483
68492W        W33653   1.857   5.036  11.215
68493W        W33654  29.521  29.132  14.951
68494W        W33655  22.177  30.688   2.328
68495W        W33656  33.063  44.862  10.943
68496W        W33657   1.381  31.488  11.044
68497W        W33658   7.854  35.499  13.955
68498W        W33659  15.283   5.796  13.806
68499W        W33660  10.793  12.566  10.298
68500W        W33661  29.512  27.658   2.325
68501W        W33662  26.228  15.513   0.312
68502W        W33663  38.483  33.012  12.737
68503W        W33664  10.948  19.786  14.540
68504W        W33665  34.858  40.266   2.825
68505W        W33666  36.159   5.455   3.711
68506W        W33667  34.526  43.212   2.202
68507W        W33668  32.522   5.221   5.074
68508W        W33669  31.961  15.671  10.527
68509W        W33670   4.982  35.353   4.074
68510W        W33671  33.420  29.501  10.734
68511W        W33672  21.632  34.440  14.889
68512W        W33673  26.751  36.459  13.973
68513W        W33674  21.675  14.544   4.547
68514W        W33675  12.589  43.386   0.244
68515W        W33676  34.326   7.163   0.442
68516W        W33677  13.107  36.029  10.950
68517W        W33678  24.307  21.598   3.214
68518W        W33679  29.143   3.673   2.647
68519W        W33680  23.589   6.855  13.424
68520W        W33681  41.380  20.314   2.710
68521W        W33682  15.323   7.666  14.842
68522W        W33683   3.290  30.347   1.356
68523W        W33684  39.230  37.651  10.680
68524W        W33685  34.570  37.307   2.861
68525W        W33686  19.807  29.792   2.858
68526W        W33687  39.268  22.576   0.972
68527W        W33688   0.873  38.159  13.378
68528W        W33689  36.983  19.437  10.824
68529W        W33690   3.354  24.368  13.446
68530W        W33691  23.879  19.280  10.960
68531W        W33692  12.897  15.707  10.695
68532W        W33693  15.692  28.155   0.366
68533W        W33694   1.231  29.039   0.353
68534W        W33695  25.904  14.408  10.331
68535W        W33696  39.459  41.222  12.854
68536W        W33697  25.582   4.936  10.520
68537W        W33698  10.242  14.822   3.227
68538W        W33699  44.970  19.270   1.735
68539W        W33700  10.431  43.454   1.351
68540W        W33701  10.668  44.516   3.092
68541W        W33702  14.585  16.676  12.858
68542W        W33703  17.819  44.298   1.503
68543W        W33704  26.622  40.847   1.983
68544W        W33705  15.212  38.871   0.551
68545W        W33706   5.869  43.689   4.579
68546W        W33707  18.565  10.937  12.922
68547W        W33708  44.840  35.787  13.643
68548W        W33709  10.401   0.444   0.951
68549W        W33710   0.937  35.727  14.116
68550W        W33711  42.410   6.500  13.457
68551W        W33712  40.371   9.826   2.239
68552W        W33713   6.156   3.868  12.673
68553W        W33714  39.366  33.527   1.911
68554W        W33715  31.954  10.610   0.276
68555W        W33716   3.134   3.639   2.870
68556W        W33717  15.631  14.787   1.772
68557W        W33718  42.828  29.165  12.129
68558W        W33719  23.077   8.917  14.425
68559W        W33720  40.811  17.157  13.090
68560W        W33721  43.009  22.309   0.736
68561W        W33722   4.308   5.904   2.311
68562W        W33723  38.071   1.305  14.236
68563W        W33724  21.173  36.592   1.774
68564W        W33725  22.655  41.571  13.116
68565W        W33726   7.473  44.289  12.864
68566W        W33727  39.902   2.384  14.319
68567W        W33728   4.443  10.048  10.907
68568W        W33729  15.529  40.322  13.342
68569W        W33730  26.438  37.914  11.687
68570W        W33731  23.534  27.544   3.874
68571W        W33732  30.136   3.334  13.623
68572W        W33733  15.779  20.488   0.383
68573W        W33734  15.146  27.527  13.226
68574W        W33735   0.973  17.382   0.853
68575W        W33736  11.088  26.035   0.236
68576W        W33737  25.961  32.518  14.978
68577W        W33738  15.698  33.773  13.627
68578W        W33739   6.727  39.106  14.829
68579W        W33740  21.451  11.020   0.535
68580W        W33741   7.121  38.422   3.750
68581W        W33742   3.223  29.020   2.533
68582W        W33743  24.130  26.933   1.827
68583W        W33744   4.336   3.038   1.922
68584W        W33745  24.643  34.627   2.347
68585W        W33746  27.689  19.158   1.481
68586W        W33747  28.473  18.218  10.722
68587W        W33748   2.429  39.962  14.893
68588W        W33749  24.950   5.446  11.166
68589W        W33750   3.205  22.854  10.419
68590W        W33751   8.294  15.239  11.420
68591W        W33752  24.447   4.976   3.661
68592W        W33753   9.056  19.220   2.316
68593W        W33754  22.226  41.732   2.213
68594W        W33755   2.380   3.207   4.681
68595W        W33756  16.540  15.570   4.868
68596W        W33757   5.232  27.956   3.311
68597W        W33758  42.289  28.618   3.753
68598W        W33759   5.834  22.676   4.716
68599W        W33760  37.825  15.098  12.990
68600W        W33761  15.109  39.853  13.183
68601W        W33762  31.872  30.565   1.214
68602W        W33763   2.415  23.362   4.156
68603W        W33764  21.535  30.848  11.042
68604W        W33765  40.315  35.196  11.222
68605W        W33766  16.645  16.414  13.300
68606W        W33767   0.343  24.016  12.423
68607W        W33768  39.881  29.590  13.433
68608W        W33769  25.279  22.051   1.794
68609W        W33770   5.284  27.940  12.932
68610W        W33771  20.220  38.597  12.797
68611W        W33772  19.790  19.648  11.671
68612W        W33773  15.347  13.793   3.190
68613W        W33774  43.224   0.672  14.096
68614W        W33775  38.845  41.297  14.899
68615W        W33776  35.449  22.353   0.137
68616W        W33777  24.016  13.889   0.725
68617W        W33778  25.131  17.877   3.238
68618W        W33779   3.018  11.881  11.639
68619W        W33780  29.488   3.936   2.389
68620W        W33781  13.041  10.908   1.662
68621W        W33782  26.894  14.410   2.349
68622W        W33783   9.982  22.231   3.225
68623W        W33784  41.840  30.751  11.588
68624W        W33785  36.380  33.951  12.419
68625W        W33786  32.068  30.997   0.797
68626W        W33787  40.426  44.279   4.100
68627W        W33788  36.846   4.748  14.722
68628W        W33789  26.074  13.224   2.687
68629W        W33790   8.003   2.377   3.683
68630W        W33791  43.033  34.234  10.561
68631W        W33792  32.360  35.911  14.165
68632W        W33793  31.808   4.821   1.426
68633W        W33794  11.574   3.640  11.162
68634W        W33795   7.895  44.849   4.114
68635W        W33796  18.792   6.889  14.037
68636W        W33797   7.405   5.427  14.420
68637W        W33798  39.150  36.596   0.874
68638W        W33799   9.947  44.530  12.859
68639W        W33800  32.146   1.353  12.495
68640W        W33801  40.973  36.058   0.017
68641W        W33802  39.733   2.195   0.371
68642W        W33803   2.350  41.480   0.886
68643W        W33804  11.434  10.750   0.772
68644W        W33805  30.386  29.710  12.969
68645W        W33806  32.826  24.597  12.499
68646W        W33807  34.050  37.719   2.222
68647W        W33808  29.949  36.921  11.554
68648W        W33809  36.861  34.471   1.625
68649W        W33810  23.477   7.729   0.983
68650W        W33811  37.795  20.364  11.190
68651W        W33812  30.538  21.067   3.578
68652W        W33813  40.988  10.141   3.395
68653W        W33814   5.937  29.548  14.388
68654W        W33815  18.747   5.157   2.514
68655W        W33816  41.885  35.897   2.421
68656W        W33817  24.907  33.328  11.944
68657W        W33818   8.651  32.830  13.959
68658W        W33819  38.914  12.545  10.536
68659W        W33820  34.896  34.501   3.268
68660W        W33821  33.311   0.088   9.988
68661W        W33822  42.274  22.711   0.756
68662W        W33823  21.615   1.507  12.588
68663W        W33824  18.607  25.072  14.536
68664W        W33825  10.328  18.174   4.111
68665W        W33826   4.955   9.929   2.814
68666W        W33827   2.826  16.359  14.397
68667W        W33828  43.045  12.762  11.990
68668W        W33829  21.560   4.612  13.304
68669W        W33830  40.634  19.603  10.683
68670W        W33831  35.266  20.025   3.237
68671W        W33832   2.631  29.436  10.747
68672W        W33833   9.216  23.263   2.845
68673W        W33834  21.245   0.169   1.388
68674W        W33835  14.330  33.632  14.764
68675W        W33836  11.166  37.759   0.504
68676W        W33837  23.814  27.685  13.689
68677W        W33838   0.443  20.534   4.398
68678W        W33839  12.673  32.542  11.638
68679W        W33840  31.886  44.893  13.014
68680W        W33841  24.590  28.628   2.894
68681W        W33842   6.812   0.211   2.245
68682W        W33843  13.144  40.275   9.797
68683W        W33844  35.113  41.455   1.463
68684W        W33845  30.145  11.478  14.412
68685W        W33846  39.565  36.739   1.798
68686W        W33847   7.724  17.128  12.887
68687W        W33848   5.376  36.412   1.433
68688W        W33849  29.583  21.698  12.873
68689W        W33850  21.215  15.388   1.298
68690W        W33851  13.142  23.924  10.748
68691W        W33852  21.815   2.388   1.218
68692W        W33853  44.509   5.892   0.059
68693W        W33854  36.447  43.244  14.871
68694W        W33855  39.741   4.500  12.981
68695W        W33856  27.579  36.943  11.741
68696W        W33857  42.015  22.349  11.088
68697W        W33858  24.647  16.997  14.777
68698W        W33859   3.191  14.795   3.632
68699W        W33860  12.751  30.902  13.301
68700W        W33861  32.628  15.225   3.660
68701W        W33862  10.057  32.083  11.108
68702W        W33863  29.980   4.949  14.833
68703W        W33864  39.782  24.094   3.904
68704W        W33865  21.983  26.421   2.166
68705W        W33866  14.572  10.363   0.321
68706W        W33867   1.269  12.211  13.889
68707W        W33868   0.043   5.722   3.330
68708W        W33869  24.797  32.464   3.628
68709W        W33870  33.244  30.181   2.757
68710W        W33871  36.470  36.841  10.302
68711W        W33872  26.943  37.020  13.339
68712W        W33873  17.121  42.837   4.834
68713W        W33874  19.731   5.387   3.113
68714W        W33875   5.861  27.400   3.186
68715W        W33876   9.786  23.762   0.338
68716W        W33877  39.335  33.502   0.987
68717W        W33878  17.536  27.135   1.689
68718W        W33879  29.186  19.311   1.950
68719W        W33880  23.651  21.569  12.889
68720W        W33881  14.362  13.761   1.341
68721W        W33882  14.284  25.527  14.268
68722W        W33883  42.229  33.732   2.855
68723W        W33884   1.895  40.079  13.077
68724W        W33885  43.564   8.507  14.870
68725W        W33886  34.034  21.438   2.788
68726W        W33887  41.403  41.221  12.522
68727W        W33888  22.755   0.418  12.915
68728W        W33889  19.379  14.174  11.147
68729W        W33890  12.955  40.671  11.643
68730W        W33891  38.487  43.839   1.578
68731W        W33892  14.231  21.869   0.868
68732W        W33893  15.552  39.160   2.280
68733W        W33894   3.053  40.343   2.042
68734W        W33895  10.268  20.027   5.081
68735W        W33896  25.516  12.313  12.831
68736W        W33897  31.586  38.121  14.766
68737W        W33898  28.192  15.653  12.040
68738W        W33899  42.436  25.126  11.634
68739W        W33900   7.076   2.555  12.847
68740W        W33901  31.278  18.752   1.544
68741W        W33902  24.461  35.315   3.126
68742W        W33903  44.896  32.875   0.234
68743W        W33904  39.611   0.233   3.263
68744W        W33905  13.307  19.794   4.918
68745W        W33906   6.421  34.859   0.869
68746W        W33907  40.548   5.156  13.534
68747W        W33908  22.283  19.629   0.311
68748W        W33909   8.050  17.142  13.294
68749W        W33910  39.720  17.629  10.589
68750W        W33911   8.074  13.334   0.362
68751W        W33912  42.162  18.572  13.392
68752W        W33913   2.405  35.505  12.615
68753W        W33914  25.934  44.699   2.658
68754W        W33915  43.278   8.927   4.681
68755W        W33916  31.832   7.695  13.564
68756W        W33917   1.169  24.318  11.204
68757W        W33918  21.240   4.839   4.977
68758W        W33919   7.079  11.849   0.295
68759W        W33920  36.369  36.943  14.743
68760W        W33921  28.659  12.193  10.755
68761W        W33922   0.499  44.216  11.566
68762W        W33923   1.826   8.802   2.185
68763W        W33924  14.394  24.567  13.797
68764W        W33925  23.967  27.078  12.916
68765W        W33926  26.052  37.762   0.421
68766W        W33927  18.808  15.715  14.057
68767W        W33928  19.594   8.799   4.853
68768W        W33929  23.162  31.274  11.558
68769W        W33930  36.613   7.767   1.244
68770W        W33931  30.275  41.090   1.786
68771W        W33932   5.685   5.919  13.470
68772W        W33933  19.147  18.905   1.301
68773W        W33934  44.244  29.444  13.091
68774W        W33935   5.612  24.200   0.256
68775W        W33936  36.656  44.873   3.640
68776W        W33937  35.347  24.215   2.367
68777W        W33938  42.977   4.859   3.241
68778W        W33939  22.739   7.378   2.621
68779W        W33940  34.959  39.845   0.799
68780W        W33941  44.228  12.107   2.968
68781W        W33942   8.222  42.009   1.426
68782W        W33943  14.352   8.887   3.743
68783W        W33944  25.153   0.558  10.456
68784W        W33945  13.337  33.907  11.166
68785W        W33946  18.431  10.085   2.009
68786W        W33947   5.764  26.997  10.075
68787W        W33948   9.336   0.797   0.934
68788W        W33949  44.375   7.672  10.543
68789W        W33950   2.410  23.980  11.728
68790W        W33951   5.791  34.610   1.280
68791W        W33952   7.673  35.755  14.405
68792W        W33953  21.603  28.190  13.738
68793W        W33954   6.730  44.205  12.914
68794W        W33955  40.114  23.987  10.870
68795W        W33956  21.927  11.203  11.551
68796W        W33957  17.610  23.047   0.457
68797W        W33958  33.812   2.300   4.158
68798W        W33959   6.160  21.149  11.627
68799W        W33960  30.706   0.268   3.261
68800W        W33961  26.841  43.764   0.172
68801W        W33962  29.629  40.468   0.205
68802W        W33963  19.837  44.867   4.163
68803W        W33964  16.163  27.463  11.875
68804W        W33965   0.477  29.201   0.866
68805W        W33966   0.459  33.364  14.844
68806W        W33967  31.796  44.264   2.341
68807W        W33968  27.393   6.582   4.492
68808W        W33969  34.923   2.472  11.155
68809W        W33970   3.695  34.380   1.407
68810W        W33971  26.850  15.299  13.958
68811W        W33972  28.121  13.777  10.349
68812W        W33973  40.243   9.089  13.396
68813W        W33974  25.095  12.843  11.130
68814W        W33975  20.455   4.370   2.532
68815W        W33976  12.897  22.741   2.284
68816W        W33977  36.007  10.118  10.876
68817W        W33978  10.303  31.250   3.276
68818W        W33979  17.089   1.931   4.646
68819W        W33980  23.685   2.343   4.570
68820W        W33981   5.962  38.938  14.576
68821W        W33982  42.386  26.163   1.847
68822W        W33983  24.523  37.500  14.497
68823W        W33984  41.347  25.197  13.371
68824W        W33985   4.172  29.863   2.585
68825W        W33986  14.745  31.050  13.082
68826W        W33987  18.948  41.066   4.650
68827W        W33988   9.236  23.608  13.484
68828W        W33989  44.682  18.589   1.095
68829W        W33990  19.240  23.498   1.397
68830W        W33991  42.268  42.423   1.268
68831W        W33992  23.651  13.400   0.308
68832W        W33993   5.580   1.680  11.589
68833W        W33994   6.772  44.182   2.155
68834W        W33995  18.095  34.901  14.301
68835W        W33996   1.043  10.230  12.341
68836W        W33997  29.423  15.003   1.820
68837W        W33998  23.149  25.521  13.618
68838W        W33999  44.389  29.868  11.884
68839W        W34000  20.095  41.083  10.947
68840W        W34001  10.640  14.167  10.764
68841W        W34002   1.199   9.363  14.424
68842W        W34003  25.198  31.968  11.409
68843W        W34004  34.173  23.493  14.734
68844W        W34005  15.051  22.290  12.413
68845W        W34006  37.497  41.403   0.663
68846W        W34007  28.238  25.176  13.997
68847W        W34008  21.624  20.634   2.654
68848W        W34009   1.776   0.698   2.188
68849W        W34010  38.943  44.325  13.915
68850W        W34011  25.551  20.651   2.607
68851W        W34012  27.784  35.504   0.695
68852W        W34013  36.849  36.641  12.928
68853W        W34014  43.990   0.960  13.513
68854W        W34015  21.368  33.361   2.830
68855W        W34016  43.357  36.060   0.729
68856W        W34017  31.168   1.402  13.553
68857W        W34018  10.325  13.628  11.517
68858W        W34019  12.901  28.138  14.302
68859W        W34020  41.574  37.250  14.485
68860W        W34021  20.177  38.331  11.261
68861W        W34022  20.843  30.442   3.291
68862W        W34023  30.071   1.746  11.888
68863W        W34024   2.374  25.721  12.139
68864W        W34025  13.798  16.232   1.152
68865W        W34026   9.130  21.789  12.471
68866W        W34027   6.361  22.264  11.882
68867W        W34028  34.575   3.383   4.414
68868W        W34029   7.283  40.343  11.954
68869W        W34030  44.260  38.324  10.329
68870W        W34031  36.644  11.258  12.602
68871W        W34032  10.183  41.249   4.184
68872W        W34033   7.254  27.616   2.122
68873W        W34034   0.927   4.309   1.516
68874W        W34035   5.652  13.083   1.637
68875W        W34036  38.504   7.937  14.821
68876W        W34037  22.238  32.574   3.800
68877W        W34038  27.766   0.937   0.880
68878W        W34039  15.514  25.000   0.503
68879W        W34040  41.031  29.902  14.963
68880W        W34041  31.151  20.337  11.035
68881W        W34042  44.163   3.753  10.887
68882W        W34043  40.105  10.560   0.369
68883W        W34044   9.674  25.930   2.388
68884W        W34045   8.333   4.208   0.025
68885W        W34046  35.128   1.724   4.072
68886W        W34047   5.060  11.870   5.029
68887W        W34048  43.463  17.817  14.281
68888W        W34049   0.336   0.707  10.596
68889W        W34050  18.828  38.777   4.240
68890W        W34051  10.695  19.596   3.416
68891W        W34052  15.750   5.406   1.344
68892W        W34053  22.340  25.059   3.621
68893W        W34054  12.879  10.377   3.738
68894W        W34055  33.684  16.310  12.904
68895W        W34056  32.386  10.362   0.828
68896W        W34057  33.952  36.173   1.355
68897W        W34058  13.709   8.288   0.182
68898W        W34059  27.208   8.776   2.681
68899W        W34060  28.151  16.931   3.601
68900W        W34061  42.085  14.875  11.441
68901W        W34062  31.627   8.826  14.110
68902W        W34063  39.754  38.328   3.740
68903W        W34064  30.404  14.624  11.615
68904W        W34065  13.787  10.896  12.448
68905W        W34066  18.766  21.061   4.538
68906W        W34067  32.829   7.467   1.523
68907W        W34068   6.436  42.895  14.950
68908W        W34069  28.208   4.156  12.174
68909W        W34070  36.866  28.364   4.986
68910W        W34071  33.832  25.184   2.346
68911W        W34072  13.725   4.178  11.493
68912W        W34073  41.253  30.246  11.305
68913W        W34074  11.619  13.864  14.738
68914W        W34075  13.299  29.227  13.429
68915W        W34076   0.423  38.046   0.861
68916W        W34077  40.299  40.742  10.100
68917W        W34078  16.881  13.099   2.612
68918W        W34079  15.203  42.891   4.354
68919W        W34080  15.342  16.601   9.588
68920W        W34081  44.219  25.674  10.712
68921W        W34082   8.397  15.446  12.821
68922W        W34083  27.596  16.745  14.244
68923W        W34084   3.451  21.099   1.379
68924W        W34085   4.043  22.151  11.121
68925W        W34086  22.887  11.195   3.727
68926W        W34087  19.277  38.311   4.685
68927W        W34088  33.640  28.415   1.614
68928W        W34089  27.415  20.172  13.097
68929W        W34090  20.276  13.713  12.872
68930W        W34091   8.407  26.533  14.010
68931W        W34092  39.599   9.397   2.660
68932W        W34093  12.193  37.862   1.468
68933W        W34094   5.448  34.989   4.211
68934W        W34095   1.727  29.130   2.119
68935W        W34096   1.660   1.979   1.937
68936W        W34097  41.508  12.919   1.614
68937W        W34098  17.501  26.146  12.516
68938W        W34099  21.152  39.080   0.985
68939W        W34100   8.454  37.974   3.260
68940W        W34101  15.423  23.829  13.724
68941W        W34102  30.990  43.276   1.746
68942W        W34103   6.411   0.891   5.103
68943W        W34104  14.366  37.086  12.527
68944W        W34105  38.830  24.954   1.847
68945W        W34106   2.548  21.522  14.870
68946W        W34107  21.760  22.247   0.836
68947W        W34108  43.143  38.002  10.359
68948W        W34109   6.718  33.655   0.494
68949W        W34110   9.879  16.634   4.432
68950W        W34111  29.217   2.504  14.321
68951W        W34112  14.381  34.454   2.432
68952W        W34113  23.481  13.087  10.838
68953W        W34114  19.649  10.380  13.975
68954W        W34115   4.348  21.675   0.756
68955W        W34116  28.753  10.651   3.637
68956W        W34117  19.187  12.679   0.802
68957W        W34118  37.379  27.202   1.901
68958W        W34119  40.538  14.347   4.212
68959W        W34120  26.097  18.169   3.684
68960W        W34121   4.227  29.096   1.164
68961W        W34122  17.270  17.112  13.868
68962W        W34123  16.743  28.167   0.354
68963W        W34124  36.724  41.477   1.876
68964W        W34125  10.550  27.225   4.976
68965W        W34126  37.095  40.789  10.856
68966W        W34127  28.725  19.470  14.510
68967W        W34128  28.709   2.677  14.289
68968W        W34129   4.608   8.540  13.976
68969W        W34130  39.099  11.072  13.475
68970W        W34131  31.336  44.216   2.722
68971W        W34132  13.863  33.612   2.178
68972W        W34133  32.790  25.136   4.759
68973W        W34134  38.293  14.098   3.618
68974W        W34135  36.999  30.690   0.198
68975W        W34136  38.886  39.412   3.221
68976W        W34137  18.052  29.569  11.659
68977W        W34138  29.477  10.034   5.046
68978W        W34139  12.938  10.255  12.079
68979W        W34140  20.245  33.660  14.361
68980W        W34141  31.565  14.304  14.556
68981W        W34142   8.898  44.942  14.943
68982W        W34143  37.419  33.149   1.893
68983W        W34144   0.432  44.690   2.767
68984W        W34145  23.172  10.932  11.034
68985W        W34146   3.400  33.849  13.438
68986W        W34147  30.120  12.240  12.953
68987W        W34148  27.930   0.318   1.788
68988W        W34149  20.053  19.631  10.119
68989W        W34150  24.740   2.829  12.497
68990W        W34151  27.994  28.132   4.060
68991W        W34152  11.740   7.947   3.947
68992W        W34153  41.553   1.812  12.906
68993W        W34154  24.646  15.357   2.333
68994W        W34155  38.851  26.443  13.979
68995W        W34156  15.902   5.732  14.555
68996W        W34157   4.753  28.713  12.536
68997W        W34158  31.419  13.433   2.779
68998W        W34159  35.686  43.079  12.174
68999W        W34160  28.433  18.734  13.294
69000W        W34161   1.880  27.255  14.772
69001W        W34162   1.242  31.878  13.268
69002W        W34163  36.037  14.301   4.778
69003W        W34164  32.133  29.572  11.778
69004W        W34165   8.586  14.226   3.107
69005W        W34166  25.912  19.070  11.729
69006W        W34167  27.659  14.267   4.050
69007W        W34168  18.981  33.922   3.764
69008W        W34169   4.784  21.481   0.518
69009W        W34170   7.010  23.716   2.281
69010W        W34171  13.583  22.069   1.191
69011W        W34172  18.905  12.438  11.590
69012W        W34173   2.085  18.558  12.595
69013W        W34174  40.648  34.476  10.793
69014W        W34175  36.942  34.955  12.161
69015W        W34176   5.439  39.320   3.732
69016W        W34177  21.721  17.908  11.975
69017W        W34178  14.880   2.693   2.941
69018W        W34179  32.947  39.392  13.944
69019W        W34180  22.032  14.395   3.153
69020W        W34181  20.208  10.069  10.970
69021W        W34182   7.691  13.801  14.479
69022W        W34183  10.136  36.747  13.117
69023W        W34184  43.098  25.484   4.140
69024W        W34185  20.001   5.332   4.659
69025W        W34186  12.091  27.030   0.434
69026W        W34187  26.955  39.485   1.630
69027W        W34188   9.351  35.828   1.712
69028W        W34189  17.578  14.988  11.972
69029W        W34190   6.602  28.656  13.688
69030W        W34191  18.154  38.035   1.776
69031W        W34192   3.421  38.867  12.200
69032W        W34193  42.691   1.566   3.130
69033W        W34194  17.833   6.597  11.201
69034W        W34195  22.603   5.367  11.575
69035W        W34196   9.416  31.572   3.626
69036W        W34197  35.454  43.242   4.618
69037W        W34198  25.263  32.426   2.123
69038W        W34199  32.856  30.043  14.835
69039W        W34200  26.557  34.088  10.890
69040W        W34201  10.745  22.089  12.542
69041W        W34202  30.585  34.340  11.515
69042W        W34203  17.058  27.142   3.667
69043W        W34204  12.171   2.554  13.034
69044W        W34205   9.696  43.589   0.818
69045W        W34206  29.981   2.387  10.725
69046W        W34207   5.189  18.809  14.731
69047W        W34208  21.722  11.322   4.163
69048W        W34209  44.530  19.747   0.429
69049W        W34210  24.037   8.377   4.573
69050W        W34211  18.601  28.054  14.799
69051W        W34212  39.641   1.510   2.813
69052W        W34213   7.834  38.035   1.853
69053W        W34214  33.897  16.375  14.945
69054W        W34215  12.855  44.688   4.242
69055W        W34216  38.310  12.494   3.990
69056W        W34217   0.269  17.394  13.068
69057W        W34218  11.349   1.404  10.724
69058W        W34219  25.598   1.291  14.275
69059W        W34220  12.822  11.403  13.418
69060W        W34221   9.159  15.418   3.759
69061W        W34222   8.311  40.744  14.976
69062W        W34223  33.800  20.703   3.318
69063W        W34224  39.048  21.098  10.763
69064W        W34225  33.915  20.567   3.840
69065W        W34226   9.203   5.651  10.982
69066W        W34227   0.007   7.432   1.428
69067W        W34228  33.751  35.777  12.149
69068W        W34229  41.845  10.280  10.754
69069W        W34230  16.613  36.743   0.387
69070W        W34231  25.688  27.529   4.493
69071W        W34232   7.703  20.158  11.447
69072W        W34233  43.332   7.999  11.310
69073W        W34234  35.821  12.548  11.228
69074W        W34235  35.140  24.115   0.695
69075W        W34236  37.463  24.592   2.151
69076W        W34237  25.260   9.035   4.591
69077W        W34238  18.616  38.599   3.334
69078W        W34239  14.853  12.784   1.815
69079W        W34240  14.768  28.761  11.930
69080W        W34241  19.426  17.526  11.641
69081W        W34242  25.175  41.056  10.200
69082W        W34243   7.300   2.941   1.791
69083W        W34244  37.492   6.917   2.234
69084W        W34245  38.399  40.798   1.545
69085W        W34246  39.165  33.053   1.263
69086W        W34247   9.415  27.813  10.026
69087W        W34248  37.365  43.708  11.052
69088W        W34249  20.587   9.733   3.773
69089W        W34250  37.402   2.905  12.141
69090W        W34251  40.763  11.418   3.813
69091W        W34252  34.476   7.713   1.564
69092W        W34253  13.133  44.914  13.942
69093W        W34254  21.366  32.202   3.170
69094W        W34255  28.505  34.078   1.270
69095W        W34256  17.671   9.796  12.388
69096W        W34257  24.710  42.683  14.642
69097W        W34258   1.950  12.084   4.773
69098W        W34259  15.713  18.167   5.223
69099W        W34260  27.674   4.862  13.393
69100W        W34261  12.706   5.436   1.961
69101W        W34262   1.239  42.075   2.940
69102W        W34263  29.947   2.995  13.280
69103W        W34264   2.255  29.116  13.009
69104W        W34265  35.847   0.246  11.002
69105W        W34266  13.633   8.105  11.625
69106W        W34267  31.961  39.575  13.037
69107W        W34268  32.498  29.627  11.015
69108W        W34269  25.537  18.461  14.916
69109W        W34270  43.407  35.839   1.183
69110W        W34271   4.225  14.153  14.294
69111W        W34272  10.269  13.805   0.465
69112W        W34273  16.176  39.151  10.680
69113W        W34274  44.964  25.158  13.364
69114W        W34275  33.445  18.300   4.734
69115W        W34276   8.553  32.373   2.808
69116W        W34277  43.367  13.759  10.610
69117W        W34278  31.689  38.456   9.976
69118W        W34279  16.503  25.494  14.530
69119W        W34280  17.686  10.632  10.991
69120W        W34281  23.006  37.375  10.721
69121W        W34282  44.067  33.958   2.504
69122W        W34283  11.577  38.083  13.198
69123W        W34284  14.175  25.582   2.343
69124W        W34285  34.579  12.906  14.413
69125W        W34286  30.910  37.879   3.515
69126W        W34287   4.959   1.039   4.147
69127W        W34288  19.047   1.797   2.313
69128W        W34289   9.913   4.263   3.276
69129W        W34290   9.881  27.290  11.149
69130W        W34291  33.686  41.069   2.426
69131W        W34292  41.876  43.345  10.782
69132W        W34293  17.529  14.265  11.515
69133W        W34294  39.443  39.536  11.573
69134W        W34295  26.686  36.273  11.192
69135W        W34296   5.009  43.508   0.928
69136W        W34297   7.691  14.325   1.886
69137W        W34298  27.612  28.025   2.314
69138W        W34299   0.837   7.329  10.344
69139W        W34300  39.421   2.276  14.467
69140W        W34301  24.023  30.687   2.331
69141W        W34302  26.948   7.941  12.880
69142W        W34303  28.710  24.686   2.283
69143W        W34304  40.955   0.272  13.562
69144W        W34305   9.698  26.691  13.523
69145W        W34306  28.796  10.820   3.179
69146W        W34307  35.335  12.556  14.036
69147W        W34308  42.471   5.776   3.212
69148W        W34309   7.174  15.040   4.610
69149W        W34310  35.539  20.686   4.484
69150W        W34311  29.576   0.527  10.830
69151W        W34312  37.282   3.729   0.463
69152W        W34313  30.649  36.894  13.865
69153W        W34314  19.797  16.160  13.400
69154W        W34315  17.588  44.833   5.338
69155W        W34316  30.403  28.032  11.596
69156W        W34317  36.322   6.474   1.772
69157W        W34318  37.705   1.515  11.747
69158W        W34319  16.038  43.741   3.654
69159W        W34320  35.402  34.787   3.139
69160W        W34321  25.584  13.757   4.525
69161W        W34322  25.505   5.584   3.857
69162W        W34323  23.489  16.853  12.539
69163W        W34324   8.172  13.849   0.450
69164W        W34325  41.738  26.664   2.128
69165W        W34326  32.077  11.377   1.838
69166W        W34327  38.072  33.482  11.486
69167W        W34328  44.286   8.451   2.659
69168W        W34329  10.396   4.297  10.899
69169W        W34330   2.696   1.276  12.942
69170W        W34331  16.314  26.001   2.333
69171W        W34332  24.165  11.777   1.690
69172W        W34333  35.967  40.423  10.773
69173W        W34334  13.734  30.871  11.522
69174W        W34335   3.267  44.831   2.412
69175W        W34336  35.496  27.274   3.957
69176W        W34337  40.338   2.677  10.614
69177W        W34338  16.681  16.923  10.235
69178W        W34339  26.046  44.016  14.932
69179W        W34340  42.302  44.318  12.635
69180W        W34341  17.803   0.324   2.803
69181W        W34342  22.084  25.068  13.443
69182W        W34343  33.928  39.252  12.018
69183W        W34344  37.850   5.962   1.065
69184W        W34345   2.965  31.985  12.994
69185W        W34346  19.404  29.510  11.920
69186W        W34347   4.412  12.268  14.607
69187W        W34348  23.466  18.361   3.905
69188W        W34349  10.073  36.388   3.028
69189W        W34350  35.630  36.268   2.809
69190W        W34351  44.923  41.578  10.973
69191W        W34352  19.380  24.001   5.426
69192W        W34353   9.712  17.231   1.423
69193W        W34354  14.787  25.727   2.689
69194W        W34355   1.359  30.599   4.511
69195W        W34356  28.479  17.148  14.718
69196W        W34357  37.511  39.972  13.324
69197W        W34358  40.363  21.475   1.231
69198W        W34359  42.336  17.280  13.997
69199W        W34360  20.210  14.491  14.888
69200W        W34361  18.086  13.349   0.377
69201W        W34362  12.768  43.322  14.738
69202W        W34363  20.033  14.269  10.762
69203W        W34364  38.045   1.384  12.826
69204W        W34365  15.786   0.563   4.278
69205W        W34366  15.503   2.326   0.957
69206W        W34367  31.623  21.228   1.331
69207W        W34368   0.686  40.441  11.102
69208W        W34369  18.514  38.772   0.651
69209W        W34370   9.308  37.480  13.446
69210W        W34371  41.430  22.317   0.798
69211W        W34372  15.075  16.812  10.542
69212W        W34373  32.740  42.403   1.396
69213W        W34374  28.521  14.561  11.407
69214W        W34375   0.241  44.443  12.493
69215W        W34376  39.445  26.058   1.887
69216W        W34377  18.456  26.023  12.489
69217W        W34378  33.429  44.227   0.349
69218W        W34379  30.860   8.960   0.237
69219W        W34380  12.603  21.342   2.352
69220W        W34381  18.798  18.095   2.530
69221W        W34382  17.532  39.227   1.955
69222W        W34383   1.422  30.432  13.394
69223W        W34384   1.487  39.851   3.709
69224W        W34385   7.430  27.887  13.066
69225W        W34386  27.666  13.950  12.650
69226W        W34387  23.999  25.593  11.579
69227W        W34388  24.026  25.982   4.139
69228W        W34389  16.504  12.682   1.287
69229W        W34390  34.162   0.196  12.525
69230W        W34391  27.295  25.969  13.106
69231W        W34392  41.471  39.940   0.897
69232W        W34393   0.917  23.073   4.499
69233W        W34394  27.438  24.730   9.521
69234W        W34395  11.905  23.906  13.133
69235W        W34396  44.886  22.562   2.907
69236W        W34397  10.220  27.058   3.559
69237W        W34398   5.312  30.976   3.765
69238W        W34399  33.655  39.836   2.345
69239W        W34400   2.777  29.138  13.053
69240W        W34401  28.401  38.930  13.892
69241W        W34402  35.060  42.859   4.953
69242W        W34403  16.970   8.852   4.595
69243W        W34404  38.292  29.957   2.267
69244W        W34405  31.438  39.117   1.886
69245W        W34406   9.786   0.777   0.697
69246W        W34407  27.634  25.317   4.075
69247W        W34408  14.613  36.413   1.047
69248W        W34409   6.918   5.341   4.202
69249W        W34410   2.956  23.545  13.490
69250W        W34411  34.757  14.184  12.118
69251W        W34412  43.481  34.703  11.656
69252W        W34413  15.364  32.135  12.152
69253W        W34414  35.438   7.375   0.465
69254W        W34415  33.137  38.034   3.640
69255W        W34416  25.736  29.959  14.822
69256W        W34417   5.500  38.800  12.481
69257W        W34418  22.770   5.473   3.594
69258W        W34419  39.702  27.693  12.955
69259W        W34420  27.013  41.853  14.998
69260W        W34421  18.118  32.974  14.887
69261W        W34422   1.459  41.707   4.246
69262W        W34423  36.322  22.188   3.819
69263W        W34424  41.518  32.244  11.615
69264W        W34425  30.509  19.753  12.605
69265W        W34426  27.338  31.056  14.708
69266W        W34427   1.773  23.210   0.683
69267W        W34428  19.578   9.609  11.446
69268W        W34429  41.885   7.284  11.643
69269W        W34430  35.419   3.564  10.957
69270W        W34431  43.939  28.727  12.895
69271W        W34432  15.224  37.393  14.457
69272W        W34433  33.567  36.047  10.270
69273W        W34434  19.535  14.645  13.407
69274W        W34435  41.992   8.877   1.407
69275W        W34436  34.541  26.318  11.922
69276W        W34437  30.118  12.900  14.305
69277W        W34438   4.750  39.888   4.732
69278W        W34439  14.288  35.430  11.123
69279W        W34440  32.420  32.140   0.651
69280W        W34441  27.690  17.335  13.389
69281W        W34442  10.409  32.467  12.648
69282W        W34443  33.490  19.264  12.996
69283W        W34444  25.813  29.406  11.564
69284W        W34445   5.749  18.045  13.376
69285W        W34446  44.565  37.566   5.176
69286W        W34447  19.191   9.003   2.307
69287W        W34448   2.863  35.834  10.669
69288W        W34449  17.630  40.537  13.742
69289W        W34450  43.880   2.600   2.326
69290W        W34451  18.332   7.660  13.572
69291W        W34452  37.639   3.759  12.286
69292W        W34453   8.486  22.482   1.223
69293W        W34454  33.421  15.086  12.765
69294W        W34455  10.362  33.102   1.877
69295W        W34456  23.989   7.224  12.613
69296W        W34457  33.193  20.033  11.096
69297W        W34458  40.903   2.176  11.979
69298W        W34459  28.074  25.425   0.283
69299W        W34460  32.912  20.260  12.503
69300W        W34461   0.504  31.108   3.706
69301W        W34462  10.485   6.423   1.011
69302W        W34463  43.524  35.057  10.367
69303W        W34464  32.827  20.985   1.777
69304W        W34465  11.165  17.266   4.011
69305W        W34466   2.964  36.050  12.324
69306W        W34467   5.429  30.985  12.638
69307W        W34468   2.266  34.679  14.998
69308W        W34469  38.607  37.398  12.929
69309W        W34470  23.450  11.177  12.856
69310W        W34471  37.672  15.647   4.251
69311W        W34472  13.594  27.598  10.769
69312W        W34473  32.721   1.921  12.613
69313W        W34474  44.093   9.377   1.759
69314W        W34475   5.918  12.580   4.168
69315W        W34476  43.649  37.928   0.795
69316W        W34477  10.087  41.371  13.567
69317W        W34478  28.742  25.664  13.314
69318W        W34479  31.139  19.192   0.709
69319W        W34480  27.616  10.568  12.849
69320W        W34481  32.911  37.749   4.425
69321W        W34482  12.205  31.193  11.652
69322W        W34483  43.754  42.816   0.708
69323W        W34484  17.753  23.737  12.545
69324W        W34485  20.127  29.034   2.712
69325W        W34486  17.476   2.414  13.621
69326W        W34487   2.450   1.286   1.800
69327W        W34488  37.333  12.445  12.663
69328W        W34489   1.416  34.929   0.730
69329W        W34490  38.308   4.668   4.135
69330W        W34491  35.566  23.320  13.965
69331W        W34492   8.492  34.853   1.682
69332W        W34493  10.815  27.826   1.513
69333W        W34494   1.888   6.384   4.153
69334W        W34495   1.522  41.072   2.918
69335W        W34496  10.417  37.301  11.589
69336W        W34497  44.469  25.497  11.132
69337W        W34498  11.875  24.152  13.617
69338W        W34499  25.968   3.278  11.644
69339W        W34500  31.548  40.306  14.813
69340W        W34501  27.015  22.480  12.978
69341W        W34502   6.822  33.836   4.488
69342W        W34503  42.714  23.870  12.506
69343W        W34504  39.995  22.061   2.674
69344W        W34505  20.245  12.854   2.640
69345W        W34506  23.080  15.211   0.554
69346W        W34507   9.261  41.966   1.811
69347W        W34508  24.114  36.795   2.496
69348W        W34509  11.126  12.142  11.648
69349W        W34510  10.493  31.294   2.417
69350W        W34511  34.903  14.833  13.380
69351W        W34512  44.146  24.950  11.187
69352W        W34513  22.450  37.607   0.348
69353W        W34514  40.650  25.012  13.045
69354W        W34515  21.315  11.725   4.717
69355W        W34516  24.692  38.480  11.890
69356W        W34517  22.303  30.131   4.460
69357W        W34518   9.482  39.340   2.859
69358W        W34519  28.504   4.709   1.716
69359W        W34520  39.795  19.741  14.271
69360W        W34521  34.915  12.210   0.242
69361W        W34522  13.418  30.460  11.422
69362W        W34523  25.720  16.036  13.935
69363W        W34524  32.960  39.103  14.860
69364W        W34525   6.229  10.744   0.312
69365W        W34526   8.096   1.584  13.896
69366W        W34527  43.668  39.585   1.865
69367W        W34528  11.744  26.637  14.492
69368W        W34529  14.894  10.298  12.194
69369W        W34530  31.326  44.141  14.557
69370W        W34531  12.795  26.427  12.341
69371W        W34532  17.896  16.369   1.935
69372W        W34533  43.333  44.775   3.276
69373W        W34534  16.840  27.713  12.902
69374W        W34535  37.125   6.729  11.985
69375W        W34536  36.782  29.665  11.554
69376W        W34537  39.943  34.886  11.426
69377W        W34538  37.361   4.269   1.690
69378W        W34539  20.345  38.865  10.345
69379W        W34540  15.883  25.065   2.422
69380W        W34541   5.169  25.875   0.301
69381W        W34542  26.734  20.838   0.856
69382W        W34543   7.212  34.653  14.906
69383W        W34544  18.205  14.118   9.881
69384W        W34545  12.983  29.841   0.394
69385W        W34546  24.184  15.884  11.117
69386W        W34547   4.067   9.566   3.675
69387W        W34548  23.504  16.927   2.901
69388W        W34549  36.557  12.102   2.670
69389W        W34550   1.521  34.235   2.823
69390W        W34551  38.844  41.310  12.142
69391W        W34552   4.645  34.448   4.187
69392W        W34553  15.538  23.746   2.350
69393W        W34554   2.137  26.097  11.535
69394W        W34555   9.356  16.060   2.356
69395W        W34556  14.076  10.290  13.496
69396W        W34557  34.024  42.410   2.609
69397W        W34558   9.379  39.799  12.087
69398W        W34559  10.841  20.081   2.673
69399W        W34560   3.745   4.766  14.068
69400W        W34561  28.486  27.324  14.462
69401W        W34562  20.502  13.727  14.306
69402W        W34563  22.208  37.396  13.002
69403W        W34564  29.761  41.135   5.421
69404W        W34565   7.268  28.644   3.556
69405W        W34566  18.493  31.294   4.343
69406W        W34567   1.664  25.149   0.728
69407W        W34568  28.690  33.123   4.397
69408W        W34569  39.510  19.318  12.539
69409W        W34570  39.380  37.448   0.296
69410W        W34571  41.732  26.121  14.791
69411W        W34572   8.033  24.608   1.792
69412W        W34573  36.954   4.947   1.341
69413W        W34574  36.242  20.025   1.480
69414W        W34575  21.787  17.440   1.973
69415W        W34576  44.012  29.942   2.756
69416W        W34577  28.202  16.190  13.400
69417W        W34578  20.334  37.976   4.173
69418W        W34579  23.783  10.705   0.118
69419W        W34580  33.982  13.084   3.635
69420W        W34581   6.993  34.874  11.182
69421W        W34582  37.838  27.081   0.707
69422W        W34583  18.270   6.863  12.030
69423W        W34584  18.644  33.618  11.276
69424W        W34585   6.706  11.573   3.280
69425W        W34586  28.243   6.789  14.964
69426W        W34587   9.221  29.517   4.973
69427W        W34588  29.934  36.368   3.266
69428W        W34589  34.095   2.190  11.323
69429W        W34590  37.974  32.029  14.923
69430W        W34591  22.626  33.472   1.978
69431W        W34592  42.861  22.083   1.213
69432W        W34593  22.259  42.437  10.805
69433W        W34594  27.659   5.047  14.753
69434W        W34595  30.199  13.609  11.664
69435W        W34596   7.349  29.832   0.584
69436W        W34597  34.651  20.241   4.846
69437W        W34598   0.984  15.137   4.341
69438W        W34599  11.873   4.740  11.602
69439W        W34600   5.073  16.030   4.920
69440W        W34601  15.366   6.219  14.895
69441W        W34602  17.197  42.320  10.530
69442W        W34603  12.808   8.659  10.700
69443W        W34604  15.177  44.752   0.500
69444W        W34605   9.296  33.836   1.671
69445W        W34606  44.268  43.509  14.873
69446W        W34607  18.144  35.592  12.116
69447W        W34608   0.093  35.832  12.636
69448W        W34609  14.201   4.964  12.611
69449W        W34610  34.117  44.535  12.016
69450W        W34611  12.569  35.100   2.320
69451W        W34612  14.749  36.481  13.034
69452W        W34613  23.404  17.152  10.511
69453W        W34614   6.667  36.344   0.747
69454W        W34615  13.765  22.017   0.688
69455W        W34616  39.890   0.527   0.189
69456W        W34617  39.926  15.893   4.368
69457W        W34618  22.485   1.502   1.726
69458W        W34619  10.797   6.287  14.614
69459W        W34620  39.949   1.869  12.171
69460W        W34621  29.916  10.403  10.097
69461W        W34622  34.644  22.772  12.182
69462W        W34623  13.791  23.162  12.945
69463W        W34624  31.679  21.274  12.532
69464W        W34625  10.327  34.071  13.458
69465W        W34626  14.318   2.410  11.880
69466W        W34627  16.950  38.272   0.208
69467W        W34628   6.355  33.993   2.341
69468W        W34629   9.820  22.101   1.895
69469W        W34630  37.430  39.017   2.256
69470W        W34631  43.444  38.541  13.548
69471W        W34632  23.569  39.360   0.155
69472W        W34633  19.081  23.285   3.304
69473W        W34634   6.514  42.582   4.487
69474W        W34635   3.005  11.650   4.039
69475W        W34636  14.722   6.451  10.578
69476W        W34637  42.300  12.813   0.014
69477W        W34638  40.331  19.642  13.147
69478W        W34639  17.174   9.239  10.733
69479W        W34640  14.108  43.037  12.998
69480W        W34641  27.885  25.551  11.536
69481W        W34642   4.837   6.626  10.445
69482W        W34643   8.483  18.492   1.812
69483W        W34644  13.522  17.700   1.393
69484W        W34645  11.081  24.954  13.419
69485W        W34646  21.227   6.346   3.216
69486W        W34647   2.265  17.837   2.214
69487W        W34648  24.260  34.160   4.116
69488W        W34649  33.439  31.593   4.864
69489W        W34650  25.206   8.805  13.601
69490W        W34651   0.964   3.170   0.566
69491W        W34652  39.542  20.212  14.938
69492W        W34653  21.454  39.852   2.728
69493W        W34654  34.002   4.165   4.578
69494W        W34655  27.141  37.299   4.888
69495W        W34656  26.399   7.202   4.204
69496W        W34657  37.293  11.738   0.050
69497W        W34658  41.548   0.315   2.373
69498W        W34659   2.895  36.559   4.612
69499W        W34660   0.291  31.894   2.344
69500W        W34661  38.880  20.735   3.125
69501W        W34662  25.622  12.167   1.942
69502W        W34663  30.067  39.858  12.878
69503W        W34664  31.792   2.705  13.129
69504W        W34665  17.786  20.494  13.542
69505W        W34666  36.006   8.038   3.674
69506W        W34667   5.747   0.884  12.088
69507W        W34668  43.258   9.353  11.598
69508W        W34669  34.621  36.295   0.348
69509W        W34670  25.160  20.720  13.445
69510W        W34671  28.199  29.156   5.037
69511W        W34672  15.047  14.609  11.612
69512W        W34673  39.325  10.063  14.380
69513W        W34674  33.082  21.152   3.064
69514W        W34675  36.133  27.762   0.469
69515W        W34676   5.673  16.269   0.579
69516W        W34677   1.533  33.522   1.857
69517W        W34678  20.706  29.135   0.585
69518W        W34679  32.087   6.658  13.511
69519W        W34680  37.934  27.683  11.582
69520W        W34681   9.344  44.147   0.049
69521W        W34682  44.822  26.796  11.166
69522W        W34683  24.651  43.284  14.531
69523W        W34684   0.224   0.439  12.499
69524W        W34685  13.067  36.300  11.553
69525W        W34686  33.889  31.509   4.420
69526W        W34687  42.383   6.223  12.559
69527W        W34688  40.733  27.459  14.543
69528W        W34689  13.269   3.266   0.484
69529W        W34690  26.028   7.402  13.474
69530W        W34691  26.243   5.663   2.298
69531W        W34692  13.196  42.102  14.715
69532W        W34693  23.373  13.236  12.684
69533W        W34694  23.176  32.610  14.930
69534W        W34695  39.879  20.796  12.509
69535W        W34696  13.767  19.494  12.067
69536W        W34697  33.770  20.694  14.329
69537W        W34698  44.748  26.300   0.217
69538W        W34699  41.764   4.815   4.597
69539W        W34700  33.924  26.422   4.664
69540W        W34701   9.691  29.320   1.279
69541W        W34702  23.483  26.636  13.857
69542W        W34703  36.533  12.723  10.730
69543W        W34704  24.150  23.598   2.662
69544W        W34705  36.889  21.510   1.431
69545W        W34706  39.363  19.839  11.186
69546W        W34707   6.835  20.296   1.459
69547W        W34708   4.426  11.142   0.569
69548W        W34709  10.909  21.728  12.902
69549W        W34710  41.070  26.552  14.325
69550W        W34711  42.322  27.621   3.652
69551W        W34712  36.614  20.215   3.340
69552W        W34713  13.249  39.963   4.534
69553W        W34714  19.554  32.427   4.096
69554W        W34715   7.886   2.416  14.522
69555W        W34716  39.528  35.097  11.656
69556W        W34717  25.749  28.440  11.564
69557W        W34718  31.947  29.718   3.214
69558W        W34719  13.924   2.351  11.229
69559W        W34720  16.795  24.518  14.552
69560W        W34721  42.782  25.110   2.865
69561W        W34722  14.132  34.415   1.873
69562W        W34723  17.969  10.272  10.309
69563W        W34724  30.400  26.106  11.522
69564W        W34725  43.959  20.796  11.938
69565W        W34726  10.307  30.044   3.370
69566W        W34727  29.776   6.367  11.197
69567W        W34728  17.849  39.478   2.835
69568W        W34729   7.867  13.868   1.746
69569W        W34730  29.662  42.416   0.370
69570W        W34731   2.735  34.894   3.048
69571W        W34732   6.983  19.552  10.950
69572W        W34733  34.077   8.456  11.913
69573W        W34734   2.761  11.922   0.437
69574W        W34735  41.301  41.081  14.849
69575W        W34736  16.595  30.408   1.996
69576W        W34737   4.860  18.825   0.996
69577W        W34738  19.516  40.405   3.559
69578W        W34739  15.403  21.692   1.490
69579W        W34740  26.136  18.830   4.910
69580W        W34741  12.150  35.414   4.832
69581W        W34742  29.416   4.115   3.549
69582W        W34743  19.053  44.733   1.729
69583W        W34744  19.285  15.741  14.972
69584W        W34745  29.114  28.372   1.331
69585W        W34746  19.033   1.315   0.493
69586W        W34747  33.011   4.398   3.854
69587W        W34748  16.129  39.564  14.932
69588W        W34749  21.076   8.978   3.909
69589W        W34750  19.062  36.353  12.981
69590W        W34751   2.314  14.869  14.923
69591W        W34752  39.158  26.054  11.554
69592W        W34753  44.251  24.001  13.363
69593W        W34754  23.011  13.633  13.001
69594W        W34755  43.608  20.460  11.150
69595W        W34756   9.639  15.187   1.345
69596W        W34757  26.619  31.862   0.464
69597W        W34758  37.996   4.352   4.649
69598W        W34759  16.404  26.385   0.332
69599W        W34760  44.334   6.938   2.729
69600W        W34761  41.339  36.527   3.420
69601W        W34762  20.214  41.285  13.486
69602W        W34763  14.681  35.459  10.777
69603W        W34764  44.381   6.962   3.637
69604W        W34765  38.734  35.876  12.966
69605W        W34766  23.135  32.782  12.494
69606W        W34767   3.801   7.874   4.629
69607W        W34768   0.385   9.827  13.798
69608W        W34769   8.413  22.227  12.806
69609W        W34770  41.717  39.301  14.595
69610W        W34771  30.344  13.123  14.784
69611W        W34772   4.279   4.039   0.631
69612W        W34773  44.946  40.645  11.526
69613W        W34774  28.436  20.012   4.833
69614W        W34775  29.538  28.672   1.440
69615W        W34776   7.966  15.352   3.293
69616W        W34777  15.355  31.475  14.858
69617W        W34778  31.970  22.287   4.363
69618W        W34779  12.759  24.092  13.942
69619W        W34780  24.024  30.153   2.104
69620W        W34781  38.489  28.112   4.850
69621W        W34782  13.559  30.426  12.873
69622W        W34783  29.475  25.756   2.331
69623W        W34784  21.652   9.380   3.359
69624W        W34785  27.128  44.417   2.423
69625W        W34786  35.677  41.010   0.717
69626W        W34787  28.543  29.074   3.624
69627W        W34788  13.173   0.377  14.753
69628W        W34789  15.667  29.163  13.052
69629W        W34790   4.990  14.633   1.046
69630W        W34791   8.813   1.076   2.736
69631W        W34792  22.202  28.446   1.284
69632W        W34793  35.801  25.053   4.869
69633W        W34794  27.496  27.214   3.217
69634W        W34795  27.168   4.412  12.886
69635W        W34796  28.167   1.789  14.775
69636W        W34797  31.081  41.812  11.676
69637W        W34798   1.114   4.861  10.742
69638W        W34799  15.765  35.075  12.919
69639W        W34800  26.074  32.970  11.123
69640W        W34801  38.384  25.571   4.220
69641W        W34802   2.766  10.747   1.161
69642W        W34803   1.137   4.275   3.082
69643W        W34804   1.129  29.521   3.167
69644W        W34805   7.768  13.841   3.171
69645W        W34806  37.406  10.278  14.706
69646W        W34807  22.880  43.365   0.825
69647W        W34808  10.578  24.448   3.716
69648W        W34809   1.505   5.254  11.541
69649W        W34810  33.439   5.914   4.244
69650W        W34811  21.063  40.409  11.507
69651W        W34812  30.617   4.332  10.728
69652W        W34813  37.565  32.145   2.141
69653W        W34814  32.134  13.766  13.972
69654W        W34815  10.428   8.657  10.798
69655W        W34816  13.361  11.232  11.178
69656W        W34817  23.254  20.770   1.237
69657W        W34818  16.652  44.908   1.220
69658W        W34819  28.479  28.555  13.476
69659W        W34820  28.441   6.384   1.051
69660W        W34821   4.920  30.051   2.297
69661W        W34822  33.934  39.901  11.137
69662W        W34823  37.451  40.467   2.905
69663W        W34824  13.403   6.052   0.816
69664W        W34825  39.010  27.072   2.404
69665W        W34826  40.232   8.416   3.417
69666W        W34827  37.596  33.091   2.904
69667W        W34828   3.810  42.072  14.619
69668W        W34829  36.997   6.244  13.334
69669W        W34830  24.035   0.749  14.853
69670W        W34831  20.341  30.119   2.310
69671W        W34832  19.044   0.725  10.680
69672W        W34833  38.169  21.446   1.780
69673W        W34834  26.493   4.580   0.592
69674W        W34835  28.424  15.678  11.571
69675W        W34836   7.043  23.235   3.679
69676W        W34837   3.717  42.406  13.097
69677W        W34838   3.178  39.298  14.999
69678W        W34839  23.588  40.549   3.081
69679W        W34840   6.739  32.898   0.950
69680W        W34841  35.798   8.953   2.463
69681W        W34842  30.620  16.328  11.145
69682W        W34843  40.836  14.599   4.618
69683W        W34844  38.764  30.596   2.033
69684W        W34845  28.451  19.578  13.607
69685W        W34846  30.288   4.835  11.558
69686W        W34847  33.212  34.630   0.286
69687W        W34848  19.286   4.463  14.972
69688W        W34849   6.883  11.935  13.360
69689W        W34850  19.490  18.532  12.924
69690W        W34851  42.369  34.682   2.609
69691W        W34852  29.948  35.934  12.880
69692W        W34853  35.091   2.881  10.890
69693W        W34854  16.080  23.929   4.685
69694W        W34855  20.343  24.379  14.241
69695W        W34856  35.806  42.130  14.413
69696W        W34857  40.493  16.528   4.376
69697W        W34858  15.050   7.899  11.537
69698W        W34859  32.536  22.549  14.621
69699W        W34860  42.323  20.693   1.983
69700W        W34861  44.906  30.595  12.908
69701W        W34862  35.835  11.644  14.993
69702W        W34863  38.644  32.130   0.336
69703W        W34864   5.259   7.811  12.565
69704W        W34865  34.843   3.006   3.570
69705W        W34866  30.546  34.472   1.227
69706W        W34867  14.186  18.665  14.399
69707W        W34868   5.707   4.242   4.800
69708W        W34869  42.009  27.757   5.099
69709W        W34870  24.626   9.861   2.461
69710W        W34871  28.077  16.677   2.693
69711W        W34872  15.850  29.371  12.180
69712W        W34873  36.865  18.997   4.461
69713W        W34874   4.156   1.476   3.299
69714W        W34875  16.560   0.562   3.053
69715W        W34876  26.578  16.784   0.796
69716W        W34877   8.842  43.710  13.218
69717W        W34878  23.776   1.300   1.334
69718W        W34879   5.461  22.187   4.232
69719W        W34880  34.151  32.018  12.816
69720W        W34881  43.061  12.440   2.803
69721W        W34882  23.273   4.187  13.304
69722W        W34883  25.579   7.179   0.856
69723W        W34884   3.602  11.307  10.644
69724W        W34885  10.801  38.341  12.100
69725W        W34886  10.621  30.290   2.595
69726W        W34887  30.206  41.575   1.503
69727W        W34888  16.856   7.948   2.196
69728W        W34889   3.797   1.112   3.255
69729W        W34890   4.644  14.051   4.535
69730W        W34891  37.915   1.330   0.721
69731W        W34892   0.381  35.970  14.876
69732W        W34893  22.542  16.046   0.955
69733W        W34894  35.118  29.104   4.161
69734W        W34895   5.244  40.847   4.629
69735W        W34896   9.363  17.792   0.379
69736W        W34897  11.052  15.694   1.659
69737W        W34898   1.247  26.961   2.670
69738W        W34899  15.363  27.435  11.355
69739W        W34900  30.027  32.864  10.925
69740W        W34901  22.181  40.916   1.892
69741W        W34902  15.141  10.410  10.416
69742W        W34903  16.844  30.410  12.590
69743W        W34904  32.524  36.994  11.485
69744W        W34905  14.497  30.375   3.677
69745W        W34906  11.149  39.962   1.278
69746W        W34907  14.594  24.425   3.195
69747W        W34908  24.400   3.903  13.818
69748W        W34909  42.012   7.435  12.128
69749W        W34910  35.458   3.962  11.307
69750W        W34911  17.292   6.387   4.701
69751W        W34912  12.902  27.897  12.529
69752W        W34913   0.910  17.655   0.407
69753W        W34914  25.172  15.850   3.662
69754W        W34915  11.735   6.789   4.510
69755W        W34916  16.616  21.089   1.822
69756W        W34917  38.513  19.474  13.849
69757W        W34918  40.658  14.441  14.140
69758W        W34919  44.070  40.786  13.694
69759W        W34920  40.293  36.991   2.831
69760W        W34921   0.200  16.861  13.084
69761W        W34922  41.836   1.939   0.898
69762W        W34923  43.352   7.409  12.022
69763W        W34924   9.492  38.056   2.274
69764W        W34925  13.854   7.972  13.886
69765W        W34926  34.951  12.005  12.310
69766W        W34927   4.824   5.876  12.501
69767W        W34928  16.664  16.124   0.769
69768W        W34929  23.936  28.780  13.196
69769W        W34930  18.686  27.661  13.835
69770W        W34931  20.042   1.130   3.631
69771W        W34932  18.282  29.708   3.681
69772W        W34933  25.080  28.453  11.084
69773W        W34934  35.107  36.503   0.180
69774W        W34935   9.646  23.656  13.956
69775W        W34936  13.775   6.105  10.642
69776W        W34937  24.404  14.281  12.491
69777W        W34938  11.745   1.816   1.919
69778W        W34939   4.457  12.238  12.029
69779W        W34940   9.176  34.476  14.511
69780W        W34941  29.726  35.872  13.884
69781W        W34942   8.718   7.838   2.772
69782W        W34943   0.905  39.575  12.695
69783W        W34944  10.278  10.112  12.437
69784W        W34945   2.221  33.373  13.408
69785W        W34946   2.670   3.171  13.107
69786W        W34947   9.248   2.251  12.658
69787W        W34948  33.346  17.292   4.739
69788W        W34949  31.060  11.179  14.280
69789W        W34950  19.189  42.006  12.985
69790W        W34951  31.433  28.625  14.748
69791W        W34952   9.437  40.542  14.271
69792W        W34953  15.285  15.080   3.860
69793W        W34954  17.118  26.440  13.978
69794W        W34955  32.804  15.184   0.942
69795W        W34956  30.367   4.404   3.648
69796W        W34957  13.387  39.527  11.656
69797W        W34958  18.900  21.822   9.562
69798W        W34959   5.222  20.284   0.066
69799W        W34960  26.522  27.023  12.876
69800W        W34961  25.212  16.763  11.059
69801W        W34962  27.869  41.496   4.103
69802W        W34963  30.423   5.484   3.598
69803W        W34964  34.319  40.419  13.375
69804W        W34965  15.312  33.247  14.819
69805W        W34966  30.192  44.477   3.517
69806W        W34967   4.127  17.750   4.267
69807W        W34968  13.399  44.353  13.334
69808W        W34969   9.885   0.352   3.628
69809W        W34970   4.263  23.100  10.294
69810W        W34971  16.061  44.308  10.263
69811W        W34972  30.115  25.470   0.150
69812W        W34973   9.142  37.187   2.346
69813W        W34974  22.658  33.333  11.182
69814W        W34975  15.399   1.798   0.987
69815W        W34976  18.944  18.628   0.843
69816W        W34977   1.386  20.015  14.499
69817W        W34978   4.583  23.687  11.235
69818W        W34979   0.549   4.347  14.943
69819W        W34980  36.451  12.610   0.237
69820W        W34981  16.717  11.339   0.099
69821W        W34982  13.432  31.931  12.513
69822W        W34983  14.905   0.640   5.100
69823W        W34984  37.438  21.209  12.637
69824W        W34985  43.850  28.516  13.575
69825W        W34986  20.976   2.066   4.409
69826W        W34987  28.341   4.213   0.342
69827W        W34988   4.919  16.800  14.956
69828W        W34989  14.420   5.316   2.813
69829W        W34990  33.293  35.417   4.344
69830W        W34991  17.751  13.592   4.212
69831W        W34992  43.993   4.803   3.020
69832W        W34993   9.124   5.690   0.322
69833W        W34994  40.483  27.412   4.081
69834W        W34995  28.631  27.718  11.543
69835W        W34996  18.398   0.627  12.429
69836W        W34997  28.011  44.507  11.758
69837W        W34998  29.403  31.010  14.922
69838W        W34999  24.609  40.884  12.356
69839W        W35000  33.692  20.691  13.130
69840W        W35001  13.422  30.171  13.797
69841W        W35002   4.728  12.148   2.341
69842W        W35003  31.035   3.707  13.479
69843W        W35004  29.481   3.920   2.925
69844W        W35005  23.778  34.018  13.331
69845W        W35006  27.777  31.627  11.587
69846W        W35007  27.380   4.246  14.074
69847W        W35008  28.871  39.578   5.419
69848W        W35009  33.856  26.580  11.512
69849W        W35010   8.045  40.498  13.503
69850W        W35011  24.104   8.810   1.004
69851W        W35012  21.442   2.747   1.725
69852W        W35013  39.585  34.032   1.740
69853W        W35014  27.660  15.811   0.992
69854W        W35015  26.480  12.224  11.382
69855W        W35016  33.603  19.054   4.109
69856W        W35017  10.420  33.004   3.185
69857W        W35018  42.347  35.543  14.347
69858W        W35019  22.282  26.245  11.587
69859W        W35020  24.962  33.343  11.047
69860W        W35021   4.613  39.105  10.453
69861W        W35022   9.883  18.453  13.942
69862W        W35023  17.688  20.387   0.739
69863W        W35024   6.213  25.059  14.280
69864W        W35025  44.573  17.758   0.719
69865W        W35026  25.512   2.796  13.328
69866W        W35027  39.999  28.692   3.853
69867W        W35028  12.231  28.175  13.298
69868W        W35029  40.842  17.819  14.933
69869W        W35030  42.106  16.654  14.501
69870W        W35031  32.996   0.906  14.329
69871W        W35032  18.656  33.329  13.544
69872W        W35033  32.006  23.047   2.908
69873W        W35034   2.447   0.760   1.810
69874W        W35035  16.903  23.240   2.162
69875W        W35036  19.567  15.280  14.837
69876W        W35037  37.078  24.238   0.376
69877W        W35038  35.085   6.200  14.058
69878W        W35039  20.415   5.656   0.841
69879W        W35040   6.693  14.090  14.524
69880W        W35041  25.975  42.422  14.475
69881W        W35042  13.619  35.606   4.234
69882W        W35043  11.597  12.372   2.402
69883W        W35044  23.249  10.655   2.293
69884W        W35045  40.266   2.760   2.416
69885W        W35046   9.962   0.282   0.747
69886W        W35047  17.721  40.526  11.517
69887W        W35048  37.615  31.524  13.356
69888W        W35049  41.394  19.934  14.339
69889W        W35050  44.302  35.145  13.355
69890W        W35051  27.491  24.066  10.619
69891W        W35052  40.050  38.476  12.565
69892W        W35053  30.492   3.466  11.624
69893W        W35054  30.685  24.797   5.756
69894W        W35055  37.286  39.533  14.833
69895W        W35056  12.126  22.637   1.951
69896W        W35057  36.484  11.067   1.625
69897W        W35058  14.876  13.238   0.617
69898W        W35059   4.388  13.822  12.055
69899W        W35060  33.610  40.886   0.701
69900W        W35061  37.038  24.429   2.849
69901W        W35062  12.642   1.815   1.378
69902W        W35063  35.483   3.892  13.288
69903W        W35064  26.576   2.295   2.247
69904W        W35065  38.947  25.053  11.592
69905W        W35066  41.434  26.150   0.407
69906W        W35067  20.875  43.579   0.682
69907W        W35068  23.277  28.284  10.743
69908W        W35069   2.942  38.147  10.261
69909W        W35070   3.949  30.975  13.972
69910W        W35071  27.190  27.607  14.806
69911W        W35072  32.536   4.230   3.181
69912W        W35073  37.110  29.064  14.193
69913W        W35074   2.263  18.792   0.735
69914W        W35075  39.398  39.439   3.293
69915W        W35076   5.216   9.246  12.759
69916W        W35077   4.858  37.508  13.632
69917W        W35078  20.076   1.359   2.967
69918W        W35079  25.594  15.245  14.508
69919W        W35080   3.984   9.905  11.157
69920W        W35081  12.184  39.891   0.411
69921W        W35082  22.077  13.177   3.682
69922W        W35083  16.578   0.936   1.311
69923W        W35084   8.209   2.116   4.090
69924W        W35085  38.534  34.812   3.601
69925W        W35086  33.538  36.595   3.394
69926W        W35087  39.932  13.277   4.508
69927W        W35088  18.776  37.490   5.095
69928W        W35089  17.111  12.468  14.494
69929W        W35090   8.287   4.643   1.228
69930W        W35091   3.689  30.447  10.778
69931W        W35092  26.933  42.356   1.621
69932W        W35093  40.970  26.481   1.989
69933W        W35094  21.133  10.231  14.093
69934W        W35095   3.830  39.090   2.258
69935W        W35096  32.000  40.583   4.129
69936W        W35097  14.281  15.122   2.432
69937W        W35098   8.670  25.385  13.938
69938W        W35099  30.891  23.778   0.825
69939W        W35100  40.880  18.737  10.997
69940W        W35101  38.123   7.255   4.255
69941W        W35102  15.065  10.154   1.260
69942W        W35103  41.979  26.492  14.409
69943W        W35104  32.393  30.358   2.958
69944W        W35105  34.462  41.691   2.062
69945W        W35106  31.248   8.770   3.720
69946W        W35107   8.715   0.408  11.700
69947W        W35108  17.277  44.522   4.980
69948W        W35109   0.982  14.207   4.579
69949W        W35110  22.820   5.711   0.808
69950W        W35111   3.880   2.785  13.383
69951W        W35112  23.545  39.013   1.462
69952W        W35113  38.414   7.243  13.056
69953W        W35114  10.558  39.796  13.293
69954W        W35115  17.732  29.179  11.493
69955W        W35116   2.139  41.242  11.085
69956W        W35117  23.476  39.248  13.058
69957W        W35118  34.616   5.853   0.744
69958W        W35119  44.698  11.297  14.489
69959W        W35120   3.940  11.641  14.071
69960W        W35121  21.319  11.213  12.052
69961W        W35122   4.867  26.994   1.941
69962W        W35123  42.464  22.190  11.514
69963W        W35124  23.091  36.764   4.682
69964W        W35125  23.903  44.544   0.878
69965W        W35126  39.651  15.612  12.856
69966W        W35127  15.149   4.062  12.503
69967W        W35128  20.334  14.828   2.672
69968W        W35129  33.621  19.577  10.763
69969W        W35130  22.642  17.334  13.946
69970W        W35131  15.240  23.646  11.819
69971W        W35132  28.601   5.485   3.146
69972W        W35133  18.037   6.195   3.257
69973W        W35134  10.100   9.222  14.084
69974W        W35135  44.222   3.522   3.354
69975W        W35136  16.212  32.577   3.420
69976W        W35137  42.348  32.390   3.762
69977W        W35138  19.029  40.649  14.221
69978W        W35139  18.177   4.919   4.567
69979W        W35140   6.141  21.526   0.310
69980W        W35141   5.844  39.610  12.605
69981W        W35142  11.202  23.454  13.347
69982W        W35143   2.312  37.610   3.779
69983W        W35144  34.797  10.339   1.230
69984W        W35145  36.616  43.293  13.448
69985W        W35146  24.520   2.375   1.802
69986W        W35147   2.846  10.718  11.985
69987W        W35148  38.192   0.877  11.574
69988W        W35149  22.711  31.494   0.292
69989W        W35150  36.488  32.210   4.225
69990W        W35151   6.701  44.787   1.862
69991W        W35152  11.934   9.293  13.104
69992W        W35153   1.503  29.554   4.762
69993W        W35154  11.126  18.346  12.413
69994W        W35155  40.068   0.659   1.437
69995W        W35156  38.365   3.322  11.197
69996W        W35157   4.160   4.762  10.634
69997W        W35158  35.324   3.736  12.236
69998W        W35159  22.641  24.003   0.831
69999W        W35160   5.906  24.604  13.959
70000W        W35161  26.405  25.261  11.832
70001W        W35162  29.263  39.820   3.162
70002W        W35163  41.879   1.947  14.153
70003W        W35164  16.494   3.345   3.193
70004W        W35165  17.075  22.254  14.484
70005W        W35166   3.368  44.254   3.280
70006W        W35167  34.835  14.094   2.449
70007W        W35168  36.646  26.102   0.224
70008W        W35169  38.789  14.754  12.900
70009W        W35170   9.557  37.084   1.431
70010W        W35171   0.052   7.726  14.343
70011W        W35172  11.206   9.339   1.922
70012W        W35173  18.683  34.803   0.399
70013W        W35174  22.282  39.010  13.496
70014W        W35175   0.864  41.453   2.291
70015W        W35176  21.067  13.212  11.237
70016W        W35177  27.354  34.293   4.597
70017W        W35178  44.653  16.182  11.580
70018W        W35179  41.801  37.818   4.946
70019W        W35180  22.488  39.161  13.948
70020W        W35181  40.940  33.711   0.512
70021W        W35182  36.317  25.134  10.953
70022W        W35183   5.800  20.911   1.770
70023W        W35184  23.461  38.723  13.211
70024W        W35185  42.685  40.449   4.970
70025W        W35186  26.172  36.330   3.726
70026W        W35187  14.234  37.947   3.394
70027W        W35188   8.098  29.147  14.710
70028W        W35189  13.128  41.636   2.242
70029W        W35190  40.738  37.000   1.287
70030W        W35191   0.811  16.566  14.994
70031W        W35192  43.996   9.880   4.620
70032W        W35193  31.338  42.372  14.637
70033W        W35194  41.879   6.822   2.165
70034W        W35195  11.726  18.541  10.336
70035W        W35196  18.171  40.053  14.219
70036W        W35197  34.824  28.038  12.039
70037W        W35198  35.579  24.620   1.220
70038W        W35199  42.460   7.738  11.167
70039W        W35200  32.112   6.397   2.295
70040W        W35201  12.747   5.255  10.968
70041W        W35202  32.930  40.962   3.878
70042W        W35203   4.847  31.001   9.910
70043W        W35204  26.223  34.113  11.520
70044W        W35205  25.228  40.275  11.818
70045W        W35206  29.492   9.603  11.495
70046W        W35207  17.548  10.236  10.605
70047W        W35208  28.152  18.530  11.171
70048W        W35209  15.810  20.279  10.179
70049W        W35210  14.230  13.663   4.220
70050W        W35211  31.085  24.762  12.576
70051W        W35212  44.059   0.278  14.467
70052W        W35213  29.146  22.010  14.987
70053W        W35214  14.019  36.957   0.794
70054W        W35215  30.925  22.826   2.095
70055W        W35216  17.085   0.426   4.331
70056W        W35217   1.840  12.672   0.936
70057W        W35218  36.026  43.445   1.267
70058W        W35219   0.337  34.365  10.697
70059W        W35220   4.755   4.854   4.685
70060W        W35221  44.392   6.664   4.089
70061W        W35222   0.096  26.175  11.856
70062W        W35223   9.300  13.744  11.628
70063W        W35224   5.390   8.060   4.558
70064W        W35225  21.076   6.625   3.650
70065W        W35226  20.219  14.108   1.818
70066W        W35227  23.678  15.402  14.303
70067W        W35228   5.892  24.917   4.294
70068W        W35229  19.784  20.418   3.120
70069W        W35230   1.487  16.784   1.164
70070W        W35231  15.935   4.372  12.794
70071W        W35232   9.204  23.073  13.431
70072W        W35233  34.063  13.731  11.993
70073W        W35234  34.152  14.319  14.340
70074W        W35235  43.875   6.775   2.864
70075W        W35236  14.202  16.967  12.590
70076W        W35237  23.127  11.427  11.093
70077W        W35238  17.433  31.787  14.362
70078W        W35239  16.531  14.035   0.878
70079W        W35240  15.092   6.899  12.455
70080W        W35241  22.976   1.432  12.050
70081W        W35242  14.182   2.445  14.254
70082W        W35243  30.453  30.660   0.325
70083W        W35244  44.294  35.610  14.492
70084W        W35245  10.166  26.182   3.627
70085W        W35246   6.793  44.341   1.622
70086W        W35247  28.741  30.166  12.891
70087W        W35248   5.767   2.595  13.915
70088W        W35249  10.677   2.949   1.515
70089W        W35250   5.259   8.362  14.824
70090W        W35251  38.445  37.555   3.627
70091W        W35252  10.404  38.548  11.842
70092W        W35253  11.323   5.621  13.663
70093W        W35254   4.813  34.332   2.024
70094W        W35255   1.038  38.869   3.734
70095W        W35256  11.805   3.641  12.435
70096W        W35257  29.041  26.743  14.744
70097W        W35258  20.796  13.976   3.853
70098W        W35259  14.993   0.895   3.840
70099W        W35260  28.377   7.147  12.915
70100W        W35261  23.089  21.521   0.095
70101W        W35262  21.223  30.681  13.565
70102W        W35263  39.083  26.425  11.143
70103W        W35264  28.837  43.045  13.898
70104W        W35265  43.936  40.164   4.766
70105W        W35266  29.596  29.452  14.506
70106W        W35267  19.728  17.639   4.142
70107W        W35268  34.509  15.602  13.999
70108W        W35269  12.469  19.789  11.080
70109W        W35270  43.452   7.752  13.342
70110W        W35271  29.641   8.628   1.326
70111W        W35272   2.389  29.472  14.062
70112W        W35273  38.361  23.679   2.090
70113W        W35274  16.994   0.839   1.000
70114W        W35275  29.613   5.643  11.928
70115W        W35276  12.360  26.967   4.090
70116W        W35277  10.601  26.990   0.066
70117W        W35278   6.012   3.215  10.662
70118W        W35279  14.415  17.763   1.923
70119W        W35280  12.064   5.569  14.946
70120W        W35281  18.834  43.461   1.745
70121W        W35282  36.358  18.606  12.878
70122W        W35283  37.263  29.598  12.330
70123W        W35284  42.369  27.977   4.175
70124W        W35285   6.785  28.195   4.169
70125W        W35286  15.074  26.139  12.386
70126W        W35287  30.612  32.824   1.039
70127W        W35288   7.454   0.051  12.410
70128W        W35289  44.376  10.740  12.159
70129W        W35290  34.053  20.158   0.140
70130W        W35291  35.376   2.895   0.938
70131W        W35292  39.026  33.578  14.482
70132W        W35293   5.305   2.888  11.579
70133W        W35294  43.656   4.706   2.644
70134W        W35295  14.542  23.204   0.507
70135W        W35296   5.882  28.486  10.593
70136W        W35297   1.418  13.623  11.672
70137W        W35298   3.469  33.082  11.202
70138W        W35299  10.208  44.852   4.483
70139W        W35300  21.101  36.542   3.286
70140W        W35301  20.572  39.645  10.132
70141W        W35302  15.117  15.110   2.300
70142W        W35303   0.798   8.534  10.297
70143W        W35304  25.406  10.124  10.820
70144W        W35305  41.485   1.982  11.901
70145W        W35306  11.387  15.396   2.842
70146W        W35307   6.982  24.520   0.025
70147W        W35308  35.499  38.963   2.411
70148W        W35309   3.369  17.711  10.473
70149W        W35310  33.829  38.785  12.209
70150W        W35311  16.470  11.696  14.752
70151W        W35312   0.889  41.378   0.335
70152W        W35313  24.449  23.736   4.023
70153W        W35314  14.600  38.403   0.482
70154W        W35315  44.445  31.936  13.020
70155W        W35316   6.107  11.112   0.678
70156W        W35317  16.793   0.529  12.979
70157W        W35318  10.269   5.839  13.585
70158W        W35319  26.984  20.005   0.664
70159W        W35320  26.694  15.538   4.596
70160W        W35321  39.779   3.849   1.762
70161W        W35322  19.164  20.386  11.125
70162W        W35323  25.045  11.710  12.692
70163W        W35324  28.092  23.422   2.351
70164W        W35325   8.334  19.833  14.112
70165W        W35326  31.436  10.203   0.734
70166W        W35327  25.191   2.659   2.797
70167W        W35328  16.639  43.997  14.729
70168W        W35329  14.622  25.722   1.228
70169W        W35330   5.951   1.034   0.909
70170W        W35331  14.651  39.515   4.315
70171W        W35332  19.166  31.043   0.380
70172W        W35333  17.550  37.382  12.934
70173W        W35334   3.133  38.673   3.385
70174W        W35335  21.696  22.514   2.214
70175W        W35336  32.159   2.301   1.792
70176W        W35337  25.768  17.482  14.766
70177W        W35338  34.733  41.956   4.455
70178W        W35339  21.472  33.448   1.448
70179W        W35340   9.728  21.562   1.745
70180W        W35341  10.196   4.285  11.879
70181W        W35342  33.661  22.212   3.875
70182W        W35343  23.149   3.645  10.660
70183W        W35344  20.127  20.318  14.393
70184W        W35345   3.463  27.683   4.521
70185W        W35346  29.668  17.502   1.676
70186W        W35347  40.150  31.951  13.927
70187W        W35348  16.390  29.037  12.430
70188W        W35349  39.241  30.855   1.963
70189W        W35350  14.650   9.312  12.466
70190W        W35351  42.773   7.684   1.886
70191W        W35352  32.130  18.239   0.777
70192W        W35353  42.282  27.757   1.823
70193W        W35354  44.994   6.130  10.984
70194W        W35355  23.357  13.743  11.599
70195W        W35356  33.001  32.021  10.603
70196W        W35357   0.277  19.173   0.967
70197W        W35358   2.270  36.963  10.965
70198W        W35359   9.829   1.759   3.207
70199W        W35360  27.413   2.705  11.209
70200W        W35361  34.460   8.214  10.685
70201W        W35362   4.259  29.919   1.202
70202W        W35363   5.901  30.410  14.887
70203W        W35364  25.429  19.621   1.241
70204W        W35365  11.630  38.049   0.493
70205W        W35366  31.309  32.385  12.131
70206W        W35367  41.606  34.652  12.657
70207W        W35368  25.620   2.507   1.219
70208W        W35369  21.634   8.357  11.896
70209W        W35370  41.928   2.045   1.823
70210W        W35371   6.353  14.091  11.104
70211W        W35372  12.690  14.417  13.498
70212W        W35373  32.033  35.491   1.139
70213W        W35374  38.010   8.616   2.296
70214W        W35375  16.635  37.401  13.267
70215W        W35376  30.409   3.570   2.641
70216W        W35377  11.791  18.053   3.407
70217W        W35378  37.454  26.517   3.373
70218W        W35379  12.596  23.680  12.561
70219W        W35380  37.909  18.112  13.464
70220W        W35381   2.779  39.947   1.842
70221W        W35382   3.145   2.388   4.083
70222W        W35383  28.957  43.483  14.858
70223W        W35384  41.749  42.596   5.030
70224W        W35385  37.562   8.369   0.136
70225W        W35386  37.660  40.723  11.670
70226W        W35387   6.830  25.608  11.821
70227W        W35388  12.387   3.801   4.062
70228W        W35389  22.973  19.204  12.503
70229W        W35390   2.360  15.894  11.182
70230W        W35391   5.230  14.697  12.060
70231W        W35392   0.186  29.932  11.577
70232W        W35393   6.448  26.615  12.603
70233W        W35394  34.055  12.995   2.278
70234W        W35395  36.044   6.634   0.615
70235W        W35396  21.000  10.788  11.504
70236W        W35397  16.583   8.923   0.765
70237W        W35398  31.125  29.560   4.580
70238W        W35399  35.210  34.400  10.744
70239W        W35400  21.124  26.025   0.122
70240W        W35401  39.232  15.840   3.645
70241W        W35402   3.371  34.446  10.701
70242W        W35403   4.822  13.554  11.994
70243W        W35404  36.014  27.081  10.805
70244W        W35405  31.541  17.728   3.622
70245W        W35406  39.375  14.723  13.959
70246W        W35407  14.258   8.184  10.392
70247W        W35408  10.317  22.208  13.766
70248W        W35409   4.240  14.828  12.023
70249W        W35410   0.765  13.295   3.005
70250W        W35411   8.841  22.573   0.829
70251W        W35412  11.763  38.196   2.947
70252W        W35413  23.698  26.932  14.270
70253W        W35414  10.801   7.204  10.541
70254W        W35415   6.330  31.621   3.961
70255W        W35416  38.383  20.148  14.110
70256W        W35417  38.329   7.746   1.726
70257W        W35418  39.376   8.402  13.190
70258W        W35419  43.921  42.232  13.001
70259W        W35420  43.875  42.327   0.395
70260W        W35421  23.001  28.576   0.788
70261W        W35422  29.534  23.533  12.664
70262W        W35423  35.405  35.441  10.610
70263W        W35424  33.653  38.001   3.708
70264W        W35425  29.009  35.692   0.343
70265W        W35426   3.480  28.176  14.460
70266W        W35427  29.634   9.114  11.524
70267W        W35428  17.570  24.646   2.825
70268W        W35429  44.705  40.073   2.221
70269W        W35430  24.628  20.798  14.274
70270W        W35431   6.361  26.184  12.285
70271W        W35432  32.086   5.874   2.239
70272W        W35433  25.558   2.889   2.152
70273W        W35434  31.175  18.550  13.019
70274W        W35435  12.606  27.462   1.808
70275W        W35436   9.786  19.206  14.988
70276W        W35437  13.162  37.573  13.955
70277W        W35438  33.802   4.708   1.763
70278W        W35439   3.203  19.038  14.286
70279W        W35440  34.561  27.666   1.645
70280W        W35441  35.423  21.304  14.008
70281W        W35442  33.881  32.126  12.352
70282W        W35443   2.581  19.839  11.650
70283W        W35444  35.017  17.690  13.929
70284W        W35445  31.831  44.438   4.970
70285W        W35446  18.861  14.288  12.144
70286W        W35447  30.145   9.892   0.370
70287W        W35448  39.941   3.904  14.316
70288W        W35449  16.615  39.545   2.768
70289W        W35450   9.763  30.599  10.636
70290W        W35451  28.928   4.880  11.236
70291W        W35452  14.083  11.394  14.574
70292W        W35453  36.296  41.938  12.043
70293W        W35454  42.863  11.668   4.168
70294W        W35455  27.210  21.998   1.585
70295W        W35456  25.036  37.248  11.608
70296W        W35457  31.574   9.241   0.052
70297W        W35458  15.516  12.941   1.554
70298W        W35459  14.850  41.330   2.784
70299W        W35460  18.305  18.999  14.601
70300W        W35461  19.125  11.473  11.510
70301W        W35462  40.955   5.866  14.756
70302W        W35463  10.685  42.946  14.753
70303W        W35464   2.833  19.154  13.584
70304W        W35465  34.458   3.042  14.959
70305W        W35466  28.540  30.998   0.555
70306W        W35467   3.971  15.500   1.905
70307W        W35468  34.674   1.961   2.707
70308W        W35469  15.817  36.385   0.841
70309W        W35470  32.856  43.015  14.282
70310W        W35471   9.910   1.848  11.392
70311W        W35472  25.201  12.321   2.846
70312W        W35473  23.609  16.040  14.837
70313W        W35474   0.132  38.257   5.121
70314W        W35475   7.132  35.054   1.831
70315W        W35476   7.148  19.073  12.031
70316W        W35477  32.805  41.074  12.992
70317W        W35478   9.204  12.288   4.119
70318W        W35479  33.151   8.495   3.310
70319W        W35480   5.778  27.359   0.443
70320W        W35481  29.036  37.388  11.489
70321W        W35482  21.459  41.302   3.378
70322W        W35483   3.968  26.639  13.036
70323W        W35484   9.275  13.042  13.126
70324W        W35485   8.210  36.007   1.471
70325W        W35486  32.164  12.457   0.863
70326W        W35487  12.635  30.802  11.051
70327W        W35488  20.101  12.676  11.109
70328W        W35489  43.172  33.058   1.288
70329W        W35490  18.170  22.565   2.647
70330W        W35491  44.819  31.544   0.032
70331W        W35492   9.868  20.583  11.994
70332W        W35493  12.413  19.219  12.877
70333W        W35494  40.757  38.619  11.721
70334W        W35495  34.015  36.576   3.225
70335W        W35496   1.524  16.314   1.397
70336W        W35497  18.268  34.216  12.595
70337W        W35498  15.506  22.249  14.264
70338W        W35499   5.246  21.800   3.436
70339W        W35500  40.296   2.226   1.843
70340W        W35501   0.058  40.928   2.012
70341W        W35502  30.780  31.691   2.751
70342W        W35503   9.896  28.680  13.330
70343W        W35504  23.148  11.437   5.032
70344W        W35505   2.712   4.135   0.046
70345W        W35506  32.471  39.515  11.872
70346W        W35507  14.285  27.477   0.337
70347W        W35508  39.029  35.157   0.886
70348W        W35509  31.492  36.627   4.246
70349W        W35510  34.875   4.943  12.582
70350W        W35511  38.041   3.523   1.448
70351W        W35512  32.485  21.078  14.874
70352W        W35513  18.572   4.474  13.514
70353W        W35514   8.678  18.187  14.899
70354W        W35515  38.866  21.690   3.836
70355W        W35516  40.841  18.989   1.350
70356W        W35517   2.686  23.806  13.845
70357W        W35518  21.075  32.831  10.523
70358W        W35519  27.059  17.589   0.044
70359W        W35520  43.945  41.362   0.467
70360W        W35521  39.914  15.452   4.115
70361W        W35522   3.511  38.078   4.542
70362W        W35523  41.228   2.412   0.416
70363W        W35524  16.477  12.227  13.121
70364W        W35525  35.471  17.149  14.468
70365W        W35526  14.514  18.151   0.516
70366W        W35527   3.628   2.317  12.866
70367W        W35528  14.651  29.946  10.658
70368W        W35529   6.797  15.851   2.719
70369W        W35530  32.652  38.444   1.241
70370W        W35531  28.046  37.528   0.979
70371W        W35532  22.211  12.783  14.039
70372W        W35533  36.008  29.223   3.337
70373W        W35534  40.531  13.092   3.742
70374W        W35535  39.081   4.346   4.598
70375W        W35536  20.544  15.497  12.103
70376W        W35537  14.315  29.420  11.649
70377W        W35538  11.014  15.605  12.958
70378W        W35539  28.002   9.885   1.950
70379W        W35540  23.993  38.753   1.494
70380W        W35541  16.596   1.764   4.669
70381W        W35542  37.410  34.881  12.873
70382W        W35543  40.835   7.997  10.712
70383W        W35544  27.476   2.854   2.249
70384W        W35545  42.604  16.739  14.705
70385W        W35546   4.973  16.276  10.771
70386W        W35547   4.276  33.901  11.588
70387W        W35548  27.844  32.688   2.111
70388W        W35549  11.085  13.558   1.386
70389W        W35550   2.485  34.404   3.597
70390W        W35551  37.913  22.653   2.361
70391W        W35552   3.036   7.379   2.210
70392W        W35553  41.043  44.642  11.572
70393W        W35554  26.137  43.391   4.199
70394W        W35555  38.851  28.929  12.811
70395W        W35556  28.651  23.413  14.183
70396W        W35557  16.819  28.042  12.482
70397W        W35558  18.835  43.421  10.634
70398W        W35559   9.435   9.141  11.631
70399W        W35560   6.057   5.528  12.079
70400W        W35561  32.952  29.954  12.986
70401W        W35562  23.741  36.057  12.458
70402W        W35563  19.011   6.862  10.542
70403W        W35564  33.168  27.275  11.520
70404W        W35565   0.851  25.934   0.340
70405W        W35566  19.746  18.745  14.729
70406W        W35567  38.520   6.811   4.892
70407W        W35568  23.938  16.087  13.080
70408W        W35569   0.875  27.175   0.915
70409W        W35570   6.335  35.525  14.295
70410W        W35571  33.466  43.540   4.408
70411W        W35572   6.907  15.917  14.394
70412W        W35573  16.261  10.929   1.238
70413W        W35574   7.263  37.065  14.834
70414W        W35575  27.186  10.673   0.480
70415W        W35576   9.843  13.834  12.831
70416W        W35577  24.435  39.329  12.947
70417W        W35578  25.480  13.916  14.867
70418W        W35579   5.484  33.737  11.985
70419W        W35580  18.372  18.124  12.020
70420W        W35581   9.602  29.139  13.380
70421W        W35582  10.783  41.818  14.077
70422W        W35583  18.602  40.983  13.440
70423W        W35584   5.734  18.729  11.028
70424W        W35585   2.972  26.511   3.559
70425W        W35586  33.409  44.892   3.208
70426W        W35587  41.460  23.619   0.271
70427W        W35588  44.430   6.209   1.285
70428W        W35589  27.571   9.295   3.460
70429W        W35590  40.311  13.188  11.151
70430W        W35591  20.829  21.303   3.938
70431W        W35592  19.089   7.260   0.876
70432W        W35593  29.561  13.760   2.298
70433W        W35594  22.556  20.234  11.604
70434W        W35595   8.372  35.507  11.170
70435W        W35596  28.386   5.805   2.800
70436W        W35597  20.704  11.981   4.707
70437W        W35598  36.592  14.319  11.517
70438W        W35599  34.424  38.280   1.878
70439W        W35600  22.307   8.024   0.120
70440W        W35601  39.504   3.196  11.783
70441W        W35602  44.539  32.827   3.676
70442W        W35603  16.669  16.067   4.834
70443W        W35604  25.906  23.976  12.554
70444W        W35605  27.039  16.008   4.147
70445W        W35606  26.228  16.170   3.870
70446W        W35607  38.992  37.802   0.444
70447W        W35608  25.713  39.513  13.456
70448W        W35609  38.820  29.572  14.918
70449W        W35610  34.944  36.510   3.235
70450W        W35611  44.775  28.163  12.995
70451W        W35612   1.789  12.835   3.141
70452W        W35613  43.417  12.626   3.145
70453W        W35614  31.673   6.435  14.480
70454W        W35615  26.568  22.802   2.077
70455W        W35616   1.797  29.231  11.559
70456W        W35617  12.908  20.190  13.683
70457W        W35618  34.541  11.230  14.049
70458W        W35619  35.076  37.471   1.957
70459W        W35620  39.888  23.812  12.951
70460W        W35621  37.729  37.629  11.848
70461W        W35622  10.500   1.861   4.158
70462W        W35623   2.508  12.312  12.110
70463W        W35624  39.488  43.494   1.327
70464W        W35625   8.312   6.379   4.620
70465W        W35626  32.488  19.246   2.219
70466W        W35627   8.701   7.677  11.051
70467W        W35628  36.416  13.127   1.536
70468W        W35629   1.291  10.445   3.422
70469W        W35630  14.791   2.564  10.798
70470W        W35631  21.326   5.342   0.076
70471W        W35632  19.530  32.448   0.776
70472W        W35633   4.139  33.439   2.293
70473W        W35634  29.533  22.967   1.159
70474W        W35635   7.234   7.215   0.804
70475W        W35636  21.728  17.728  13.919
70476W        W35637   1.660   4.585   2.276
70477W        W35638   1.413  41.986   4.694
70478W        W35639  11.796  34.069   3.746
70479W        W35640  16.646  28.503  14.387
70480W        W35641  28.664  44.231   2.382
70481W        W35642  23.549   9.737  14.428
70482W        W35643  22.545   0.758   3.915
70483W        W35644   9.742  40.281   4.128
70484W        W35645  33.297  10.490   3.161
70485W        W35646  40.022  37.321  14.130
70486W        W35647  41.365  25.982  12.935
70487W        W35648  38.849  34.662  14.621
70488W        W35649  30.051  44.790   4.185
70489W        W35650  16.579   9.682   0.276
70490W        W35651  42.213  26.552   3.635
70491W        W35652  31.552  18.440   1.896
70492W        W35653  19.937   9.244   4.677
70493W        W35654  27.268   9.354  12.005
70494W        W35655  34.441  11.777  13.023
70495W        W35656  23.516  20.698   4.182
70496W        W35657  21.049  24.270  12.580
70497W        W35658  43.368  42.096   0.422
70498W        W35659  22.636  14.376   0.671
70499W        W35660  28.093  20.270  11.124
70500W        W35661   7.049  35.007   0.279
70501W        W35662   5.913   8.606  14.442
70502W        W35663  10.697   9.439  14.910
70503W        W35664  10.668  23.679   2.285
70504W        W35665  21.715  24.773  11.668
70505W        W35666   9.053  15.554   1.270
70506W        W35667   9.781  27.174   2.842
70507W        W35668  43.484  30.991   2.178
70508W        W35669   6.929   3.201   3.236
70509W        W35670  24.953  13.279   2.092
70510W        W35671  20.770  44.993   0.026
70511W        W35672  10.781  27.412   4.138
70512W        W35673  12.375  15.599  10.686
70513W        W35674  10.340  25.199  14.896
70514W        W35675   8.005  35.148   0.827
70515W        W35676   7.938  28.446  14.880
70516W        W35677   5.190  32.899   2.782
70517W        W35678  24.184  28.723   2.270
70518W        W35679  20.065  32.456   0.715
70519W        W35680  15.684  18.314   4.189
70520W        W35681  37.650   5.295   3.808
70521W        W35682  28.068  38.132  12.983
70522W        W35683  35.666  32.128  12.065
70523W        W35684  14.074  33.621  11.485
70524W        W35685  25.495  41.125   2.721
70525W        W35686  14.843  14.082   1.009
70526W        W35687  12.581  30.588   1.951
70527W        W35688  36.007  25.567   2.615
70528W        W35689  12.558  36.352  11.586
70529W        W35690  27.157  16.697   0.540
70530W        W35691  22.987  10.478  13.536
70531W        W35692  28.324   7.774  11.166
70532W        W35693  13.016  19.616   2.688
70533W        W35694  42.469   6.167  14.763
70534W        W35695   8.629   2.191   0.862
70535W        W35696  26.239  29.645   0.302
70536W        W35697  26.681  37.988  13.253
70537W        W35698   6.458  43.432  14.907
70538W        W35699   0.848  31.625   0.957
70539W        W35700  21.801   1.772  14.453
70540W        W35701  24.627  13.202  13.948
70541W        W35702  43.946  34.807   1.246
70542W        W35703  37.007  20.211  13.556
70543W        W35704  14.911  34.839   2.563
70544W        W35705  36.451   2.536  14.833
70545W        W35706  27.535  40.897   0.926
70546W        W35707  24.007  29.970   4.766
70547W        W35708  39.458  10.780  12.011
70548W        W35709  15.390  42.173  13.296
70549W        W35710  35.877  16.106   2.436
70550W        W35711  43.383   1.274   4.569
70551W        W35712  40.914  39.637  12.019
70552W        W35713  12.704  24.198  14.867
70553W        W35714   1.767  28.206   1.739
70554W        W35715   8.775  44.360   4.629
70555W        W35716  41.944   7.416   1.514
70556W        W35717   7.965  10.620  13.646
70557W        W35718  15.020  43.488  13.001
70558W        W35719  42.287  22.268   4.705
70559W        W35720  30.967  37.077   4.644
70560W        W35721  36.327  40.471   3.666
70561W        W35722   7.870  29.899  12.004
70562W        W35723  15.465  21.428   2.360
70563W        W35724  13.540  16.225   2.049
70564W        W35725  40.349  44.238  10.200
70565W        W35726  41.375   3.230  11.303
70566W        W35727  36.355  13.235  14.586
70567W        W35728  42.332   2.779   0.411
70568W        W35729  41.610   6.967   3.582
70569W        W35730  13.619   2.396  10.728
70570W        W35731  13.541  20.787   4.249
70571W        W35732  28.430   3.630   0.234
70572W        W35733  34.475  34.004  14.423
70573W        W35734   8.267  10.236  13.078
70574W        W35735   6.756  18.062   4.051
70575W        W35736   1.769  19.153   2.578
70576W        W35737  43.008  13.565   3.253
70577W        W35738  39.921   0.013   0.371
70578W        W35739   3.223  19.770  12.070
70579W        W35740   5.247  26.739  14.469
70580W        W35741  20.217  24.600   3.644
70581W        W35742  42.077  26.149  13.445
70582W        W35743   1.394  37.370  11.661
70583W        W35744  17.491  32.617  13.692
70584W        W35745  14.681  38.011  14.751
70585W        W35746  43.992  11.047  14.941
70586W        W35747  39.270   6.912  13.157
70587W        W35748  10.214  12.546   0.988
70588W        W35749   8.655  25.179   3.130
70589W        W35750   6.350  15.210  13.601
70590W        W35751  15.438  37.070   1.707
70591W        W35752  18.560  40.162   0.837
70592W        W35753  24.232  18.681   3.691
70593W        W35754   4.644   0.546  11.054
70594W        W35755   8.067  44.592   2.745
70595W        W35756  37.164  33.552   4.106
70596W        W35757   9.856  30.201  11.366
70597W        W35758  35.885  31.636   4.836
70598W        W35759   0.422  14.763  10.852
70599W        W35760  13.873  12.654   4.164
70600W        W35761   2.335  16.421   3.644
70601W        W35762  38.328  14.493  12.959
70602W        W35763  31.948  38.605  11.912
70603W        W35764  34.151  23.116  13.929
70604W        W35765   1.940   7.270   1.336
70605W        W35766  10.432  33.944   4.158
70606W        W35767  11.546  41.393  11.029
70607W        W35768  17.037  26.065   3.719
70608W        W35769  10.775  36.942  11.858
70609W        W35770  25.046  24.147  13.042
70610W        W35771  20.913   5.201  13.755
70611W        W35772   2.811  15.031   0.829
70612W        W35773  20.250  30.055  10.902
70613W        W35774  35.653  37.320   4.111
70614W        W35775  38.016  20.230  11.630
70615W        W35776  35.348  31.885  10.025
70616W        W35777  33.140  18.803  11.606
70617W        W35778   3.350  41.556  11.561
70618W        W35779   5.589  33.807  14.797
70619W        W35780  31.939  21.200   2.762
70620W        W35781  44.303  30.737  10.354
70621W        W35782  41.981  11.311  14.803
70622W        W35783  37.128  13.695  14.917
70623W        W35784   3.436  11.154  12.458
70624W        W35785  27.456  38.713   2.678
70625W        W35786   0.193  13.772  13.855
70626W        W35787  22.515  39.545  11.764
70627W        W35788   9.472   5.855   2.779
70628W        W35789  10.079   1.167   0.356
70629W        W35790  20.109  18.583   2.278
70630W        W35791  42.406   5.156  14.735
70631W        W35792   7.632  37.456  13.873
70632W        W35793  41.265  14.875   4.494
70633W        W35794  34.721  18.650  11.028
70634W        W35795  24.075  33.351   4.638
70635W        W35796   5.281   4.966  14.930
70636W        W35797  37.869  41.989   3.236
70637W        W35798  24.170   1.456   2.843
70638W        W35799  22.729  37.414  11.193
70639W        W35800   1.326  23.496   1.380
70640W        W35801  21.592  25.738   2.662
70641W        W35802  17.233   7.412   4.589
70642W        W35803   8.689  31.854  11.565
70643W        W35804   8.653   5.894  12.676
70644W        W35805   2.756  32.663   5.053
70645W        W35806  26.443  35.937   4.560
70646W        W35807  33.461  35.407   2.187
70647W        W35808  39.404  14.493  14.465
70648W        W35809  34.854  30.541  12.582
70649W        W35810  37.738  13.669   4.732
70650W        W35811  10.722  14.603  14.841
70651W        W35812   9.377   3.316   1.899
70652W        W35813  32.577  37.087   0.771
70653W        W35814  20.115  31.402   1.306
70654W        W35815  36.908  12.426   3.569
70655W        W35816  21.497  20.037  14.512
70656W        W35817  27.479  24.418   1.895
70657W        W35818  34.476  14.138   1.574
70658W        W35819  31.167  19.062  12.797
70659W        W35820  19.327  44.304   3.663
70660W        W35821  34.946  16.635  10.973
70661W        W35822  23.138  44.011   2.163
70662W        W35823  29.884  10.868   1.226
70663W        W35824  29.964  37.067   2.155
70664W        W35825  38.151  36.934   0.598
70665W        W35826  33.613  18.735  12.939
70666W        W35827  42.959  41.863   2.959
70667W        W35828  33.987  39.287   3.265
70668W        W35829  26.986   7.845   2.259
70669W        W35830  34.854   6.234   3.341
70670W        W35831  24.039  13.507  12.901
70671W        W35832  10.889   7.120   0.694
70672W        W35833  18.456   0.890  11.566
70673W        W35834   0.745   3.036   4.721
70674W        W35835  43.356  44.211   1.408
70675W        W35836  14.702  30.406  10.915
70676W        W35837  23.696  40.989   9.497
70677W        W35838  44.052  22.355   0.483
70678W        W35839  18.165   1.068   0.295
70679W        W35840  23.516  18.820   0.348
70680W        W35841  20.032   4.645   3.672
70681W        W35842  26.860   4.480   3.689
70682W        W35843  43.052  28.878   2.266
70683W        W35844  36.527  30.500   0.312
70684W        W35845  12.441  18.330   4.728
70685W        W35846  13.167  29.395  12.076
70686W        W35847  22.127  36.186  11.038
70687W        W35848  44.895  38.394  14.346
70688W        W35849  23.270  12.669   3.741
70689W        W35850  13.812   5.140   0.916
70690W        W35851  20.845  25.582  12.343
70691W        W35852  43.327   3.900  13.816
70692W        W35853  22.855  23.083  13.488
70693W        W35854  27.260  28.084  14.286
70694W        W35855  16.599  21.089   0.060
70695W        W35856  23.141  40.812  12.000
70696W        W35857  29.632   4.881   3.258
70697W        W35858  16.709   5.887   3.252
70698W        W35859  35.639  41.521   0.810
70699W        W35860  40.338  38.958   1.842
70700W        W35861  37.850   7.833  14.314
70701W        W35862  37.141  28.972   1.206
70702W        W35863  42.478  43.379   3.598
70703W        W35864  29.637  44.479  13.329
70704W        W35865   3.744   0.928   4.409
70705W        W35866  14.570   0.537  13.776
70706W        W35867  34.614   3.841  10.695
70707W        W35868  26.568  40.022   4.496
70708W        W35869   5.193  33.603  13.978
70709W        W35870  13.759  21.509   0.559
70710W        W35871  11.006  11.793   0.852
70711W        W35872  19.598  36.937  10.566
70712W        W35873  21.631  31.051  12.428
70713W        W35874  34.412  17.790  11.254
70714W        W35875   4.701  28.395   4.273
70715W        W35876  13.259  32.101  12.999
70716W        W35877  10.965  23.214   2.268
70717W        W35878  43.880  11.419   0.289
70718W        W35879   9.299  11.778  14.217
70719W        W35880   8.458  30.527   3.258
70720W        W35881   3.744  38.191   4.101
70721W        W35882  39.290  25.534   4.667
70722W        W35883   9.394  33.178   3.189
70723W        W35884   9.928   0.562  10.662
70724W        W35885  29.503  22.130   1.190
70725W        W35886   1.875   7.147  13.758
70726W        W35887  14.627  23.219   3.782
70727W        W35888  26.643  30.704   4.662
70728W        W35889  41.758  19.697   4.049
70729W        W35890  16.760   6.485  11.218
70730W        W35891   0.239  39.717   0.160
70731W        W35892  15.668  13.884   2.712
70732W        W35893  26.891  24.837  14.270
70733W        W35894   0.324  11.382   3.273
70734W        W35895  44.437  16.544  11.157
70735W        W35896   3.362   3.372   2.476
70736W        W35897  15.620  11.370  13.372
70737W        W35898  39.571  36.438  13.878
70738W        W35899  20.606  16.742   1.862
70739W        W35900   1.096   5.376  12.451
70740W        W35901  24.451  15.669  14.818
70741W        W35902  43.532   5.641   1.830
70742W        W35903  34.049  18.218  14.457
70743W        W35904   1.057  28.721  14.036
70744W        W35905  26.981   6.942  13.021
70745W        W35906  20.956  32.627  11.398
70746W        W35907  21.617  22.045   1.277
70747W        W35908  29.608   0.355  13.523
70748W        W35909   9.612  32.327  13.020
70749W        W35910   8.027  29.875  13.929
70750W        W35911  38.403  42.925  10.564
70751W        W35912   3.957  14.514   1.937
70752W        W35913  28.200  27.007  13.590
70753W        W35914  38.798  12.647   1.171
70754W        W35915   9.535  18.015   4.487
70755W        W35916  29.246  26.472  12.835
70756W        W35917  19.651  36.984   1.839
70757W        W35918  44.323  41.014  11.841
70758W        W35919   9.454   7.467  14.541
70759W        W35920  13.201   7.164  12.563
70760W        W35921  43.880  22.959  13.698
70761W        W35922   5.714   1.603   4.519
70762W        W35923  19.290  15.219  14.374
70763W        W35924  39.546   7.335  13.607
70764W        W35925  12.236  33.118   0.157
70765W        W35926  41.746  29.629   1.226
70766W        W35927  22.277  39.872   0.464
70767W        W35928  19.058   8.483  14.540
70768W        W35929  20.485  28.231   2.616
70769W        W35930  22.680  36.400   2.704
70770W        W35931   3.777  44.751   4.563
70771W        W35932  34.270  25.573  10.282
70772W        W35933  42.331   7.289   4.515
70773W        W35934  10.590  24.678  11.461
70774W        W35935  24.239  15.762   1.268
70775W        W35936  14.154  24.478   2.884
70776W        W35937  13.735   7.439   0.201
70777W        W35938  43.816  24.803   0.929
70778W        W35939  27.106  30.496  11.391
70779W        W35940  37.120  42.367  13.407
70780W        W35941  30.954   3.981  13.941
70781W        W35942   2.357  30.821   3.623
70782W        W35943  15.019   1.187   3.042
70783W        W35944   3.774  37.084   2.444
70784W        W35945  10.563  30.387   4.081
70785W        W35946  31.969  40.489  12.952
70786W        W35947  35.903   4.476   2.328
70787W        W35948  10.301   2.780  11.247
70788W        W35949  43.708  20.287   3.831
70789W        W35950  35.959  44.409  12.956
70790W        W35951  29.132  19.101  14.806
70791W        W35952   3.728  13.792   3.431
70792W        W35953   2.361  32.174   3.016
70793W        W35954  40.505  37.681   2.375
70794W        W35955  31.637  44.276  14.945
70795W        W35956  18.061  27.897   4.250
70796W        W35957  41.954  19.728   5.003
70797W        W35958  20.675   9.707   1.219
70798W        W35959  10.859  24.732  14.484
70799W        W35960  31.089  12.797  14.257
70800W        W35961  29.714  12.767   2.251
70801W        W35962  18.081   8.684  11.243
70802W        W35963  26.131  25.033  13.935
70803W        W35964  40.461  20.739   3.723
70804W        W35965   1.402  14.829  14.817
70805W        W35966   8.616  27.592   2.084
70806W        W35967   3.208  31.411  14.332
70807W        W35968   7.323  34.866  14.444
70808W        W35969  25.767  22.584   2.840
70809W        W35970   9.460  26.151  12.572
70810W        W35971  33.363  16.777  12.939
70811W        W35972  17.290  37.898   2.376
70812W        W35973   9.670  44.894   3.811
70813W        W35974   9.935  26.744  14.009
70814W        W35975  32.380   2.566  13.784
70815W        W35976  32.679  36.954   3.059
70816W        W35977   3.754  19.704  10.549
70817W        W35978  28.984  38.777   2.420
70818W        W35979  29.575  33.863  11.320
70819W        W35980   7.291  24.233   0.970
70820W        W35981  32.561  20.173  14.464
70821W        W35982   6.013  38.238   2.298
70822W        W35983   5.537  19.793   3.278
70823W        W35984  16.307  36.923   3.276
70824W        W35985  24.667  16.240  11.143
70825W        W35986  33.421  12.311   2.657
70826W        W35987   9.383  12.632   2.821
70827W        W35988  30.431  38.295   3.151
70828W        W35989  44.559  36.391   2.382
70829W        W35990  36.949  39.096   0.473
70830W        W35991   0.820  41.556   3.656
70831W        W35992  27.900  26.458  10.730
70832W        W35993  24.642   4.709  10.659
70833W        W35994  31.382  41.237   4.571
70834W        W35995  24.184  25.110  12.776
70835W        W35996  12.541  24.058   3.352
70836W        W35997  17.506  42.941   1.267
70837W        W35998  11.171   7.249   1.116
70838W        W35999  21.019  40.648  12.365
70839W        W36000  40.110   7.803  11.818
70840W        W36001  23.284  21.226   9.770
70841W        W36002   1.521  34.482  12.996
70842W        W36003   8.850  21.839   1.772
70843W        W36004   8.871  44.486   0.225
70844W        W36005   4.869  15.068   4.611
70845W        W36006  22.688  21.317   4.049
70846W        W36007  41.551  30.652  11.186
70847W        W36008  10.552  33.504  12.130
70848W        W36009  25.467  39.852  11.545
70849W        W36010   6.236  29.115   1.274
70850W        W36011  29.229  42.306  12.241
70851W        W36012   6.312  18.082  11.253
70852W        W36013  36.954  23.148   3.010
70853W        W36014  33.021  41.412  13.350
70854W        W36015  15.889   8.872  11.994
70855W        W36016  24.566  14.077  12.043
70856W        W36017  18.694  23.046  10.421
70857W        W36018  13.635  22.693   3.367
70858W        W36019  22.889  16.301   0.520
70859W        W36020  34.488  16.710   2.288
70860W        W36021  41.461  23.022  10.851
70861W        W36022  19.541  35.579  11.926
70862W        W36023  34.923  26.167   3.843
70863W        W36024  44.381   1.739   0.390
70864W        W36025  15.755  37.117   4.174
70865W        W36026  16.626   4.059  13.020
70866W        W36027  25.978  18.030  11.478
70867W        W36028   6.864   0.920   0.943
70868W        W36029  29.507   3.563  10.925
70869W        W36030  39.774  38.041  12.563
70870W        W36031  40.788  27.495   2.255
70871W        W36032  19.559  20.757   2.779
70872W        W36033  40.871   2.436   4.536
70873W        W36034   4.977  14.846  11.530
70874W        W36035   1.219  26.456   3.301
70875W        W36036   8.128  37.515  13.983
70876W        W36037  10.459   3.343  13.757
70877W        W36038  12.724  36.987   3.662
70878W        W36039  11.669   8.443   4.814
70879W        W36040  35.837  35.473  11.745
70880W        W36041   4.411  42.778  13.490
70881W        W36042   8.937  11.421  11.721
70882W        W36043   5.278  40.151  14.280
70883W        W36044  43.392  34.655   4.078
70884W        W36045  32.056  17.105  11.377
70885W        W36046  37.232  27.668   2.198
70886W        W36047  11.101  16.572  14.755
70887W        W36048  20.317  31.033  13.724
70888W        W36049  15.973  32.865  10.566
70889W        W36050  22.344  33.437   3.782
70890W        W36051  30.225  19.533   0.858
70891W        W36052   8.052  22.698   2.144
70892W        W36053   6.021  37.133  12.734
70893W        W36054  37.887  36.873  10.678
70894W        W36055  38.796  23.261  12.493
70895W        W36056  20.086  10.464   2.719
70896W        W36057  14.793  12.311  13.772
70897W        W36058  16.079  11.618  13.502
70898W        W36059  29.881  13.280  10.456
70899W        W36060  16.243  28.109  11.044
70900W        W36061   6.657  14.259   2.887
70901W        W36062  42.748   2.305  11.670
70902W        W36063  25.747   1.749   4.063
70903W        W36064  27.586  22.674  12.346
70904W        W36065  29.706  30.158   1.363
70905W        W36066  26.117  36.364   2.830
70906W        W36067  10.274  21.059  12.579
70907W        W36068   6.596  42.347  12.092
70908W        W36069  35.683  40.483   4.181
70909W        W36070   6.212  44.435   3.781
70910W        W36071  16.568  41.835  11.988
70911W        W36072   3.554  20.264   4.250
70912W        W36073   6.045  18.445   0.398
70913W        W36074  13.222  39.880  12.929
70914W        W36075   6.191   7.298   1.246
70915W        W36076  41.456  38.338  12.870
70916W        W36077  16.863   9.236  11.679
70917W        W36078   9.276   7.777  12.106
70918W        W36079  16.608   1.360  13.329
70919W        W36080  34.123   3.121   4.606
70920W        W36081  30.880   1.305   2.360
70921W        W36082  25.995  30.627   4.003
70922W        W36083  12.311  21.788  11.048
70923W        W36084   6.802  13.103  11.655
70924W        W36085   3.158  11.882   0.083
70925W        W36086  22.987  43.014  14.728
70926W        W36087   0.833  36.723   2.186
70927W        W36088  38.542   8.887   0.222
70928W        W36089  44.939   9.366   4.817
70929W        W36090   1.399  20.369   4.175
70930W        W36091  36.463  16.376  12.914
70931W        W36092  21.028  40.856  14.389
70932W        W36093   9.879   3.811   0.812
70933W        W36094  27.609  26.740   3.016
70934W        W36095  39.372  41.955   4.624
70935W        W36096  42.571   7.747   3.163
70936W        W36097  26.305  33.513   1.823
70937W        W36098  35.299  30.679   2.224
70938W        W36099  19.090  31.367  11.208
70939W        W36100  23.820  33.233  14.727
70940W        W36101   1.904  40.414  13.981
70941W        W36102   3.679  16.519   3.853
70942W        W36103   4.278  16.267   2.297
70943W        W36104  31.935  43.965   1.492
70944W        W36105  22.444  35.996   0.832
70945W        W36106  14.190  36.387  14.799
70946W        W36107   9.324  26.707   3.670
70947W        W36108  42.451  27.439   0.418
70948W        W36109  17.707   4.265  12.090
70949W        W36110  29.443   6.780  10.729
70950W        W36111  30.446  21.118  12.909
70951W        W36112  38.527  23.685   2.580
70952W        W36113   8.876  33.958   0.356
70953W        W36114   0.706  29.693  13.384
70954W        W36115  17.879  42.640   5.455
70955W        W36116   1.334   4.359  13.595
70956W        W36117   1.487  29.068   3.070
70957W        W36118  33.109  13.234   0.213
70958W        W36119  36.045  40.803  14.924
70959W        W36120  19.462   4.608   3.369
70960W        W36121  27.482   8.679   4.077
70961W        W36122   1.965  39.375  14.276
70962W        W36123  19.593  18.027  12.864
70963W        W36124  19.095  30.521   2.838
70964W        W36125  19.835  20.097  13.464
70965W        W36126  19.973   5.456  10.705
70966W        W36127  11.299  42.429   3.857
70967W        W36128  16.365  22.434  13.986
70968W        W36129  12.159   4.188   4.326
70969W        W36130   5.196  33.521  12.360
70970W        W36131  43.917  43.256  13.008
70971W        W36132  32.291  44.976   0.298
70972W        W36133  38.611  26.176   0.436
70973W        W36134  30.647   6.081   1.410
70974W        W36135   6.175   0.238   4.224
70975W        W36136   2.603   4.795  10.756
70976W        W36137  37.308  27.469   3.679
70977W        W36138  41.340  36.928  11.027
70978W        W36139  20.744  44.776   4.138
70979W        W36140  40.771  18.714   2.772
70980W        W36141  19.725  42.964  12.521
70981W        W36142  33.905  41.204  10.509
70982W        W36143   0.385  18.557   4.537
70983W        W36144   4.432  30.281  11.092
70984W        W36145   3.423  42.963   1.063
70985W        W36146   8.901  44.804  12.438
70986W        W36147   9.661  30.867   4.298
70987W        W36148   2.661  28.169   4.340
70988W        W36149  43.487  25.366   0.552
70989W        W36150  18.571   1.835   2.498
70990W        W36151  35.606   5.782  14.956
70991W        W36152  37.411  22.515   2.364
70992W        W36153  15.627  31.557   0.361
70993W        W36154  32.117  40.470   1.963
70994W        W36155   7.387  16.128  12.091
70995W        W36156  26.171   2.510   3.727
70996W        W36157  28.983  35.974  11.995
70997W        W36158  31.804  17.677   3.177
70998W        W36159  24.221  28.766   1.422
70999W        W36160  40.540  37.321   0.020
71000W        W36161  31.215  29.562   2.783
71001W        W36162  33.540   3.480   0.793
71002W        W36163  21.670   7.154  11.971
71003W        W36164  44.482   8.725  13.556
71004W        W36165  26.639  29.572  11.101
71005W        W36166  29.210  22.571   1.168
71006W        W36167   8.232  28.208  11.605
71007W        W36168  18.019  14.859   0.294
71008W        W36169   4.239  23.045   4.233
71009W        W36170  26.657  36.782  11.228
71010W        W36171  27.105  19.646  14.524
71011W        W36172  31.999   4.409   3.673
71012W        W36173  28.251  32.229   4.178
71013W        W36174  29.108  15.811   0.164
71014W        W36175  23.595   1.816   1.351
71015W        W36176  15.995  39.731  12.565
71016W        W36177  12.718  20.550  14.465
71017W        W36178  41.330  16.161  11.570
71018W        W36179   2.603   5.297  11.552
71019W        W36180  42.836  23.098   4.876
71020W        W36181  21.399   4.761   2.695
71021W        W36182  35.751  14.206   0.413
71022W        W36183  13.777   5.379   0.420
71023W        W36184  38.721  27.053  10.212
71024W        W36185  25.884  29.046  12.966
71025W        W36186  23.972   4.945  13.462
71026W        W36187  16.172  22.987   4.077
71027W        W36188  23.536  34.356   1.712
71028W        W36189  22.941  22.248   1.316
71029W        W36190  15.726   8.572   4.023
71030W        W36191  19.324   9.239  12.365
71031W        W36192  27.321   7.578  11.057
71032W        W36193  38.906  17.081   0.950
71033W        W36194  39.462  37.153  11.567
71034W        W36195  12.094  16.119  12.494
71035W        W36196  19.053   3.682   3.233
71036W        W36197   3.792  38.444  11.676
71037W        W36198  39.556  19.232  11.092
71038W        W36199  27.861  39.638  14.786
71039W        W36200  33.362  31.636  13.851
71040W        W36201  44.918  33.924   0.295
71041W        W36202  33.475  35.972  12.896
71042W        W36203   1.263   7.342   3.647
71043W        W36204  23.001  39.819   0.535
71044W        W36205  37.467  14.728  12.083
71045W        W36206  38.564  29.027   0.062
71046W        W36207  40.017  31.495   4.913
71047W        W36208  28.041   7.310   0.426
71048W        W36209  27.564  31.254   4.705
71049W        W36210  35.041   4.664  10.224
71050W        W36211  20.872  25.767  10.395
71051W        W36212  27.131  23.814   2.739
71052W        W36213  39.883  39.872  12.488
71053W        W36214   0.919   9.942   0.505
71054W        W36215  22.524  35.754   4.495
71055W        W36216  12.862  41.529  10.792
71056W        W36217  42.280  41.436  11.459
71057W        W36218  28.109  10.650  14.974
71058W        W36219  11.167  33.206   3.604
71059W        W36220  18.189  23.021  14.542
71060W        W36221  26.414   4.639  12.035
71061W        W36222  44.411  25.736  12.454
71062W        W36223   5.427  24.912   4.560
71063W        W36224  28.060   2.531   4.456
71064W        W36225  36.072  20.732  13.089
71065W        W36226   4.956  30.445  13.186
71066W        W36227  26.613  20.019   2.330
71067W        W36228  37.698  15.620   0.132
71068W        W36229  41.288   4.362   0.223
71069W        W36230  38.798  31.596   0.797
71070W        W36231  31.004   4.143  14.914
71071W        W36232  27.227  31.817   1.264
71072W        W36233  17.543  18.580   3.347
71073W        W36234  31.138   2.318   1.007
71074W        W36235  30.566   5.005   4.411
71075W        W36236   0.529   2.496  13.877
71076W        W36237  27.538  23.468  12.850
71077W        W36238  30.967  15.801   1.182
71078W        W36239  33.140  20.269   2.309
71079W        W36240  33.155   6.846  14.877
71080W        W36241  14.199  43.550  12.940
71081W        W36242  27.366  14.863   5.680
71082W        W36243  42.422  19.621  12.900
71083W        W36244  16.313  44.845  14.877
71084W        W36245  20.816  40.346  11.977
71085W        W36246  25.877  40.600   5.578
71086W        W36247   9.088  39.890   0.375
71087W        W36248  24.700  16.873  11.678
71088W        W36249  35.379  41.430   3.854
71089W        W36250  20.102  44.389   3.181
71090W        W36251   1.501   0.265  12.409
71091W        W36252   1.511  11.700  13.930
71092W        W36253   7.269  37.316   0.306
71093W        W36254   1.917  16.726  12.858
71094W        W36255  12.725  27.118  10.662
71095W        W36256  19.105  34.643   0.748
71096W        W36257  26.111  26.847  12.626
71097W        W36258  22.243  42.860  14.310
71098W        W36259  14.405  33.575   2.124
71099W        W36260  23.457  40.075  13.327
71100W        W36261  39.840  42.005  10.656
71101W        W36262  13.336  20.990  14.413
71102W        W36263   2.903  30.900  14.947
71103W        W36264  41.467  36.948   0.750
71104W        W36265  10.382  21.533   2.361
71105W        W36266  37.925  15.215   0.679
71106W        W36267  32.989  17.237  14.383
71107W        W36268  31.593  18.722  11.097
71108W        W36269  26.609   4.299  14.621
71109W        W36270  14.797  15.663  14.759
71110W        W36271  38.569  42.477  10.341
71111W        W36272  40.809  43.293   4.138
71112W        W36273  22.501  30.581   4.695
71113W        W36274   0.957   8.956   1.706
71114W        W36275  19.249  44.778  13.445
71115W        W36276  12.576  40.958   0.750
71116W        W36277   6.209   1.230  13.344
71117W        W36278  34.657  23.548  11.135
71118W        W36279  14.137  36.615   1.181
71119W        W36280  20.783  40.368  14.327
71120W        W36281  42.076  17.115   2.927
71121W        W36282   9.392  40.359  13.317
71122W        W36283  30.560  25.447   0.425
71123W        W36284  10.331   1.273   2.798
71124W        W36285  22.043  39.897  13.345
71125W        W36286  28.001  17.054   2.354
71126W        W36287  35.584  32.138   2.424
71127W        W36288  26.701  10.118  10.229
71128W        W36289  27.741  34.100  11.681
71129W        W36290   8.771   3.924  12.034
71130W        W36291   7.323   9.419   2.322
71131W        W36292  12.713  13.518   1.880
71132W        W36293  15.424  37.972   5.127
71133W        W36294   0.886   3.535  12.538
71134W        W36295  12.258  17.579  12.115
71135W        W36296   1.224  31.330   3.263
71136W        W36297  33.344   7.392   0.435
71137W        W36298  27.701   2.270  11.166
71138W        W36299  44.601  18.016  12.490
71139W        W36300  20.125  41.296   2.807
71140W        W36301  18.555  43.205   2.232
71141W        W36302  35.701  37.741   4.456
71142W        W36303  23.711  32.506   0.220
71143W        W36304  26.546  33.622   0.471
71144W        W36305   8.750  11.448  14.723
71145W        W36306  18.641  37.992  13.379
71146W        W36307  38.838  11.620  11.220
71147W        W36308  32.110  38.578   1.306
71148W        W36309   1.407   3.910   0.877
71149W        W36310   0.886  10.745   2.680
71150W        W36311  16.633   2.691   4.571
71151W        W36312  16.653  40.795  12.032
71152W        W36313  38.392  10.908  11.015
71153W        W36314  26.649  44.226   1.764
71154W        W36315  36.008  18.867   0.461
71155W        W36316   9.378   3.871   0.642
71156W        W36317  27.627  16.728   2.399
71157W        W36318  40.805  15.357   3.750
71158W        W36319  42.370   4.711  12.896
71159W        W36320  40.246  26.299   1.726
71160W        W36321  39.325   5.598   4.212
71161W        W36322   5.274  27.982   0.273
71162W        W36323  19.216   5.921  14.983
71163W        W36324   4.299   2.525   3.683
71164W        W36325  38.475  35.462  12.813
71165W        W36326  41.725  20.613  11.582
71166W        W36327  32.189  32.140   2.193
71167W        W36328   5.715  41.957  11.070
71168W        W36329  17.942  42.931   0.986
71169W        W36330  29.048  13.336  11.200
71170W        W36331  31.529  21.032   3.492
71171W        W36332  43.018   3.668   0.880
71172W        W36333   4.809  18.335  11.580
71173W        W36334  27.364  27.676  13.462
71174W        W36335  16.049  38.986   2.284
71175W        W36336  44.457  34.600  14.257
71176W        W36337   9.608  32.764  13.923
71177W        W36338  17.327   2.240   2.611
71178W        W36339  25.827   8.047  11.106
71179W        W36340   0.058  34.067   5.065
71180W        W36341  44.174  15.584  10.685
71181W        W36342  33.423   6.239   1.880
71182W        W36343  34.024  43.506   3.805
71183W        W36344   9.750  31.385   1.701
71184W        W36345  11.907  32.707   2.440
71185W        W36346  13.442  20.161   4.224
71186W        W36347  35.514  16.230  13.200
71187W        W36348  28.888   0.836   2.554
71188W        W36349   0.823  36.656  13.965
71189W        W36350  43.863   6.732  11.959
71190W        W36351  38.048  36.101   3.649
71191W        W36352  13.127  12.254   0.126
71192W        W36353   6.034  16.559   0.373
71193W        W36354  34.159   8.786   4.541
71194W        W36355  15.009  18.779  14.872
71195W        W36356  25.785  31.712   4.289
71196W        W36357  27.694  28.115  13.323
71197W        W36358  10.177  23.706  13.677
71198W        W36359  15.761  32.465   4.696
71199W        W36360   1.253  26.143   0.902
71200W        W36361  21.025  15.144  11.508
71201W        W36362  35.010  28.503  11.888
71202W        W36363  37.947  33.515  11.990
71203W        W36364  34.246  15.071  11.062
71204W        W36365  42.619  35.876   2.897
71205W        W36366  38.263  33.631  14.114
71206W        W36367  17.097  18.617  14.257
71207W        W36368  26.819  24.638  10.192
71208W        W36369   2.230   1.402  12.398
71209W        W36370  15.285  22.017  11.462
71210W        W36371  11.194  18.871  12.501
71211W        W36372  36.168  43.995   3.669
71212W        W36373  28.274  31.520  11.529
71213W        W36374  22.098  32.556   2.147
71214W        W36375  12.210   7.443  11.142
71215W        W36376   0.618  33.304   4.187
71216W        W36377  23.453  38.802   1.933
71217W        W36378   0.401  35.155  11.120
71218W        W36379  31.939   4.967  11.998
71219W        W36380   4.260  21.297   0.426
71220W        W36381  16.864  38.093  13.947
71221W        W36382  38.755  29.951   3.178
71222W        W36383  26.031  44.369  14.033
71223W        W36384  16.799  23.755   2.149
71224W        W36385  20.547  41.574  12.544
71225W        W36386   1.799  33.767   2.853
71226W        W36387   9.847   8.364  11.557
71227W        W36388   1.473  14.225  14.851
71228W        W36389  12.445  32.515  13.492
71229W        W36390  44.557  32.040  14.444
71230W        W36391  31.073  27.133   4.114
71231W        W36392  20.808   0.738  11.815
71232W        W36393  41.469   5.931  10.523
71233W        W36394  28.968  30.761  14.791
71234W        W36395  25.506  20.622  14.857
71235W        W36396  35.151  18.514   3.387
71236W        W36397  14.936   3.004  11.074
71237W        W36398  31.090  36.838  12.011
71238W        W36399   9.836  32.569  10.924
71239W        W36400  32.028  11.394   2.761
71240W        W36401  28.406   2.788  13.871
71241W        W36402  25.553   0.797   0.840
71242W        W36403  24.007   4.900   4.409
71243W        W36404  44.176  17.678  14.882
71244W        W36405  41.204  35.103  11.075
71245W        W36406  37.425  19.878  13.487
71246W        W36407  42.823  23.710   0.235
71247W        W36408   9.422  44.704  12.556
71248W        W36409  42.798  25.619  13.421
71249W        W36410  25.692   4.712  13.365
71250W        W36411   4.259  28.628  13.475
71251W        W36412  32.301  10.224   3.189
71252W        W36413  19.627  13.326   1.150
71253W        W36414  43.761  38.967  13.843
71254W        W36415  37.189  36.298   5.080
71255W        W36416  22.993  13.595   2.389
71256W        W36417  18.529  27.629   2.188
71257W        W36418  22.070  18.052  11.605
71258W        W36419  29.591   3.871   0.351
71259W        W36420   7.114  24.791  12.462
71260W        W36421  36.898   6.290  12.447
71261W        W36422  25.615  13.311  11.795
71262W        W36423  12.846  11.398  12.483
71263W        W36424   1.083   7.062  13.857
71264W        W36425   7.979  39.538  11.114
71265W        W36426  40.294  23.629  10.535
71266W        W36427   2.270  16.084  13.440
71267W        W36428  30.872   1.471  14.005
71268W        W36429  30.915  34.299  11.114
71269W        W36430  19.117   5.182  13.332
71270W        W36431  41.493  38.573  11.327
71271W        W36432  29.879  32.886   1.942
71272W        W36433   2.360  14.824   3.172
71273W        W36434  23.026  42.250  13.077
71274W        W36435   8.231  31.937  12.544
71275W        W36436  34.558   0.323   4.476
71276W        W36437  28.238   1.508   4.404
71277W        W36438  10.451  30.602   1.960
71278W        W36439  38.095  39.205   4.589
71279W        W36440  36.804   4.779   2.723
71280W        W36441   9.931  11.674   1.166
71281W        W36442   2.740  19.551   0.089
71282W        W36443  16.415  37.750  10.256
71283W        W36444  21.994  30.524   4.629
71284W        W36445  31.894  15.307   0.390
71285W        W36446  15.364   3.172   0.528
71286W        W36447   9.450  22.336   1.585
71287W        W36448  10.877  23.068   3.146
71288W        W36449   2.709  30.009  12.969
71289W        W36450  35.441  21.853   3.836
71290W        W36451  22.979   2.941   0.906
71291W        W36452   8.053   9.671   2.126
71292W        W36453  31.072   1.839   3.658
71293W        W36454  15.851   3.263  11.651
71294W        W36455  44.802  15.667   0.839
71295W        W36456  16.619   8.958  11.306
71296W        W36457  27.926  43.651  13.442
71297W        W36458  37.591  43.770   4.533
71298W        W36459  33.581   0.314   1.754
71299W        W36460   9.820  21.907   2.826
71300W        W36461  16.305  23.878  11.136
71301W        W36462   5.726  19.798   0.887
71302W        W36463  19.555  17.489  14.511
71303W        W36464   8.851  41.789  14.306
71304W        W36465  17.959  31.985   4.479
71305W        W36466  44.247  25.199  12.575
71306W        W36467   6.321  40.845   3.645
71307W        W36468  21.469  17.124   3.349
71308W        W36469  29.540  12.015  12.896
71309W        W36470  21.939  24.312   3.921
71310W        W36471  26.696   2.381  12.065
71311W        W36472  19.076   7.975  14.734
71312W        W36473   4.718  41.883   2.491
71313W        W36474  17.288   6.410   2.876
71314W        W36475  27.199  26.238   3.726
71315W        W36476  15.119  41.198  12.570
71316W        W36477   2.350  18.287   1.925
71317W        W36478  24.766  26.186  14.873
71318W        W36479  39.057  28.229  10.965
71319W        W36480  30.967  15.069   2.188
71320W        W36481  38.357  28.957  12.025
71321W        W36482   0.782  27.030   2.918
71322W        W36483  31.476   8.826   4.750
71323W        W36484  17.814   0.022  13.648
71324W        W36485  33.571  33.094  13.513
71325W        W36486  32.339  24.955  13.967
71326W        W36487   5.339  17.671   2.513
71327W        W36488  39.882   7.285   2.786
71328W        W36489  28.877  34.934   2.205
71329W        W36490  22.250  17.712   3.480
71330W        W36491   1.012  10.864   4.124
71331W        W36492  40.155  28.038   4.487
71332W        W36493  17.719  44.452  13.773
71333W        W36494  15.662  27.691  13.514
71334W        W36495  42.233   3.136  14.453
71335W        W36496  33.388   0.427   3.077
71336W        W36497  15.044  29.942  14.271
71337W        W36498  15.375  34.873   0.042
71338W        W36499  16.151   5.368  10.647
71339W        W36500  35.486  44.290  14.844
71340W        W36501   1.389  19.227  12.527
71341W        W36502  41.772   4.869   2.091
71342W        W36503  39.401  41.341  13.362
71343W        W36504  36.866  31.876  14.342
71344W        W36505  17.121  30.530  14.808
71345W        W36506  42.927  43.608  12.174
71346W        W36507   6.781  12.008   4.145
71347W        W36508  21.088  38.307  13.281
71348W        W36509  42.852  25.092  10.805
71349W        W36510  23.505  40.887  11.086
71350W        W36511   6.782  38.028   3.806
71351W        W36512  37.598  34.426  11.620
71352W        W36513  24.482  32.508  10.585
71353W        W36514  19.298  17.951  13.582
71354W        W36515  13.063  17.714   4.137
71355W        W36516   2.327  35.500   3.081
71356W        W36517  27.040  23.598   3.203
71357W        W36518  10.340   7.125   4.551
71358W        W36519  36.384  12.239  10.623
71359W        W36520  28.137  25.087  14.897
71360W        W36521  31.197  28.020   0.810
71361W        W36522  37.915   7.316   1.381
71362W        W36523   6.894   5.804   4.446
71363W        W36524  19.322  21.210   2.653
71364W        W36525  27.680  33.680  13.387
71365W        W36526  10.742  20.534   2.402
71366W        W36527  29.522  34.051   4.727
71367W        W36528  18.181   7.668  14.265
71368W        W36529  33.892  38.026  14.955
71369W        W36530  30.763  36.390  11.255
71370W        W36531   1.671  38.356  14.317
71371W        W36532  26.583  43.301   5.057
71372W        W36533   7.987  18.665   1.744
71373W        W36534   8.144  23.976  11.025
71374W        W36535  34.511  30.498   1.169
71375W        W36536   9.724  14.951  14.836
71376W        W36537  44.954  36.359   0.857
71377W        W36538  29.724  18.130   3.785
71378W        W36539  24.593  20.579   3.115
71379W        W36540   1.202  22.737  12.553
71380W        W36541  32.685  14.763   4.429
71381W        W36542   4.600   1.090  13.421
71382W        W36543  34.430  17.089  14.982
71383W        W36544   4.370  32.358   1.263
71384W        W36545  11.599  36.315   0.974
71385W        W36546   8.617  32.761   4.074
71386W        W36547  10.871  26.264   5.088
71387W        W36548  38.044   6.710  12.473
71388W        W36549  23.197   9.252   2.319
71389W        W36550  27.986  15.809  11.106
71390W        W36551  28.054  33.821   1.388
71391W        W36552   1.532  43.376   2.743
71392W        W36553  22.228  10.657   0.322
71393W        W36554   3.356   5.987  12.547
71394W        W36555   1.987  31.398   1.449
71395W        W36556  23.778  31.381   3.213
71396W        W36557  16.090  25.702   3.884
71397W        W36558  36.091  16.564   1.213
71398W        W36559  42.233  43.727  13.332
71399W        W36560  39.845   6.868  11.203
71400W        W36561  39.039  32.002   3.640
71401W        W36562   3.386  10.763  14.262
71402W        W36563  19.381  10.213  12.056
71403W        W36564  24.982  11.015   1.658
71404W        W36565  23.000  33.942   3.277
71405W        W36566   1.055   8.838  10.670
71406W        W36567  18.168   2.728   4.013
71407W        W36568  10.105  39.019  13.121
71408W        W36569  32.345   5.965  11.968
71409W        W36570  26.721  43.375  11.576
71410W        W36571  41.026   3.205   5.013
71411W        W36572  44.391  39.914   0.476
71412W        W36573  31.050  14.372   5.043
71413W        W36574  34.572  20.290   3.174
71414W        W36575  41.971  19.256   1.405
71415W        W36576  42.463  15.827   1.720
71416W        W36577   9.174  17.500  12.557
71417W        W36578  40.963   1.999   0.671
71418W        W36579  37.846  19.521  13.455
71419W        W36580  43.766  22.267   1.067
71420W        W36581   0.961  39.884  13.566
71421W        W36582  29.803  16.570   0.773
71422W        W36583  30.652  19.757   1.864
71423W        W36584  34.496  24.544  13.352
71424W        W36585  25.509  33.450  11.694
71425W        W36586  33.496  28.536  14.012
71426W        W36587  32.362   3.750  11.122
71427W        W36588   5.919  27.647  14.921
71428W        W36589   0.384  43.663  10.727
71429W        W36590  33.363  29.175  14.879
71430W        W36591  32.697  38.895   0.258
71431W        W36592  43.872  10.792  14.512
71432W        W36593  32.682  18.528  11.597
71433W        W36594  39.312  13.367  11.113
71434W        W36595  37.036  12.296   4.628
71435W        W36596  23.330  27.181   2.614
71436W        W36597  37.058  17.971  11.171
71437W        W36598   8.469  24.021  13.464
71438W        W36599   3.196  40.990   3.213
71439W        W36600  12.971   2.172  13.491
71440W        W36601  34.461  12.160   0.013
71441W        W36602  19.324  43.899   2.741
71442W        W36603   3.964  39.600   2.270
71443W        W36604   9.888  22.227  14.963
71444W        W36605  17.555  35.443   1.226
71445W        W36606   4.009  30.191   1.823
71446W        W36607   5.344  23.926  14.065
71447W        W36608  25.927  27.964  11.471
71448W        W36609   5.813  33.728   1.244
71449W        W36610   8.288  18.583   2.683
71450W        W36611  28.379  22.935  14.111
71451W        W36612  35.063  10.870   4.247
71452W        W36613  33.006  29.230  12.465
71453W        W36614  24.177   7.428   2.133
71454W        W36615  21.681  12.539  14.377
71455W        W36616  11.094  33.534   1.444
71456W        W36617   7.022   9.495  14.059
71457W        W36618  13.064   8.293  11.515
71458W        W36619   1.441  43.990   3.576
71459W        W36620  13.768  43.784  14.753
71460W        W36621   5.255   5.642   1.463
71461W        W36622   5.341   1.906  10.528
71462W        W36623  15.552  26.980  11.022
71463W        W36624  23.294  14.729   3.277
71464W        W36625  28.116  34.983  14.340
71465W        W36626  43.279   5.213  11.782
71466W        W36627  28.621   5.051  12.183
71467W        W36628   8.854  25.943   4.430
71468W        W36629  26.284  18.093  14.235
71469W        W36630   9.370  16.237   4.115
71470W        W36631  37.176  27.698  11.160
71471W        W36632  14.344  16.511   1.728
71472W        W36633  29.197  30.976   2.230
71473W        W36634  11.179   0.309   2.292
71474W        W36635   7.679  42.056  14.960
71475W        W36636  18.718  13.891   0.892
71476W        W36637   6.719  21.870   2.120
71477W        W36638  43.017  11.931   5.117
71478W        W36639  41.804  22.273   4.965
71479W        W36640  22.570  17.056   0.958
71480W        W36641  35.055  38.433   2.686
71481W        W36642  44.819  14.644  11.529
71482W        W36643  43.204  11.115   1.799
71483W        W36644   7.918  35.505   4.523
71484W        W36645  27.239  42.523   1.228
71485W        W36646  26.766  14.173  14.429
71486W        W36647  15.513  42.434   3.773
71487W        W36648  29.087   2.923   3.623
71488W        W36649   8.286  36.354  13.027
71489W        W36650  44.295  33.069   1.857
71490W        W36651   8.459   6.811   4.327
71491W        W36652  20.127  19.376   4.130
71492W        W36653  28.114  34.707   3.694
71493W        W36654  28.260  34.919  11.509
71494W        W36655   6.857  21.494  10.563
71495W        W36656  17.246  13.681   1.567
71496W        W36657  31.117  21.656  14.717
71497W        W36658  37.512  23.138   0.712
71498W        W36659  34.075  38.346  12.097
71499W        W36660  44.504  17.704   4.898
71500W        W36661  40.562  10.453   0.109
71501W        W36662   5.600  19.621   4.293
71502W        W36663   6.468  37.365  12.647
71503W        W36664  23.523  23.279   1.445
71504W        W36665  28.224  30.683   3.642
71505W        W36666  38.631  40.242  11.924
71506W        W36667  18.904  32.535   0.025
71507W        W36668  31.040  19.994   0.314
71508W        W36669  31.214  27.721  14.960
71509W        W36670  38.436  24.461   4.875
71510W        W36671  32.110  20.215   3.318
71511W        W36672  34.754  21.045   4.401
71512W        W36673  11.592   2.859  11.573
71513W        W36674  43.049   2.464   4.134
71514W        W36675  34.293  20.498   0.469
71515W        W36676  13.608  24.151  10.728
71516W        W36677   2.352  16.392   4.543
71517W        W36678  38.647  19.265   4.913
71518W        W36679  16.013  13.712  14.981
71519W        W36680  17.156  24.695  14.951
71520W        W36681   9.143  35.563  13.338
71521W        W36682  12.372   8.174   2.815
71522W        W36683   0.963  38.522  14.826
71523W        W36684  12.631  29.414  14.450
71524W        W36685  18.001  21.519  11.112
71525W        W36686  29.711  18.515  11.101
71526W        W36687  12.769  13.809   4.025
71527W        W36688  11.800  28.545  13.128
71528W        W36689  36.619  30.403   3.571
71529W        W36690  22.522  39.788   4.576
71530W        W36691  29.122  12.788  10.288
71531W        W36692  12.388   2.972   3.578
71532W        W36693  41.228  26.526  12.155
71533W        W36694  37.813  13.720   2.442
71534W        W36695   1.709  32.103  11.449
71535W        W36696  31.674  25.340   1.251
71536W        W36697   6.859  21.264  13.026
71537W        W36698  40.944   3.827   4.467
71538W        W36699   7.433  13.650   3.515
71539W        W36700  23.969  25.909   0.810
71540W        W36701  14.466   3.723  14.442
71541W        W36702   5.330   1.526   1.913
71542W        W36703  36.344   6.812  14.731
71543W        W36704  31.921  43.985   4.734
71544W        W36705  11.608  36.534   4.084
71545W        W36706   5.312  15.148  14.213
71546W        W36707   5.888  24.446  11.557
71547W        W36708   0.091   0.746  14.631
71548W        W36709  26.411  43.811  14.208
71549W        W36710   3.429  36.587   2.666
71550W        W36711  22.654   4.551   0.584
71551W        W36712  24.442   3.256  12.501
71552W        W36713   5.424  29.605  13.037
71553W        W36714  29.385  17.818   4.078
71554W        W36715  18.492   5.760  12.006
71555W        W36716  37.168  19.562  10.336
71556W        W36717  25.172  40.319   4.071
71557W        W36718  35.091  41.165  11.861
71558W        W36719  36.908  35.270   4.171
71559W        W36720   9.805   2.685   0.757
71560W        W36721   9.881  43.495  13.025
71561W        W36722  35.586  20.585  11.095
71562W        W36723  42.174  24.564  12.074
71563W        W36724  15.539  28.645  13.295
71564W        W36725  22.714   6.910  13.016
71565W        W36726   0.414  40.356  11.528
71566W        W36727  42.455  28.514  11.857
71567W        W36728  17.632  15.678  13.003
71568W        W36729  26.686   1.072   1.175
71569W        W36730  38.345  31.908   1.684
71570W        W36731  10.619  38.734  14.031
71571W        W36732  25.756  33.737   4.204
71572W        W36733   6.323  28.014   1.267
71573W        W36734  42.785   9.588  11.632
71574W        W36735   6.306  34.383   0.188
71575W        W36736  25.494  39.880  14.156
71576W        W36737   9.554  30.022   4.771
71577W        W36738   5.518  26.154   3.545
71578W        W36739   3.825  17.285  13.407
71579W        W36740  42.029  38.180   0.879
71580W        W36741  14.072   4.626   3.354
71581W        W36742  39.032  31.971  12.091
71582W        W36743  26.606   3.458   0.703
71583W        W36744  10.642  27.414   2.842
71584W        W36745  27.899   1.501   1.609
71585W        W36746   2.935  14.191   1.184
71586W        W36747  36.289   5.896  14.447
71587W        W36748   7.824  40.559  14.756
71588W        W36749  35.888  19.007  12.392
71589W        W36750  22.735  21.911  11.530
71590W        W36751  22.808  18.979  12.074
71591W        W36752   0.981  18.323   2.810
71592W        W36753  32.508   8.490   3.755
71593W        W36754  34.099  10.080   3.428
71594W        W36755  38.520   0.190   2.008
71595W        W36756  33.073  16.350   3.209
71596W        W36757   8.313  13.324   4.833
71597W        W36758  44.022  43.867   1.241
71598W        W36759   7.342  29.271   0.780
71599W        W36760  33.733  41.564  13.588
71600W        W36761  44.264   2.937  11.080
71601W        W36762  13.359  16.726   0.765
71602W        W36763   2.479  14.268  13.814
71603W        W36764  25.442   9.778   1.343
71604W        W36765   5.213  20.109  11.528
71605W        W36766  30.685  41.254  13.504
71606W        W36767  28.456   7.604   1.422
71607W        W36768  28.828  24.318   0.369
71608W        W36769  11.238  15.459  12.454
71609W        W36770  13.176  31.574   2.110
71610W        W36771  13.578  19.683   4.049
71611W        W36772  15.142  30.511  14.901
71612W        W36773  20.264  17.412  10.665
71613W        W36774  13.276  15.629   4.163
71614W        W36775  11.285   5.057  10.560
71615W        W36776  30.670  26.811   4.169
71616W        W36777   2.731  41.279  14.314
71617W        W36778  36.315  14.755  11.574
71618W        W36779  27.792  37.876   5.182
71619W        W36780   5.361  32.388  13.579
71620W        W36781  16.963   1.327  12.345
71621W        W36782  13.051  16.023   1.950
71622W        W36783  12.973   0.302   2.849
71623W        W36784  29.452  33.444   0.740
71624W        W36785  24.555  22.064   0.374
71625W        W36786  12.938  16.343   3.764
71626W        W36787  16.325   8.836  12.993
71627W        W36788  24.569  12.373   2.341
71628W        W36789  18.980  12.748   4.181
71629W        W36790  31.316  43.299   2.241
71630W        W36791  17.758   8.161  14.789
71631W        W36792  31.963  34.684   3.183
71632W        W36793  15.758   8.797  10.969
71633W        W36794  41.413  33.400   2.879
71634W        W36795  41.918  19.762  12.949
71635W        W36796  36.464   5.817  13.940
71636W        W36797  13.472   8.643  11.464
71637W        W36798  34.484   6.679   2.025
71638W        W36799   8.851   5.401  12.203
71639W        W36800   1.227  21.281  14.073
71640W        W36801  35.098  12.620   0.997
71641W        W36802  38.305  28.292  12.646
71642W        W36803   5.943  25.495  14.437
71643W        W36804  25.009  18.283  13.881
71644W        W36805  20.362  15.172  11.152
71645W        W36806  12.839  10.051   1.872
71646W        W36807   3.511   9.698   0.623
71647W        W36808  26.555  23.220  11.164
71648W        W36809   6.437  24.701  11.425
71649W        W36810  11.390  41.564   3.186
71650W        W36811   7.632  12.752  13.970
71651W        W36812  39.119  43.247  12.613
71652W        W36813   4.899  41.720  12.119
71653W        W36814  38.962   4.409   1.557
71654W        W36815   4.709  23.781  12.883
71655W        W36816  32.414  20.848   0.358
71656W        W36817  36.676  23.609   2.610
71657W        W36818   3.921  43.939  10.658
71658W        W36819  36.352   4.362  13.305
71659W        W36820  31.204  33.566  13.365
71660W        W36821  21.971  18.374  12.864
71661W        W36822   9.141  10.910  14.801
71662W        W36823  22.373  42.587   3.146
71663W        W36824  13.074  11.746   1.966
71664W        W36825  33.115  30.118  12.443
71665W        W36826  21.709  30.753   1.297
71666W        W36827  12.896  43.396   2.730
71667W        W36828  22.723  38.162   4.597
71668W        W36829  31.567  12.159  10.298
71669W        W36830  34.422  43.265   1.359
71670W        W36831   4.735  18.246  12.506
71671W        W36832  23.063   9.379   0.382
71672W        W36833  14.786  19.123  14.563
71673W        W36834  32.842  36.114   3.611
71674W        W36835  41.232  37.079  11.540
71675W        W36836  13.375   8.303   3.353
71676W        W36837  44.891   3.903   3.646
71677W        W36838  39.362  44.317   3.198
71678W        W36839  25.290  12.428   1.638
71679W        W36840  15.606  21.995   3.643
71680W        W36841   3.725   5.181   2.335
71681W        W36842  36.361  15.829  12.206
71682W        W36843  15.910  17.222  10.387
71683W        W36844  28.189  33.989  11.953
71684W        W36845   5.520  28.000  14.258
71685W        W36846   8.352  20.283   3.311
71686W        W36847  23.203  42.989   3.195
71687W        W36848  27.085  10.739   2.373
71688W        W36849  37.311  12.413   3.230
71689W        W36850  14.600  22.034  14.777
71690W        W36851  32.030   1.209  11.675
71691W        W36852  18.714  29.971  10.678
71692W        W36853  22.742  24.010  13.007
71693W        W36854  31.120  34.866  13.558
71694W        W36855  11.729  34.162   1.471
71695W        W36856  29.996  11.548  11.866
71696W        W36857  32.885  35.903  12.194
71697W        W36858   2.905  38.638  13.005
71698W        W36859   0.923  11.410  10.232
71699W        W36860  29.930  41.857   4.858
71700W        W36861  12.976  37.253  10.208
71701W        W36862  26.212  14.351  11.976
71702W        W36863   6.697  21.669   4.368
71703W        W36864   0.480  31.038   2.159
71704W        W36865  21.361   2.063  14.574
71705W        W36866   3.665   2.319   4.094
71706W        W36867  38.719  10.700  12.403
71707W        W36868  19.704   2.153   0.802
71708W        W36869  31.162  19.127   2.359
71709W        W36870  32.942   9.722  11.428
71710W        W36871  11.552  38.311  14.573
71711W        W36872  39.508   8.823   3.310
71712W        W36873  43.704   7.359  14.418
71713W        W36874  14.679  29.866  13.696
71714W        W36875   7.352  21.802   3.104
71715W        W36876   3.655   8.846  10.783
71716W        W36877  19.025  26.924   0.034
71717W        W36878  27.531   7.150  11.648
71718W        W36879   1.262   5.364   2.138
71719W        W36880   1.816  16.748  14.474
71720W        W36881  25.714  22.875  11.612
71721W        W36882  16.794  41.973  14.003
71722W        W36883   5.368   4.317  12.064
71723W        W36884  16.359  11.302   3.927
71724W        W36885  10.083  39.904  10.462
71725W        W36886  40.511  21.717   1.702
71726W        W36887   5.920  21.771  12.543
71727W        W36888  27.051  11.357  12.908
71728W        W36889   4.414  25.817   1.714
71729W        W36890   3.469  44.272  11.930
71730W        W36891  21.838  25.193   1.755
71731W        W36892  24.777  31.134   1.139
71732W        W36893  16.879  22.490  12.950
71733W        W36894  15.373  26.130  14.943
71734W        W36895  22.010  26.690  11.554
71735W        W36896  11.875  41.448   0.779
71736W        W36897  44.448  37.083   2.720
71737W        W36898  15.071  33.368  14.357
71738W        W36899  27.635  24.437   0.946
71739W        W36900  15.906   6.729  11.183
71740W        W36901   5.100  16.101   1.152
71741W        W36902  36.285  31.548   1.015
71742W        W36903  28.397  44.739  11.485
71743W        W36904  40.328  33.666  10.942
71744W        W36905   6.839  29.142  13.824
71745W        W36906  27.203  21.551   2.790
71746W        W36907   5.831   5.529  12.947
71747W        W36908  33.918  21.609  10.455
71748W        W36909  36.445  38.502  13.713
71749W        W36910  15.121  37.752   3.722
71750W        W36911  31.065  34.038   2.149
71751W        W36912  39.934  28.242   4.069
71752W        W36913  16.007  41.966   0.277
71753W        W36914  14.391   7.896   0.078
71754W        W36915  41.186  39.194  12.483
71755W        W36916  40.702  37.711   9.611
71756W        W36917  30.449   5.334  10.756
71757W        W36918  36.446  38.832  10.698
71758W        W36919  37.097  43.390   0.495
71759W        W36920  13.082  23.598   4.821
71760W        W36921   1.322  27.746  14.687
71761W        W36922   8.821   3.898   4.184
71762W        W36923   9.332  36.970   0.203
71763W        W36924   9.417  25.381   1.717
71764W        W36925  16.240   4.129  11.395
71765W        W36926  27.709  43.010   1.724
71766W        W36927  23.040  18.101  10.712
71767W        W36928  37.191   6.403   1.377
71768W        W36929  41.393   3.891  10.609
71769W        W36930   8.875  13.842   4.169
71770W        W36931  20.993  11.801   0.912
71771W        W36932   9.923  12.634   2.979
71772W        W36933  16.116   7.930  12.871
71773W        W36934  18.619  13.021  12.153
71774W        W36935  36.645  17.749  11.623
71775W        W36936  27.167  29.402  11.564
71776W        W36937  25.163  31.960  11.901
71777W        W36938  27.371  36.333   0.232
71778W        W36939  37.171  33.103  13.487
71779W        W36940  37.411  18.759   0.365
71780W        W36941  37.389  42.623  14.969
71781W        W36942   8.794  14.737  11.384
71782W        W36943  27.139  41.987  14.484
71783W        W36944  27.075   5.984   4.591
71784W        W36945  40.292   7.857  13.125
71785W        W36946   0.857  17.954  12.447
71786W        W36947  28.495   7.866   0.977
71787W        W36948  33.414  13.846   2.275
71788W        W36949  28.931   9.809   4.064
71789W        W36950  40.246   3.297   9.954
71790W        W36951  26.212  31.605   2.379
71791W        W36952   9.064  12.032  10.493
71792W        W36953   1.518  27.613   2.766
71793W        W36954   5.403  22.087  14.514
71794W        W36955  34.568   9.248   3.643
71795W        W36956   6.859  18.319   4.485
71796W        W36957  21.156  23.362  10.772
71797W        W36958  37.875  40.974   3.719
71798W        W36959  16.485  12.760  13.036
71799W        W36960  36.958  12.079  12.088
71800W        W36961   6.140   5.825  13.233
71801W        W36962   1.555  37.865   2.404
71802W        W36963  42.957   0.496   1.223
71803W        W36964   5.625  25.514   2.171
71804W        W36965  22.100  31.931  14.838
71805W        W36966  28.658  30.402  10.623
71806W        W36967  20.270  14.676  11.335
71807W        W36968  32.369  10.847  12.541
71808W        W36969  19.620  30.399   4.809
71809W        W36970   0.523  18.464   3.238
71810W        W36971   2.443  18.334   5.260
71811W        W36972   3.888  30.077   4.394
71812W        W36973  42.720  40.348   1.620
71813W        W36974   8.082  27.413  13.858
71814W        W36975  39.083  28.647   1.400
71815W        W36976  41.245  42.777   0.944
71816W        W36977  40.310  27.054  13.107
71817W        W36978  35.617  28.144  14.198
71818W        W36979  38.706  14.791   2.949
71819W        W36980  25.471  35.506  12.503
71820W        W36981  38.900  18.367  13.404
71821W        W36982  21.496  25.589  10.657
71822W        W36983   4.123  31.991   5.145
71823W        W36984  14.116   8.798  12.024
71824W        W36985  26.536  30.730  13.078
71825W        W36986  31.727  24.446   0.401
71826W        W36987  21.195  44.358   1.705
71827W        W36988   8.805  35.264   0.479
71828W        W36989   7.853  29.135   1.017
71829W        W36990  17.398   7.829   0.257
71830W        W36991  23.617  41.110   3.308
71831W        W36992   3.391  14.340   2.790
71832W        W36993   3.362  27.187   4.360
71833W        W36994  13.089  34.007  12.149
71834W        W36995  30.718  19.265  12.522
71835W        W36996  10.204  12.202  10.569
71836W        W36997  32.564   3.024  14.013
71837W        W36998  20.644  12.283  14.344
71838W        W36999  23.599  14.815   2.259
71839W        W37000   8.430  23.697   4.512
71840W        W37001  17.107  44.896   1.452
71841W        W37002  28.154   0.321  13.430
71842W        W37003   8.800  43.038   3.353
71843W        W37004  25.721  23.029   3.146
71844W        W37005  33.071  33.558   4.166
71845W        W37006  11.856   0.957  14.822
71846W        W37007  35.786  31.647  13.806
71847W        W37008   0.504  33.165  12.581
71848W        W37009  30.509  30.094  11.075
71849W        W37010  35.879  26.908  13.702
71850W        W37011   0.914  10.212  14.144
71851W        W37012  29.604  30.601   0.506
71852W        W37013  16.120  28.621  13.322
71853W        W37014  29.247  23.168   1.768
71854W        W37015  37.952   1.757   1.011
71855W        W37016  32.957  17.571   4.392
71856W        W37017  33.984   9.602  13.258
71857W        W37018  33.114  22.723  11.217
71858W        W37019  33.355   9.821   1.802
71859W        W37020   3.414  23.999   1.664
71860W        W37021  34.995  32.938   3.677
71861W        W37022  16.900  39.831   4.917
71862W        W37023  24.304  42.455   1.274
71863W        W37024  21.127  13.028   2.585
71864W        W37025  17.577   4.302  11.599
71865W        W37026  32.165  41.763   1.646
71866W        W37027   3.995  29.473  12.849
71867W        W37028   8.714   2.037   2.924
71868W        W37029  44.350  41.741   1.879
71869W        W37030  33.689   7.530   3.689
71870W        W37031  19.595  24.412   1.350
71871W        W37032  36.722  14.076   1.565
71872W        W37033  14.074  40.365   2.760
71873W        W37034  17.633  23.923   3.654
71874W        W37035  21.012   1.045   1.696
71875W        W37036   8.120  15.607  12.402
71876W        W37037  13.385  25.030  11.357
71877W        W37038  22.424  26.472   0.289
71878W        W37039  11.383  33.992   0.280
71879W        W37040  14.632  43.881   4.286
71880W        W37041  33.119  41.737  12.374
71881W        W37042  13.512  18.603  14.587
71882W        W37043  27.432   5.245  11.453
71883W        W37044  35.946  38.679  13.913
71884W        W37045  40.428  39.796   2.445
71885W        W37046  14.688   7.348   0.929
71886W        W37047   4.242  43.342  14.522
71887W        W37048  24.145   6.865  11.143
71888W        W37049   7.248  42.342   3.218
71889W        W37050  10.333   8.360   4.248
71890W        W37051  23.712  26.404  14.281
71891W        W37052  40.415  26.638   4.590
71892W        W37053   7.046  29.977  12.531
71893W        W37054  34.368  10.394  14.415
71894W        W37055  37.111  13.619   1.919
71895W        W37056   1.647  10.152   1.173
71896W        W37057   6.906  13.078   2.290
71897W        W37058  19.189  26.716  11.190
71898W        W37059  36.394  39.588   0.088
71899W        W37060   0.338  34.822  13.944
71900W        W37061  36.573  26.224  14.317
71901W        W37062  39.860  11.866  12.384
71902W        W37063  29.671  11.672   0.942
71903W        W37064  27.125  28.892  11.655
71904W        W37065  11.026  26.006  13.424
71905W        W37066  22.165   5.798   2.441
71906W        W37067  30.499  41.851   4.532
71907W        W37068   0.410  43.357  14.166
71908W        W37069   5.394  35.350   4.907
71909W        W37070  25.555  10.551   4.498
71910W        W37071  26.813  19.497   4.998
71911W        W37072  29.306  35.570  12.022
71912W        W37073  29.442  20.632  12.729
71913W        W37074   0.409  23.961   0.293
71914W        W37075  18.049   0.055  11.129
71915W        W37076  30.756  34.058  12.654
71916W        W37077  38.308  35.359  11.158
71917W        W37078  13.849  40.441  12.498
71918W        W37079  34.470  17.755  10.746
71919W        W37080   9.261  43.247  14.736
71920W        W37081  12.382   6.964  13.693
71921W        W37082  33.292  22.153  12.415
71922W        W37083  39.841  37.498  13.325
71923W        W37084  11.142   3.375  12.598
71924W        W37085  15.629   3.213   1.839
71925W        W37086  20.600  10.788   1.068
71926W        W37087  19.550  10.608  10.672
71927W        W37088  31.465  28.708   1.250
71928W        W37089  19.555  13.774   4.694
71929W        W37090  29.911  35.606  11.183
71930W        W37091  30.517   0.739   0.341
71931W        W37092   5.655  43.902  11.164
71932W        W37093  37.446  28.018  13.305
71933W        W37094  20.982  32.818   2.275
71934W        W37095  35.022  14.625  12.042
71935W        W37096  34.946   7.845   0.402
71936W        W37097  36.108   0.348  13.105
71937W        W37098   6.033  41.493   4.797
71938W        W37099  15.834  36.526  12.929
71939W        W37100   9.772  38.452  12.675
71940W        W37101  27.602  35.249   1.884
71941W        W37102  15.633  14.099  13.036
71942W        W37103  41.793  11.355   4.845
71943W        W37104  31.513  13.207   4.176
71944W        W37105  39.816  20.160  12.458
71945W        W37106   9.938  21.967  12.014
71946W        W37107   2.914  18.992   0.950
71947W        W37108  28.042  18.161   2.872
71948W        W37109  14.244   3.254  12.977
71949W        W37110  43.485   6.681  11.124
71950W        W37111  25.650  11.636  12.477
71951W        W37112  44.835  33.652   3.598
71952W        W37113  42.213   3.446  12.536
71953W        W37114   3.954  36.041  12.914
71954W        W37115  42.093   3.911  12.758
71955W        W37116  11.807  13.285   1.957
71956W        W37117  33.812  38.984   2.886
71957W        W37118  25.154  15.577  11.020
71958W        W37119  20.644   0.591  13.345
71959W        W37120  13.714  35.508  14.967
71960W        W37121  44.259   0.892   1.927
71961W        W37122  39.583  19.602  10.695
71962W        W37123  40.089  25.950   4.902
71963W        W37124  12.597  37.532  12.116
71964W        W37125  44.764  38.554   4.935
71965W        W37126  27.443  30.137  13.929
71966W        W37127  17.794  23.799  14.229
71967W        W37128  36.522   1.195  11.868
71968W        W37129  39.263   7.151  12.522
71969W        W37130  40.429   5.658   2.708
71970W        W37131   0.712   1.648  14.447
71971W        W37132  42.364  34.526  13.313
71972W        W37133   6.330  33.702   1.898
71973W        W37134   0.529  18.977   3.252
71974W        W37135  42.952  23.110  13.808
71975W        W37136   4.356  23.710   3.096
71976W        W37137  19.646   3.567   4.863
71977W        W37138  37.657  13.626   3.312
71978W        W37139   8.437   3.232  14.934
71979W        W37140   2.996  21.309   2.294
71980W        W37141  18.753  24.502   2.333
71981W        W37142  30.569   3.468   3.639
71982W        W37143   1.785  10.737   1.458
71983W        W37144  24.499  43.986  11.263
71984W        W37145  34.021   7.195  13.534
71985W        W37146  26.427  28.636  13.499
71986W        W37147  40.062   5.955  10.907
71987W        W37148   6.303   3.831  14.113
71988W        W37149  42.953  19.228  11.706
71989W        W37150  31.929  15.059   0.841
71990W        W37151   9.164   7.904  10.888
71991W        W37152  25.621  38.748  13.976
71992W        W37153   0.042   4.242   1.744
71993W        W37154  13.780  42.832  12.070
71994W        W37155  37.968  18.365   2.200
71995W        W37156   1.839  11.401   4.127
71996W        W37157  12.066  25.285  13.167
71997W        W37158  34.017  21.586   4.601
71998W        W37159  37.129   1.884  14.429
71999W        W37160  28.260   3.252  12.166
72000W        W37161   2.074  36.234  14.291
72001W        W37162   9.284  23.119  11.471
72002W        W37163  22.724  40.910   2.093
72003W        W37164  13.476  22.153   1.704
72004W        W37165  17.850  31.073   3.171
72005W        W37166  40.920  14.559  14.941
72006W        W37167  17.007  40.050  14.898
72007W        W37168   7.313  14.101   0.823
72008W        W37169  18.225  31.542   1.748
72009W        W37170  37.994  39.526  12.130
72010W        W37171  40.349   9.654   3.071
72011W        W37172   8.722  31.860  14.634
72012W        W37173  13.784  24.218  11.384
72013W        W37174   4.510  11.251   1.643
72014W        W37175  26.517  33.571   2.732
72015W        W37176  33.637  36.154   4.678
72016W        W37177  36.838   6.942   0.993
72017W        W37178  28.467  14.613   4.089
72018W        W37179  40.922  30.607  13.112
72019W        W37180  22.440  37.909   1.650
72020W        W37181  34.824  19.122  12.564
72021W        W37182  15.709  32.907   3.254
72022W        W37183   1.640  44.117   2.609
72023W        W37184  32.597  32.822  13.357
72024W        W37185  33.419   1.032  11.620
72025W        W37186  34.592   0.571  13.385
72026W        W37187  21.317  12.623   3.834
72027W        W37188  34.366  28.224  12.150
72028W        W37189  10.419  17.219  10.269
72029W        W37190  40.979  28.118  12.253
72030W        W37191  29.279  10.994   3.166
72031W        W37192  22.539   4.649   4.614
72032W        W37193  44.880  29.601   4.722
72033W        W37194  21.044   6.779   0.258
72034W        W37195  10.141  21.277   0.740
72035W        W37196   7.291  43.723   4.651
72036W        W37197  18.671  19.080   1.334
72037W        W37198  38.827  16.121  10.822
72038W        W37199   8.425  24.064   2.365
72039W        W37200   0.710  31.088   3.212
72040W        W37201  24.259  14.625   2.973
72041W        W37202   9.626  14.652   1.300
72042W        W37203  21.200  43.502  13.386
72043W        W37204  12.158  41.901  11.914
72044W        W37205  37.307  31.458  11.651
72045W        W37206  41.775   2.314  13.494
72046W        W37207   3.028  43.008  13.329
72047W        W37208   8.649  40.615  12.212
72048W        W37209  22.980  29.602  14.188
72049W        W37210  21.476  18.623  13.843
72050W        W37211  42.520  21.476   4.065
72051W        W37212  18.151  42.525   2.180
72052W        W37213  41.898  14.716   1.754
72053W        W37214  28.599  32.099   1.418
72054W        W37215  25.066  44.170  11.616
72055W        W37216  37.874   6.686  13.860
72056W        W37217  33.817   5.690   1.296
72057W        W37218  37.914  38.798   2.769
72058W        W37219  40.548  42.365   1.303
72059W        W37220  25.784  42.345  13.950
72060W        W37221  43.947  26.369  13.352
72061W        W37222  31.389   3.435   2.920
72062W        W37223  23.020  21.144   4.963
72063W        W37224  32.466  12.503   3.578
72064W        W37225  36.128  29.704   0.717
72065W        W37226  28.717  40.113  12.462
72066W        W37227  31.179  39.102   2.682
72067W        W37228   2.239  21.714  11.119
72068W        W37229  39.539  12.289  12.493
72069W        W37230  36.564  16.801  13.521
72070W        W37231  19.273  16.014  13.347
72071W        W37232   4.959   5.405  14.767
72072W        W37233   6.423  39.209  10.954
72073W        W37234  14.644  17.229  12.520
72074W        W37235  20.276  11.116  13.319
72075W        W37236   8.016  36.422   0.256
72076W        W37237  13.805  24.131  11.874
72077W        W37238   9.184   5.862   3.247
72078W        W37239  41.501  36.870  10.147
72079W        W37240  34.983  13.664  11.047
72080W        W37241  23.694  40.604  11.487
72081W        W37242  38.515  11.368   3.290
72082W        W37243   8.794   3.182  14.529
72083W        W37244  14.350  35.678  11.626
72084W        W37245  25.765  18.768  14.387
72085W        W37246  19.175   2.433  11.636
72086W        W37247   7.416  18.915   0.340
72087W        W37248  38.872   0.444  14.856
72088W        W37249  29.955  44.500   0.420
72089W        W37250  41.046  29.009  12.964
72090W        W37251  34.180  21.066  12.416
72091W        W37252  22.724  23.965   2.207
72092W        W37253  33.905  29.072   0.988
72093W        W37254  16.883   0.950   4.904
72094W        W37255  19.318  11.937  10.550
72095W        W37256  21.022  28.913   0.260
72096W        W37257  16.621   7.673   2.746
72097W        W37258   1.132  41.535   4.634
72098W        W37259  15.044  26.016  10.513
72099W        W37260  22.760  33.338  13.093
72100W        W37261  12.732   2.664  13.364
72101W        W37262  42.933  17.073   2.780
72102W        W37263  28.611   9.493  11.929
72103W        W37264   5.357  33.136  14.886
72104W        W37265  11.192  20.588   2.678
72105W        W37266  28.938  30.529   2.204
72106W        W37267  27.629   9.173  11.121
72107W        W37268   8.565  29.655  10.827
72108W        W37269  43.340   8.269   3.454
72109W        W37270  28.600  11.503  13.856
72110W        W37271  29.146   6.655  13.576
72111W        W37272  16.069  24.292   0.794
72112W        W37273  28.506  18.253   2.117
72113W        W37274   9.876  11.282  11.423
72114W        W37275   3.239  24.093  12.998
72115W        W37276  10.360   1.568   3.621
72116W        W37277  32.710  11.019   2.330
72117W        W37278  33.065  25.429  14.855
72118W        W37279   6.266  31.816   0.289
72119W        W37280  12.920  12.127   1.142
72120W        W37281   9.747   1.972   3.710
72121W        W37282  23.303  29.425   3.727
72122W        W37283  17.774  28.194  12.468
72123W        W37284  15.804  21.719  10.719
72124W        W37285   7.420  11.825   2.772
72125W        W37286  34.651  36.143   0.869
72126W        W37287   6.661   9.898   4.972
72127W        W37288  24.142  32.353   0.458
72128W        W37289  29.970  28.453   1.239
72129W        W37290   7.011  31.586   2.834
72130W        W37291  32.533  15.299  13.778
72131W        W37292  36.703   6.652   2.426
72132W        W37293  14.804  17.827   1.305
72133W        W37294  13.635  16.274  12.479
72134W        W37295  36.465  25.452  11.370
72135W        W37296  13.463  28.502   4.604
72136W        W37297  22.441  40.106   2.702
72137W        W37298  36.577  19.759  12.443
72138W        W37299   8.036  24.210  14.361
72139W        W37300  37.706  19.175   0.293
72140W        W37301   8.172  33.605  13.982
72141W        W37302  27.924   3.200  11.704
72142W        W37303   4.734  29.788  12.573
72143W        W37304   7.798   3.902   2.097
72144W        W37305  19.279  21.235  14.111
72145W        W37306   6.340  42.955  13.913
72146W        W37307  11.157  25.743  12.957
72147W        W37308  30.159  43.206   2.591
72148W        W37309  37.765  18.206   2.650
72149W        W37310  28.984  44.373   1.982
72150W        W37311  34.755  22.913   1.872
72151W        W37312  11.115  21.758   1.915
72152W        W37313  38.044  23.068   0.420
72153W        W37314  21.054  35.982  13.982
72154W        W37315  25.991  35.263   2.383
72155W        W37316  34.971  41.225   1.975
72156W        W37317   5.310  12.909  14.674
72157W        W37318  29.431   1.400   3.613
72158W        W37319  15.608  22.545  11.113
72159W        W37320  38.927  14.461  14.242
72160W        W37321  32.563  24.229  13.328
72161W        W37322  13.081  32.543   1.395
72162W        W37323  43.513  38.503   0.070
72163W        W37324  22.813  26.541   0.709
72164W        W37325  33.399  12.729  13.103
72165W        W37326   1.420  17.101  14.389
72166W        W37327  25.642   7.000   3.198
72167W        W37328  44.925  29.969   3.660
72168W        W37329  24.188  11.308   1.968
72169W        W37330  11.581   8.566  10.203
72170W        W37331  12.657   3.243   3.185
72171W        W37332   7.300  41.407  11.256
72172W        W37333   7.442  31.687   0.810
72173W        W37334  16.621  29.017   4.083
72174W        W37335  28.258  39.570   1.676
72175W        W37336  12.224  42.900   0.891
72176W        W37337   8.013  43.268   4.260
72177W        W37338  37.582   7.647   2.787
72178W        W37339  39.774   3.744   3.096
72179W        W37340  35.351   3.730   0.415
72180W        W37341  40.567  34.581   2.723
72181W        W37342  13.364  34.798  11.585
72182W        W37343  23.990   4.739   1.346
72183W        W37344  10.522   4.857   1.357
72184W        W37345  22.239   4.993   2.775
72185W        W37346  13.296  12.302   2.922
72186W        W37347  33.200  41.956   3.233
72187W        W37348  23.999  43.534  12.480
72188W        W37349  27.568  20.977  11.772
72189W        W37350  16.238  15.196   4.158
72190W        W37351  17.099  43.903   1.924
72191W        W37352  37.037  39.772  12.500
72192W        W37353  16.144  23.660  14.427
72193W        W37354  41.710   4.835   2.621
72194W        W37355  29.549  32.613   4.581
72195W        W37356   1.395  39.756  13.810
72196W        W37357  38.139  22.141   2.677
72197W        W37358   3.281  24.818   1.398
72198W        W37359  38.547  39.763   4.118
72199W        W37360  30.457   0.520  10.560
72200W        W37361   9.055  35.386   4.231
72201W        W37362  10.122  16.989   0.296
72202W        W37363  32.115  33.893   0.778
72203W        W37364  27.943  32.566   4.437
72204W        W37365  37.731  25.465  13.121
72205W        W37366  32.558  17.158   3.128
72206W        W37367  31.414   1.357   2.371
72207W        W37368  22.114  23.462   3.139
72208W        W37369   9.835  31.889   0.275
72209W        W37370  35.059  16.178   4.505
72210W        W37371  19.088  19.957   3.739
72211W        W37372  40.889   5.002  12.448
72212W        W37373  32.509  17.601  10.711
72213W        W37374  31.524  21.416  13.016
72214W        W37375  38.070  35.436  14.050
72215W        W37376  28.780  36.512  11.913
72216W        W37377   7.097  27.906  14.017
72217W        W37378  12.836   1.766  11.404
72218W        W37379  23.630  24.989  10.714
72219W        W37380  32.420  39.305   0.411
72220W        W37381  16.645  11.875   3.033
72221W        W37382  37.636  23.303  12.025
72222W        W37383  23.439  42.512   2.264
72223W        W37384  32.113   0.787   5.139
72224W        W37385  43.774   6.670   4.730
72225W        W37386  32.674  23.630  14.474
72226W        W37387  42.349  16.791   1.284
72227W        W37388  29.982  39.403   0.774
72228W        W37389   0.732  27.219  11.127
72229W        W37390  13.079  11.691   4.096
72230W        W37391  36.132  37.449  14.018
72231W        W37392  26.579   9.125   1.781
72232W        W37393  26.092  33.322  12.379
72233W        W37394  40.351  12.108   1.803
72234W        W37395  33.967  25.698  14.470
72235W        W37396  24.738  13.246  13.447
72236W        W37397  17.135  14.050  12.020
72237W        W37398  24.578  32.380   2.832
72238W        W37399   4.176  28.100   3.250
72239W        W37400  27.564  31.957   0.329
72240W        W37401  36.057  37.042  10.572
72241W        W37402   4.042  27.394   1.292
72242W        W37403  21.260  30.001  13.425
72243W        W37404   5.096  22.760  11.868
72244W        W37405  10.621   1.394  10.785
72245W        W37406   8.869  27.788   1.679
72246W        W37407  25.180   2.562   2.289
72247W        W37408  30.697  27.750  14.094
72248W        W37409  35.589   5.562   1.449
72249W        W37410  30.992  42.482  13.838
72250W        W37411  12.752  36.147  13.574
72251W        W37412  28.874   4.843   0.455
72252W        W37413  18.116  15.253  12.529
72253W        W37414   4.962  32.025   3.251
72254W        W37415  17.618   7.912   3.556
72255W        W37416  21.041  37.407   3.369
72256W        W37417   3.963  31.515   1.666
72257W        W37418  21.600   9.671   3.778
72258W        W37419  20.552   5.340   2.712
72259W        W37420   8.154   6.486   2.556
72260W        W37421  22.124  19.079   2.139
72261W        W37422  30.586  40.799  11.100
72262W        W37423   6.449  26.262  14.888
72263W        W37424  27.156  35.394   1.632
72264W        W37425  11.197  11.093  13.767
72265W        W37426  34.595  11.223  12.101
72266W        W37427   1.943  43.852   3.466
72267W        W37428   4.838   9.514   4.343
72268W        W37429  37.484   6.403   3.298
72269W        W37430  37.909  28.334   0.064
72270W        W37431   1.824   9.754   2.336
72271W        W37432  27.973  26.028  14.551
72272W        W37433  13.780  17.355  10.681
72273W        W37434  42.019  36.890  10.114
72274W        W37435  35.255  43.274   2.716
72275W        W37436   6.259  39.606   4.529
72276W        W37437  28.086  31.406   0.403
72277W        W37438   1.065   3.737   3.189
72278W        W37439  33.217  33.755   2.684
72279W        W37440  14.260   5.699   2.048
72280W        W37441  40.799  22.913  11.944
72281W        W37442  39.099  18.622  14.749
72282W        W37443  16.720  29.195  14.662
72283W        W37444  41.132  42.783  10.991
72284W        W37445  43.888  17.034  10.535
72285W        W37446  36.392   2.420  12.006
72286W        W37447  26.476   3.294  11.697
72287W        W37448  23.220  42.995   2.354
72288W        W37449  16.789  41.521  10.163
72289W        W37450   1.352  26.287  13.125
72290W        W37451  22.441  31.309   4.278
72291W        W37452   3.439  34.928  14.335
72292W        W37453  28.337   0.031   2.000
72293W        W37454  41.576  44.721  11.681
72294W        W37455  43.701  27.982  12.162
72295W        W37456   5.938  26.494   2.703
72296W        W37457  18.037  40.583   1.958
72297W        W37458  29.524   8.070   4.965
72298W        W37459  40.818  25.398  13.335
72299W        W37460   0.459  21.100   0.375
72300W        W37461  35.846  15.225   4.376
72301W        W37462  31.142   6.155  11.614
72302W        W37463  22.835   6.922  13.831
72303W        W37464  42.999  27.908  14.862
72304W        W37465  36.909  42.458  11.468
72305W        W37466  15.899  41.016   2.030
72306W        W37467  38.594  21.228  11.058
72307W        W37468  41.935   4.450   1.346
72308W        W37469  15.259  29.470  13.040
72309W        W37470  38.538  27.291  13.534
72310W        W37471  44.010  19.650  14.153
72311W        W37472  33.467  29.583   2.226
72312W        W37473  23.375  37.620  10.295
72313W        W37474  42.573  43.892   3.710
72314W        W37475  22.517  27.932  10.803
72315W        W37476  11.358  25.033   0.654
72316W        W37477  27.505  25.130   1.765
72317W        W37478  29.951  29.463  13.020
72318W        W37479   9.414  28.519  14.958
72319W        W37480  11.569  33.038  12.896
72320W        W37481  29.434  20.310   0.283
72321W        W37482  23.126  16.798   3.268
72322W        W37483  16.105   8.947   0.489
72323W        W37484  27.546  11.072  12.995
72324W        W37485  11.691  11.008   2.207
72325W        W37486  42.550  28.496   4.189
72326W        W37487  44.286  29.397   9.937
72327W        W37488  31.895  30.193   3.005
72328W        W37489  42.969  19.068   0.063
72329W        W37490  25.045   6.453   3.657
72330W        W37491  19.560  42.245   4.004
72331W        W37492  29.228  29.171   3.847
72332W        W37493  22.172   6.026   4.535
72333W        W37494   6.797   8.314  14.336
72334W        W37495  42.832   6.537  13.850
72335W        W37496  25.024  18.650   2.232
72336W        W37497   4.577  38.348  10.890
72337W        W37498  18.534  28.591   4.612
72338W        W37499  18.892  22.707  10.775
72339W        W37500   3.529  35.520  10.727
72340W        W37501  31.032  35.349  13.431
72341W        W37502  17.219  37.106  14.552
72342W        W37503  32.057  30.274   2.518
72343W        W37504   7.918  27.522   0.749
72344W        W37505  34.439  17.021   1.757
72345W        W37506  39.592  12.570  14.861
72346W        W37507  36.039  13.371   2.774
72347W        W37508  26.451   1.804  10.239
72348W        W37509  17.670  16.075  13.365
72349W        W37510  16.263  34.998   3.324
72350W        W37511  15.853  16.856   0.213
72351W        W37512  13.632  40.470   1.479
72352W        W37513  27.295   8.306   3.695
72353W        W37514  19.931  44.446   0.327
72354W        W37515  23.203   3.691  11.535
72355W        W37516   5.917   9.423  13.466
72356W        W37517  26.067  11.865  10.350
72357W        W37518  25.877  14.212   0.468
72358W        W37519  22.290  41.967   0.758
72359W        W37520  38.041  32.590   0.785
72360W        W37521  12.381   1.038  13.920
72361W        W37522  13.253  38.295  14.801
72362W        W37523   8.304  32.383  10.351
72363W        W37524  43.005  39.377   0.081
72364W        W37525  33.988  35.656   1.237
72365W        W37526  20.612  37.947  14.442
72366W        W37527  35.352   9.799   3.446
72367W        W37528  23.934  28.111  13.420
72368W        W37529  12.303  17.790   3.659
72369W        W37530  12.145   9.882   1.242
72370W        W37531  11.204  27.577  13.922
72371W        W37532  24.976  31.097   2.368
72372W        W37533  38.069  42.588  13.276
72373W        W37534  13.359  22.825  12.032
72374W        W37535  29.753  38.176  10.185
72375W        W37536  24.485  12.696   0.744
72376W        W37537  29.669   8.442  12.138
72377W        W37538  22.164  30.101  12.166
72378W        W37539  38.132  11.683   3.383
72379W        W37540  22.135  36.617  10.688
72380W        W37541  16.622  17.464  14.553
72381W        W37542  25.570  14.739  14.386
72382W        W37543  14.243  30.495   2.306
72383W        W37544   3.985  20.289  11.698
72384W        W37545  39.353  10.250  11.972
72385W        W37546  29.700   2.853   4.834
72386W        W37547  27.114  31.575  12.867
72387W        W37548  24.742   2.344   2.784
72388W        W37549  32.463  16.707  14.993
72389W        W37550  21.389  17.403   0.714
72390W        W37551  38.709  35.049  12.399
72391W        W37552  10.346  31.333   4.631
72392W        W37553  22.591   6.523   4.573
72393W        W37554  43.452  23.694  11.576
72394W        W37555  26.124  39.203   1.422
72395W        W37556  28.974  26.664  11.907
72396W        W37557  22.942  38.902   3.652
72397W        W37558  19.627  32.063  11.272
72398W        W37559  37.946   5.497  10.589
72399W        W37560  10.075  26.018  14.346
72400W        W37561   6.655  35.334  12.585
72401W        W37562   0.401   9.778   0.322
72402W        W37563  42.046   6.827   3.804
72403W        W37564   3.465  36.667   0.267
72404W        W37565   9.381  28.913  14.020
72405W        W37566  30.893  32.183  11.834
72406W        W37567  20.280  43.882  12.497
72407W        W37568  11.735  11.138   0.980
72408W        W37569   8.955  12.888  13.508
72409W        W37570  19.686  35.252  12.773
72410W        W37571  11.659  39.582  13.355
72411W        W37572  22.306   4.927   0.670
72412W        W37573  27.138   2.968   3.719
72413W        W37574  40.868  32.781  14.608
72414W        W37575  43.876  36.515  12.133
72415W        W37576  35.012  24.205  12.080
72416W        W37577  24.923  29.581   4.554
72417W        W37578  14.626  26.079  12.954
72418W        W37579  11.935   8.126  13.383
72419W        W37580   1.865  44.220   1.227
72420W        W37581  13.459  37.248  11.701
72421W        W37582  33.900  44.749  11.008
72422W        W37583  31.382   6.219   4.464
72423W        W37584  35.843  24.179   4.895
72424W        W37585  38.518  35.134  14.007
72425W        W37586  40.628  40.414  14.851
72426W        W37587  39.647  33.897  14.278
72427W        W37588   0.255   8.191   0.425
72428W        W37589  40.360  14.258  12.451
72429W        W37590  25.477  24.505  12.393
72430W        W37591  24.635  27.170  13.987
72431W        W37592  31.595   0.198  14.521
72432W        W37593  22.837   1.903  12.626
72433W        W37594  24.716  22.298  11.688
72434W        W37595  21.180  29.065  10.910
72435W        W37596   9.278   3.943  12.641
72436W        W37597  14.505  32.481  12.243
72437W        W37598  25.788  40.470   5.080
72438W        W37599   1.898  33.499  14.571
72439W        W37600  29.372  38.394   0.720
72440W        W37601   9.859  17.613   0.435
72441W        W37602  16.292  33.051   0.711
72442W        W37603  13.988  30.397   3.698
72443W        W37604  37.417   1.532   0.631
72444W        W37605   0.774  34.502  10.951
72445W        W37606  17.516   6.923   0.440
72446W        W37607   6.255  31.420   1.531
72447W        W37608  30.651  29.655  14.246
72448W        W37609  10.098  13.167  11.525
72449W        W37610   1.393  15.450   4.614
72450W        W37611  25.304  30.396  13.310
72451W        W37612  40.893   0.440  10.728
72452W        W37613  17.096  31.867   0.394
72453W        W37614  39.002  20.841   3.616
72454W        W37615   0.532  37.119  13.209
72455W        W37616   4.676  23.282  12.978
72456W        W37617  22.448   3.409   0.210
72457W        W37618   0.512  34.445   1.803
72458W        W37619  12.779  21.544  11.073
72459W        W37620  39.399  34.489  13.937
72460W        W37621  19.243  19.059   2.158
72461W        W37622   9.315  12.251   0.029
72462W        W37623  25.857   1.691  13.148
72463W        W37624  43.518  13.597   3.231
72464W        W37625  36.705   2.200  13.368
72465W        W37626  15.647  42.074  12.837
72466W        W37627  27.118  24.732  11.956
72467W        W37628  24.677   4.598  10.040
72468W        W37629  35.587  30.263  12.434
72469W        W37630  27.144   5.814  14.828
72470W        W37631  42.184  11.249   2.885
72471W        W37632  16.035   6.462  12.851
72472W        W37633  41.456  25.066   3.184
72473W        W37634  18.601  25.615   1.387
72474W        W37635  29.909  44.927  13.539
72475W        W37636  42.785  12.812   1.289
72476W        W37637   8.845  30.538   4.623
72477W        W37638  20.490  11.957   0.803
72478W        W37639   8.078  25.690  12.476
72479W        W37640   9.871  39.469  12.992
72480W        W37641  29.009  34.405  13.803
72481W        W37642  27.892  22.527  14.921
72482W        W37643  15.427  16.525  11.441
72483W        W37644   9.023  11.741  11.319
72484W        W37645  44.952  21.707   0.481
72485W        W37646  22.823  25.114   0.400
72486W        W37647  18.706  37.771  10.930
72487W        W37648  28.005  19.492  11.548
72488W        W37649  17.187  24.287  10.224
72489W        W37650   4.474  25.010   4.460
72490W        W37651  27.237  43.242   1.729
72491W        W37652  16.181  16.811  10.225
72492W        W37653  39.448  33.327  10.999
72493W        W37654  36.994  37.033  10.907
72494W        W37655  37.737   8.570   2.723
72495W        W37656  11.437  20.300   0.385
72496W        W37657  36.661  44.395  14.158
72497W        W37658  43.596  43.765  11.496
72498W        W37659  25.284  44.625  12.502
72499W        W37660   8.643  35.842   2.767
72500W        W37661   8.058   5.410  11.178
72501W        W37662  39.009  42.738   4.093
72502W        W37663  31.541  36.384  10.794
72503W        W37664   6.404  28.512   3.804
72504W        W37665  14.883  34.691  13.917
72505W        W37666  28.641  29.581   0.285
72506W        W37667  31.742  21.304  13.499
72507W        W37668  37.942  29.548   1.128
72508W        W37669  33.638   5.552  13.923
72509W        W37670  18.251  31.618   4.812
72510W        W37671   8.860   5.978  11.790
72511W        W37672  19.961  31.549   1.885
72512W        W37673  30.458   8.127  11.732
72513W        W37674  25.113   9.999   5.460
72514W        W37675  38.138  22.722   1.846
72515W        W37676  32.421  29.202   4.143
72516W        W37677  39.802  37.904   2.809
72517W        W37678  39.354  39.891  14.630
72518W        W37679  32.846  40.827   3.038
72519W        W37680   8.754  25.692  13.536
72520W        W37681  14.188  43.684   3.596
72521W        W37682  13.611   6.884   2.541
72522W        W37683   5.117  33.153   1.735
72523W        W37684   2.424  44.653   5.037
72524W        W37685  21.663  13.805   2.427
72525W        W37686   3.225  39.353   1.767
72526W        W37687  43.365  32.212  13.314
72527W        W37688  37.820  34.476  10.270
72528W        W37689  22.290  21.790   0.687
72529W        W37690  42.543   4.825  12.399
72530W        W37691  22.505  34.628   3.287
72531W        W37692   2.178   6.655   3.133
72532W        W37693  42.091  11.986   0.844
72533W        W37694   3.634  37.516  10.547
72534W        W37695  22.172   2.732   3.366
72535W        W37696  19.319  16.306   3.145
72536W        W37697  13.318  33.255   3.272
72537W        W37698  37.023  19.447  14.582
72538W        W37699  37.464   4.823  11.590
72539W        W37700  17.801  37.042   3.686
72540W        W37701  42.890  30.036   3.053
72541W        W37702   9.810  29.882   1.367
72542W        W37703  32.172  36.895  14.409
72543W        W37704  13.056  17.822  13.321
72544W        W37705   5.760  37.581  12.195
72545W        W37706  21.521  31.909  13.126
72546W        W37707  20.008  25.466   3.610
72547W        W37708   9.852  39.479   0.304
72548W        W37709  18.936  26.884  14.244
72549W        W37710  26.063  35.865  12.846
72550W        W37711  17.364  44.336   1.798
72551W        W37712  24.508  29.656   3.635
72552W        W37713  19.128  21.400  11.207
72553W        W37714  28.845   5.295  13.835
72554W        W37715  30.988  29.971   3.384
72555W        W37716   6.956   4.392   0.463
72556W        W37717  12.621  40.811  13.902
72557W        W37718  42.582   4.185   4.584
72558W        W37719   9.121   7.393   2.892
72559W        W37720  44.468  26.460   1.194
72560W        W37721  24.729  42.504  12.524
72561W        W37722  28.146  31.923   0.275
72562W        W37723  34.120  44.781  14.935
72563W        W37724   3.328  43.212   3.198
72564W        W37725  15.136  43.423   1.015
72565W        W37726   5.381   4.351   4.184
72566W        W37727  29.700  10.442   3.228
72567W        W37728  24.290  32.404   1.834
72568W        W37729  30.208   5.209   3.992
72569W        W37730  30.963  13.621   0.840
72570W        W37731  19.585   6.653   1.467
72571W        W37732  33.604  34.058  11.901
72572W        W37733  18.190   8.482  13.883
72573W        W37734  40.460  21.281   2.565
72574W        W37735   9.404  44.873   2.148
72575W        W37736  32.896  26.227  11.501
72576W        W37737  37.657   4.622  11.058
72577W        W37738  43.802  39.113   2.096
72578W        W37739  10.262   9.426   0.840
72579W        W37740  41.855  27.431   3.774
72580W        W37741  24.919  34.850  13.030
72581W        W37742   8.876  17.036  10.909
72582W        W37743  14.817  15.253   0.471
72583W        W37744  44.975  16.891  12.622
72584W        W37745  20.131  28.905   4.182
72585W        W37746   0.068  25.281  11.055
72586W        W37747  36.760  34.601  13.936
72587W        W37748  26.271  37.646   2.020
72588W        W37749  31.722  36.839  12.487
72589W        W37750  26.174  44.082   1.977
72590W        W37751  43.343  13.726   1.808
72591W        W37752  17.533  12.156  13.288
72592W        W37753   4.431  10.054   4.850
72593W        W37754  31.536  12.688  14.027
72594W        W37755  16.155  38.648  13.463
72595W        W37756   6.802  37.769  13.331
72596W        W37757   6.380  20.708   1.655
72597W        W37758   4.995  39.298  14.436
72598W        W37759  22.561  12.557  13.467
72599W        W37760  27.015  23.014  12.967
72600W        W37761  29.633  20.001  13.873
72601W        W37762  38.621  23.877  12.956
72602W        W37763  36.659   4.164   0.318
72603W        W37764  30.974  21.527   4.955
72604W        W37765  38.897  41.526  13.467
72605W        W37766  25.153  37.305  13.265
72606W        W37767  27.933   7.412  13.015
72607W        W37768   5.759  44.498  12.917
72608W        W37769   6.584  39.377  11.411
72609W        W37770  22.233  26.151   1.769
72610W        W37771  26.830  37.705  10.725
72611W        W37772  20.003  35.826   3.729
72612W        W37773  37.605  24.097  13.033
72613W        W37774   8.958  13.321  12.804
72614W        W37775  43.245  33.916   0.447
72615W        W37776  23.232  30.916  14.873
72616W        W37777  26.038  13.205  14.883
72617W        W37778  11.381  35.376  12.754
72618W        W37779  30.066  25.173   4.671
72619W        W37780  23.730  25.241  12.139
72620W        W37781   2.591  44.276   4.273
72621W        W37782  34.189  10.984   4.522
72622W        W37783  13.299  15.203  13.830
72623W        W37784   5.405  31.114  10.082
72624W        W37785  34.999  27.080  11.854
72625W        W37786  10.671  14.173  12.569
72626W        W37787  18.107   6.020  10.812
72627W        W37788  30.875  44.006   2.586
72628W        W37789  31.827   7.323  12.254
72629W        W37790  38.934  29.142   2.154
72630W        W37791   1.771  26.106   0.785
72631W        W37792  30.111  44.265   2.175
72632W        W37793  24.998  38.045   2.268
72633W        W37794   6.645   1.324  12.009
72634W        W37795  37.401  39.281  13.908
72635W        W37796  42.483  44.920   4.585
72636W        W37797  30.195  43.860   1.253
72637W        W37798  35.615  30.054   4.195
72638W        W37799  43.848  25.113   2.341
72639W        W37800  35.075  42.216   0.946
72640W        W37801  44.539  17.257  14.876
72641W        W37802  16.628  14.218  12.842
72642W        W37803   5.763  38.028  14.354
72643W        W37804  35.830  24.211   2.183
72644W        W37805  40.490   3.328  11.993
72645W        W37806  44.791  18.494   3.836
72646W        W37807  32.414   0.392  11.196
72647W        W37808  23.586  39.356   1.823
72648W        W37809  42.950  10.053   2.494
72649W        W37810  27.773  12.717   4.222
72650W        W37811   9.146  40.539  12.356
72651W        W37812  23.559  34.377   0.681
72652W        W37813   6.868  34.562   1.766
72653W        W37814  37.292   0.787  11.062
72654W        W37815  17.803  11.211  11.150
72655W        W37816  14.035  10.013   2.214
72656W        W37817  41.273  44.979   2.687
72657W        W37818  43.591  20.033  12.062
72658W        W37819  25.012   7.329   1.940
72659W        W37820  21.403   6.829   1.430
72660W        W37821  24.236  12.049   1.181
72661W        W37822  11.214  10.577   3.426
72662W        W37823  24.234   4.689  10.332
72663W        W37824   0.270   0.922   3.785
72664W        W37825  40.307  19.918  14.297
72665W        W37826  33.381  32.885  13.073
72666W        W37827   9.285  25.505   1.209
72667W        W37828   9.874  39.297   1.310
72668W        W37829   3.429  39.716  14.148
72669W        W37830  12.456  35.506  14.241
72670W        W37831  16.610   7.873  12.726
72671W        W37832   8.027  29.581   9.948
72672W        W37833  32.929  27.840   2.664
72673W        W37834   1.733  26.997  12.577
72674W        W37835   0.863  29.045  12.433
72675W        W37836   7.865  25.640   1.006
72676W        W37837  37.531  35.443  12.378
72677W        W37838  39.889  41.569   3.138
72678W        W37839  11.400  40.511  11.929
72679W        W37840  12.337  17.475   4.850
72680W        W37841  11.119  19.001   1.675
72681W        W37842   2.677  27.976   1.714
72682W        W37843  34.627  15.099   2.275
72683W        W37844  11.131  37.341   2.256
72684W        W37845   1.803  42.993   1.877
72685W        W37846  36.472  35.541   3.908
72686W        W37847   7.916  39.994  13.569
72687W        W37848   8.882  33.454   3.186
72688W        W37849  29.514  36.741   0.927
72689W        W37850   1.595  29.768  14.922
72690W        W37851  30.118  43.963   3.355
72691W        W37852  30.388  33.381   2.428
72692W        W37853  43.848   3.577   4.012
72693W        W37854  17.120   9.716   1.502
72694W        W37855  38.337  26.033   4.469
72695W        W37856  40.384  11.476  13.974
72696W        W37857  14.280   2.550   4.526
72697W        W37858  15.573   4.441  10.279
72698W        W37859  14.337  32.194  12.666
72699W        W37860  16.562  13.373   2.274
72700W        W37861  38.837  13.483  10.804
72701W        W37862  32.996  44.266   4.159
72702W        W37863  37.137  39.231  14.379
72703W        W37864  26.084  23.724  12.125
72704W        W37865  34.300  34.390   1.111
72705W        W37866  13.134  27.680  14.449
72706W        W37867   2.673   5.768  13.273
72707W        W37868   3.432  42.851  13.648
72708W        W37869  19.688  29.946   4.592
72709W        W37870  44.719  30.144   3.180
72710W        W37871   4.163  42.417   4.064
72711W        W37872  37.256  11.883  12.451
72712W        W37873  33.512  17.765   3.108
72713W        W37874  16.028  19.008  13.892
72714W        W37875   9.927  22.743   3.351
72715W        W37876  44.014   0.357  11.666
72716W        W37877  23.081  43.371  14.364
72717W        W37878  18.022  26.884  13.851
72718W        W37879  14.567  16.160   0.460
72719W        W37880  24.537   3.851  14.583
72720W        W37881  16.396  30.392  14.370
72721W        W37882  31.422  15.959  14.434
72722W        W37883  39.057  14.092  12.901
72723W        W37884  27.597  36.339  14.747
72724W        W37885   5.689  35.957   1.273
72725W        W37886   5.837  43.544  11.490
72726W        W37887  41.521  11.660   1.269
72727W        W37888   7.432   2.562  14.318
72728W        W37889  34.136  28.383   1.717
72729W        W37890  40.097   4.242  13.276
72730W        W37891  19.954  34.073   2.174
72731W        W37892  32.309  31.935  10.738
72732W        W37893  12.765   8.073   4.217
72733W        W37894  20.102  25.206  13.182
72734W        W37895  14.965  41.195  10.284
72735W        W37896  13.869  26.082  14.946
72736W        W37897  35.946  30.190  13.991
72737W        W37898   4.784  33.614  11.077
72738W        W37899   5.431  20.690  14.752
72739W        W37900  21.548  18.639   1.752
72740W        W37901  11.849   7.916  12.577
72741W        W37902  23.997  24.620   2.408
72742W        W37903  32.405  25.452   3.611
72743W        W37904  24.027  31.193   2.349
72744W        W37905  31.940  22.036   4.817
72745W        W37906  35.879  38.011   4.063
72746W        W37907  26.964   3.476   4.606
72747W        W37908  23.411  29.187   1.484
72748W        W37909  10.891  41.404   3.020
72749W        W37910  27.880  29.584   1.333
72750W        W37911  23.062  16.244   4.080
72751W        W37912  43.101  33.472   1.750
72752W        W37913  43.299  13.079  11.187
72753W        W37914  36.497  44.023   3.276
72754W        W37915  33.072  40.353  12.315
72755W        W37916   6.285  18.308   4.224
72756W        W37917   1.329  40.795  11.437
72757W        W37918   4.962  19.710   3.752
72758W        W37919   0.974  21.929  10.169
72759W        W37920  34.179  29.398  13.114
72760W        W37921   4.753  18.341  13.478
72761W        W37922  41.577  43.962  14.540
72762W        W37923  11.865  12.744  14.051
72763W        W37924  30.362  15.467   2.867
72764W        W37925  40.393   0.993  13.829
72765W        W37926   1.182  25.135  12.180
72766W        W37927  44.992  38.461  13.277
72767W        W37928  42.036   4.849  12.490
72768W        W37929  10.873  34.430   0.176
72769W        W37930  34.027   8.762  12.724
72770W        W37931  12.282  24.223  13.301
72771W        W37932  38.542   7.512   2.632
72772W        W37933  19.780  38.832   4.248
72773W        W37934  25.661  36.857   0.507
72774W        W37935   6.939  23.466  11.504
72775W        W37936  15.319  18.983   3.837
72776W        W37937   5.213  20.931  11.399
72777W        W37938  40.059   1.708   2.465
72778W        W37939  22.190  12.784   0.058
72779W        W37940  25.947  38.545  12.019
72780W        W37941  29.998  30.479   3.171
72781W        W37942  36.635  36.508  11.085
72782W        W37943   6.757  33.864  12.547
72783W        W37944  19.807  16.694  13.318
72784W        W37945   7.999  34.444   4.752
72785W        W37946  33.891  34.407  12.334
72786W        W37947  15.899  18.354   1.770
72787W        W37948  22.099   5.194   0.262
72788W        W37949  23.160  36.005  11.178
72789W        W37950  25.930   7.020   0.461
72790W        W37951   9.626   2.896   1.670
72791W        W37952  33.468  43.813  11.025
72792W        W37953   7.886   1.576  11.277
72793W        W37954  41.364  19.385   2.397
72794W        W37955  30.082  34.504  11.522
72795W        W37956   6.838  14.444  13.566
72796W        W37957  36.557  36.130  13.327
72797W        W37958   6.964  12.151  12.424
72798W        W37959  17.304   4.301   2.619
72799W        W37960  21.308  38.639   5.027
72800W        W37961  18.236  16.636  12.322
72801W        W37962  39.397  12.878  10.963
72802W        W37963  41.456  44.257  12.028
72803W        W37964  17.164  39.633   0.834
72804W        W37965  20.611  26.727  13.001
72805W        W37966   3.584   6.731   1.335
72806W        W37967   4.148  40.270   3.124
72807W        W37968  16.708   8.870  14.846
72808W        W37969  35.277  26.654  13.504
72809W        W37970   4.187  15.323  12.939
72810W        W37971  23.242  27.741   2.156
72811W        W37972  12.088   8.412   4.075
72812W        W37973  16.342   7.729   0.004
72813W        W37974  15.743  12.856  10.745
72814W        W37975   5.062  28.469  13.032
72815W        W37976  18.107  27.086  13.373
72816W        W37977  12.680   0.954   2.758
72817W        W37978   4.503  17.738   4.630
72818W        W37979  26.531   2.011   5.126
72819W        W37980  19.984   4.797  11.936
72820W        W37981   2.915  24.085  10.057
72821W        W37982  26.999  41.864  13.796
72822W        W37983  18.778  38.828   2.020
72823W        W37984  10.028  23.371  11.907
72824W        W37985   0.775   7.646  10.768
72825W        W37986  30.639  14.665   3.289
72826W        W37987  18.872  23.674  10.839
72827W        W37988   2.958   0.218   2.146
72828W        W37989  31.597  17.226  11.638
72829W        W37990  44.485  20.501   0.958
72830W        W37991  13.258  11.184   4.830
72831W        W37992  32.279  21.303  13.530
72832W        W37993  34.574  20.344  12.061
72833W        W37994  44.758  23.681   0.542
72834W        W37995  26.698   6.345   3.346
72835W        W37996  26.522  41.388  11.177
72836W        W37997  20.596  23.461   4.647
72837W        W37998  19.580  41.277  12.666
72838W        W37999   8.865  38.340   0.796
72839W        W38000  36.524  44.255   2.827
72840W        W38001  21.001  44.818  10.935
72841W        W38002  25.618  24.042   3.211
72842W        W38003  20.394   4.969  14.846
72843W        W38004  40.212   4.455   0.408
72844W        W38005   5.459  20.732  13.287
72845W        W38006  23.934  21.013  11.196
72846W        W38007  11.698   1.007   4.831
72847W        W38008  19.881  31.539   3.758
72848W        W38009  26.736  20.242  11.191
72849W        W38010  29.262  21.664   2.330
72850W        W38011  21.571  31.983   4.317
72851W        W38012   0.795  34.371  14.195
72852W        W38013  24.783  39.575  14.713
72853W        W38014  41.121  42.400   0.186
72854W        W38015  12.869  35.910  10.464
72855W        W38016  42.117  41.881  11.686
72856W        W38017  14.154  23.518  11.084
72857W        W38018  22.061  26.333  10.278
72858W        W38019  43.997  14.363   3.713
72859W        W38020  36.690  27.594   4.798
72860W        W38021  40.037  14.517   0.142
72861W        W38022  42.781  19.214   3.359
72862W        W38023  38.234  19.589   3.643
72863W        W38024  11.382  33.180   4.580
72864W        W38025  30.113  29.696   0.742
72865W        W38026  44.423  18.867   2.759
72866W        W38027  44.949   6.223   3.564
72867W        W38028  32.115  18.465   4.542
72868W        W38029  20.627   9.763  13.550
72869W        W38030   6.953  22.105   4.182
72870W        W38031  33.789   1.083   2.553
72871W        W38032  41.171   4.307  12.581
72872W        W38033  29.969  35.043   3.607
72873W        W38034  37.964  20.251   3.264
72874W        W38035  17.820   9.373   0.737
72875W        W38036  33.897  16.002   2.560
72876W        W38037   4.411  25.161   3.529
72877W        W38038  38.814   4.508   2.031
72878W        W38039  38.913  12.291   1.521
72879W        W38040  26.606  21.317   2.620
72880W        W38041  32.387  29.426   3.344
72881W        W38042  28.072  25.124   3.850
72882W        W38043  29.674  26.501  12.547
72883W        W38044  12.796  28.241  11.579
72884W        W38045  39.264   9.125   2.951
72885W        W38046  12.857  42.815   4.341
72886W        W38047  35.092   3.455   3.516
72887W        W38048  34.138  14.682  13.198
72888W        W38049  17.618  33.043  11.570
72889W        W38050   4.695  21.126   4.649
72890W        W38051  28.473  31.379   4.251
72891W        W38052   1.443  24.672   2.994
72892W        W38053   6.258  11.194  11.088
72893W        W38054  29.151  37.543  11.947
72894W        W38055  44.275  44.595   2.415
72895W        W38056  12.767  42.464   5.024
72896W        W38057   6.291   3.798  11.602
72897W        W38058   4.636  23.595   4.579
72898W        W38059  10.715   8.969   4.677
72899W        W38060  43.805  20.404  13.427
72900W        W38061  13.245  23.346  12.028
72901W        W38062   2.448  30.283  13.304
72902W        W38063  27.210   2.657  12.542
72903W        W38064  15.011  29.424  11.306
72904W        W38065  33.386   0.933   0.824
72905W        W38066  21.026  19.652   3.274
72906W        W38067   0.024  44.099   4.061
72907W        W38068  27.092  34.587   1.296
72908W        W38069  14.153   0.869  13.905
72909W        W38070  12.347  12.151   2.825
72910W        W38071   7.852  38.808   2.288
72911W        W38072  33.477  38.924   2.333
72912W        W38073  37.280  13.920  11.670
72913W        W38074  37.584  39.263  11.923
72914W        W38075  28.660  13.435  12.625
72915W        W38076  35.512  29.358  11.902
72916W        W38077  38.001  23.360   3.089
72917W        W38078  27.360  33.571  12.565
72918W        W38079  17.434  31.096   1.827
72919W        W38080  23.470  17.973  14.577
72920W        W38081   2.903  37.602  13.059
72921W        W38082  22.230  27.203   3.555
72922W        W38083  41.405  26.677  11.607
72923W        W38084  30.167  24.125   1.895
72924W        W38085   4.271  27.620  12.289
72925W        W38086   8.811   7.761   4.089
72926W        W38087   8.075  29.320   3.597
72927W        W38088  43.282   2.955   0.140
72928W        W38089  32.055  16.817   9.986
72929W        W38090  35.539  14.026   4.073
72930W        W38091   7.304   3.431  11.046
72931W        W38092   7.752  18.575   3.251
72932W        W38093  28.410  43.929   2.718
72933W        W38094  28.556  30.073  14.012
72934W        W38095  12.389   4.153  14.999
72935W        W38096  35.675  15.266  12.163
72936W        W38097  30.479  38.100   1.281
72937W        W38098  27.411  14.989   0.873
72938W        W38099  12.856  25.723   3.267
72939W        W38100  26.495  25.686   2.489
72940W        W38101   7.100  28.056   4.608
72941W        W38102  12.333  37.311   2.099
72942W        W38103  34.061  31.390   0.948
72943W        W38104  33.508  44.036   4.254
72944W        W38105   8.646  18.148   2.713
72945W        W38106  44.351   2.487   4.966
72946W        W38107   4.940  29.303   1.608
72947W        W38108   1.293  19.409  12.060
72948W        W38109  24.237  32.426   3.705
72949W        W38110  33.115  24.168  12.445
72950W        W38111  19.644   1.975   3.821
72951W        W38112  33.370  24.904  14.779
72952W        W38113   7.323  15.437   2.531
72953W        W38114  14.845   1.702  12.918
72954W        W38115  13.837  29.433   3.735
72955W        W38116  32.354  42.045  12.592
72956W        W38117   7.645  11.836  13.829
72957W        W38118  31.683  42.664  14.913
72958W        W38119  31.901  33.110  12.878
72959W        W38120  44.547   9.104   0.888
72960W        W38121  17.612  14.346  10.580
72961W        W38122   1.792  38.082   2.835
72962W        W38123   7.364  44.851  14.839
72963W        W38124  38.750  19.666   3.607
72964W        W38125  24.312   2.471   1.274
72965W        W38126  24.027  14.234   0.302
72966W        W38127  28.195  11.371   2.611
72967W        W38128  16.003  41.503  13.862
72968W        W38129  41.057  39.083   2.481
72969W        W38130   8.191  30.368  13.753
72970W        W38131   3.212  40.148   1.265
72971W        W38132  31.894  17.152   3.154
72972W        W38133   4.199  16.339   2.809
72973W        W38134   7.416  31.805  11.309
72974W        W38135   7.310   2.813  12.048
72975W        W38136  42.975  20.503   2.123
72976W        W38137   8.921  13.591   0.737
72977W        W38138  24.578  41.121   1.342
72978W        W38139  13.190  25.381   2.557
72979W        W38140  12.544  14.922   0.883
72980W        W38141   6.811  27.723  12.503
72981W        W38142  41.767  28.464   3.779
72982W        W38143  17.819  30.493  12.003
72983W        W38144  30.474  42.792   0.524
72984W        W38145  22.500   3.666  12.641
72985W        W38146  38.286  22.217  10.830
72986W        W38147  13.592  33.947  12.194
72987W        W38148  36.911  32.361   3.787
72988W        W38149  15.151   3.781   3.816
72989W        W38150  40.812  44.952  10.590
72990W        W38151  30.996  25.633   1.686
72991W        W38152  35.158  29.298   0.732
72992W        W38153  34.656   4.789   4.444
72993W        W38154   0.557  41.322   2.722
72994W        W38155  15.297  28.266   9.807
72995W        W38156  34.266  30.741  14.342
72996W        W38157  19.054   0.507  14.884
72997W        W38158   7.218  12.887  12.990
72998W        W38159  23.432  39.521   5.100
72999W        W38160  39.316   9.298  13.355
73000W        W38161  24.821   6.671  13.624
73001W        W38162  12.875   1.326  10.682
73002W        W38163   3.337   8.608   3.077
73003W        W38164  31.057   4.429  13.002
73004W        W38165  26.933  32.571  10.726
73005W        W38166  25.702   4.285  12.540
73006W        W38167  25.524  42.995   2.805
73007W        W38168  17.381  23.039   2.183
73008W        W38169  18.696   8.142   2.257
73009W        W38170  17.846  18.250   1.620
73010W        W38171  11.141  16.748   1.218
73011W        W38172  41.815  41.727  14.779
73012W        W38173   7.651  13.818   2.229
73013W        W38174  12.436  27.609   2.321
73014W        W38175  11.878  23.383   0.535
73015W        W38176   7.945   1.241  12.147
73016W        W38177  14.065  17.030   0.538
73017W        W38178   8.518  43.380   4.266
73018W        W38179  31.403  34.506  10.927
73019W        W38180  42.262  39.487  11.031
73020W        W38181  20.099  23.743  11.986
73021W        W38182  38.053  39.662   2.635
73022W        W38183  33.881   0.391   3.856
73023W        W38184   2.361  16.347   0.152
73024W        W38185  43.380  34.612   0.761
73025W        W38186   0.161  43.595   4.016
73026W        W38187  11.599  35.361  10.938
73027W        W38188   0.841  21.471   3.098
73028W        W38189   4.810  17.594  13.070
73029W        W38190  32.902  19.221   2.990
73030W        W38191  38.423  34.028   2.715
73031W        W38192  41.553  39.606  10.226
73032W        W38193  39.306  27.213  12.137
73033W        W38194  27.364  36.595  13.388
73034W        W38195  20.143   8.911   3.400
73035W        W38196  17.650  34.892  12.494
73036W        W38197  30.857  21.652  11.164
73037W        W38198  43.344  27.406   0.371
73038W        W38199  40.456   4.168  14.538
73039W        W38200  14.639  17.649   3.127
73040W        W38201  31.666   9.410  13.426
73041W        W38202  44.640  12.341   2.770
73042W        W38203  31.952  30.984   4.021
73043W        W38204  22.924  37.826  10.952
73044W        W38205  31.909  11.113  13.435
73045W        W38206   9.367  40.864   0.857
73046W        W38207   3.616  42.736   4.596
73047W        W38208  28.943   6.949  10.727
73048W        W38209   3.917  30.237   2.343
73049W        W38210   7.151  17.754   0.809
73050W        W38211  15.106  28.412  13.074
73051W        W38212   0.006   9.316   0.946
73052W        W38213  31.417  21.720   0.133
73053W        W38214  19.580  26.433  13.013
73054W        W38215  27.084   9.382   4.286
73055W        W38216   5.288  30.449  11.556
73056W        W38217  24.791  17.385  11.662
73057W        W38218  23.151  39.626  13.242
73058W        W38219  35.978  26.468  10.639
73059W        W38220  32.030  18.079  12.665
73060W        W38221  17.645  43.814   0.714
73061W        W38222   5.543   0.433  11.935
73062W        W38223  11.961  36.991   2.257
73063W        W38224  24.095  22.578   0.412
73064W        W38225   5.164  26.679  14.993
73065W        W38226  34.814  37.793  13.808
73066W        W38227   3.224  26.119   1.241
73067W        W38228   5.973  34.107   1.908
73068W        W38229  29.703  20.759  10.703
73069W        W38230  11.232   1.446  12.497
73070W        W38231  32.055  27.185  12.675
73071W        W38232  22.512  12.511   2.010
73072W        W38233  31.402   9.474   0.481
73073W        W38234  21.952  27.202  12.821
73074W        W38235   6.423  44.366  14.441
73075W        W38236  31.904   2.788  13.632
73076W        W38237  42.296  23.495   3.572
73077W        W38238  30.080  20.134  12.442
73078W        W38239   6.782  36.342   3.798
73079W        W38240  28.110  40.850   0.352
73080W        W38241  41.534  20.983   3.317
73081W        W38242  30.169  39.027   2.993
73082W        W38243  29.123  35.540   4.506
73083W        W38244  38.060  13.058  10.805
73084W        W38245  12.693   3.910   2.637
73085W        W38246  13.774  27.705   3.146
73086W        W38247   7.703  18.580   4.146
73087W        W38248  41.009  31.557  11.135
73088W        W38249  29.472  36.394   4.229
73089W        W38250  40.088  37.134  13.633
73090W        W38251  27.191   8.031   3.241
73091W        W38252  35.032  27.148  12.802
73092W        W38253  17.586  39.059  11.677
73093W        W38254  35.792  33.619   0.977
73094W        W38255  40.966   6.420  13.726
73095W        W38256   9.220   1.268   1.853
73096W        W38257  40.640  28.447   2.691
73097W        W38258  38.078  35.037   3.563
73098W        W38259   4.178   7.709  12.391
73099W        W38260   0.393  22.718   4.227
73100W        W38261  13.337  41.010  11.764
73101W        W38262  41.146  27.392  14.844
73102W        W38263  21.961  39.698   9.572
73103W        W38264  17.480  15.671   0.786
73104W        W38265  22.211  15.897  14.255
73105W        W38266  10.211  17.493  11.130
73106W        W38267   7.870   6.227   4.382
73107W        W38268  26.734  35.372  11.159
73108W        W38269  33.043   6.965   0.727
73109W        W38270  37.986  31.614  10.585
73110W        W38271  12.606  45.000  10.680
73111W        W38272  17.263   0.547  11.236
73112W        W38273  40.986   2.898   1.276
73113W        W38274  32.275   3.768  14.509
73114W        W38275  40.778  14.511  13.633
73115W        W38276   7.742  15.288   1.681
73116W        W38277   7.313  14.913  11.482
73117W        W38278  25.093  21.633  13.855
73118W        W38279  42.541   7.500   2.691
73119W        W38280  26.676   5.797   3.263
73120W        W38281  41.321   1.339   1.911
73121W        W38282  43.496  36.100  14.882
73122W        W38283  10.606   2.983  12.009
73123W        W38284  10.210  28.838  12.946
73124W        W38285   9.634   8.463   0.731
73125W        W38286  23.092  36.870  11.717
73126W        W38287  14.290  20.511   3.333
73127W        W38288  23.460  10.590   3.313
73128W        W38289  17.581  21.792   0.747
73129W        W38290  34.526  27.173  11.354
73130W        W38291  20.668  16.208  13.833
73131W        W38292  14.478   7.165  14.548
73132W        W38293   2.523  13.529   0.129
73133W        W38294  14.030  37.134   3.965
73134W        W38295  18.485   1.739  13.910
73135W        W38296  28.136  15.031   4.135
73136W        W38297  10.154  28.787  11.057
73137W        W38298   5.279   0.216  13.270
73138W        W38299  14.862  43.249   4.173
73139W        W38300   8.345  33.329  14.416
73140W        W38301  29.805   4.188  12.527
73141W        W38302  12.584  14.202   0.036
73142W        W38303  25.185   4.295   3.167
73143W        W38304  32.982   4.496  14.240
73144W        W38305   8.840  34.884  13.862
73145W        W38306  21.025  31.835   0.495
73146W        W38307  18.327   8.377   0.298
73147W        W38308  10.372  14.151  14.013
73148W        W38309  31.570  32.300  14.760
73149W        W38310  23.037  25.956   1.498
73150W        W38311  23.583  20.208   3.791
73151W        W38312  21.329  19.511   3.708
73152W        W38313  26.071  43.936   0.733
73153W        W38314  31.678  42.500   1.276
73154W        W38315  10.404   7.376  12.684
73155W        W38316   8.193  17.407  11.102
73156W        W38317   6.917  28.592  13.269
73157W        W38318  32.283  36.938   3.409
73158W        W38319  15.090  20.159   3.148
73159W        W38320  13.936  17.186   1.452
73160W        W38321   6.756   0.229  10.439
73161W        W38322  21.642   5.127  13.428
73162W        W38323  27.743  30.388  13.587
73163W        W38324  10.615   8.270  12.834
73164W        W38325  39.989  14.165   0.596
73165W        W38326   6.437  34.867   3.335
73166W        W38327  35.552  28.727  11.304
73167W        W38328  36.460   9.849  10.794
73168W        W38329  21.201  41.995  13.860
73169W        W38330  41.855  27.187   1.246
73170W        W38331  44.890   9.866  13.628
73171W        W38332  41.862  18.616   2.857
73172W        W38333   6.389   3.310  13.871
73173W        W38334  23.760   8.653   2.726
73174W        W38335  30.094   0.404  10.902
73175W        W38336  11.796  27.915  11.898
73176W        W38337  12.754  37.245   1.772
73177W        W38338  42.872  43.514  12.736
73178W        W38339  16.300  19.583   1.890
73179W        W38340  44.028  30.450   2.736
73180W        W38341  23.058   0.688   4.546
73181W        W38342  23.216  32.992   0.709
73182W        W38343  30.893   5.246  10.455
73183W        W38344   0.438   2.337   4.952
73184W        W38345  16.116  31.333  11.618
73185W        W38346  18.766  20.455   2.310
73186W        W38347  20.938   2.459  11.610
73187W        W38348  33.163   4.801   4.602
73188W        W38349  25.493  29.977   0.270
73189W        W38350   1.762  26.760  11.031
73190W        W38351  14.139  34.038   2.249
73191W        W38352  37.702  12.071  12.580
73192W        W38353   4.479  36.978   4.143
73193W        W38354  25.302  23.175   4.119
73194W        W38355  37.938  26.607   0.546
73195W        W38356   4.322   5.068  14.804
73196W        W38357  22.691   2.878   2.348
73197W        W38358  40.028  27.476   0.873
73198W        W38359  13.935  29.454  13.947
73199W        W38360  40.045  38.937  11.149
73200W        W38361  13.116  32.606  12.927
73201W        W38362  24.211  19.076   4.041
73202W        W38363   2.058  25.256  13.091
73203W        W38364  36.291  40.090  12.205
73204W        W38365   0.861   7.713   2.185
73205W        W38366  19.967  24.103  14.888
73206W        W38367   3.759  38.681   1.300
73207W        W38368  13.922   1.105   1.122
73208W        W38369   2.830  33.082  14.366
73209W        W38370  19.012  40.792  12.071
73210W        W38371  11.120  42.494   1.438
73211W        W38372  23.134   1.719   2.652
73212W        W38373  22.170   1.861   3.432
73213W        W38374   9.659   4.399  10.634
73214W        W38375   9.167  14.091   0.003
73215W        W38376  34.863  36.886  14.900
73216W        W38377  42.751  35.921  13.919
73217W        W38378   1.818  10.840  11.992
73218W        W38379  18.621  38.320   1.960
73219W        W38380  16.583  10.765   4.259
73220W        W38381  25.334  43.035  13.374
73221W        W38382  38.825  20.741   0.901
73222W        W38383   4.067  35.849   3.669
73223W        W38384   7.601  39.070  10.297
73224W        W38385  36.844  36.138   0.140
73225W        W38386  27.204  38.115  13.906
73226W        W38387  21.754  28.692   4.929
73227W        W38388  17.309  25.791  10.781
73228W        W38389   9.851  39.084  14.402
73229W        W38390  19.265  23.600   4.601
73230W        W38391  40.050  16.769   4.168
73231W        W38392  43.109  35.553  13.893
73232W        W38393  13.227  38.094  10.533
73233W        W38394   7.246   7.907   3.180
73234W        W38395  36.658   6.483  12.025
73235W        W38396  33.704  34.877   0.526
73236W        W38397  34.077  16.078  13.155
73237W        W38398  42.704  35.344   4.897
73238W        W38399  29.283  33.453   1.254
73239W        W38400  16.555  20.699  13.822
73240W        W38401  16.284  28.650  14.805
73241W        W38402   7.253  31.672  10.437
73242W        W38403  25.053  10.852   3.148
73243W        W38404  16.237  28.657   4.060
73244W        W38405  43.565   9.378   4.394
73245W        W38406   9.941  31.581  14.494
73246W        W38407  39.606  19.603   2.481
73247W        W38408  18.574  31.625  12.944
73248W        W38409  34.598  10.250   2.642
73249W        W38410   8.491  37.371  10.033
73250W        W38411  14.235  29.754  12.611
73251W        W38412  23.605   5.224   4.425
73252W        W38413  29.714  19.018  13.388
73253W        W38414   5.157  20.075   2.768
73254W        W38415   4.871   9.675   0.790
73255W        W38416  31.070  37.323   2.237
73256W        W38417   4.502  21.230   4.179
73257W        W38418   3.448  21.080   2.320
73258W        W38419   5.910  37.890   1.795
73259W        W38420  39.812  13.124  11.116
73260W        W38421  14.821  15.245   4.631
73261W        W38422  39.400  12.856   0.378
73262W        W38423  11.308  30.976  10.725
73263W        W38424  38.505  29.214  14.031
73264W        W38425  24.819   5.759   0.454
73265W        W38426  13.643  33.148   1.393
73266W        W38427  23.335  12.229   2.163
73267W        W38428  20.114  10.433  14.354
73268W        W38429  25.276  10.142  14.487
73269W        W38430  19.688  13.285   1.716
73270W        W38431   8.833  18.519   2.399
73271W        W38432   0.498   9.689  11.510
73272W        W38433  41.404  34.399  13.088
73273W        W38434  26.124  39.933   1.868
73274W        W38435  26.877  13.989   0.468
73275W        W38436   4.197   2.228  10.737
73276W        W38437  17.684  42.753   2.279
73277W        W38438  37.169  32.804   3.046
73278W        W38439   4.622  31.554   3.248
73279W        W38440  13.390  28.941  11.939
73280W        W38441  37.859  34.062   1.390
73281W        W38442  36.226  39.614  12.842
73282W        W38443  12.420  13.749   4.411
73283W        W38444  14.324  27.517   2.363
73284W        W38445  28.578  19.984   1.831
73285W        W38446  28.522   5.439   2.265
73286W        W38447  21.191  35.057   4.384
73287W        W38448  11.637   1.381   0.032
73288W        W38449  41.145  30.562  10.888
73289W        W38450  15.697  36.423  10.696
73290W        W38451   1.841  30.396   4.481
73291W        W38452   6.024  18.138   5.257
73292W        W38453  25.214  43.915  13.900
73293W        W38454  35.817   9.791   3.167
73294W        W38455  25.237  35.374   0.421
73295W        W38456   8.464  21.577   2.575
73296W        W38457   1.308   0.937   3.045
73297W        W38458  10.295  20.912   0.349
73298W        W38459  27.128  20.764   4.606
73299W        W38460   9.704  38.640  13.138
73300W        W38461   2.752  42.070  12.006
73301W        W38462  20.344  44.363   3.727
73302W        W38463  11.642  20.130  12.534
73303W        W38464   2.241  41.010  13.868
73304W        W38465  30.980  19.965  12.619
73305W        W38466  14.876  38.093  13.967
73306W        W38467   4.757  19.739   2.854
73307W        W38468  16.362  34.782  13.015
73308W        W38469  15.723  19.986   0.029
73309W        W38470  33.700  38.983   1.864
73310W        W38471   7.132  10.522  14.818
73311W        W38472   1.275  10.702   1.395
73312W        W38473  36.455  24.536   1.343
73313W        W38474  43.843   0.474  12.555
73314W        W38475  33.293   8.668   0.923
73315W        W38476  31.061  31.530   4.673
73316W        W38477  42.253  40.586   1.869
73317W        W38478  30.084  13.185   3.863
73318W        W38479  39.401  15.691  13.758
73319W        W38480  15.794  30.291  13.400
73320W        W38481  31.991  31.546   3.367
73321W        W38482   5.116  23.047  13.019
73322W        W38483  28.539  31.369  12.109
73323W        W38484  13.267  41.427   0.704
73324W        W38485  28.588  28.870  10.740
73325W        W38486  15.485  37.066  11.359
73326W        W38487  20.365  32.867   4.128
73327W        W38488  10.400  35.446  11.980
73328W        W38489  32.094  18.521  11.134
73329W        W38490   0.484  17.596  10.759
73330W        W38491  17.730  41.043  12.113
73331W        W38492  36.507   0.078   3.164
73332W        W38493  29.768   6.725   3.306
73333W        W38494   2.852  32.970  12.535
73334W        W38495  33.568  31.235   4.120
73335W        W38496  18.254   4.132  13.240
73336W        W38497  42.502   4.417   0.784
73337W        W38498  23.103  15.744  13.385
73338W        W38499  34.002  11.623   2.413
73339W        W38500   6.928  19.756   2.736
73340W        W38501  39.717  18.690   0.780
73341W        W38502  14.165  29.592   0.973
73342W        W38503  10.693   7.213  14.191
73343W        W38504  18.228   4.371  14.215
73344W        W38505  27.199  44.434  12.112
73345W        W38506  10.141  20.722   1.695
73346W        W38507  14.118   4.905  11.128
73347W        W38508  13.296  11.307   1.861
73348W        W38509   9.303  42.821   0.016
73349W        W38510  34.526  33.063   2.256
73350W        W38511  38.800  12.240  13.018
73351W        W38512  11.241  41.363  13.587
73352W        W38513  11.671   8.950   3.768
73353W        W38514  39.211  34.186  13.397
73354W        W38515  33.758  14.814   2.206
73355W        W38516  36.141  20.398  13.472
73356W        W38517  44.274  16.696   3.109
73357W        W38518   7.951  25.532   3.394
73358W        W38519  35.643  39.123   0.444
73359W        W38520  17.408  41.503  12.855
73360W        W38521  44.396  20.722  10.681
73361W        W38522  14.796  44.433   3.596
73362W        W38523  23.988  36.889   1.260
73363W        W38524  22.058   0.555  12.536
73364W        W38525  16.743  42.089  11.543
73365W        W38526   8.289  35.070   1.259
73366W        W38527  23.045  29.954   3.179
73367W        W38528  11.619  22.642  12.195
73368W        W38529  40.944  39.509   9.396
73369W        W38530  42.638  43.303   2.552
73370W        W38531   7.422  40.567   1.793
73371W        W38532  15.709  12.649  14.898
73372W        W38533  44.956  29.172   4.066
73373W        W38534  14.582  11.666  12.428
73374W        W38535   4.896   3.757   2.090
73375W        W38536  41.113   7.899   1.918
73376W        W38537  34.666   6.273   2.506
73377W        W38538   5.219  42.207   0.727
73378W        W38539  34.990  32.179  11.621
73379W        W38540  24.439  10.343   0.786
73380W        W38541  32.788   3.236   4.316
73381W        W38542  28.890  42.576   2.613
73382W        W38543   2.718   0.806  10.641
73383W        W38544  22.892   4.625   5.064
73384W        W38545   4.646  41.318  11.942
73385W        W38546  11.061   0.272  13.139
73386W        W38547  21.603  44.765   4.192
73387W        W38548   1.448  18.083   1.202
73388W        W38549  11.612  12.271  10.462
73389W        W38550  27.166  19.199  12.424
73390W        W38551   6.672  12.920  13.460
73391W        W38552  27.122  22.068   2.606
73392W        W38553  35.599  20.416   3.227
73393W        W38554  11.624  31.234  11.664
73394W        W38555  24.667  43.947  10.755
73395W        W38556  14.604  27.683  12.953
73396W        W38557   5.931  19.606   2.465
73397W        W38558  18.839  21.355   2.808
73398W        W38559  25.726   1.515   1.352
73399W        W38560  18.014  35.488  11.620
73400W        W38561  24.156   0.260  14.968
73401W        W38562  27.480  42.476   2.565
73402W        W38563  33.056  26.688   5.100
73403W        W38564  15.721  28.454   0.817
73404W        W38565  16.634  30.011  13.322
73405W        W38566   8.754  31.658  13.172
73406W        W38567  38.756  16.373   0.925
73407W        W38568  11.088   3.376  11.149
73408W        W38569  44.754  28.395  14.709
73409W        W38570  22.108   6.445   1.135
73410W        W38571  21.251  30.104  12.496
73411W        W38572   1.925  23.759  13.861
73412W        W38573  37.655  16.245  12.331
73413W        W38574  42.174  10.199  11.693
73414W        W38575  39.350  32.135  10.454
73415W        W38576  26.030  21.302   1.629
73416W        W38577   1.353   0.388  14.814
73417W        W38578  11.325  27.647   0.763
73418W        W38579  41.802  23.224   0.245
73419W        W38580  28.588  38.636   0.994
73420W        W38581  31.549   0.841  11.759
73421W        W38582  23.337   0.197   3.222
73422W        W38583  17.388  20.510   3.280
73423W        W38584  28.687  37.653   1.714
73424W        W38585  21.793  21.723   0.843
73425W        W38586  15.647  11.747  11.579
73426W        W38587  22.173  42.444   0.529
73427W        W38588  14.336  29.716   0.485
73428W        W38589   7.770  42.330   3.200
73429W        W38590  32.326   3.979  12.909
73430W        W38591  33.747  40.835  12.838
73431W        W38592  20.340  31.507  14.886
73432W        W38593  38.101  38.091   1.181
73433W        W38594   2.942  20.787  12.521
73434W        W38595   5.897  23.152  12.316
73435W        W38596  26.720  23.230   4.089
73436W        W38597   8.839  25.124   3.649
73437W        W38598  13.325  35.693   3.073
73438W        W38599   0.846  18.754  12.008
73439W        W38600  33.611  13.638  10.894
73440W        W38601   4.994   7.707  13.165
73441W        W38602  26.514  33.794  14.166
73442W        W38603  40.074  23.079  13.792
73443W        W38604  19.285   6.451  10.690
73444W        W38605  32.043  44.930   3.625
73445W        W38606  19.194  12.918   0.334
73446W        W38607   7.159  32.856   0.391
73447W        W38608  23.940  36.022   1.964
73448W        W38609   7.897   4.291   2.450
73449W        W38610  15.818  43.398  13.534
73450W        W38611   4.464   7.655  11.955
73451W        W38612   9.589  26.081  11.566
73452W        W38613  30.885   0.759  12.867
73453W        W38614  43.812  21.584  12.934
73454W        W38615   5.121  39.395  13.045
73455W        W38616   6.861  29.412   4.567
73456W        W38617  35.558   1.167   4.908
73457W        W38618  32.991   0.879   5.049
73458W        W38619   6.499  43.323   1.818
73459W        W38620   6.248   3.725   0.742
73460W        W38621  29.431  15.583   4.139
73461W        W38622  25.808  44.264   0.447
73462W        W38623  26.007  32.223  11.685
73463W        W38624  36.362  44.334  12.637
73464W        W38625  10.113  18.688  11.163
73465W        W38626  29.486  43.434   2.245
73466W        W38627  41.588  43.306   0.334
73467W        W38628   8.948  30.237  11.218
73468W        W38629  37.482  23.156   3.080
73469W        W38630  42.788  14.652   4.541
73470W        W38631  22.870  38.812   5.440
73471W        W38632  41.848  12.230  13.547
73472W        W38633  34.890  12.660   4.754
73473W        W38634  16.153  34.317  11.409
73474W        W38635  39.797  13.795   4.486
73475W        W38636   3.662  26.552  13.427
73476W        W38637   6.482  26.593  13.974
73477W        W38638  43.594  24.963  11.221
73478W        W38639   5.837  27.647   2.722
73479W        W38640  39.834  23.757  13.483
73480W        W38641  23.006  41.232   0.792
73481W        W38642   2.767   2.225  11.606
73482W        W38643  15.614   1.812  12.583
73483W        W38644  43.754  28.612  10.498
73484W        W38645  32.555  18.698   2.037
73485W        W38646  35.049  21.616  12.379
73486W        W38647  18.257  25.202   1.052
73487W        W38648  26.829  28.971   2.872
73488W        W38649  29.801  17.630   2.171
73489W        W38650  43.907  17.378   2.666
73490W        W38651  19.985  12.844   5.169
73491W        W38652  22.636  21.104  11.498
73492W        W38653   1.834  36.572  12.495
73493W        W38654  26.483   8.912   0.421
73494W        W38655  38.132  30.453  14.304
73495W        W38656   3.145  25.079   0.483
73496W        W38657  42.210  42.789   0.902
73497W        W38658  33.157   2.210   1.819
73498W        W38659  14.464   6.231  11.619
73499W        W38660  23.143  29.396   1.061
73500W        W38661  40.038  41.177  14.495
73501W        W38662  11.192  14.288  12.319
73502W        W38663  19.535  13.709  13.374
73503W        W38664  23.713   6.209   2.352
73504W        W38665  42.583   9.290   4.128
73505W        W38666   1.514  14.140   4.585
73506W        W38667  14.947  15.366  12.004
73507W        W38668  14.843  31.572  12.074
73508W        W38669   3.447   6.349   4.076
73509W        W38670   3.188  10.645  11.584
73510W        W38671  14.272  14.364   0.293
73511W        W38672   0.026  37.499  13.759
73512W        W38673  22.511  36.073  14.443
73513W        W38674  39.063   9.084   0.384
73514W        W38675  19.506  16.199   0.244
73515W        W38676  33.768  21.109   4.595
73516W        W38677  18.959   0.325   3.682
73517W        W38678  16.104  21.777   0.862
73518W        W38679  14.813  20.262  14.102
73519W        W38680  24.946  25.617   2.449
73520W        W38681  20.787  28.553   2.334
73521W        W38682  41.026  32.544  10.410
73522W        W38683   4.741  34.380  13.918
73523W        W38684  37.334  17.238  10.792
73524W        W38685  32.668  10.847  12.120
73525W        W38686  25.621  33.203  11.249
73526W        W38687  17.689  37.548   3.142
73527W        W38688  43.316  22.087  11.840
73528W        W38689  24.148  21.519  12.613
73529W        W38690  41.494  23.072  12.538
73530W        W38691   8.625  14.593  13.927
73531W        W38692  22.470  19.041   2.858
73532W        W38693   6.095  22.955  11.272
73533W        W38694  32.962  25.900  13.049
73534W        W38695  22.938  12.553   2.291
73535W        W38696  11.618   8.603   3.375
73536W        W38697  32.030   4.636  13.340
73537W        W38698  33.537  24.428   1.995
73538W        W38699   7.877   7.633   1.367
73539W        W38700  34.195  37.780   9.943
73540W        W38701  35.281  37.557   1.516
73541W        W38702  28.953  17.916   0.729
73542W        W38703   8.147  26.967  14.106
73543W        W38704  14.548  14.741  11.530
73544W        W38705   6.450  13.946  14.995
73545W        W38706  40.907   7.811   0.542
73546W        W38707   9.798  40.560   0.891
73547W        W38708  41.538   4.414  12.932
73548W        W38709   8.673   8.401  13.920
73549W        W38710  19.584  13.290   3.662
73550W        W38711  41.491  42.261   4.757
73551W        W38712   7.343  33.827  14.431
73552W        W38713  33.990  29.895   0.695
73553W        W38714  28.109   9.535   4.213
73554W        W38715   9.846  41.473   1.202
73555W        W38716   6.182  34.958  14.222
73556W        W38717  28.001   8.054  10.783
73557W        W38718   4.969  34.121   0.826
73558W        W38719  18.692  12.517  12.053
73559W        W38720  34.092   7.215   3.695
73560W        W38721  41.540  29.307  11.086
73561W        W38722  17.347  32.140  13.908
73562W        W38723   5.235   2.822  12.613
73563W        W38724   0.424   8.471   0.850
73564W        W38725  26.826   8.321   3.439
73565W        W38726   6.297  15.831   2.887
73566W        W38727  11.131  36.300   1.818
73567W        W38728   1.523  17.671  10.676
73568W        W38729   1.653  22.291   3.288
73569W        W38730  26.650  42.530   4.406
73570W        W38731  26.260  19.550   5.029
73571W        W38732  40.106   0.760  13.391
73572W        W38733   2.384  32.983   2.877
73573W        W38734  11.159  16.597  10.634
73574W        W38735   8.183   2.460   2.784
73575W        W38736  14.902  33.533   2.409
73576W        W38737  42.545  32.831  13.817
73577W        W38738  19.034  25.628   0.357
73578W        W38739  12.224  28.277   0.851
73579W        W38740  24.112  22.140   0.134
73580W        W38741  24.307   6.653  11.577
73581W        W38742  19.198  17.719  14.858
73582W        W38743  25.494   7.855   1.273
73583W        W38744  12.066  30.532   3.822
73584W        W38745  36.068  31.801  12.009
73585W        W38746  14.770  15.641  14.245
73586W        W38747  16.286  21.296  12.476
73587W        W38748  28.756  13.217   3.219
73588W        W38749   0.482   1.871  14.869
73589W        W38750  35.316   7.422  11.027
73590W        W38751   2.306   6.896   3.972
73591W        W38752  19.158  14.513  11.455
73592W        W38753   9.391  21.508  11.665
73593W        W38754  41.978   6.362  10.592
73594W        W38755  44.508  25.255   0.780
73595W        W38756  22.737  29.288  12.332
73596W        W38757  13.579   0.149  14.008
73597W        W38758   2.734  24.248   5.080
73598W        W38759   8.001  30.463   4.187
73599W        W38760   7.873  32.907  11.564
73600W        W38761  41.975  40.943  11.613
73601W        W38762   5.708  42.357  10.734
73602W        W38763  25.785  26.015   2.688
73603W        W38764  23.414   2.329   0.449
73604W        W38765   1.346   1.186  10.647
73605W        W38766  39.943  16.237  14.351
73606W        W38767  41.826  37.577   3.346
73607W        W38768  24.484  36.073   4.527
73608W        W38769  22.086  28.019  13.873
73609W        W38770   5.122  30.986   4.236
73610W        W38771  43.422  21.661  12.133
73611W        W38772  14.806  11.220  12.193
73612W        W38773   0.272  25.188  12.446
73613W        W38774  20.175  28.957   3.210
73614W        W38775  35.650  23.254  11.941
73615W        W38776  29.206  22.620  13.810
73616W        W38777  10.269  29.055   3.545
73617W        W38778  13.781  30.467   2.577
73618W        W38779  43.638  31.100  10.799
73619W        W38780  13.859   0.944  12.953
73620W        W38781  29.550  36.234  12.022
73621W        W38782  31.558   6.756  11.610
73622W        W38783  21.025  26.060   2.247
73623W        W38784  15.055  24.611  11.202
73624W        W38785   8.189  27.585   3.315
73625W        W38786   6.874  20.094   4.075
73626W        W38787  33.589  18.297  14.258
73627W        W38788  27.907  27.293  11.164
73628W        W38789  29.251  16.246   0.422
73629W        W38790   0.426  10.410   3.733
73630W        W38791  26.341  19.619  10.064
73631W        W38792  23.747  26.595  11.607
73632W        W38793  10.271  42.776   3.038
73633W        W38794  34.023  35.525  11.811
73634W        W38795  38.660  33.893   3.721
73635W        W38796  12.654  23.025   4.907
73636W        W38797   3.149  27.609   0.045
73637W        W38798  36.560  37.406   1.969
73638W        W38799  32.709   8.791   3.220
73639W        W38800  39.494  44.479  12.293
73640W        W38801  27.533  38.269   0.943
73641W        W38802  27.065  33.064  13.797
73642W        W38803  14.860  19.572  12.932
73643W        W38804   6.729  24.592   1.326
73644W        W38805   2.217   5.681   0.458
73645W        W38806  22.622  17.636   3.120
73646W        W38807  11.197  43.717   4.181
73647W        W38808  29.433  38.917  11.031
73648W        W38809  36.475  23.176   2.807
73649W        W38810  21.544  43.197   2.133
73650W        W38811  32.013   2.047   1.353
73651W        W38812  43.039  16.096   0.369
73652W        W38813   1.786  31.263  13.824
73653W        W38814  30.491   5.674  12.108
73654W        W38815   6.788  29.628   0.654
73655W        W38816  30.943  23.689   2.614
73656W        W38817  40.498  28.748  13.396
73657W        W38818   8.206  31.740   4.522
73658W        W38819  27.699   4.502  10.787
73659W        W38820  17.113  35.515   1.792
73660W        W38821  24.775  38.090   0.750
73661W        W38822  37.095  30.640  13.425
73662W        W38823  22.334  42.880   0.301
73663W        W38824  44.895  33.101   0.697
73664W        W38825  12.233  28.160   3.629
73665W        W38826  30.564  23.124  13.477
73666W        W38827   8.014  33.893  11.279
73667W        W38828  12.178   0.489  12.611
73668W        W38829  36.849  16.627   4.738
73669W        W38830  34.888   3.183   3.068
73670W        W38831  43.397  14.113   1.437
73671W        W38832   1.901  15.602   3.681
73672W        W38833  25.721   2.202  13.114
73673W        W38834   1.960  18.235   3.977
73674W        W38835  18.320  22.538  14.395
73675W        W38836  19.074  42.548  13.848
73676W        W38837   6.119   2.494   4.541
73677W        W38838  29.940  29.409   0.240
73678W        W38839  44.210  39.008  14.879
73679W        W38840  29.984  24.672  11.273
73680W        W38841  21.115   5.316   4.213
73681W        W38842   8.101  38.558   4.010
73682W        W38843  29.649   7.236  13.008
73683W        W38844  27.477  35.138   0.523
73684W        W38845  12.041  10.169  13.367
73685W        W38846   3.011   9.290  12.503
73686W        W38847  27.560  42.216   5.029
73687W        W38848   8.122   9.727  13.350
73688W        W38849  29.611   1.030   3.138
73689W        W38850  18.225   0.335  12.851
73690W        W38851  40.618  15.324  10.779
73691W        W38852   8.285   7.832   2.498
73692W        W38853  35.509   3.365  13.403
73693W        W38854  28.368   8.313   3.626
73694W        W38855  38.382  19.079   0.038
73695W        W38856  37.908  38.688  12.536
73696W        W38857   5.544  32.501  11.616
73697W        W38858  16.800  27.076  10.828
73698W        W38859   0.462  19.044   1.849
73699W        W38860  35.098  11.241  11.173
73700W        W38861  21.713  11.689   3.795
73701W        W38862  20.342  16.088  14.245
73702W        W38863  40.606  28.822   0.908
73703W        W38864  15.731  38.441   4.577
73704W        W38865  19.244   0.480   1.428
73705W        W38866  17.772  44.959  14.716
73706W        W38867  37.614  26.208   0.370
73707W        W38868  42.416  33.573   1.276
73708W        W38869  17.641  35.345   1.853
73709W        W38870  22.331  44.828   2.304
73710W        W38871  25.525  16.348  11.026
73711W        W38872  34.095  24.985   4.888
73712W        W38873  10.432   9.263   1.342
73713W        W38874  37.544  14.402   5.025
73714W        W38875  26.176  26.094   1.316
73715W        W38876  23.506  42.125  14.961
73716W        W38877  41.021  32.075  11.526
73717W        W38878  33.452  34.752  13.773
73718W        W38879  30.007  41.485   9.975
73719W        W38880  30.512  19.105  10.916
73720W        W38881  41.910  20.189   1.359
73721W        W38882  35.003  38.721  12.096
73722W        W38883  11.077  30.416  13.050
73723W        W38884   6.943  30.007   3.389
73724W        W38885   6.158  26.710  14.783
73725W        W38886  11.402   4.271  14.821
73726W        W38887  24.521  40.427  11.116
73727W        W38888  35.815  35.580   0.494
73728W        W38889   7.898   8.189   1.436
73729W        W38890  44.401  33.512  11.622
73730W        W38891  16.056  17.218  10.956
73731W        W38892  37.389  27.846  14.560
73732W        W38893  17.764  31.590   1.493
73733W        W38894  32.568  25.010  13.486
73734W        W38895  43.328  10.910   2.271
73735W        W38896  16.040  36.832  14.805
73736W        W38897  21.791  15.214   2.246
73737W        W38898  35.117  15.800   4.077
73738W        W38899  33.824   1.836   3.925
73739W        W38900  11.308  42.301   0.966
73740W        W38901  33.104  16.541   1.701
73741W        W38902  23.113  44.862  13.955
73742W        W38903   8.209  17.306   3.711
73743W        W38904  35.485   6.662  12.631
73744W        W38905  41.784  24.611   1.509
73745W        W38906  40.384  12.268   4.169
73746W        W38907   1.746  43.348  14.859
73747W        W38908  27.012   8.703  13.428
73748W        W38909   7.246  31.213  12.623
73749W        W38910  38.588  14.184   4.445
73750W        W38911  37.203  17.240  13.907
73751W        W38912  25.820  40.164  12.936
73752W        W38913  17.531  32.924  11.073
73753W        W38914  19.335  23.710   3.663
73754W        W38915   8.330  39.306  13.976
73755W        W38916  25.688   8.890   3.879
73756W        W38917  22.137  17.396   0.240
73757W        W38918  25.672   6.139   0.394
73758W        W38919  44.534  43.764  11.342
73759W        W38920  32.381  33.863  11.550
73760W        W38921   3.012  13.315  13.084
73761W        W38922  37.397  30.639  12.054
73762W        W38923  29.897   7.605  11.190
73763W        W38924  34.718   6.569  13.955
73764W        W38925  23.143  41.068   4.174
73765W        W38926  31.744   7.319  13.945
73766W        W38927  26.295   2.252   4.132
73767W        W38928  26.834  23.341   5.343
73768W        W38929  40.540  38.301  12.967
73769W        W38930  10.383   9.165  10.727
73770W        W38931  23.165  40.918  12.948
73771W        W38932  41.918   4.398   1.887
73772W        W38933   6.072  27.920   1.752
73773W        W38934  19.974  37.304   2.724
73774W        W38935  40.021  37.156   4.182
73775W        W38936  14.385  43.441   2.870
73776W        W38937   8.881  22.778  12.507
73777W        W38938   1.568  34.463   1.976
73778W        W38939  17.517  38.336  14.009
73779W        W38940   8.807  12.484  12.566
73780W        W38941   0.752  23.334  11.076
73781W        W38942  35.559   7.149  14.893
73782W        W38943  41.915  23.641   0.512
73783W        W38944  31.481   9.318  14.061
73784W        W38945  28.473  16.128   0.925
73785W        W38946  32.519   4.052  10.694
73786W        W38947  25.022  26.601   0.043
73787W        W38948   4.493  38.679  12.167
73788W        W38949  27.489   9.757   1.478
73789W        W38950  18.224  11.625   4.922
73790W        W38951  39.480  10.370   2.264
73791W        W38952  19.814   9.176  12.599
73792W        W38953  34.951  36.422   4.863
73793W        W38954   7.850   5.837   1.647
73794W        W38955  30.518  38.412   9.804
73795W        W38956  36.094  13.301   0.381
73796W        W38957  24.581  34.901  14.843
73797W        W38958   7.171  11.204   1.916
73798W        W38959  39.513   8.572  10.615
73799W        W38960   5.126  35.626   3.511
73800W        W38961  35.816  34.378   2.403
73801W        W38962   6.824  44.675   2.351
73802W        W38963   0.487  31.477  11.596
73803W        W38964  27.999  37.669  11.536
73804W        W38965   2.753  18.630  14.909
73805W        W38966  21.351  24.444   1.286
73806W        W38967  24.130  19.838   1.855
73807W        W38968  34.392  35.288   3.298
73808W        W38969  33.116   8.223   2.039
73809W        W38970   2.962  38.131  13.094
73810W        W38971  24.663  37.618  11.576
73811W        W38972  36.612   1.380  10.851
73812W        W38973  31.160  17.995  13.059
73813W        W38974  16.029  22.677  12.520
73814W        W38975  38.805  15.084   2.244
73815W        W38976  41.230   2.901   2.304
73816W        W38977  22.484  20.235   1.545
73817W        W38978  16.576  24.448   4.526
73818W        W38979   9.163   9.326  11.196
73819W        W38980  16.139  25.105  13.374
73820W        W38981  19.880  29.733  11.816
73821W        W38982  28.659   6.801  13.713
73822W        W38983   6.221  43.394   0.369
73823W        W38984   8.232  10.281  11.571
73824W        W38985  19.283  35.150  13.828
73825W        W38986  43.030  13.608   0.818
73826W        W38987  41.439   9.181  13.236
73827W        W38988  39.784   8.853  14.745
73828W        W38989  11.390  36.602   1.435
73829W        W38990  32.423  13.283   2.837
73830W        W38991  24.191  25.706   0.371
73831W        W38992  29.482  42.840  12.357
73832W        W38993  31.696  15.570   4.938
73833W        W38994  27.615  29.008   0.818
73834W        W38995  17.561   9.964   1.585
73835W        W38996  22.126  38.277  14.001
73836W        W38997   5.667  41.385  14.485
73837W        W38998  28.197  12.760   3.581
73838W        W38999  17.319  17.798   1.215
73839W        W39000  17.317  32.936   3.622
73840W        W39001  40.847  42.862   3.846
73841W        W39002   5.947  41.908   1.733
73842W        W39003  26.068  15.757   3.619
73843W        W39004  40.302  17.465  12.313
73844W        W39005   9.974  27.787  11.963
73845W        W39006  24.069   0.542   2.525
73846W        W39007   3.332  28.144   2.888
73847W        W39008  18.646  22.488   3.291
73848W        W39009  17.191   9.799   2.410
73849W        W39010  19.505  23.289  11.475
73850W        W39011   2.314  24.423  12.647
73851W        W39012  26.095  39.096   0.886
73852W        W39013  24.374  33.444  11.991
73853W        W39014  10.858  15.750   0.783
73854W        W39015  38.081   5.690   2.903
73855W        W39016  21.540  33.273  13.506
73856W        W39017  21.343  16.733   1.285
73857W        W39018  18.171   8.071   1.438
73858W        W39019  25.468   9.490   2.267
73859W        W39020  32.456   0.521   3.249
73860W        W39021  44.116  35.683  12.864
73861W        W39022  31.046   9.704   3.407
73862W        W39023  21.712  38.906  10.704
73863W        W39024   2.479  30.866  11.176
73864W        W39025  39.815  25.968  10.956
73865W        W39026  40.284  10.611   0.847
73866W        W39027  38.870  14.613   4.380
73867W        W39028  32.950  14.080  14.292
73868W        W39029  31.606  33.998  10.875
73869W        W39030  22.333   1.449  10.534
73870W        W39031   7.643  30.088   4.751
73871W        W39032  39.404  26.848  13.391
73872W        W39033   6.673   7.731   2.752
73873W        W39034  38.860   2.393   2.190
73874W        W39035  16.124  17.308   0.384
73875W        W39036  43.812  43.083  10.222
73876W        W39037  23.498  24.101  13.399
73877W        W39038  43.020   4.749   4.101
73878W        W39039  19.792   2.238   2.219
73879W        W39040  40.354   2.743   3.308
73880W        W39041   3.673  21.751  13.435
73881W        W39042   4.082  19.495   3.961
73882W        W39043  18.108  32.909  11.793
73883W        W39044  15.606  13.597   0.797
73884W        W39045  32.079  13.824  11.608
73885W        W39046  38.805  16.791   4.063
73886W        W39047  28.644  15.537   0.863
73887W        W39048  42.144  37.292   1.296
73888W        W39049  17.004  17.736   4.297
73889W        W39050  43.516   4.282  14.744
73890W        W39051   0.767   6.318   2.310
73891W        W39052  37.658  30.258  11.126
73892W        W39053  26.449  19.711  13.267
73893W        W39054  42.687  22.632   4.700
73894W        W39055   3.385  31.347  11.995
73895W        W39056   5.653  22.572  14.554
73896W        W39057  23.054   9.337   3.689
73897W        W39058  25.676  17.943   2.397
73898W        W39059  16.023  30.767   4.753
73899W        W39060   9.196  39.992  10.651
73900W        W39061  38.613  18.062  13.809
73901W        W39062  34.964  44.008   1.968
73902W        W39063  25.989  36.414   4.185
73903W        W39064  16.567   0.039  12.019
73904W        W39065  21.503  32.782   3.185
73905W        W39066  42.495   0.273   4.106
73906W        W39067  13.288  11.196   4.281
73907W        W39068   2.344  30.523   4.632
73908W        W39069  23.928  32.647   4.061
73909W        W39070  16.027  14.765  12.672
73910W        W39071  15.761   2.267  12.983
73911W        W39072  23.989  43.223  11.187
73912W        W39073  28.077  34.053   3.260
73913W        W39074  34.100  37.328   4.082
73914W        W39075  17.955  20.202  11.679
73915W        W39076  40.331   7.204   3.887
73916W        W39077  36.882  42.852  10.666
73917W        W39078   0.155  19.991  13.517
73918W        W39079  43.320  14.294   0.074
73919W        W39080   7.212   5.451   0.255
73920W        W39081  29.724   7.184   3.568
73921W        W39082  42.757  39.645   1.017
73922W        W39083  22.597   9.933  14.864
73923W        W39084  35.845   9.094  14.447
73924W        W39085  10.753   0.145  14.967
73925W        W39086   2.555   5.578   0.062
73926W        W39087   2.537  21.109   3.896
73927W        W39088   1.317  15.097  12.821
73928W        W39089  21.800   5.933   4.070
73929W        W39090  17.079  12.034  12.388
73930W        W39091  43.442  36.488  13.583
73931W        W39092   5.359  41.771  12.325
73932W        W39093  30.223  35.471   0.990
73933W        W39094  42.989  23.589   1.295
73934W        W39095  23.039  24.671   0.216
73935W        W39096  14.656  10.798   1.928
73936W        W39097   9.229   4.964  10.166
73937W        W39098   2.897  39.314  11.050
73938W        W39099  19.229   2.935   2.832
73939W        W39100  12.002  17.437  11.640
73940W        W39101  22.576  29.429   4.621
73941W        W39102   6.340  36.909   1.784
73942W        W39103  12.349  11.222   3.896
73943W        W39104   5.683   3.820  12.871
73944W        W39105  17.773  37.996   2.144
73945W        W39106   8.727  10.440  11.484
73946W        W39107   1.897   8.961  13.010
73947W        W39108   3.886  36.446  11.482
73948W        W39109  30.722   8.948   3.615
73949W        W39110   5.344   1.108  12.380
73950W        W39111  23.217   0.235  12.975
73951W        W39112  35.435  32.024   1.629
73952W        W39113   4.895   3.636  11.844
73953W        W39114   9.209  30.631   3.608
73954W        W39115   9.285  16.494  12.869
73955W        W39116  33.037   0.942   1.349
73956W        W39117   0.588  15.176  14.249
73957W        W39118  16.717  27.020   3.116
73958W        W39119  37.010  41.248  13.573
73959W        W39120  37.706   6.158  13.997
73960W        W39121  35.281  39.590  13.791
73961W        W39122  34.623  31.535   0.711
73962W        W39123  19.663  17.059   1.242
73963W        W39124   2.946  24.728  12.070
73964W        W39125  11.839  22.020  12.765
73965W        W39126  11.094   1.102   4.125
73966W        W39127  32.565  19.287   1.366
73967W        W39128  13.641  13.256  14.439
73968W        W39129   8.859  17.814   1.304
73969W        W39130  34.004  32.943   4.956
73970W        W39131  34.814  34.690   2.322
73971W        W39132  15.021  28.080  12.020
73972W        W39133  11.161  12.194  10.709
73973W        W39134  38.311  12.759   4.440
73974W        W39135  21.763  19.860  10.594
73975W        W39136  19.203  43.407   4.899
73976W        W39137  41.532  24.560   3.280
73977W        W39138  39.414  18.328  13.416
73978W        W39139  22.186  15.553  12.424
73979W        W39140  10.821  39.992  14.959
73980W        W39141  23.444  38.491   2.356
73981W        W39142  39.028  39.744   0.402
73982W        W39143  40.104  26.062   0.295
73983W        W39144  27.206   6.184  11.324
73984W        W39145  17.054  40.296   2.277
73985W        W39146  29.933   1.297   1.903
73986W        W39147  41.590  43.428   2.782
73987W        W39148  26.639  24.170   1.397
73988W        W39149   2.428  22.070   1.689
73989W        W39150  33.456  30.107  13.004
73990W        W39151  32.999  23.260   9.997
73991W        W39152  37.589   3.361   0.739
73992W        W39153   9.487  36.297  12.085
73993W        W39154  36.443  10.440  14.378
73994W        W39155   5.905  38.525  12.298
73995W        W39156  22.049  25.275   0.856
73996W        W39157  22.983  34.281  14.472
73997W        W39158  29.420  11.212   0.887
73998W        W39159  29.302  12.675   5.443
73999W        W39160  29.692  13.702   1.207
74000W        W39161  11.364   8.619  13.062
74001W        W39162   7.239  30.076   1.786
74002W        W39163  37.153   6.897  11.106
74003W        W39164  13.925  19.739   1.418
74004W        W39165  39.088  18.683   2.716
74005W        W39166  26.174  27.128   0.990
74006W        W39167  27.161  34.119   3.108
74007W        W39168  32.937  32.913  14.320
74008W        W39169   3.973  29.982   0.256
74009W        W39170  31.023  14.254   4.078
74010W        W39171   6.278  32.684   1.703
74011W        W39172   3.524  36.586  14.756
74012W        W39173  38.129  14.442  11.650
74013W        W39174   5.661   1.237  10.675
74014W        W39175  26.251  24.095   3.727
74015W        W39176  33.118  11.500  13.948
74016W        W39177   4.475  34.277   0.705
74017W        W39178   1.470  35.550   4.181
74018W        W39179  44.376  22.530   2.819
74019W        W39180  20.773  33.342  12.553
74020W        W39181  12.056  24.807   0.121
74021W        W39182  28.486   4.276   3.627
74022W        W39183  30.922  43.558   0.871
74023W        W39184   0.293   2.055  14.019
74024W        W39185  39.342   1.382   4.560
74025W        W39186  34.965  41.765   1.869
74026W        W39187  32.951  14.302   3.514
74027W        W39188  34.127   8.987   1.363
74028W        W39189  41.745   9.895  13.023
74029W        W39190  28.870   3.739  12.871
74030W        W39191   5.339  41.906  12.818
74031W        W39192   6.213  21.613  14.324
74032W        W39193  29.613  44.629  11.203
74033W        W39194  31.071  41.592  10.817
74034W        W39195  10.465  29.156   2.772
74035W        W39196  15.297  34.890   3.805
74036W        W39197  16.837  16.051   2.304
74037W        W39198  14.367   5.060   3.275
74038W        W39199  21.694  14.492   0.404
74039W        W39200  35.709  19.882   4.941
74040W        W39201   7.438   1.290  14.683
74041W        W39202  35.534  34.380  12.925
74042W        W39203  24.519  25.825   4.124
74043W        W39204   2.344  39.137  14.021
74044W        W39205  25.274   5.151  14.847
74045W        W39206  39.941  16.858   4.743
74046W        W39207  38.940  38.013  11.620
74047W        W39208  37.553  38.436   4.449
74048W        W39209  16.802  26.488  14.497
74049W        W39210  30.030  33.396  12.961
74050W        W39211  24.046  40.063  14.540
74051W        W39212  29.656  28.633  13.422
74052W        W39213  17.666   9.556  14.382
74053W        W39214  44.235  33.619  10.918
74054W        W39215  41.789  10.357   0.016
74055W        W39216  22.667   5.178  12.613
74056W        W39217  38.123   4.392   3.683
74057W        W39218  42.509  24.831   2.149
74058W        W39219  23.646  19.566   1.799
74059W        W39220  15.037  20.074  12.217
74060W        W39221  17.809  32.922  14.015
74061W        W39222  29.127  20.826  13.815
74062W        W39223  14.991  34.968   4.649
74063W        W39224  35.561  30.386  10.698
74064W        W39225  37.972  23.988   0.262
74065W        W39226  22.121  41.423  10.611
74066W        W39227   3.427   6.347  11.173
74067W        W39228  15.976  14.781  10.439
74068W        W39229  18.261  13.737   4.173
74069W        W39230  19.713  40.773  11.115
74070W        W39231  15.638  12.601  12.563
74071W        W39232  14.311  21.306  12.897
74072W        W39233   1.180  36.757   3.492
74073W        W39234  19.015  24.178  14.641
74074W        W39235  16.180  19.232   0.263
74075W        W39236  41.133  44.896   0.737
74076W        W39237  16.278   4.407   1.907
74077W        W39238   9.149  32.570   1.387
74078W        W39239   2.007   0.020   0.481
74079W        W39240   5.863  11.522   3.402
74080W        W39241  15.209  18.969   4.885
74081W        W39242  37.907  20.743  11.563
74082W        W39243  11.101  27.435   2.281
74083W        W39244  14.608  27.464   1.825
74084W        W39245   2.044  35.934   2.959
74085W        W39246  31.081  19.475  11.302
74086W        W39247   4.709  12.700  13.198
74087W        W39248  36.323  16.515   3.652
74088W        W39249  14.747  15.691  10.434
74089W        W39250  13.746  21.442   4.616
74090W        W39251  41.876  17.715   4.887
74091W        W39252  28.506  14.997   3.755
74092W        W39253  38.927  17.771  12.082
74093W        W39254  13.611  17.024   4.289
74094W        W39255  26.462  15.665   1.539
74095W        W39256  35.830   9.755   2.637
74096W        W39257  12.370  23.117  12.062
74097W        W39258  32.114   5.336  12.982
74098W        W39259  44.746  29.019  13.258
74099W        W39260   0.755   6.432   4.112
74100W        W39261  20.081   7.269   1.978
74101W        W39262   6.385  36.860  12.979
74102W        W39263  25.777  23.175   9.993
74103W        W39264  28.513  32.013  14.316
74104W        W39265  24.888  34.997   0.278
74105W        W39266  16.306  18.577  12.933
74106W        W39267  13.289   6.652  13.930
74107W        W39268  13.877   8.270   3.407
74108W        W39269   1.046  18.185  12.875
74109W        W39270  32.689  39.164  12.630
74110W        W39271  15.097  40.019   3.489
74111W        W39272   8.219  37.051   0.886
74112W        W39273  15.404  18.088   3.577
74113W        W39274  18.980  44.380   0.490
74114W        W39275  27.574  25.123   4.577
74115W        W39276  41.337  13.088   2.150
74116W        W39277   8.932  31.613   1.295
74117W        W39278  42.890  13.344  14.305
74118W        W39279  39.019  30.606  13.363
74119W        W39280  23.738  16.235  11.373
74120W        W39281   3.728  17.088   2.685
74121W        W39282   8.451  30.085  11.136
74122W        W39283  31.263  25.672   1.251
74123W        W39284   1.284  10.556  10.177
74124W        W39285  26.136  26.154  12.573
74125W        W39286  25.670  36.132  13.818
74126W        W39287  29.630  29.961  11.619
74127W        W39288  17.386  21.471   0.385
74128W        W39289   0.373   1.042  13.894
74129W        W39290  16.059   6.721  12.392
74130W        W39291   9.197  18.884  11.019
74131W        W39292  11.171  35.374  11.239
74132W        W39293  23.662  37.598   1.166
74133W        W39294  30.424  24.987   0.273
74134W        W39295  20.972   3.876   1.258
74135W        W39296   9.365   6.401  12.793
74136W        W39297   7.946  29.665   3.980
74137W        W39298  40.038  38.836   4.301
74138W        W39299  11.387   9.648  11.092
74139W        W39300  32.351   0.935   0.689
74140W        W39301  43.256  38.032  13.727
74141W        W39302  41.472   8.125  14.841
74142W        W39303  36.467  26.932  13.080
74143W        W39304  38.723  31.939   3.231
74144W        W39305   5.387  30.339  11.074
74145W        W39306  14.824  15.628   1.780
74146W        W39307  36.907  24.687   3.272
74147W        W39308  21.202  28.515   2.795
74148W        W39309  11.173  37.279  11.955
74149W        W39310  25.982  20.732  11.888
74150W        W39311  20.069  13.010   3.114
74151W        W39312  12.851  37.465  12.577
74152W        W39313  39.871  19.794  14.926
74153W        W39314  19.156  41.946   3.789
74154W        W39315  43.599  44.529   1.729
74155W        W39316  12.006   5.850   3.253
74156W        W39317  13.537  16.676   4.647
74157W        W39318  19.309  44.458   5.007
74158W        W39319  43.774  34.616   2.926
74159W        W39320  22.460  12.600   3.138
74160W        W39321  43.411  12.367  13.473
74161W        W39322  27.484  43.336  12.490
74162W        W39323  37.115  33.272   2.806
74163W        W39324   5.961  16.542  14.095
74164W        W39325  34.582   6.065  13.873
74165W        W39326  11.733  36.773   1.842
74166W        W39327  21.712  36.123  12.427
74167W        W39328  24.093  31.413   4.818
74168W        W39329  14.650  33.622   0.193
74169W        W39330  22.439  22.046   0.253
74170W        W39331  30.780   2.507  11.208
74171W        W39332  31.113  37.423  12.128
74172W        W39333  42.516  20.198   2.783
74173W        W39334  24.525  19.836   2.712
74174W        W39335  23.827  20.245  10.754
74175W        W39336  37.636  43.823   1.242
74176W        W39337  25.791  29.892   3.360
74177W        W39338  38.782   1.533   0.969
74178W        W39339  40.354   6.333   2.183
74179W        W39340  22.458  26.533   3.974
74180W        W39341   8.148  41.821   2.317
74181W        W39342   2.858  15.785   1.409
74182W        W39343  11.662  15.281  10.271
74183W        W39344  35.918   5.531   2.329
74184W        W39345   4.418  15.455   2.639
74185W        W39346  40.562  41.962  11.346
74186W        W39347   8.163  33.018   3.628
74187W        W39348  21.190  21.797  14.078
74188W        W39349   6.077   3.777  13.182
74189W        W39350  18.707  14.179   3.510
74190W        W39351   1.389  21.029  14.519
74191W        W39352   6.547  43.188   5.007
74192W        W39353   5.204  42.432  13.289
74193W        W39354  34.324  14.677  13.971
74194W        W39355   5.699  14.939   0.512
74195W        W39356  26.133  17.265   0.813
74196W        W39357  41.938  24.366   5.132
74197W        W39358  28.536  10.695  13.602
74198W        W39359  21.964  16.969  12.551
74199W        W39360  18.460   0.416   0.857
74200W        W39361  27.741  26.363  12.024
74201W        W39362  18.104  38.239  12.566
74202W        W39363  28.541  34.508  10.853
74203W        W39364  42.510  27.654   3.184
74204W        W39365  41.293  19.024  14.355
74205W        W39366  14.648   3.714  12.377
74206W        W39367  32.642  29.039  10.699
74207W        W39368  39.041   3.031  11.605
74208W        W39369  33.151   8.957   0.514
74209W        W39370  11.689  39.226  11.609
74210W        W39371   2.718   5.632   4.316
74211W        W39372  13.115  42.919  10.482
74212W        W39373  34.138  27.965   2.411
74213W        W39374   2.959  13.794   9.975
74214W        W39375  30.546   0.506  12.049
74215W        W39376   4.194  27.248  14.988
74216W        W39377   7.398  25.602   0.762
74217W        W39378  37.076  13.217  13.809
74218W        W39379  15.148  28.643  12.597
74219W        W39380   7.385  35.789  12.884
74220W        W39381  38.924  39.869  12.119
74221W        W39382  42.470   8.442  10.424
74222W        W39383  40.044  11.633   3.316
74223W        W39384   8.441  36.743   1.956
74224W        W39385  30.351  20.774   2.191
74225W        W39386  43.273  43.005   5.299
74226W        W39387   7.118  32.713  13.410
74227W        W39388   2.826  32.467   0.880
74228W        W39389  12.702  16.217   3.273
74229W        W39390  35.046   7.036  14.772
74230W        W39391  25.736  34.945   2.742
74231W        W39392  10.792  34.123   3.836
74232W        W39393   3.867   2.564   0.021
74233W        W39394  20.181  21.309  13.273
74234W        W39395  26.516  28.426  11.093
74235W        W39396  13.739  43.983   3.616
74236W        W39397   8.730  15.748   4.694
74237W        W39398  19.673  25.106  10.665
74238W        W39399  34.829  37.285   2.388
74239W        W39400  39.626   8.667  12.390
74240W        W39401   0.010  23.220  10.435
74241W        W39402  21.550  19.152  12.513
74242W        W39403  22.931  30.186  10.885
74243W        W39404   1.573  38.714   1.780
74244W        W39405  17.362  18.337   1.382
74245W        W39406  25.212   7.218  14.782
74246W        W39407  22.024  40.009   4.592
74247W        W39408  34.119  19.147   0.485
74248W        W39409   5.445  32.649  14.020
74249W        W39410   5.863  20.987  13.082
74250W        W39411  22.072  27.899   3.118
74251W        W39412  43.433  38.294   3.914
74252W        W39413   4.943  20.676  14.881
74253W        W39414  28.594  32.167  12.564
74254W        W39415  38.287   5.708   1.316
74255W        W39416  28.879  28.496   3.673
74256W        W39417  11.716   9.628   1.367
74257W        W39418  27.232  33.113   1.335
74258W        W39419  21.163  23.907   1.801
74259W        W39420  36.780  28.130   0.930
74260W        W39421  35.676  11.666   4.260
74261W        W39422  29.530  28.695  10.787
74262W        W39423  40.082  42.140  11.383
74263W        W39424  34.620  43.075  11.119
74264W        W39425  11.643  39.855   3.694
74265W        W39426  39.570  23.654   1.326
74266W        W39427  34.917  12.708   0.465
74267W        W39428  24.250   8.819   4.414
74268W        W39429   7.391  18.308  12.404
74269W        W39430  26.008   2.318   0.911
74270W        W39431  41.839   5.791   0.214
74271W        W39432  41.522  38.057   0.857
74272W        W39433  30.450  17.086  13.569
74273W        W39434  41.109  21.183  14.795
74274W        W39435   4.640  43.255  13.509
74275W        W39436  44.302   0.050   1.454
74276W        W39437  22.755  42.239  12.413
74277W        W39438  34.336  32.142  13.306
74278W        W39439  25.488  20.324  14.406
74279W        W39440   3.362   0.187  12.841
74280W        W39441   7.885  33.992   1.338
74281W        W39442  15.779   7.118   2.003
74282W        W39443  15.159   1.668   2.303
74283W        W39444  28.757  35.320  14.122
74284W        W39445  34.303   4.284   2.463
74285W        W39446  30.179  35.096   2.665
74286W        W39447  36.830  10.391   3.655
74287W        W39448  27.281  43.893   0.442
74288W        W39449  16.739  43.963   1.159
74289W        W39450  32.558  23.117   2.053
74290W        W39451   5.472  17.801  13.791
74291W        W39452   1.897   1.271  10.664
74292W        W39453  42.464  42.702   0.386
74293W        W39454  11.439  37.758   2.884
74294W        W39455  37.128  38.250   4.715
74295W        W39456  14.269  10.384  14.870
74296W        W39457  42.819  20.006   2.191
74297W        W39458  24.498   1.413  11.167
74298W        W39459  28.545  41.720  11.192
74299W        W39460  41.971  43.730   1.137
74300W        W39461  17.725  24.934   3.697
74301W        W39462   7.405  15.179  11.034
74302W        W39463  21.172  14.739   0.393
74303W        W39464  44.262  28.027   4.493
74304W        W39465  28.679  39.483   1.980
74305W        W39466  38.980  35.057  14.981
74306W        W39467  19.028  29.895   4.113
74307W        W39468  44.912   4.788  11.266
74308W        W39469  42.340  29.696  13.628
74309W        W39470  22.257  21.194  12.842
74310W        W39471  17.576  39.473  12.606
74311W        W39472  18.295  11.247  14.914
74312W        W39473   2.167  32.560  14.884
74313W        W39474  35.512  38.160   1.412
74314W        W39475   3.973   8.276   1.331
74315W        W39476   3.607  14.030  10.206
74316W        W39477  35.154  44.109  14.395
74317W        W39478  16.647  13.753   1.933
74318W        W39479  39.737  18.404   1.251
74319W        W39480  28.673  10.009  11.999
74320W        W39481  39.096  10.326   2.655
74321W        W39482  12.358   4.383  12.954
74322W        W39483  40.934   8.408   4.843
74323W        W39484   2.229  13.183   2.269
74324W        W39485   1.433  20.013   0.887
74325W        W39486  25.182  35.573   2.187
74326W        W39487  25.065  15.315   0.491
74327W        W39488  24.009   5.674   4.073
74328W        W39489   2.025  20.707   2.339
74329W        W39490  20.205  12.858   0.736
74330W        W39491  42.121  42.209   3.815
74331W        W39492  16.550   5.934  12.009
74332W        W39493  38.178  38.526   0.363
74333W        W39494  41.013  13.099   0.377
74334W        W39495  30.119  17.152   0.734
74335W        W39496  22.660  31.118   4.711
74336W        W39497  19.184   1.276   1.864
74337W        W39498  18.710  34.958   1.263
74338W        W39499   4.538  18.036  12.965
74339W        W39500  28.721  18.089   4.540
74340W        W39501   2.646  42.341   0.962
74341W        W39502  38.000   0.397  14.695
74342W        W39503  29.408   6.679   1.809
74343W        W39504  42.136   6.256   4.935
74344W        W39505  12.253  12.805  13.253
74345W        W39506  26.970  13.600   0.813
74346W        W39507  32.696  41.919   3.147
74347W        W39508  36.310   3.446  12.014
74348W        W39509  36.518  30.387  10.381
74349W        W39510  26.011  27.017  12.158
74350W        W39511  18.022  15.843  14.478
74351W        W39512  38.835  24.789   4.975
74352W        W39513  28.097  12.788   2.766
74353W        W39514  17.825   9.635   0.283
74354W        W39515  21.002  30.464  14.018
74355W        W39516  12.910   4.923  14.303
74356W        W39517  37.147  41.047  13.064
74357W        W39518  18.184   4.455  12.834
74358W        W39519  32.887   6.851   3.883
74359W        W39520   3.492  43.330   2.333
74360W        W39521  29.942  31.416   0.335
74361W        W39522   8.298  11.155  11.098
74362W        W39523  17.042  22.703  10.210
74363W        W39524   0.967  14.495   3.663
74364W        W39525  22.937  17.264   5.246
74365W        W39526  28.991  27.626   0.353
74366W        W39527  41.558  14.739  13.281
74367W        W39528  10.390   3.330   4.111
74368W        W39529  28.506  16.711   2.425
74369W        W39530  39.774  12.222  12.030
74370W        W39531  22.261  13.668  10.833
74371W        W39532  31.348  31.024  11.649
74372W        W39533  40.743  28.486  14.717
74373W        W39534  36.542   0.278   0.237
74374W        W39535  36.438  20.622  10.897
74375W        W39536  44.710  42.797   0.380
74376W        W39537  13.213   9.607  11.308
74377W        W39538   9.258   0.698   3.857
74378W        W39539  25.170  35.564   1.384
74379W        W39540  21.065  10.029   4.924
74380W        W39541   6.693  23.530  10.648
74381W        W39542  18.347   1.229  13.901
74382W        W39543  43.042  25.332  10.392
74383W        W39544  29.601   9.800  14.083
74384W        W39545  37.301   8.704   3.621
74385W        W39546   9.206  31.404  12.993
74386W        W39547   3.170  33.350  13.476
74387W        W39548  22.003   8.302  14.793
74388W        W39549  21.068  31.410   1.262
74389W        W39550   7.229  14.905  14.366
74390W        W39551  40.853  28.733   4.075
74391W        W39552  17.232  37.468  12.122
74392W        W39553  21.806  37.158  11.179
74393W        W39554  15.805   6.850   1.123
74394W        W39555  26.815   9.069  10.705
74395W        W39556   9.827  29.647   0.895
74396W        W39557  10.924  42.743   3.658
74397W        W39558  42.819  16.734   1.474
74398W        W39559  13.753  39.892   0.165
74399W        W39560  29.675  16.875  10.517
74400W        W39561  22.505  38.904  11.048
74401W        W39562   3.689  15.348  13.556
74402W        W39563  16.745  43.777  12.039
74403W        W39564   4.918  42.503  10.663
74404W        W39565  41.739  13.029  11.216
74405W        W39566   6.310   2.131  12.435
74406W        W39567   6.648   2.360   2.756
74407W        W39568  25.355   1.426   4.107
74408W        W39569  11.917  16.083  13.957
74409W        W39570  31.549  30.600   4.666
74410W        W39571  16.242  39.300   1.840
74411W        W39572  13.472  39.935   0.982
74412W        W39573  13.724  20.657   0.541
74413W        W39574  15.817  13.042  12.156
74414W        W39575  39.042   8.398  10.755
74415W        W39576   6.259  11.035   1.265
74416W        W39577  14.074   2.505  10.452
74417W        W39578  31.672   7.048   4.329
74418W        W39579  11.168  28.510  11.982
74419W        W39580  10.651   2.120  10.717
74420W        W39581  38.780  15.844  13.373
74421W        W39582  39.498  33.924   2.230
74422W        W39583   0.809  44.258   4.523
74423W        W39584  31.504   1.282  14.464
74424W        W39585  22.162  15.037  12.497
74425W        W39586  10.570  29.844   2.942
74426W        W39587  27.040  40.936   1.059
74427W        W39588  12.413   6.514   0.837
74428W        W39589  20.987   6.616   1.244
74429W        W39590   3.219  17.736   0.017
74430W        W39591   3.436  36.070   2.676
74431W        W39592  12.803  32.215  11.244
74432W        W39593  37.592  14.130  13.796
74433W        W39594  43.784   4.257   0.353
74434W        W39595  38.214   6.956  13.526
74435W        W39596  19.239   7.012   1.314
74436W        W39597  15.327  43.331   1.482
74437W        W39598  10.346   7.777  11.211
74438W        W39599   7.446   8.769  12.759
74439W        W39600  15.564   8.027   1.839
74440W        W39601  43.935  24.705  13.017
74441W        W39602  21.172  15.730   3.304
74442W        W39603  21.624  16.026   3.153
74443W        W39604  22.131  43.937  14.458
74444W        W39605  28.104  41.814  10.968
74445W        W39606   6.934  44.345  12.140
74446W        W39607   0.313  25.376  11.971
74447W        W39608  11.308  33.145  12.406
74448W        W39609  25.501  26.396   1.708
74449W        W39610  42.408  30.951   4.312
74450W        W39611  13.353  37.590  12.645
74451W        W39612  41.596  19.604   1.248
74452W        W39613  14.145  20.997   0.542
74453W        W39614  39.333  19.127   2.981
74454W        W39615  10.685  19.058   1.347
74455W        W39616  22.144  17.147   4.147
74456W        W39617   4.290  19.145   4.288
74457W        W39618  35.503  12.080   1.800
74458W        W39619   1.892  38.887  14.015
74459W        W39620  33.401  21.099   0.486
74460W        W39621  21.480  17.973   0.335
74461W        W39622  34.300  24.627   1.748
74462W        W39623  18.095   1.675   2.658
74463W        W39624  31.975  30.506   0.673
74464W        W39625   3.657  28.875   2.807
74465W        W39626   4.711  42.226   3.631
74466W        W39627  41.527  18.290   3.445
74467W        W39628  35.974  20.718   2.217
74468W        W39629   2.369  33.884   1.314
74469W        W39630  11.195   0.284  14.736
74470W        W39631   8.744  27.438  10.675
74471W        W39632  39.480  41.946   5.162
74472W        W39633   6.700  27.545  12.973
74473W        W39634   3.725  33.422   3.244
74474W        W39635  39.459  31.697   2.347
74475W        W39636  41.239  34.865   0.475
74476W        W39637  40.527  15.151   3.365
74477W        W39638  27.235  11.517   2.232
74478W        W39639  20.240  11.198  13.828
74479W        W39640  35.675   0.400  11.802
74480W        W39641  33.092  18.570  13.810
74481W        W39642  21.368  38.460   2.310
74482W        W39643  36.884  10.983   1.316
74483W        W39644  36.870   1.349   2.231
74484W        W39645   7.576  10.850  12.414
74485W        W39646  42.342  23.650   0.963
74486W        W39647  29.029  10.619  11.470
74487W        W39648  22.068  32.165  13.925
74488W        W39649   3.886  25.982  13.958
74489W        W39650  11.780  12.986  13.134
74490W        W39651   7.657  20.519   1.958
74491W        W39652  44.047   4.252  12.785
74492W        W39653  27.385  25.131  14.334
74493W        W39654  12.676   4.820  14.749
74494W        W39655  14.891  32.954  11.611
74495W        W39656   5.852   2.867   1.454
74496W        W39657  16.193  15.631   1.495
74497W        W39658   4.184  38.066  11.342
74498W        W39659  39.086  28.419   3.721
74499W        W39660  42.997  41.773  11.912
74500W        W39661  31.931  22.536  10.334
74501W        W39662  17.760  31.449   4.833
74502W        W39663   1.978  14.592   0.866
74503W        W39664  44.481   4.590  13.457
74504W        W39665  30.529   0.022  13.292
74505W        W39666  13.715   8.128  12.563
74506W        W39667  15.299  17.034  11.418
74507W        W39668  21.659  26.696   1.344
74508W        W39669  19.378  29.065  10.727
74509W        W39670  43.240  24.998   0.281
74510W        W39671  28.461   6.978   0.403
74511W        W39672  18.780  19.647   2.669
74512W        W39673  27.011  34.732  11.954
74513W        W39674   6.907  27.394   0.852
74514W        W39675  38.643   8.337   1.926
74515W        W39676  32.313  11.223  14.713
74516W        W39677  38.427  25.683   3.247
74517W        W39678  41.188  42.923  13.627
74518W        W39679  27.730   5.802   4.067
74519W        W39680  14.976  27.046   0.472
74520W        W39681  34.938  12.521  12.352
74521W        W39682   8.952  18.149   3.214
74522W        W39683  14.835  22.645  10.719
74523W        W39684   6.653  33.564   2.320
74524W        W39685  19.990  23.445   4.029
74525W        W39686   6.798  25.306  13.363
74526W        W39687  30.955  32.085  12.340
74527W        W39688   6.249   5.201   4.551
74528W        W39689  40.421  22.091   0.403
74529W        W39690  13.775  19.235   1.426
74530W        W39691   9.309  22.012   2.679
74531W        W39692   5.583  25.457  10.456
74532W        W39693  14.666  18.583  12.062
74533W        W39694  36.683  21.270  12.026
74534W        W39695  33.321  18.519  13.331
74535W        W39696  29.906  22.508  14.862
74536W        W39697  43.845   4.080   3.980
74537W        W39698  38.502   1.198   4.225
74538W        W39699  30.161  27.524   3.725
74539W        W39700  24.309  10.274  14.326
74540W        W39701  39.998  28.468   4.800
74541W        W39702   3.949  25.847   1.964
74542W        W39703  21.584  18.050   4.635
74543W        W39704  33.908  11.810  12.112
74544W        W39705   3.758  31.052   1.190
74545W        W39706  34.513   7.208   3.364
74546W        W39707  38.984   8.412  11.671
74547W        W39708  30.055   9.159   0.815
74548W        W39709  18.610  19.506   3.135
74549W        W39710  33.659  31.627  13.429
74550W        W39711  33.169  33.833  11.989
74551W        W39712  18.173  30.692  12.996
74552W        W39713  33.504  21.631   1.722
74553W        W39714  29.607  11.672  12.462
74554W        W39715  12.824  25.998  13.547
74555W        W39716  28.436  34.014   2.296
74556W        W39717  42.420  10.294   1.730
74557W        W39718  19.622  25.964  12.100
74558W        W39719  34.436  13.278   1.652
74559W        W39720  24.618  44.519  14.137
74560W        W39721  44.102  42.759  14.402
74561W        W39722  30.128  18.887   0.164
74562W        W39723   1.002  40.935  13.086
74563W        W39724  21.200   7.733   1.719
74564W        W39725  36.862   9.802   2.766
74565W        W39726  11.292  34.912  11.458
74566W        W39727  43.959  37.799   2.693
74567W        W39728   5.112   6.390  11.682
74568W        W39729   3.168  26.981  10.967
74569W        W39730   0.792  18.250   4.678
74570W        W39731  22.728  41.848  13.542
74571W        W39732  37.040  30.162   1.719
74572W        W39733  44.159  15.908   2.151
74573W        W39734  31.900  31.015  13.926
74574W        W39735  20.702  43.779  12.047
74575W        W39736  40.072  19.509   0.356
74576W        W39737  39.858  30.426  12.121
74577W        W39738   6.900  27.608   1.752
74578W        W39739  12.510   5.901  14.945
74579W        W39740  12.836  18.155   3.400
74580W        W39741  11.235   1.434  14.039
74581W        W39742  10.602  22.086  14.191
74582W        W39743  39.915  39.875   0.323
74583W        W39744  28.863  34.425  14.547
74584W        W39745  15.753  14.619  14.807
74585W        W39746   9.345   8.950   2.936
74586W        W39747  30.199   5.865   2.366
74587W        W39748  32.125  17.623   1.811
74588W        W39749  34.037  42.374   4.696
74589W        W39750   7.612   2.549   1.943
74590W        W39751   3.253  31.729  10.527
74591W        W39752  21.867   2.365   4.641
74592W        W39753   0.254  44.410  14.792
74593W        W39754  41.408  21.378  12.450
74594W        W39755  34.446  24.006  10.873
74595W        W39756   2.287  14.832  12.366
74596W        W39757  39.800  43.889   3.880
74597W        W39758  28.534  20.551   2.683
74598W        W39759  32.934   9.588  12.447
74599W        W39760  14.114   0.966   1.853
74600W        W39761  11.122  38.818   4.269
74601W        W39762  42.485  26.359   3.195
74602W        W39763  17.299  24.192  12.043
74603W        W39764  16.258  36.845   4.162
74604W        W39765   2.221  26.517   1.871
74605W        W39766  25.013  17.055   4.461
74606W        W39767  36.660   6.762  12.499
74607W        W39768  27.510  30.698  11.639
74608W        W39769  26.711  14.251   1.822
74609W        W39770  21.833   6.909   1.683
74610W        W39771  29.274   2.240   0.906
74611W        W39772  20.289  11.903  11.413
74612W        W39773  39.208   7.165   0.993
74613W        W39774  10.308  44.886   1.361
74614W        W39775   5.162  29.806  13.948
74615W        W39776  42.936  16.044  13.315
74616W        W39777   5.013   3.009   1.416
74617W        W39778   5.764  38.041   0.383
74618W        W39779   3.894   7.280   0.419
74619W        W39780  16.214   4.433  14.829
74620W        W39781  23.789   2.486  11.661
74621W        W39782  38.331  10.695   2.363
74622W        W39783  36.924  23.534  14.930
74623W        W39784  16.520  15.981  14.189
74624W        W39785  16.792  41.046   1.922
74625W        W39786  22.728  35.992  10.399
74626W        W39787   4.944  34.869   4.268
74627W        W39788  27.388  37.059  12.207
74628W        W39789  14.494  15.342   0.063
74629W        W39790  35.421   1.341  13.294
74630W        W39791  28.980   1.409   2.371
74631W        W39792  30.378  11.637  10.656
74632W        W39793  17.266  44.017   4.094
74633W        W39794  14.699  27.747  13.886
74634W        W39795  32.618   6.122  14.780
74635W        W39796   7.346  10.081  11.949
74636W        W39797   5.591   0.388  14.880
74637W        W39798  14.224   9.916   2.687
74638W        W39799  40.997  27.510   2.759
74639W        W39800  27.205   8.434  11.212
74640W        W39801  26.505  27.939  13.048
74641W        W39802  28.547  29.101   4.645
74642W        W39803   3.000  24.300   3.093
74643W        W39804  29.031  38.242   2.305
74644W        W39805  42.383  12.252  13.464
74645W        W39806  25.582   7.677  12.126
74646W        W39807   7.344  12.191  13.350
74647W        W39808  43.295   6.350   2.347
74648W        W39809  41.963  37.987  12.941
74649W        W39810  24.585   5.196  14.393
74650W        W39811  40.852   0.686  13.857
74651W        W39812   6.615   2.342  12.088
74652W        W39813  32.919  29.471  10.773
74653W        W39814  34.597  28.054   2.712
74654W        W39815  38.566  18.744  13.528
74655W        W39816  20.292  12.417  11.492
74656W        W39817  39.881  18.509  14.325
74657W        W39818   4.955  17.873  14.005
74658W        W39819  20.672  44.064   1.882
74659W        W39820  16.312  34.690   4.973
74660W        W39821  10.798  23.679   3.998
74661W        W39822  11.035   0.967  14.407
74662W        W39823  15.730  28.320  10.998
74663W        W39824  26.054  21.492  12.599
74664W        W39825   6.959   6.322   2.259
74665W        W39826  30.396  29.040   4.619
74666W        W39827  13.702  26.067  13.013
74667W        W39828  23.670   3.118   2.827
74668W        W39829  44.651  21.331   0.722
74669W        W39830   4.811  32.756   4.133
74670W        W39831  36.120  33.967   1.724
74671W        W39832  15.213   8.464  13.497
74672W        W39833   1.390   6.824   2.851
74673W        W39834  32.437  12.084   2.423
74674W        W39835  16.692  27.986   4.585
74675W        W39836   6.939  36.646   4.205
74676W        W39837  16.163  40.633  12.112
74677W        W39838  31.158  36.690  13.721
74678W        W39839   5.877  42.848   3.264
74679W        W39840   5.865   1.727  14.618
74680W        W39841  10.148  44.096   3.663
74681W        W39842  35.006  21.098   2.899
74682W        W39843  16.110  30.735  14.925
74683W        W39844  34.824   3.149   0.382
74684W        W39845  25.405  33.985  13.297
74685W        W39846  14.111   5.523  12.682
74686W        W39847  22.613  13.899  12.773
74687W        W39848  44.150  10.393  14.346
74688W        W39849   2.335  21.229   4.617
74689W        W39850   9.969  14.778  14.065
74690W        W39851  33.053  33.743   0.845
74691W        W39852  18.358  37.514   3.851
74692W        W39853  25.074  28.918   1.743
74693W        W39854   3.702   1.418  13.388
74694W        W39855  43.686   3.445  11.613
74695W        W39856  36.452   8.361   3.675
74696W        W39857   0.701   6.691  10.534
74697W        W39858   6.765  38.833  10.830
74698W        W39859  15.691  31.102   0.656
74699W        W39860  35.237  25.682   2.231
74700W        W39861   2.960  16.658  12.964
74701W        W39862   4.729   2.879   3.039
74702W        W39863  20.537  19.436  10.084
74703W        W39864  16.339  42.566  11.966
74704W        W39865  13.736   2.912   4.884
74705W        W39866  13.790  31.840  14.853
74706W        W39867  10.208   5.004  14.848
74707W        W39868  24.307  17.201  11.639
74708W        W39869  27.446  38.050   1.411
74709W        W39870  16.658  23.774  10.722
74710W        W39871  20.518   5.350   4.677
74711W        W39872  38.492  25.414  11.607
74712W        W39873  44.011   8.915  12.724
74713W        W39874  20.247  26.869   2.482
74714W        W39875  31.113  25.927  13.001
74715W        W39876  25.586  16.008   0.741
74716W        W39877  31.512  30.381   0.871
74717W        W39878  18.546  40.195   0.004
74718W        W39879  17.526  31.683   4.437
74719W        W39880  35.162  41.950   0.468
74720W        W39881  28.400   1.241   3.799
74721W        W39882  32.083  40.019   2.250
74722W        W39883  18.901  44.613   0.968
74723W        W39884  36.904  35.602  12.905
74724W        W39885  20.972  30.045  12.928
74725W        W39886  36.400  15.671  13.981
74726W        W39887  41.753  34.442   4.397
74727W        W39888  26.867  24.022  12.352
74728W        W39889  13.287  31.280   2.818
74729W        W39890  33.899  17.767   0.764
74730W        W39891  27.545  35.388   2.893
74731W        W39892  13.340  35.757   3.569
74732W        W39893  38.410  38.621   2.765
74733W        W39894   3.893   6.821  11.388
74734W        W39895  17.732  41.254   2.296
74735W        W39896  13.133  13.148  11.953
74736W        W39897  23.955  38.738  14.332
74737W        W39898  25.207  12.638  14.720
74738W        W39899  40.086   0.349  11.098
74739W        W39900  35.776  25.456   0.311
74740W        W39901  24.543   0.575  14.862
74741W        W39902   8.942  30.342   0.871
74742W        W39903  20.702  11.360   0.896
74743W        W39904  11.114   2.793  14.263
74744W        W39905  35.916  22.326   4.758
74745W        W39906  29.517  30.050  12.125
74746W        W39907  38.098   9.693   0.667
74747W        W39908  41.382  34.508   3.570
74748W        W39909   0.517  38.268  14.911
74749W        W39910  39.356  34.320  14.977
74750W        W39911  11.912  19.181  12.958
74751W        W39912  18.752   2.774   1.428
74752W        W39913   6.834  38.640   1.445
74753W        W39914  42.858   0.839  10.991
74754W        W39915  41.327  28.565  12.838
74755W        W39916  11.724  32.001  10.657
74756W        W39917   8.753  15.158  11.679
74757W        W39918   2.468   9.357  13.810
74758W        W39919  18.188  10.433  13.667
74759W        W39920  26.584  16.500   1.722
74760W        W39921   0.315  28.752   2.854
74761W        W39922  41.102   8.450  12.498
74762W        W39923  14.014  23.553   2.351
74763W        W39924  25.400   0.400  12.568
74764W        W39925  11.264  36.868   3.377
74765W        W39926  36.416  18.562   0.315
74766W        W39927   3.280  32.973   3.916
74767W        W39928  18.365  17.066  12.060
74768W        W39929   8.230  22.497  11.960
74769W        W39930  34.118   3.320  14.044
74770W        W39931  23.031   2.452  14.746
74771W        W39932  15.707  38.829   9.950
74772W        W39933  33.818  22.624   1.431
74773W        W39934  27.427   9.424   0.789
74774W        W39935   4.220  36.390  10.667
74775W        W39936   7.842  30.480  14.554
74776W        W39937  20.508  32.500   3.153
74777W        W39938   7.413  17.039   3.244
74778W        W39939  13.372  24.016  12.615
74779W        W39940  11.092  30.433  13.957
74780W        W39941  30.056  28.298  13.589
74781W        W39942  33.283   9.502   2.222
74782W        W39943  34.929  10.287  10.944
74783W        W39944  27.108  28.806   2.188
74784W        W39945  37.007  31.975   1.261
74785W        W39946  11.856  30.020  12.853
74786W        W39947  41.794  23.497   3.684
74787W        W39948  36.273  30.704   3.312
74788W        W39949   1.731  43.740   3.932
74789W        W39950  22.643  36.559  11.707
74790W        W39951   2.171  29.024   3.565
74791W        W39952  22.796  12.069   2.292
74792W        W39953  36.327   9.884   3.211
74793W        W39954   1.932  30.659   0.922
74794W        W39955   0.308  10.069   5.294
74795W        W39956  17.753  42.579  12.179
74796W        W39957  42.899   8.246   2.675
74797W        W39958  14.861  32.090   0.405
74798W        W39959  33.881  30.030  14.827
74799W        W39960  11.137  36.434   0.730
74800W        W39961  17.817  27.393  12.014
74801W        W39962  34.889  37.142  12.918
74802W        W39963   5.861  20.025   4.533
74803W        W39964  37.296  38.985   4.130
74804W        W39965  37.566  37.412  13.800
74805W        W39966  38.996  26.960  13.884
74806W        W39967   7.152  17.012   1.592
74807W        W39968  10.161  13.555   1.904
74808W        W39969  38.552  26.813  12.382
74809W        W39970  14.726   5.786  12.861
74810W        W39971  43.407  41.834  14.960
74811W        W39972  40.014  14.304   2.672
74812W        W39973  15.148  18.796  14.319
74813W        W39974  28.716  19.160  11.595
74814W        W39975  27.012   3.331   1.024
74815W        W39976  12.343  18.901  11.270
74816W        W39977  23.597   9.836  14.949
74817W        W39978  31.972  35.908   4.119
74818W        W39979  20.586  31.831  13.453
74819W        W39980  11.596  43.665  14.090
74820W        W39981   3.678  42.928   4.124
74821W        W39982  20.177  35.360   0.030
74822W        W39983  13.347  15.964   3.711
74823W        W39984   8.354  30.815  13.455
74824W        W39985  42.998   5.460  13.945
74825W        W39986  30.957  13.684  14.784
74826W        W39987  42.896   3.208  14.940
74827W        W39988   9.552  41.534  11.694
74828W        W39989  10.813  37.813  13.915
74829W        W39990  21.933  33.158  13.844
74830W        W39991   4.296  25.301  13.175
74831W        W39992  27.677  34.557  13.370
74832W        W39993  28.041  21.258  14.376
74833W        W39994  30.579   5.820   4.546
74834W        W39995   7.646  37.115   1.429
74835W        W39996   2.211  18.324   4.791
74836W        W39997  34.153   0.210  13.438
74837W        W39998   6.308  38.858   0.370
74838W        W39999  11.739  23.431   1.899
74839W        W40000  13.419  20.068  11.289
74840W        W40001  37.991  16.065  14.387
74841W        W40002  17.558  18.831  11.946
74842W        W40003  38.764  26.297   3.674
74843W        W40004   4.734  42.638  11.119
74844W        W40005  41.262  39.619  11.175
74845W        W40006  35.608  15.249   2.099
74846W        W40007   9.492  30.546   3.149
74847W        W40008  10.828  36.568  12.660
74848W        W40009  30.379  43.190  11.976
74849W        W40010  15.605  20.717   1.867
74850W        W40011  28.948  14.445  11.144
74851W        W40012  11.703   4.908  13.214
74852W        W40013  38.341  44.647   3.133
74853W        W40014  30.429  34.105  13.096
74854W        W40015  34.112  44.677   0.908
74855W        W40016  12.610  12.452   0.822
74856W        W40017  27.131  33.409   4.901
74857W        W40018  40.591  33.461  14.377
74858W        W40019  23.432  23.518   4.903
74859W        W40020  10.182   9.357  14.955
74860W        W40021  15.739  24.999   3.914
74861W        W40022  24.569   1.113   4.478
74862W        W40023  22.443   3.086  10.191
74863W        W40024   5.505  43.497   0.796
74864W        W40025   8.792  38.493  12.350
74865W        W40026  22.621   7.851  11.015
74866W        W40027  36.089   4.493  12.883
74867W        W40028   7.442  31.060   2.165
74868W        W40029  11.120  39.951  14.007
74869W        W40030  30.174  12.125  10.677
74870W        W40031   3.385  24.922   3.570
74871W        W40032  35.845  32.341   0.345
74872W        W40033  28.395  44.285   4.096
74873W        W40034  23.207  21.622   1.075
74874W        W40035  40.902  34.162   1.856
74875W        W40036   0.784  43.339   2.130
74876W        W40037  13.833  39.485  12.437
74877W        W40038   7.332   9.907  12.951
74878W        W40039  16.154  15.140   3.256
74879W        W40040  37.905   5.286  12.048
74880W        W40041  39.340  10.657   0.483
74881W        W40042   3.317  19.144   4.558
74882W        W40043  35.670  10.536   1.368
74883W        W40044  33.463  29.900   1.832
74884W        W40045   0.353  18.826  14.925
74885W        W40046  41.059  31.663  13.821
74886W        W40047  23.767  25.206   5.081
74887W        W40048  36.164  35.680  12.530
74888W        W40049  22.308   4.493   2.707
74889W        W40050  11.450  26.939  13.420
74890W        W40051  14.922   0.174   0.899
74891W        W40052  20.776  38.060   4.462
74892W        W40053  29.989  17.265  10.618
74893W        W40054  32.319   8.794   4.507
74894W        W40055  16.413  43.448  11.555
74895W        W40056   4.775   7.122  10.660
74896W        W40057   5.866  10.860  11.073
74897W        W40058  19.372  34.378   4.594
74898W        W40059  26.066   3.882  11.092
74899W        W40060   8.791  10.333  13.523
74900W        W40061   1.888  15.287  13.145
74901W        W40062  30.026   8.153   4.674
74902W        W40063  20.611  23.158   2.788
74903W        W40064  20.118  23.077   2.395
74904W        W40065  18.020  28.142  13.423
74905W        W40066  30.099  30.693  12.349
74906W        W40067   8.581   4.570  14.248
74907W        W40068  36.064   0.968   5.018
74908W        W40069  13.957   1.273   0.181
74909W        W40070  36.185  19.101   2.169
74910W        W40071  19.004  27.427   4.231
74911W        W40072  29.037  41.948  10.569
74912W        W40073  17.727  23.224   1.781
74913W        W40074   7.677  27.080  13.885
74914W        W40075   1.216  40.255   3.966
74915W        W40076  37.483  43.723  13.892
74916W        W40077  43.791  22.115  13.131
74917W        W40078  34.614  12.791   0.868
74918W        W40079  19.747  32.228   0.322
74919W        W40080  41.436  12.577  14.983
74920W        W40081  10.379  22.656   3.610
74921W        W40082  39.445  12.288   1.696
74922W        W40083  17.809  16.624   0.546
74923W        W40084  40.214  42.291  10.826
74924W        W40085  29.600  24.916   0.875
74925W        W40086  28.527  22.523   0.469
74926W        W40087  14.114  35.625   1.217
74927W        W40088  34.281  17.224   2.256
74928W        W40089  19.547  13.051   3.184
74929W        W40090  28.493  16.508  14.029
74930W        W40091  43.825  16.729   0.715
74931W        W40092  28.104  16.340  14.600
74932W        W40093   3.525  13.456   5.176
74933W        W40094  12.159  28.879  13.973
74934W        W40095  43.898  33.435  12.019
74935W        W40096  23.698   7.800  13.976
74936W        W40097  10.147   5.478   0.050
74937W        W40098  36.523  31.811   1.409
74938W        W40099  23.129  34.929  12.127
74939W        W40100   8.344  34.489  10.713
74940W        W40101  41.884   2.875   1.209
74941W        W40102   9.858  26.077  11.114
74942W        W40103  14.334  29.177   0.609
74943W        W40104  30.760  34.555   0.285
74944W        W40105  24.964  25.472   0.067
74945W        W40106   2.398   2.053   0.026
74946W        W40107  16.791   7.514  12.035
74947W        W40108  24.456  43.492  11.075
74948W        W40109  41.943  38.430  12.611
74949W        W40110  31.062  32.461  14.720
74950W        W40111  37.024  21.628   3.396
74951W        W40112  26.753  23.277  14.443
74952W        W40113  14.055  43.870   2.386
74953W        W40114  20.352  19.237  10.963
74954W        W40115  16.491  32.141   3.607
74955W        W40116   1.827  33.254   2.239
74956W        W40117  38.200  41.468  11.578
74957W        W40118  16.246   8.632  11.080
74958W        W40119  22.683  19.626  14.321
74959W        W40120  15.769   1.351   3.775
74960W        W40121   9.111  40.757  12.856
74961W        W40122  22.719   9.733  13.883
74962W        W40123  19.242   7.472   3.613
74963W        W40124  39.987  22.729  14.414
74964W        W40125   1.220  31.868   3.236
74965W        W40126  26.935  16.752  12.501
74966W        W40127  29.512  20.986   0.931
74967W        W40128  34.604  17.236  13.463
74968W        W40129   8.562  14.337   4.998
74969W        W40130  38.927  18.249   4.623
74970W        W40131  14.619  34.770  12.083
74971W        W40132  35.960  26.888  14.226
74972W        W40133  39.206  27.357   0.045
74973W        W40134  37.707   9.883   0.980
74974W        W40135  10.128   1.460  11.634
74975W        W40136  31.886  39.971  14.273
74976W        W40137  24.576  20.748  11.668
74977W        W40138  16.386  43.329   1.367
74978W        W40139  35.988  25.523   4.597
74979W        W40140  36.570  11.831  14.324
74980W        W40141  43.279  29.379  12.201
74981W        W40142  33.912   0.668  14.753
74982W        W40143  44.036  36.342   3.220
74983W        W40144   0.431  32.098  13.492
74984W        W40145  43.454  14.350   5.263
74985W        W40146  35.445  31.621  11.164
74986W        W40147  24.457   2.556  14.757
74987W        W40148  32.854   6.658  13.920
74988W        W40149  16.008   7.907   0.364
74989W        W40150  36.257  42.652  10.007
74990W        W40151  37.940  22.761   0.855
74991W        W40152  41.412  29.622  14.587
74992W        W40153  33.697  13.700   1.839
74993W        W40154  41.652  15.802   2.119
74994W        W40155   4.455   7.677   1.659
74995W        W40156  14.491   4.775   0.475
74996W        W40157  24.534  28.744   1.871
74997W        W40158  39.124  25.671  12.902
74998W        W40159  25.161  24.564   2.908
74999W        W40160  44.747  17.364  11.029
75000W        W40161   7.034  23.111  10.636
75001W        W40162  37.282  43.831   0.250
75002W        W40163  35.535   1.587  14.132
75003W        W40164  36.911  31.431   4.155
75004W        W40165  31.366  40.862  10.728
75005W        W40166   6.906  36.931   0.326
75006W        W40167  13.682  15.549  12.217
75007W        W40168  39.515  34.336  13.007
75008W        W40169  37.024  36.128   2.723
75009W        W40170  12.183  16.758   2.650
75010W        W40171   9.971   6.375   0.972
75011W        W40172  23.567  36.363   4.129
75012W        W40173  13.999  41.075   4.100
75013W        W40174  12.770  38.634  13.402
75014W        W40175  16.780   9.417   0.733
75015W        W40176  17.549  44.626   9.866
75016W        W40177  37.831  32.057   2.607
75017W        W40178  33.895   5.344   4.774
75018W        W40179  33.968   7.708   1.435
75019W        W40180  25.316  34.011   1.159
75020W        W40181  13.832  40.921  11.629
75021W        W40182  16.406  12.623   0.456
75022W        W40183  38.171  41.835  14.942
75023W        W40184   5.958  35.623   3.772
75024W        W40185   8.890  32.557  14.334
75025W        W40186   9.866  38.521  11.784
75026W        W40187   2.983  39.910  13.999
75027W        W40188  28.272  19.790   3.145
75028W        W40189   7.889  29.035  11.378
75029W        W40190  14.060  40.304  13.937
75030W        W40191   1.715   1.440  12.102
75031W        W40192  16.672  38.484  14.239
75032W        W40193  10.465  21.090  14.314
75033W        W40194  40.565  42.912  10.986
75034W        W40195  24.732  13.325   4.180
75035W        W40196   3.275   1.527   0.744
75036W        W40197  44.948   7.620  13.407
75037W        W40198  40.731   6.460   3.907
75038W        W40199  30.240  37.886   2.248
75039W        W40200  44.032  40.426   3.695
75040W        W40201  18.327  27.618   2.856
75041W        W40202   5.264  32.676  12.016
75042W        W40203  31.350  43.512  12.249
75043W        W40204   3.840  25.697  13.517
75044W        W40205  34.231  44.015  10.521
75045W        W40206  29.394  13.583   0.795
75046W        W40207  12.090   2.257  10.808
75047W        W40208  15.192   4.717   2.503
75048W        W40209  28.657  35.683  14.926
75049W        W40210  21.507  10.890   2.051
75050W        W40211   0.499   3.162   0.295
75051W        W40212  18.863  39.741   0.806
75052W        W40213  34.886  43.018   1.347
75053W        W40214   0.027  21.042  14.372
75054W        W40215   5.910  16.280   4.567
75055W        W40216  12.295  41.224   2.260
75056W        W40217  38.011  29.497   3.438
75057W        W40218   1.977   7.403   3.212
75058W        W40219   8.415  19.723  14.602
75059W        W40220  26.997  38.579  13.904
75060W        W40221  37.874  39.962  11.844
75061W        W40222  28.555  31.443   1.794
75062W        W40223  17.773  32.607  10.748
75063W        W40224  20.146  39.896  10.254
75064W        W40225  15.788  23.242   3.066
75065W        W40226  37.595  17.673  12.662
75066W        W40227  32.942  41.381   1.285
75067W        W40228  33.468  40.333   2.972
75068W        W40229   5.238   0.641   1.413
75069W        W40230   2.346  43.357  12.010
75070W        W40231  26.342   5.584  13.070
75071W        W40232  28.172  15.642   1.945
75072W        W40233  28.018  21.781   0.308
75073W        W40234   7.218  30.247   4.514
75074W        W40235  36.670  12.211  11.068
75075W        W40236   7.107  35.505   3.338
75076W        W40237   6.428  40.921  14.343
75077W        W40238   0.839  14.693   4.693
75078W        W40239  13.884  34.849   3.795
75079W        W40240  41.533  34.635  14.550
75080W        W40241   3.510  14.332   1.794
75081W        W40242  39.099  17.543  11.643
75082W        W40243  44.259  27.423  11.532
75083W        W40244  32.669  31.603  10.576
75084W        W40245  14.112  11.813   4.200
75085W        W40246  25.016  26.037   3.199
75086W        W40247   7.668  22.694   1.775
75087W        W40248  14.927  44.649   0.953
75088W        W40249  13.084  10.456  11.639
75089W        W40250  38.897  26.664   0.393
75090W        W40251   9.672   7.285  11.382
75091W        W40252  23.669  39.597  13.395
75092W        W40253  26.919  26.624   1.867
75093W        W40254  33.464  13.998  12.604
75094W        W40255  43.355  30.630  14.694
75095W        W40256  30.628  15.522  13.096
75096W        W40257   5.293   2.063  13.431
75097W        W40258   4.408  11.265   2.148
75098W        W40259  25.148  20.200  12.581
75099W        W40260   5.159  24.181   5.055
75100W        W40261  10.617  11.277  12.860
75101W        W40262   8.367   8.068  12.012
75102W        W40263  36.780  33.419  14.955
75103W        W40264  43.736  18.302   3.067
75104W        W40265   9.288  18.594  12.504
75105W        W40266  17.808  44.231   2.057
75106W        W40267  36.199  19.817   2.629
75107W        W40268  44.909  33.546   1.488
75108W        W40269   5.645   8.900   1.420
75109W        W40270   5.968  27.084   3.575
75110W        W40271   2.796   1.885  14.690
75111W        W40272   5.253  41.241  10.711
75112W        W40273  31.770  33.611   2.692
75113W        W40274  26.785  39.961   3.545
75114W        W40275  15.144   5.805   4.544
75115W        W40276  30.150  43.400   3.531
75116W        W40277  13.435  35.807   2.509
75117W        W40278  13.549  15.200  10.931
75118W        W40279  25.534   3.253  13.583
75119W        W40280   6.687   1.484  13.394
75120W        W40281  17.011  44.818   2.838
75121W        W40282  10.202  38.147   0.298
75122W        W40283   6.415  31.429   1.028
75123W        W40284   1.745  13.977   1.442
75124W        W40285  35.678  32.064  11.126
75125W        W40286  16.711  27.783   2.442
75126W        W40287  23.148  10.054  12.618
75127W        W40288   1.324  32.398   0.773
75128W        W40289   0.065  27.458  13.132
75129W        W40290  17.395  15.728  12.477
75130W        W40291  32.658  33.548   2.411
75131W        W40292  14.113  40.585   2.297
75132W        W40293   8.780  44.523   0.738
75133W        W40294  10.817   1.252   3.693
75134W        W40295  28.121  37.839   9.699
75135W        W40296  44.164  22.038   3.136
75136W        W40297  33.710  17.160   5.074
75137W        W40298  41.334  17.335  13.917
75138W        W40299  30.555  39.994   1.354
75139W        W40300  32.981   4.405   2.966
75140W        W40301  30.967   8.790  12.588
75141W        W40302  39.828  10.643   4.885
75142W        W40303  12.347  30.210  14.776
75143W        W40304  24.576   1.418  12.186
75144W        W40305   7.717  30.062  14.936
75145W        W40306  20.193  39.705   9.785
75146W        W40307  36.325  37.667  13.372
75147W        W40308  43.344  28.307  10.324
75148W        W40309   9.438  12.191   3.610
75149W        W40310  23.781  16.220  10.875
75150W        W40311  41.583  15.092   4.133
75151W        W40312  26.617  35.413   4.554
75152W        W40313   8.016  27.536  11.162
75153W        W40314  26.229   7.296   0.803
75154W        W40315  26.983   5.477   4.451
75155W        W40316   8.141  30.915  11.115
75156W        W40317  32.435  13.006  11.205
75157W        W40318  25.274   0.910   0.371
75158W        W40319  34.022   1.166  12.562
75159W        W40320  38.529  15.650  14.606
75160W        W40321  39.008   4.310  14.126
75161W        W40322  39.952  21.203   1.392
75162W        W40323  44.414  18.180  14.844
75163W        W40324  38.118  24.277   3.210
75164W        W40325  10.858  44.411   0.201
75165W        W40326  44.979  28.107   3.355
75166W        W40327  25.199  35.497   3.235
75167W        W40328   3.532  25.069  13.867
75168W        W40329  19.698  43.892   4.354
75169W        W40330  13.066   4.985  11.886
75170W        W40331   3.338  44.636  12.807
75171W        W40332   3.196  22.707   1.730
75172W        W40333  39.815  42.375  12.389
75173W        W40334  25.136  41.034   0.017
75174W        W40335  22.315  34.576   3.755
75175W        W40336  30.892   9.243  12.883
75176W        W40337  17.343  27.151   0.486
75177W        W40338  20.819  24.729  12.517
75178W        W40339  35.101  22.222   1.367
75179W        W40340  20.190  27.420  13.118
75180W        W40341  15.599  25.969   4.725
75181W        W40342   5.850  24.414  12.216
75182W        W40343  40.385   3.767  12.231
75183W        W40344  20.824  29.807  12.487
75184W        W40345  28.006  39.902   0.347
75185W        W40346  36.805   8.506  12.102
75186W        W40347  28.568  24.105  13.370
75187W        W40348   8.653  31.849  14.100
75188W        W40349  24.290  39.002   0.304
75189W        W40350  40.463  43.810  10.633
75190W        W40351  30.864  33.576   4.651
75191W        W40352  11.390  20.562   3.586
75192W        W40353  30.462   0.423   1.965
75193W        W40354   6.875   2.285   0.503
75194W        W40355   3.270  18.231  11.684
75195W        W40356   4.339  22.713   4.611
75196W        W40357  44.769  16.638   2.498
75197W        W40358  28.134  22.225   4.976
75198W        W40359  14.186  31.271   2.873
75199W        W40360   8.409  30.407   1.813
75200W        W40361  32.298  26.093  14.966
75201W        W40362   0.667  40.469  10.178
75202W        W40363  26.747  35.069  11.600
75203W        W40364  33.993  18.349  13.943
75204W        W40365  10.648   5.840  10.272
75205W        W40366  35.936  36.444   5.047
75206W        W40367  25.691  43.547  10.703
75207W        W40368  32.894  35.768   0.881
75208W        W40369  41.099  23.707  11.797
75209W        W40370  27.625  12.832   0.653
75210W        W40371  34.355  18.228  13.412
75211W        W40372  24.044  14.805   2.539
75212W        W40373  25.580  34.992  11.912
75213W        W40374  36.488  14.453  13.641
75214W        W40375  12.116  35.205   4.188
75215W        W40376  13.260  41.095  12.251
75216W        W40377   9.369  26.457  11.921
75217W        W40378  22.016  28.634   0.811
75218W        W40379   6.410  24.821   0.054
75219W        W40380  43.970   1.156   2.273
75220W        W40381  40.924  39.117  12.015
75221W        W40382  43.831  41.653   1.730
75222W        W40383  25.970  41.646  10.456
75223W        W40384   9.150  38.506  13.409
75224W        W40385   1.197   4.364   2.546
75225W        W40386   1.234  35.358  12.015
75226W        W40387  10.309  26.544   0.103
75227W        W40388  42.574  32.084  13.980
75228W        W40389  29.720   8.551   4.935
75229W        W40390  15.844   0.733   3.369
75230W        W40391  24.074  33.008  11.952
75231W        W40392  21.027  23.088   3.605
75232W        W40393  26.514  18.129  13.788
75233W        W40394  31.589  25.134   4.072
75234W        W40395  44.383  42.520  12.842
75235W        W40396  17.723  10.612  13.475
75236W        W40397  27.566   6.686  11.924
75237W        W40398   5.784   8.259  10.482
75238W        W40399   0.269  40.593   0.507
75239W        W40400  38.816  36.366  10.478
75240W        W40401  40.944  43.957   4.914
75241W        W40402  32.209  37.062  12.460
75242W        W40403  28.437  22.689  13.349
75243W        W40404  12.334  30.576   4.821
75244W        W40405   2.969  17.359  11.668
75245W        W40406  42.330  24.685   1.384
75246W        W40407  13.283  30.580   2.298
75247W        W40408  37.198   9.760   2.273
75248W        W40409  11.148  10.104  11.872
75249W        W40410   8.763  20.136   1.896
75250W        W40411  18.373  44.407  12.892
75251W        W40412  15.764  40.932   0.967
75252W        W40413  27.428  37.887  14.491
75253W        W40414  19.098  37.950  14.274
75254W        W40415   3.657  11.658   3.827
75255W        W40416  30.595  34.526   4.105
75256W        W40417  34.834  14.493  12.517
75257W        W40418  36.583  12.656   2.202
75258W        W40419  16.878  10.623  14.189
75259W        W40420   9.181   9.827  11.000
75260W        W40421   6.776  37.857  14.466
75261W        W40422  19.748  37.495   4.072
75262W        W40423  29.954  41.367  12.289
75263W        W40424  18.723  23.040   2.115
75264W        W40425   7.374  38.807  14.370
75265W        W40426  43.027   5.701  10.626
75266W        W40427  34.032  17.790   2.229
75267W        W40428  40.843  40.211  11.195
75268W        W40429  42.058  12.119   1.384
75269W        W40430  36.061   4.821  10.395
75270W        W40431   0.662  11.259   0.938
75271W        W40432  33.922  22.266  14.438
75272W        W40433   6.063  25.450  13.464
75273W        W40434  20.125   0.509  13.355
75274W        W40435  21.762  37.530   3.551
75275W        W40436  27.692  29.020  14.304
75276W        W40437  42.068   3.001   2.643
75277W        W40438   6.301  11.252   3.291
75278W        W40439  32.052   8.123   1.226
75279W        W40440   2.953   4.301   0.466
75280W        W40441  41.884  43.405   0.755
75281W        W40442  12.784   5.955  12.034
75282W        W40443  39.788   9.166   1.490
75283W        W40444  16.633   2.324  13.547
75284W        W40445  44.814  22.025  10.483
75285W        W40446   9.506  27.206   1.119
75286W        W40447  36.376  44.245  14.947
75287W        W40448  27.249   1.810   1.000
75288W        W40449   9.639  41.003   4.624
75289W        W40450   3.225  25.775  12.142
75290W        W40451  41.988  24.144  13.953
75291W        W40452  11.809  12.221   4.350
75292W        W40453  43.303  26.883   0.391
75293W        W40454  14.473  44.346  12.427
75294W        W40455  33.583  34.900   2.354
75295W        W40456  43.019  21.101   1.363
75296W        W40457  24.573  26.903  14.428
75297W        W40458   5.286  10.262   3.066
75298W        W40459   6.873  35.064  13.480
75299W        W40460  32.841  43.532   2.867
75300W        W40461  35.566  41.873   4.087
75301W        W40462  27.653  37.421  11.914
75302W        W40463  17.008  10.793  14.644
75303W        W40464  24.204  14.740  11.074
75304W        W40465  32.199  25.453   4.089
75305W        W40466  11.569  29.883   2.078
75306W        W40467  27.612   9.492   2.951
75307W        W40468  42.908  27.152   1.241
75308W        W40469  22.530  13.122  14.807
75309W        W40470  19.152  21.725   0.982
75310W        W40471  36.961  13.614  14.434
75311W        W40472  13.802   4.193   0.666
75312W        W40473  44.636  41.212   1.093
75313W        W40474  15.081  19.530   1.666
75314W        W40475  22.209  13.614  12.616
75315W        W40476  40.956  43.070  12.752
75316W        W40477  31.976  19.463   4.225
75317W        W40478  30.105  32.875  12.960
75318W        W40479  43.443  33.431   0.999
75319W        W40480   7.690  19.963   3.611
75320W        W40481  39.837  25.420   3.144
75321W        W40482  25.918  37.084   3.238
75322W        W40483  15.187  32.527  11.503
75323W        W40484  29.397  44.235   2.866
75324W        W40485  26.957  43.959  11.358
75325W        W40486  22.246  17.037  11.671
75326W        W40487  12.443   2.768   1.248
75327W        W40488  11.413  39.726   2.770
75328W        W40489  10.177   3.511  14.984
75329W        W40490  33.839  18.097   4.440
75330W        W40491  25.109  15.557  10.090
75331W        W40492  18.290  44.933   3.257
75332W        W40493  22.629  17.129   4.887
75333W        W40494   2.695  34.162   4.193
75334W        W40495   6.698   4.876   2.059
75335W        W40496  17.242  38.076   2.858
75336W        W40497   0.019  14.834  13.781
75337W        W40498  10.030  20.096   2.487
75338W        W40499  10.135  42.819  14.707
75339W        W40500  40.306  15.573   4.570
75340W        W40501  33.215  26.527  10.847
75341W        W40502  11.869  18.484  13.562
75342W        W40503  38.397   6.511  11.596
75343W        W40504  41.985  11.154   0.309
75344W        W40505   1.585  34.757   4.481
75345W        W40506  26.525  16.125  10.274
75346W        W40507  11.648  37.039  11.888
75347W        W40508  14.275  12.836   3.915
75348W        W40509  30.584   0.929   4.589
75349W        W40510  22.651  33.434  10.679
75350W        W40511  39.003  37.736   3.787
75351W        W40512  12.120  26.698   3.698
75352W        W40513   8.978  39.988  14.286
75353W        W40514  30.959  18.660   2.545
75354W        W40515  38.865  36.541   1.299
75355W        W40516  25.058  18.776  12.389
75356W        W40517   1.741  32.376   0.364
75357W        W40518  21.082  17.989   2.905
75358W        W40519  29.918  37.857   4.788
75359W        W40520  14.660   7.480  11.716
75360W        W40521  33.071  29.333   3.788
75361W        W40522  15.823  37.904  12.019
75362W        W40523   1.400  17.089  11.916
75363W        W40524  17.146  40.934  12.094
75364W        W40525  32.860  30.544   2.863
75365W        W40526  36.486   4.295   3.108
75366W        W40527  41.017   0.477  12.790
75367W        W40528  35.441  27.217   3.439
75368W        W40529  31.548  23.772  10.624
75369W        W40530  23.609  12.295   2.899
75370W        W40531  27.740   4.115  11.626
75371W        W40532  20.572  26.877  11.150
75372W        W40533  17.594  36.069   4.600
75373W        W40534  17.218  42.845   2.098
75374W        W40535  34.510   8.825   0.094
75375W        W40536   4.384  35.893   4.597
75376W        W40537  43.377  25.127  10.790
75377W        W40538  27.526   7.314   4.411
75378W        W40539  31.113  11.798  14.952
75379W        W40540  39.496   6.717   3.111
75380W        W40541   7.946  29.629  14.790
75381W        W40542  29.943  13.671   0.761
75382W        W40543  22.518  28.311  11.207
75383W        W40544  18.006  36.540   4.015
75384W        W40545  44.699   9.523  13.229
75385W        W40546  27.495   8.982   3.071
75386W        W40547  42.683  36.762   3.778
75387W        W40548  23.943  21.209   3.129
75388W        W40549  34.308  33.446  11.144
75389W        W40550  15.683  38.875   1.870
75390W        W40551  28.477   9.886   0.677
75391W        W40552  24.795  22.194   1.819
75392W        W40553  32.443  37.617   1.865
75393W        W40554  27.893   7.738  10.323
75394W        W40555  40.941  17.307   0.896
75395W        W40556   0.196  19.145   4.358
75396W        W40557  36.090  27.542  10.515
75397W        W40558  42.844  31.374  11.504
75398W        W40559  24.630  22.570  13.438
75399W        W40560   0.332  41.365  10.652
75400W        W40561   3.153   8.114   3.059
75401W        W40562  18.529  29.622   1.292
75402W        W40563   0.863  35.365  14.524
75403W        W40564  10.741  26.744   4.902
75404W        W40565  40.949  41.486  12.447
75405W        W40566  25.778   3.881   0.249
75406W        W40567  29.123  13.916   4.195
75407W        W40568  44.052  15.346   1.412
75408W        W40569  16.437  10.878  14.360
75409W        W40570  43.827  12.385   3.313
75410W        W40571  33.936  17.324  14.563
75411W        W40572  42.263  16.257   0.931
75412W        W40573  16.862   1.577   0.465
75413W        W40574  24.980  30.912  14.402
75414W        W40575   8.420   8.798   2.533
75415W        W40576  33.949  18.171   3.269
75416W        W40577  29.220  18.154  12.380
75417W        W40578   9.167  42.941  11.523
75418W        W40579  11.661  42.268   2.700
75419W        W40580  41.063  11.621  14.820
75420W        W40581   0.888  25.313   5.062
75421W        W40582  17.753  23.565   0.181
75422W        W40583   0.431  10.113  10.260
75423W        W40584  35.393  22.581  12.959
75424W        W40585  28.959  24.313  10.779
75425W        W40586  28.487   0.760  14.932
75426W        W40587  34.861  22.582   3.102
75427W        W40588   3.967  43.818  13.009
75428W        W40589  13.269  41.644  12.941
75429W        W40590  44.023   9.873   0.934
75430W        W40591  24.503  19.328   3.668
75431W        W40592  42.346  44.891   1.806
75432W        W40593  30.018  28.683  10.964
75433W        W40594  11.601  20.693   4.042
75434W        W40595  21.566  21.345   1.924
75435W        W40596  16.003  10.724  13.770
75436W        W40597  38.142   5.216   1.171
75437W        W40598  36.249   0.725   0.495
75438W        W40599  23.663  29.927   2.455
75439W        W40600  24.172  20.277   0.259
75440W        W40601  19.233  38.874   2.348
75441W        W40602  29.219  15.085  14.495
75442W        W40603  21.920  11.212   2.236
75443W        W40604  37.390   1.439  14.432
75444W        W40605  19.625  19.317   2.380
75445W        W40606  12.619  27.651  12.152
75446W        W40607  44.466  43.885   1.892
75447W        W40608  42.149  19.724  11.670
75448W        W40609  39.939  15.181  12.282
75449W        W40610  15.209  30.528   1.119
75450W        W40611   5.023  25.005   2.238
75451W        W40612   7.179   5.695   2.241
75452W        W40613  22.399  18.003   5.156
75453W        W40614   1.043   4.373   1.005
75454W        W40615   9.415   6.163  14.053
75455W        W40616  14.120   6.594  11.802
75456W        W40617  42.367  13.094   4.090
75457W        W40618  42.457  38.945  10.965
75458W        W40619  39.604  14.992  14.492
75459W        W40620  13.651   9.947  14.146
75460W        W40621  34.249  18.124  12.919
75461W        W40622   2.940  35.048  11.910
75462W        W40623  16.051  11.643  14.019
75463W        W40624   1.893  40.476   0.264
75464W        W40625  14.134  38.251  10.600
75465W        W40626  25.217  14.537   3.996
75466W        W40627   1.551  25.561   4.051
75467W        W40628  19.779  12.165  10.692
75468W        W40629   3.377  11.069  11.378
75469W        W40630  26.539   8.619  12.856
75470W        W40631  20.408  11.132   4.438
75471W        W40632  10.669  25.034   1.763
75472W        W40633  25.150  17.553   4.544
75473W        W40634   5.320  15.474   0.761
75474W        W40635   1.221  30.502  13.866
75475W        W40636  39.842   9.383  11.715
75476W        W40637   9.821   4.346   2.769
75477W        W40638  21.670  21.023  12.366
75478W        W40639  18.382  20.893   4.087
75479W        W40640   1.672  26.107   5.218
75480W        W40641  29.112   3.731   3.227
75481W        W40642  26.947  18.094  12.041
75482W        W40643  26.728  22.738  12.630
75483W        W40644  15.224  21.011  10.933
75484W        W40645  24.174  42.917   4.131
75485W        W40646  32.899   7.132   3.441
75486W        W40647  37.516  26.828  12.551
75487W        W40648  31.261  23.207   3.314
75488W        W40649  35.688  17.670   3.547
75489W        W40650  35.559  26.905  11.084
75490W        W40651  44.547  38.819   4.455
75491W        W40652  15.269   5.276  10.519
75492W        W40653  41.053   0.285  14.485
75493W        W40654   6.815  22.493   2.795
75494W        W40655  22.610  12.231   0.848
75495W        W40656  22.838   4.469   4.139
75496W        W40657  23.847   2.847  11.330
75497W        W40658   7.194   6.218   2.703
75498W        W40659   3.062   3.669   1.180
75499W        W40660  29.192  20.139  12.586
75500W        W40661   5.923  37.566   2.660
75501W        W40662  25.863   5.650   0.445
75502W        W40663   9.990  37.319  10.333
75503W        W40664  28.757  32.416  12.990
75504W        W40665  24.715   6.790   1.902
75505W        W40666  28.618  35.052   1.742
75506W        W40667  28.474  41.716   2.372
75507W        W40668  30.033  27.913   1.225
75508W        W40669  35.130   5.747   0.784
75509W        W40670  15.808  31.163  12.990
75510W        W40671   6.833  13.945  13.475
75511W        W40672  23.771  17.299  12.499
75512W        W40673  44.817   8.202  14.431
75513W        W40674   4.458  10.239  11.899
75514W        W40675  22.265   2.813  10.764
75515W        W40676   5.897  26.347   0.678
75516W        W40677  40.017  28.431   1.405
75517W        W40678   5.095  44.618   0.263
75518W        W40679  30.200  36.352   3.720
75519W        W40680  18.642  41.421   3.308
75520W        W40681  29.668   9.163   1.411
75521W        W40682  12.424  11.666  11.192
75522W        W40683  12.360  39.457  12.008
75523W        W40684  39.532  15.233   0.475
75524W        W40685  22.086  34.101   3.994
75525W        W40686  44.739  17.666  12.838
75526W        W40687  25.789  42.451   0.350
75527W        W40688   8.377   7.699  13.761
75528W        W40689  35.923  12.652   2.386
75529W        W40690   2.519  16.574  13.269
75530W        W40691  23.957  23.492   1.698
75531W        W40692  17.482  26.445   4.541
75532W        W40693  19.831  40.954  12.971
75533W        W40694  16.769   2.211   1.870
75534W        W40695  17.407  30.626  10.673
75535W        W40696  38.450  10.525   4.405
75536W        W40697  10.693  27.043   4.484
75537W        W40698  11.198  12.311   3.676
75538W        W40699  12.100  25.565   0.977
75539W        W40700   1.842  10.292   4.592
75540W        W40701  11.744  31.611   4.615
75541W        W40702   7.481   4.418   4.241
75542W        W40703  33.653   4.009   4.198
75543W        W40704  16.188   7.364  10.519
75544W        W40705  38.846   9.369   3.819
75545W        W40706  18.160  25.587  14.946
75546W        W40707  29.037  34.590  13.321
75547W        W40708  19.458  41.303   1.040
75548W        W40709  14.787  14.861  11.972
75549W        W40710  16.464   8.476   1.741
75550W        W40711  37.465   5.303  10.679
75551W        W40712  14.724  16.818   1.153
75552W        W40713  31.560  15.872  11.043
75553W        W40714  16.712  13.216   0.064
75554W        W40715   4.866  23.197  14.398
75555W        W40716  34.078  38.321  13.410
75556W        W40717  23.020  32.656  10.556
75557W        W40718  36.876  33.857   3.297
75558W        W40719  12.178  41.526   1.867
75559W        W40720   5.182  34.588   3.292
75560W        W40721  18.755  34.932  12.022
75561W        W40722  32.013   2.088   3.530
75562W        W40723   3.981  11.188  13.812
75563W        W40724  18.000   7.203  12.837
75564W        W40725   0.793   6.956  11.987
75565W        W40726  19.277  36.407   0.938
75566W        W40727  41.926   2.366   3.765
75567W        W40728  38.969  12.185   0.484
75568W        W40729   9.181  43.080  14.136
75569W        W40730  25.344   1.760  11.119
75570W        W40731  13.127  41.000  13.952
75571W        W40732  34.158  30.963   2.945
75572W        W40733  27.721   8.699  14.964
75573W        W40734  24.015  23.054   1.338
75574W        W40735  17.968  22.587  14.779
75575W        W40736   7.364  17.249   4.168
75576W        W40737  28.445  14.889  13.599
75577W        W40738   6.313  22.889  13.156
75578W        W40739  24.432  31.043  13.306
75579W        W40740  20.824  15.524   0.965
75580W        W40741  30.635  20.205  11.022
75581W        W40742   3.816  35.421   2.952
75582W        W40743   4.245   4.273   1.636
75583W        W40744  12.017   4.999  13.973
75584W        W40745   3.349   1.910   2.269
75585W        W40746  10.353  39.171   3.697
75586W        W40747  35.949  37.894   4.888
75587W        W40748  39.485  18.217   4.631
75588W        W40749  13.456  15.083  12.160
75589W        W40750  13.695  23.945   0.758
75590W        W40751  26.998  36.602  12.580
75591W        W40752  35.387  29.991  12.890
75592W        W40753   0.778  30.626   3.639
75593W        W40754  32.790  26.164  14.981
75594W        W40755  24.956  27.588   3.924
75595W        W40756  30.433  44.722   2.721
75596W        W40757   0.460   7.464   3.244
75597W        W40758  20.804   1.819  12.475
75598W        W40759  11.602  15.536   2.365
75599W        W40760  10.527  14.092  13.481
75600W        W40761   4.899   8.359   1.733
75601W        W40762  26.940  22.699   4.228
75602W        W40763   7.441  15.321   3.351
75603W        W40764  11.615  18.619   1.118
75604W        W40765  42.953  36.526  12.977
75605W        W40766  16.796  25.633  13.377
75606W        W40767  44.791  41.845  13.336
75607W        W40768  32.554   6.901   0.240
75608W        W40769  28.023  29.587  10.483
75609W        W40770  23.769  19.535  13.599
75610W        W40771  28.355  39.430  11.559
75611W        W40772  10.308  20.807  13.027
75612W        W40773  10.153   0.691  14.433
75613W        W40774  24.421  38.653   2.261
75614W        W40775   6.813  21.877  13.908
75615W        W40776  44.752  38.162   0.276
75616W        W40777  37.350  23.015  10.791
75617W        W40778  24.526  31.507   3.958
75618W        W40779   9.399  44.998  14.712
75619W        W40780  39.608  37.913   1.188
75620W        W40781  40.492  16.402   0.205
75621W        W40782  32.681  19.194  14.096
75622W        W40783   4.215  39.867  10.757
75623W        W40784  11.347  34.105  13.440
75624W        W40785  33.569  36.978  14.524
75625W        W40786  14.817   3.464   2.434
75626W        W40787  29.758  24.838  12.649
75627W        W40788  42.002   6.311  13.778
75628W        W40789   7.161   3.723   2.316
75629W        W40790  37.702   6.413   1.273
75630W        W40791  40.913  24.732   0.904
75631W        W40792  10.057  30.582   4.117
75632W        W40793   9.630  40.385  14.824
75633W        W40794  29.196  17.637  11.011
75634W        W40795  21.759   5.132  10.535
75635W        W40796   2.888  40.817   0.012
75636W        W40797  40.495  15.562  14.433
75637W        W40798  25.925  33.710  11.468
75638W        W40799  27.360  36.977   2.806
75639W        W40800  18.112  16.744   2.248
75640W        W40801  20.168  10.975   2.681
75641W        W40802   3.701  15.001   2.829
75642W        W40803   0.923   1.747   4.925
75643W        W40804  37.351  35.455   4.408
75644W        W40805  29.148  43.381   2.709
75645W        W40806  44.775  42.339   4.170
75646W        W40807   5.401  37.791   1.728
75647W        W40808  13.261  27.589   2.719
75648W        W40809   7.450  37.102   3.062
75649W        W40810  31.624   6.874  14.788
75650W        W40811  28.027  30.024  10.770
75651W        W40812  11.536  20.561   3.070
75652W        W40813  20.140  10.118   4.955
75653W        W40814   4.896  16.685  13.180
75654W        W40815   3.499   7.674   2.845
75655W        W40816  27.809  18.160   3.341
75656W        W40817  35.101  15.249   1.226
75657W        W40818   9.996   3.324  12.879
75658W        W40819  42.990  12.167  10.682
75659W        W40820  12.170  29.477   0.296
75660W        W40821   1.990   8.930   4.080
75661W        W40822   3.432  25.913   0.754
75662W        W40823   2.620  17.264   9.702
75663W        W40824   5.046  14.612   2.789
75664W        W40825  21.783  14.807   4.071
75665W        W40826   3.857   1.645  13.887
75666W        W40827   5.786  26.004  14.063
75667W        W40828   9.176  25.225   2.248
75668W        W40829  14.194   8.627  10.633
75669W        W40830  40.624  10.284   4.189
75670W        W40831  27.267  34.082   2.624
75671W        W40832  36.893  16.477  13.911
75672W        W40833  22.157   6.258  13.073
75673W        W40834  11.320  41.052   3.175
75674W        W40835  17.571  15.050   2.766
75675W        W40836   8.740  30.140   2.204
75676W        W40837   1.821  25.314  10.544
75677W        W40838   4.342  15.810  12.960
75678W        W40839  19.792   0.665  12.670
75679W        W40840  10.752  37.923  12.404
75680W        W40841  27.772  33.073  14.984
75681W        W40842  22.743  13.884   0.390
75682W        W40843   3.250  33.118  10.268
75683W        W40844  38.987  23.491  10.742
75684W        W40845  12.716  42.957   0.529
75685W        W40846  21.694  30.028   2.670
75686W        W40847  21.792  37.974  12.626
75687W        W40848  18.057  35.445   0.457
75688W        W40849  34.340  36.274   4.202
75689W        W40850  11.680  44.651   0.714
75690W        W40851   6.222  10.745   3.333
75691W        W40852  12.094  28.060   4.490
75692W        W40853  21.537  39.549   0.340
75693W        W40854  35.218  15.052  12.317
75694W        W40855  34.444  21.388   2.072
75695W        W40856  17.693   9.313   2.174
75696W        W40857  26.404  37.101   1.639
75697W        W40858  39.004  30.408   3.893
75698W        W40859  33.886   6.716   4.259
75699W        W40860  22.857  27.584  13.175
75700W        W40861  22.115  17.083   2.212
75701W        W40862  18.305  13.995  11.164
75702W        W40863  10.568  10.685  11.470
75703W        W40864  14.487  39.043   4.474
75704W        W40865   4.784  23.005   0.760
75705W        W40866   7.695   8.546  11.500
75706W        W40867  11.066   8.740  12.094
75707W        W40868  25.814  41.545   2.736
75708W        W40869  43.162  16.658  12.963
75709W        W40870  21.862  38.553  11.028
75710W        W40871  42.869  43.881   0.420
75711W        W40872  36.412   1.309   4.147
75712W        W40873   4.333  21.161   0.917
75713W        W40874  26.001  22.759  13.790
75714W        W40875  25.911  44.507   4.334
75715W        W40876  21.671  16.793   2.576
75716W        W40877  37.351  37.673  13.342
75717W        W40878  15.830  15.558   0.666
75718W        W40879  33.432  17.316   2.739
75719W        W40880  35.870  16.700  11.938
75720W        W40881   2.346   8.117  10.742
75721W        W40882  42.938  42.934   0.390
75722W        W40883  20.159  44.804  11.493
75723W        W40884  30.521   5.010  14.007
75724W        W40885  34.019  20.534  13.513
75725W        W40886  13.089   4.335   4.416
75726W        W40887  36.382   3.907   3.459
75727W        W40888   2.633  15.647   4.189
75728W        W40889  16.350  24.031   0.368
75729W        W40890  22.684  41.862   2.441
75730W        W40891  43.491   5.279   2.273
75731W        W40892  37.863  29.139   1.945
75732W        W40893   1.938  37.765  12.057
75733W        W40894  39.619   2.963   0.869
75734W        W40895  30.647  20.019  11.905
75735W        W40896  34.353  34.923   2.248
75736W        W40897  20.134  14.397  11.741
75737W        W40898  20.957   2.839  11.220
75738W        W40899  10.265  19.775   1.604
75739W        W40900  32.570  25.800  13.628
75740W        W40901  15.654  20.322  13.067
75741W        W40902  29.654  28.089  13.328
75742W        W40903  41.806  22.768   2.371
75743W        W40904  38.342   7.811   4.158
75744W        W40905  30.390  15.515  14.943
75745W        W40906  25.943  17.443  13.923
75746W        W40907   1.939  16.678   4.456
75747W        W40908  28.454  39.617  12.457
75748W        W40909  19.587  34.998  13.206
75749W        W40910  31.351  10.164  13.895
75750W        W40911  16.493  36.163   2.379
75751W        W40912  12.682  37.119   0.270
75752W        W40913  20.170  39.919   2.363
75753W        W40914   0.368   6.762   4.057
75754W        W40915  33.006  28.397  13.894
75755W        W40916  37.193  25.398   4.943
75756W        W40917  27.170   8.373  12.112
75757W        W40918  24.963  34.137   1.514
75758W        W40919  25.443   9.284  14.354
75759W        W40920  28.248  38.629   4.307
75760W        W40921  41.444  43.235   4.495
75761W        W40922   8.351  41.828   3.323
75762W        W40923  12.828  33.496   4.100
75763W        W40924  41.108  22.176  11.254
75764W        W40925  38.856  26.026  12.651
75765W        W40926  15.375  36.630   3.256
75766W        W40927  13.554  11.665  10.401
75767W        W40928  39.149   1.912   3.645
75768W        W40929  30.954  39.636   0.203
75769W        W40930  34.967  22.021   3.724
75770W        W40931  43.212  10.575  13.041
75771W        W40932  12.933  43.896   4.689
75772W        W40933  43.298  39.527   1.151
75773W        W40934  39.409  23.100  13.118
75774W        W40935  17.487  22.000  11.182
75775W        W40936  43.775  10.898   1.974
75776W        W40937  44.788  44.352   3.670
75777W        W40938  18.351  23.517   2.763
75778W        W40939  37.847   6.779   4.119
75779W        W40940  35.376  28.646  13.131
75780W        W40941   3.525  21.645  14.751
75781W        W40942  12.312   0.700  14.845
75782W        W40943  39.831  27.469   0.374
75783W        W40944  17.905  17.237  12.206
75784W        W40945  33.114  37.089   3.826
75785W        W40946   5.859   3.693   4.040
75786W        W40947  24.091  17.066   0.661
75787W        W40948  25.468  31.560  12.013
75788W        W40949  36.121  25.591  14.913
75789W        W40950  31.670   4.989  14.446
75790W        W40951  28.556  36.899   1.006
75791W        W40952  23.443  43.547   1.399
75792W        W40953   3.944  24.531  11.126
75793W        W40954  41.782  10.400  12.959
75794W        W40955  18.197  20.424   0.633
75795W        W40956   1.343  27.659  11.905
75796W        W40957  36.361   4.719   2.175
75797W        W40958  41.910  26.218  10.529
75798W        W40959  22.186  15.115   0.507
75799W        W40960  15.638  36.744  13.762
75800W        W40961  39.141   4.817  11.657
75801W        W40962   5.711  40.362  11.995
75802W        W40963  16.548  22.153  11.151
75803W        W40964   1.925  39.526   3.197
75804W        W40965  28.883  39.344  12.470
75805W        W40966  29.468  26.016   3.242
75806W        W40967   7.034   2.769  11.152
75807W        W40968  12.745   7.286   2.278
75808W        W40969  44.711   1.520  13.588
75809W        W40970  32.656  40.084  12.128
75810W        W40971   0.848  42.459  13.970
75811W        W40972  21.038  39.566   0.422
75812W        W40973  29.695  30.478   3.663
75813W        W40974   3.298  27.152  14.858
75814W        W40975   2.705  36.112  11.088
75815W        W40976   4.738  18.744   1.867
75816W        W40977  17.881   6.076  14.129
75817W        W40978  18.862   3.871  10.551
75818W        W40979  25.874  22.696  12.443
75819W        W40980  15.598  39.364   3.145
75820W        W40981   8.207   3.209   1.046
75821W        W40982  19.220  39.823   2.872
75822W        W40983  18.049  28.993  11.096
75823W        W40984   5.180  22.081   0.047
75824W        W40985  20.507   2.024   3.210
75825W        W40986  39.786  44.124   2.935
75826W        W40987  34.850  19.871  12.038
75827W        W40988  44.384   0.031  14.130
75828W        W40989   1.953  40.809   2.833
75829W        W40990  20.662  35.889  11.580
75830W        W40991   7.806  38.293   1.395
75831W        W40992  39.418   6.338   1.751
75832W        W40993  27.934  11.329  13.278
75833W        W40994   3.147  25.536  12.586
75834W        W40995  44.541  39.575   2.306
75835W        W40996   2.223  35.045  10.692
75836W        W40997  23.992  17.422   0.302
75837W        W40998  23.977  35.529  14.956
75838W        W40999  14.047  33.063   3.782
75839W        W41000  32.234  37.685  10.738
75840W        W41001  17.657  24.580  14.932
75841W        W41002  18.053  19.498  11.922
75842W        W41003   8.055  27.404  12.488
75843W        W41004  31.378  33.690  11.552
75844W        W41005  11.641  38.973   4.014
75845W        W41006  23.513  40.312   4.476
75846W        W41007  41.445  27.270   1.621
75847W        W41008  41.932  16.316  12.844
75848W        W41009  26.209  41.690   1.247
75849W        W41010  21.080  11.013  12.482
75850W        W41011  32.910  30.075   0.801
75851W        W41012  35.066  20.530   3.218
75852W        W41013   1.843  15.641   4.481
75853W        W41014  36.407  28.683   4.141
75854W        W41015  35.508   4.567   1.209
75855W        W41016  33.054  10.083  12.426
75856W        W41017   2.919  26.384  12.393
75857W        W41018   4.194  24.398   3.739
75858W        W41019  44.435  30.134  13.930
75859W        W41020  30.666  29.359   3.649
75860W        W41021  28.670  19.487  13.145
75861W        W41022  16.744  27.240  12.143
75862W        W41023   4.292  24.941   0.804
75863W        W41024  42.585  42.979  14.468
75864W        W41025  28.600  34.972   3.137
75865W        W41026   4.365  23.163   2.682
75866W        W41027  20.297  10.937  14.299
75867W        W41028  42.301  36.418  13.894
75868W        W41029  20.266  36.141  10.630
75869W        W41030  23.788  31.088   1.340
75870W        W41031   9.480  41.526  13.330
75871W        W41032   4.717  21.031   0.268
75872W        W41033   0.221  10.281  10.706
75873W        W41034  24.364  36.761   0.941
75874W        W41035  44.916  22.735   0.441
75875W        W41036  38.447  36.212   1.433
75876W        W41037  24.868  36.744   0.802
75877W        W41038  43.783   3.226   4.983
75878W        W41039  30.676   7.642   0.251
75879W        W41040  22.162  20.274  12.876
75880W        W41041  29.213  14.546   1.429
75881W        W41042   5.091  15.670  12.457
75882W        W41043  31.142   5.191  13.456
75883W        W41044  38.367  39.966   4.561
75884W        W41045   0.776  44.869   3.122
75885W        W41046  26.032  17.863   4.083
75886W        W41047  28.638  15.994   3.690
75887W        W41048  31.481  29.000   3.026
75888W        W41049   9.412  28.571   3.571
75889W        W41050   1.330  14.797  11.175
75890W        W41051  28.915  24.212   3.077
75891W        W41052  42.464  34.095  10.566
75892W        W41053  39.345  35.873   1.361
75893W        W41054  40.905   0.817   1.889
75894W        W41055  24.126  13.556  13.790
75895W        W41056   6.531  10.225   0.830
75896W        W41057  18.697  41.129  10.560
75897W        W41058  21.495  43.146   0.229
75898W        W41059  33.081  24.417  13.406
75899W        W41060  16.602  11.290   1.389
75900W        W41061  17.564  28.501  14.585
75901W        W41062  35.603  10.690   1.863
75902W        W41063  38.055  15.510   2.759
75903W        W41064   9.117  39.420  13.344
75904W        W41065  34.986  17.186  13.815
75905W        W41066  17.915  41.059   5.404
75906W        W41067  26.284  32.455   2.434
75907W        W41068  41.494   2.725  12.419
75908W        W41069  42.090   3.645   0.886
75909W        W41070  29.672  40.824  11.147
75910W        W41071  34.831  33.269   2.827
75911W        W41072  13.655  37.712  13.869
75912W        W41073  27.606  41.823  12.208
75913W        W41074  43.328   4.352   2.398
75914W        W41075   0.075  25.574  13.012
75915W        W41076   0.867  43.582  11.418
75916W        W41077  28.487  32.149   3.296
75917W        W41078  27.669  14.605  12.947
75918W        W41079  43.590   4.799   0.307
75919W        W41080  17.513   5.485  14.576
75920W        W41081  15.668  11.873  13.311
75921W        W41082  27.014  26.618  10.833
75922W        W41083  29.371   7.506  12.590
75923W        W41084   1.482  10.261  14.855
75924W        W41085  19.677  25.239   2.683
75925W        W41086  28.547  11.349   1.773
75926W        W41087  25.076  18.101   2.761
75927W        W41088  24.086   1.410  14.484
75928W        W41089   4.712  11.116   3.557
75929W        W41090   4.638  17.510   4.184
75930W        W41091  40.582   5.828   5.026
75931W        W41092  40.457  35.485   0.894
75932W        W41093  28.200   2.214  10.747
75933W        W41094   3.991   3.408  10.686
75934W        W41095  14.627  41.914  12.785
75935W        W41096  27.403  27.530  12.956
75936W        W41097  17.061  18.654  10.675
75937W        W41098  15.686  31.893  12.494
75938W        W41099   4.692   8.803   3.754
75939W        W41100  16.579  37.867  11.516
75940W        W41101  26.952  21.187   4.826
75941W        W41102  37.973  10.328  12.091
75942W        W41103  30.940   1.211   3.277
75943W        W41104  19.780  27.593   0.469
75944W        W41105   1.495   2.921   2.717
75945W        W41106  13.950  26.179   1.816
75946W        W41107  33.705  10.276   4.187
75947W        W41108  29.717  14.793  12.037
75948W        W41109  32.057  29.145  14.503
75949W        W41110  16.162  16.060  11.675
75950W        W41111  18.204  34.673  10.624
75951W        W41112  39.009  13.401   4.514
75952W        W41113  33.343  21.379  11.127
75953W        W41114  43.735   8.206   3.797
75954W        W41115   9.114  40.901   4.671
75955W        W41116  44.580   3.281  14.652
75956W        W41117  39.492  38.761  11.964
75957W        W41118   1.291  20.931  13.565
75958W        W41119  11.789  37.806   1.832
75959W        W41120  38.858  42.107   2.048
75960W        W41121  28.950  43.869   2.650
75961W        W41122   5.697  32.622   4.491
75962W        W41123  21.660  29.515  14.499
75963W        W41124  24.011  14.389  13.433
75964W        W41125  39.824  22.865  10.997
75965W        W41126   3.504  41.142   0.242
75966W        W41127  24.753   5.209   4.083
75967W        W41128  29.491  23.264  14.890
75968W        W41129  41.888  20.167  11.741
75969W        W41130  10.086  27.629   2.873
75970W        W41131  12.927   6.289  11.414
75971W        W41132   4.865  40.968   0.768
75972W        W41133  41.265  20.531   3.191
75973W        W41134   6.240   6.691   1.948
75974W        W41135  29.721  28.915  10.020
75975W        W41136  14.698  35.711  11.238
75976W        W41137  28.445  38.824  11.191
75977W        W41138  41.694  36.834  11.869
75978W        W41139  23.590   1.264  14.574
75979W        W41140  34.703  27.864  10.830
75980W        W41141  22.055  20.759   0.780
75981W        W41142  36.936  43.182   3.171
75982W        W41143  15.336  12.657   2.862
75983W        W41144   2.210   3.442  14.922
75984W        W41145  29.790  14.031   1.767
75985W        W41146  22.143  26.045  13.549
75986W        W41147  22.893  19.850  13.816
75987W        W41148  22.667  27.664   3.851
75988W        W41149  24.930  39.414  11.727
75989W        W41150  17.804  27.014   2.102
75990W        W41151  36.978  16.418  12.906
75991W        W41152  12.604  29.432   4.723
75992W        W41153   4.399  35.005   3.395
75993W        W41154  30.354   9.602  11.607
75994W        W41155   2.917  37.359  11.062
75995W        W41156  35.912  25.133  14.880
75996W        W41157  39.051  23.680  14.857
75997W        W41158  37.762  23.975   4.940
75998W        W41159   4.783  28.487  12.061
75999W        W41160  39.095   6.308   0.384
76000W        W41161   7.804  44.411  14.271
76001W        W41162  25.659  13.585   1.784
76002W        W41163   8.375   1.418   3.650
76003W        W41164  14.550  21.401   4.928
76004W        W41165  40.580   1.873   1.552
76005W        W41166  18.577  37.337  11.196
76006W        W41167  10.872   8.028   1.383
76007W        W41168  35.467  31.562   2.751
76008W        W41169  20.830   3.364   3.742
76009W        W41170  21.491  34.857  13.765
76010W        W41171   9.813  18.253   1.251
76011W        W41172  18.107  13.091  13.968
76012W        W41173  29.175  35.871  14.881
76013W        W41174  15.324  12.144   2.884
76014W        W41175  28.681  24.712   0.733
76015W        W41176  29.537  28.212  10.531
76016W        W41177  36.828  13.351   3.191
76017W        W41178  10.412  32.706   0.511
76018W        W41179  13.172  10.971  11.587
76019W        W41180  11.740   0.520  12.966
76020W        W41181  15.851  22.346  13.881
76021W        W41182  17.276  12.092  12.850
76022W        W41183   7.085  13.724  13.023
76023W        W41184  12.465  38.824  11.163
76024W        W41185  39.670   6.582  14.566
76025W        W41186   8.041  26.092   1.218
76026W        W41187   0.703  12.825  14.047
76027W        W41188  24.190  27.651   4.644
76028W        W41189  35.067  42.754   0.949
76029W        W41190  14.210   0.548  12.971
76030W        W41191  14.131  27.384   4.169
76031W        W41192  38.462  20.568  14.397
76032W        W41193  28.627  44.451   0.460
76033W        W41194  22.115  19.255   1.205
76034W        W41195  20.081  39.751   4.642
76035W        W41196  33.391  12.119   4.028
76036W        W41197  40.251   6.765  13.319
76037W        W41198   7.224  18.555  13.915
76038W        W41199  43.719  43.046   2.740
76039W        W41200   6.143  37.454   4.159
76040W        W41201  13.990  34.587   3.370
76041W        W41202  18.265  23.719   4.772
76042W        W41203  14.222  10.714  13.830
76043W        W41204  24.480  26.594  11.977
76044W        W41205  19.149  20.312   0.181
76045W        W41206  17.259  43.752  13.246
76046W        W41207  43.447  18.250   0.856
76047W        W41208  34.101  30.150  12.641
76048W        W41209  23.040  20.730  10.302
76049W        W41210  42.216  37.505   4.949
76050W        W41211   1.947  17.091  11.070
76051W        W41212  26.724   3.300  11.257
76052W        W41213  10.251  14.058   1.925
76053W        W41214  26.580   4.372   4.506
76054W        W41215   0.465  10.276  14.773
76055W        W41216  21.103  38.796  11.460
76056W        W41217   7.719  31.374  11.447
76057W        W41218  29.414  21.946   3.286
76058W        W41219  16.171   3.870   4.518
76059W        W41220   3.332  28.482   1.102
76060W        W41221  14.536   6.296  13.971
76061W        W41222  32.752  15.716   1.935
76062W        W41223  34.926  19.287   1.585
76063W        W41224  24.459  40.003  13.441
76064W        W41225  25.812  14.119  10.770
76065W        W41226  21.142   8.944  14.402
76066W        W41227   7.728  42.533   1.834
76067W        W41228  17.530  19.052   3.133
76068W        W41229  38.947  28.391   0.927
76069W        W41230   5.156  32.432  14.473
76070W        W41231  30.489  10.297   3.597
76071W        W41232  19.863  35.991  12.149
76072W        W41233  20.569  10.826  12.123
76073W        W41234  30.636  39.327  11.471
76074W        W41235  25.649  31.366   2.984
76075W        W41236   6.182  12.436  12.905
76076W        W41237  23.726  35.772  12.896
76077W        W41238  25.589  11.140   2.155
76078W        W41239   7.629  17.326   2.865
76079W        W41240  30.412   2.497  13.909
76080W        W41241   6.852  40.844   1.836
76081W        W41242  20.025  22.650   0.767
76082W        W41243  39.372  23.295   0.069
76083W        W41244  23.777  39.396  13.874
76084W        W41245  11.608  27.887   3.632
76085W        W41246  34.566  40.093  14.336
76086W        W41247  13.314  36.146   1.678
76087W        W41248   1.433  26.527   1.243
76088W        W41249  32.041   0.228   4.597
76089W        W41250  14.304  28.522  12.048
76090W        W41251   9.565  12.793  13.831
76091W        W41252  27.061   2.139   2.396
76092W        W41253  39.426  31.961   3.981
76093W        W41254  21.570  24.236  12.529
76094W        W41255  27.507  31.826  14.534
76095W        W41256   6.392  43.416  11.967
76096W        W41257  39.596  44.414   2.213
76097W        W41258  40.998  32.762   0.474
76098W        W41259  27.120  42.938  11.661
76099W        W41260  14.993  36.611   1.332
76100W        W41261   7.068  29.485  12.356
76101W        W41262  10.562   0.849   0.245
76102W        W41263  22.706   9.645  13.356
76103W        W41264  21.670  12.547  11.914
76104W        W41265   5.457  25.497   3.250
76105W        W41266  13.601  44.647   1.999
76106W        W41267   9.139  28.207  13.387
76107W        W41268  18.711  32.942   3.303
76108W        W41269   1.246  26.417  14.826
76109W        W41270  11.983   6.100   0.028
76110W        W41271  18.580  21.911   0.840
76111W        W41272  43.669  14.098  10.283
76112W        W41273  10.356  26.123  12.019
76113W        W41274  19.049  17.074  13.798
76114W        W41275  27.834  30.903   2.659
76115W        W41276  33.489  28.641  13.091
76116W        W41277  16.628   1.814  14.587
76117W        W41278   6.250   1.934  10.158
76118W        W41279   7.420   5.169  14.866
76119W        W41280  10.216   3.862   3.405
76120W        W41281  33.803   5.797  12.959
76121W        W41282  28.455  18.188   1.272
76122W        W41283  39.555  17.782   2.648
76123W        W41284  40.352  21.630   3.194
76124W        W41285  21.862  31.135  12.879
76125W        W41286   2.307  11.188  11.440
76126W        W41287  35.878  23.294   1.219
76127W        W41288  24.504  30.058  12.711
76128W        W41289  31.451  18.713  13.610
76129W        W41290  25.170  28.517  14.830
76130W        W41291  44.404  26.488   2.882
76131W        W41292   4.511  29.383   1.922
76132W        W41293   4.514   2.702  14.796
76133W        W41294  15.249   1.582  11.592
76134W        W41295   2.050  38.300  12.063
76135W        W41296  18.228   8.678   5.080
76136W        W41297  32.465  24.817   0.169
76137W        W41298  24.584  19.762  14.431
76138W        W41299  22.442  36.345  14.936
76139W        W41300  26.598  24.159  10.201
76140W        W41301  10.420  41.460  11.996
76141W        W41302   0.351  15.220   1.873
76142W        W41303   5.882  41.643   2.753
76143W        W41304  17.795  26.110  11.140
76144W        W41305  21.125  20.775   3.320
76145W        W41306  11.702   1.244  14.109
76146W        W41307  16.911   6.633  10.757
76147W        W41308  29.419  43.019   4.195
76148W        W41309  15.610  21.384  14.810
76149W        W41310  34.988  39.402   3.145
76150W        W41311  10.557  34.932   3.254
76151W        W41312  31.649  11.178  12.213
76152W        W41313  40.293  37.029   0.376
76153W        W41314  40.906  13.740   1.962
76154W        W41315   1.692  36.086  12.469
76155W        W41316  32.278  41.734  14.436
76156W        W41317  43.225  18.846  14.258
76157W        W41318  32.496  42.807  13.648
76158W        W41319  35.905  36.416  12.186
76159W        W41320   2.501   5.702   2.328
76160W        W41321  21.261   7.441  14.415
76161W        W41322  36.062  28.020  10.743
76162W        W41323  41.918  36.536  14.768
76163W        W41324   1.788  44.351   1.806
76164W        W41325   1.271  35.149  14.258
76165W        W41326  34.174  13.242   4.865
76166W        W41327  12.174  30.597   1.266
76167W        W41328   9.624  33.449  14.444
76168W        W41329   0.433  16.658   3.210
76169W        W41330  39.798   2.298  14.860
76170W        W41331  27.169  29.088  13.347
76171W        W41332  28.643  36.415   1.891
76172W        W41333   3.944  14.833   3.283
76173W        W41334  25.980  30.049   0.487
76174W        W41335  31.204  20.084  14.845
76175W        W41336  29.449  15.945   2.776
76176W        W41337  11.077  31.094   2.736
76177W        W41338  34.503  18.578   2.623
76178W        W41339  37.234  21.190  12.038
76179W        W41340   0.378   5.428   3.655
76180W        W41341  15.500   9.775  12.672
76181W        W41342  43.289  36.581   0.784
76182W        W41343   6.187  42.433   3.261
76183W        W41344  33.823   6.822  13.819
76184W        W41345   3.881   6.810  11.897
76185W        W41346  25.212  32.999   1.359
76186W        W41347  40.269   6.089  11.624
76187W        W41348  35.628  24.599  12.786
76188W        W41349  20.958   4.825   3.999
76189W        W41350  16.303  27.942  10.530
76190W        W41351  34.144  41.820   0.698
76191W        W41352  41.322   6.659  14.906
76192W        W41353  33.337  27.566   4.553
76193W        W41354  27.022  43.320   0.410
76194W        W41355  27.420  12.113  12.124
76195W        W41356  19.686  37.510   1.157
76196W        W41357   8.841   6.315   0.003
76197W        W41358  35.584   3.373   3.304
76198W        W41359  28.884   3.256   3.257
76199W        W41360  43.361  43.757  10.384
76200W        W41361  33.113   1.728   1.653
76201W        W41362  15.489  32.085   4.479
76202W        W41363   8.594  36.953  12.488
76203W        W41364   6.583   6.432  14.930
76204W        W41365  33.871  28.132  10.534
76205W        W41366  29.264   6.027  10.345
76206W        W41367   8.177  28.577   3.150
76207W        W41368   9.395   6.968  14.730
76208W        W41369  12.299  20.677   0.720
76209W        W41370  12.277  36.974   3.892
76210W        W41371  15.395  34.500   2.341
76211W        W41372  33.949  17.336   1.416
76212W        W41373  30.939  27.978   3.129
76213W        W41374  35.108  11.095  12.043
76214W        W41375  44.242  15.854  11.553
76215W        W41376  37.479  27.990   1.121
76216W        W41377  33.089  31.888  14.234
76217W        W41378   3.352   0.840   0.059
76218W        W41379   0.323  29.673   3.533
76219W        W41380  29.911  31.890  14.534
76220W        W41381  28.176  39.650  12.892
76221W        W41382  10.089  34.702   1.338
76222W        W41383  32.542  29.408  11.491
76223W        W41384  28.120  11.316   2.103
76224W        W41385  43.689  14.635  12.432
76225W        W41386  20.544  30.655  11.151
76226W        W41387  32.501  35.678  14.932
76227W        W41388  16.130  29.886   1.306
76228W        W41389  19.370  44.239   4.547
76229W        W41390  20.640   0.204  12.971
76230W        W41391  43.336  44.497  11.002
76231W        W41392  19.104  34.902   2.342
76232W        W41393  43.965  42.743  13.121
76233W        W41394   4.868  24.337  13.794
76234W        W41395  17.240  43.802  10.760
76235W        W41396  31.914   6.756  12.954
76236W        W41397  39.849  16.099  14.912
76237W        W41398   7.242  19.939   0.409
76238W        W41399  28.695  20.299  11.659
76239W        W41400  32.036   8.262   0.706
76240W        W41401   9.690  39.385  11.926
76241W        W41402   5.242  39.933  11.164
76242W        W41403  18.975   2.962  10.927
76243W        W41404  28.223  12.321   2.575
76244W        W41405  25.442  36.785  10.194
76245W        W41406   1.631  35.109  13.892
76246W        W41407  38.466  25.774  12.443
76247W        W41408   0.385   0.881  12.333
76248W        W41409  23.614  23.920   4.576
76249W        W41410  44.372   3.215  13.796
76250W        W41411  20.281  20.497   3.327
76251W        W41412  37.792  29.032   3.298
76252W        W41413  16.912  41.161   3.302
76253W        W41414  40.727   3.485  11.119
76254W        W41415  43.446  11.551  13.042
76255W        W41416  12.269  39.986  11.955
76256W        W41417  18.824  44.164   4.955
76257W        W41418  18.322  28.089  12.499
76258W        W41419   6.120  32.342  14.446
76259W        W41420  37.724  10.670   1.333
76260W        W41421  43.770  40.356   9.871
76261W        W41422  15.749  44.541   4.089
76262W        W41423  36.111  13.529  11.050
76263W        W41424  18.751   4.343  10.816
76264W        W41425  32.583  20.898  12.119
76265W        W41426  20.677  42.373   5.078
76266W        W41427   8.907  13.728   3.680
76267W        W41428  34.952  11.204  14.869
76268W        W41429   0.492  11.641  13.135
76269W        W41430  37.961  25.136   4.572
76270W        W41431  14.540  37.848  10.688
76271W        W41432   4.176  12.235  11.169
76272W        W41433   4.873  29.215  12.532
76273W        W41434  17.836   1.738  12.426
76274W        W41435  43.227   7.756  10.487
76275W        W41436   8.346   0.286  12.590
76276W        W41437  35.427  40.049  14.882
76277W        W41438  36.665  23.175   0.951
76278W        W41439  24.928   3.778   0.680
76279W        W41440   2.722  20.527  11.109
76280W        W41441  30.268   1.658   1.714
76281W        W41442   4.015  35.524  11.634
76282W        W41443   6.691  11.338   2.815
76283W        W41444  19.226  10.925  11.588
76284W        W41445  13.685  28.152   4.255
76285W        W41446  29.694   0.859  11.683
76286W        W41447  18.002   9.171  11.086
76287W        W41448  23.116  27.500  11.181
76288W        W41449   1.902   2.783   1.078
76289W        W41450  14.096  28.906   3.227
76290W        W41451   4.444   2.741  13.766
76291W        W41452  20.550   1.197   0.960
76292W        W41453  42.073  12.711   4.219
76293W        W41454  25.188  21.804   3.091
76294W        W41455  26.755  38.369   2.280
76295W        W41456  38.181   0.925  11.074
76296W        W41457  10.286   1.823   1.766
76297W        W41458   7.171  34.617   2.180
76298W        W41459  28.686  27.715   3.723
76299W        W41460   2.259  35.152  14.826
76300W        W41461   1.840  22.193   4.000
76301W        W41462  26.428   5.570   0.297
76302W        W41463  32.488   1.312   3.765
76303W        W41464  14.904  13.371  11.950
76304W        W41465  34.225  42.049   3.372
76305W        W41466  18.983  19.247  11.577
76306W        W41467  14.526   6.153  13.472
76307W        W41468  42.374  12.496   1.168
76308W        W41469   3.476  16.476  13.686
76309W        W41470  17.130  30.360  10.317
76310W        W41471   3.732  39.290   3.229
76311W        W41472  14.809  38.438  12.547
76312W        W41473  40.285  32.482  12.488
76313W        W41474  35.774  16.208  13.646
76314W        W41475  22.751   1.914  10.712
76315W        W41476  43.916  36.558  12.639
76316W        W41477  16.816  37.625   3.292
76317W        W41478   2.358  23.194  14.508
76318W        W41479   0.003  23.004   4.065
76319W        W41480   7.711   4.660  12.157
76320W        W41481  11.867   3.403   4.616
76321W        W41482   6.044  16.042  12.089
76322W        W41483  39.834  33.034   1.686
76323W        W41484   5.172  41.939  13.941
76324W        W41485  30.122  44.470  11.057
76325W        W41486  36.564  35.241  11.943
76326W        W41487   2.958   3.842  13.834
76327W        W41488   9.676  17.104  11.374
76328W        W41489  18.231  18.043   3.652
76329W        W41490   8.736  25.296  14.439
76330W        W41491  19.541  31.429  14.517
76331W        W41492  22.591   6.332   2.814
76332W        W41493   2.299  27.618  14.482
76333W        W41494  16.750  40.617   0.693
76334W        W41495  19.731   5.286   2.601
76335W        W41496  10.631  35.436  13.014
76336W        W41497  31.153  22.256  12.988
76337W        W41498  40.556  39.512  10.746
76338W        W41499  14.120  32.562  10.586
76339W        W41500   9.757  35.048   1.172
76340W        W41501   6.785  33.368  12.421
76341W        W41502  28.088  16.566   1.641
76342W        W41503  21.992  39.550  14.520
76343W        W41504   6.165  34.817   0.425
76344W        W41505   6.878  14.493  14.214
76345W        W41506  28.741  18.572   4.327
76346W        W41507  27.061  32.943  12.793
76347W        W41508   2.257  26.755  11.858
76348W        W41509  43.095  43.738  13.176
76349W        W41510  13.496  30.908   0.931
76350W        W41511  43.361  25.146   3.233
76351W        W41512  13.194   6.213   3.009
76352W        W41513  44.386  11.464   1.340
76353W        W41514  31.900  14.753  12.493
76354W        W41515   0.543  30.137   3.693
76355W        W41516  32.059  26.224  10.882
76356W        W41517  33.634  17.198   1.029
76357W        W41518  34.754  19.478   4.104
76358W        W41519   8.943  20.184  13.082
76359W        W41520  40.332  27.603   0.410
76360W        W41521  13.861  30.531  14.517
76361W        W41522  41.594  39.379  13.919
76362W        W41523  15.116  16.610  12.801
76363W        W41524  23.677  11.178   3.283
76364W        W41525  31.360  33.552  12.500
76365W        W41526  33.817  36.260   4.196
76366W        W41527  28.976  38.570  12.918
76367W        W41528  31.725  16.636  10.567
76368W        W41529   4.110  37.584   0.307
76369W        W41530  27.246  43.768  12.699
76370W        W41531  43.536  44.850  14.436
76371W        W41532  29.705   8.882   3.647
76372W        W41533  19.403  11.657  11.117
76373W        W41534  22.710  36.062   1.262
76374W        W41535  16.194  17.261   3.157
76375W        W41536  19.669  22.053  13.016
76376W        W41537  12.287  26.714  14.720
76377W        W41538  35.647  36.311   4.083
76378W        W41539   7.741  30.920   4.275
76379W        W41540  42.868  34.382   3.884
76380W        W41541   5.119   1.453  11.171
76381W        W41542  32.431  19.295  11.266
76382W        W41543  13.204  29.721   2.737
76383W        W41544   0.260  22.023  14.917
76384W        W41545  11.382  25.650   1.904
76385W        W41546  12.219  27.585  11.168
76386W        W41547  31.630  13.507   3.662
76387W        W41548   1.402  42.962  14.846
76388W        W41549   6.037  34.017  14.950
76389W        W41550  24.383  11.692   0.322
76390W        W41551  21.756  21.244  10.723
76391W        W41552  19.339  44.931   3.336
76392W        W41553  36.347  18.237  14.915
76393W        W41554  23.517  38.082   3.105
76394W        W41555   0.747  33.984  12.598
76395W        W41556   0.206  33.106   5.006
76396W        W41557  34.596  31.518  10.605
76397W        W41558  26.416  33.460   1.329
76398W        W41559  36.125   4.008   2.456
76399W        W41560  29.436   7.135   0.304
76400W        W41561  13.883   3.376   3.634
76401W        W41562   6.976   7.790   1.320
76402W        W41563  42.371  40.001   0.997
76403W        W41564   5.350  14.833  13.358
76404W        W41565  35.594   1.303  10.346
76405W        W41566  26.109  26.712  11.352
76406W        W41567   2.284  29.081   2.173
76407W        W41568  11.763  20.544  12.833
76408W        W41569  22.651  32.171   3.212
76409W        W41570  25.814  43.981  10.006
76410W        W41571  25.039  40.977  11.964
76411W        W41572   1.301  37.851   0.397
76412W        W41573   9.252  26.014   1.129
76413W        W41574  44.850  11.519   3.096
76414W        W41575  22.569  31.190  14.798
76415W        W41576   2.463  17.500   1.005
76416W        W41577  29.007   0.538   3.352
76417W        W41578  35.957  24.575   3.604
76418W        W41579  36.792   2.616   1.966
76419W        W41580   3.398   4.802  11.148
76420W        W41581   0.178  27.908   3.844
76421W        W41582  39.866  32.563   3.458
76422W        W41583  32.681  26.651   0.693
76423W        W41584  28.071  42.994  12.666
76424W        W41585   4.828  17.564  14.422
76425W        W41586  36.331  12.298   1.248
76426W        W41587   7.070  19.647   1.712
76427W        W41588  41.012  44.009   2.346
76428W        W41589  15.817  26.950   0.268
76429W        W41590  36.742  23.485  11.138
76430W        W41591  23.440  36.091   2.862
76431W        W41592  23.669  33.946   2.906
76432W        W41593  29.922  17.106  13.535
76433W        W41594  26.248  34.042  13.768
76434W        W41595  25.386  38.717   1.287
76435W        W41596  20.056  41.867   1.031
76436W        W41597  37.458  32.158  12.611
76437W        W41598  43.651  22.991  12.544
76438W        W41599  36.128  30.037   4.346
76439W        W41600   3.374  12.234   4.639
76440W        W41601   9.067   2.459   2.562
76441W        W41602  28.390  15.036   1.005
76442W        W41603  35.746  14.684   3.708
76443W        W41604   4.151  19.025  13.871
76444W        W41605  30.881  26.421  14.553
76445W        W41606  27.526   3.961  13.249
76446W        W41607   7.145  16.507  11.152
76447W        W41608  42.827  30.483   0.408
76448W        W41609  38.118   7.293   0.910
76449W        W41610   5.798  30.584   0.385
76450W        W41611  31.137   5.430   3.995
76451W        W41612  43.747  40.582  11.173
76452W        W41613  21.041  41.074   1.634
76453W        W41614  10.325  32.202  13.541
76454W        W41615  16.695  39.836   4.439
76455W        W41616   3.994   8.355  12.413
76456W        W41617   4.168  44.360  13.068
76457W        W41618  13.201   6.426  14.410
76458W        W41619  17.958  25.113  13.381
76459W        W41620  17.831   2.777   1.250
76460W        W41621   7.644  11.061   2.742
76461W        W41622   6.107  25.528   2.385
76462W        W41623  22.235   6.334   2.432
76463W        W41624  18.452  14.764  10.807
76464W        W41625  32.200   5.412  14.390
76465W        W41626   4.680   2.188  11.611
76466W        W41627   1.238   2.219   0.592
76467W        W41628  13.295  41.445   0.196
76468W        W41629  23.795   0.395   1.239
76469W        W41630   5.366  19.136  11.543
76470W        W41631   5.220   6.858  14.873
76471W        W41632   8.526  14.277   2.578
76472W        W41633   2.414   9.749   3.551
76473W        W41634   1.818  15.738  10.140
76474W        W41635  26.919  30.098  12.623
76475W        W41636  18.853  17.728  12.475
76476W        W41637  29.073  16.448  14.448
76477W        W41638  44.887  40.979   4.648
76478W        W41639  12.078  15.133   2.260
76479W        W41640   2.875  19.944  14.269
76480W        W41641  41.616  35.778   3.745
76481W        W41642  11.298  25.984   3.246
76482W        W41643  27.498   1.686  13.753
76483W        W41644  43.824  17.340  10.961
76484W        W41645  37.789   2.674  10.678
76485W        W41646  29.486  31.432  12.033
76486W        W41647   9.921   9.228   1.322
76487W        W41648  31.935  20.830  13.361
76488W        W41649  17.730  20.948   2.315
76489W        W41650  26.248   1.651   0.363
76490W        W41651   8.704   5.578  14.473
76491W        W41652  26.436  39.571   3.046
76492W        W41653  35.024  21.083  14.266
76493W        W41654  24.196  29.098  12.385
76494W        W41655  20.167   5.640   3.513
76495W        W41656  19.457  31.882   3.721
76496W        W41657   4.214   8.212   0.841
76497W        W41658  37.676  19.718  14.983
76498W        W41659  31.604  16.159   3.194
76499W        W41660   7.766  36.050   2.413
76500W        W41661   9.410   4.217  11.222
76501W        W41662  22.878  36.382   5.017
76502W        W41663   2.735   0.623  11.516
76503W        W41664   6.744  13.449  13.470
76504W        W41665   1.467  29.102   0.820
76505W        W41666   0.750  37.967  11.451
76506W        W41667  28.083  15.313  11.419
76507W        W41668  12.981  41.018   2.785
76508W        W41669   3.362   5.912   0.884
76509W        W41670   9.276  39.180  11.510
76510W        W41671  14.768  25.405  12.452
76511W        W41672  19.131  21.627   2.452
76512W        W41673  44.257  24.941   0.454
76513W        W41674   3.492  41.834   4.527
76514W        W41675  16.801  44.770  11.196
76515W        W41676   9.339  10.810  14.338
76516W        W41677  30.135  32.399  13.172
76517W        W41678  30.676  16.774   2.548
76518W        W41679  18.031  43.202   0.251
76519W        W41680  44.507   0.044  13.116
76520W        W41681  14.643  37.992  13.121
76521W        W41682  39.892  29.674   3.802
76522W        W41683  41.345  18.505  14.480
76523W        W41684  12.715   2.003   4.456
76524W        W41685   4.748   2.730   4.598
76525W        W41686  22.729  36.174  13.807
76526W        W41687  13.702  38.876  13.171
76527W        W41688  20.577  29.953  11.728
76528W        W41689  33.423  32.193  14.492
76529W        W41690   6.871  35.344   4.574
76530W        W41691  20.955   8.585   0.249
76531W        W41692  43.365   4.300  12.033
76532W        W41693  25.578  19.494   0.764
76533W        W41694  39.607  12.803   1.808
76534W        W41695   9.006   2.628  14.930
76535W        W41696  29.181  40.832  12.671
76536W        W41697  20.301   1.859  10.680
76537W        W41698  20.183   3.463   0.937
76538W        W41699  29.996  26.968   1.343
76539W        W41700   3.882  36.155   4.604
76540W        W41701  32.821  10.253   3.151
76541W        W41702  29.488  32.055  11.266
76542W        W41703  15.653  24.733   4.812
76543W        W41704  31.143  12.827  13.739
76544W        W41705  16.882  39.859   1.458
76545W        W41706  28.085  12.321   3.076
76546W        W41707   1.508  21.569   2.295
76547W        W41708  14.083  22.262  11.940
76548W        W41709  33.117  10.289   1.736
76549W        W41710  36.480  44.009  14.494
76550W        W41711  44.911  35.285   0.101
76551W        W41712  22.701  15.367   3.661
76552W        W41713  23.595  30.111   2.932
76553W        W41714  37.305  36.473   0.240
76554W        W41715   1.912   8.695   0.848
76555W        W41716  16.737  23.243  10.910
76556W        W41717  14.587   5.321  12.585
76557W        W41718  13.679  39.449   0.903
76558W        W41719  18.092  26.125  13.350
76559W        W41720  32.030  34.987  13.807
76560W        W41721  25.989  22.527   4.211
76561W        W41722  11.060  33.069   1.200
76562W        W41723  22.586  21.560   2.372
76563W        W41724  39.772   3.922   1.029
76564W        W41725  21.320  12.662   1.434
76565W        W41726  22.354  38.507  10.227
76566W        W41727  43.127   1.517   3.412
76567W        W41728  35.152  23.253   4.232
76568W        W41729  14.106   4.117   3.533
76569W        W41730  36.069  35.854   2.867
76570W        W41731  38.441  13.288  11.040
76571W        W41732  15.184   2.226  11.982
76572W        W41733  16.805   8.768  13.897
76573W        W41734   5.536   1.437  14.888
76574W        W41735   0.264  21.014  11.584
76575W        W41736  20.109  44.369  12.439
76576W        W41737  37.330   1.673  11.430
76577W        W41738  25.782  43.282   3.705
76578W        W41739  22.508  34.365  14.272
76579W        W41740  22.297  34.080  12.945
76580W        W41741  18.829  39.779  12.848
76581W        W41742  39.484  24.789   1.062
76582W        W41743  26.254  14.260  13.902
76583W        W41744   8.466  25.965  10.619
76584W        W41745  13.516   9.838  14.953
76585W        W41746  14.693  33.112  13.614
76586W        W41747  33.538  10.634   0.602
76587W        W41748  29.616  34.517   0.011
76588W        W41749  16.071  20.120   2.188
76589W        W41750   2.409  12.306  12.955
76590W        W41751  27.506  31.103  14.110
76591W        W41752  15.644  30.123   3.136
76592W        W41753  41.430  29.063  10.647
76593W        W41754  17.619   7.153   4.370
76594W        W41755   0.506  18.854   1.357
76595W        W41756  19.809  13.832  13.802
76596W        W41757  40.627   8.194  12.035
76597W        W41758  32.704  41.564   0.302
76598W        W41759  20.518  25.474  14.841
76599W        W41760  38.503  12.823  13.981
76600W        W41761  38.312  27.001  14.823
76601W        W41762  10.003  33.244   9.746
76602W        W41763  26.294  29.636  11.556
76603W        W41764  13.238  36.037  14.467
76604W        W41765   8.940  25.146   1.234
76605W        W41766  26.530  39.264   2.604
76606W        W41767  37.998  24.272   4.598
76607W        W41768  34.729  17.124   4.185
76608W        W41769   0.976  23.013  12.937
76609W        W41770   7.013  14.882  12.245
76610W        W41771  22.971  41.224   3.320
76611W        W41772  42.591   3.075  10.698
76612W        W41773  10.791   5.892  11.848
76613W        W41774  28.842  16.023  12.851
76614W        W41775  26.016   9.784  11.595
76615W        W41776  25.876  21.165  11.191
76616W        W41777  20.010  42.378   2.252
76617W        W41778  16.588  31.557   1.172
76618W        W41779   2.377  43.521   3.308
76619W        W41780  41.012  40.548   1.318
76620W        W41781  27.200  37.005  12.849
76621W        W41782  30.688  44.973  11.401
76622W        W41783  39.419  24.159   1.410
76623W        W41784  43.916  20.911  13.199
76624W        W41785   4.715   0.809   3.182
76625W        W41786   4.356  18.536  12.749
76626W        W41787   3.271  17.310   2.720
76627W        W41788  43.070  41.467   4.718
76628W        W41789  11.508  21.130   1.191
76629W        W41790  20.741  12.650  11.611
76630W        W41791  16.134  22.056  13.025
76631W        W41792  28.684   5.534   4.025
76632W        W41793   9.060  32.565   2.853
76633W        W41794  44.456  35.707   1.165
76634W        W41795  23.457   4.619  13.070
76635W        W41796  29.400  29.651   3.208
76636W        W41797  30.399  31.082  14.663
76637W        W41798  18.416  33.262  11.566
76638W        W41799  43.538  43.191   2.254
76639W        W41800  41.943  29.618  12.158
76640W        W41801   5.385  43.041   2.332
76641W        W41802  27.967  35.378  14.770
76642W        W41803  41.366  39.838  13.844
76643W        W41804  34.951  14.819   2.688
76644W        W41805  11.487  42.356  12.982
76645W        W41806  29.051   9.317  14.951
76646W        W41807  14.088  35.015   2.226
76647W        W41808  16.174  32.799   0.241
76648W        W41809  18.272  24.130   4.434
76649W        W41810  23.254  33.448   0.380
76650W        W41811  29.870  16.900   1.701
76651W        W41812   5.554  23.309  10.647
76652W        W41813  38.401  16.087   3.170
76653W        W41814  13.341  17.608   3.653
76654W        W41815  17.098  34.157   1.243
76655W        W41816   9.904  42.774   1.771
76656W        W41817  30.757  43.938   1.204
76657W        W41818  35.000  39.687  10.259
76658W        W41819  31.853  32.069  13.046
76659W        W41820  42.255  42.558  14.467
76660W        W41821  11.334  25.049  10.924
76661W        W41822  32.340  42.259  14.445
76662W        W41823  25.482  28.942   4.458
76663W        W41824  43.600  33.318   5.031
76664W        W41825  28.822  32.199   0.938
76665W        W41826  28.150  33.398   3.394
76666W        W41827  39.754  38.323   0.888
76667W        W41828  44.284  12.492   1.333
76668W        W41829  16.100  29.729   4.540
76669W        W41830   1.846   0.956  12.052
76670W        W41831  36.985  17.136   3.508
76671W        W41832  24.731   7.325  11.925
76672W        W41833  39.059  20.584  11.910
76673W        W41834  18.050  12.261   2.000
76674W        W41835  23.792   5.820  10.764
76675W        W41836  20.045  37.801   2.824
76676W        W41837  30.208  27.817  14.459
76677W        W41838  21.871  23.951  12.874
76678W        W41839  16.183   4.881  14.553
76679W        W41840   9.228  42.732   4.959
76680W        W41841  43.292  19.196   3.337
76681W        W41842  13.344  33.513  13.387
76682W        W41843  37.799  23.915  12.587
76683W        W41844  40.597  39.868  12.847
76684W        W41845  21.017   2.478   3.560
76685W        W41846  29.568  28.694  11.294
76686W        W41847  34.862  42.445   2.661
76687W        W41848   8.656  21.189  13.059
76688W        W41849   9.814  37.162   4.119
76689W        W41850  17.005  22.859  14.925
76690W        W41851  16.877  44.115   4.907
76691W        W41852   6.860  24.215   2.247
76692W        W41853  29.075  15.909   4.612
76693W        W41854  42.309  13.199  13.420
76694W        W41855  22.781  14.062   4.202
76695W        W41856  20.929  16.588   2.235
76696W        W41857  27.298  37.303  10.108
76697W        W41858   7.251  10.807   3.634
76698W        W41859  27.537  19.551   2.767
76699W        W41860  29.526  15.971  12.640
76700W        W41861  11.430   5.129  12.358
76701W        W41862  38.582  33.578   4.288
76702W        W41863  26.781  13.871  10.277
76703W        W41864   0.448  15.297   0.831
76704W        W41865  30.175  38.463  13.436
76705W        W41866  21.717  24.933   2.188
76706W        W41867  21.779   0.706  11.990
76707W        W41868  16.657   8.199  14.056
76708W        W41869  30.438  27.919   3.262
76709W        W41870  17.108  36.871   4.277
76710W        W41871   0.212  29.202   4.739
76711W        W41872   4.918  20.658   4.549
76712W        W41873  17.044  37.972  14.796
76713W        W41874  11.077  43.425   1.978
76714W        W41875  19.295  25.691  14.334
76715W        W41876  10.384  38.402   3.327
76716W        W41877   9.895  31.561  11.209
76717W        W41878   3.816  44.713   0.831
76718W        W41879  14.849  27.100   2.936
76719W        W41880  40.523  35.370   2.298
76720W        W41881  35.661  21.065  14.977
76721W        W41882   4.494  15.328  11.175
76722W        W41883  37.194  11.956   5.038
76723W        W41884  10.070  19.150   1.234
76724W        W41885  28.105  44.526   2.409
76725W        W41886   9.751  39.129   3.274
76726W        W41887   9.887  10.403   4.181
76727W        W41888  11.330  43.516   1.199
76728W        W41889  26.613  44.831  12.613
76729W        W41890  28.706  15.116  14.464
76730W        W41891   5.254  40.076   4.017
76731W        W41892  29.227  33.951  12.609
76732W        W41893  36.751  13.181  14.221
76733W        W41894  44.808  32.399   3.464
76734W        W41895  28.383  14.308   4.575
76735W        W41896  30.451  21.888  13.350
76736W        W41897  19.619  41.807   1.718
76737W        W41898  20.818  20.695  13.531
76738W        W41899  34.256  14.195  12.004
76739W        W41900  17.299  33.887  11.236
76740W        W41901  17.098  31.086   0.908
76741W        W41902   4.093  42.868   4.392
76742W        W41903  34.298   8.378   2.793
76743W        W41904   2.758  22.721  13.062
76744W        W41905  42.747  13.125   3.263
76745W        W41906   0.806   9.724   2.266
76746W        W41907  38.095   2.248  10.571
76747W        W41908  31.471  28.120  14.409
76748W        W41909  42.547  19.804  12.447
76749W        W41910  37.595  14.265   1.132
76750W        W41911  19.179   5.266  12.340
76751W        W41912  27.155  33.180  11.498
76752W        W41913   5.417  34.074   3.277
76753W        W41914   8.813  15.717  13.160
76754W        W41915  25.168  34.596  10.250
76755W        W41916  38.208  13.805  13.373
76756W        W41917  17.626  20.992   5.003
76757W        W41918  42.983  15.839   1.705
76758W        W41919  21.596  37.284   0.713
76759W        W41920   9.272  25.456   0.231
76760W        W41921  10.156  33.956  12.973
76761W        W41922   8.471  29.657   1.237
76762W        W41923  16.566  30.021  12.813
76763W        W41924   8.026   8.739   2.884
76764W        W41925  27.642  22.066  13.494
76765W        W41926  37.186  33.876   3.709
76766W        W41927  12.482  30.548  12.079
76767W        W41928   8.266   2.831  11.915
76768W        W41929  14.668  24.176  13.980
76769W        W41930  37.356  14.131  14.250
76770W        W41931  11.602  13.525   0.223
76771W        W41932  12.666  29.433   0.388
76772W        W41933  29.174   0.568  14.811
76773W        W41934  39.546  35.635  11.612
76774W        W41935   0.395   4.889   3.630
76775W        W41936  17.577  44.307   5.361
76776W        W41937  40.366   6.155   5.358
76777W        W41938  31.621  27.272   9.863
76778W        W41939  25.916  15.375  11.780
76779W        W41940  35.144  30.959  12.771
76780W        W41941  17.661  35.621   4.335
76781W        W41942  25.039  42.951  12.086
76782W        W41943  26.134  15.278   3.444
76783W        W41944   3.432  22.252   1.746
76784W        W41945  32.271  13.109  12.604
76785W        W41946  24.606  21.133   5.006
76786W        W41947   6.921  36.018   1.705
76787W        W41948  25.698  44.744   2.191
76788W        W41949  42.050  27.172  12.946
76789W        W41950  37.413  20.919  11.621
76790W        W41951  14.010  13.043  12.819
76791W        W41952  22.005   7.354  12.800
76792W        W41953   5.596   2.465   1.798
76793W        W41954  34.462  43.788   2.244
76794W        W41955  22.358  28.613   3.578
76795W        W41956  43.290  13.773   4.726
76796W        W41957   7.816  42.352   0.506
76797W        W41958  27.634  20.671   0.782
76798W        W41959  15.838  16.665  12.378
76799W        W41960  25.244  34.246  12.054
76800W        W41961   5.184  22.263  11.696
76801W        W41962  26.220  19.593  14.610
76802W        W41963  16.704  37.529  10.618
76803W        W41964  12.121  21.766   1.908
76804W        W41965  19.260  12.594   3.143
76805W        W41966   6.516  38.142   2.201
76806W        W41967  30.638  42.030  11.523
76807W        W41968  43.521   4.660  14.372
76808W        W41969  41.304  31.347   4.230
76809W        W41970  19.067  19.555   2.198
76810W        W41971   3.851  25.206   2.664
76811W        W41972  34.119   7.963   1.883
76812W        W41973  27.164   7.940  11.367
76813W        W41974  38.428  15.183  11.207
76814W        W41975  30.393   4.617  13.647
76815W        W41976  36.820  41.793   1.437
76816W        W41977  33.061  34.145  11.112
76817W        W41978   1.070   3.234   4.075
76818W        W41979  40.343   8.132  14.406
76819W        W41980  31.685  12.124  14.497
76820W        W41981  25.179  23.603  12.870
76821W        W41982   0.523  41.035   4.111
76822W        W41983  25.844  22.167   4.627
76823W        W41984   0.235  25.639  10.572
76824W        W41985  34.097  17.785   1.255
76825W        W41986  17.262  15.542  14.896
76826W        W41987   9.682  16.209   3.414
76827W        W41988  10.371  18.659  11.646
76828W        W41989  28.128  20.566  13.932
76829W        W41990  22.175  31.650   2.178
76830W        W41991  41.832  36.439   3.294
76831W        W41992  33.181   6.201   3.041
76832W        W41993  35.475  28.233   3.737
76833W        W41994  44.659  20.587  12.975
76834W        W41995  33.486  23.927   4.652
76835W        W41996  14.529  41.590  14.992
76836W        W41997  25.885  25.763   3.752
76837W        W41998  26.787  40.224   0.375
76838W        W41999  35.301  10.287  10.582
76839W        W42000  21.241  18.330  13.468
76840W        W42001  23.511  37.266   4.504
76841W        W42002  34.225   0.420   3.211
76842W        W42003  22.809  15.050   3.197
76843W        W42004  18.000  42.568  14.190
76844W        W42005  27.565  31.463   0.503
76845W        W42006  21.512  39.909   1.225
76846W        W42007  14.434   2.378  11.376
76847W        W42008  18.569  15.051  11.210
76848W        W42009  11.772   7.574   0.430
76849W        W42010  26.336  17.122   4.156
76850W        W42011  34.833  16.131  11.180
76851W        W42012  35.852  40.023   5.484
76852W        W42013   5.443  18.052   2.853
76853W        W42014   9.732  16.652  11.591
76854W        W42015  24.998   6.224  12.892
76855W        W42016  16.189   8.416  10.618
76856W        W42017  12.338  26.444   4.092
76857W        W42018  12.170   4.318   0.847
76858W        W42019  15.242  31.508  10.763
76859W        W42020  29.359  29.154   1.418
76860W        W42021  35.322  25.704  13.754
76861W        W42022  44.795  11.711  14.912
76862W        W42023  39.793  18.487   0.299
76863W        W42024  42.147  37.032  13.313
76864W        W42025  20.685   4.179   0.724
76865W        W42026  43.324  26.814  12.330
76866W        W42027   9.150   2.038   1.326
76867W        W42028  38.411  41.422   4.022
76868W        W42029   1.918  29.555  14.284
76869W        W42030  29.898  20.956  11.151
76870W        W42031  16.102   9.452  10.751
76871W        W42032  27.410  17.226  14.292
76872W        W42033  31.105  16.826  14.101
76873W        W42034  14.636  33.590   0.700
76874W        W42035  11.339   1.228   3.661
76875W        W42036  27.067   9.858   1.825
76876W        W42037   2.336   9.283  11.933
76877W        W42038  23.037  21.513   1.900
76878W        W42039  33.312  10.113  13.778
76879W        W42040  32.580  11.490   3.651
76880W        W42041   5.710  16.324  13.084
76881W        W42042   2.299   4.528   4.516
76882W        W42043  22.372  17.585   3.964
76883W        W42044   9.904  40.895  10.074
76884W        W42045  37.374  24.057   4.591
76885W        W42046   7.697  36.881   2.357
76886W        W42047  30.745  40.320   3.291
76887W        W42048   3.449  39.521   0.404
76888W        W42049  10.860   2.519  12.049
76889W        W42050  39.981  25.025  10.739
76890W        W42051  41.356  36.578  13.474
76891W        W42052  40.611  16.539   0.687
76892W        W42053  19.528   1.048   3.692
76893W        W42054   1.492   2.716  11.628
76894W        W42055  28.467  37.917   2.583
76895W        W42056  39.064  22.996   3.240
76896W        W42057  44.044  36.076  14.447
76897W        W42058  38.098  18.738  14.769
76898W        W42059  19.257  29.122   2.975
76899W        W42060   7.448  26.619  13.799
76900W        W42061  21.365   4.144  13.803
76901W        W42062  13.398   7.666  13.784
76902W        W42063  37.623  24.389  12.588
76903W        W42064   0.538  15.695   1.720
76904W        W42065  37.490  11.820  14.129
76905W        W42066  34.339   0.857  13.729
76906W        W42067  37.565  43.695   3.563
76907W        W42068  16.052  11.954  12.964
76908W        W42069  40.636   8.171   0.280
76909W        W42070   7.304   6.420  11.542
76910W        W42071  19.231  31.017   2.968
76911W        W42072  29.963  18.750  11.566
76912W        W42073  17.046  19.904   1.176
76913W        W42074  24.921   6.403  11.324
76914W        W42075  15.367   4.376   2.919
76915W        W42076  12.229  42.245   3.130
76916W        W42077   0.414  40.049  10.887
76917W        W42078  44.225  13.847   4.883
76918W        W42079  16.044  44.729   2.513
76919W        W42080   5.352  15.255   4.569
76920W        W42081  40.319   8.132   0.689
76921W        W42082  32.116  34.003  13.411
76922W        W42083  25.286  21.660  10.733
76923W        W42084  23.581  44.839  14.895
76924W        W42085   4.818  29.000  12.077
76925W        W42086  34.110  10.135   0.258
76926W        W42087  12.518   9.820  11.487
76927W        W42088  18.700  18.605   2.648
76928W        W42089  40.867  12.692  12.873
76929W        W42090  10.256  30.338  13.950
76930W        W42091   0.586   2.760  12.516
76931W        W42092   0.615   6.285  12.457
76932W        W42093  38.862  28.168  10.431
76933W        W42094  44.871  41.935   0.098
76934W        W42095   7.905  11.110   1.384
76935W        W42096  33.361  12.920   1.445
76936W        W42097  35.400  13.141  10.856
76937W        W42098  13.399  31.217   1.344
76938W        W42099   3.497  12.730   4.101
76939W        W42100  32.263  20.606   0.795
76940W        W42101  12.152   8.872   3.151
76941W        W42102  16.625  11.558   3.557
76942W        W42103  43.700  13.203  13.344
76943W        W42104  19.682  39.854   3.165
76944W        W42105   9.826   8.679   1.278
76945W        W42106   1.356  30.567  11.062
76946W        W42107  13.336  42.825   4.581
76947W        W42108  16.647   5.727  13.206
76948W        W42109  41.639  40.830  13.137
76949W        W42110  43.118  29.266   0.846
76950W        W42111   0.150   3.582   4.002
76951W        W42112  21.068  10.098  11.223
76952W        W42113  40.313  18.827  13.520
76953W        W42114   7.810  19.761  12.164
76954W        W42115  27.713  39.967  10.321
76955W        W42116  14.062  19.581  13.337
76956W        W42117  44.728   0.281   1.266
76957W        W42118   8.373   5.433   3.156
76958W        W42119  35.877   1.856  10.845
76959W        W42120   7.777  42.829  10.184
76960W        W42121   5.310  18.201  11.562
76961W        W42122  10.383  40.318   5.266
76962W        W42123  23.220  11.425  12.454
76963W        W42124  42.578   1.199  11.228
76964W        W42125  21.977   4.185   3.123
76965W        W42126   1.797  11.290  12.719
76966W        W42127  35.912   5.886   2.728
76967W        W42128  19.083  23.731   4.118
76968W        W42129  41.041  44.988  11.063
76969W        W42130  31.811  37.533   4.427
76970W        W42131  16.741  16.018   3.319
76971W        W42132  40.081  29.951  13.784
76972W        W42133  34.555  13.855  14.291
76973W        W42134  14.322  32.937   1.873
76974W        W42135  37.021  35.451  12.004
76975W        W42136  29.144   0.840  11.656
76976W        W42137  27.149  24.000   4.952
76977W        W42138  27.082  21.471  12.585
76978W        W42139  22.563  12.688  12.723
76979W        W42140  19.806  11.280  14.864
76980W        W42141  18.846   8.266   3.639
76981W        W42142  34.661  26.522   4.145
76982W        W42143  33.431  13.337   0.630
76983W        W42144   2.918   9.226  13.512
76984W        W42145  20.477  30.550  14.017
76985W        W42146  31.863   2.495  12.002
76986W        W42147  25.020  14.023  13.430
76987W        W42148  16.545  11.750   1.068
76988W        W42149  20.609  43.563  10.662
76989W        W42150   7.591  23.599  14.964
76990W        W42151  11.315  11.946   2.340
76991W        W42152  23.363  19.292  10.979
76992W        W42153  17.275  10.114   5.179
76993W        W42154  32.692  39.564  14.789
76994W        W42155  18.261  27.578  12.234
76995W        W42156  30.292   9.844  12.414
76996W        W42157  19.843  28.395  12.952
76997W        W42158  38.422   5.341  12.052
76998W        W42159  16.301  39.945   0.255
76999W        W42160  32.532  14.701  11.957
77000W        W42161  34.224  35.495   4.940
77001W        W42162  33.374  21.476  14.508
77002W        W42163   3.940   3.757   4.347
77003W        W42164  41.874  39.315   2.681
77004W        W42165  19.697   5.067  13.639
77005W        W42166   7.745  14.032   3.747
77006W        W42167  12.593  21.698  13.817
77007W        W42168  12.859  13.205   0.997
77008W        W42169  34.950  16.670   3.351
77009W        W42170  17.081  13.803  12.484
77010W        W42171  44.757  23.667  10.320
77011W        W42172  34.423  24.232   5.748
77012W        W42173  42.891  21.009  12.002
77013W        W42174  13.656  12.796  13.733
77014W        W42175  33.315  26.063  11.222
77015W        W42176  26.053  25.747  14.519
77016W        W42177   4.095  31.155  11.145
77017W        W42178  37.836   2.317  11.068
77018W        W42179  22.122  21.103  11.438
77019W        W42180   0.444   3.697  14.377
77020W        W42181  10.729  16.367   4.771
77021W        W42182  24.081  17.275  11.200
77022W        W42183   0.861  24.784   1.658
77023W        W42184   3.819  13.246  12.589
77024W        W42185  18.826  36.853   0.465
77025W        W42186  27.152  25.587  13.439
77026W        W42187   3.948  25.729   1.445
77027W        W42188  17.267  29.675  12.217
77028W        W42189  29.429  12.354  12.010
77029W        W42190   9.734  41.451   1.710
77030W        W42191   9.773  33.907   1.434
77031W        W42192  26.142  18.901   1.774
77032W        W42193   6.115  30.971   0.225
77033W        W42194   8.748  40.433  11.449
77034W        W42195  38.041   9.238   0.390
77035W        W42196  18.132  10.654  13.130
77036W        W42197  31.097  33.191   5.070
77037W        W42198   1.387  40.810  10.938
77038W        W42199  11.536  20.223  12.026
77039W        W42200   6.904  23.493  12.896
77040W        W42201  35.065  24.604  14.214
77041W        W42202  30.483  17.610   4.126
77042W        W42203  13.703   0.302   1.446
77043W        W42204   4.538  20.641   3.624
77044W        W42205  35.089   4.150   1.786
77045W        W42206  42.006  39.293   0.472
77046W        W42207  34.417   7.877   2.492
77047W        W42208  23.257  34.015  13.114
77048W        W42209   2.250  26.198   0.518
77049W        W42210  21.955  17.099   5.451
77050W        W42211  32.838  14.538   2.801
77051W        W42212  19.241   2.407   4.540
77052W        W42213  15.265  18.218  13.448
77053W        W42214  10.619   3.286  14.900
77054W        W42215   5.650  38.102  11.456
77055W        W42216  32.154  39.461   2.742
77056W        W42217  34.846   9.221   1.328
77057W        W42218  12.153  43.544  13.348
77058W        W42219  26.613  15.070  13.561
77059W        W42220  19.126  21.967  14.466
77060W        W42221  21.171  32.666  14.193
77061W        W42222  36.941   4.932  11.586
77062W        W42223   0.641  28.600   0.887
77063W        W42224  18.213   7.978   2.389
77064W        W42225  40.279  29.681   2.248
77065W        W42226   5.940  20.420   4.108
77066W        W42227  37.948  41.672   4.049
77067W        W42228  33.573  41.364   0.521
77068W        W42229  27.165  29.010  14.303
77069W        W42230  17.221  35.823   3.225
77070W        W42231  19.614  16.650   1.903
77071W        W42232  17.587  44.519   3.238
77072W        W42233  22.145  42.347   3.619
77073W        W42234  40.833  36.668  13.340
77074W        W42235  41.718  17.358   3.226
77075W        W42236  25.585  39.114   4.793
77076W        W42237  18.765  24.619  11.567
77077W        W42238  19.215  14.892  10.677
77078W        W42239  30.078  29.898  13.352
77079W        W42240  30.625  35.993  13.567
77080W        W42241  41.834  22.947   3.210
77081W        W42242   7.369   5.751   1.773
77082W        W42243  19.177  15.152   5.367
77083W        W42244  32.558  40.036  12.628
77084W        W42245  30.336  27.023   3.637
77085W        W42246  21.260  32.039  12.488
77086W        W42247  13.370   2.364   0.256
77087W        W42248  14.387   3.934  11.981
77088W        W42249  32.654  32.012  11.103
77089W        W42250   3.452  39.133  12.639
77090W        W42251   9.683  27.292  14.261
77091W        W42252  21.730  43.438  13.439
77092W        W42253  44.228  18.663  12.525
77093W        W42254  43.242  33.997  11.089
77094W        W42255  26.217   6.001  13.341
77095W        W42256   8.205  42.711  11.153
77096W        W42257  19.737   3.731  13.410
77097W        W42258  11.772  42.296   3.622
77098W        W42259  39.499  13.607  14.749
77099W        W42260   0.830  30.139   2.415
77100W        W42261  23.598  37.111   2.709
77101W        W42262  19.966  19.680   2.388
77102W        W42263  35.418   1.148   0.440
77103W        W42264   0.432  14.241   1.832
77104W        W42265   6.436  16.445   0.701
77105W        W42266  23.952  40.088  13.554
77106W        W42267  25.657  31.148  14.260
77107W        W42268  36.070   4.092   4.527
77108W        W42269  44.753   9.474  14.510
77109W        W42270  33.729  32.920   1.912
77110W        W42271  19.297   1.993  13.466
77111W        W42272  25.914  27.583   1.882
77112W        W42273  29.509  25.596  12.344
77113W        W42274  40.195  38.107   3.623
77114W        W42275  12.588  32.659   3.668
77115W        W42276   2.734  42.707   4.280
77116W        W42277  41.434   8.694   0.726
77117W        W42278  21.875  34.948  10.442
77118W        W42279  31.818  29.978  14.997
77119W        W42280  40.240  42.360   3.390
77120W        W42281  12.412  30.148  13.415
77121W        W42282  18.780   4.130   4.903
77122W        W42283  26.017  34.837  11.066
77123W        W42284  29.168  34.049  11.034
77124W        W42285   2.966  26.347   1.642
77125W        W42286  38.923  35.061  12.883
77126W        W42287  44.177  11.376  14.559
77127W        W42288  31.048  14.115   0.107
77128W        W42289  30.113  19.152   3.710
77129W        W42290  33.160  14.051   4.309
77130W        W42291  31.036  25.443   0.821
77131W        W42292  30.248  24.768   3.096
77132W        W42293  40.265  21.911   4.077
77133W        W42294  13.902   8.749   0.353
77134W        W42295  19.645  15.279  11.657
77135W        W42296  11.232  39.150  14.711
77136W        W42297  44.233  18.934   4.657
77137W        W42298  35.534  32.240  12.586
77138W        W42299  32.995  44.691  11.469
77139W        W42300  22.362  14.356   4.399
77140W        W42301  35.670  24.107  10.643
77141W        W42302   6.905  26.523  11.863
77142W        W42303  41.001  38.669   4.025
77143W        W42304   0.222  35.381   3.387
77144W        W42305  44.054   5.323   3.705
77145W        W42306  21.736  33.835   1.181
77146W        W42307   4.476  19.375  14.718
77147W        W42308  36.384  23.153   1.680
77148W        W42309  32.166  36.163   2.155
77149W        W42310  29.344   1.842  12.501
77150W        W42311  30.613  38.081   4.842
77151W        W42312  32.144  33.606   1.744
77152W        W42313   0.768   0.757   2.953
77153W        W42314  18.178  41.579   3.458
77154W        W42315  22.934  44.529   4.144
77155W        W42316  36.334  28.968  14.868
77156W        W42317   4.407  40.532   4.122
77157W        W42318  10.302  25.496  10.785
77158W        W42319  18.217  25.218   2.448
77159W        W42320  13.273  30.168   3.665
77160W        W42321  27.777  43.218  14.216
77161W        W42322  27.115  39.044   1.349
77162W        W42323  37.441  33.449  13.847
77163W        W42324   1.674  44.800   4.164
77164W        W42325  29.990  42.025   1.204
77165W        W42326  13.098  14.027   1.181
77166W        W42327  39.552  17.807  13.878
77167W        W42328  35.117  33.526  10.707
77168W        W42329  42.855  24.931   3.338
77169W        W42330  38.602  23.655  13.901
77170W        W42331  41.033  29.111   0.840
77171W        W42332  25.972  12.582  13.444
77172W        W42333   2.285  24.754   1.441
77173W        W42334  39.474  19.224  13.038
77174W        W42335   3.422   9.772  11.150
77175W        W42336  21.240  12.747  13.061
77176W        W42337  30.977  14.209  10.672
77177W        W42338  37.907  13.534  10.627
77178W        W42339  12.165  34.826  12.057
77179W        W42340   2.311  10.884   0.789
77180W        W42341  15.160  23.143  10.643
77181W        W42342  32.987  40.935  10.747
77182W        W42343  33.241  36.774  11.655
77183W        W42344   0.626   6.848   2.256
77184W        W42345  43.342  17.523  11.153
77185W        W42346   3.547  27.184   3.038
77186W        W42347  44.665  23.577  13.870
77187W        W42348   9.930  16.982  13.827
77188W        W42349  19.703  29.980   2.394
77189W        W42350  21.241  32.902  13.698
77190W        W42351  17.638  34.483   4.000
77191W        W42352  18.253  42.520  11.014
77192W        W42353  17.991   6.793   0.657
77193W        W42354  16.116   5.700   2.424
77194W        W42355  38.506  38.259  11.930
77195W        W42356   7.843  33.400   4.892
77196W        W42357   2.453  44.804  10.582
77197W        W42358  24.546  28.337  11.912
77198W        W42359  37.508  21.575   2.255
77199W        W42360  29.215  31.510  12.471
77200W        W42361  38.890  34.097   3.294
77201W        W42362  32.580  15.665  11.094
77202W        W42363  20.277   6.677   0.961
77203W        W42364  26.220  23.333   4.096
77204W        W42365  34.024  41.888   2.326
77205W        W42366  41.217  41.817  14.484
77206W        W42367   3.100  19.774   2.186
77207W        W42368   4.855  44.362   3.989
77208W        W42369  14.649   6.997  11.044
77209W        W42370  15.680  31.906   3.398
77210W        W42371  24.078  17.756  13.955
77211W        W42372   4.321  43.577  13.739
77212W        W42373  17.804  23.022  13.796
77213W        W42374  37.543  39.796   0.443
77214W        W42375  34.629  42.356  12.399
77215W        W42376  37.029  37.469   0.203
77216W        W42377  12.997  17.237   3.687
77217W        W42378   6.821  43.945  12.477
77218W        W42379  38.399  22.581   0.647
77219W        W42380   4.294  32.501   0.746
77220W        W42381  30.398  44.235   0.302
77221W        W42382  14.658  15.683   4.855
77222W        W42383  18.151  31.371  11.181
77223W        W42384  15.104   6.579  12.049
77224W        W42385   9.106   1.046   2.319
77225W        W42386  28.958  34.654   2.661
77226W        W42387   4.620  40.246  13.503
77227W        W42388  21.742  10.971   3.348
77228W        W42389  26.125   5.262   1.612
77229W        W42390  16.716  27.478  11.143
77230W        W42391  19.656  24.100  10.709
77231W        W42392   1.489  36.219  13.398
77232W        W42393  26.905  22.472  13.925
77233W        W42394   7.656  15.710   3.050
77234W        W42395  40.062  30.967   4.477
77235W        W42396   4.420   9.161  13.364
77236W        W42397  24.122  20.675  10.833
77237W        W42398  35.457  13.260  12.042
77238W        W42399  44.088  10.234   5.042
77239W        W42400  40.480  16.850  13.845
77240W        W42401  29.297  31.281   0.893
77241W        W42402   5.437  34.288   1.039
77242W        W42403  15.029  37.483   0.346
77243W        W42404  43.772  44.505  14.794
77244W        W42405  15.429  29.074  10.082
77245W        W42406  21.668  20.166  12.117
77246W        W42407  10.372  27.740  13.359
77247W        W42408  14.542  42.763  13.042
77248W        W42409   3.679  23.728  12.374
77249W        W42410  44.667  27.007   2.769
77250W        W42411  20.550  23.130   1.188
77251W        W42412   5.817   3.451  11.073
77252W        W42413  39.079  29.559  12.063
77253W        W42414   9.635  37.039  14.719
77254W        W42415  13.269  35.539  12.664
77255W        W42416  38.013  16.075   0.331
77256W        W42417  41.821  21.337   3.627
77257W        W42418  28.503  15.640  13.869
77258W        W42419  20.527  39.915  12.009
77259W        W42420  24.384  26.451   4.918
77260W        W42421  43.538  42.864  11.428
77261W        W42422  34.630  34.110   3.637
77262W        W42423  29.516   2.512  12.975
77263W        W42424  18.817  36.626   1.815
77264W        W42425   6.379  24.801  13.818
77265W        W42426  38.024   3.716   2.401
77266W        W42427  19.813  14.473  11.186
77267W        W42428  22.653  20.567  13.105
77268W        W42429  12.446  10.677  12.123
77269W        W42430   1.412   3.505  10.364
77270W        W42431   5.854  35.152   2.370
77271W        W42432  36.890  28.653  11.627
77272W        W42433  15.072  24.206   1.739
77273W        W42434   6.418  27.635  13.475
77274W        W42435   6.726   6.660  10.479
77275W        W42436  32.866  28.773   2.496
77276W        W42437  31.456   5.188   0.774
77277W        W42438  21.912  44.923   1.964
77278W        W42439  11.842  23.839   2.761
77279W        W42440  37.370  13.245  14.772
77280W        W42441  15.827   6.877  13.078
77281W        W42442   1.118  24.089   4.630
77282W        W42443   0.613   2.728  11.600
77283W        W42444  25.022  21.728   4.026
77284W        W42445  40.072  29.899  12.988
77285W        W42446  42.277   0.754  12.912
77286W        W42447  37.616  39.053   0.825
77287W        W42448  15.070  41.444   2.320
77288W        W42449  17.577  18.593   0.270
77289W        W42450  35.383  22.660   3.229
77290W        W42451  23.235  34.427  11.991
77291W        W42452  20.104   7.531   3.071
77292W        W42453  39.826  25.403  11.752
77293W        W42454  34.288   2.326   3.973
77294W        W42455  37.374   7.359   1.468
77295W        W42456   0.443  20.531  11.672
77296W        W42457   5.693  44.421  10.430
77297W        W42458  19.979  11.413   2.844
77298W        W42459  30.415  32.639  14.239
77299W        W42460   4.923  16.224  13.458
77300W        W42461  29.012  25.657   2.058
77301W        W42462  22.580   0.056  12.127
77302W        W42463  22.932  32.932  14.552
77303W        W42464  13.270  27.401   0.959
77304W        W42465  19.361  25.552  13.419
77305W        W42466  28.085  10.389  12.990
77306W        W42467  10.716  24.183   4.192
77307W        W42468  31.813   7.970   4.613
77308W        W42469   8.701  42.296   4.907
77309W        W42470  37.281  42.062  14.756
77310W        W42471  23.762  17.203   1.031
77311W        W42472  43.289  38.304  12.846
77312W        W42473  10.319  36.923  14.118
77313W        W42474  14.157  17.100   2.736
77314W        W42475   4.992  12.373   4.912
77315W        W42476  17.126  22.944  11.082
77316W        W42477   2.996   1.914  10.369
77317W        W42478  33.737  13.394   4.557
77318W        W42479   0.830  11.150  14.463
77319W        W42480  30.540  28.065  10.652
77320W        W42481  38.812   7.133   0.110
77321W        W42482  38.948  34.341   4.620
77322W        W42483   5.448  18.488  13.521
77323W        W42484  20.247  34.494  10.706
77324W        W42485  21.443  34.408  14.383
77325W        W42486  35.836  25.520  14.494
77326W        W42487  11.387  22.915  13.759
77327W        W42488   3.325   0.482  10.876
77328W        W42489  28.714  40.197  14.251
77329W        W42490  23.052  36.511   1.763
77330W        W42491  27.949  32.688  14.269
77331W        W42492  27.501  35.447   3.412
77332W        W42493  31.072  44.984  14.432
77333W        W42494  36.005   0.965  14.450
77334W        W42495  24.321  26.128   2.505
77335W        W42496   3.366  34.824  12.594
77336W        W42497  16.685  34.772   0.365
77337W        W42498  38.895   1.179   0.582
77338W        W42499   1.778  13.734  12.026
77339W        W42500   5.473  24.105   1.464
77340W        W42501   0.798  43.860   2.288
77341W        W42502  44.349   2.568   4.378
77342W        W42503  22.560  42.742  14.841
77343W        W42504  33.201  32.582  13.601
77344W        W42505  22.032  40.311   0.631
77345W        W42506  18.187  32.384  11.009
77346W        W42507  10.373  20.000  12.476
77347W        W42508   0.475  43.807   1.770
77348W        W42509  30.048   2.308   3.101
77349W        W42510  12.696  28.630  13.089
77350W        W42511  29.337  25.111   3.056
77351W        W42512  19.074  17.721   2.298
77352W        W42513  26.120  42.333   2.336
77353W        W42514  12.156  18.184  14.373
77354W        W42515  25.047  42.021  13.404
77355W        W42516   3.316  34.963   4.950
77356W        W42517  34.473  27.665  12.047
77357W        W42518  23.026   0.445   2.286
77358W        W42519  18.187  18.602  11.920
77359W        W42520   3.145  16.757  14.598
77360W        W42521   9.503  14.158  14.603
77361W        W42522  44.842  32.359   0.315
77362W        W42523  35.363  41.332  14.364
77363W        W42524  29.606  33.140  13.876
77364W        W42525   7.571  37.048  11.472
77365W        W42526  43.070  38.697  14.682
77366W        W42527  25.254   3.301  12.095
77367W        W42528  41.726   2.863  14.689
77368W        W42529   5.347  10.492  12.368
77369W        W42530   5.767  11.589   4.551
77370W        W42531  34.897  42.747  10.827
77371W        W42532   4.907  37.521   2.636
77372W        W42533  43.190   6.013   4.608
77373W        W42534  25.121  32.438   0.672
77374W        W42535  32.422   8.215  13.505
77375W        W42536  39.576   0.363  12.124
77376W        W42537  20.774  41.010  13.919
77377W        W42538   2.360  38.502   1.273
77378W        W42539   5.202  28.210  12.109
77379W        W42540  21.054  23.584  12.942
77380W        W42541   6.461   2.929  12.033
77381W        W42542  15.090  44.915   1.371
77382W        W42543  39.873   6.170   4.077
77383W        W42544  34.151  24.574  12.959
77384W        W42545  31.495  10.608   2.740
77385W        W42546  42.195   0.366   1.866
77386W        W42547  33.167  43.208   4.136
77387W        W42548  36.934  10.227  14.456
77388W        W42549  10.615  14.752   3.579
77389W        W42550  12.891  38.897   1.784
77390W        W42551  28.874  31.888  12.947
77391W        W42552  14.196   7.715   3.435
77392W        W42553   5.363  11.012  12.526
77393W        W42554  18.839  28.516  11.161
77394W        W42555  10.787   2.218  11.622
77395W        W42556   9.625   7.396   4.192
77396W        W42557  35.402   8.222  12.447
77397W        W42558  31.335  10.169  13.065
77398W        W42559  43.393  16.699   4.127
77399W        W42560   9.326  15.719   0.864
77400W        W42561  42.423  20.979  13.443
77401W        W42562  28.155  13.894  12.045
77402W        W42563  28.573  42.019   3.253
77403W        W42564  40.355  27.835  14.416
77404W        W42565  11.415   6.248   3.726
77405W        W42566   5.250  35.589  14.213
77406W        W42567   9.311  15.930   3.698
77407W        W42568  18.841   3.924   3.672
77408W        W42569  27.235  37.342  11.604
77409W        W42570  10.246   8.915  11.861
77410W        W42571   2.291  40.537  12.422
77411W        W42572  33.875   5.287  10.938
77412W        W42573  25.704  40.230   0.490
77413W        W42574  38.520  26.601  10.432
77414W        W42575  27.215  20.501  12.470
77415W        W42576  39.233  20.293  13.520
77416W        W42577  20.340  43.583  10.225
77417W        W42578  29.642  38.863  10.543
77418W        W42579  34.924  13.591   2.298
77419W        W42580  30.571  12.918   1.718
77420W        W42581   0.465  22.807  13.811
77421W        W42582   4.627   1.448   2.617
77422W        W42583   5.958  43.242   1.694
77423W        W42584  31.889  11.577  11.064
77424W        W42585  11.172   6.098  13.471
77425W        W42586   9.120  38.442   3.935
77426W        W42587   8.600  33.055  11.045
77427W        W42588  19.177  21.251   1.222
77428W        W42589   2.458  31.633  12.420
77429W        W42590  30.053  37.117  14.302
77430W        W42591  20.113  33.566   3.357
77431W        W42592  44.460  34.109   0.767
77432W        W42593  33.541  37.598   0.814
77433W        W42594   5.508  44.948  11.588
77434W        W42595  37.600   4.199   9.981
77435W        W42596  14.942  28.169   2.206
77436W        W42597  24.121  43.207  14.050
77437W        W42598  26.420  25.641   1.300
77438W        W42599   0.723  28.262  12.059
77439W        W42600  35.850  17.617   0.811
77440W        W42601  36.416  32.183  13.507
77441W        W42602  21.985  32.661  13.967
77442W        W42603  35.336  18.522  14.503
77443W        W42604  16.495  38.094   9.843
77444W        W42605  17.560  11.503  14.402
77445W        W42606   9.588   4.570   1.440
77446W        W42607  39.345  16.701   3.893
77447W        W42608  33.997  30.959   2.404
77448W        W42609   1.860  13.521   1.233
77449W        W42610   5.638  26.674   3.603
77450W        W42611  37.071  36.197  12.463
77451W        W42612   8.421  22.128   1.756
77452W        W42613  25.890  39.641  12.955
77453W        W42614  19.459  36.960   4.995
77454W        W42615  17.803  29.909  12.908
77455W        W42616  20.258   2.827  13.248
77456W        W42617  43.258   3.363   3.200
77457W        W42618  23.855  18.884   4.906
77458W        W42619  20.571  20.023  14.482
77459W        W42620   3.431  31.926  11.174
77460W        W42621   5.932  22.207   4.487
77461W        W42622   9.145   7.875   1.443
77462W        W42623  39.549   9.846  14.802
77463W        W42624  41.537  11.762   3.724
77464W        W42625  34.015  40.834  13.265
77465W        W42626   7.481  30.474   5.020
77466W        W42627   7.596  27.176   4.502
77467W        W42628  32.018  20.963  11.608
77468W        W42629   0.803  26.205  13.355
77469W        W42630  15.495   3.809   0.628
77470W        W42631   5.704  35.397  12.383
77471W        W42632  39.037  23.752   2.584
77472W        W42633  16.528   8.087   0.362
77473W        W42634  29.900  40.241   1.902
77474W        W42635   2.484   4.943  13.415
77475W        W42636  12.181  13.094  11.017
77476W        W42637  39.451   3.227  14.723
77477W        W42638  16.376  38.025   2.213
77478W        W42639   8.647  30.454  14.497
77479W        W42640  12.787  24.043   2.904
77480W        W42641  14.681  21.808   0.239
77481W        W42642  27.973  16.061  12.938
77482W        W42643  26.005  11.429   2.265
77483W        W42644  20.775  34.443   0.739
77484W        W42645  44.884   4.781   3.287
77485W        W42646  32.167  37.870   3.263
77486W        W42647  41.324  18.041  14.958
77487W        W42648  19.998  42.503   4.106
77488W        W42649  31.602  19.115  11.913
77489W        W42650   3.925  33.113  14.449
77490W        W42651  21.173   0.054   4.066
77491W        W42652  29.410  27.449  11.963
77492W        W42653   2.482  16.824  10.418
77493W        W42654   1.501  18.598   1.264
77494W        W42655  35.140  32.589  14.479
77495W        W42656  39.911   9.286   3.642
77496W        W42657  44.437  34.107   0.233
77497W        W42658  33.126  14.700  11.625
77498W        W42659  39.543  24.949   2.007
77499W        W42660  16.746  37.928   1.823
77500W        W42661  25.247  31.616   3.172
77501W        W42662  36.434  10.758  12.177
77502W        W42663  38.403   5.760  10.614
77503W        W42664  39.863  14.282  11.830
77504W        W42665  29.914  22.349   4.995
77505W        W42666  32.510  30.233  12.929
77506W        W42667   6.200  43.476  14.440
77507W        W42668  11.723  21.923   0.038
77508W        W42669  16.042  36.524   1.297
77509W        W42670  24.185  42.264  13.760
77510W        W42671   7.226  17.835  10.716
77511W        W42672   3.137  26.906  13.983
77512W        W42673  23.925  14.316  11.143
77513W        W42674  40.273  35.064   3.191
77514W        W42675  41.054  17.125  12.631
77515W        W42676  37.789   3.012  14.517
77516W        W42677  22.069  39.327   3.226
77517W        W42678   5.298   7.602   2.692
77518W        W42679  44.733  39.517   3.616
77519W        W42680  37.960  34.607  14.403
77520W        W42681  31.199  39.335  14.866
77521W        W42682  33.595  25.680  13.783
77522W        W42683  39.443  11.069  11.585
77523W        W42684  30.330  26.613  11.546
77524W        W42685  15.748  11.200  13.841
77525W        W42686   1.955  29.486   3.693
77526W        W42687   9.638  25.170  10.611
77527W        W42688  23.263  20.710   9.846
77528W        W42689  27.985  34.915  11.055
77529W        W42690   9.291  40.365   3.880
77530W        W42691  34.112  38.362   1.221
77531W        W42692   3.748   1.556   2.978
77532W        W42693  19.218  44.316  10.525
77533W        W42694  32.691  21.870   3.741
77534W        W42695  30.729  19.455   0.991
77535W        W42696  27.135  28.527  14.914
77536W        W42697  34.099   0.664   2.465
77537W        W42698  35.379  16.360  13.962
77538W        W42699  31.126  35.816   4.147
77539W        W42700  35.561  11.321  12.046
77540W        W42701  34.702  30.333  14.128
77541W        W42702  25.181  39.530   0.034
77542W        W42703  13.359  37.843   3.659
77543W        W42704  19.639  37.930   4.607
77544W        W42705   4.974  43.956  10.662
77545W        W42706  17.896  14.816  10.696
77546W        W42707  23.654  18.830  11.136
77547W        W42708  37.640  23.021   1.197
77548W        W42709  17.523  11.747  13.886
77549W        W42710  31.066  38.452  11.613
77550W        W42711  13.609  23.466  12.541
77551W        W42712  19.737  23.697  13.442
77552W        W42713  39.462  28.101  13.930
77553W        W42714   4.814  12.068  12.362
77554W        W42715  13.177  35.406   0.138
77555W        W42716  15.281  24.482  12.448
77556W        W42717   7.372   5.761  14.003
77557W        W42718  32.328   9.168   0.194
77558W        W42719  38.098  31.616   2.496
77559W        W42720  40.875  25.650   4.552
77560W        W42721  36.603   4.351   0.811
77561W        W42722  40.373  13.538  12.047
77562W        W42723  10.093  37.591   4.185
77563W        W42724   8.267  15.338  14.965
77564W        W42725  23.503  30.063   0.061
77565W        W42726  27.145  23.475  13.163
77566W        W42727  25.826  10.323   1.854
77567W        W42728  41.299   2.546  14.530
77568W        W42729  21.590  13.122   3.180
77569W        W42730   3.734  34.590   0.522
77570W        W42731   7.426  44.705   0.877
77571W        W42732  19.771  31.332  13.432
77572W        W42733  35.081  21.924   4.206
77573W        W42734  15.828   1.744   1.717
77574W        W42735   3.559  33.041  14.861
77575W        W42736  21.068  41.580  12.566
77576W        W42737  29.610  40.885  12.928
77577W        W42738  13.730  36.711  10.911
77578W        W42739  38.022  26.580   4.494
77579W        W42740   0.266  31.599  11.152
77580W        W42741  34.635  19.588  12.413
77581W        W42742  33.081  14.409   5.157
77582W        W42743  38.093   4.844  14.342
77583W        W42744  11.193   3.268  14.474
77584W        W42745   8.265   6.964   0.740
77585W        W42746  36.852  37.606  10.207
77586W        W42747  27.408  27.382  11.278
77587W        W42748  26.496  26.986  10.506
77588W        W42749  19.588  39.042   2.700
77589W        W42750  30.446  33.916   2.232
77590W        W42751  32.315  31.711   2.820
77591W        W42752   9.602  44.436   0.841
77592W        W42753  40.949  34.108  12.139
77593W        W42754   6.175   0.209  13.425
77594W        W42755   4.873  41.670  14.835
77595W        W42756   1.973  33.716   0.044
77596W        W42757  21.414  17.281  14.392
77597W        W42758   0.501   1.564  13.974
77598W        W42759  40.295  26.704  14.970
77599W        W42760  25.587   5.651  13.866
77600W        W42761  35.206   6.760  11.276
77601W        W42762  15.132  11.946   4.251
77602W        W42763  31.230   2.356   3.773
77603W        W42764  26.510  17.835   2.719
77604W        W42765   9.392  20.643  13.065
77605W        W42766  41.238  20.003  11.146
77606W        W42767  31.017  26.117   1.427
77607W        W42768  34.856  36.543   1.672
77608W        W42769  23.665   6.203   4.636
77609W        W42770   4.797  32.936  10.719
77610W        W42771  36.497  10.216  13.843
77611W        W42772  35.583  43.421   3.665
77612W        W42773   0.515   1.970  10.786
77613W        W42774  42.940  12.851  12.926
77614W        W42775  41.939  43.878  12.075
77615W        W42776   6.382  36.878  12.434
77616W        W42777  36.834  26.765   4.598
77617W        W42778  18.237   3.459  10.409
77618W        W42779  42.808   7.937  13.563
77619W        W42780  27.978   0.944  14.495
77620W        W42781  44.441   8.133   0.740
77621W        W42782  28.857   7.836  11.168
77622W        W42783  30.273   6.240  12.379
77623W        W42784  40.887  22.770   2.436
77624W        W42785  42.997   0.665   4.080
77625W        W42786  10.796  15.488  11.249
77626W        W42787  20.764  44.719  13.532
77627W        W42788  12.289  22.029  13.013
77628W        W42789  30.251  33.970  14.059
77629W        W42790   0.913  40.318  14.356
77630W        W42791  21.514  35.566   1.296
77631W        W42792   7.721  34.203  14.474
77632W        W42793  22.131   6.518   2.931
77633W        W42794  28.005   1.375   0.743
77634W        W42795  40.141  37.362   0.797
77635W        W42796  17.475  15.725  10.764
77636W        W42797  36.198  17.848   3.625
77637W        W42798  11.182  42.856   0.238
77638W        W42799  25.811  12.440  11.337
77639W        W42800  37.488   9.408   0.843
77640W        W42801  35.944   0.717   3.646
77641W        W42802   4.536   9.951  13.525
77642W        W42803  23.000  44.457   1.236
77643W        W42804  19.236  27.755  11.180
77644W        W42805  29.710   8.117  11.224
77645W        W42806  15.800   0.402   0.359
77646W        W42807   7.655   4.463  11.546
77647W        W42808   6.801  22.630  10.703
77648W        W42809   8.888  21.214   2.829
77649W        W42810   0.789  21.574   4.474
77650W        W42811  20.737  28.681  13.042
77651W        W42812  43.810  33.836   4.180
77652W        W42813  43.722  21.242  12.181
77653W        W42814   8.855  19.576   0.877
77654W        W42815  19.925  29.516   3.353
77655W        W42816  17.145   2.243  12.808
77656W        W42817  10.939  28.368   2.750
77657W        W42818  23.250  33.950   0.155
77658W        W42819  35.424  34.872   4.479
77659W        W42820  13.439  14.997   0.295
77660W        W42821   8.144  29.115   2.263
77661W        W42822  40.422  20.961   1.203
77662W        W42823  22.607   9.701  11.982
77663W        W42824  25.425  44.279   2.104
77664W        W42825  25.958  21.581  11.518
77665W        W42826   7.292  11.234   1.401
77666W        W42827  32.046  33.926  14.828
77667W        W42828  12.226  20.704  11.092
77668W        W42829  40.988   8.478   2.409
77669W        W42830  13.830  26.588   0.186
77670W        W42831  32.014  17.217  10.465
77671W        W42832  36.949  34.382   4.418
77672W        W42833  24.950  13.633   0.799
77673W        W42834  40.812  20.612   0.979
77674W        W42835  33.565   3.862  13.463
77675W        W42836  34.603  44.346   2.159
77676W        W42837  24.085  10.202   3.125
77677W        W42838  34.230  41.939   4.437
77678W        W42839  16.232  31.982  13.953
77679W        W42840   9.389  31.132  11.242
77680W        W42841  10.567  14.729   0.839
77681W        W42842   5.990   3.360   1.349
77682W        W42843  16.029  27.931  12.103
77683W        W42844  41.793   2.556  10.653
77684W        W42845  35.506   8.451   3.223
77685W        W42846  27.434   3.017   1.737
77686W        W42847  18.558  10.347  10.786
77687W        W42848  15.834  44.984   1.757
77688W        W42849   5.246  32.309   4.564
77689W        W42850  18.030  27.659  14.844
77690W        W42851  29.671  11.528  14.177
77691W        W42852   5.342   7.076   0.359
77692W        W42853   9.308  25.964  11.062
77693W        W42854  14.426  19.297  13.039
77694W        W42855  10.303  24.945  13.931
77695W        W42856  44.921  11.134  12.509
77696W        W42857  23.772  13.710   4.267
77697W        W42858  20.835  29.540  11.547
77698W        W42859  15.657  11.329   4.499
77699W        W42860  18.364  17.423   1.452
77700W        W42861  29.214  15.160   3.048
77701W        W42862  15.269  16.325   4.010
77702W        W42863  24.475  36.812  12.524
77703W        W42864   6.693  29.707  10.284
77704W        W42865  21.103   7.777  10.757
77705W        W42866   0.722  41.352  12.963
77706W        W42867  12.158  36.332   1.740
77707W        W42868  24.820  44.365  10.446
77708W        W42869   9.593  32.147   0.665
77709W        W42870  11.720   7.074   0.279
77710W        W42871   0.988  28.135  13.419
77711W        W42872  23.189   0.983  11.840
77712W        W42873  15.291  29.967   1.826
77713W        W42874  13.172  24.469  10.786
77714W        W42875  17.714  43.379   4.426
77715W        W42876  25.779  42.109   4.102
77716W        W42877   1.841   6.056   0.431
77717W        W42878  27.115  13.195   2.787
77718W        W42879  37.035  34.349   3.899
77719W        W42880   3.489  12.246  10.551
77720W        W42881   7.988  17.569  13.956
77721W        W42882  26.175  35.933  11.539
77722W        W42883  33.811  39.986  13.056
77723W        W42884  16.731  38.619  11.433
77724W        W42885  38.119  32.419   1.651
77725W        W42886   5.119  40.014   0.173
77726W        W42887  30.046  22.477  11.181
77727W        W42888   1.792  42.395   3.900
77728W        W42889   3.410  36.848   1.271
77729W        W42890  36.392  15.708   3.627
77730W        W42891   9.761   3.924   3.648
77731W        W42892   5.561  26.852  12.565
77732W        W42893  16.544  22.546  11.990
77733W        W42894  29.837  20.709   2.232
77734W        W42895  20.735   1.013  14.849
77735W        W42896  38.088  26.384  10.259
77736W        W42897  37.313  26.911  14.822
77737W        W42898  21.027  36.863  13.991
77738W        W42899   5.921  26.437   0.169
77739W        W42900  44.154  22.718   4.744
77740W        W42901   3.642  40.121   3.111
77741W        W42902   4.954  41.415   1.247
77742W        W42903   5.386   9.180  11.446
77743W        W42904   5.899  38.357  13.337
77744W        W42905  16.002   4.404   4.578
77745W        W42906  41.526  17.783  10.592
77746W        W42907  30.444  42.754  13.154
77747W        W42908  26.220  23.075   1.674
77748W        W42909   2.909  29.052  11.691
77749W        W42910  26.651  15.251   5.060
77750W        W42911   0.686  22.676   4.818
77751W        W42912  30.365  28.242  11.107
77752W        W42913  15.246  37.645  14.909
77753W        W42914  26.843  16.108   9.867
77754W        W42915  10.405  23.607  10.119
77755W        W42916  38.085  43.920  10.539
77756W        W42917  35.791  27.116   1.305
77757W        W42918  12.357  38.513  13.152
77758W        W42919   0.959  11.197   4.970
77759W        W42920  39.135  24.462   1.755
77760W        W42921   5.011   2.496  11.336
77761W        W42922  40.053  15.783  14.558
77762W        W42923  15.946  34.359   0.934
77763W        W42924  39.740  28.520  11.716
77764W        W42925  34.672  32.475  10.673
77765W        W42926   4.715  24.128  11.441
77766W        W42927  44.184  22.972   2.545
77767W        W42928  34.559  39.367  12.811
77768W        W42929  41.501  31.917  12.481
77769W        W42930  38.603   2.831   2.202
77770W        W42931  18.373  33.878   3.423
77771W        W42932   1.801  20.739  10.844
77772W        W42933   5.832  11.737   2.380
77773W        W42934  44.222  44.374  11.916
77774W        W42935  17.563  24.695   0.435
77775W        W42936   4.332  36.812   1.164
77776W        W42937  13.738   5.917   4.762
77777W        W42938  35.855   2.930  13.916
77778W        W42939  26.628  13.801   0.061
77779W        W42940  16.300   3.769   1.158
77780W        W42941  13.743  13.828  12.671
77781W        W42942  37.579  15.133  13.451
77782W        W42943  42.825  17.434   4.270
77783W        W42944   0.044  12.833   1.770
77784W        W42945  35.831  24.603   4.118
77785W        W42946   3.006  11.262   2.272
77786W        W42947   1.465  14.778   2.947
77787W        W42948  17.480  25.733   2.548
77788W        W42949  39.384  22.678  11.874
77789W        W42950  43.680  28.847  11.008
77790W        W42951   2.497   8.457  14.548
77791W        W42952   6.491   7.669   2.272
77792W        W42953   3.048  14.109   1.678
77793W        W42954  23.465  36.642   3.108
77794W        W42955   9.719  10.793  11.543
77795W        W42956   1.335  10.665   2.913
77796W        W42957   7.705  17.712   2.089
77797W        W42958  30.985   6.271   3.571
77798W        W42959   9.646   2.206   0.662
77799W        W42960  15.104  30.414  14.035
77800W        W42961   5.896   4.276  13.006
77801W        W42962  32.957   1.361   2.239
77802W        W42963  37.753   9.707  11.121
77803W        W42964   0.327  30.221  11.185
77804W        W42965  14.390  31.448  11.090
77805W        W42966  13.277  16.148   4.180
77806W        W42967  24.064   1.356   0.920
77807W        W42968   5.290  20.228  14.571
77808W        W42969  35.489  38.767   3.926
77809W        W42970  40.146  19.456   2.876
77810W        W42971  38.536   1.506  12.074
77811W        W42972  31.381  37.703  12.516
77812W        W42973  12.570  33.610  11.686
77813W        W42974  16.807  27.475   4.643
77814W        W42975  27.210   2.396  12.049
77815W        W42976  10.281   1.971  14.973
77816W        W42977  13.881  31.685  12.168
77817W        W42978  32.542  17.833   1.625
77818W        W42979   2.282  29.611   0.430
77819W        W42980   7.481  25.635  14.320
77820W        W42981   6.347  44.213   1.797
77821W        W42982  34.140  21.784   4.128
77822W        W42983  25.161  10.330   0.369
77823W        W42984  28.034  16.089   3.293
77824W        W42985  34.629   9.350   2.683
77825W        W42986  23.317  43.049   0.118
77826W        W42987   8.741  32.453   3.283
77827W        W42988   2.634  38.502   3.407
77828W        W42989  31.105  30.718   0.780
77829W        W42990  22.036  19.307  14.792
77830W        W42991   6.896   2.796   0.587
77831W        W42992   0.556  16.759  14.027
77832W        W42993  12.878   1.303  11.617
77833W        W42994  25.692  33.114   2.741
77834W        W42995   1.815   5.205   2.833
77835W        W42996  32.774  42.580  14.579
77836W        W42997  30.112  13.647  12.654
77837W        W42998  36.904  27.082  10.328
77838W        W42999   0.614  21.646  14.765
77839W        W43000  22.737  42.711  10.676
77840W        W43001  23.519   1.987  14.902
77841W        W43002  34.761  25.721   2.428
77842W        W43003  37.581  15.596   2.949
77843W        W43004  42.807   7.360  14.272
77844W        W43005  43.702  35.427   1.030
77845W        W43006  15.077  25.242  12.057
77846W        W43007  11.681   9.168   1.685
77847W        W43008   4.706  30.280   3.705
77848W        W43009  32.166  15.340   5.094
77849W        W43010  38.950   1.071   4.635
77850W        W43011  29.328  24.139  10.342
77851W        W43012  20.116  29.142   4.656
77852W        W43013   0.284  30.173  13.804
77853W        W43014  18.354  26.047  14.747
77854W        W43015  20.462  11.208   1.330
77855W        W43016  42.389  20.157  13.748
77856W        W43017   3.849   4.321   0.492
77857W        W43018  39.484  10.428  14.038
77858W        W43019  25.197   9.789  11.175
77859W        W43020  13.282  29.145  11.484
77860W        W43021  21.524  16.958  10.194
77861W        W43022  35.371  31.108   3.878
77862W        W43023  44.558  29.183  13.987
77863W        W43024  39.859  13.355   2.848
77864W        W43025  26.378  15.372   0.798
77865W        W43026  10.099   4.619   2.305
77866W        W43027  33.420  44.484  12.456
77867W        W43028  23.478   2.992   1.040
77868W        W43029  35.664   0.078   1.897
77869W        W43030  32.267  22.631  13.801
77870W        W43031   1.154   3.898   4.717
77871W        W43032  32.449  35.094  12.346
77872W        W43033  20.542  35.327  10.702
77873W        W43034   6.731   8.122   4.200
77874W        W43035  12.305   4.382  11.123
77875W        W43036   2.287  13.099  12.453
77876W        W43037  16.350  28.049   4.183
77877W        W43038  42.095  39.387  14.974
77878W        W43039   2.714  10.345   0.381
77879W        W43040  39.829  44.508   1.751
77880W        W43041  13.753  30.005  12.420
77881W        W43042  38.228   0.520   1.698
77882W        W43043  29.898   3.540   1.368
77883W        W43044  23.589  24.862  13.847
77884W        W43045  40.664   5.755   0.519
77885W        W43046   6.791  20.642   2.943
77886W        W43047  41.159  10.919   3.510
77887W        W43048  25.490   0.476   2.124
77888W        W43049  20.167  28.674  10.425
77889W        W43050  41.818  44.193  12.466
77890W        W43051  32.893  14.247  14.789
77891W        W43052  27.139   0.096   0.988
77892W        W43053  33.442  44.471  13.659
77893W        W43054  22.716  28.170  14.009
77894W        W43055   6.490  31.574  12.926
77895W        W43056   4.715  33.358  13.828
77896W        W43057  16.727   4.657   1.945
77897W        W43058   7.479  22.937   2.178
77898W        W43059  27.600  12.395  12.613
77899W        W43060  22.820   8.296   4.194
77900W        W43061  26.333  15.169  13.983
77901W        W43062  17.850  25.771  12.444
77902W        W43063  14.106  39.238  10.711
77903W        W43064  37.922  25.179  11.920
77904W        W43065   7.986  19.254  13.382
77905W        W43066  20.759  20.302   0.788
77906W        W43067  13.357  18.124   3.295
77907W        W43068  29.984  21.695  13.517
77908W        W43069   6.811  21.977  11.892
77909W        W43070  12.839  33.996   2.766
77910W        W43071  18.907  38.471  14.523
77911W        W43072  36.785  18.553  14.123
77912W        W43073  41.592  27.071  11.846
77913W        W43074  41.612  18.561   1.796
77914W        W43075  36.854   0.659   1.963
77915W        W43076  15.604  15.283  10.102
77916W        W43077  38.559  24.202  11.239
77917W        W43078   0.845   7.118  10.805
77918W        W43079  13.352  15.577   1.748
77919W        W43080  15.806  28.194  12.495
77920W        W43081  21.093  33.668  14.913
77921W        W43082  25.697  19.960   3.999
77922W        W43083   5.049  42.442  10.113
77923W        W43084  33.339  41.455   2.334
77924W        W43085  18.583   5.466   0.662
77925W        W43086  19.942  13.673   3.741
77926W        W43087  39.153  37.407  13.809
77927W        W43088   0.339  14.493   4.892
77928W        W43089  43.427  41.560  12.084
77929W        W43090   5.831  44.844  11.153
77930W        W43091  28.302  22.953   3.988
77931W        W43092  20.450   4.686   3.974
77932W        W43093  24.990  40.553   1.907
77933W        W43094  25.297  26.536   4.676
77934W        W43095   1.509  35.600  13.740
77935W        W43096  16.194   3.396  13.059
77936W        W43097   0.012  40.971  14.050
77937W        W43098  43.968  32.651   1.763
77938W        W43099  39.023  32.252   4.206
77939W        W43100  24.829   6.660  13.114
77940W        W43101  40.298  41.025   1.692
77941W        W43102  43.524  33.416  12.375
77942W        W43103  14.873  24.531  10.705
77943W        W43104  10.665  21.182  13.137
77944W        W43105  37.825   1.496   2.195
77945W        W43106  11.443  28.127  12.226
77946W        W43107  31.672  38.795   1.007
77947W        W43108  44.438  12.750  14.263
77948W        W43109  44.265  34.351  11.996
77949W        W43110  13.839  11.883  13.952
77950W        W43111  31.476  37.610  14.759
77951W        W43112   9.349   1.213  10.896
77952W        W43113   6.314   9.896  14.854
77953W        W43114  27.177  44.431  10.717
77954W        W43115  17.759  36.721   1.814
77955W        W43116  34.892  18.333   2.068
77956W        W43117   3.812  29.654  11.504
77957W        W43118  32.796  17.233  13.592
77958W        W43119  26.024  21.147   4.787
77959W        W43120   7.396  15.493   1.297
77960W        W43121  18.089  41.459   1.973
77961W        W43122  11.299  10.615  13.535
77962W        W43123  31.830   5.950  11.860
77963W        W43124  34.893   8.177   4.611
77964W        W43125   7.170   6.617  12.892
77965W        W43126  25.589  43.265   2.289
77966W        W43127   9.126  20.463  13.487
77967W        W43128  29.556  22.812   2.340
77968W        W43129  39.556  33.196   2.256
77969W        W43130  44.440  32.481   1.882
77970W        W43131  17.346   1.268  14.816
77971W        W43132  19.080  42.459   3.888
77972W        W43133  40.783  10.811   2.117
77973W        W43134  32.614  16.634   2.896
77974W        W43135  44.995  21.238   1.371
77975W        W43136  29.396   3.843  11.328
77976W        W43137  16.755  33.505   4.056
77977W        W43138  16.328  37.492   2.182
77978W        W43139  30.858  44.927   2.912
77979W        W43140   4.914  27.720  14.812
77980W        W43141  31.584  19.166   3.506
77981W        W43142  25.119  16.104  11.723
77982W        W43143  37.054   4.435  11.576
77983W        W43144  16.682  11.358  11.679
77984W        W43145  34.614  22.997   0.252
77985W        W43146  44.304  22.693  11.576
77986W        W43147  42.791  37.167  12.464
77987W        W43148  26.177  19.121   3.183
77988W        W43149  30.437  18.246  11.002
77989W        W43150   8.729  29.536  12.491
77990W        W43151  39.604  30.584  10.728
77991W        W43152  10.381  10.229   1.137
77992W        W43153  33.559  11.658   4.150
77993W        W43154  24.676   5.130   2.322
77994W        W43155  18.927   9.088  11.119
77995W        W43156  29.975  38.333   2.451
77996W        W43157  41.851  43.984  11.171
77997W        W43158  38.930  28.507  13.775
77998W        W43159  44.927  15.693  13.764
77999W        W43160  25.275  27.657  10.684
78000W        W43161   1.598  21.742  14.979
78001W        W43162  28.051  29.933  12.478
78002W        W43163   9.129   5.123  11.869
78003W        W43164  39.704  35.106  14.975
78004W        W43165  19.811  26.792  10.455
78005W        W43166  14.039  21.350   5.044
78006W        W43167  36.805  28.957   2.904
78007W        W43168  21.548  43.260  12.501
78008W        W43169  32.139  17.905   2.355
78009W        W43170  12.368  22.677   0.977
78010W        W43171  43.804  18.660  10.788
78011W        W43172  16.672  28.382   2.778
78012W        W43173  23.329  25.790   2.851
78013W        W43174  41.529  26.513  10.689
78014W        W43175  26.503  18.672   0.288
78015W        W43176  14.240  34.827  12.922
78016W        W43177  33.093  19.490  14.226
78017W        W43178   3.718  31.949  11.607
78018W        W43179  34.121  40.801   2.304
78019W        W43180  29.098   0.204  10.829
78020W        W43181  11.210  35.299   1.849
78021W        W43182  22.230  15.763   1.271
78022W        W43183  41.390  20.622   3.674
78023W        W43184  24.501   7.547   3.198
78024W        W43185  27.856  10.699   3.088
78025W        W43186  13.235  30.765  12.600
78026W        W43187   8.651  32.872   2.710
78027W        W43188  32.467   3.118  11.926
78028W        W43189  24.150  27.973  14.948
78029W        W43190  30.498   2.251  12.576
78030W        W43191   4.676  26.555   3.627
78031W        W43192  17.808   8.606   4.156
78032W        W43193  24.034  33.485  10.729
78033W        W43194   9.595   4.905  10.555
78034W        W43195  26.473  30.302   0.374
78035W        W43196  26.489  31.226   1.272
78036W        W43197  15.116  17.971  13.934
78037W        W43198   0.205  22.169  10.792
78038W        W43199  35.126  10.888   2.954
78039W        W43200   5.900  35.626  11.105
78040W        W43201  11.334   6.601  11.450
78041W        W43202  18.012  20.318   1.142
78042W        W43203  21.358  15.826  12.647
78043W        W43204  35.690   6.659  11.318
78044W        W43205   6.382  37.774   3.581
78045W        W43206  26.094  39.953   2.912
78046W        W43207  29.520  22.061   1.741
78047W        W43208  32.627   4.937   0.732
78048W        W43209  38.863  29.223  13.247
78049W        W43210  20.569  22.057  14.625
78050W        W43211  28.253  23.717  11.558
78051W        W43212  11.618  14.762   3.698
78052W        W43213  39.036  31.053  13.122
78053W        W43214  38.928  44.552  14.432
78054W        W43215   9.382   4.314  14.472
78055W        W43216  18.030  25.931  14.319
78056W        W43217   8.042  23.008  13.408
78057W        W43218  41.555   2.425  14.037
78058W        W43219  28.441  18.998  12.863
78059W        W43220  30.403  40.237   1.795
78060W        W43221  23.541   2.064   0.893
78061W        W43222  22.821   1.276  11.591
78062W        W43223   6.677  43.182  11.172
78063W        W43224   4.761  39.750  11.182
78064W        W43225  15.819  40.229  14.335
78065W        W43226  25.917  12.144  13.123
78066W        W43227  19.494  32.037   2.804
78067W        W43228  10.878  35.579   0.780
78068W        W43229  42.460  19.774  14.076
78069W        W43230  22.174  19.493   3.093
78070W        W43231  41.875   9.903  14.771
78071W        W43232  37.406  44.558   3.151
78072W        W43233  26.574  29.976  13.501
78073W        W43234  26.559   5.962  10.540
78074W        W43235   3.337   2.736  14.523
78075W        W43236   2.049  23.405  12.085
78076W        W43237  44.013  30.856  13.426
78077W        W43238  19.140   4.979   2.796
78078W        W43239   1.758  37.872   0.967
78079W        W43240  40.496   1.097  11.508
78080W        W43241  11.760  26.207   3.276
78081W        W43242  44.247  32.967  14.894
78082W        W43243  23.517  31.642   2.859
78083W        W43244  32.527  43.238  11.602
78084W        W43245  21.373  11.346   2.224
78085W        W43246   8.131  24.071  13.022
78086W        W43247  22.605  19.479   3.748
78087W        W43248  17.823  40.070   1.363
78088W        W43249  30.659   9.860  11.124
78089W        W43250  40.815   5.806  13.797
78090W        W43251  44.709  35.393  10.735
78091W        W43252  37.248  29.491   4.643
78092W        W43253  34.934  41.938  14.042
78093W        W43254  31.491  19.759  11.214
78094W        W43255  34.145  27.136   3.343
78095W        W43256   7.578   3.501  12.388
78096W        W43257  10.213  30.486   3.644
78097W        W43258  13.308  11.206  14.805
78098W        W43259  13.285  18.617   2.444
78099W        W43260  32.968   6.174  13.774
78100W        W43261  44.744   2.865   3.759
78101W        W43262  32.392  41.611  11.260
78102W        W43263  25.908  40.934  11.599
78103W        W43264   4.685  40.300   3.313
78104W        W43265  44.838  17.257  11.911
78105W        W43266  26.415  19.681   1.299
78106W        W43267  26.021  13.536  11.564
78107W        W43268  17.037  20.562  13.908
78108W        W43269  38.729  30.454  10.267
78109W        W43270  23.411   5.387  13.901
78110W        W43271  12.232  12.405  12.949
78111W        W43272  12.388  44.037  14.265
78112W        W43273  38.745  32.081   1.973
78113W        W43274  13.582   2.711  11.118
78114W        W43275  10.716   8.819  11.675
78115W        W43276  35.538  35.705   1.722
78116W        W43277  17.013  35.422   1.239
78117W        W43278  19.455  41.399  14.101
78118W        W43279  14.186  25.482   1.392
78119W        W43280  21.647  19.664  13.377
78120W        W43281  11.258   0.268  10.710
78121W        W43282  10.056  11.662   2.706
78122W        W43283   6.250  37.299   4.648
78123W        W43284  32.928   1.623   0.758
78124W        W43285  38.938  43.353  12.116
78125W        W43286  14.793   2.682  12.979
78126W        W43287   2.724  31.977  13.448
78127W        W43288  18.486  34.281  13.531
78128W        W43289  20.190  38.358   0.218
78129W        W43290   9.176  19.184   0.733
78130W        W43291  38.906  34.104  11.994
78131W        W43292  32.586  19.612  14.702
78132W        W43293   8.545  29.038  12.473
78133W        W43294  29.066   2.836  13.939
78134W        W43295  22.545  33.841  11.029
78135W        W43296  36.317   4.482  14.223
78136W        W43297  25.360   7.289   3.524
78137W        W43298  28.817   5.710  14.467
78138W        W43299  16.696   6.145   1.709
78139W        W43300   7.639  12.591   0.443
78140W        W43301  15.392  33.904   2.868
78141W        W43302   2.401  23.474  13.084
78142W        W43303  12.844  14.366   2.388
78143W        W43304   3.669  11.685   0.787
78144W        W43305  19.769  11.390  13.942
78145W        W43306  20.156  42.922   0.060
78146W        W43307   8.823  22.722  13.467
78147W        W43308   1.971  35.557   4.586
78148W        W43309   7.883   7.363   0.448
78149W        W43310  20.564  27.497   1.701
78150W        W43311  38.406  41.758  13.402
78151W        W43312  32.413  24.933   4.471
78152W        W43313  41.949  18.577   3.365
78153W        W43314  23.111  39.831  14.142
78154W        W43315  28.369  33.580  10.536
78155W        W43316  12.827  35.462   3.091
78156W        W43317   7.928  16.838   0.983
78157W        W43318  31.179   2.139   3.259
78158W        W43319  21.525  30.946   2.078
78159W        W43320  34.260  19.546   1.782
78160W        W43321  14.371   1.052  11.469
78161W        W43322   3.947  17.895  14.630
78162W        W43323  13.872  10.793   2.228
78163W        W43324  11.257  20.600  10.598
78164W        W43325  18.855   6.217   0.170
78165W        W43326   3.306  15.245   0.969
78166W        W43327  29.025  38.283   3.827
78167W        W43328   1.499  44.208   3.101
78168W        W43329  31.365  23.128  11.977
78169W        W43330  26.611  36.167   2.802
78170W        W43331  37.862  14.219  12.043
78171W        W43332  44.278  20.285   2.128
78172W        W43333   0.332  34.076   2.354
78173W        W43334  39.720  10.838   0.158
78174W        W43335   1.877  22.542  13.418
78175W        W43336  15.242  22.535  11.477
78176W        W43337  42.817  10.656  13.817
78177W        W43338  21.129  39.368   4.018
78178W        W43339  11.653  29.179  12.464
78179W        W43340  21.630  19.656   1.691
78180W        W43341   2.235  44.502  11.964
78181W        W43342  34.365  26.256   3.137
78182W        W43343   3.942  14.752   2.401
78183W        W43344  11.343  44.908  14.369
78184W        W43345  12.670  26.705   3.165
78185W        W43346  40.850   5.020  11.094
78186W        W43347   2.526   5.375   3.762
78187W        W43348  44.741  15.234  13.957
78188W        W43349  23.403  16.498  11.095
78189W        W43350  14.076  18.040   0.890
78190W        W43351  25.039  24.424   0.483
78191W        W43352  20.358  21.974   4.207
78192W        W43353  18.039  42.524   2.692
78193W        W43354   0.747  30.551  11.118
78194W        W43355  17.708  13.825  10.513
78195W        W43356  15.266  13.751  12.091
78196W        W43357  29.638   0.005  13.095
78197W        W43358  21.485  37.636  12.412
78198W        W43359  12.695  10.628   1.330
78199W        W43360  44.464   5.021  11.707
78200W        W43361  42.107  43.771   2.393
78201W        W43362   3.929  16.510  13.402
78202W        W43363  16.354  42.795  13.902
78203W        W43364  24.254  26.967   0.829
78204W        W43365  32.524  36.821  13.810
78205W        W43366  40.792  30.628   1.702
78206W        W43367   5.173  32.605   2.316
78207W        W43368  11.305  10.939   3.836
78208W        W43369  14.661  21.942   1.149
78209W        W43370  32.001  32.724  12.470
78210W        W43371  36.809   5.967  14.293
78211W        W43372  35.261  27.523  12.546
78212W        W43373  29.032  33.393  11.772
78213W        W43374  20.582  13.679  10.630
78214W        W43375   3.840  12.836  11.701
78215W        W43376  27.497  21.667  10.602
78216W        W43377  30.966  23.082  13.784
78217W        W43378  15.824  31.392  12.514
78218W        W43379  19.679  21.165  13.367
78219W        W43380  41.035  24.173   4.744
78220W        W43381  23.465  34.389  11.138
78221W        W43382  18.125  33.276   1.287
78222W        W43383  27.134  28.011  11.930
78223W        W43384  29.797  10.951   3.208
78224W        W43385  19.526  10.101  10.629
78225W        W43386  25.642  38.850  10.307
78226W        W43387  41.995  38.989  10.635
78227W        W43388  12.848  23.139  13.841
78228W        W43389  37.892  28.946  12.912
78229W        W43390  32.167  22.599   9.870
78230W        W43391   7.851  34.138   3.911
78231W        W43392  16.754  41.329  12.036
78232W        W43393   7.823   4.997  13.895
78233W        W43394  10.714  35.651  14.016
78234W        W43395  44.386   5.210   4.094
78235W        W43396   9.838   9.262   4.130
78236W        W43397  40.073   5.379  13.520
78237W        W43398  32.665  12.115  14.387
78238W        W43399  31.652  19.225  12.900
78239W        W43400  40.888  20.212  11.637
78240W        W43401  27.802  44.201  13.405
78241W        W43402  32.300  19.776   3.126
78242W        W43403  17.121  15.046  14.934
78243W        W43404   4.455  16.778   0.494
78244W        W43405  36.573  39.348  10.727
78245W        W43406  19.424  40.484  13.085
78246W        W43407  43.365  19.099   2.353
78247W        W43408  43.855  28.849   3.673
78248W        W43409  28.865  21.620   3.433
78249W        W43410  13.764   9.638   2.784
78250W        W43411  16.811  26.024   3.252
78251W        W43412  38.892  41.154   3.247
78252W        W43413   8.201  25.587   4.442
78253W        W43414   8.280  15.099  12.443
78254W        W43415  39.316  38.083   0.780
78255W        W43416   5.876  24.082  13.700
78256W        W43417  15.592  36.008  12.685
78257W        W43418  13.618   0.001   2.355
78258W        W43419  43.757  35.095   5.507
78259W        W43420  28.039  37.829   3.713
78260W        W43421   6.816  12.266   4.585
78261W        W43422  44.952  26.092  12.372
78262W        W43423   1.123  11.682   4.936
78263W        W43424  15.151  12.105   0.053
78264W        W43425  13.187  27.081   2.782
78265W        W43426  24.298  15.306   4.097
78266W        W43427  40.602  13.782  12.516
78267W        W43428  27.946  27.806  11.103
78268W        W43429   2.013  41.977   3.353
78269W        W43430  29.667  18.813   0.384
78270W        W43431   6.376  12.614  10.322
78271W        W43432   3.757  20.958  10.543
78272W        W43433   6.486  12.276  13.327
78273W        W43434   1.873  20.140  12.005
78274W        W43435  39.975  20.961   1.902
78275W        W43436  18.458  14.566   3.292
78276W        W43437  32.564   4.131  14.871
78277W        W43438  42.422   8.072  11.738
78278W        W43439  39.288  29.597   0.185
78279W        W43440   0.720  43.393  14.837
78280W        W43441  25.891  43.906  14.244
78281W        W43442   0.515  21.433  13.528
78282W        W43443  14.311  41.521  11.916
78283W        W43444  23.409  29.662  13.797
78284W        W43445  26.214  19.089  14.445
78285W        W43446   9.632  41.491  14.810
78286W        W43447   3.138  28.359   0.632
78287W        W43448  44.271   5.897  12.223
78288W        W43449  39.548   5.674   2.935
78289W        W43450  15.785  15.077  14.432
78290W        W43451   6.464  30.258  14.489
78291W        W43452  23.544   3.435   2.193
78292W        W43453  17.249  41.146   1.102
78293W        W43454  29.929  32.688  14.103
78294W        W43455  19.226  27.979   4.753
78295W        W43456  35.662  33.492   2.666
78296W        W43457  16.646  28.525   0.965
78297W        W43458   0.182  36.276  12.907
78298W        W43459  39.667  19.728   3.666
78299W        W43460  13.089  40.718   3.509
78300W        W43461  34.592   8.783   1.433
78301W        W43462  35.871  44.414  13.903
78302W        W43463   6.351   0.939   4.592
78303W        W43464  11.092  18.686  14.027
78304W        W43465  31.158  31.701   4.190
78305W        W43466  25.089  44.435   3.328
78306W        W43467  13.724  17.125   0.974
78307W        W43468  41.560   6.730  13.090
78308W        W43469  26.741  28.727  10.704
78309W        W43470  32.107  29.162   3.715
78310W        W43471   4.040  23.608  14.688
78311W        W43472  12.353  21.663  14.438
78312W        W43473  22.427  16.646   2.232
78313W        W43474  24.085  21.168   4.897
78314W        W43475  38.271  34.064   0.379
78315W        W43476  21.425   9.623  10.623
78316W        W43477  39.268  26.882   4.840
78317W        W43478  15.118  22.055   0.501
78318W        W43479   4.391  27.164  13.493
78319W        W43480  31.487  37.132   0.797
78320W        W43481  34.567  14.240  11.618
78321W        W43482  37.749  18.687   0.774
78322W        W43483  17.574  27.522   3.254
78323W        W43484  10.814  31.181   1.511
78324W        W43485  21.713  40.878   1.620
78325W        W43486   5.830  30.120  11.262
78326W        W43487   9.580  40.963   2.943
78327W        W43488  29.956  40.318   3.720
78328W        W43489   8.235   3.794  13.321
78329W        W43490  15.574   7.096   0.239
78330W        W43491  36.761  10.794   3.985
78331W        W43492  20.833   7.765  12.093
78332W        W43493  25.434   4.269   0.315
78333W        W43494  21.472   8.399   3.212
78334W        W43495  19.092  30.677  10.279
78335W        W43496   4.354   8.700   4.365
78336W        W43497  42.838  35.116   4.443
78337W        W43498  10.275  35.867   4.698
78338W        W43499   5.920  41.291  14.963
78339W        W43500  21.841   7.800  14.985
78340W        W43501   3.661  44.413  13.789
78341W        W43502   6.087  23.264   0.590
78342W        W43503  39.048  32.603  14.917
78343W        W43504  29.419  42.946   1.257
78344W        W43505  21.445  12.424  13.475
78345W        W43506  40.388  10.374  13.106
78346W        W43507   9.932  13.805  14.047
78347W        W43508  28.948  15.974   3.256
78348W        W43509  14.840  16.261  13.048
78349W        W43510   0.953  42.445   4.077
78350W        W43511   7.355  14.826   0.938
78351W        W43512  20.033  34.449   3.297
78352W        W43513   1.855  20.143  10.686
78353W        W43514  33.871  29.846  11.609
78354W        W43515  17.600  19.572   2.389
78355W        W43516  33.645  30.153  11.086
78356W        W43517  10.236  44.512  11.153
78357W        W43518  14.986  43.723  12.031
78358W        W43519  24.616   5.773  10.439
78359W        W43520  43.972  42.095  11.062
78360W        W43521  14.666   4.782   2.308
78361W        W43522  26.930   9.074   0.246
78362W        W43523  28.991  10.732   0.979
78363W        W43524  41.814  10.883   2.874
78364W        W43525  16.264   5.446   1.387
78365W        W43526   5.142  13.790  11.647
78366W        W43527  38.084  37.959  12.004
78367W        W43528  32.374   3.795   5.115
78368W        W43529  40.896   3.465   3.765
78369W        W43530  38.649  19.929   2.235
78370W        W43531  18.354   5.633   4.113
78371W        W43532  13.599   8.771   2.616
78372W        W43533   6.624   9.281  14.371
78373W        W43534  10.382  31.320  12.043
78374W        W43535  41.808  21.200   2.895
78375W        W43536   6.788  38.513  13.880
78376W        W43537   7.362  32.898   3.620
78377W        W43538  24.464   4.062   0.590
78378W        W43539   0.287  17.287  12.529
78379W        W43540  28.348  44.543  14.504
78380W        W43541   2.776   6.776  11.584
78381W        W43542  33.928   5.734   0.299
78382W        W43543  42.547   5.485  10.563
78383W        W43544  33.977  34.601  13.873
78384W        W43545  36.110  40.535   1.372
78385W        W43546  36.926  44.271  14.567
78386W        W43547  16.144  16.307  10.757
78387W        W43548  31.982  36.488   4.136
78388W        W43549  22.701  29.172  13.875
78389W        W43550  32.973  21.743  13.825
78390W        W43551   9.301  19.215  12.807
78391W        W43552   9.630   3.732   1.632
78392W        W43553  23.049  11.184   4.603
78393W        W43554  10.896  10.853   0.844
78394W        W43555   9.755  33.005  11.197
78395W        W43556  15.934  37.919  10.277
78396W        W43557  37.510  29.620  14.440
78397W        W43558  24.503  41.274  13.565
78398W        W43559  33.102   6.882  12.524
78399W        W43560  34.523  29.878  14.437
78400W        W43561  39.282  22.576  12.370
78401W        W43562  19.210  26.482   4.514
78402W        W43563  23.939  34.861   4.571
78403W        W43564   3.881   9.231   2.795
78404W        W43565   6.362  10.536  13.281
78405W        W43566  31.465  30.766  13.556
78406W        W43567  39.824  41.128   4.407
78407W        W43568   0.977  11.898   2.719
78408W        W43569   6.733   7.155   3.404
78409W        W43570  15.752  40.668   0.514
78410W        W43571   5.382  15.402  10.415
78411W        W43572  17.308  34.998   1.369
78412W        W43573  36.158   7.817  14.944
78413W        W43574  22.721  16.663  14.491
78414W        W43575   4.965  22.100   4.644
78415W        W43576   9.908  27.977  14.279
78416W        W43577  34.073  28.400  11.507
78417W        W43578  33.004   8.295  10.721
78418W        W43579  17.412  14.494   4.496
78419W        W43580  10.014  33.627  13.365
78420W        W43581  34.388   6.315  14.760
78421W        W43582  36.161  38.814   3.238
78422W        W43583   1.796   8.483   1.785
78423W        W43584  19.863   1.051  14.394
78424W        W43585  30.440   7.038  10.934
78425W        W43586   8.284  22.216   4.361
78426W        W43587   8.586  17.186  13.508
78427W        W43588  13.712  44.744  13.290
78428W        W43589  39.293  31.936  14.526
78429W        W43590  21.383  28.670  13.596
78430W        W43591  16.135  12.722   0.899
78431W        W43592   9.498  26.724   2.809
78432W        W43593  11.006  41.613   3.729
78433W        W43594  18.092  15.358   0.733
78434W        W43595   0.861  31.809   0.373
78435W        W43596  10.636  26.478   1.097
78436W        W43597  40.055   1.254  12.055
78437W        W43598  13.889   7.846  14.929
78438W        W43599  23.046  22.731   3.704
78439W        W43600  44.999  21.493  12.530
78440W        W43601  17.573   5.212  11.138
78441W        W43602  35.626  39.005  14.540
78442W        W43603  42.876  42.597  13.968
78443W        W43604   5.040  30.539  13.676
78444W        W43605  28.400   8.681   4.601
78445W        W43606  37.659  20.937   2.362
78446W        W43607  14.899  32.985  14.988
78447W        W43608   6.448  31.862  13.352
78448W        W43609  26.289  36.264   2.243
78449W        W43610  15.305  39.381   0.709
78450W        W43611  37.546  28.426  13.597
78451W        W43612  22.103  20.863   2.826
78452W        W43613  17.115  31.500   3.778
78453W        W43614  44.002  28.453  14.061
78454W        W43615  20.176  22.028  12.949
78455W        W43616  24.316  34.466  12.505
78456W        W43617  30.938   1.307  10.572
78457W        W43618  16.650  38.943  10.345
78458W        W43619  26.956   8.366   2.938
78459W        W43620   0.915  33.879   4.685
78460W        W43621   8.438  11.289   4.895
78461W        W43622   8.707  40.443   5.201
78462W        W43623  23.084  36.343  14.445
78463W        W43624  37.092  10.081   1.384
78464W        W43625  25.278  32.403  12.129
78465W        W43626  15.074  28.404  11.606
78466W        W43627  37.106  36.712  12.471
78467W        W43628   2.849  39.989  11.955
78468W        W43629  36.783  10.090   2.303
78469W        W43630  43.508   2.531  14.206
78470W        W43631  26.507   9.914   3.744
78471W        W43632   3.143  41.615  14.377
78472W        W43633  25.325   3.087  14.136
78473W        W43634  40.342   7.564  10.845
78474W        W43635  34.422   1.921  12.252
78475W        W43636  30.722  20.697  12.924
78476W        W43637  18.497  32.121   2.619
78477W        W43638  32.805   9.879   1.857
78478W        W43639  35.642  29.498   3.079
78479W        W43640   4.214   9.824  14.014
78480W        W43641   9.689  35.346  14.934
78481W        W43642   4.815   7.372   2.839
78482W        W43643  16.201  22.938   3.167
78483W        W43644   8.223  31.109  12.934
78484W        W43645  37.538  41.196  13.843
78485W        W43646  18.367  19.933   0.666
78486W        W43647   0.256  16.336   3.826
78487W        W43648  30.864  22.032   5.123
78488W        W43649  37.004  36.895   3.816
78489W        W43650   2.915  42.194   3.405
78490W        W43651  39.124   8.319   1.723
78491W        W43652  12.519  13.702  14.896
78492W        W43653  10.922   0.562  10.997
78493W        W43654   6.916  28.958  11.949
78494W        W43655  15.947  26.454  12.987
78495W        W43656  27.933  44.843   4.687
78496W        W43657  15.376  42.669  11.090
78497W        W43658  24.213   5.884   3.627
78498W        W43659   8.840  13.775  13.598
78499W        W43660  19.551   6.912  10.621
78500W        W43661  38.508   9.411  11.249
78501W        W43662   1.388  33.824  12.040
78502W        W43663   0.696  24.295  11.010
78503W        W43664  17.963   4.483  11.323
78504W        W43665  41.508  13.627  12.917
78505W        W43666  10.838   2.424   2.813
78506W        W43667  10.809  19.671   0.906
78507W        W43668  40.523  43.548   2.011
78508W        W43669  31.069  20.796  11.277
78509W        W43670   9.257  23.993  13.880
78510W        W43671  29.191   3.184   4.060
78511W        W43672  28.664   9.943  12.812
78512W        W43673  34.331  15.569   4.498
78513W        W43674  30.514  33.180  13.048
78514W        W43675  23.134  39.742   1.030
78515W        W43676  43.759  26.769  13.090
78516W        W43677   1.293  33.553   1.383
78517W        W43678  35.907  39.207  13.940
78518W        W43679  29.191  28.213   5.129
78519W        W43680  33.300  33.672  10.976
78520W        W43681   1.410  10.045   0.313
78521W        W43682  30.913  35.563  12.981
78522W        W43683  24.120  27.159  14.502
78523W        W43684  17.562  25.362   3.979
78524W        W43685  14.708  15.152  14.052
78525W        W43686  33.157  22.800   9.788
78526W        W43687  36.564  35.196  11.181
78527W        W43688  13.492  25.257   0.312
78528W        W43689  25.935  39.202  11.569
78529W        W43690  40.022  20.516  10.874
78530W        W43691  21.713  39.036   0.356
78531W        W43692   6.823  21.452  12.473
78532W        W43693   3.273  35.958   4.040
78533W        W43694  15.764   4.086   4.214
78534W        W43695  30.863  30.446   4.105
78535W        W43696  25.705  29.091  11.148
78536W        W43697  21.425  22.405  14.141
78537W        W43698  43.234  23.271   2.479
78538W        W43699  44.101   5.657   3.293
78539W        W43700  16.288  25.471   0.432
78540W        W43701  37.086  13.795  11.174
78541W        W43702  28.262  18.219  14.349
78542W        W43703  44.218  22.600   1.249
78543W        W43704  29.004  37.460   4.512
78544W        W43705  21.446  40.199  13.010
78545W        W43706  42.287  43.423  11.600
78546W        W43707  33.308  19.899  12.642
78547W        W43708  15.110  25.689  14.985
78548W        W43709  17.697  10.911   3.191
78549W        W43710  25.219   2.095  10.716
78550W        W43711  26.592  31.683   0.951
78551W        W43712   8.865   1.308  12.355
78552W        W43713  22.722  11.346   2.653
78553W        W43714   5.000  20.963   1.361
78554W        W43715  39.926   9.337   3.080
78555W        W43716  37.572   3.297   3.352
78556W        W43717  39.521   0.293  11.143
78557W        W43718  43.497  22.715   2.765
78558W        W43719  22.047  43.840  13.382
78559W        W43720  26.841  20.516  13.983
78560W        W43721  39.809  42.886  14.863
78561W        W43722  16.695   8.723   3.103
78562W        W43723   9.547  20.104   0.372
78563W        W43724  11.397   5.163   2.283
78564W        W43725  42.509  30.994  10.443
78565W        W43726   6.738  41.929  14.955
78566W        W43727  10.207   7.929  14.368
78567W        W43728  19.024  43.471   2.242
78568W        W43729  13.902   2.309   0.145
78569W        W43730  39.004  31.758  10.220
78570W        W43731  28.986  26.557  10.206
78571W        W43732  19.226  42.996   5.218
78572W        W43733   7.631   3.475   2.329
78573W        W43734  13.800  35.948   1.501
78574W        W43735  17.655  17.715  11.427
78575W        W43736  32.013  22.670   3.274
78576W        W43737   1.320  40.981   1.421
78577W        W43738  20.946  43.646   5.039
78578W        W43739   3.706  35.940  11.622
78579W        W43740  30.426   7.800   1.935
78580W        W43741  10.816  30.975   2.009
78581W        W43742  13.747  15.661  11.731
78582W        W43743  42.388   8.793   1.715
78583W        W43744  21.084   3.023  13.443
78584W        W43745  21.294   4.459  14.957
78585W        W43746  44.974  30.888   0.402
78586W        W43747   7.520   2.994  11.240
78587W        W43748  18.910  21.766   2.027
78588W        W43749   4.664  24.958   0.417
78589W        W43750  43.364  18.689   4.663
78590W        W43751  33.858  26.074   0.812
78591W        W43752  16.915  32.320  10.690
78592W        W43753  42.349  11.464   1.966
78593W        W43754  10.300  16.680  13.385
78594W        W43755  44.377  28.134  13.843
78595W        W43756  27.584  16.823  13.337
78596W        W43757  15.100  15.220  13.715
78597W        W43758   1.516  32.969  12.345
78598W        W43759   4.276  13.693   4.531
78599W        W43760   5.483   4.402  13.824
78600W        W43761  25.657  26.221   3.663
78601W        W43762  10.398   3.802  13.512
78602W        W43763  11.811  22.964   4.321
78603W        W43764   5.691   3.943  11.021
78604W        W43765  38.810  14.303  14.721
78605W        W43766  35.830   8.428  12.901
78606W        W43767  42.326  21.695   1.667
78607W        W43768  32.796  44.909   1.900
78608W        W43769  37.478  15.544  13.127
78609W        W43770  13.878  13.573   3.355
78610W        W43771   4.027   5.824   1.378
78611W        W43772  41.153  29.223   1.703
78612W        W43773  29.398   3.152   0.856
78613W        W43774   3.261  30.573  10.512
78614W        W43775   8.827  24.238  11.183
78615W        W43776  43.977  24.476   3.325
78616W        W43777   9.627  15.705  13.636
78617W        W43778   6.967   1.791   4.636
78618W        W43779  34.063  24.648  14.351
78619W        W43780  38.380   1.976  13.934
78620W        W43781  23.136  31.904   3.429
78621W        W43782  37.489  27.332  12.390
78622W        W43783  41.570  37.343   0.431
78623W        W43784  35.806   4.420  11.518
78624W        W43785  12.413  16.483   4.577
78625W        W43786  15.734  32.401   3.290
78626W        W43787  34.622  31.572   3.798
78627W        W43788  39.527  25.379  13.479
78628W        W43789  36.579  37.039  14.261
78629W        W43790  18.611  16.836  12.646
78630W        W43791  30.121  24.453  12.584
78631W        W43792   3.407  20.957  11.571
78632W        W43793  33.000  33.350   0.120
78633W        W43794  31.207  27.313  10.795
78634W        W43795  26.943  42.480  10.848
78635W        W43796  43.293  22.149  11.336
78636W        W43797  35.245  21.413   3.271
78637W        W43798  41.335  33.619   1.070
78638W        W43799  32.674  26.600  14.719
78639W        W43800  33.599   8.881  14.519
78640W        W43801   2.389   8.618   9.636
78641W        W43802  22.151  12.857  13.530
78642W        W43803  16.652  35.104  13.311
78643W        W43804  20.820   2.806  12.553
78644W        W43805  10.611  37.303   2.285
78645W        W43806   3.835  39.613  13.429
78646W        W43807   9.303  35.102  13.839
78647W        W43808  17.520   8.196  12.102
78648W        W43809  24.407   0.393  13.124
78649W        W43810   2.269   1.824  13.445
78650W        W43811   9.757  42.717   3.202
78651W        W43812  16.327   6.032  14.595
78652W        W43813  21.318  28.231  14.299
78653W        W43814  28.601  31.507  14.288
78654W        W43815  26.219  40.257  14.622
78655W        W43816  25.496  10.179   3.178
78656W        W43817  38.473  30.336  14.975
78657W        W43818   6.686  43.365  10.681
78658W        W43819  34.470  16.304  11.638
78659W        W43820  31.631  35.124   1.008
78660W        W43821  25.517  16.636  11.473
78661W        W43822  18.731  24.492  13.391
78662W        W43823   7.953  11.442   2.177
78663W        W43824  19.973   8.405  14.455
78664W        W43825   7.340  37.111  13.590
78665W        W43826  29.027   1.443  12.470
78666W        W43827  37.327  11.100  10.275
78667W        W43828  31.130  30.546  13.933
78668W        W43829  42.891  21.232   0.030
78669W        W43830  22.467   4.015  11.048
78670W        W43831   9.197  40.016   4.243
78671W        W43832  36.829   2.713  12.406
78672W        W43833   8.331   6.346   4.111
78673W        W43834  16.449  44.072  10.677
78674W        W43835   7.269  17.014  13.192
78675W        W43836   2.400  44.276   2.827
78676W        W43837  23.746  38.933   9.912
78677W        W43838  10.217  25.281  12.069
78678W        W43839  10.733   9.160  12.064
78679W        W43840  31.514  10.255   4.810
78680W        W43841  14.309   6.430  12.274
78681W        W43842   0.595  27.018   3.404
78682W        W43843  24.026  20.642   4.109
78683W        W43844  27.747  40.048   1.369
78684W        W43845  44.769  32.858  12.419
78685W        W43846  18.833  30.751  14.241
78686W        W43847  26.167  21.710  13.996
78687W        W43848   8.315  30.158  11.986
78688W        W43849  38.375  29.937  13.297
78689W        W43850  42.448  41.004  11.981
78690W        W43851   2.879  37.129   2.295
78691W        W43852   3.059  21.421  14.818
78692W        W43853   2.773  44.153   2.144
78693W        W43854  23.693  11.277   2.061
78694W        W43855   8.826  36.706  14.356
78695W        W43856   7.125  12.519  12.088
78696W        W43857  27.552   5.211   3.643
78697W        W43858  19.556  37.651  14.300
78698W        W43859   8.095  34.840  10.435
78699W        W43860  16.630  28.246   2.219
78700W        W43861   7.368   6.714  11.976
78701W        W43862  42.989  34.020   2.418
78702W        W43863  12.316   8.787   4.313
78703W        W43864  12.984  29.522  11.284
78704W        W43865  42.016   9.702  10.683
78705W        W43866  31.760  40.618   3.177
78706W        W43867   0.910   0.180  14.520
78707W        W43868   7.177  25.123   5.096
78708W        W43869  37.840  20.758  13.000
78709W        W43870  29.982  13.385  14.432
78710W        W43871  14.632  16.438   3.789
78711W        W43872   7.169  40.968   3.367
78712W        W43873  42.238  41.896  13.447
78713W        W43874  17.599  31.439  14.011
78714W        W43875   6.691   5.695   2.419
78715W        W43876  42.211  21.417   1.231
78716W        W43877   2.746  10.070   3.269
78717W        W43878  13.691  11.619   0.358
78718W        W43879  15.426   7.976  13.514
78719W        W43880   6.783  11.273  12.445
78720W        W43881   8.621  36.850   1.450
78721W        W43882  10.716  37.300  14.072
78722W        W43883   6.750  31.268  11.032
78723W        W43884  38.013  20.538   2.814
78724W        W43885  40.918   1.011   1.377
78725W        W43886  24.023  33.799   5.065
78726W        W43887  41.308   4.732   2.303
78727W        W43888   3.513  38.394  12.082
78728W        W43889  24.224  28.592  11.615
78729W        W43890   6.343  36.988   0.866
78730W        W43891  23.442  36.455   3.600
78731W        W43892  17.073  23.044   0.424
78732W        W43893  43.384  42.248   2.618
78733W        W43894   5.699  35.778  12.713
78734W        W43895  23.037  28.042  12.932
78735W        W43896   5.675  27.839   0.565
78736W        W43897  34.980  44.510  14.004
78737W        W43898  13.823  35.340   4.760
78738W        W43899  32.800  32.520   4.848
78739W        W43900   7.309  35.968  14.788
78740W        W43901  43.434   2.341   2.279
78741W        W43902  20.003   2.390   1.772
78742W        W43903  19.614  33.135  12.958
78743W        W43904   2.340   1.019   2.251
78744W        W43905  14.593  29.528  13.283
78745W        W43906  11.308  18.296   4.221
78746W        W43907  18.921   1.087   0.957
78747W        W43908  10.207  25.430  12.717
78748W        W43909  19.225  22.748  12.814
78749W        W43910  42.855   9.201  10.705
78750W        W43911  33.045  30.468   2.352
78751W        W43912   2.527  19.114  14.913
78752W        W43913   9.439  20.463   4.824
78753W        W43914  11.275  32.094  10.922
78754W        W43915  37.760  34.077   0.463
78755W        W43916  24.316  36.553   3.467
78756W        W43917  42.662  35.035  11.326
78757W        W43918  42.713  18.763   3.790
78758W        W43919  27.191  24.711  13.435
78759W        W43920  32.184  25.691  12.223
78760W        W43921  40.173  16.711  14.268
78761W        W43922  25.074  20.930   1.103
78762W        W43923  11.408  28.679  12.399
78763W        W43924  25.951  34.379   1.307
78764W        W43925   3.374  31.359   1.354
78765W        W43926  44.043  16.406   3.568
78766W        W43927   2.284  28.163  13.057
78767W        W43928   9.258  41.432  10.774
78768W        W43929  15.484  38.936  13.949
78769W        W43930  35.424  10.473   0.412
78770W        W43931  30.979  41.689  12.155
78771W        W43932   7.545  23.227   1.746
78772W        W43933  33.353  33.615   0.432
78773W        W43934  43.697  20.834   3.797
78774W        W43935  40.667  32.065   9.955
78775W        W43936  14.798  27.899  13.375
78776W        W43937  41.360  38.903  13.934
78777W        W43938   2.886  18.003   0.333
78778W        W43939  27.259  35.410  11.201
78779W        W43940  26.147  12.686   4.620
78780W        W43941  28.243   2.764  12.491
78781W        W43942  17.992  37.002  13.719
78782W        W43943  18.720  28.229   1.257
78783W        W43944  32.438  14.690  14.003
78784W        W43945  13.009  17.972   1.906
78785W        W43946  19.476  21.265   3.600
78786W        W43947  40.927  34.619  12.871
78787W        W43948  28.914  29.491  11.459
78788W        W43949  10.595  26.977  14.557
78789W        W43950  31.992  20.488  11.459
78790W        W43951  43.770   6.824   0.296
78791W        W43952  10.909  36.451   0.252
78792W        W43953   3.445  20.026  13.052
78793W        W43954  31.015  41.093  11.009
78794W        W43955   1.953  19.323  14.012
78795W        W43956  40.178  41.783  11.008
78796W        W43957  42.401   4.780   3.300
78797W        W43958  22.075  16.214   0.819
78798W        W43959  17.205  35.234  10.185
78799W        W43960   9.282  17.186   4.558
78800W        W43961  44.104  40.770   4.079
78801W        W43962  20.237  24.643  13.164
78802W        W43963  23.569   0.285   2.773
78803W        W43964  43.497  28.750  10.063
78804W        W43965   9.724  25.416  13.513
78805W        W43966   3.646  10.340  14.377
78806W        W43967  37.614  18.456   3.296
78807W        W43968  12.573  16.578  11.666
78808W        W43969   7.576  44.659   2.900
78809W        W43970  38.998   4.746   3.830
78810W        W43971   2.532  32.914  14.788
78811W        W43972  12.495  44.082   0.764
78812W        W43973  17.111  14.461  13.271
78813W        W43974   4.179  29.046   3.975
78814W        W43975  13.281  36.950  11.021
78815W        W43976  31.000  17.750  14.490
78816W        W43977  11.655   2.335  11.660
78817W        W43978  31.415  42.251   0.842
78818W        W43979   2.643  35.899  11.547
78819W        W43980  28.868  27.101  11.068
78820W        W43981  12.288  36.081  11.256
78821W        W43982  23.153  22.958  14.385
78822W        W43983  15.226  15.164  10.984
78823W        W43984  25.725  11.215  11.288
78824W        W43985  10.133   7.607  13.492
78825W        W43986  43.217  28.188   1.725
78826W        W43987  40.848  15.439  11.230
78827W        W43988  41.809  21.545  14.949
78828W        W43989  18.382   3.416   4.291
78829W        W43990  32.652  38.907  14.010
78830W        W43991   1.753  15.059   0.907
78831W        W43992  38.071  42.500   1.906
78832W        W43993   0.696  32.911  11.092
78833W        W43994  36.821   3.833   4.932
78834W        W43995  19.566  15.599  13.563
78835W        W43996   6.712  26.239   2.191
78836W        W43997  33.209  11.001   2.403
78837W        W43998  19.476  30.163   4.135
78838W        W43999  19.096  25.518   1.262
78839W        W44000  16.352  15.797  12.449
78840W        W44001   1.004  28.482  14.917
78841W        W44002  12.260  20.220  11.290
78842W        W44003  31.467  12.152  14.038
78843W        W44004   2.749   6.122   4.537
78844W        W44005   3.948  32.558  13.312
78845W        W44006   3.420  21.606   2.236
78846W        W44007  10.367  44.288  10.717
78847W        W44008  35.600  38.456  10.872
78848W        W44009  13.072  21.449   2.210
78849W        W44010  44.086   9.729   5.120
78850W        W44011  11.103  37.969  13.063
78851W        W44012  15.364  21.271   1.188
78852W        W44013  28.069  19.700  10.247
78853W        W44014   7.622  34.430   1.210
78854W        W44015  39.344  18.710   1.468
78855W        W44016  39.355  30.974  11.657
78856W        W44017  39.587  30.557   2.432
78857W        W44018  36.323  24.000   2.442
78858W        W44019   2.595  10.812  10.677
78859W        W44020  37.592  38.637  10.518
78860W        W44021  44.515   8.606   1.058
78861W        W44022  19.179  35.520  13.460
78862W        W44023   3.572  35.988   3.619
78863W        W44024  39.455  40.641  12.403
78864W        W44025  11.731  30.713  12.574
78865W        W44026  12.818  36.815   2.055
78866W        W44027   8.233   5.543   3.745
78867W        W44028  38.285   6.357   2.517
78868W        W44029  24.744  41.890  14.409
78869W        W44030  18.128  27.319   2.369
78870W        W44031   1.012  11.119   2.294
78871W        W44032  12.703  16.214  14.682
78872W        W44033  17.241  27.990   0.487
78873W        W44034  27.511  32.064  11.434
78874W        W44035  14.113  43.948  11.622
78875W        W44036  34.893   0.797   3.586
78876W        W44037  31.400  32.151  12.627
78877W        W44038  33.111   2.918   2.419
78878W        W44039  23.107  30.087  13.773
78879W        W44040   4.354  24.161   9.981
78880W        W44041   9.305  27.054   4.074
78881W        W44042  33.904   2.423  13.979
78882W        W44043  40.433  29.129   3.143
78883W        W44044  10.340   7.626   4.748
78884W        W44045  26.258  11.582   3.221
78885W        W44046  28.993  30.723  12.034
78886W        W44047   6.436  39.040  11.831
78887W        W44048  21.618   7.382  14.800
78888W        W44049  20.063  24.996   0.940
78889W        W44050  25.261  25.668   0.415
78890W        W44051  12.511  21.266   4.862
78891W        W44052   5.762   3.867  14.309
78892W        W44053  21.022  21.879   1.270
78893W        W44054   7.707  22.585   4.559
78894W        W44055  29.069  41.338  11.828
78895W        W44056  13.306  18.598  11.382
78896W        W44057   4.492  19.656   2.428
78897W        W44058  10.713  13.906  13.019
78898W        W44059  24.479   8.580  10.793
78899W        W44060  36.620   9.296   3.633
78900W        W44061  36.123  12.530  11.699
78901W        W44062  21.083   1.796  11.992
78902W        W44063   9.291   8.747   1.462
78903W        W44064  29.865  35.362   0.604
78904W        W44065  37.712  33.626  11.140
78905W        W44066  25.972  11.198   1.725
78906W        W44067  31.029  27.993  12.363
78907W        W44068  43.766  10.078  12.457
78908W        W44069  41.295  38.451  11.804
78909W        W44070   7.880  19.746  10.686
78910W        W44071  27.512  21.775  13.930
78911W        W44072  14.701  27.443   3.302
78912W        W44073  36.595  18.103   1.967
78913W        W44074   4.870  42.013  10.774
78914W        W44075  29.420  37.810  13.078
78915W        W44076  27.595   7.164  11.140
78916W        W44077  35.098   8.920  11.960
78917W        W44078  37.088  44.177  10.629
78918W        W44079  21.998  40.000   1.430
78919W        W44080  40.764  24.623  12.105
78920W        W44081  16.348  28.632  10.971
78921W        W44082   3.211  24.458  14.341
78922W        W44083  13.783   7.422   1.226
78923W        W44084  15.631  38.367   1.988
78924W        W44085   0.213  33.655   4.231
78925W        W44086  27.538  38.681   1.779
78926W        W44087  38.050   9.595   2.125
78927W        W44088   4.785   8.658   3.253
78928W        W44089  20.722  44.309   2.857
78929W        W44090  22.175   0.089   2.734
78930W        W44091  34.344  41.024   1.868
78931W        W44092   6.669  42.706  11.432
78932W        W44093  37.523  39.561  10.960
78933W        W44094   0.731  11.187   3.521
78934W        W44095  12.567   6.402   1.683
78935W        W44096  24.608  40.776   3.545
78936W        W44097   9.606  26.978  12.849
78937W        W44098   6.681  31.172   5.090
78938W        W44099   1.319  16.389   9.788
78939W        W44100   2.872  37.872   2.822
78940W        W44101  42.747  16.881   2.323
78941W        W44102  36.344  26.807  11.569
78942W        W44103  26.386  13.652   2.034
78943W        W44104  15.164  42.323   0.728
78944W        W44105  32.806   5.618   1.899
78945W        W44106   9.144   8.252   0.790
78946W        W44107  26.715  20.241   5.020
78947W        W44108  25.206  32.608  12.941
78948W        W44109  15.030  23.020   0.550
78949W        W44110  44.343  28.721   0.649
78950W        W44111  19.955  26.692   4.987
78951W        W44112   4.654  44.489  11.616
78952W        W44113  19.118  25.135   0.842
78953W        W44114   3.332   2.490  14.963
78954W        W44115  14.663  38.585   4.614
78955W        W44116  10.399  33.561  14.807
78956W        W44117  13.181  24.625   1.833
78957W        W44118  32.742  33.589   2.924
78958W        W44119  18.631  23.759   0.254
78959W        W44120  27.448  18.814   3.734
78960W        W44121  39.791  34.899  10.436
78961W        W44122  26.111  12.146  11.038
78962W        W44123  26.179   6.722  12.729
78963W        W44124  19.567  29.093  14.107
78964W        W44125   0.995  34.161  13.467
78965W        W44126   6.188  18.924  11.154
78966W        W44127  41.801  32.057  14.356
78967W        W44128  36.969   3.030  14.102
78968W        W44129  23.225   8.907  11.660
78969W        W44130   6.937  37.555  12.784
78970W        W44131  30.105  26.313  11.915
78971W        W44132  35.380  13.768   1.260
78972W        W44133  44.851  42.058  14.598
78973W        W44134  36.184   1.316   4.627
78974W        W44135  38.822  38.538   5.019
78975W        W44136   3.926  29.104   1.980
78976W        W44137  12.416  37.389   2.627
78977W        W44138  29.214  18.265   1.945
78978W        W44139  35.078  33.169  13.481
78979W        W44140  30.888  39.460  13.797
78980W        W44141  34.104  11.248   0.315
78981W        W44142  20.543  11.889  14.975
78982W        W44143  12.211   8.483  11.207
78983W        W44144  23.757   3.583   3.782
78984W        W44145  15.624   2.461  11.994
78985W        W44146   1.173  20.301   1.867
78986W        W44147  28.961  21.167  14.237
78987W        W44148  19.802  11.071  13.530
78988W        W44149  20.831  16.573  14.543
78989W        W44150   5.371  26.638   1.929
78990W        W44151  11.325  15.178  12.887
78991W        W44152  18.673   5.055  10.246
78992W        W44153  16.094   7.849  11.980
78993W        W44154  15.008   0.330  10.829
78994W        W44155   9.813   4.196   1.793
78995W        W44156   3.764  30.130  11.648
78996W        W44157   9.315  19.656   0.519
78997W        W44158   0.495  39.155   9.703
78998W        W44159  34.972  21.353  10.843
78999W        W44160  32.557  31.170   4.074
79000W        W44161  27.000  15.507   4.054
79001W        W44162   9.271  14.611  13.295
79002W        W44163  37.839  26.122  10.655
79003W        W44164  37.037  26.260   3.230
79004W        W44165  16.680  21.985  13.793
79005W        W44166  40.506   8.402  13.890
79006W        W44167  36.023  12.861   0.112
79007W        W44168  35.082  31.509  11.862
79008W        W44169  15.757  17.944  13.457
79009W        W44170  13.664   0.407   0.531
79010W        W44171  20.165  14.328   2.772
79011W        W44172   5.790   1.539   2.198
79012W        W44173   5.314  22.984  10.998
79013W        W44174  36.383  43.207  11.610
79014W        W44175  20.293  20.569  12.458
79015W        W44176  17.818  17.036   0.881
79016W        W44177  25.267  14.194  10.791
79017W        W44178  33.622  16.474  12.424
79018W        W44179  14.541   5.809  12.356
79019W        W44180  12.221  22.658  13.835
79020W        W44181   8.794  39.202   1.347
79021W        W44182  37.265  41.152  12.570
79022W        W44183  35.284  32.579  14.985
79023W        W44184  24.962   7.741   3.206
79024W        W44185  29.296  23.493  13.152
79025W        W44186  28.906  32.051   3.677
79026W        W44187  44.492  25.246  13.581
79027W        W44188  29.739  20.666  13.156
79028W        W44189  19.764  14.176  13.388
79029W        W44190  33.241  42.388   0.495
79030W        W44191  11.636  14.531  10.960
79031W        W44192  41.582  13.710  12.396
79032W        W44193  30.814  18.264   4.183
79033W        W44194  33.562  11.774   3.657
79034W        W44195  18.696  32.580  13.013
79035W        W44196  38.488   3.744  12.413
79036W        W44197  33.065  35.941  10.189
79037W        W44198  41.764  22.777  11.193
79038W        W44199  42.034   8.334  10.081
79039W        W44200  21.991  41.428   1.773
79040W        W44201   2.229  41.242   2.932
79041W        W44202  18.312  21.936   3.592
79042W        W44203  24.316  11.751  14.383
79043W        W44204  22.954  25.699   2.499
79044W        W44205  11.213   1.957  14.959
79045W        W44206   6.144  37.989   1.339
79046W        W44207  14.444  43.766  10.784
79047W        W44208  40.495   3.323   3.313
79048W        W44209  16.664  19.520  10.759
79049W        W44210  39.910  39.353   0.465
79050W        W44211  26.177  33.576  12.889
79051W        W44212  20.543  21.457   4.332
79052W        W44213  19.044  17.363   2.651
79053W        W44214   4.050  41.844  11.512
79054W        W44215  22.805  42.949  11.151
79055W        W44216  39.593  36.814   3.594
79056W        W44217  26.477  38.859  14.950
79057W        W44218  19.838  13.818   2.446
79058W        W44219  24.655  25.685  12.117
79059W        W44220   6.014  43.511  12.335
79060W        W44221  13.560   0.270  10.372
79061W        W44222   6.382  30.476  13.316
79062W        W44223  10.857  44.888  11.092
79063W        W44224  37.996  18.308   3.667
79064W        W44225  19.136  34.689   4.188
79065W        W44226   8.942  40.502  14.174
79066W        W44227  15.301  18.397   0.194
79067W        W44228  18.631  38.270  11.996
79068W        W44229  27.910  31.297   2.343
79069W        W44230  37.399   9.798  12.029
79070W        W44231   5.766   4.175   3.878
79071W        W44232  11.917  27.572   2.401
79072W        W44233  22.635  12.648  12.213
79073W        W44234  13.622  34.507  14.662
79074W        W44235  29.163  44.706   1.628
79075W        W44236  13.340  41.517  11.933
79076W        W44237  22.556   6.791   1.131
79077W        W44238  17.111  27.052  12.502
79078W        W44239  12.195  16.828  14.018
79079W        W44240   0.972  10.603   5.001
79080W        W44241  22.470  38.481   0.368
79081W        W44242   0.886   1.263  11.246
79082W        W44243   6.689   1.765  14.134
79083W        W44244  12.106  38.906   1.269
79084W        W44245  30.721  23.270   1.788
79085W        W44246   7.124   0.430  14.653
79086W        W44247   4.089  34.228   1.103
79087W        W44248  39.258  31.399   1.945
79088W        W44249  42.954  16.962   4.139
79089W        W44250   9.436   4.797  13.431
79090W        W44251  17.133   9.144  14.764
79091W        W44252  22.118  29.412   1.854
79092W        W44253  38.389  38.527   4.752
79093W        W44254  11.322   2.398  14.034
79094W        W44255  36.059  34.790   2.680
79095W        W44256  28.484  18.207   3.140
79096W        W44257  10.824   7.330   1.803
79097W        W44258  10.695  42.860  11.633
79098W        W44259   0.829  28.651   0.407
79099W        W44260  40.903  32.020  10.432
79100W        W44261  32.571  11.705  12.029
79101W        W44262  42.883  29.210  14.296
79102W        W44263  40.700   9.206  13.546
79103W        W44264  25.644  22.549  14.873
79104W        W44265  35.322  14.337  14.066
79105W        W44266  44.070   4.459   3.744
79106W        W44267  28.377   1.747   3.971
79107W        W44268  10.208  25.439  13.243
79108W        W44269  30.970  31.852  12.818
79109W        W44270   2.677   3.472   9.904
79110W        W44271  23.356  16.729  14.852
79111W        W44272   6.481  18.961  10.276
79112W        W44273  41.305  38.802   2.116
79113W        W44274  16.285  32.064   4.074
79114W        W44275  37.287   5.454   4.138
79115W        W44276  34.001  39.491  12.973
79116W        W44277  13.015  18.659  12.963
79117W        W44278  29.107  11.558  11.108
79118W        W44279  34.836  44.999   4.148
79119W        W44280   0.746  19.301  13.005
79120W        W44281  29.489  36.978  14.663
79121W        W44282   3.467  17.264   0.303
79122W        W44283  35.286  15.910  11.376
79123W        W44284  34.681  31.974  12.002
79124W        W44285  42.553   3.904   0.891
79125W        W44286  34.471  39.649  10.228
79126W        W44287   3.314  23.487  13.100
79127W        W44288   3.330  32.708   0.934
79128W        W44289   1.781  25.516  14.333
79129W        W44290  30.131  23.428  14.357
79130W        W44291  34.183  27.445   1.337
79131W        W44292  43.846  22.523  11.808
79132W        W44293  11.854   3.269  11.410
79133W        W44294  39.347  12.259  10.738
79134W        W44295  35.141  39.304  11.992
79135W        W44296  44.294  29.063  14.402
79136W        W44297   9.536   5.947  10.177
79137W        W44298  21.873   9.798  10.851
79138W        W44299   3.936  14.507  14.050
79139W        W44300  19.341  39.457   4.092
79140W        W44301  42.393   0.991   3.338
79141W        W44302   3.274  22.447  10.797
79142W        W44303  10.689  15.244   0.778
79143W        W44304   4.845  34.294  12.361
79144W        W44305  21.168   3.304   2.920
79145W        W44306  38.526  26.588   4.508
79146W        W44307  35.947  28.058   4.614
79147W        W44308   5.694  27.301  12.981
79148W        W44309  29.849  23.243  11.862
79149W        W44310   6.614   6.876   4.873
79150W        W44311  17.298  26.555  13.416
79151W        W44312  24.597  25.119  10.996
79152W        W44313  26.853  34.699  14.292
79153W        W44314  11.553  12.618   0.787
79154W        W44315  25.469  11.652  14.007
79155W        W44316  17.377  43.458   1.456
79156W        W44317  11.604  24.119   3.625
79157W        W44318  38.705  13.107  14.680
79158W        W44319  44.466  36.830   0.399
79159W        W44320   5.437  25.860  12.401
79160W        W44321  34.976  41.995  10.251
79161W        W44322  10.570  33.557  10.396
79162W        W44323  17.601  25.994   0.293
79163W        W44324  17.318  33.584  12.993
79164W        W44325  26.295  43.501   3.726
79165W        W44326  10.247  12.235  14.328
79166W        W44327  26.497  24.681   2.258
79167W        W44328  28.573  20.821  11.606
79168W        W44329  39.242  25.263  11.221
79169W        W44330   7.576  28.172  13.928
79170W        W44331  41.178  16.852  12.208
79171W        W44332  14.029  15.296  11.073
79172W        W44333  22.021   9.803   0.896
79173W        W44334  16.205  36.348  10.720
79174W        W44335   4.441  15.367   2.091
79175W        W44336  13.698   9.749  12.130
79176W        W44337  25.986  15.848  12.003
79177W        W44338  38.361  20.199  13.574
79178W        W44339   0.605  22.090  12.871
79179W        W44340  36.450  11.721  11.158
79180W        W44341  37.783  40.052   0.860
79181W        W44342  20.450  42.590  10.227
79182W        W44343  26.358  27.799  13.573
79183W        W44344  37.716   3.805   3.400
79184W        W44345   5.911  25.512   1.600
79185W        W44346  30.000  32.625   3.872
79186W        W44347  35.124   0.793   2.245
79187W        W44348   3.471  29.218  12.091
79188W        W44349  24.335   2.856  12.187
79189W        W44350  13.071  28.638  10.152
79190W        W44351  38.797  44.817  13.976
79191W        W44352  38.567  14.601  12.426
79192W        W44353  10.737  43.778  11.550
79193W        W44354  34.545  18.073   4.108
79194W        W44355   7.738  24.968  11.663
79195W        W44356  40.461  33.278   3.979
79196W        W44357  38.123  19.140   3.884
79197W        W44358  43.298  23.630   3.676
79198W        W44359  33.474  14.289  10.119
79199W        W44360  28.373  30.074   2.664
79200W        W44361  22.176  19.719   3.612
79201W        W44362  15.128  20.993   0.212
79202W        W44363  38.983  35.489  13.222
79203W        W44364  33.055   8.480  12.834
79204W        W44365  17.545  27.482  12.471
79205W        W44366  12.077   5.159   2.698
79206W        W44367  36.924  20.836  14.837
79207W        W44368   6.255  13.868  12.468
79208W        W44369  17.078  19.134   2.116
79209W        W44370  29.500  36.544   3.050
79210W        W44371  39.988   4.449   4.021
79211W        W44372  18.761  31.891   3.276
79212W        W44373  38.529  24.131   2.880
79213W        W44374  23.100  15.107  11.601
79214W        W44375  44.457   8.175  12.375
79215W        W44376   2.579  17.523  14.273
79216W        W44377  12.565  20.089  14.660
79217W        W44378  39.962  35.491   3.304
79218W        W44379   6.503  21.998   3.118
79219W        W44380  11.121   3.330  13.105
79220W        W44381  29.725  26.335  14.240
79221W        W44382  34.298  37.737   2.728
79222W        W44383  37.146  23.304  11.779
79223W        W44384  32.393  11.145   4.293
79224W        W44385  16.229   1.475   2.731
79225W        W44386   3.664   9.218  12.863
79226W        W44387  36.515  27.676   0.880
79227W        W44388  14.865  19.026  13.030
79228W        W44389  28.919  40.553  13.044
79229W        W44390  20.134  36.548   2.228
79230W        W44391  37.785  30.051   1.141
79231W        W44392  15.244   2.473  12.852
79232W        W44393  43.154  29.993  13.376
79233W        W44394  13.957  16.087  10.901
79234W        W44395  19.193   4.857   0.921
79235W        W44396  37.596  31.331   1.236
79236W        W44397   7.845  11.647   0.629
79237W        W44398  40.425  40.743  14.517
79238W        W44399  10.739  21.532  11.961
79239W        W44400  20.474  41.455  13.903
79240W        W44401  18.522  24.240   2.753
79241W        W44402   8.998  18.388   1.882
79242W        W44403  43.194  20.046   0.788
79243W        W44404   6.941  44.806   1.410
79244W        W44405  31.819  11.704   3.115
79245W        W44406  12.783  41.534   4.553
79246W        W44407   4.217  35.607   0.437
79247W        W44408  43.710  30.013   3.297
79248W        W44409  22.133  27.133  13.306
79249W        W44410  25.092  25.039  11.270
79250W        W44411  42.569  27.242  12.925
79251W        W44412   1.409  22.734   0.020
79252W        W44413   5.280   7.471  14.379
79253W        W44414  30.364  31.986  10.672
79254W        W44415  30.070  16.365  11.617
79255W        W44416  37.291  38.318  10.187
79256W        W44417  20.020  41.488   3.963
79257W        W44418  13.718  19.732  10.750
79258W        W44419  22.611   0.916   4.997
79259W        W44420  44.542  22.165  11.935
79260W        W44421  31.765  27.655   0.050
79261W        W44422  33.986  44.746  11.498
79262W        W44423  40.578  39.900  14.287
79263W        W44424   1.774  35.149  10.978
79264W        W44425  30.066  22.396   3.591
79265W        W44426  40.830  22.828   4.810
79266W        W44427  13.778  31.840   0.888
79267W        W44428   2.007  27.982   0.317
79268W        W44429  42.271  22.361   0.356
79269W        W44430   4.290  27.299   2.571
79270W        W44431  38.600   0.344  12.987
79271W        W44432  33.481  22.953  13.444
79272W        W44433  28.881  33.030  12.648
79273W        W44434  19.808  19.511   3.757
79274W        W44435  23.940  33.776  11.875
79275W        W44436   0.916  32.116   5.264
79276W        W44437  16.240  17.518  14.911
79277W        W44438   3.175  29.253   5.195
79278W        W44439  22.612  22.823  12.531
79279W        W44440  12.597   5.178  13.017
79280W        W44441  42.414  22.124  12.872
79281W        W44442   3.466  30.113   1.791
79282W        W44443  26.574  24.111   3.264
79283W        W44444   5.620  13.152   4.633
79284W        W44445  20.751  41.954   1.928
79285W        W44446  21.943   7.377   1.495
79286W        W44447  21.601  42.935   0.689
79287W        W44448  11.437   0.203   1.813
79288W        W44449   0.367  28.460  12.863
79289W        W44450  20.758   4.370  11.647
79290W        W44451   7.265  23.038  11.143
79291W        W44452  29.204   3.246   2.314
79292W        W44453  22.579  34.105  11.489
79293W        W44454   4.497  28.995   0.716
79294W        W44455  36.983  33.224  13.945
79295W        W44456  39.015  11.347  11.660
79296W        W44457  41.449  38.392   2.371
79297W        W44458  19.108  23.971   0.093
79298W        W44459  32.651  21.652   4.252
79299W        W44460  21.488  36.313   2.652
79300W        W44461  22.123   9.443   1.255
79301W        W44462  34.092  25.899   1.244
79302W        W44463  13.727   9.443  11.583
79303W        W44464  11.508  27.055   1.743
79304W        W44465  25.698   9.620   4.967
79305W        W44466  42.057   2.437  13.878
79306W        W44467  44.893  35.844   0.769
79307W        W44468  43.942  39.588   4.666
79308W        W44469  24.732  30.325  14.992
79309W        W44470  18.172  40.248  12.415
79310W        W44471   9.036   6.180  11.012
79311W        W44472  29.094  27.420  11.554
79312W        W44473  25.539  27.624  11.133
79313W        W44474  11.829  20.330  14.434
79314W        W44475  40.875  39.013   3.270
79315W        W44476   6.758   9.949   2.800
79316W        W44477  32.679  13.875  12.054
79317W        W44478   2.750   2.980   3.331
79318W        W44479  41.755   0.856   0.799
79319W        W44480  29.121   0.330  13.360
79320W        W44481  41.786  13.929   0.869
79321W        W44482   5.807  30.421  12.577
79322W        W44483  44.960  35.131  13.779
79323W        W44484   8.109  28.045   4.538
79324W        W44485   4.488  41.948  12.307
79325W        W44486  15.996  37.950  12.900
79326W        W44487  30.316  11.903   0.327
79327W        W44488  32.442  10.357  13.988
79328W        W44489  38.230  25.483  13.245
79329W        W44490   0.768  38.894  14.493
79330W        W44491  11.667   8.969   4.730
79331W        W44492  22.573   8.946  10.044
79332W        W44493  14.136   6.410   3.196
79333W        W44494  43.865  22.593  14.522
79334W        W44495   6.434  24.476   2.913
79335W        W44496   3.187  10.387   2.301
79336W        W44497  44.366   9.564  14.101
79337W        W44498  22.843  34.721   3.676
79338W        W44499   2.770  27.224  13.794
79339W        W44500  25.315   5.174   1.150
79340W        W44501  35.211  44.885   1.295
79341W        W44502  10.484  28.609   2.701
79342W        W44503  11.320  22.721   4.419
79343W        W44504  21.468  40.098   5.527
79344W        W44505  13.339  24.473   4.390
79345W        W44506  28.835  43.322  13.381
79346W        W44507  18.199  35.954   0.307
79347W        W44508  30.981  13.572  12.845
79348W        W44509  19.349  39.992   3.867
79349W        W44510  15.985  32.221   3.702
79350W        W44511  14.613  42.390   3.227
79351W        W44512  30.259  23.200   3.090
79352W        W44513  16.593  16.623  12.146
79353W        W44514  30.279  32.507  11.226
79354W        W44515  18.071   7.298   1.282
79355W        W44516  39.062  14.166   0.601
79356W        W44517  33.956  33.907  14.521
79357W        W44518  33.371  41.244   1.005
79358W        W44519  20.279  35.217  11.142
79359W        W44520   3.407   4.937  12.403
79360W        W44521  25.140  44.291   4.881
79361W        W44522  18.803   8.499  13.411
79362W        W44523  35.945   2.628  12.144
79363W        W44524  19.163   5.191  14.320
79364W        W44525  20.330  43.178   1.955
79365W        W44526   7.273  14.952   2.375
79366W        W44527  24.568  26.374  14.423
79367W        W44528  16.813  41.454   0.280
79368W        W44529  22.444  31.538   3.810
79369W        W44530   4.376  37.387   1.718
79370W        W44531  26.471  19.179   0.386
79371W        W44532   3.807  19.180  10.671
79372W        W44533  22.278  40.870  12.609
79373W        W44534  27.003   2.148   0.603
79374W        W44535  21.550   2.047   3.744
79375W        W44536   6.288  10.882  12.885
79376W        W44537  29.244   4.932   4.058
79377W        W44538  24.069   1.913   9.982
79378W        W44539   5.733   2.707  12.466
79379W        W44540  25.191  32.451  11.238
79380W        W44541  18.834  39.866   1.313
79381W        W44542  43.777   8.736  14.077
79382W        W44543  36.866  31.525  13.983
79383W        W44544   7.412  28.140   3.321
79384W        W44545  40.850  31.529   3.416
79385W        W44546  44.353  34.112  12.857
79386W        W44547  20.767  10.153  10.806
79387W        W44548  16.091  19.805  11.050
79388W        W44549  23.511  39.100  10.362
79389W        W44550   2.169  27.892   1.721
79390W        W44551  18.545  27.489   0.754
79391W        W44552  33.728  42.559  12.593
79392W        W44553  32.624  28.547   0.953
79393W        W44554  20.206   1.441   1.993
79394W        W44555  19.393   4.790  14.572
79395W        W44556   6.409  38.092   0.843
79396W        W44557   0.544  25.008  11.651
79397W        W44558  35.519  42.313   3.811
79398W        W44559  43.823   3.054   4.103
79399W        W44560   0.133   5.754  11.607
79400W        W44561   8.496  15.759  13.583
79401W        W44562   2.264  32.054  14.981
79402W        W44563  28.907   4.026  13.489
79403W        W44564  37.990  31.003   0.118
79404W        W44565  14.032  22.570  12.542
79405W        W44566  20.505  21.805   0.449
79406W        W44567  27.768  33.612   3.107
79407W        W44568   8.221  37.156  13.184
79408W        W44569  24.205  23.285  14.123
79409W        W44570  33.838  30.559  14.111
79410W        W44571  15.185  11.682  13.392
79411W        W44572   8.824  11.092  12.112
79412W        W44573  38.324  13.837  10.638
79413W        W44574  43.476  32.520  10.462
79414W        W44575  28.626  20.001  11.151
79415W        W44576  21.163  25.095  11.702
79416W        W44577  22.761  40.631   0.107
79417W        W44578  44.001  39.684   3.203
79418W        W44579  37.974  44.506   1.822
79419W        W44580   9.852  43.916   3.257
79420W        W44581  37.857  14.212  13.354
79421W        W44582  15.720  13.111  12.689
79422W        W44583  25.461  11.734  13.490
79423W        W44584  42.495   4.197  12.908
79424W        W44585   3.444  19.701   2.554
79425W        W44586   8.521  27.074   1.276
79426W        W44587  10.084  10.596   3.266
79427W        W44588   0.987  44.386   0.792
79428W        W44589   3.490  10.268  14.874
79429W        W44590  31.624  25.470   2.721
79430W        W44591   0.864  42.423   2.438
79431W        W44592   7.161   1.033   2.171
79432W        W44593   6.400   4.389  13.940
79433W        W44594  23.264  22.072  12.392
79434W        W44595  21.780   9.404   4.195
79435W        W44596  16.170  37.131   4.591
79436W        W44597  20.985  42.215   5.504
79437W        W44598  30.408  32.532   0.284
79438W        W44599  14.524  36.781   1.480
79439W        W44600  33.440  41.783   2.832
79440W        W44601  32.034   0.833   2.081
79441W        W44602   2.334  10.787  12.123
79442W        W44603  33.486  13.620   4.091
79443W        W44604  44.268  32.438   3.453
79444W        W44605  22.197  13.703  14.540
79445W        W44606   4.748  23.591  12.025
79446W        W44607   6.004   8.304  12.307
79447W        W44608   9.333  19.723   1.040
79448W        W44609  28.791  33.596  13.483
79449W        W44610  41.611   1.816   4.281
79450W        W44611   8.934  29.679   3.727
79451W        W44612   5.952  10.455   3.745
79452W        W44613  12.258  22.937   4.025
79453W        W44614   8.883  39.721   2.246
79454W        W44615  39.405   1.020  13.780
79455W        W44616  37.169  34.022   4.715
79456W        W44617   7.277  37.750  14.417
79457W        W44618  24.503  43.442  12.411
79458W        W44619   7.931  33.875   1.841
79459W        W44620  11.367  19.261   2.341
79460W        W44621   3.850  39.829  14.426
79461W        W44622   0.905  14.374   1.088
79462W        W44623  32.785  43.782   2.432
79463W        W44624   9.333  14.572  14.883
79464W        W44625   3.832   3.408   0.116
79465W        W44626  37.422  24.659  11.656
79466W        W44627  38.969  36.922   3.156
79467W        W44628   2.210  28.573   0.448
79468W        W44629  42.260   9.696   0.971
79469W        W44630   8.169  23.849   4.094
79470W        W44631  33.315   9.867  10.813
79471W        W44632  16.935  27.589   2.880
79472W        W44633  31.362   8.557  14.462
79473W        W44634   5.877  36.583   1.347
79474W        W44635  39.187  31.943  12.789
79475W        W44636  24.745  31.130  11.949
79476W        W44637  22.138  27.653  12.957
79477W        W44638  18.028  40.982   0.234
79478W        W44639  40.293  42.758  10.588
79479W        W44640  16.802  13.262  13.501
79480W        W44641  40.364  23.364   1.746
79481W        W44642  18.946  16.953   0.348
79482W        W44643   5.135  28.838  11.016
79483W        W44644  29.448  11.644   0.462
79484W        W44645  11.159  35.943  14.563
79485W        W44646  44.401  12.081  13.638
79486W        W44647  24.877  21.285   0.752
79487W        W44648  18.569  34.952  12.490
79488W        W44649  16.988  18.982  12.656
79489W        W44650  12.516   5.702  13.552
79490W        W44651  31.450   1.489   0.934
79491W        W44652  16.558  40.783  11.186
79492W        W44653  35.959  11.000  12.134
79493W        W44654   1.753  31.130   1.837
79494W        W44655  39.889  33.301  14.824
79495W        W44656  24.357  10.286   2.245
79496W        W44657   4.789  15.766   4.134
79497W        W44658  25.630  32.690   1.858
79498W        W44659  17.641  12.875   3.154
79499W        W44660  28.513  21.513   3.062
79500W        W44661  26.809  28.871  14.696
79501W        W44662  33.867  29.020  12.917
79502W        W44663  31.184   6.250  12.407
79503W        W44664   2.932   6.766   2.811
79504W        W44665  27.418  22.261  14.821
79505W        W44666  34.616  26.636   0.919
79506W        W44667   7.314  28.146  10.561
79507W        W44668  30.982   8.178   2.622
79508W        W44669  19.708  39.303  11.897
79509W        W44670  27.754  15.876   2.242
79510W        W44671  11.088   4.710  14.115
79511W        W44672  33.857  33.113   2.788
79512W        W44673  20.594  36.493   3.476
79513W        W44674  41.924  25.040   1.178
79514W        W44675  35.601  19.719  14.384
79515W        W44676  42.471  26.908   0.410
79516W        W44677  27.394  16.959   1.522
79517W        W44678  43.974  23.702  11.680
79518W        W44679  22.112   7.888   4.382
79519W        W44680  38.554  39.478   4.551
79520W        W44681   8.891  28.459   0.771
79521W        W44682  24.560   8.341  14.325
79522W        W44683  35.034  17.158   2.784
79523W        W44684  12.690  11.095  13.830
79524W        W44685  19.174   2.503   0.459
79525W        W44686   2.267  15.340  12.503
79526W        W44687  40.006  43.593  10.737
79527W        W44688  41.051   6.125  14.122
79528W        W44689  13.799  10.682  14.319
79529W        W44690  28.411   6.578  14.110
79530W        W44691  10.173  14.206   4.106
79531W        W44692   2.493  19.196   3.174
79532W        W44693  29.433  10.912  11.359
79533W        W44694   2.236  24.217   0.080
79534W        W44695  44.763  41.686  14.195
79535W        W44696  32.892  41.071   1.744
79536W        W44697  17.736  16.060   0.206
79537W        W44698  34.987  17.749   4.755
79538W        W44699  44.486   9.785   3.316
79539W        W44700   6.201  27.650   0.370
79540W        W44701  32.082  10.894  12.977
79541W        W44702  26.666  10.589  13.031
79542W        W44703  36.462  39.970  13.123
79543W        W44704  37.211   8.361   4.885
79544W        W44705   2.821  26.584  11.123
79545W        W44706  10.255  40.358  10.621
79546W        W44707   8.404  44.771  12.663
79547W        W44708  10.548  21.650  13.369
79548W        W44709   5.544   6.968   1.193
79549W        W44710  10.842  12.742  14.283
79550W        W44711  25.462  29.987   0.842
79551W        W44712  23.966  38.827   2.002
79552W        W44713  10.135  36.966   0.110
79553W        W44714  42.979   9.337   3.781
79554W        W44715  42.833  40.069   2.447
79555W        W44716  26.891  30.338   3.267
79556W        W44717  14.180  43.987  10.360
79557W        W44718   6.152  30.075  13.658
79558W        W44719  36.151  20.912  13.607
79559W        W44720  32.820   6.444  12.426
79560W        W44721  21.026  16.025   0.402
79561W        W44722  41.016  18.507   1.177
79562W        W44723  20.712  15.588   4.121
79563W        W44724  35.989  34.442  11.261
79564W        W44725  18.295  18.159  14.297
79565W        W44726  25.088  13.360   1.226
79566W        W44727  20.345   5.883   0.376
79567W        W44728  17.034  10.103  10.587
79568W        W44729  22.998  20.133   1.587
79569W        W44730  29.536  39.182  13.095
79570W        W44731   4.403  27.894  11.628
79571W        W44732  11.305  14.175  14.993
79572W        W44733  20.811   0.458  10.320
79573W        W44734  24.181   7.653   5.084
79574W        W44735  40.352  15.008  12.017
79575W        W44736  38.210  39.344  13.435
79576W        W44737  39.292   0.270   0.854
79577W        W44738  16.551  14.548   0.480
79578W        W44739   2.199  29.865  10.898
79579W        W44740   5.369  15.670   2.545
79580W        W44741  33.188  18.357   0.006
79581W        W44742  21.763  37.380  13.957
79582W        W44743  33.000  15.420   2.287
79583W        W44744   2.394   1.167   4.239
79584W        W44745   5.318  14.411   3.256
79585W        W44746  21.940   0.049  11.532
79586W        W44747  36.632   7.656  14.828
79587W        W44748  31.432  13.720   4.104
79588W        W44749  24.939  31.102  11.467
79589W        W44750  42.125  37.922   0.279
79590W        W44751  26.877  14.385   3.651
79591W        W44752  29.038  29.570  12.327
79592W        W44753  23.159   1.827  13.964
79593W        W44754  35.057  24.266   5.030
79594W        W44755   3.782  31.941  12.501
79595W        W44756  32.864   0.189   2.332
79596W        W44757  39.960  15.120   0.166
79597W        W44758   7.705  10.706  13.221
79598W        W44759  41.841   9.263  13.602
79599W        W44760  16.343  40.836   1.689
79600W        W44761  14.779   0.768  11.605
79601W        W44762  30.694   7.208   2.736
79602W        W44763  37.382   0.454  10.217
79603W        W44764  20.948  40.295  10.555
79604W        W44765   0.241  23.969   3.682
79605W        W44766  11.214   7.767   3.337
79606W        W44767  44.284  29.156   2.799
79607W        W44768  30.562  39.926  13.787
79608W        W44769  38.877   6.629  14.952
79609W        W44770  34.702  38.991   0.753
79610W        W44771  17.090   7.058   4.221
79611W        W44772   4.808  12.535   0.367
79612W        W44773  16.003  44.005  14.383
79613W        W44774  16.737  13.296  14.529
79614W        W44775  37.547  30.780   4.651
79615W        W44776  42.211  35.546  10.181
79616W        W44777  18.230  18.805   1.384
79617W        W44778  40.484   7.217   1.753
79618W        W44779   2.890   4.355   1.431
79619W        W44780   2.516  41.415  11.365
79620W        W44781  23.034  31.611   2.672
79621W        W44782   1.920   8.219  10.435
79622W        W44783  44.378  22.547   3.371
79623W        W44784   8.007  35.241   4.970
79624W        W44785  28.465  30.511  13.162
79625W        W44786  28.415   2.457   3.189
79626W        W44787   5.540  39.507  11.764
79627W        W44788   6.362  17.657  10.907
79628W        W44789  10.749  29.578   1.992
79629W        W44790  43.353   0.680   1.518
79630W        W44791  26.979  16.232   4.596
79631W        W44792  22.272  15.332   2.397
79632W        W44793  29.058  24.542  13.984
79633W        W44794  19.813  21.039  11.596
79634W        W44795  41.417  26.493   0.792
79635W        W44796  26.559  12.224  11.880
79636W        W44797  43.058   7.658   4.058
79637W        W44798  25.681  24.410  13.403
79638W        W44799  11.215  32.617  11.085
79639W        W44800  13.560  40.444  13.766
79640W        W44801  38.007  22.116   3.788
79641W        W44802  21.466   2.813  11.191
79642W        W44803  44.886  40.471   3.987
79643W        W44804  24.939  42.443   0.673
79644W        W44805  15.681  16.779   1.248
79645W        W44806  37.282   0.251  13.103
79646W        W44807  34.363  36.519   1.869
79647W        W44808  15.353  19.498  12.998
79648W        W44809  31.747  28.137   3.612
79649W        W44810  30.938  24.917  13.065
79650W        W44811  11.170  16.163  11.399
79651W        W44812  40.494  18.599   1.195
79652W        W44813  39.891  10.791  10.788
79653W        W44814  36.046  10.600  12.507
79654W        W44815  29.357   3.858  12.628
79655W        W44816   0.760  42.091   3.724
79656W        W44817  40.285  44.919  11.347
79657W        W44818  17.209  43.509  14.337
79658W        W44819   0.744   9.929  11.943
79659W        W44820   2.238   1.555   1.392
79660W        W44821  19.145  35.104  14.331
79661W        W44822  20.861  28.506  13.526
79662W        W44823  32.919  33.312  11.125
79663W        W44824   2.080  35.039   2.424
79664W        W44825   5.339   9.862  11.854
79665W        W44826   1.418  44.733  13.293
79666W        W44827  44.866  28.749  11.167
79667W        W44828   2.413  18.754  13.073
79668W        W44829  21.113  13.069   3.995
79669W        W44830   5.401  34.295  13.451
79670W        W44831  17.229  41.689   2.183
79671W        W44832   6.514  39.549   1.612
79672W        W44833  11.980  10.891   3.608
79673W        W44834  33.384  37.503  14.424
79674W        W44835  11.256  33.752   2.313
79675W        W44836  27.917  33.457  13.843
79676W        W44837   1.338  13.538   4.248
79677W        W44838   1.248  11.134   3.709
79678W        W44839  10.820  25.647   0.479
79679W        W44840   4.261  44.883  11.840
79680W        W44841   2.006  22.025   3.553
79681W        W44842  44.910   0.541  11.526
79682W        W44843  25.341  44.409  12.023
79683W        W44844  34.964   9.754  13.460
79684W        W44845  36.252  34.229  10.344
79685W        W44846  35.003   1.629   2.493
79686W        W44847   9.872   7.780   4.591
79687W        W44848  24.346  28.499  13.027
79688W        W44849  39.246  21.670  12.583
79689W        W44850  41.791   7.707  14.418
79690W        W44851  36.293  11.785  14.767
79691W        W44852  40.742  19.039   4.211
79692W        W44853  18.766  23.443   1.164
79693W        W44854  31.572  23.160  14.851
79694W        W44855   1.253   0.064   2.689
79695W        W44856  39.532  23.087   2.275
79696W        W44857  29.978  13.976  11.378
79697W        W44858   6.069  15.597  14.365
79698W        W44859   3.636   4.278  13.987
79699W        W44860  26.662  42.186  12.913
79700W        W44861  10.751  20.104   3.211
79701W        W44862  22.046  40.433   1.126
79702W        W44863  19.600  38.265   3.276
79703W        W44864  14.352  37.115  13.525
79704W        W44865  43.425   9.693   2.900
79705W        W44866  16.246  26.517  13.486
79706W        W44867   9.190  19.980  12.119
79707W        W44868   3.181  23.720   4.163
79708W        W44869  39.460   1.805   3.229
79709W        W44870  35.076  27.662   1.411
79710W        W44871   3.046  36.925  12.422
79711W        W44872  16.754   3.468  11.829
79712W        W44873  42.846  23.622   0.771
79713W        W44874  33.506  15.275   1.434
79714W        W44875  10.442  27.200  12.396
79715W        W44876  11.649  26.474   3.716
79716W        W44877  38.326  33.295  12.318
79717W        W44878   8.934  24.415   3.399
79718W        W44879  17.774  24.128   4.331
79719W        W44880  29.464  38.092   2.677
79720W        W44881   0.441  16.137   2.354
79721W        W44882   1.905  40.062   1.806
79722W        W44883  43.905  42.236  11.955
79723W        W44884   9.562  31.800  13.072
79724W        W44885  30.947  33.975  11.527
79725W        W44886  41.509  25.090  11.210
79726W        W44887  44.040  20.506  13.866
79727W        W44888   4.704  37.035  10.963
79728W        W44889  34.558  15.775  10.804
79729W        W44890  27.131  44.745   1.409
79730W        W44891  39.503   9.688  11.347
79731W        W44892   8.374  14.746   4.716
79732W        W44893  18.135  31.566  10.684
79733W        W44894  16.502   3.263  13.491
79734W        W44895  20.147   4.933  10.648
79735W        W44896  29.045  36.669  14.633
79736W        W44897  39.295   2.589  13.174
79737W        W44898  14.700  38.294  13.525
79738W        W44899  18.908   5.417   2.957
79739W        W44900  42.165  23.663   1.880
79740W        W44901  14.230  38.105   1.874
79741W        W44902  37.010  43.012  14.170
79742W        W44903   0.792  14.318   5.065
79743W        W44904   5.270  23.505  13.759
79744W        W44905  26.700  27.798   4.457
79745W        W44906  25.991  17.294   3.274
79746W        W44907  24.708   9.457   1.714
79747W        W44908  13.100  13.069   2.290
79748W        W44909  35.129  14.642  12.954
79749W        W44910  21.153   8.432   0.712
79750W        W44911   5.008  26.488  11.873
79751W        W44912  19.676  43.356  14.992
79752W        W44913  37.632  44.450   0.291
79753W        W44914  40.898  41.063   2.301
79754W        W44915  24.053  17.818  12.579
79755W        W44916  37.047  37.636   2.114
79756W        W44917  19.735  41.302  14.536
79757W        W44918  30.623  25.094  11.619
79758W        W44919  21.907  10.722  13.509
79759W        W44920   3.390   1.320   1.679
79760W        W44921   3.368  21.941  10.722
79761W        W44922  17.319   2.638  11.608
79762W        W44923  37.541  30.144  12.123
79763W        W44924  13.199   4.219   2.323
79764W        W44925  37.411  11.334   0.881
79765W        W44926  38.883  43.882   3.762
79766W        W44927   7.287  37.510   0.900
79767W        W44928   4.967  35.640  13.786
79768W        W44929  39.930  10.461  11.173
79769W        W44930  20.698  38.363   0.011
79770W        W44931  19.990   4.114  13.190
79771W        W44932  37.898   0.391  10.392
79772W        W44933  28.548  43.229   0.216
79773W        W44934  39.262  11.451  14.463
79774W        W44935  41.854  21.761  13.905
79775W        W44936  16.228  38.536   1.376
79776W        W44937  12.194   3.311  14.392
79777W        W44938  19.531  38.795  13.877
79778W        W44939  34.953   4.533   2.593
79779W        W44940  25.268  37.889   4.091
79780W        W44941  28.001  27.256   0.371
79781W        W44942  26.182  29.277  11.224
79782W        W44943  43.589  33.595   1.965
79783W        W44944  19.813  17.114  12.974
79784W        W44945  43.982  11.101   1.175
79785W        W44946  17.683  30.042  14.302
79786W        W44947  24.359   7.644  14.929
79787W        W44948  39.925  25.112  13.757
79788W        W44949   5.420  37.897  12.973
79789W        W44950   9.492  19.945  12.520
79790W        W44951   2.262  12.591   2.348
79791W        W44952  32.761  26.697  13.467
79792W        W44953  11.361  43.951   2.155
79793W        W44954  25.161  14.726   3.223
79794W        W44955   0.437  30.731  12.071
79795W        W44956  19.546  30.684   0.288
79796W        W44957  29.898  31.179  14.854
79797W        W44958   3.390   7.599   4.782
79798W        W44959  18.169  31.871  12.048
79799W        W44960   2.595  32.907  12.069
79800W        W44961  35.219   7.872  13.918
79801W        W44962  18.748   3.885  11.056
79802W        W44963   5.391  25.139   4.119
79803W        W44964  19.959  26.786  14.821
79804W        W44965  22.646  41.825   4.028
79805W        W44966   6.740  29.434  11.944
79806W        W44967  42.996  22.824   1.862
79807W        W44968   4.959  34.627  13.494
79808W        W44969  42.600  17.558  14.443
79809W        W44970  40.049   7.387   0.982
79810W        W44971  13.803  44.802  14.820
79811W        W44972  26.035  37.110   1.251
79812W        W44973  20.661  28.146   4.693
79813W        W44974   1.704  32.887   2.648
79814W        W44975  30.116  31.637   3.302
79815W        W44976  13.165  36.856   3.902
79816W        W44977  31.094  27.019  13.906
79817W        W44978  32.547  19.040   0.901
79818W        W44979  10.945  25.609   3.261
79819W        W44980  23.542  43.648  14.511
79820W        W44981   7.752  33.312  14.879
79821W        W44982  13.833  25.190   3.238
79822W        W44983  15.213  29.897   2.853
79823W        W44984  25.037  31.074  10.574
79824W        W44985   5.386  12.186  10.212
79825W        W44986  14.323  31.009   2.330
79826W        W44987   3.492  39.503  14.626
79827W        W44988  21.692  33.518   2.471
79828W        W44989  11.667   9.951  10.347
79829W        W44990   7.586  26.104   0.248
79830W        W44991   2.465  24.026  10.308
79831W        W44992  11.913  15.585   4.198
79832W        W44993   6.962  31.198   2.338
79833W        W44994  14.738   0.699  12.952
79834W        W44995  38.968   8.153  13.010
79835W        W44996   6.219  33.843  12.526
79836W        W44997  11.853  42.584  13.288
79837W        W44998   6.605  10.841   2.994
79838W        W44999  20.731  13.788  11.141
79839W        W45000  43.985  44.049  14.923
79840W        W45001   1.881  28.652   1.976
79841W        W45002  37.039  38.076  12.521
79842W        W45003  39.612  37.808  14.543
79843W        W45004  15.764   7.474  10.815
79844W        W45005  29.663  36.346   1.749
79845W        W45006  35.433   8.671   2.223
79846W        W45007  14.379  26.606  12.035
79847W        W45008  16.927  27.818   1.287
79848W        W45009   5.810  26.865   4.455
79849W        W45010   9.185  40.078   2.423
79850W        W45011  21.497  26.556   3.657
79851W        W45012  19.668  20.452  14.103
79852W        W45013  27.521  39.417   3.215
79853W        W45014  44.035  11.001   4.138
79854W        W45015  24.177  15.320  12.179
79855W        W45016   7.355  22.175  14.487
79856W        W45017   9.768  21.982   1.367
79857W        W45018  36.431  34.584   1.153
79858W        W45019  14.681   2.710  12.464
79859W        W45020  43.831  32.142   1.720
79860W        W45021  24.988  24.121   1.839
79861W        W45022  31.201   4.056   2.281
79862W        W45023  42.717  24.183  11.917
79863W        W45024  42.539  16.690  14.195
79864W        W45025  15.576   1.348   2.104
79865W        W45026  37.381  24.151  12.187
79866W        W45027   4.099  38.373  14.853
79867W        W45028   5.713  13.328   2.575
79868W        W45029   1.184  28.002   2.679
79869W        W45030  44.955  42.918  12.164
79870W        W45031  41.339   2.458  11.830
79871W        W45032  19.740   6.836   0.992
79872W        W45033  32.224   3.441  14.055
79873W        W45034  10.356  30.244  13.096
79874W        W45035  10.766   4.596   0.491
79875W        W45036  26.002  33.067  14.271
79876W        W45037   9.439  20.579  11.714
79877W        W45038   4.835   8.904   2.696
79878W        W45039  40.620  30.118   1.720
79879W        W45040   2.318  20.813   4.298
79880W        W45041  32.414  17.522  12.490
79881W        W45042  36.370   8.232   1.267
79882W        W45043  38.303  25.477  12.075
79883W        W45044   0.737  29.966   4.186
79884W        W45045  25.808  36.416  10.205
79885W        W45046   9.434  37.525   2.629
79886W        W45047   8.752   6.625  13.048
79887W        W45048  33.984  23.972  14.838
79888W        W45049   8.642  14.874   1.361
79889W        W45050  37.770  19.999  12.506
79890W        W45051  21.796  32.417   4.041
79891W        W45052  15.653   3.648   3.176
79892W        W45053  43.454   6.127  11.694
79893W        W45054  38.039  17.794   1.349
79894W        W45055  20.048  10.745  11.915
79895W        W45056  18.675  17.065   1.225
79896W        W45057   3.289   5.300  11.009
79897W        W45058  37.106   0.149   3.672
79898W        W45059  10.799  21.723  10.636
79899W        W45060  21.284  37.861   4.572
79900W        W45061  44.795  32.790  13.638
79901W        W45062  38.263   7.259  10.764
79902W        W45063  19.719  17.004   2.746
79903W        W45064  19.873  12.846   4.208
79904W        W45065  28.778  18.132   1.700
79905W        W45066  41.374  42.849  12.571
79906W        W45067   5.682  28.376  11.965
79907W        W45068   8.956  27.087  10.304
79908W        W45069  41.784  15.632  10.390
79909W        W45070   0.916  42.959  14.627
79910W        W45071   2.524  27.294   3.318
79911W        W45072  29.870  22.413   1.950
79912W        W45073   5.940   1.391   4.094
79913W        W45074  19.732  13.238  13.522
79914W        W45075   6.287  16.173   1.782
79915W        W45076   8.703  29.941   0.013
79916W        W45077  11.686   2.757   4.222
79917W        W45078  35.118  43.755   2.845
79918W        W45079  11.386   6.282  10.657
79919W        W45080  31.941  36.040   3.626
79920W        W45081   2.451  23.583   0.042
79921W        W45082  34.637   2.867   4.558
79922W        W45083  17.040   0.440   1.357
79923W        W45084   1.024   7.246  11.627
79924W        W45085   5.861  40.780  12.925
79925W        W45086  30.693  25.639  13.336
79926W        W45087   6.960  11.261   2.376
79927W        W45088  44.889   2.617  12.080
79928W        W45089  16.379  30.438   0.511
79929W        W45090  15.479  32.809  12.614
79930W        W45091  38.922   5.059   2.872
79931W        W45092   7.228  31.170   4.380
79932W        W45093  23.534  12.752   4.193
79933W        W45094  30.989   0.251  12.772
79934W        W45095  16.760  32.304   4.021
79935W        W45096  40.191  33.731   3.349
79936W        W45097  22.590  12.077   4.324
79937W        W45098  15.503  21.464   4.805
79938W        W45099  17.308   0.888  10.417
79939W        W45100   7.132   4.950  14.459
79940W        W45101  31.495  15.138  11.216
79941W        W45102  23.491  31.580  13.934
79942W        W45103  21.587  27.960   1.945
79943W        W45104  24.280  34.158  12.062
79944W        W45105  13.612  17.560  13.925
79945W        W45106  28.872  11.338   3.193
79946W        W45107  24.468  11.197  13.986
79947W        W45108  10.122  18.742  13.110
79948W        W45109  32.459   1.514   2.344
79949W        W45110  14.257   6.710   3.828
79950W        W45111  35.061  19.731   3.712
79951W        W45112  13.176  19.283  13.339
79952W        W45113  41.941  42.485   4.226
79953W        W45114   8.836  31.075   1.340
79954W        W45115  43.571  32.380  14.326
79955W        W45116  16.231  42.930  14.919
79956W        W45117  18.165  41.768   2.952
79957W        W45118  36.598  31.506   2.020
79958W        W45119   1.824  34.966  15.000
79959W        W45120  12.258  11.193  10.651
79960W        W45121   1.339   9.915   0.819
79961W        W45122  40.016  26.450  11.023
79962W        W45123  30.212   7.263   4.413
79963W        W45124   2.415  30.802  13.331
79964W        W45125  33.612   9.916  12.058
79965W        W45126  21.292  36.456  12.903
79966W        W45127  16.746  37.041  10.483
79967W        W45128  18.253  14.174   2.277
79968W        W45129   9.853  26.714   0.350
79969W        W45130  29.918  33.948   2.324
79970W        W45131  11.375   3.351  11.578
79971W        W45132  26.730  23.496  11.577
79972W        W45133  35.670   7.508  13.056
79973W        W45134  44.390   0.364   0.312
79974W        W45135  32.397  18.757   0.026
79975W        W45136  19.154  39.351   2.621
79976W        W45137  28.179  15.355  13.566
79977W        W45138  29.379   8.156  13.904
79978W        W45139  42.869  35.647  14.360
79979W        W45140  42.318  43.688   0.696
79980W        W45141   6.828  24.483  11.658
79981W        W45142   6.375  14.844  10.615
79982W        W45143  15.057   4.589  12.617
79983W        W45144  30.004  25.026  13.392
79984W        W45145  20.835  38.824   5.166
79985W        W45146  36.928  12.846   1.838
79986W        W45147  31.720  18.722   2.772
79987W        W45148  31.390   4.255   3.173
79988W        W45149  40.808   9.896  11.276
79989W        W45150  12.179   8.129   2.348
79990W        W45151  39.427  13.988  11.942
79991W        W45152   7.967  40.397   0.780
79992W        W45153  42.012   0.363   1.360
79993W        W45154  33.321  41.932  10.659
79994W        W45155   2.959  35.414   0.746
79995W        W45156  27.729  13.541  11.403
79996W        W45157  23.671   3.356   4.266
79997W        W45158  16.504  11.742  12.866
79998W        W45159   3.749  33.011   3.636
79999W        W45160   3.172  13.917   0.821
80000W        W45161  11.770   2.144  13.895
80001W        W45162  36.407  44.332   4.971
80002W        W45163  41.372  18.004  14.385
80003W        W45164  42.002  13.234   3.747
80004W        W45165  11.262  19.602  11.168
80005W        W45166  14.636  36.538  14.546
80006W        W45167  17.715  36.007  14.469
80007W        W45168  29.947  17.175  11.942
80008W        W45169  39.165   6.523   2.766
80009W        W45170  38.307   5.274   1.652
80010W        W45171  22.787   8.086  12.524
80011W        W45172   1.742  28.862   0.430
80012W        W45173  19.252  19.088   3.122
80013W        W45174  43.793  42.790   0.165
80014W        W45175  40.718  17.303   4.734
80015W        W45176  44.210   0.944   0.017
80016W        W45177  25.654  40.948   5.276
80017W        W45178  43.942  27.768   2.683
80018W        W45179   9.204  36.241   2.550
80019W        W45180  39.665  37.408  11.980
80020W        W45181  23.457   6.329   1.786
80021W        W45182  20.603   5.329  14.545
80022W        W45183  28.573  23.740   0.176
80023W        W45184  37.972  13.735  11.104
80024W        W45185   1.851  13.714   0.728
80025W        W45186  36.946  42.000  13.907
80026W        W45187  42.178  32.008   4.627
80027W        W45188  14.458  43.932  12.028
80028W        W45189  13.037   1.927  14.900
80029W        W45190   9.930  12.434  13.953
80030W        W45191  29.167  42.944  13.502
80031W        W45192   4.790  37.446  13.121
80032W        W45193  15.835  39.674   0.363
80033W        W45194  19.859  34.381   0.945
80034W        W45195  28.857  22.249  14.018
80035W        W45196  35.360   2.214  10.943
80036W        W45197   1.767  13.051  14.942
80037W        W45198  17.063  21.727   0.763
80038W        W45199  29.485  23.403   0.841
80039W        W45200  28.758   2.277   4.003
80040W        W45201  32.888  14.321   4.678
80041W        W45202  40.267  40.560  12.904
80042W        W45203   0.102  43.949  14.502
80043W        W45204  29.167  34.328   3.035
80044W        W45205  12.717  26.928  11.132
80045W        W45206  12.929  10.795  12.006
80046W        W45207  16.281   3.345   4.445
80047W        W45208   4.949  19.557  12.115
80048W        W45209  17.588  44.721   4.607
80049W        W45210  34.315  14.196  13.140
80050W        W45211  14.869  34.414   2.307
80051W        W45212  31.472   0.046   2.103
80052W        W45213  41.298   1.696  14.756
80053W        W45214  42.748  16.244  14.001
80054W        W45215   1.719  40.122   4.099
80055W        W45216   8.360  22.669  12.449
80056W        W45217  44.804  29.830   2.380
80057W        W45218  19.318   1.363  12.651
80058W        W45219  40.563   8.446  10.611
80059W        W45220  18.801  43.109   2.716
80060W        W45221  13.833  31.015  14.256
80061W        W45222  16.615  44.570  10.758
80062W        W45223  36.045  10.846   4.600
80063W        W45224   3.559   7.699   0.320
80064W        W45225  23.909  17.292  14.270
80065W        W45226  22.778  38.714   2.733
80066W        W45227   1.165  11.661  13.046
80067W        W45228  30.373  23.054   3.595
80068W        W45229  14.188  11.164  10.821
80069W        W45230  33.369   6.668  11.703
80070W        W45231  40.098  36.392  13.854
80071W        W45232  14.677  13.111  11.564
80072W        W45233  27.638   9.996  12.104
80073W        W45234  41.881   9.079   3.330
80074W        W45235  20.634  15.111  13.977
80075W        W45236  15.931  34.922  12.126
80076W        W45237  42.363  21.996  11.038
80077W        W45238  14.249   3.983  12.556
80078W        W45239  25.373  37.177   9.865
80079W        W45240  34.614   3.150  13.323
80080W        W45241   2.697   0.319   4.138
80081W        W45242  42.497  16.717   1.878
80082W        W45243  40.744  33.930  11.155
80083W        W45244  11.673  37.550   0.502
80084W        W45245  23.711  43.081  10.756
80085W        W45246   5.505   2.006   3.400
80086W        W45247   5.251  36.349   0.357
80087W        W45248  16.293   0.066   9.677
80088W        W45249  16.342  24.348  13.833
80089W        W45250  34.370  20.109  14.630
80090W        W45251  41.766  22.450   3.090
80091W        W45252  17.771  44.958   4.169
80092W        W45253   5.947  18.452   4.808
80093W        W45254   3.163   4.371   4.818
80094W        W45255   8.230  28.012   0.024
80095W        W45256  17.009  26.922   0.894
80096W        W45257  29.988  32.101  11.343
80097W        W45258   8.542  30.575  11.080
80098W        W45259   2.141  28.154   4.541
80099W        W45260  38.809  39.014  10.389
80100W        W45261  25.078  12.221  12.591
80101W        W45262  21.212  37.551   1.363
80102W        W45263  22.812  16.284   4.530
80103W        W45264   9.276  15.077  13.052
80104W        W45265  23.041  25.851  11.689
80105W        W45266  28.380   2.536   2.307
80106W        W45267  25.132   8.368  12.912
80107W        W45268   7.636  21.962   1.296
80108W        W45269  31.311  23.127   0.716
80109W        W45270   6.550  40.482   0.888
80110W        W45271   4.024  41.281  13.865
80111W        W45272  26.176  36.307  11.153
80112W        W45273  15.786  29.483   2.807
80113W        W45274  17.606   9.070   1.377
80114W        W45275  39.980  22.977  12.505
80115W        W45276  25.067  42.733  11.603
80116W        W45277  20.014  18.387  12.170
80117W        W45278  34.767  30.472   1.895
80118W        W45279  31.598   4.434  10.370
80119W        W45280  26.472  34.977   1.655
80120W        W45281  29.180  32.151   4.108
80121W        W45282   9.213  17.773  10.999
80122W        W45283   8.652  27.423   4.012
80123W        W45284  38.831  10.989   9.932
80124W        W45285  34.947  36.504  11.755
80125W        W45286  20.322  27.546   0.451
80126W        W45287  36.796  28.558  10.731
80127W        W45288  28.018   8.729   2.350
80128W        W45289  31.383  30.003   3.042
80129W        W45290  35.807  31.415   4.377
80130W        W45291  22.744  30.113   4.741
80131W        W45292   2.840  17.525   4.112
80132W        W45293  35.045  23.006   3.390
80133W        W45294  43.764   5.298   1.299
80134W        W45295  32.755  22.723   4.691
80135W        W45296  26.667  28.589  13.034
80136W        W45297  37.827  40.160   1.810
80137W        W45298  43.748  18.142   4.737
80138W        W45299  26.116  21.719  11.039
80139W        W45300  35.849  43.928  10.694
80140W        W45301  35.442  44.565   0.965
80141W        W45302   4.415  11.981  12.722
80142W        W45303   8.673  31.333  12.805
80143W        W45304  37.856  23.940   2.095
80144W        W45305  43.029  17.537  14.159
80145W        W45306   6.976  27.634   4.876
80146W        W45307  26.685  11.348  13.415
80147W        W45308  38.946   5.722  12.684
80148W        W45309  30.161  11.699   0.802
80149W        W45310  24.736  16.655  12.914
80150W        W45311  26.984  44.623  12.947
80151W        W45312  13.562  42.836   2.929
80152W        W45313  15.278  39.883   2.605
80153W        W45314   7.876  26.987   3.666
80154W        W45315  18.137  31.258   1.316
80155W        W45316  28.851   6.273  13.372
80156W        W45317  13.750  18.153  12.908
80157W        W45318  38.492  22.271   3.657
80158W        W45319   0.283   6.267   1.427
80159W        W45320  26.902   3.259   1.527
80160W        W45321  23.909  43.435   4.192
80161W        W45322  41.506  11.094   4.226
80162W        W45323  44.915   8.422   1.350
80163W        W45324  18.773  26.100   2.184
80164W        W45325   9.109  12.128  10.986
80165W        W45326  41.723  22.768   5.060
80166W        W45327  21.733  44.445   4.575
80167W        W45328   6.403  15.588  12.931
80168W        W45329   0.912   5.265   4.784
80169W        W45330  30.227  31.575  12.507
80170W        W45331  18.166  23.193  13.476
80171W        W45332   1.820  42.485   4.402
80172W        W45333  22.268  22.488   3.366
80173W        W45334  18.080  18.990   0.907
80174W        W45335  32.385  10.659   1.276
80175W        W45336  22.052   8.446  12.163
80176W        W45337  39.839  29.138   2.550
80177W        W45338  28.923  32.037   2.734
80178W        W45339  16.486   8.776   2.197
80179W        W45340  24.927  18.873   0.507
80180W        W45341  30.112  26.455   1.249
80181W        W45342  38.103  40.638  13.347
80182W        W45343  25.468  31.131   2.142
80183W        W45344  29.675  36.430   3.732
80184W        W45345  16.338  44.966  14.357
80185W        W45346  35.754  35.923  12.997
80186W        W45347   1.449  40.430   3.140
80187W        W45348  23.164  18.016   0.005
80188W        W45349  43.023  43.945  10.044
80189W        W45350  16.301  43.802   0.922
80190W        W45351   7.980  28.742   3.832
80191W        W45352  31.976  26.394   4.450
80192W        W45353  33.135   0.079  11.809
80193W        W45354   1.330  16.645   2.806
80194W        W45355  23.250  24.473   5.037
80195W        W45356   1.423   2.445  12.099
80196W        W45357  35.457  40.959   4.100
80197W        W45358  26.924   2.821   4.196
80198W        W45359  14.243  30.867  11.619
80199W        W45360  27.081  32.984   3.205
80200W        W45361  14.864  21.574   1.476
80201W        W45362  19.312  16.357   2.257
80202W        W45363  43.440   3.676   2.748
80203W        W45364  22.586  23.949   1.695
80204W        W45365  18.258  42.084   3.379
80205W        W45366  29.416   4.325   1.616
80206W        W45367  10.865  39.524   1.279
80207W        W45368  18.548  23.317  14.785
80208W        W45369  16.592  26.882   3.602
80209W        W45370  20.821   5.965   0.192
80210W        W45371  42.890   6.977   1.335
80211W        W45372  41.322  24.730   3.728
80212W        W45373   6.994  40.856  14.819
80213W        W45374  31.044  37.369  14.917
80214W        W45375  20.259  16.865  13.484
80215W        W45376  26.113  14.784   1.687
80216W        W45377  19.273  32.896  13.618
80217W        W45378   6.900  13.697   2.829
80218W        W45379  38.271  15.446   1.312
80219W        W45380  20.238  43.764   1.859
80220W        W45381  31.687  13.870   0.330
80221W        W45382   1.101  33.507   4.044
80222W        W45383  37.932  33.423   1.591
80223W        W45384  18.727  20.580   0.680
80224W        W45385  10.233  19.498   0.229
80225W        W45386  37.880  25.004   1.365
80226W        W45387  14.549   9.166  11.209
80227W        W45388  18.766  19.710  11.621
80228W        W45389  18.299  38.960   2.188
80229W        W45390  21.203  11.830  12.855
80230W        W45391  43.776   2.958  10.440
80231W        W45392  35.503   6.399  14.391
80232W        W45393  28.155  10.839   5.451
80233W        W45394   3.263  32.916   2.784
80234W        W45395   1.015  34.770  14.542
80235W        W45396  31.795   0.841  13.351
80236W        W45397  40.579  25.319   1.881
80237W        W45398   6.902   6.657   3.616
80238W        W45399   7.970  38.329  12.502
80239W        W45400  13.031  33.374   1.949
80240W        W45401  26.587  40.465   2.311
80241W        W45402  15.745  44.437  13.056
80242W        W45403   8.173  44.546  12.257
80243W        W45404  37.373  36.300  13.118
80244W        W45405   2.982  22.433   5.053
80245W        W45406   6.334  36.270  14.877
80246W        W45407  21.410   4.195  11.053
80247W        W45408  40.270  27.584   2.289
80248W        W45409   2.356  19.990  14.373
80249W        W45410  42.101  13.380  13.914
80250W        W45411  18.234   2.377   1.894
80251W        W45412   4.656   5.224  10.645
80252W        W45413  42.514  31.591   3.616
80253W        W45414  18.733   9.146   1.900
80254W        W45415  29.996  10.231   3.799
80255W        W45416  16.617  37.868   0.060
80256W        W45417   3.743  34.828  14.760
80257W        W45418  33.160   3.904   1.560
80258W        W45419  28.174  30.647   4.500
80259W        W45420  39.075  33.035  12.073
80260W        W45421  21.566  43.818  11.589
80261W        W45422   3.486  33.174  11.993
80262W        W45423  22.751  30.383  13.011
80263W        W45424  11.734   5.091   1.440
80264W        W45425   8.653  42.893   2.476
80265W        W45426  40.015   9.705  11.366
80266W        W45427  28.524  12.931   0.487
80267W        W45428   5.048  38.791  14.497
80268W        W45429  27.846   3.430  10.680
80269W        W45430   3.413  12.569  11.889
80270W        W45431   8.014  10.672   2.728
80271W        W45432  20.321  41.477   1.257
80272W        W45433  33.950  23.986  11.037
80273W        W45434  15.296  37.115   4.499
80274W        W45435  26.016  20.673  13.718
80275W        W45436  14.079  21.784  14.017
80276W        W45437  21.694   6.944  12.843
80277W        W45438   9.130  42.911   2.246
80278W        W45439  21.196  12.427  12.633
80279W        W45440  19.179   0.575  13.877
80280W        W45441  25.725  44.285  14.572
80281W        W45442   2.939  24.899   1.801
80282W        W45443  26.183   9.465   2.701
80283W        W45444   5.855  20.432  13.158
80284W        W45445  10.347  34.399   0.781
80285W        W45446  21.107  39.386  12.770
80286W        W45447  16.296  43.368   2.854
80287W        W45448   7.451  19.376  11.730
80288W        W45449  17.352  12.271   2.662
80289W        W45450  25.188  39.779  11.976
80290W        W45451  39.733  26.410  14.410
80291W        W45452  14.564  32.943   1.320
80292W        W45453  41.714  39.129   4.174
80293W        W45454  30.091  34.672   1.841
80294W        W45455  17.627  13.068   3.633
80295W        W45456   5.674  42.156   1.365
80296W        W45457  31.553  13.856  11.517
80297W        W45458  28.702  15.342  13.499
80298W        W45459   0.782  34.316   4.051
80299W        W45460   5.988  22.179   3.172
80300W        W45461  23.152  36.474  13.854
80301W        W45462  33.095  23.996  10.119
80302W        W45463  35.650  34.790   2.163
80303W        W45464  39.604  42.884  11.109
80304W        W45465  34.464  20.928  13.448
80305W        W45466  23.068  14.730  13.514
80306W        W45467   5.217  14.164   3.720
80307W        W45468  38.606  24.726   0.310
80308W        W45469   9.689  34.963   0.293
80309W        W45470  19.547   1.810   4.858
80310W        W45471   7.659  17.146  13.740
80311W        W45472  41.147   8.217  12.023
80312W        W45473  40.951  37.688   0.846
80313W        W45474  27.499  25.967  12.267
80314W        W45475  44.959  15.128   1.542
80315W        W45476  24.378  20.401  13.433
80316W        W45477  10.794  21.541   1.374
80317W        W45478  18.887  32.018  10.709
80318W        W45479   3.199  32.112  14.964
80319W        W45480  21.029  27.109   1.819
80320W        W45481  42.229  43.316   4.127
80321W        W45482  40.430  20.936   2.160
80322W        W45483  12.249  31.901  12.104
80323W        W45484   3.888  36.383   0.093
80324W        W45485   7.236  17.153  14.721
80325W        W45486  41.332  39.443   1.054
80326W        W45487   2.718  32.029  11.654
80327W        W45488  27.004  12.386   3.213
80328W        W45489   5.836  22.621   4.169
80329W        W45490   1.304  37.224  11.162
80330W        W45491  27.696  20.988  13.103
80331W        W45492  22.575   3.475   1.487
80332W        W45493  33.595  25.369  14.719
80333W        W45494  30.375  10.227   1.733
80334W        W45495  39.554  39.915  12.880
80335W        W45496  41.571  32.947   2.191
80336W        W45497  42.790  43.556   1.739
80337W        W45498   8.919  21.743  13.488
80338W        W45499  22.564  13.892   2.326
80339W        W45500  37.329  22.098  13.829
80340W        W45501  22.000  39.894   4.007
80341W        W45502  13.172  44.277   0.743
80342W        W45503  12.709  43.345   3.599
80343W        W45504  21.878   1.476  11.589
80344W        W45505  41.255  26.975   0.711
80345W        W45506  27.393  26.311  12.666
80346W        W45507  43.870  35.804   3.299
80347W        W45508  39.057  13.217  11.599
80348W        W45509   4.581   9.657   3.067
80349W        W45510   8.723  21.033  11.367
80350W        W45511  11.360  14.282   3.773
80351W        W45512  23.005  19.170   3.687
80352W        W45513  28.862  16.052  14.168
80353W        W45514  27.051  37.715   5.199
80354W        W45515   9.266  15.436  13.949
80355W        W45516  11.047   9.310  10.918
80356W        W45517  10.430  27.833  11.568
80357W        W45518  29.630  41.566  10.593
80358W        W45519  43.934  16.824  11.021
80359W        W45520  25.104  10.268   4.468
80360W        W45521   3.149  27.916   1.947
80361W        W45522  44.524  26.356   4.992
80362W        W45523  19.697  11.229   0.774
80363W        W45524  27.662  34.906  14.048
80364W        W45525  23.650  23.429   0.821
80365W        W45526   4.859  24.971   5.194
80366W        W45527  14.981  39.236  10.980
80367W        W45528  35.536   5.708   4.383
80368W        W45529  17.401   8.041   4.030
80369W        W45530  30.411  33.440  11.447
80370W        W45531  14.124  24.000   4.941
80371W        W45532  38.505  19.537  14.815
80372W        W45533  26.574   3.782  11.076
80373W        W45534   0.831  33.712   1.151
80374W        W45535  38.189   8.188  10.724
80375W        W45536  20.117  23.956  14.410
80376W        W45537  39.239   8.656   3.718
80377W        W45538  43.320  44.300  11.804
80378W        W45539  28.981   4.715   1.883
80379W        W45540   7.138  33.365   0.384
80380W        W45541   9.791  12.886  13.035
80381W        W45542  30.169  27.707  12.719
80382W        W45543   3.262  17.254  14.823
80383W        W45544   6.343  12.796  11.646
80384W        W45545  21.316  14.595   4.137
80385W        W45546  27.521  29.124   2.211
80386W        W45547  22.782  28.513   1.280
80387W        W45548   0.369   7.771  11.473
80388W        W45549  13.344  20.871  13.522
80389W        W45550  26.678  31.202   3.289
80390W        W45551  42.737  18.553   0.150
80391W        W45552  15.661  24.803   0.039
80392W        W45553  12.678   0.166   2.418
80393W        W45554  41.583  40.319  13.027
80394W        W45555  23.287  37.463  14.870
80395W        W45556  25.189  44.939  13.990
80396W        W45557  22.613   7.430   5.148
80397W        W45558  38.359   6.357   3.894
80398W        W45559   2.216  26.323   4.936
80399W        W45560  32.027  15.236  13.572
80400W        W45561  43.024  33.463  10.280
80401W        W45562  27.384  10.411  11.929
80402W        W45563  15.794  38.151   4.156
80403W        W45564  10.439   4.160  13.873
80404W        W45565  30.721  28.422  11.482
80405W        W45566  16.112  44.469  10.749
80406W        W45567  25.095  31.714  13.168
80407W        W45568  39.975  34.271   4.721
80408W        W45569  10.804  43.030   3.201
80409W        W45570  39.088  25.856  10.452
80410W        W45571  43.548  11.808  12.612
80411W        W45572  21.968   9.254  13.836
80412W        W45573  15.350   5.897   3.591
80413W        W45574  12.381   6.534  13.365
80414W        W45575  42.011   6.834  11.338
80415W        W45576  38.092  32.568   3.386
80416W        W45577  21.437  28.594   1.768
80417W        W45578  29.559  19.508  13.564
80418W        W45579  13.968   3.318   2.764
80419W        W45580  13.337  32.025   1.688
80420W        W45581  17.264  28.992  14.030
80421W        W45582  29.139  33.240   4.151
80422W        W45583  16.020   1.322  13.399
80423W        W45584   6.919   3.910  10.554
80424W        W45585  19.493   2.230  11.245
80425W        W45586  29.931  17.660  12.649
80426W        W45587  44.420  23.172   4.570
80427W        W45588   1.505  14.320  12.772
80428W        W45589  37.420  38.032   2.594
80429W        W45590  17.037  13.612  13.850
80430W        W45591  26.410   0.424  14.913
80431W        W45592  14.177  28.513  12.963
80432W        W45593  16.723  44.960   0.187
80433W        W45594  25.340  13.701   3.439
80434W        W45595  11.577   4.830  13.703
80435W        W45596   3.618   5.796   4.284
80436W        W45597  11.119  39.456   1.748
80437W        W45598  32.094  43.219  11.909
80438W        W45599   5.730   7.734   1.906
80439W        W45600  12.627  32.138   3.635
80440W        W45601   3.035  32.407  13.265
80441W        W45602  29.022  29.463  10.577
80442W        W45603  12.771  32.566  13.931
80443W        W45604   6.886   1.322  12.463
80444W        W45605  39.320  12.242  12.959
80445W        W45606   2.706  40.327   1.141
80446W        W45607  25.022  33.615  13.419
80447W        W45608  35.100  44.761   3.766
80448W        W45609   3.280  29.576  12.439
80449W        W45610   6.965  38.449   3.248
80450W        W45611  25.441  22.799  14.466
80451W        W45612  19.522   7.222   1.854
80452W        W45613  40.417  15.330   0.355
80453W        W45614  22.484  44.033  12.054
80454W        W45615   8.997  25.987   2.723
80455W        W45616  31.776  31.729  12.638
80456W        W45617  12.818  19.963  11.912
80457W        W45618  35.815   4.731   2.754
80458W        W45619  39.646  28.180   4.529
80459W        W45620   7.165  14.490   1.292
80460W        W45621  26.425  25.080  14.381
80461W        W45622   2.800  20.184   1.605
80462W        W45623  37.897  18.545  12.084
80463W        W45624  23.553  15.554   1.671
80464W        W45625  39.188  42.751  12.831
80465W        W45626  42.825   2.816   3.790
80466W        W45627  38.221  21.655  14.038
80467W        W45628  31.910  41.485   1.297
80468W        W45629  44.950  26.049   4.990
80469W        W45630  40.360  40.658  12.398
80470W        W45631  14.343  19.999   0.543
80471W        W45632  29.649  35.385  13.698
80472W        W45633  13.030  33.526  11.432
80473W        W45634  15.853  15.951  10.218
80474W        W45635   6.868   2.672  11.797
80475W        W45636  41.814  42.253  11.498
80476W        W45637  30.962  30.200   0.937
80477W        W45638  33.131  35.642  11.441
80478W        W45639  10.849  14.284   3.673
80479W        W45640  12.117   7.344   0.030
80480W        W45641  33.738  11.785  11.248
80481W        W45642  42.788  44.942   3.285
80482W        W45643   9.432  43.495  14.286
80483W        W45644   4.730  31.960  11.567
80484W        W45645  14.973  41.454  13.902
80485W        W45646  37.471   5.298   0.082
80486W        W45647  12.732   6.411   3.201
80487W        W45648   5.932  29.972   3.185
80488W        W45649  22.850  28.576   3.776
80489W        W45650  20.558   9.711  11.660
80490W        W45651  39.680  16.683  11.526
80491W        W45652  21.014   8.440  14.379
80492W        W45653  18.791   7.242   3.699
80493W        W45654  17.551  39.827  13.041
80494W        W45655  35.466   0.266   0.486
80495W        W45656  15.480  13.042   3.737
80496W        W45657  16.840   6.751  11.638
80497W        W45658  20.080  17.054  13.924
80498W        W45659  13.807  15.735  11.231
80499W        W45660  13.447  16.464   3.776
80500W        W45661  35.026  36.989   0.400
80501W        W45662  11.608  38.327  12.412
80502W        W45663  31.217  25.065   1.288
80503W        W45664   0.379   0.866  13.388
80504W        W45665   8.334  25.691   0.776
80505W        W45666   5.418   0.557   2.784
80506W        W45667  13.065  15.232  10.797
80507W        W45668  27.504  15.385   3.172
80508W        W45669  25.670  42.429  11.349
80509W        W45670  27.002  11.423   1.233
80510W        W45671  36.083  44.412  13.448
80511W        W45672  27.867  26.540   2.200
80512W        W45673  24.582  17.686   2.264
80513W        W45674  28.495   8.569   4.094
80514W        W45675  19.591  34.783   2.173
80515W        W45676  23.101   1.587   0.251
80516W        W45677  29.768  32.964   0.901
80517W        W45678  42.661   0.438   0.674
80518W        W45679  23.111  42.131   5.143
80519W        W45680   7.705  39.942   0.821
80520W        W45681  18.345   7.474   0.272
80521W        W45682  24.024   1.245  14.998
80522W        W45683  43.402  12.624  13.013
80523W        W45684  25.894   8.515   3.585
80524W        W45685  43.438   0.293  10.738
80525W        W45686  12.353  25.982   3.229
80526W        W45687  11.689  18.956  13.362
80527W        W45688  38.502  18.286   0.820
80528W        W45689  43.907   7.617   0.732
80529W        W45690  43.923  17.953  14.510
80530W        W45691   8.018  26.060   3.277
80531W        W45692  28.210  11.855   2.849
80532W        W45693   6.045   2.376  11.284
80533W        W45694   5.939   2.159  14.891
80534W        W45695  37.457  40.247  11.598
80535W        W45696  32.460  26.129  11.203
80536W        W45697  43.354  32.887  12.156
80537W        W45698  17.111  22.433   1.827
80538W        W45699   6.777  28.198   0.044
80539W        W45700  42.802  23.742  11.032
80540W        W45701  13.936  43.853  10.793
80541W        W45702  14.514  39.276  11.198
80542W        W45703  29.249  24.798   5.107
80543W        W45704  42.532   4.926   4.178
80544W        W45705  27.585  20.049   2.503
80545W        W45706   7.952  12.780  11.179
80546W        W45707  21.171  34.936  11.174
80547W        W45708  26.173  40.084  13.837
80548W        W45709  44.805  40.815  13.045
80549W        W45710  37.441  13.244   4.593
80550W        W45711  22.692  20.025   1.129
80551W        W45712  38.842  38.108  13.432
80552W        W45713  16.273   4.267   4.167
80553W        W45714   2.543  42.828  11.511
80554W        W45715  19.804   9.353  13.077
80555W        W45716  44.340  29.204  13.524
80556W        W45717   2.015  26.431   2.817
80557W        W45718  43.494  13.643  14.407
80558W        W45719  33.500  32.098  10.312
80559W        W45720  19.684   2.478   3.670
80560W        W45721  35.491  35.127  14.394
80561W        W45722  26.711  19.452   4.501
80562W        W45723  14.612  43.593  13.895
80563W        W45724   2.218   0.854  10.760
80564W        W45725  22.109  28.019  12.040
80565W        W45726  12.917  42.114  11.566
80566W        W45727  14.766  30.712  10.507
80567W        W45728  10.751   5.411  14.116
80568W        W45729  21.055  12.481   3.365
80569W        W45730   9.287  22.623   1.088
80570W        W45731  28.653  26.830  14.377
80571W        W45732  23.409  32.436   2.681
80572W        W45733  12.545  13.194   3.363
80573W        W45734  17.080  35.253  11.571
80574W        W45735  12.181   6.912  14.183
80575W        W45736   6.351  12.851   4.097
80576W        W45737  17.753   6.647   4.584
80577W        W45738   0.829  11.328   4.002
80578W        W45739  10.725  11.608  11.176
80579W        W45740   3.292  33.648  12.954
80580W        W45741  19.805  15.222  14.382
80581W        W45742  41.289  18.687   2.640
80582W        W45743  34.161  28.555   4.593
80583W        W45744   4.629   0.688  12.728
80584W        W45745  27.706  26.430   9.725
80585W        W45746   2.228   4.860   4.122
80586W        W45747  23.573   9.393   3.664
80587W        W45748  15.042  36.095  11.272
80588W        W45749  14.407  41.839  10.620
80589W        W45750  40.701   8.263   3.295
80590W        W45751   3.661   2.400  14.292
80591W        W45752  36.468  33.707  11.957
80592W        W45753   7.837  19.298   4.599
80593W        W45754  28.630   4.463   0.725
80594W        W45755  40.765  31.253  12.934
80595W        W45756   0.847  16.375  13.413
80596W        W45757  42.060   8.614  12.496
80597W        W45758  26.977   2.496   4.690
80598W        W45759  42.930   6.395  12.858
80599W        W45760  21.425  38.349   1.628
80600W        W45761  15.467  41.003  11.694
80601W        W45762  14.713  17.559  12.895
80602W        W45763  13.327   6.456  11.086
80603W        W45764   3.495  16.097  11.836
80604W        W45765   5.568   6.439  13.456
80605W        W45766  17.262  35.856   1.407
80606W        W45767  11.316  33.928   1.827
80607W        W45768  19.145  14.395  10.752
80608W        W45769  36.400  22.504   2.216
80609W        W45770  27.527   1.617   3.704
80610W        W45771  21.050  44.716  10.280
80611W        W45772  36.390   5.347  13.459
80612W        W45773   6.154  35.294   0.203
80613W        W45774  34.858  20.632  11.625
80614W        W45775  41.408  36.516   0.501
80615W        W45776  20.715  29.891   1.865
80616W        W45777  35.537  20.562  14.862
80617W        W45778  15.334  26.234   3.967
80618W        W45779  28.849   4.027   4.527
80619W        W45780  24.655  40.610   1.346
80620W        W45781  17.199  30.942  11.396
80621W        W45782  19.168  36.864   4.573
80622W        W45783  26.956  35.547   1.161
80623W        W45784  29.183  16.377  11.644
80624W        W45785   3.004  14.365   2.123
80625W        W45786  26.727   6.739  13.419
80626W        W45787  43.975  10.579   2.956
80627W        W45788   5.077  11.646   9.724
80628W        W45789   7.116   9.742  11.592
80629W        W45790  38.749  36.255   4.774
80630W        W45791  25.252   8.224   1.899
80631W        W45792  43.513  14.240   3.807
80632W        W45793  18.144  34.701  12.626
80633W        W45794   8.151  36.280   3.745
80634W        W45795  16.357   9.817  12.995
80635W        W45796   9.662  14.171  12.433
80636W        W45797  35.323  31.258  12.354
80637W        W45798  44.695  22.969   2.648
80638W        W45799   2.698  17.319   1.436
80639W        W45800  29.010  28.922   3.424
80640W        W45801  36.365  36.864   0.275
80641W        W45802  44.363  44.879   1.970
80642W        W45803  22.569  35.560  10.618
80643W        W45804   4.914  33.998  10.644
80644W        W45805   7.142  37.096   4.035
80645W        W45806  35.166  11.227   0.355
80646W        W45807  15.104   7.580   2.666
80647W        W45808  42.689  35.596  12.443
80648W        W45809  41.869  25.121   0.162
80649W        W45810  32.575  39.989   3.198
80650W        W45811   2.995  19.732   1.399
80651W        W45812  38.470   3.794  11.436
80652W        W45813  42.318  27.928   0.307
80653W        W45814  24.033   1.855   3.137
80654W        W45815  16.654  18.179  11.261
80655W        W45816  41.430  17.077  12.997
80656W        W45817  36.093  32.455   1.828
80657W        W45818  43.847   8.240  13.926
80658W        W45819  17.852  28.624  13.099
80659W        W45820  19.032  44.259  10.050
80660W        W45821  38.015  34.017  10.420
80661W        W45822  12.639  16.911   1.892
80662W        W45823  11.693  31.524   1.648
80663W        W45824  16.265  10.062   4.229
80664W        W45825  42.997   6.474  11.023
80665W        W45826  12.786  11.588   2.367
80666W        W45827  15.694  27.477   0.972
80667W        W45828  16.354  25.236   0.911
80668W        W45829  19.124  21.710  10.749
80669W        W45830  29.027  27.417  13.052
80670W        W45831  23.472  35.569  12.438
80671W        W45832  27.268  40.802   3.330
80672W        W45833  25.474  10.619  11.648
80673W        W45834  22.531  18.876   1.854
80674W        W45835   6.316  39.744  12.774
80675W        W45836  34.504  21.222  12.989
80676W        W45837  35.824  40.809   1.714
80677W        W45838  41.252  31.904  14.346
80678W        W45839  25.104  32.064   3.790
80679W        W45840  14.443  40.331   5.211
80680W        W45841   4.167  32.639  14.277
80681W        W45842  22.273   2.796  11.566
80682W        W45843  35.642   1.728   2.745
80683W        W45844  18.528  42.930  11.155
80684W        W45845  41.337  37.654   3.054
80685W        W45846  38.597  31.666   3.664
80686W        W45847  36.631  35.874   1.965
80687W        W45848  41.340  32.970   3.151
80688W        W45849  21.194  11.721   3.837
80689W        W45850   8.343  26.494   0.015
80690W        W45851  25.686   5.948   1.411
80691W        W45852  14.729  38.606   3.654
80692W        W45853  25.480   3.255  10.222
80693W        W45854   1.489  12.268   0.953
80694W        W45855  32.096   0.170  12.615
80695W        W45856  11.193  13.135   4.051
80696W        W45857  36.342  42.999   0.317
80697W        W45858  20.293  29.998   2.826
80698W        W45859  14.205  33.355   0.218
80699W        W45860  13.605   6.578   3.017
80700W        W45861  29.042  10.761  14.416
80701W        W45862  27.976  39.900   2.310
80702W        W45863   7.633  17.580   3.304
80703W        W45864  43.039   4.173   4.842
80704W        W45865  15.257  39.816  14.018
80705W        W45866  24.057  25.238   4.607
80706W        W45867  12.551  14.154  12.027
80707W        W45868  19.693  10.200  13.490
80708W        W45869  25.199  24.601  13.319
80709W        W45870   2.903  21.905  14.888
80710W        W45871   0.795  16.247   5.446
80711W        W45872  16.794  44.070   2.373
80712W        W45873  16.042   5.266  14.886
80713W        W45874  14.302  35.051   3.602
80714W        W45875  14.712  10.338  10.712
80715W        W45876  37.972  28.822  10.307
80716W        W45877  16.254  10.150  11.314
80717W        W45878  40.297  41.746  10.516
80718W        W45879  31.937  27.850  13.971
80719W        W45880  21.239  28.592  13.103
80720W        W45881  30.949  44.462  14.378
80721W        W45882  20.095  29.879   0.351
80722W        W45883  18.742   5.514   1.284
80723W        W45884  25.931  29.278  12.489
80724W        W45885  44.250  20.976   0.839
80725W        W45886  44.071  37.146  13.791
80726W        W45887   2.148  18.277  13.006
80727W        W45888  34.346  24.343  14.896
80728W        W45889  19.536  23.200  14.881
80729W        W45890  15.123  24.252  13.776
80730W        W45891   9.601  22.996  11.866
80731W        W45892  30.139   6.283  14.303
80732W        W45893  38.422   4.927   2.816
80733W        W45894  26.399  39.438  11.630
80734W        W45895   9.326   5.820   0.767
80735W        W45896  25.519  14.828  11.592
80736W        W45897  13.270   9.153   3.378
80737W        W45898   3.996  40.990   1.158
80738W        W45899   4.110  36.384  14.196
80739W        W45900  15.689  29.389  14.977
80740W        W45901  42.722  19.048  12.929
80741W        W45902  43.174   0.200  11.984
80742W        W45903  31.363   8.138   1.767
80743W        W45904   3.887  14.321  13.425
80744W        W45905  26.964  20.527   0.375
80745W        W45906  14.183  30.707  13.447
80746W        W45907  23.782   3.213  13.806
80747W        W45908  20.059  36.045  13.974
80748W        W45909   9.930  38.056   4.066
80749W        W45910  18.194  35.962  11.593
80750W        W45911  37.983  11.897   2.606
80751W        W45912   4.151   2.354  13.488
80752W        W45913  40.336  12.908  10.476
80753W        W45914  13.648   9.200   1.255
80754W        W45915   2.872   2.968   1.662
80755W        W45916  29.746  12.505  14.424
80756W        W45917   9.959   2.394   4.681
80757W        W45918  18.568  24.583   4.907
80758W        W45919   2.351  40.823  13.389
80759W        W45920  13.275  25.591   3.009
80760W        W45921   1.586  33.695   2.380
80761W        W45922  21.253  27.462   2.751
80762W        W45923  31.984  12.621   3.422
80763W        W45924   1.356   2.533  10.875
80764W        W45925   8.676   7.448   0.838
80765W        W45926  19.273  20.826  13.442
80766W        W45927  30.973  44.485  13.842
80767W        W45928  30.026  43.090  12.666
80768W        W45929  26.992  33.915   4.753
80769W        W45930  11.817  11.087   3.141
80770W        W45931  33.813  16.011   3.540
80771W        W45932  20.732  32.077  10.663
80772W        W45933  11.359  25.512  10.696
80773W        W45934  25.022  24.711   3.885
80774W        W45935  26.496  41.337   2.163
80775W        W45936  39.350   4.551  10.818
80776W        W45937   6.688  31.598  12.238
80777W        W45938  18.780   2.327   1.179
80778W        W45939  15.595  38.666   2.396
80779W        W45940  16.990   7.908  12.394
80780W        W45941  10.097  18.664   2.377
80781W        W45942  38.448  35.671  13.805
80782W        W45943  42.044  30.532   3.313
80783W        W45944  32.613   1.473   5.054
80784W        W45945  43.381  44.545   0.439
80785W        W45946  35.199   7.393  12.914
80786W        W45947  38.564  10.312   2.654
80787W        W45948  31.961  32.893   0.812
80788W        W45949  29.050  27.356   3.953
80789W        W45950  37.803   8.785   3.746
80790W        W45951   6.407  22.702  11.627
80791W        W45952  35.150   1.937  14.876
80792W        W45953  35.593  12.754   1.126
80793W        W45954   8.356   3.739   3.909
80794W        W45955  11.285  30.199   4.545
80795W        W45956   9.245  12.544  12.902
80796W        W45957  40.509  42.402   4.862
80797W        W45958  20.829  41.885   2.439
80798W        W45959  11.382  16.677   0.202
80799W        W45960  44.413  19.972   4.671
80800W        W45961   1.495  27.001   4.070
80801W        W45962  38.265   7.915  11.218
80802W        W45963  22.722  44.763   2.818
80803W        W45964  37.275   2.955  14.503
80804W        W45965  44.839  43.567   1.768
80805W        W45966  20.184   4.687   3.189
80806W        W45967  36.525  21.604   3.572
80807W        W45968  27.651  36.826  13.045
80808W        W45969  19.337  31.497   0.011
80809W        W45970   0.697  18.181   3.746
80810W        W45971   1.987  20.735  14.067
80811W        W45972  25.409  37.444   3.852
80812W        W45973  20.059  34.560   1.402
80813W        W45974  15.407   4.735  11.122
80814W        W45975   8.585  31.574   4.887
80815W        W45976  28.989   5.205   2.283
80816W        W45977  18.576  44.369  12.372
80817W        W45978  20.982  41.519  13.883
80818W        W45979  20.749  20.491   3.120
80819W        W45980  32.501  38.066   0.465
80820W        W45981  38.783  17.853  13.380
80821W        W45982  38.442  38.489  11.030
80822W        W45983  34.549  35.308   0.289
80823W        W45984  16.903   5.042   0.897
80824W        W45985  10.755  27.083  11.962
80825W        W45986  31.626  39.907  13.842
80826W        W45987  19.516   6.433  13.495
80827W        W45988  34.166  34.610  10.614
80828W        W45989  17.079   1.749   3.608
80829W        W45990   9.140   1.392  13.970
80830W        W45991   0.858  30.380  14.815
80831W        W45992  15.731   8.139  12.149
80832W        W45993  25.650  26.029  12.446
80833W        W45994   5.200  23.302  11.958
80834W        W45995  32.114  11.200  14.252
80835W        W45996  23.715  20.213  11.729
80836W        W45997  30.391  40.075   0.254
80837W        W45998   5.620  16.776   0.743
80838W        W45999   4.605  20.887   1.892
80839W        W46000  11.864  40.428   2.418
80840W        W46001  31.613   2.773   0.409
80841W        W46002  30.623  42.099  13.800
80842W        W46003  37.585  10.185   1.399
80843W        W46004  12.718  18.059  14.933
80844W        W46005  21.768   5.316  11.986
80845W        W46006   0.011  22.170   1.283
80846W        W46007  32.785  44.850   0.430
80847W        W46008  32.434  22.067  14.066
80848W        W46009  25.549  42.596  10.447
80849W        W46010  19.075  41.753  13.445
80850W        W46011   1.689  20.479   0.347
80851W        W46012  23.788  28.091  10.671
80852W        W46013  23.598  19.610   0.957
80853W        W46014  28.120  26.981   2.244
80854W        W46015  22.604  41.317   9.728
80855W        W46016  29.447  43.364   0.023
80856W        W46017  27.901   7.417   9.874
80857W        W46018  32.255   4.440   4.637
80858W        W46019  19.014  15.778   4.093
80859W        W46020  19.871  21.304  10.190
80860W        W46021  35.083  16.625   1.134
80861W        W46022  26.093  34.454  14.019
80862W        W46023  31.587  32.983   1.275
80863W        W46024  20.223   9.593  13.281
80864W        W46025  42.016  29.449   3.652
80865W        W46026  27.958  33.950   4.674
80866W        W46027   4.034  16.945   0.703
80867W        W46028  27.675   8.438  12.038
80868W        W46029  22.962  43.823   2.750
80869W        W46030  14.375  35.415   2.388
80870W        W46031  28.412  37.738   3.062
80871W        W46032   5.419  16.826  13.010
80872W        W46033  27.299  12.316  13.068
80873W        W46034   4.841   1.786  13.504
80874W        W46035  30.558  16.870   3.975
80875W        W46036  38.551  43.397   1.298
80876W        W46037  35.448  31.364   0.460
80877W        W46038   8.537  23.143  13.363
80878W        W46039  32.627  41.595  12.517
80879W        W46040   1.866   2.020  11.188
80880W        W46041  17.230  32.425   3.725
80881W        W46042   9.136  11.381   1.905
80882W        W46043  12.740  11.765  12.047
80883W        W46044   9.427  13.720   0.806
80884W        W46045   6.190  14.358  13.822
80885W        W46046  10.213  28.197   4.714
80886W        W46047   6.126  30.852  14.725
80887W        W46048  19.960  26.451  11.590
80888W        W46049  44.852  41.941   4.606
80889W        W46050  36.104  14.726   5.054
80890W        W46051  41.947  26.485  12.580
80891W        W46052   6.248   8.344   4.153
80892W        W46053  33.584  35.617  10.580
80893W        W46054  17.093  22.738  12.039
80894W        W46055  44.271  38.348   2.197
80895W        W46056  36.290   3.604  13.015
80896W        W46057   3.443  43.913  13.625
80897W        W46058  11.843   9.610  13.490
80898W        W46059  26.969  42.079  13.329
80899W        W46060  20.149  17.232  12.537
80900W        W46061  31.951   1.326   2.290
80901W        W46062  27.941  24.769   4.806
80902W        W46063  24.118  18.269  14.051
80903W        W46064   4.966   6.863   2.805
80904W        W46065  21.728   7.763   1.754
80905W        W46066  32.465  38.737   3.372
80906W        W46067  17.117   7.418   3.585
80907W        W46068  31.941   5.011   4.240
80908W        W46069  43.679  44.431  11.439
80909W        W46070  27.459   6.723  10.924
80910W        W46071  23.192   2.540  13.015
80911W        W46072  22.820  20.584  14.487
80912W        W46073  12.645  14.284   1.385
80913W        W46074  34.338   7.676  11.587
80914W        W46075   9.244  33.475   2.357
80915W        W46076   6.996  23.001   2.817
80916W        W46077  34.605  34.187  11.977
80917W        W46078  40.032  39.768   0.844
80918W        W46079   8.915  13.014  14.830
80919W        W46080  21.719  14.001  14.461
80920W        W46081  43.624  30.167   2.484
80921W        W46082  15.598  27.576  14.045
80922W        W46083   7.838  42.535   3.710
80923W        W46084   7.408   7.865  11.389
80924W        W46085   3.373  38.304   0.895
80925W        W46086  14.311  33.381   4.104
80926W        W46087  11.860   2.394   1.912
80927W        W46088  17.829   3.039   2.158
80928W        W46089  37.333  15.468   0.462
80929W        W46090  22.135  25.891  11.213
80930W        W46091  25.042  30.364   0.762
80931W        W46092  42.426  15.378   1.982
80932W        W46093  19.601  19.729  12.142
80933W        W46094  33.909  19.100   2.776
80934W        W46095   9.062  22.289   3.053
80935W        W46096  26.569   7.903   3.653
80936W        W46097  30.601  28.711   0.379
80937W        W46098  18.854  20.173   2.796
80938W        W46099  38.380  26.437  14.211
80939W        W46100  26.306  20.193   2.714
80940W        W46101  21.775  38.032   3.715
80941W        W46102  30.075  11.529   4.485
80942W        W46103  21.561  27.991   2.981
80943W        W46104   2.762   4.289   1.964
80944W        W46105  24.437   3.963  11.121
80945W        W46106  23.344  30.794  12.457
80946W        W46107  20.603  21.178   1.128
80947W        W46108  18.296  29.962  10.364
80948W        W46109  13.223  39.907  14.465
80949W        W46110  40.039   9.285   0.016
80950W        W46111  10.885   3.094   0.288
80951W        W46112  14.578  44.274  10.751
80952W        W46113  15.688  36.637  11.533
80953W        W46114  38.857  10.684   1.403
80954W        W46115   5.443  12.759   0.663
80955W        W46116   9.323  30.427  10.426
80956W        W46117   5.970  37.889   4.902
80957W        W46118  18.727  44.060  10.451
80958W        W46119  15.758  43.253  14.402
80959W        W46120  41.350  28.047  12.686
80960W        W46121  40.405  44.487   3.633
80961W        W46122  14.636  32.579  12.777
80962W        W46123  27.073  18.876  10.787
80963W        W46124   1.463  30.662   2.754
80964W        W46125  18.602   5.237   4.400
80965W        W46126  41.857  32.161   0.725
80966W        W46127  41.819  25.001  13.399
80967W        W46128  38.868  13.600   3.359
80968W        W46129   5.937   3.496   2.238
80969W        W46130  21.141  18.505   3.802
80970W        W46131  12.622  41.698  11.715
80971W        W46132  13.399  43.293   2.733
80972W        W46133  43.940  20.183  12.555
80973W        W46134  18.107  28.573  10.699
80974W        W46135  19.089  11.753  12.604
80975W        W46136  38.601   0.471   2.970
80976W        W46137  29.144  43.861   3.147
80977W        W46138  12.798  34.712   4.857
80978W        W46139  10.304  20.544  14.325
80979W        W46140  24.588  14.798  11.421
80980W        W46141  35.517  38.617  13.595
80981W        W46142  29.537  18.807   1.235
80982W        W46143  14.763  28.706   4.151
80983W        W46144  22.020  12.826   3.308
80984W        W46145   3.593   9.657   3.847
80985W        W46146  44.865  44.294   2.392
80986W        W46147  24.591  26.204   1.652
80987W        W46148  34.575  36.375   5.206
80988W        W46149  23.817   3.024   1.986
80989W        W46150   5.929  22.117   0.472
80990W        W46151  30.517   0.514  13.554
80991W        W46152  29.159  36.276  11.598
80992W        W46153  38.334  22.579  11.190
80993W        W46154  22.200  21.101   4.045
80994W        W46155  21.748  41.899  12.828
80995W        W46156  33.214  10.299   4.081
80996W        W46157  30.583  17.431  11.181
80997W        W46158   9.290  16.747  11.336
80998W        W46159  25.284  38.937  13.112
80999W        W46160  18.740  42.067   1.262
81000W        W46161  26.725  33.528   2.203
81001W        W46162  22.539  20.076   4.605
81002W        W46163   9.620   2.249  11.184
81003W        W46164   3.214  20.651   4.235
81004W        W46165  11.866  29.450   2.859
81005W        W46166  16.347   9.292  11.596
81006W        W46167  30.865   4.786  14.338
81007W        W46168   9.837   9.157   2.231
81008W        W46169  19.950  27.352   3.982
81009W        W46170  27.898  20.940   2.137
81010W        W46171  37.544  17.061  13.507
81011W        W46172  25.629   8.846   4.920
81012W        W46173  20.714   2.151  11.984
81013W        W46174  10.788  30.448  14.407
81014W        W46175  28.345   3.133   5.005
81015W        W46176  43.040  26.106   0.806
81016W        W46177  41.332   4.451   2.751
81017W        W46178  19.701  14.577   3.329
81018W        W46179  38.510  38.767  12.032
81019W        W46180  21.467  25.693   0.826
81020W        W46181   3.446  18.296   3.587
81021W        W46182   5.143  41.272  12.157
81022W        W46183  22.626   6.375  11.925
81023W        W46184  38.536  20.784   0.286
81024W        W46185  20.711  44.885   0.536
81025W        W46186  20.492   6.618   2.351
81026W        W46187  19.610  44.914   0.507
81027W        W46188  35.882  16.979  12.394
81028W        W46189  33.975   1.744  13.489
81029W        W46190   2.190  36.515  10.701
81030W        W46191   7.516   5.778   2.612
81031W        W46192  40.919   1.944   1.178
81032W        W46193  11.141  25.602  14.909
81033W        W46194  42.363  14.756  14.881
81034W        W46195  21.748  18.524  11.241
81035W        W46196  15.518  23.007   0.346
81036W        W46197  23.593  25.257  13.515
81037W        W46198  43.187  27.586   1.260
81038W        W46199  44.694  18.531  13.463
81039W        W46200  18.719  10.576   1.284
81040W        W46201  17.867  12.094   4.348
81041W        W46202   2.728  25.088  10.923
81042W        W46203  35.422  31.389  12.872
81043W        W46204  22.116  28.852   3.128
81044W        W46205  21.060  28.559  14.002
81045W        W46206   5.466  13.360  11.720
81046W        W46207  42.045  14.549  13.302
81047W        W46208  24.388  36.012  13.611
81048W        W46209  27.899  32.612   0.857
81049W        W46210   4.738  22.495  13.038
81050W        W46211   2.920  22.039   0.403
81051W        W46212  18.272  26.245  12.023
81052W        W46213  28.929  36.318   2.316
81053W        W46214  14.824  19.060   3.698
81054W        W46215   0.469  42.325   0.624
81055W        W46216  10.629  29.146  13.381
81056W        W46217   7.250  33.610  14.907
81057W        W46218  12.719  43.859   2.751
81058W        W46219  21.574  27.904  13.082
81059W        W46220  31.189  36.381   0.680
81060W        W46221  35.706  16.404   3.704
81061W        W46222  42.060  18.208   0.689
81062W        W46223  25.440   5.841   1.900
81063W        W46224  35.871  17.024   2.361
81064W        W46225  41.537  26.251  11.855
81065W        W46226  32.226  18.107   2.834
81066W        W46227   8.176   3.474   2.895
81067W        W46228  39.934  14.682   4.279
81068W        W46229  36.469  16.203  10.781
81069W        W46230   6.016  38.761   4.794
81070W        W46231  22.655  35.493   4.061
81071W        W46232  27.049  42.002   1.059
81072W        W46233  29.611   3.962   1.275
81073W        W46234  22.177  17.234   4.656
81074W        W46235  39.215  20.066   3.558
81075W        W46236  18.965  22.313  14.839
81076W        W46237  24.551  44.767   1.597
81077W        W46238  12.816   3.902   3.802
81078W        W46239  36.130  15.150   1.242
81079W        W46240  23.564  25.713   1.832
81080W        W46241  29.918  41.430   1.895
81081W        W46242  20.992   9.885   0.778
81082W        W46243  34.580  26.641   1.446
81083W        W46244  20.284  42.296   4.508
81084W        W46245  19.851   7.966  11.999
81085W        W46246  41.753  28.180  14.483
81086W        W46247  28.749   2.272  12.115
81087W        W46248  44.393  38.354  13.898
81088W        W46249  26.873  20.185  13.351
81089W        W46250  29.877  29.503   3.251
81090W        W46251  40.637  24.695   3.088
81091W        W46252  11.377   6.858   0.852
81092W        W46253   1.113  24.592   4.462
81093W        W46254  26.712  28.124   3.732
81094W        W46255  13.676  34.507  13.631
81095W        W46256  41.836  44.344  10.502
81096W        W46257  13.143   3.327  13.721
81097W        W46258  11.741  37.817  13.844
81098W        W46259   9.468   1.754  12.557
81099W        W46260  34.591  25.380  12.905
81100W        W46261   0.385  38.545   0.811
81101W        W46262  16.742  44.264  11.149
81102W        W46263  32.866  36.236   5.525
81103W        W46264  35.453  28.236   1.919
81104W        W46265  14.855  23.208   2.370
81105W        W46266  10.518  16.180   0.969
81106W        W46267  27.919   8.386  12.877
81107W        W46268  13.886  10.042   0.873
81108W        W46269  10.323   3.822  12.592
81109W        W46270  31.078   0.898   9.828
81110W        W46271  34.944  36.507  11.226
81111W        W46272   6.258  20.932  12.444
81112W        W46273   0.251  18.381   3.662
81113W        W46274  34.010  24.605   4.544
81114W        W46275  40.003  30.405   2.780
81115W        W46276  25.807  37.813  13.918
81116W        W46277  32.625   5.880  10.730
81117W        W46278   9.069  18.758  12.985
81118W        W46279  35.035  28.509   3.194
81119W        W46280   2.364  17.345   1.905
81120W        W46281   5.674  41.088  12.562
81121W        W46282   5.904  33.130   3.251
81122W        W46283  18.909  14.713  11.053
81123W        W46284  37.560  15.028   0.313
81124W        W46285  15.209  43.310  14.503
81125W        W46286  43.920  21.660  12.416
81126W        W46287  11.151  39.792   3.878
81127W        W46288  32.570  10.860  13.880
81128W        W46289  35.218  26.074   4.673
81129W        W46290  20.798   0.750   0.825
81130W        W46291  28.060  22.318  14.391
81131W        W46292   8.204  39.814  13.957
81132W        W46293   6.165  29.272   4.072
81133W        W46294  16.810  24.245   2.347
81134W        W46295  16.916   1.793  12.107
81135W        W46296  26.177  33.168  10.650
81136W        W46297   2.180  29.475   3.229
81137W        W46298  14.270  22.161   2.273
81138W        W46299   6.539  11.785   0.234
81139W        W46300  37.392   7.980  12.457
81140W        W46301  43.570  32.897   4.480
81141W        W46302   4.022   4.185  12.668
81142W        W46303  27.039  29.895   1.187
81143W        W46304  13.360  30.034   2.311
81144W        W46305  43.606  10.291  11.520
81145W        W46306  36.494  31.295   3.889
81146W        W46307  28.198  33.969  11.439
81147W        W46308   3.814  25.469  13.054
81148W        W46309   1.620   8.186   4.525
81149W        W46310  20.966  14.192  12.873
81150W        W46311  27.983  25.062  11.435
81151W        W46312  40.786   7.915   4.800
81152W        W46313  44.571  31.661   4.566
81153W        W46314  13.203  30.524   3.247
81154W        W46315  27.258  44.281  12.606
81155W        W46316   3.869  38.605  10.440
81156W        W46317  37.475   8.862   4.183
81157W        W46318  39.387  23.652  11.486
81158W        W46319  39.245  24.521  10.682
81159W        W46320  16.061  15.055  10.879
81160W        W46321  10.194  19.750  14.784
81161W        W46322   4.238  22.053  11.880
81162W        W46323  16.133   8.428   0.409
81163W        W46324  36.337  14.858   3.400
81164W        W46325  13.394  19.580  11.169
81165W        W46326   0.681   3.913   4.562
81166W        W46327  37.881  15.757  12.426
81167W        W46328  42.951  40.419   4.497
81168W        W46329  14.131  29.905  11.556
81169W        W46330  42.755  36.254  12.591
81170W        W46331  29.037  26.900  13.112
81171W        W46332  29.104  11.779  13.047
81172W        W46333  11.685  35.398  10.425
81173W        W46334  23.615  10.638  14.631
81174W        W46335  12.722  14.875   0.044
81175W        W46336  27.520  10.973   0.763
81176W        W46337   2.447  14.207   2.818
81177W        W46338  36.886  25.404  13.014
81178W        W46339  18.160  40.464   0.939
81179W        W46340  36.461  30.603   1.001
81180W        W46341   7.993   9.539   3.448
81181W        W46342  44.981  41.379   0.722
81182W        W46343  19.614  42.959   1.747
81183W        W46344  17.571  10.290   3.874
81184W        W46345  18.240  14.703  12.533
81185W        W46346  17.193  35.071  14.496
81186W        W46347  44.449  42.884  11.402
81187W        W46348  44.799  37.999   5.460
81188W        W46349  29.520   1.410   4.543
81189W        W46350   1.735   6.259  13.261
81190W        W46351  34.008  11.731   1.897
81191W        W46352  29.395  20.306  10.809
81192W        W46353  18.631   9.650   1.794
81193W        W46354  28.792   8.780  12.436
81194W        W46355  43.231  44.350   4.782
81195W        W46356   9.660  10.648   3.589
81196W        W46357  12.117  12.185   0.063
81197W        W46358  38.763   8.187  13.918
81198W        W46359  36.205   8.869  12.853
81199W        W46360   5.242  14.132   2.830
81200W        W46361  37.690  40.409  12.100
81201W        W46362   6.473  34.486  10.383
81202W        W46363  22.523   8.366  14.761
81203W        W46364  16.996  38.549  11.002
81204W        W46365  21.722   4.548   2.055
81205W        W46366  38.245   3.382  10.674
81206W        W46367  43.379  10.810  10.679
81207W        W46368  44.797  10.646  12.425
81208W        W46369  27.989  35.247   5.060
81209W        W46370  26.652  38.336   0.023
81210W        W46371  20.906  33.905  14.047
81211W        W46372   4.221  15.590  12.487
81212W        W46373  34.144  21.483  14.680
81213W        W46374  42.996  40.266   2.891
81214W        W46375  44.810  33.961  13.021
81215W        W46376  43.738  28.896  12.454
81216W        W46377  16.408  34.362   2.203
81217W        W46378   0.771  18.487  12.437
81218W        W46379  26.347  19.407  10.894
81219W        W46380  17.357  42.705  14.177
81220W        W46381  40.571  26.513  14.165
81221W        W46382  15.375  37.944  13.912
81222W        W46383  19.267  14.789  12.898
81223W        W46384   2.894  37.980   5.019
81224W        W46385   5.128  30.383   4.496
81225W        W46386  30.983  31.551  13.240
81226W        W46387  20.374  25.691  10.274
81227W        W46388  15.946  24.480   3.266
81228W        W46389  20.401   7.037  12.367
81229W        W46390  27.139  27.551   0.716
81230W        W46391  21.565  28.368  11.051
81231W        W46392  10.727  29.117   3.239
81232W        W46393  41.548   6.827   4.097
81233W        W46394  16.338  17.021  11.556
81234W        W46395   9.326  24.988  11.017
81235W        W46396  21.233  39.969   0.172
81236W        W46397  23.105  26.523   4.261
81237W        W46398  19.484  31.028   0.789
81238W        W46399  15.270   4.377  14.411
81239W        W46400  29.635   1.503   1.533
81240W        W46401  37.593   9.544   1.928
81241W        W46402  19.690  22.919  13.845
81242W        W46403  17.667  20.990   0.448
81243W        W46404  42.874  29.153  10.779
81244W        W46405  23.751   6.768  11.508
81245W        W46406  14.552  19.227  10.857
81246W        W46407  17.716  15.559  11.231
81247W        W46408  10.434  25.281   5.011
81248W        W46409  26.046  33.236  11.547
81249W        W46410   4.505  10.750  12.027
81250W        W46411   9.797  34.628   2.142
81251W        W46412  26.611  11.303   2.706
81252W        W46413  15.772  14.711  13.960
81253W        W46414  13.652  16.584  14.722
81254W        W46415  15.603  14.377   1.395
81255W        W46416  19.827  15.094  12.586
81256W        W46417  34.378   5.493   3.292
81257W        W46418  26.165  42.041   4.543
81258W        W46419   5.379  16.142  14.318
81259W        W46420  37.936  43.664  11.858
81260W        W46421  41.646   4.112  12.529
81261W        W46422  30.612  15.351   2.433
81262W        W46423  11.404  24.198  11.289
81263W        W46424  27.193   7.590   4.739
81264W        W46425   3.457  42.908  12.538
81265W        W46426  33.485  23.441   3.725
81266W        W46427   2.003  30.488  12.199
81267W        W46428   3.770  16.044   2.793
81268W        W46429  10.330   8.613  13.100
81269W        W46430  16.310  14.368  12.427
81270W        W46431  23.310   8.769  11.186
81271W        W46432  34.907  12.149  14.737
81272W        W46433  38.337   0.157  10.643
81273W        W46434   2.455  13.288   2.728
81274W        W46435  42.881  12.385   4.664
81275W        W46436  27.453  42.935   4.787
81276W        W46437   2.792  36.988   1.085
81277W        W46438   3.943  40.177   4.840
81278W        W46439  21.906  26.186   4.432
81279W        W46440  29.588   1.974   1.320
81280W        W46441   9.463   8.855   3.480
81281W        W46442   4.697  38.248  11.373
81282W        W46443   2.066  11.359  13.151
81283W        W46444  22.173  18.863   0.034
81284W        W46445  21.658  16.625   5.056
81285W        W46446  41.934  40.550   1.180
81286W        W46447  17.858  19.453  13.611
81287W        W46448   6.804  12.648  14.400
81288W        W46449  29.021   3.635   4.231
81289W        W46450   8.432  33.837   4.182
81290W        W46451  33.889  27.480  12.570
81291W        W46452   7.698  32.595   4.047
81292W        W46453  23.720  26.645   3.178
81293W        W46454  42.469   1.573  12.319
81294W        W46455  31.496  15.332   1.900
81295W        W46456  34.439  33.894   2.176
81296W        W46457  13.130   4.444  10.757
81297W        W46458  31.171  42.924  13.427
81298W        W46459  32.620   8.283  11.656
81299W        W46460  42.069  32.617  12.963
81300W        W46461  36.125  38.228  14.061
81301W        W46462  28.500  42.492  10.470
81302W        W46463  38.133  29.561  13.890
81303W        W46464  16.631   4.324  13.475
81304W        W46465   9.074   1.566   2.279
81305W        W46466  36.870   7.534   2.246
81306W        W46467  12.685  26.145   2.311
81307W        W46468   4.781  36.886   0.016
81308W        W46469  24.770  34.678  10.610
81309W        W46470  36.236  14.520   3.758
81310W        W46471   6.190  36.144   2.197
81311W        W46472  29.733  38.512  10.940
81312W        W46473  34.133  12.378   4.484
81313W        W46474  36.683   5.352   2.822
81314W        W46475  37.693  22.080   2.405
81315W        W46476  26.618   7.632   2.664
81316W        W46477  18.002  21.745   3.209
81317W        W46478  11.798  24.414  14.089
81318W        W46479  22.163  14.823  13.050
81319W        W46480  42.824  30.046  11.066
81320W        W46481  44.048  42.100   1.614
81321W        W46482   5.103  38.105   0.563
81322W        W46483   6.666  19.998  11.691
81323W        W46484  19.820  38.317  12.105
81324W        W46485  26.241  42.210   0.398
81325W        W46486  28.724  30.691  12.730
81326W        W46487   0.245  28.855  13.195
81327W        W46488  13.649  25.366  13.579
81328W        W46489  30.433  11.328  13.559
81329W        W46490  23.792  35.850   4.117
81330W        W46491   3.488   3.190   5.119
81331W        W46492  23.973  42.811   2.791
81332W        W46493  20.166  27.712  11.099
81333W        W46494   5.551  17.382  11.175
81334W        W46495  42.523   9.247   2.489
81335W        W46496  23.772  16.310   3.662
81336W        W46497  35.937  12.846   3.832
81337W        W46498  17.309   6.767   1.252
81338W        W46499   0.359  42.183  12.087
81339W        W46500  14.833  22.706  12.227
81340W        W46501  29.606  10.309   4.564
81341W        W46502  31.871  10.135   3.461
81342W        W46503  25.109  27.785   3.148
81343W        W46504  37.996  15.192  12.029
81344W        W46505   3.716  16.044   3.680
81345W        W46506   4.696  33.344   1.967
81346W        W46507  20.785  11.280  12.046
81347W        W46508  14.165  23.879  11.447
81348W        W46509  13.270  31.733   2.587
81349W        W46510  43.291  20.260   0.321
81350W        W46511   1.260  14.603   4.402
81351W        W46512  25.624   7.141  13.321
81352W        W46513  39.328  44.875   2.363
81353W        W46514  16.690   6.897   3.465
81354W        W46515  35.387   7.460   3.293
81355W        W46516  16.727   0.077   3.222
81356W        W46517  28.223  31.949  10.286
81357W        W46518  11.860  13.271   2.478
81358W        W46519  43.972   4.928   2.136
81359W        W46520   4.485  31.298  11.433
81360W        W46521  27.009   5.433   3.657
81361W        W46522  43.733  36.525   2.828
81362W        W46523   0.671  11.528   1.568
81363W        W46524   5.074  38.704  13.373
81364W        W46525  34.370  15.676   2.740
81365W        W46526  36.373  41.957   1.271
81366W        W46527  21.544  16.247  14.941
81367W        W46528  36.037  39.301   3.125
81368W        W46529  19.768  24.626  13.366
81369W        W46530  27.216   9.864   4.137
81370W        W46531   1.889   6.726   2.697
81371W        W46532  24.507  32.933   4.158
81372W        W46533  26.616  12.066   1.896
81373W        W46534   1.084  11.664  10.691
81374W        W46535  44.457  10.399  11.030
81375W        W46536  22.688  24.719   9.833
81376W        W46537  12.841  15.253  14.058
81377W        W46538   4.563  44.410   2.244
81378W        W46539  43.920  17.399  11.844
81379W        W46540  15.745  44.903  11.423
81380W        W46541  26.217  11.180   1.241
81381W        W46542  43.525  26.442   1.338
81382W        W46543   6.474   8.031  11.221
81383W        W46544   1.942   9.220  13.839
81384W        W46545  22.805  28.551   2.312
81385W        W46546  19.546   6.889  11.546
81386W        W46547  13.236  15.235   0.874
81387W        W46548   0.227  26.133   2.082
81388W        W46549  29.245  37.562   4.947
81389W        W46550   7.830  42.032   3.655
81390W        W46551   9.097  24.669   1.118
81391W        W46552  20.291  11.743   3.092
81392W        W46553  19.872  10.272  11.960
81393W        W46554  40.669   2.947   2.150
81394W        W46555  32.200  24.588   1.022
81395W        W46556  11.817  30.231  14.963
81396W        W46557  20.170  32.968  11.649
81397W        W46558  10.742  44.843  13.128
81398W        W46559   9.074  11.283   4.589
81399W        W46560  30.437   6.884   0.901
81400W        W46561   8.195  15.205  11.930
81401W        W46562  39.767  18.000  14.415
81402W        W46563   1.956  18.934   0.351
81403W        W46564  33.496  37.463   5.002
81404W        W46565  11.167  16.083  14.481
81405W        W46566   0.936  20.085  14.801
81406W        W46567  35.607  12.827  11.588
81407W        W46568  20.102   6.016  14.873
81408W        W46569   3.430  23.154  12.410
81409W        W46570  35.107   7.960  14.886
81410W        W46571   4.164  43.489   2.941
81411W        W46572  42.740   5.950  10.989
81412W        W46573  32.897   6.826   2.879
81413W        W46574  12.601  44.038  12.910
81414W        W46575  16.753  40.381   3.680
81415W        W46576  38.246   5.271  12.911
81416W        W46577  20.554  41.611   0.128
81417W        W46578  20.587  32.339  13.452
81418W        W46579  32.082   7.167  12.668
81419W        W46580  27.440  29.001   0.319
81420W        W46581  18.965  20.423   1.131
81421W        W46582  17.285  35.156   0.862
81422W        W46583  12.271  35.023  14.301
81423W        W46584  30.600  15.564   3.329
81424W        W46585  31.816  13.852  14.396
81425W        W46586  17.338  24.008  14.356
81426W        W46587  21.140  24.624  11.512
81427W        W46588  18.703  28.279  11.675
81428W        W46589  12.255  28.491   2.272
81429W        W46590  16.106  31.382  14.260
81430W        W46591  44.947  16.169  14.023
81431W        W46592  34.292  19.557   0.815
81432W        W46593  20.557  18.192  13.913
81433W        W46594  34.139  34.524   3.637
81434W        W46595  14.702  42.501  14.056
81435W        W46596   9.316  29.187  14.478
81436W        W46597  42.294  10.620  11.968
81437W        W46598  17.107  16.754  12.181
81438W        W46599   8.388  27.609  14.257
81439W        W46600  42.770  11.744  12.401
81440W        W46601  10.827  44.947   1.311
81441W        W46602   6.805  26.409   1.658
81442W        W46603  35.472  10.314  11.065
81443W        W46604   5.449  29.155   2.966
81444W        W46605   1.862  36.922  10.662
81445W        W46606  23.858  38.609   3.639
81446W        W46607   5.348  43.777  14.287
81447W        W46608  41.930   8.148   0.357
81448W        W46609  25.763  29.054   2.756
81449W        W46610  35.126  44.988   3.297
81450W        W46611  41.400  31.899   0.604
81451W        W46612   6.251   2.439  10.826
81452W        W46613   5.215   0.002   1.850
81453W        W46614  31.530  20.590  10.717
81454W        W46615  41.473  40.471   3.663
81455W        W46616  18.525   3.948  14.301
81456W        W46617  44.421   6.886  14.452
81457W        W46618   9.334  12.092  13.429
81458W        W46619  39.456  32.937  14.780
81459W        W46620   2.218  18.218  10.466
81460W        W46621  25.510  24.864  11.611
81461W        W46622  43.257  36.376  14.499
81462W        W46623  20.776  37.732   2.611
81463W        W46624   1.364  38.406  11.736
81464W        W46625   6.131  33.579  11.160
81465W        W46626   1.842  42.580  12.045
81466W        W46627   7.694  14.646  14.453
81467W        W46628   2.771  37.237  12.093
81468W        W46629  39.106  21.044   1.775
81469W        W46630  12.390   6.136   2.768
81470W        W46631  38.460  15.824  14.128
81471W        W46632   8.646  10.634   3.642
81472W        W46633  40.794  12.807   1.424
81473W        W46634  28.693  32.595  13.907
81474W        W46635  14.598  24.647   2.136
81475W        W46636  26.397   8.463  12.380
81476W        W46637  30.040  26.883   0.371
81477W        W46638  28.789  18.389   2.747
81478W        W46639  27.033  24.507  12.474
81479W        W46640   9.733  34.186   2.401
81480W        W46641  11.441  35.446  14.578
81481W        W46642  23.962  24.022   1.737
81482W        W46643  11.307  39.976  11.819
81483W        W46644  10.661   8.970   2.826
81484W        W46645   5.939  41.085   1.376
81485W        W46646  20.440   2.044   1.889
81486W        W46647  19.002  32.126   3.709
81487W        W46648  14.246  38.392   3.650
81488W        W46649  33.421  16.804   2.930
81489W        W46650  13.573  16.678  12.954
81490W        W46651  29.597  41.310  11.089
81491W        W46652  28.359  21.649   2.130
81492W        W46653  23.577  29.188  13.620
81493W        W46654  24.998   7.741  12.136
81494W        W46655  35.605   0.052   4.555
81495W        W46656  21.658   5.874   4.550
81496W        W46657  26.774  35.915  13.843
81497W        W46658  34.812   8.648   0.936
81498W        W46659  28.435  24.125  14.822
81499W        W46660  27.433  30.133  11.146
81500W        W46661  34.541  36.900   2.146
81501W        W46662  16.197  20.639  14.476
81502W        W46663  14.607  17.125  14.020
81503W        W46664  35.790  38.398  11.858
81504W        W46665  27.177  17.059  12.097
81505W        W46666   0.605  16.700  11.939
81506W        W46667  37.849   1.793  10.654
81507W        W46668  17.713  10.913   2.673
81508W        W46669   0.209  10.796  11.094
81509W        W46670  22.529  40.448   1.360
81510W        W46671  17.590  22.239  10.730
81511W        W46672  29.604   0.921   1.784
81512W        W46673  30.020  11.018   4.431
81513W        W46674  43.947  23.199   0.057
81514W        W46675  20.283  37.588   2.413
81515W        W46676  38.341  32.571   0.352
81516W        W46677  23.139  15.627  10.765
81517W        W46678  11.637   7.219   3.838
81518W        W46679  15.539  20.692  11.188
81519W        W46680  32.926   6.372   2.609
81520W        W46681  22.024  33.519  12.090
81521W        W46682  38.800  16.856  13.345
81522W        W46683  36.340  27.071  13.548
81523W        W46684   3.289  22.395   2.699
81524W        W46685  12.765  28.906   2.647
81525W        W46686  30.914   7.097   0.819
81526W        W46687  27.433   1.568  10.660
81527W        W46688  21.240  25.767   3.226
81528W        W46689  43.324  15.061   4.525
81529W        W46690  30.854  23.448  12.639
81530W        W46691  19.188   7.209  13.151
81531W        W46692  11.099  44.514   1.289
81532W        W46693  26.998  39.366  14.363
81533W        W46694  15.528  16.246   9.917
81534W        W46695   9.372  41.237   0.479
81535W        W46696   6.242  27.032   1.550
81536W        W46697  17.055  31.374   1.336
81537W        W46698  44.991  30.574   0.815
81538W        W46699  40.984  33.810  14.259
81539W        W46700  36.080  16.589  13.494
81540W        W46701  43.771  25.153   2.876
81541W        W46702  14.967  42.719   2.703
81542W        W46703  35.048  22.072   3.233
81543W        W46704  25.765  24.150   2.334
81544W        W46705   7.472  28.708  11.281
81545W        W46706  13.730  16.562  13.818
81546W        W46707  34.384  30.670   2.178
81547W        W46708   4.637  31.571   0.367
81548W        W46709  32.425  43.171  10.194
81549W        W46710  32.142  26.080  13.579
81550W        W46711   5.714  28.390   2.364
81551W        W46712  31.473  25.575   2.227
81552W        W46713   2.659  14.612   3.598
81553W        W46714  15.820  43.437   5.050
81554W        W46715  35.263  15.754  13.131
81555W        W46716   9.173  43.669   0.139
81556W        W46717  32.436   0.842  14.235
81557W        W46718   4.876   0.756   3.711
81558W        W46719  44.868  35.782   0.005
81559W        W46720   0.260  25.261   3.261
81560W        W46721  21.671  27.020   2.850
81561W        W46722  13.260  38.959  12.907
81562W        W46723  19.348  14.862   9.847
81563W        W46724  29.466  27.028   3.119
81564W        W46725   2.761  43.397   1.759
81565W        W46726  37.337  40.067   4.759
81566W        W46727  43.348  22.991  11.171
81567W        W46728  15.317  14.714   0.678
81568W        W46729  43.367  16.210  10.599
81569W        W46730   8.950  32.024   2.099
81570W        W46731   8.344   1.531  12.035
81571W        W46732  35.079   6.973  12.618
81572W        W46733  37.361  32.925   0.489
81573W        W46734  10.715  31.475  12.598
81574W        W46735   3.605   8.188   2.811
81575W        W46736  38.864  26.298   2.811
81576W        W46737  43.302  38.067  14.730
81577W        W46738   4.154   5.924  14.811
81578W        W46739  36.442  35.725   3.368
81579W        W46740  38.163   1.644   2.820
81580W        W46741  13.504  32.838   0.692
81581W        W46742  44.492  27.847  11.720
81582W        W46743  15.117  22.880   1.966
81583W        W46744  18.071  26.397  10.774
81584W        W46745  17.800   8.797  14.035
81585W        W46746  38.077  13.267  13.170
81586W        W46747   3.781  31.692   2.528
81587W        W46748  42.019  14.863   3.232
81588W        W46749   1.402   3.893   3.873
81589W        W46750   3.736  37.462   9.768
81590W        W46751  25.234  34.021  13.850
81591W        W46752   0.301  15.704   3.158
81592W        W46753  21.452   3.292   4.458
81593W        W46754   0.247   9.968  11.950
81594W        W46755  38.004  18.751   3.135
81595W        W46756  21.714   8.960   0.010
81596W        W46757  39.285  40.105  13.788
81597W        W46758  17.529   0.507   3.191
81598W        W46759  23.190  17.262  13.380
81599W        W46760  23.615  20.732   2.037
81600W        W46761   7.395  31.432  14.911
81601W        W46762  36.764  22.771   2.667
81602W        W46763  19.727   3.971  10.726
81603W        W46764  14.563   9.392   0.583
81604W        W46765  25.658  44.951  12.673
81605W        W46766  15.308  24.080  12.767
81606W        W46767  28.886  26.354  14.438
81607W        W46768  36.994  27.617  12.530
81608W        W46769  31.182  23.662   1.263
81609W        W46770   6.350   4.721  12.060
81610W        W46771  19.120  33.874   4.576
81611W        W46772  39.034  27.563   3.283
81612W        W46773  17.985  15.753  11.665
81613W        W46774  28.692  23.596  13.332
81614W        W46775   4.210  23.551   0.583
81615W        W46776  27.602   1.145  13.795
81616W        W46777  20.788  38.072  11.646
81617W        W46778  24.936  37.377   3.644
81618W        W46779  34.384  17.337   0.483
81619W        W46780  13.224  33.292   0.647
81620W        W46781  13.265  36.470   4.232
81621W        W46782  24.676   8.828  10.391
81622W        W46783  18.805  41.686  14.789
81623W        W46784  40.317  41.960   4.596
81624W        W46785  21.205   7.931   0.821
81625W        W46786  12.785  40.455   5.209
81626W        W46787  11.748  41.521  14.195
81627W        W46788  14.564  26.457  13.878
81628W        W46789   8.770  28.888   4.250
81629W        W46790  35.182  44.298   0.253
81630W        W46791  14.894  32.902   0.819
81631W        W46792   0.007  32.003   3.767
81632W        W46793  30.407  15.063  13.069
81633W        W46794  33.716  35.996  13.943
81634W        W46795  28.505  28.844   1.321
81635W        W46796  35.413   2.640  14.023
81636W        W46797  26.253  27.654   1.036
81637W        W46798  28.153  21.152   2.939
81638W        W46799  24.085  36.356  13.963
81639W        W46800  27.912  13.145   1.402
81640W        W46801  37.396  20.229   1.723
81641W        W46802  43.714  36.267   1.345
81642W        W46803  19.102  43.215   3.119
81643W        W46804   2.937  10.880   3.555
81644W        W46805  26.217  31.058  12.026
81645W        W46806   1.402   9.771  11.485
81646W        W46807  36.232   3.649  14.046
81647W        W46808  30.829  22.597  10.297
81648W        W46809  13.964  13.222   2.150
81649W        W46810  16.128  12.803  12.623
81650W        W46811  35.690   7.684  11.253
81651W        W46812  38.137  18.720  12.516
81652W        W46813   4.264  17.996  12.508
81653W        W46814  43.088  15.810   3.101
81654W        W46815  23.505  19.785  12.622
81655W        W46816  25.562  11.986   0.913
81656W        W46817  20.315  17.160  11.600
81657W        W46818  21.038   7.950  13.551
81658W        W46819  25.383   9.211   0.672
81659W        W46820  30.042  20.922  11.959
81660W        W46821  42.867  39.205   2.842
81661W        W46822  15.579  29.176   1.324
81662W        W46823   4.207  18.771  14.969
81663W        W46824   3.280  11.463  13.699
81664W        W46825   5.728  26.028  13.000
81665W        W46826  33.365  44.319  10.267
81666W        W46827  25.363  13.184   3.247
81667W        W46828  12.812  17.706   3.672
81668W        W46829  23.680  35.993  10.370
81669W        W46830   9.445  44.788  10.763
81670W        W46831  38.359  31.145  12.020
81671W        W46832  41.781  12.831  10.749
81672W        W46833  36.023  29.983  13.480
81673W        W46834   4.777  36.565   1.389
81674W        W46835  41.062  21.095   4.264
81675W        W46836  29.285  14.133   1.726
81676W        W46837  27.232  13.632   3.598
81677W        W46838  17.617  29.569  13.375
81678W        W46839  43.418  20.975   4.200
81679W        W46840  40.093  25.361   1.632
81680W        W46841  24.232  33.685  10.281
81681W        W46842  29.942  15.186   4.196
81682W        W46843  27.335  22.926  11.590
81683W        W46844  32.949  17.754   0.744
81684W        W46845  35.588  33.365  10.573
81685W        W46846  39.653  34.310   0.398
81686W        W46847  12.796  27.218   2.250
81687W        W46848  30.311  13.930  10.991
81688W        W46849  40.808  44.802   1.888
81689W        W46850  17.110   8.735  12.498
81690W        W46851  27.342  19.211   0.488
81691W        W46852   3.379  20.779   0.454
81692W        W46853  30.426  35.669  12.062
81693W        W46854  20.668  18.464  14.363
81694W        W46855  25.570   1.747  10.629
81695W        W46856  39.540  14.245  12.854
81696W        W46857  10.386  27.407  13.749
81697W        W46858  15.375  39.113  13.448
81698W        W46859  35.056  38.417   1.317
81699W        W46860  32.600  23.342  12.792
81700W        W46861  37.946   6.030  13.411
81701W        W46862  34.223  17.255   4.102
81702W        W46863   3.281  38.999   0.425
81703W        W46864  10.406  43.066  14.344
81704W        W46865   4.346   3.946  13.002
81705W        W46866  18.381   3.537   2.535
81706W        W46867  33.669  18.637   2.040
81707W        W46868  36.991  41.317   0.294
81708W        W46869  23.987  24.755  11.028
81709W        W46870  31.117  25.067   2.848
81710W        W46871   1.386  41.917   2.484
81711W        W46872  14.428  21.434  11.421
81712W        W46873  38.294   3.048   5.278
81713W        W46874   3.302   3.154   2.945
81714W        W46875  11.926  41.589  12.871
81715W        W46876   0.219  42.775   2.685
81716W        W46877   4.295  34.651  13.946
81717W        W46878  16.554  21.035  14.544
81718W        W46879  11.623   4.751   0.258
81719W        W46880  24.694  33.416   2.165
81720W        W46881  26.170  42.844   2.569
81721W        W46882  41.515  10.874  12.472
81722W        W46883  18.782  30.060   1.399
81723W        W46884  23.439  37.788   1.701
81724W        W46885  34.654  38.785   1.877
81725W        W46886   1.537   8.586   0.497
81726W        W46887  23.187  13.857  14.776
81727W        W46888  13.204   0.408   0.284
81728W        W46889  37.366   9.175   4.706
81729W        W46890  20.353  27.792   2.285
81730W        W46891  36.032  30.480   3.745
81731W        W46892  35.602  19.144   0.886
81732W        W46893   0.704  33.105  11.585
81733W        W46894   8.327  15.597   0.815
81734W        W46895  14.555  19.371  14.962
81735W        W46896   5.305  34.452   1.932
81736W        W46897  19.482  28.423   0.836
81737W        W46898   5.912   5.002  12.086
81738W        W46899   2.551  15.283   3.325
81739W        W46900  21.469  23.251   0.779
81740W        W46901   1.833   1.024  14.376
81741W        W46902  11.005  34.329   1.669
81742W        W46903  16.827  12.219   2.701
81743W        W46904  39.957   1.143  11.547
81744W        W46905   8.710  29.123  13.894
81745W        W46906  26.049  23.164  10.830
81746W        W46907  13.666  36.863   2.107
81747W        W46908  31.403  20.052   0.935
81748W        W46909   8.209  15.748   4.612
81749W        W46910  27.467   5.711   2.802
81750W        W46911  17.232  44.717  11.521
81751W        W46912  27.962   4.059  14.346
81752W        W46913  10.669  36.157   4.848
81753W        W46914  17.687   7.570   1.082
81754W        W46915   6.242  32.164   1.767
81755W        W46916  15.420  41.016  10.513
81756W        W46917   9.970  10.288   2.864
81757W        W46918   6.222  41.014  13.842
81758W        W46919   2.656  22.500  13.858
81759W        W46920  44.022  16.954   2.126
81760W        W46921  34.470   5.247  10.594
81761W        W46922  24.972  33.976   0.751
81762W        W46923  38.147  23.033  14.447
81763W        W46924  39.937  27.976  12.118
81764W        W46925  39.702  14.796  13.360
81765W        W46926  15.122  41.819   0.827
81766W        W46927  38.074  30.414   4.031
81767W        W46928  44.801  12.790  12.017
81768W        W46929   6.106  11.266  10.590
81769W        W46930  26.957  32.573   0.620
81770W        W46931  16.990  42.862   0.384
81771W        W46932  37.605   7.314   3.205
81772W        W46933   0.322   9.293  12.418
81773W        W46934  38.245  43.229   1.960
81774W        W46935  14.265  29.987   3.955
81775W        W46936  43.159   2.640  13.409
81776W        W46937  32.485  17.250  12.022
81777W        W46938  44.518  19.592  13.994
81778W        W46939  24.246   3.364   0.818
81779W        W46940  19.832  17.913   5.397
81780W        W46941   3.831  36.309  11.976
81781W        W46942  33.151   5.960  13.330
81782W        W46943  43.876   1.812   0.409
81783W        W46944   6.432   6.177   4.862
81784W        W46945  42.871  35.644   4.508
81785W        W46946   0.904  14.755   0.396
81786W        W46947   4.331  44.831  12.928
81787W        W46948   7.137   1.132  13.327
81788W        W46949  35.339   7.712  11.612
81789W        W46950  41.434  28.073   3.573
81790W        W46951  32.516  23.550   1.721
81791W        W46952  19.459   4.787  13.293
81792W        W46953  35.085  43.094   2.217
81793W        W46954   7.781  43.060  14.768
81794W        W46955  42.475  11.113  11.145
81795W        W46956   3.728  17.314  13.958
81796W        W46957   5.408  36.374   3.774
81797W        W46958   7.189  39.554  13.262
81798W        W46959  21.173  31.871  14.985
81799W        W46960  43.544   4.218   4.538
81800W        W46961   5.105  38.214  10.794
81801W        W46962   1.759  23.114   0.181
81802W        W46963  40.415  16.905   0.156
81803W        W46964  19.444  10.681  13.483
81804W        W46965  24.687  26.021  12.507
81805W        W46966  41.470  33.236  14.915
81806W        W46967  36.470  28.957   3.365
81807W        W46968   4.946  32.067   2.357
81808W        W46969  38.787  18.525  13.944
81809W        W46970  28.586   5.272  14.307
81810W        W46971  36.857  31.937   3.026
81811W        W46972  32.397   9.875  14.212
81812W        W46973  11.236  22.731   1.676
81813W        W46974  18.219  21.978  12.626
81814W        W46975  37.614  33.047   2.380
81815W        W46976   7.444   3.202   3.301
81816W        W46977  35.096  34.396  11.832
81817W        W46978  35.411  23.048  14.381
81818W        W46979  43.947  20.820   2.286
81819W        W46980  30.098  39.869  14.007
81820W        W46981  10.065  43.802  13.875
81821W        W46982  19.191  18.202   3.206
81822W        W46983  18.687  27.580   3.784
81823W        W46984  25.103   1.421   3.667
81824W        W46985   4.390  39.497   1.462
81825W        W46986  34.499  39.814  11.567
81826W        W46987  41.365   2.191   1.204
81827W        W46988  22.642  20.398  10.391
81828W        W46989  11.313   8.979   4.346
81829W        W46990  44.934  33.403   0.288
81830W        W46991  15.089  25.917   1.312
81831W        W46992   6.364  19.487  10.334
81832W        W46993  23.208  32.482   0.982
81833W        W46994   2.304  42.222   1.588
81834W        W46995  34.500  12.331   1.786
81835W        W46996  15.575  16.573  14.838
81836W        W46997  34.559  39.509  14.567
81837W        W46998  34.370  24.917   3.286
81838W        W46999  29.108  37.853   4.194
81839W        W47000   3.028   0.389   3.167
81840W        W47001  36.851  40.389  10.627
81841W        W47002   7.443  26.131  12.095
81842W        W47003  38.551  35.900   2.824
81843W        W47004  24.178  17.786   3.749
81844W        W47005  42.752  19.561   3.932
81845W        W47006  35.844  13.174   0.840
81846W        W47007  10.698   3.040  11.084
81847W        W47008  37.513  26.009   1.246
81848W        W47009  23.075  35.527   4.370
81849W        W47010   8.473  34.400  12.969
81850W        W47011  21.687  23.077   3.266
81851W        W47012   2.881  31.092   0.504
81852W        W47013  25.731  39.469  11.152
81853W        W47014  35.862  13.722   0.557
81854W        W47015  35.002  44.394   4.108
81855W        W47016   9.400  15.275  10.713
81856W        W47017  31.796  31.991  10.866
81857W        W47018  38.722  25.483   4.622
81858W        W47019  33.734  36.084  10.754
81859W        W47020  14.282  34.566  12.453
81860W        W47021  28.610   8.317   1.909
81861W        W47022  35.119  24.098   4.121
81862W        W47023  43.272  30.662   1.230
81863W        W47024  40.205  29.466  14.967
81864W        W47025  32.170   2.265  12.390
81865W        W47026   8.722  41.759   2.912
81866W        W47027   7.685  14.073  11.557
81867W        W47028  36.927  19.817   2.201
81868W        W47029  26.649  30.855   3.748
81869W        W47030   8.295  29.779   4.924
81870W        W47031   5.471  33.458   1.515
81871W        W47032  38.464  13.451   3.041
81872W        W47033  44.048  40.990  10.615
81873W        W47034   5.690   7.413  13.341
81874W        W47035  31.551   3.288   4.859
81875W        W47036   2.540  15.582   1.870
81876W        W47037  12.669  21.469  12.001
81877W        W47038  30.018  44.337   1.269
81878W        W47039  35.655  24.988  12.457
81879W        W47040  35.123  14.321  13.368
81880W        W47041  40.530  39.484   4.511
81881W        W47042  21.241  26.997   4.641
81882W        W47043  41.774   5.936  11.270
81883W        W47044  33.610  24.944   4.612
81884W        W47045  15.347  24.711  10.552
81885W        W47046  17.066  30.537  13.887
81886W        W47047  38.486   4.299   1.442
81887W        W47048  41.948  26.191  11.058
81888W        W47049  39.566  25.659  12.103
81889W        W47050   5.372  30.472  12.867
81890W        W47051  13.485  10.287  11.978
81891W        W47052  42.575  43.009  13.074
81892W        W47053  22.203  11.315  12.442
81893W        W47054  40.251  32.996   0.811
81894W        W47055  37.363   0.483  13.575
81895W        W47056  32.189   5.313   2.456
81896W        W47057  32.087   5.423   3.169
81897W        W47058  11.113  22.578  13.423
81898W        W47059   9.224  43.551   1.274
81899W        W47060  11.578   9.820  12.465
81900W        W47061   7.347  42.038   1.895
81901W        W47062   7.738  12.035  11.732
81902W        W47063   5.832  23.159  14.424
81903W        W47064   1.923  16.856  11.521
81904W        W47065  32.373  15.118   4.674
81905W        W47066  33.359  11.817   3.188
81906W        W47067   4.958  27.156  14.348
81907W        W47068   0.431  15.820   3.728
81908W        W47069  44.439  25.385  12.061
81909W        W47070  37.062  30.381  14.768
81910W        W47071  34.016  18.740  14.372
81911W        W47072   8.140  32.565   1.297
81912W        W47073  33.347  12.790   0.066
81913W        W47074  42.829   0.497  13.818
81914W        W47075  34.923  44.041  12.069
81915W        W47076  36.128  27.286  13.946
81916W        W47077  24.740   9.348  10.415
81917W        W47078   1.132  38.828   1.566
81918W        W47079   0.467   9.251   2.767
81919W        W47080  29.551  25.017  14.494
81920W        W47081  44.144  13.670   4.213
81921W        W47082  37.668  30.474  11.635
81922W        W47083  15.334  34.463  13.795
81923W        W47084  29.631   8.294   0.015
81924W        W47085  36.373   2.268   4.113
81925W        W47086   3.806  28.093   1.773
81926W        W47087  40.238  26.174  12.353
81927W        W47088  40.235   2.734   4.031
81928W        W47089  24.142  32.790   4.508
81929W        W47090   1.272  15.237  10.591
81930W        W47091  12.250  35.396   2.839
81931W        W47092   5.373  32.606  14.923
81932W        W47093  42.457  28.671  14.831
81933W        W47094  35.925   4.975  12.885
81934W        W47095  42.727  43.189   4.167
81935W        W47096  23.430  11.839  11.190
81936W        W47097   1.324  44.233  14.560
81937W        W47098   1.834  44.020  14.431
81938W        W47099  27.773  12.127   2.682
81939W        W47100   9.642  40.728  12.888
81940W        W47101   7.250  24.589   3.723
81941W        W47102  34.117  22.486  14.954
81942W        W47103  42.646   2.110   1.067
81943W        W47104  31.480  20.764  13.605
81944W        W47105  39.065  23.188   3.787
81945W        W47106   0.729   3.935   0.292
81946W        W47107  42.226  36.767   1.315
81947W        W47108  31.700   5.045  11.144
81948W        W47109  24.111  25.917   2.084
81949W        W47110  19.378  40.291   3.069
81950W        W47111  33.680  20.739  14.829
81951W        W47112  41.742  12.974   2.472
81952W        W47113  18.899   4.853  13.010
81953W        W47114   3.431  17.489   5.061
81954W        W47115  32.407  43.115   1.887
81955W        W47116  34.408  36.843   2.625
81956W        W47117   9.374  22.491   0.569
81957W        W47118   7.508  40.794  12.028
81958W        W47119  14.277  28.907  11.681
81959W        W47120  42.856   0.084   1.580
81960W        W47121  28.960  27.278   4.869
81961W        W47122   2.702  26.122   1.263
81962W        W47123  38.453  11.913  10.997
81963W        W47124  18.249  17.283  14.895
81964W        W47125  38.331  20.746  13.183
81965W        W47126  29.471  29.097  11.627
81966W        W47127  38.859  24.625  12.893
81967W        W47128  39.010  24.371   4.128
81968W        W47129  27.205  28.199  12.420
81969W        W47130  40.137  27.860   3.217
81970W        W47131  13.172  29.181  10.963
81971W        W47132   0.870   4.858   0.442
81972W        W47133  29.962   3.505  11.684
81973W        W47134  34.635  22.298  11.972
81974W        W47135  24.888   1.685  11.353
81975W        W47136  31.493  43.011   4.800
81976W        W47137   2.837  23.614  11.363
81977W        W47138  42.524  15.297   0.633
81978W        W47139  27.767  40.449   0.371
81979W        W47140   7.155  42.415  13.027
81980W        W47141  10.050  32.174  14.835
81981W        W47142   7.280  36.833  12.231
81982W        W47143  12.773  35.650  12.763
81983W        W47144  31.727   7.271  13.059
81984W        W47145  43.811  17.620  11.392
81985W        W47146  11.927  24.834   9.979
81986W        W47147  28.269  38.270   3.906
81987W        W47148   9.016  28.456  12.083
81988W        W47149  17.663  20.272  13.081
81989W        W47150  28.322   3.940   4.634
81990W        W47151  35.708  14.780   1.850
81991W        W47152  38.963  22.221  14.846
81992W        W47153  16.351  33.966  11.083
81993W        W47154   0.564   8.030   0.045
81994W        W47155  39.218  36.961   2.212
81995W        W47156  24.065   1.687   1.510
81996W        W47157   2.805  29.782  14.037
81997W        W47158  17.226  42.013   4.512
81998W        W47159  33.426  18.684   0.983
81999W        W47160   6.772  13.246  12.994
82000W        W47161  32.785  31.198  13.747
82001W        W47162  36.299  25.110   4.704
82002W        W47163  26.053  19.284  14.987
82003W        W47164   6.515  31.670   2.941
82004W        W47165  35.832  36.859  14.766
82005W        W47166  34.847  34.270   4.134
82006W        W47167  39.951   4.021  12.418
82007W        W47168  23.029   9.309   1.288
82008W        W47169  33.384   2.163   1.363
82009W        W47170  19.803  23.783   1.881
82010W        W47171  42.866  21.444   3.092
82011W        W47172   7.596   1.861  12.610
82012W        W47173  35.451  18.629   1.973
82013W        W47174  10.619  40.284  11.572
82014W        W47175  26.900  44.750   4.663
82015W        W47176  19.258  21.669  11.759
82016W        W47177   8.887  15.230   0.345
82017W        W47178  42.512  21.830  11.876
82018W        W47179  43.304  12.693  10.850
82019W        W47180  21.725  17.056   1.078
82020W        W47181  17.281  35.422   2.302
82021W        W47182  37.130  18.132   3.922
82022W        W47183   0.787  11.159   4.479
82023W        W47184  42.796   6.740   3.293
82024W        W47185  20.103  27.788  12.758
82025W        W47186  18.347   9.290   3.950
82026W        W47187  41.018  36.994   3.302
82027W        W47188  25.383  37.178  12.002
82028W        W47189  31.648   7.974  11.719
82029W        W47190  23.472   0.266  12.356
82030W        W47191   8.959  10.164   4.534
82031W        W47192  28.694   5.436  10.944
82032W        W47193   6.148  15.582   4.706
82033W        W47194   2.117  19.843  13.935
82034W        W47195  17.713  38.213  12.000
82035W        W47196  30.555  40.519   1.365
82036W        W47197  40.982   2.423  14.937
82037W        W47198  29.938  14.292   0.434
82038W        W47199  14.092  21.375   3.223
82039W        W47200   9.689   1.318   4.170
82040W        W47201  44.051   0.790  14.541
82041W        W47202  42.299  13.864   3.712
82042W        W47203   0.561   0.843  14.828
82043W        W47204   4.923  16.221   3.619
82044W        W47205  40.327  30.242   0.397
82045W        W47206  24.829  37.232  10.686
82046W        W47207  42.564  38.298  12.140
82047W        W47208   3.930   9.888   0.901
82048W        W47209  10.257  31.078  12.844
82049W        W47210  31.556  38.263  14.251
82050W        W47211  39.482  17.169  10.692
82051W        W47212  23.159  22.459  14.482
82052W        W47213  23.070   8.437  13.460
82053W        W47214   9.205  29.883   2.286
82054W        W47215  19.083   3.763   0.888
82055W        W47216  14.427  18.756   1.843
82056W        W47217   1.480  34.170   3.681
82057W        W47218  43.990   6.672  13.138
82058W        W47219  32.933  22.620   4.085
82059W        W47220  22.024   3.445  14.901
82060W        W47221  18.255  40.636  12.716
82061W        W47222   6.864  28.027   2.141
82062W        W47223  19.684  11.742   0.815
82063W        W47224  20.842  14.976  12.007
82064W        W47225   3.826  13.086  13.990
82065W        W47226  44.568   9.782   3.829
82066W        W47227   6.371  28.565   1.367
82067W        W47228  25.624   2.908  11.905
82068W        W47229  22.503  21.055  14.441
82069W        W47230  25.737   2.218  10.752
82070W        W47231  35.287  22.684  11.335
82071W        W47232   7.279  39.334   1.910
82072W        W47233  38.436  38.316   4.243
82073W        W47234   9.646  19.149  14.473
82074W        W47235  30.744  25.052  14.875
82075W        W47236  25.201  38.343   1.573
82076W        W47237  42.511  19.137   4.142
82077W        W47238  15.246  25.436   1.393
82078W        W47239  30.896   3.418   4.274
82079W        W47240   9.941  10.635   1.918
82080W        W47241  40.831   7.403   4.632
82081W        W47242  40.260  23.183  13.028
82082W        W47243  30.135  22.113   0.143
82083W        W47244  44.921  38.316   0.749
82084W        W47245  26.075  10.679  14.402
82085W        W47246  15.221   1.369  10.631
82086W        W47247  43.702  25.909  13.269
82087W        W47248  42.784  21.023   4.595
82088W        W47249  34.947   0.346   1.469
82089W        W47250  25.858  22.697   4.695
82090W        W47251  39.111  29.820   1.802
82091W        W47252  37.885  37.815   2.467
82092W        W47253   0.444  39.510  12.908
82093W        W47254  30.169  20.510  10.224
82094W        W47255  27.074  23.913   1.215
82095W        W47256  15.654  12.635   2.367
82096W        W47257  14.594  26.239  10.690
82097W        W47258  13.274  43.070  13.425
82098W        W47259  35.548  42.017   0.811
82099W        W47260  26.356  21.505  12.201
82100W        W47261  44.296   8.180  12.861
82101W        W47262  11.374  32.456  14.056
82102W        W47263   5.335  10.287  14.535
82103W        W47264  32.747  17.261   0.770
82104W        W47265  11.366   3.324   2.789
82105W        W47266   3.877  30.332  13.457
82106W        W47267  15.059  37.707  13.087
82107W        W47268   1.787  11.730   2.359
82108W        W47269  29.701  40.376   3.271
82109W        W47270  14.990   8.742  12.576
82110W        W47271  24.153  38.781   2.697
82111W        W47272  32.109  35.376  14.780
82112W        W47273  42.416  14.660   1.772
82113W        W47274   1.989  11.409  13.928
82114W        W47275  12.677  36.066   2.408
82115W        W47276  21.536  18.647  12.887
82116W        W47277  15.241  14.243   3.400
82117W        W47278  23.425  40.366  11.112
82118W        W47279   4.483   5.269   4.536
82119W        W47280  28.678  18.180  12.471
82120W        W47281  15.356  19.651  11.358
82121W        W47282  26.998  22.502  11.549
82122W        W47283  20.817  30.720  11.603
82123W        W47284   8.638   0.960   3.630
82124W        W47285  18.026  34.504  13.445
82125W        W47286   5.126   4.722   3.910
82126W        W47287  24.841  15.537   9.618
82127W        W47288  14.549  37.085   3.877
82128W        W47289  17.631  43.182  14.364
82129W        W47290  36.356  33.908   0.282
82130W        W47291   2.842  23.914  12.486
82131W        W47292  23.700  30.301   4.990
82132W        W47293  27.575  21.391  11.024
82133W        W47294  30.384   3.301   1.400
82134W        W47295  22.675  41.719  14.923
82135W        W47296  18.512  16.668   2.565
82136W        W47297  41.963  42.470   2.840
82137W        W47298  14.215  28.446  13.864
82138W        W47299  34.486  41.844   2.537
82139W        W47300   9.762   2.854   2.170
82140W        W47301  34.295  22.566  13.156
82141W        W47302  34.938  40.932   3.806
82142W        W47303   8.177  25.199  11.634
82143W        W47304   4.469  27.270   1.661
82144W        W47305  41.402  30.556  14.349
82145W        W47306  18.718   2.353   1.710
82146W        W47307   5.968  20.078   3.168
82147W        W47308  22.716  42.179  10.678
82148W        W47309  19.113  12.634   4.682
82149W        W47310  44.893  34.528   0.021
82150W        W47311  15.609  10.351  10.648
82151W        W47312  29.262  26.170  11.024
82152W        W47313  17.115  43.294  12.331
82153W        W47314  33.502  20.466   4.145
82154W        W47315  21.011  42.202   3.231
82155W        W47316   4.919  15.111   1.293
82156W        W47317  11.280   9.350   1.389
82157W        W47318  18.803   4.234  11.498
82158W        W47319  38.004  12.638  13.974
82159W        W47320  35.619   2.502   3.686
82160W        W47321  18.119   0.480  13.350
82161W        W47322   7.250  17.061   2.139
82162W        W47323  24.056  10.945   4.318
82163W        W47324  27.715   7.469   3.432
82164W        W47325  22.686   8.272   2.691
82165W        W47326  13.187  32.711   2.849
82166W        W47327  12.573   9.594   1.298
82167W        W47328  16.690  32.120   2.674
82168W        W47329   3.531   7.805  13.851
82169W        W47330  44.173  25.948  13.551
82170W        W47331   2.199  39.590   4.959
82171W        W47332  27.042  38.827   1.824
82172W        W47333  40.290   5.225  13.991
82173W        W47334  17.593  34.133  12.001
82174W        W47335  38.587   2.201   0.841
82175W        W47336  25.617   3.168   3.843
82176W        W47337  38.253  19.152  13.493
82177W        W47338  15.844  28.573  13.791
82178W        W47339   9.368  44.898   1.172
82179W        W47340  19.453   4.916  11.884
82180W        W47341  27.614  42.552   4.035
82181W        W47342  11.938  27.143   3.189
82182W        W47343   7.691   7.330  10.358
82183W        W47344   7.713  43.862  14.219
82184W        W47345  28.055  30.127  14.840
82185W        W47346  35.288  16.657  13.050
82186W        W47347   9.872  44.851   1.062
82187W        W47348  11.227  18.301  14.349
82188W        W47349  16.352  20.595   3.264
82189W        W47350   4.395  28.894   2.156
82190W        W47351  37.670   2.551   0.744
82191W        W47352  19.115  28.581  11.592
82192W        W47353  13.136  16.086  12.465
82193W        W47354  15.152  10.323   3.242
82194W        W47355  44.653  40.858   9.712
82195W        W47356   2.161  43.006  12.921
82196W        W47357  35.583  18.798   4.162
82197W        W47358  26.948  30.353  10.387
82198W        W47359  24.765  16.536  12.079
82199W        W47360  39.852  14.965  14.017
82200W        W47361  31.533  39.421   5.415
82201W        W47362  23.883  24.042   2.636
82202W        W47363   6.906  25.026  13.796
82203W        W47364   7.255  14.089  11.095
82204W        W47365  26.782  39.651  11.266
82205W        W47366  39.191  16.652   1.033
82206W        W47367   2.425  24.212  12.186
82207W        W47368  42.917  34.557  14.108
82208W        W47369   8.249   0.299   1.660
82209W        W47370   5.964   6.971   0.920
82210W        W47371  43.222  31.040  14.044
82211W        W47372  42.305  12.783  10.771
82212W        W47373   9.419   2.725  11.074
82213W        W47374   9.097  43.677   4.636
82214W        W47375  17.586  43.256   2.234
82215W        W47376  30.927  35.578   4.562
82216W        W47377  25.775  41.586  12.132
82217W        W47378   2.737  36.201   0.804
82218W        W47379   1.824  28.122   3.733
82219W        W47380   8.210  12.296   1.671
82220W        W47381  14.325  21.101  11.054
82221W        W47382   5.961  42.686  14.557
82222W        W47383  21.307  14.083   4.122
82223W        W47384  43.951  25.774   4.728
82224W        W47385  23.359   2.773  12.492
82225W        W47386  27.625  42.520  13.834
82226W        W47387   7.229  17.527   1.927
82227W        W47388  35.096  12.564   1.897
82228W        W47389  11.298  26.490   4.362
82229W        W47390  22.121  44.779   0.504
82230W        W47391   4.261  22.656  14.263
82231W        W47392  15.820  26.736  12.515
82232W        W47393  39.532  11.337  13.422
82233W        W47394  18.171   6.968  14.812
82234W        W47395  31.636   6.505   4.106
82235W        W47396   7.312  34.147  14.900
82236W        W47397   3.868  22.705  13.643
82237W        W47398  15.612  34.180  14.578
82238W        W47399  10.598  15.128  14.892
82239W        W47400   6.713  31.059  11.542
82240W        W47401  38.735  31.265  11.623
82241W        W47402  19.235   2.209   4.058
82242W        W47403   9.082  15.694  10.971
82243W        W47404  34.519  19.537  10.478
82244W        W47405  44.287  25.579  11.611
82245W        W47406  22.764  17.912   1.825
82246W        W47407  22.586  12.043  13.510
82247W        W47408  11.507  18.833   2.590
82248W        W47409  34.942  10.263  13.926
82249W        W47410   6.541  25.757   2.785
82250W        W47411  25.652  38.299   1.091
82251W        W47412   0.451   1.507  11.026
82252W        W47413  34.626  10.080   4.588
82253W        W47414  35.447  40.751  12.935
82254W        W47415  23.458  29.203  10.716
82255W        W47416  25.630   9.773  14.405
82256W        W47417  35.855  25.249   1.388
82257W        W47418  18.962   4.630  11.823
82258W        W47419  26.027  19.028  13.007
82259W        W47420   9.564  20.598   0.465
82260W        W47421  25.544  21.333   1.443
82261W        W47422  34.965  23.462  13.122
82262W        W47423  18.333  30.043   0.960
82263W        W47424  37.789  12.834   0.478
82264W        W47425   7.940  32.435   1.789
82265W        W47426  19.751  31.497   0.876
82266W        W47427   3.964  30.383  14.806
82267W        W47428   5.511  19.157   3.731
82268W        W47429  42.711  39.577  12.536
82269W        W47430  27.721   1.381  11.046
82270W        W47431  41.281  17.550  12.894
82271W        W47432   2.980  35.330  13.957
82272W        W47433  40.589   8.664  11.472
82273W        W47434   1.999  30.001  13.408
82274W        W47435  35.054  35.969   4.598
82275W        W47436   4.249  34.407  11.264
82276W        W47437  43.588  19.615   3.102
82277W        W47438  43.845  11.136  13.371
82278W        W47439  23.312  21.010   4.555
82279W        W47440   2.847  40.990  11.589
82280W        W47441   9.808   9.918  11.647
82281W        W47442  27.427  25.971   0.676
82282W        W47443   2.048  44.369   3.355
82283W        W47444  37.621   2.447  12.435
82284W        W47445  28.687  17.112   2.161
82285W        W47446  30.767  10.681   3.804
82286W        W47447  35.912   8.099  12.433
82287W        W47448  21.183  42.463   1.349
82288W        W47449   3.747  36.006  14.095
82289W        W47450  10.365  41.959  14.758
82290W        W47451  34.891   4.893   5.148
82291W        W47452  44.191  19.113   0.874
82292W        W47453  37.464  11.376   3.862
82293W        W47454  10.318  28.767   4.022
82294W        W47455   6.980  28.560  12.761
82295W        W47456  18.264  34.322   2.402
82296W        W47457  14.303  16.206  12.072
82297W        W47458  28.240  12.829  12.857
82298W        W47459  39.436  39.881   0.130
82299W        W47460  30.851   5.369   2.658
82300W        W47461  13.657  11.397  13.981
82301W        W47462  42.058   6.365  11.102
82302W        W47463  21.000   2.904   3.229
82303W        W47464  39.854  41.601   4.167
82304W        W47465  36.677   6.997  12.019
82305W        W47466  43.823  12.588  10.736
82306W        W47467   7.730  29.375   3.176
82307W        W47468   4.381   3.629  12.566
82308W        W47469  25.481   3.462   4.259
82309W        W47470  31.070   9.147   4.659
82310W        W47471   3.280   6.742  12.996
82311W        W47472  19.476   1.726   2.011
82312W        W47473  24.021  44.787   1.674
82313W        W47474  25.565  43.003  14.232
82314W        W47475  26.965  24.640   9.693
82315W        W47476  44.769   8.205   1.856
82316W        W47477  20.112  37.237   3.697
82317W        W47478  27.085  20.263   1.549
82318W        W47479  21.605  23.753  13.313
82319W        W47480  25.742  38.247  11.091
82320W        W47481  31.243  38.891   4.568
82321W        W47482  37.819  19.031  11.280
82322W        W47483  35.949  28.634   0.760
82323W        W47484  30.540  19.300  14.516
82324W        W47485  32.519  30.077  14.430
82325W        W47486  42.785   2.887   1.271
82326W        W47487  16.309  22.348   4.739
82327W        W47488  33.801  14.491   3.816
82328W        W47489  31.627  21.631  10.554
82329W        W47490   3.008  10.607   0.721
82330W        W47491  33.351  32.552  11.858
82331W        W47492  10.441  14.264  12.093
82332W        W47493   4.879  34.451   2.884
82333W        W47494  27.136  21.838   0.249
82334W        W47495  36.093   5.383  12.567
82335W        W47496  13.921   4.244  12.853
82336W        W47497   3.871  38.055   2.133
82337W        W47498  32.761  21.044  13.366
82338W        W47499  35.129   5.983   4.544
82339W        W47500  30.446   4.695   1.496
82340W        W47501  32.031  21.246  14.596
82341W        W47502  44.923  22.036   4.165
82342W        W47503  11.919  31.210  12.528
82343W        W47504  27.231  40.153   2.808
82344W        W47505  23.779  42.573  11.658
82345W        W47506   0.537   6.458   2.765
82346W        W47507  30.153  28.434   2.666
82347W        W47508  18.104  24.194   0.941
82348W        W47509  10.211   2.461  14.943
82349W        W47510   8.185  22.159  12.337
82350W        W47511   9.541  28.903   1.008
82351W        W47512  35.238  19.696   5.164
82352W        W47513  32.858  13.795   3.358
82353W        W47514  10.645  31.585  11.603
82354W        W47515  15.162  36.471  14.346
82355W        W47516  13.034  44.044   1.496
82356W        W47517  29.201  39.572  12.129
82357W        W47518  13.607  12.308  11.253
82358W        W47519  30.629  11.844   1.914
82359W        W47520   3.827   3.452  13.634
82360W        W47521  26.141  10.964  11.568
82361W        W47522  17.117  32.922  11.372
82362W        W47523  24.193  21.411  14.023
82363W        W47524  42.023  10.760  10.791
82364W        W47525  14.465  42.608   5.792
82365W        W47526  16.880   6.072   3.817
82366W        W47527   3.973  42.988  10.873
82367W        W47528   1.793  39.856  14.106
82368W        W47529  19.144  18.824  10.390
82369W        W47530  27.578  11.378  14.540
82370W        W47531  17.054  31.794   2.832
82371W        W47532  42.475  15.599  14.870
82372W        W47533   2.389  27.560   1.389
82373W        W47534  10.700  12.092  10.511
82374W        W47535  29.146  37.546  14.506
82375W        W47536  23.204  10.416   4.072
82376W        W47537  27.138  29.229   4.224
82377W        W47538  41.957  21.228  12.073
82378W        W47539  26.771  24.928  12.325
82379W        W47540  25.559  23.618  14.159
82380W        W47541  30.417  10.596  10.734
82381W        W47542  31.102  42.013  14.944
82382W        W47543  37.433  25.246   1.663
82383W        W47544  30.319  16.642   0.849
82384W        W47545  40.822  10.309  10.984
82385W        W47546  13.820  14.072   4.268
82386W        W47547  29.538   1.053  10.736
82387W        W47548  20.131   4.320  10.798
82388W        W47549   8.977   7.918  11.400
82389W        W47550  37.054  38.163   2.258
82390W        W47551   3.827  13.203  10.021
82391W        W47552  32.621  37.963   0.995
82392W        W47553  21.631  14.294   1.829
82393W        W47554  35.116   1.823  13.947
82394W        W47555   1.275   7.076  10.538
82395W        W47556  37.397  31.951  13.522
82396W        W47557  36.524  26.609  10.693
82397W        W47558  19.736   0.404   1.247
82398W        W47559  18.120  15.797  13.392
82399W        W47560  29.939  11.276  10.609
82400W        W47561  22.783  30.106   0.855
82401W        W47562   0.847  37.641   3.120
82402W        W47563  13.168  16.790   3.511
82403W        W47564  12.391  23.751  13.052
82404W        W47565  24.679  29.498  13.408
82405W        W47566   8.224  26.698  11.604
82406W        W47567  23.814  40.159  11.702
82407W        W47568  39.212  44.035  14.736
82408W        W47569  32.567  40.971  11.880
82409W        W47570  12.501  34.568  11.753
82410W        W47571   6.498  11.151   4.184
82411W        W47572  27.293   9.764  12.908
82412W        W47573  10.408  36.491   0.025
82413W        W47574  33.067  39.491   1.709
82414W        W47575  29.588  28.194   0.011
82415W        W47576  18.711  41.563   1.173
82416W        W47577  19.505  34.035   3.771
82417W        W47578   5.671   5.893   4.196
82418W        W47579  15.672  13.409   1.740
82419W        W47580  35.975   3.552   3.624
82420W        W47581  32.856   2.464   2.378
82421W        W47582   0.925  43.571  11.940
82422W        W47583  16.112   9.323  12.957
82423W        W47584  39.664   7.108   0.782
82424W        W47585  28.412   0.199   1.526
82425W        W47586  30.826   4.966  12.999
82426W        W47587  33.847   3.498   0.340
82427W        W47588  15.557  20.115  12.086
82428W        W47589  13.777  22.521  12.983
82429W        W47590  20.121  37.826   1.939
82430W        W47591  13.871  10.859  10.557
82431W        W47592   8.251  44.468   1.710
82432W        W47593   8.154  19.047  13.863
82433W        W47594  42.402  31.880  12.076
82434W        W47595  41.003  37.316  11.120
82435W        W47596  30.440  36.730  12.663
82436W        W47597  14.651  38.077   2.612
82437W        W47598  42.759  29.134   1.934
82438W        W47599  14.692  30.700  14.091
82439W        W47600  40.021  40.818  11.561
82440W        W47601  16.283   9.875   3.749
82441W        W47602  22.727   4.959   3.673
82442W        W47603  31.365  26.077   2.323
82443W        W47604  25.229  34.094  11.537
82444W        W47605  23.723  10.863   2.463
82445W        W47606  17.132  21.486  11.539
82446W        W47607  25.018  43.381   0.477
82447W        W47608  10.279  16.583   4.070
82448W        W47609  15.172   2.488   1.802
82449W        W47610  40.093  32.663  13.376
82450W        W47611  16.056  32.999   4.098
82451W        W47612  27.652  40.485  13.982
82452W        W47613  18.578  40.379  14.123
82453W        W47614  19.758  41.877  11.445
82454W        W47615  20.246  44.436   1.673
82455W        W47616  38.154  34.448  10.685
82456W        W47617   1.829   5.355   3.319
82457W        W47618  31.588  33.704   0.802
82458W        W47619  38.199   4.680  12.126
82459W        W47620  35.369   1.674   3.289
82460W        W47621  31.457  21.083   3.999
82461W        W47622   3.679  26.149   1.625
82462W        W47623   3.184  12.273   1.482
82463W        W47624  39.773  26.233  14.935
82464W        W47625  11.659  41.923  11.183
82465W        W47626  16.049  25.717  12.367
82466W        W47627   9.410  39.443  14.935
82467W        W47628  21.718  34.755  12.097
82468W        W47629  15.354  41.534  10.504
82469W        W47630  21.080   4.195  12.453
82470W        W47631  42.436   1.410   0.364
82471W        W47632   1.402  22.771   1.943
82472W        W47633  43.324   4.905  13.119
82473W        W47634   1.262  41.097  13.512
82474W        W47635   0.900  20.274   2.307
82475W        W47636  43.866  22.905  11.017
82476W        W47637  38.489  36.247   4.093
82477W        W47638  12.158  34.907  14.951
82478W        W47639  16.789  13.770  13.345
82479W        W47640   8.860  16.641  11.604
82480W        W47641  27.154  13.136  14.279
82481W        W47642  27.476  22.148   0.738
82482W        W47643  25.107  25.124  12.675
82483W        W47644  20.408  41.297  12.134
82484W        W47645  11.076  23.615   0.839
82485W        W47646  19.766  36.546  11.369
82486W        W47647   2.416   6.569  14.416
82487W        W47648  34.012  43.957  13.071
82488W        W47649   5.633   1.447  11.141
82489W        W47650  29.714  35.908  12.404
82490W        W47651   5.605  13.894  12.901
82491W        W47652  16.628  36.039  14.484
82492W        W47653  16.811  39.312  13.639
82493W        W47654  14.179   2.387   0.947
82494W        W47655   7.414  26.510  12.923
82495W        W47656  17.127  31.348   0.429
82496W        W47657  43.532  38.488  14.546
82497W        W47658   2.770  36.677   1.505
82498W        W47659  16.804  25.399   0.350
82499W        W47660  17.296  40.557  12.459
82500W        W47661  18.039  28.016  10.577
82501W        W47662  10.249   6.752  14.110
82502W        W47663  26.520  38.034  14.578
82503W        W47664   3.777  43.471   3.295
82504W        W47665  28.898  18.217  10.404
82505W        W47666  28.098   3.945   3.690
82506W        W47667  30.927  30.416   0.385
82507W        W47668  28.412   3.458   3.279
82508W        W47669  39.433   0.854   4.646
82509W        W47670   7.962  17.673   1.322
82510W        W47671  43.499  28.915  12.003
82511W        W47672  23.635  26.232   3.527
82512W        W47673  38.999  19.206   0.975
82513W        W47674  37.366  25.546   4.455
82514W        W47675   3.851  29.991  13.848
82515W        W47676  31.993  34.803   0.785
82516W        W47677  37.255  11.633  11.612
82517W        W47678  27.715  20.041  13.544
82518W        W47679  14.596  29.253  10.351
82519W        W47680  37.307  28.701  11.981
82520W        W47681  19.328  43.883  12.651
82521W        W47682  34.007  18.639   1.217
82522W        W47683  30.943  38.189   2.474
82523W        W47684  21.547  32.376   0.650
82524W        W47685  17.206  26.780   9.993
82525W        W47686  11.643  31.234   3.217
82526W        W47687   4.434  12.697  11.172
82527W        W47688  18.642   1.173  14.379
82528W        W47689  15.400  43.302   4.128
82529W        W47690  29.163  30.518  10.595
82530W        W47691  22.656  43.009  12.154
82531W        W47692   6.915   4.948  13.970
82532W        W47693   1.953  38.348   1.753
82533W        W47694  28.906  24.641   1.811
82534W        W47695  15.958   3.169   4.034
82535W        W47696  40.931  21.485   0.700
82536W        W47697  19.286  18.164   3.731
82537W        W47698  31.418  23.543   1.705
82538W        W47699   9.419  41.965  13.097
82539W        W47700  39.898  34.852   1.207
82540W        W47701   8.810  31.375   1.756
82541W        W47702  28.938  25.846  11.507
82542W        W47703  19.726   0.485  10.244
82543W        W47704  42.303  12.567  14.559
82544W        W47705  24.774  33.475  12.902
82545W        W47706  40.355   8.001   1.207
82546W        W47707  13.837  44.471  11.133
82547W        W47708  26.211   9.973   1.906
82548W        W47709  38.123   0.950   2.215
82549W        W47710  27.515   0.706   3.648
82550W        W47711  28.079  13.245   0.516
82551W        W47712  37.047  20.641   4.154
82552W        W47713  32.055  19.305   3.758
82553W        W47714  34.017  21.970   2.787
82554W        W47715  35.336   4.718  12.461
82555W        W47716  22.268  38.003  14.430
82556W        W47717  35.637   5.138  12.488
82557W        W47718  23.758  13.106  14.864
82558W        W47719   1.295   3.925  10.682
82559W        W47720  23.983  14.775  10.595
82560W        W47721   8.275  32.721   3.156
82561W        W47722  21.643  26.647  10.277
82562W        W47723  44.490  42.424  13.345
82563W        W47724  44.800  12.774   1.284
82564W        W47725  31.693  42.546  12.907
82565W        W47726  11.842  17.879   1.765
82566W        W47727  15.191  24.898  11.653
82567W        W47728  34.929  30.888   0.353
82568W        W47729   2.286  21.482  12.529
82569W        W47730  44.757  31.787   2.270
82570W        W47731   7.891  25.662   1.996
82571W        W47732  26.877  39.690   0.313
82572W        W47733  22.515  13.154   1.291
82573W        W47734   8.340   2.461   1.882
82574W        W47735  38.513  13.403   2.236
82575W        W47736  39.954   1.862   1.953
82576W        W47737  31.149  19.216   3.804
82577W        W47738  30.153   0.237  12.253
82578W        W47739   9.590  24.218  10.694
82579W        W47740  30.887  33.712  11.963
82580W        W47741  22.591  11.685   1.386
82581W        W47742  25.969  12.728  12.119
82582W        W47743  39.521  40.693   2.671
82583W        W47744  38.881  17.276   2.284
82584W        W47745  19.837  16.492  13.824
82585W        W47746   2.410  13.684   0.599
82586W        W47747  32.985  14.540   0.224
82587W        W47748  26.035   8.592  14.657
82588W        W47749  35.311   7.631   2.212
82589W        W47750   7.192  14.863   3.386
82590W        W47751  42.147  43.174  11.180
82591W        W47752  33.215  19.459   1.944
82592W        W47753  20.969  30.879   0.309
82593W        W47754   0.292  14.271   2.354
82594W        W47755  22.087   5.726  11.027
82595W        W47756  39.068  31.711   2.900
82596W        W47757  32.686   4.644  12.112
82597W        W47758   5.524  13.625  13.969
82598W        W47759  28.171  18.541  12.901
82599W        W47760   0.873  16.780   3.516
82600W        W47761  20.572  37.812   3.636
82601W        W47762  15.559   2.805   0.236
82602W        W47763  20.041   5.957   2.050
82603W        W47764  33.348   8.151   0.883
82604W        W47765  18.635  31.110  12.916
82605W        W47766   8.213  39.752  12.580
82606W        W47767  31.718  18.132   2.748
82607W        W47768  16.767  22.625   4.180
82608W        W47769   7.181   3.231   0.644
82609W        W47770  29.164  37.071  14.263
82610W        W47771   7.098  21.271  14.469
82611W        W47772  12.169  32.369   3.591
82612W        W47773  31.026   1.264  11.630
82613W        W47774  19.930   6.235  10.264
82614W        W47775  11.182  40.391   3.262
82615W        W47776  38.142  15.683  11.991
82616W        W47777  43.321  26.677  13.638
82617W        W47778  39.993  34.185   0.760
82618W        W47779   1.382  39.379  13.436
82619W        W47780  11.163  17.714  12.838
82620W        W47781  29.051  31.429  10.616
82621W        W47782  25.027   6.956   2.287
82622W        W47783  25.730  25.846   1.226
82623W        W47784  10.936  42.375  11.646
82624W        W47785  39.575   0.782  14.533
82625W        W47786   4.778  25.488   0.450
82626W        W47787  17.944   8.723   0.324
82627W        W47788  12.740   8.136   1.507
82628W        W47789  15.301  31.169   0.295
82629W        W47790  12.690  29.449   3.553
82630W        W47791  24.650  20.875  13.507
82631W        W47792  27.442  37.117   3.889
82632W        W47793  36.816   0.533  14.823
82633W        W47794  26.131  35.704  11.994
82634W        W47795  16.631  35.807   4.575
82635W        W47796   0.534  44.927   3.573
82636W        W47797  21.118   3.594   0.397
82637W        W47798  30.492  20.753  13.754
82638W        W47799  16.332   9.944  14.263
82639W        W47800  22.643  28.775  11.022
82640W        W47801  42.054  15.750   4.095
82641W        W47802  10.800  13.170  13.512
82642W        W47803  11.594  39.986   2.205
82643W        W47804  19.170  36.260  10.825
82644W        W47805   3.251  12.307  11.468
82645W        W47806   8.338   4.209  12.009
82646W        W47807  12.642  28.601   0.881
82647W        W47808   9.482  12.163  13.932
82648W        W47809  18.828  12.636   1.726
82649W        W47810  10.902   9.216  14.421
82650W        W47811   9.263  16.029  13.125
82651W        W47812   3.969  35.591   0.891
82652W        W47813  30.392  37.433   1.707
82653W        W47814  29.432   3.368   0.354
82654W        W47815  11.329  32.130  11.423
82655W        W47816  12.900   4.892   2.745
82656W        W47817  13.650  17.293   1.879
82657W        W47818   7.120  37.951  12.442
82658W        W47819  32.660  33.635  10.322
82659W        W47820  40.319  41.084  12.666
82660W        W47821  33.197  17.862  14.643
82661W        W47822  34.156  23.711  14.263
82662W        W47823  13.785  43.039   0.498
82663W        W47824   4.523  30.492  13.491
82664W        W47825  37.044  28.651  14.924
82665W        W47826  38.336  12.173  13.225
82666W        W47827   9.512  35.896   1.221
82667W        W47828  11.954   6.719  13.571
82668W        W47829   6.773  29.863   2.907
82669W        W47830  24.293  40.679  10.718
82670W        W47831  40.838  41.890  13.954
82671W        W47832  23.747  24.372  11.664
82672W        W47833  26.474  28.129   3.235
82673W        W47834  12.731  32.029   0.821
82674W        W47835  14.211  14.662   3.657
82675W        W47836   1.866  41.790   2.354
82676W        W47837  29.628  37.459  11.741
82677W        W47838  15.041  26.691  13.880
82678W        W47839  44.500  36.464   4.722
82679W        W47840   7.970  20.155   4.599
82680W        W47841  18.665  34.837   2.586
82681W        W47842  34.556  33.606  10.704
82682W        W47843  18.143  13.865   0.446
82683W        W47844  43.841  38.015  12.899
82684W        W47845  14.667   4.282   4.903
82685W        W47846  15.749  35.836  14.924
82686W        W47847   5.314  37.934  14.632
82687W        W47848  33.665  28.231   5.218
82688W        W47849  16.295   7.095   0.576
82689W        W47850  23.195  15.640   1.317
82690W        W47851  11.763   6.757  11.252
82691W        W47852  10.734  11.167  11.413
82692W        W47853  16.766  18.330   0.803
82693W        W47854   1.314  35.579   2.341
82694W        W47855  25.642  27.796   3.171
82695W        W47856  18.608   7.013  12.553
82696W        W47857  11.050  10.633  14.084
82697W        W47858  41.836  12.431  12.099
82698W        W47859  35.581   2.761  13.523
82699W        W47860  34.889  18.864  12.138
82700W        W47861  31.635  17.940   4.406
82701W        W47862  16.519  28.124   1.275
82702W        W47863  26.653  37.078   3.712
82703W        W47864   3.158   4.466  13.303
82704W        W47865  11.859  28.929   2.807
82705W        W47866   0.573  43.728  14.477
82706W        W47867  26.114   8.523   5.099
82707W        W47868  34.895   3.393   4.936
82708W        W47869  23.934  39.390  12.918
82709W        W47870  19.256   3.507  14.570
82710W        W47871  42.473  25.056   4.997
82711W        W47872   6.841  10.063   3.647
82712W        W47873  38.008   4.685  10.104
82713W        W47874  14.788   1.009  11.155
82714W        W47875  32.983   1.817   3.733
82715W        W47876   2.949  39.766   3.754
82716W        W47877  14.155  44.249   2.732
82717W        W47878   6.536  35.324   2.674
82718W        W47879  20.435  27.580   4.016
82719W        W47880  29.243  20.648  13.305
82720W        W47881   1.624  35.309  13.012
82721W        W47882  25.917  40.771  10.723
82722W        W47883  33.829  26.150   3.144
82723W        W47884  35.830  32.574   2.256
82724W        W47885  35.589  16.505  10.660
82725W        W47886  38.337  26.069   0.881
82726W        W47887  28.277  35.911   1.248
82727W        W47888  38.651  33.395   3.789
82728W        W47889  32.384  40.896  10.590
82729W        W47890   2.785  40.428   1.623
82730W        W47891   5.749  16.610   2.322
82731W        W47892   1.273  35.943   1.197
82732W        W47893  36.470  40.318   2.191
82733W        W47894  31.778   3.420  11.180
82734W        W47895  35.100  10.800  14.567
82735W        W47896   8.094  25.663   3.893
82736W        W47897  42.042  14.040  13.308
82737W        W47898  39.994  19.577   4.636
82738W        W47899  16.238  11.259  14.922
82739W        W47900  29.505   8.935  13.709
82740W        W47901  35.738   6.930   1.485
82741W        W47902  18.023  38.916   0.789
82742W        W47903  17.184   1.357  10.619
82743W        W47904  30.450  27.578  13.191
82744W        W47905  35.230  42.469  14.980
82745W        W47906  31.645   9.758  13.029
82746W        W47907   8.383   4.726   2.195
82747W        W47908  30.087  25.771  13.056
82748W        W47909  14.593   1.737  14.888
82749W        W47910  33.379  44.945   4.249
82750W        W47911   0.933  42.295   0.340
82751W        W47912  28.624   9.679  13.280
82752W        W47913   8.726   4.937   1.415
82753W        W47914  38.673  15.540   0.461
82754W        W47915  19.028  26.488  11.646
82755W        W47916   4.300  43.975   3.825
82756W        W47917  13.613  15.805  12.669
82757W        W47918  18.050  34.726   4.736
82758W        W47919  42.438  30.075  12.214
82759W        W47920   2.287   4.014   4.383
82760W        W47921   2.837  10.607   1.656
82761W        W47922  31.270  30.014   2.171
82762W        W47923   7.907  13.423  12.914
82763W        W47924  16.479   2.390   1.366
82764W        W47925   1.752  29.884   1.418
82765W        W47926  10.049  13.952  13.565
82766W        W47927  39.323  15.539   4.257
82767W        W47928  17.538  41.060  12.587
82768W        W47929  33.164  27.642  14.311
82769W        W47930   0.165   0.825   0.141
82770W        W47931  29.433  28.650  14.736
82771W        W47932  20.577  18.642  12.102
82772W        W47933  43.664  30.235   1.949
82773W        W47934  34.097  42.983  11.854
82774W        W47935  28.577  35.957   4.267
82775W        W47936   0.405  20.062   2.340
82776W        W47937  27.985  16.449  14.106
82777W        W47938  37.639  13.292   2.769
82778W        W47939   9.717  14.809  13.099
82779W        W47940   0.998  24.700  12.411
82780W        W47941   7.611  31.039   3.424
82781W        W47942  38.934  12.708   2.421
82782W        W47943  43.664  24.263  12.617
82783W        W47944  31.546  28.118  10.437
82784W        W47945  12.141  20.701   4.063
82785W        W47946  24.315  17.725  11.636
82786W        W47947  28.447  17.832  13.565
82787W        W47948  38.637  26.095  11.544
82788W        W47949  19.949  41.329   4.476
82789W        W47950  12.851   1.230  14.010
82790W        W47951  35.756  43.100   2.714
82791W        W47952  24.813  36.928   5.444
82792W        W47953  35.670  30.031   0.696
82793W        W47954  15.679  15.177   3.071
82794W        W47955  38.090  28.714   2.702
82795W        W47956  37.506  15.982   0.435
82796W        W47957  44.763   3.814  13.795
82797W        W47958  43.456  19.718   5.052
82798W        W47959  40.890  38.950  14.479
82799W        W47960  18.805   7.911  13.576
82800W        W47961  18.650  18.218  12.450
82801W        W47962   9.843   2.685   1.267
82802W        W47963   2.362   8.645   3.108
82803W        W47964  31.228  36.412   2.475
82804W        W47965  24.353   0.864   0.254
82805W        W47966  31.724  12.340  13.283
82806W        W47967   6.174  19.143   2.628
82807W        W47968   1.237  11.382   4.531
82808W        W47969  32.985  21.611  12.807
82809W        W47970  30.571  20.196  12.879
82810W        W47971  27.352  33.511  11.109
82811W        W47972   8.155  18.805   0.839
82812W        W47973   6.368  25.105  12.062
82813W        W47974  29.980  21.454  13.965
82814W        W47975  23.696   8.164   1.177
82815W        W47976  22.989   3.991   0.818
82816W        W47977  37.442  19.991   4.638
82817W        W47978  29.429   3.447  11.679
82818W        W47979  25.529   1.977  11.974
82819W        W47980   1.614  42.474  14.787
82820W        W47981  37.213   6.716   0.403
82821W        W47982  36.883  16.175   4.458
82822W        W47983  36.769   9.868  11.223
82823W        W47984  18.634  14.043   3.031
82824W        W47985  22.853  14.416   4.608
82825W        W47986   1.532  39.562   0.490
82826W        W47987  23.831  20.898   4.535
82827W        W47988  40.818   8.343   4.235
82828W        W47989   8.969  33.614  13.285
82829W        W47990  41.972  35.898  13.460
82830W        W47991   6.287   0.988  14.321
82831W        W47992  33.956  25.477  11.146
82832W        W47993  30.895  14.679   3.809
82833W        W47994  39.754   2.078  11.176
82834W        W47995  22.319  39.992   1.873
82835W        W47996  30.891   7.756  11.191
82836W        W47997  15.523  21.103   4.071
82837W        W47998  33.080  26.377  12.795
82838W        W47999  42.515  39.695  11.621
82839W        W48000   5.264  31.573  13.842
82840W        W48001   5.543  38.010  11.967
82841W        W48002   8.326   0.181   4.047
82842W        W48003  32.534  15.795   0.719
82843W        W48004  12.906  37.959   3.894
82844W        W48005  25.498   2.204   0.822
82845W        W48006  22.289  10.461   2.638
82846W        W48007   1.364   0.778  14.253
82847W        W48008  23.982  19.316   0.637
82848W        W48009   6.436  44.944   1.411
82849W        W48010  38.702  23.572  12.086
82850W        W48011   5.830  32.690  11.177
82851W        W48012  12.212  42.255   2.269
82852W        W48013  26.117  30.540   0.697
82853W        W48014  23.049  11.727  11.507
82854W        W48015  43.691  17.820  12.515
82855W        W48016  15.709  12.612  11.198
82856W        W48017  14.825   8.766  11.389
82857W        W48018   7.604  36.440  10.679
82858W        W48019  41.938  15.374   2.392
82859W        W48020   5.916  21.068   4.659
82860W        W48021   2.852  27.730   2.333
82861W        W48022  32.955  35.632   3.813
82862W        W48023  35.603  28.945   2.429
82863W        W48024  41.006  24.811  13.969
82864W        W48025   0.380  25.867  12.152
82865W        W48026   8.998  21.831   3.259
82866W        W48027  20.754  38.195   2.845
82867W        W48028  36.076  33.473   4.260
82868W        W48029  26.178  34.551   0.876
82869W        W48030  43.791  14.556  13.399
82870W        W48031  32.264  26.575  13.389
82871W        W48032  42.310  33.553   3.368
82872W        W48033  24.602   8.534   4.706
82873W        W48034  15.204  27.402  12.737
82874W        W48035  16.830  32.862  13.045
82875W        W48036  32.464   5.723   3.810
82876W        W48037  12.333  35.829  13.529
82877W        W48038  11.724  39.478   2.422
82878W        W48039  34.751  23.523   4.543
82879W        W48040  15.714  21.665   0.485
82880W        W48041  11.679  25.994  12.834
82881W        W48042  10.217  26.570  14.471
82882W        W48043  27.065  19.959   4.207
82883W        W48044  32.351  35.695   4.380
82884W        W48045   7.902  39.792   2.268
82885W        W48046   6.152  20.054   2.688
82886W        W48047  13.134  14.311  12.542
82887W        W48048  39.573  21.497   0.582
82888W        W48049  12.888  37.343  14.364
82889W        W48050   8.087  33.022  11.108
82890W        W48051  44.704  39.449  12.413
82891W        W48052  40.331   3.327   1.917
82892W        W48053  29.432  19.310   1.216
82893W        W48054  35.883  18.897   4.760
82894W        W48055  40.014   4.602   3.205
82895W        W48056  23.497  37.581  11.633
82896W        W48057  29.178  21.927  12.035
82897W        W48058  41.186  11.339  13.027
82898W        W48059  17.765  31.035   4.392
82899W        W48060  14.749  14.367   0.039
82900W        W48061  43.258  26.225  11.548
82901W        W48062  42.347  18.004   0.299
82902W        W48063  31.865  20.297   0.844
82903W        W48064  34.367  33.858  11.574
82904W        W48065   5.160  27.026  13.863
82905W        W48066  21.074  38.319  11.303
82906W        W48067  38.216  35.862  13.021
82907W        W48068  27.486  37.321  10.920
82908W        W48069  28.082  14.684  12.630
82909W        W48070  26.578  25.951  10.379
82910W        W48071   4.057  22.761   3.348
82911W        W48072  23.904  13.023   3.250
82912W        W48073  37.516  36.632  11.649
82913W        W48074  39.434  11.663  11.587
82914W        W48075  18.855   4.691  11.232
82915W        W48076  38.350  36.917  12.878
82916W        W48077  14.293  27.627   3.711
82917W        W48078  10.103  25.517   4.170
82918W        W48079   5.441  43.349   1.875
82919W        W48080  31.727  38.725   4.598
82920W        W48081  41.510  33.518  11.157
82921W        W48082  29.257  42.953  14.208
82922W        W48083   8.353  22.779   0.799
82923W        W48084  37.974  11.910  14.381
82924W        W48085   5.480  24.905  13.816
82925W        W48086   7.753  38.601  10.470
82926W        W48087  11.143  38.006  14.647
82927W        W48088  42.834  31.706   3.221
82928W        W48089   4.469   3.225  10.641
82929W        W48090  36.940  30.996   3.879
82930W        W48091   4.013  14.751  11.495
82931W        W48092  23.090  38.241  10.675
82932W        W48093  21.654   0.524  11.508
82933W        W48094  18.645  22.366  10.492
82934W        W48095   2.654  29.004  11.251
82935W        W48096   5.930  29.597  12.984
82936W        W48097  13.313  39.058   0.927
82937W        W48098  28.308  28.063  12.436
82938W        W48099  39.399  41.058  14.197
82939W        W48100  13.654  11.690  12.055
82940W        W48101  21.874  28.225  14.790
82941W        W48102  16.652   4.463  11.200
82942W        W48103  12.665   1.691  13.831
82943W        W48104  30.349   5.498  14.163
82944W        W48105  19.593  11.612  12.443
82945W        W48106  32.192   3.220  13.607
82946W        W48107   5.789   4.000  11.954
82947W        W48108  27.350  38.900   3.159
82948W        W48109  44.620  35.354   1.527
82949W        W48110  42.955   4.212   2.760
82950W        W48111   5.593  14.579  10.669
82951W        W48112  21.454  21.031   2.346
82952W        W48113   7.844   0.594   0.057
82953W        W48114  37.401  14.874  10.764
82954W        W48115  27.084  26.127   2.210
82955W        W48116  21.984   7.906  13.619
82956W        W48117  41.387  41.050   1.783
82957W        W48118  43.643   5.492  14.720
82958W        W48119  36.924  27.624  14.425
82959W        W48120   0.919  40.348  13.834
82960W        W48121  31.687  33.713  13.483
82961W        W48122   7.316  20.279   4.207
82962W        W48123  24.612   5.645   2.241
82963W        W48124   5.443  33.781  13.556
82964W        W48125   3.675  40.566  12.021
82965W        W48126  33.361  39.013   1.432
82966W        W48127   9.356  19.948  14.497
82967W        W48128  15.868  27.343   4.508
82968W        W48129   1.976  19.399   1.766
82969W        W48130  34.980   8.341  14.045
82970W        W48131  19.656   0.109  10.650
82971W        W48132   2.269  28.462   4.167
82972W        W48133  31.371  36.419   4.694
82973W        W48134  27.178  18.690  14.060
82974W        W48135  39.080   3.557  14.379
82975W        W48136  20.713  20.038   2.555
82976W        W48137  11.821  41.356   2.432
82977W        W48138  42.603  16.297   2.969
82978W        W48139  44.289  22.091  11.499
82979W        W48140  16.897  42.152   4.106
82980W        W48141  17.667  25.265  10.352
82981W        W48142   1.051  43.466   2.541
82982W        W48143  11.312  13.232  10.696
82983W        W48144   4.792   6.711  11.451
82984W        W48145  43.422  16.222  12.990
82985W        W48146  28.075  24.229  12.905
82986W        W48147  24.016  17.158   4.503
82987W        W48148  20.381  15.244  13.522
82988W        W48149  38.044  31.584  11.979
82989W        W48150  40.117  41.763   2.597
82990W        W48151  31.240  39.956  11.484
82991W        W48152   7.275  14.139  13.310
82992W        W48153  14.102   1.013   4.029
82993W        W48154  11.242   2.500  12.488
82994W        W48155   5.727  12.611   4.679
82995W        W48156  18.727  21.930   0.040
82996W        W48157  35.515  39.740   1.151
82997W        W48158  30.008  19.533  11.126
82998W        W48159  29.780  24.957   3.271
82999W        W48160  35.558  23.655   1.500
83000W        W48161  29.989   0.816  10.620
83001W        W48162  17.028  31.599   3.291
83002W        W48163   8.931   4.841  13.491
83003W        W48164  13.241  32.377  11.032
83004W        W48165  37.778  39.401  14.976
83005W        W48166  13.074  36.347   3.766
83006W        W48167   6.250  32.051   0.775
83007W        W48168  19.211  23.181  13.995
83008W        W48169  16.377  33.117  12.933
83009W        W48170  33.089   1.736   3.199
83010W        W48171  37.570   0.967  13.549
83011W        W48172  27.154  35.665   4.137
83012W        W48173  42.966   1.958   4.162
83013W        W48174  21.359  41.006  11.120
83014W        W48175  23.572  10.912   1.001
83015W        W48176   4.688  15.375  12.484
83016W        W48177  22.091  38.901  13.028
83017W        W48178  35.060   1.340  14.152
83018W        W48179  10.898   8.474  10.845
83019W        W48180  10.256  35.012  13.889
83020W        W48181  42.860  18.446   4.639
83021W        W48182  23.214  40.206  14.524
83022W        W48183  36.817  24.263   3.735
83023W        W48184   4.783  25.607  13.998
83024W        W48185  26.650   6.715   4.141
83025W        W48186  23.353   9.158   3.242
83026W        W48187  28.857  29.289   1.351
83027W        W48188   4.263  20.195  14.839
83028W        W48189   1.936  22.770  12.950
83029W        W48190   5.952  26.181  14.730
83030W        W48191   6.598   9.849  11.542
83031W        W48192  16.565  38.255   4.875
83032W        W48193   9.703  19.620  14.695
83033W        W48194  43.993  26.618  10.678
83034W        W48195  26.696  25.345   3.664
83035W        W48196  41.666  41.067  10.772
83036W        W48197  28.936  13.515  14.530
83037W        W48198  44.956  37.516   5.557
83038W        W48199   6.186  34.035   1.449
83039W        W48200  20.762  37.433  12.928
83040W        W48201   0.176  37.328   1.798
83041W        W48202   1.792  31.633   1.908
83042W        W48203  27.466  22.645   3.324
83043W        W48204  13.605  42.564   0.978
83044W        W48205  20.517  41.096   0.271
83045W        W48206  43.976   2.922   2.752
83046W        W48207  37.855  41.816  10.525
83047W        W48208  44.422  28.688  14.990
83048W        W48209  12.606  34.525   3.368
83049W        W48210  17.570  40.274  14.989
83050W        W48211  10.786  19.065  13.854
83051W        W48212  24.826   4.947  11.099
83052W        W48213  38.255  10.327   4.864
83053W        W48214  40.526  42.948  12.410
83054W        W48215   4.928  15.036  11.031
83055W        W48216  25.364  12.378  11.080
83056W        W48217  35.817  12.123   1.313
83057W        W48218  36.962  37.718  11.145
83058W        W48219  20.550  42.901  14.730
83059W        W48220  42.874  11.096   4.062
83060W        W48221  17.067   4.246  13.764
83061W        W48222   8.142  11.714   4.705
83062W        W48223  13.737  26.189   3.567
83063W        W48224  35.610  27.842  13.301
83064W        W48225  40.788   6.735   3.417
83065W        W48226   1.819   7.917   3.165
83066W        W48227  24.174  36.660  10.872
83067W        W48228  17.376  11.167   1.234
83068W        W48229  39.572  23.189   3.925
83069W        W48230  23.354  16.338  12.473
83070W        W48231  20.649  10.264  13.501
83071W        W48232  20.085  10.804   4.172
83072W        W48233  39.320  42.242   1.882
83073W        W48234  16.498  25.458  12.051
83074W        W48235   2.108   7.524  12.988
83075W        W48236  35.670  32.596  14.644
83076W        W48237  34.419  36.506   9.891
83077W        W48238  24.718  16.983  12.475
83078W        W48239  38.148  36.428   0.717
83079W        W48240  18.472  25.182   0.026
83080W        W48241  14.276  41.074   2.360
83081W        W48242  26.185  35.471   2.833
83082W        W48243  21.459  27.388  10.431
83083W        W48244  26.466   3.453   2.120
83084W        W48245  28.197  39.556   5.292
83085W        W48246  22.513  15.208  13.088
83086W        W48247   2.155   2.943   2.129
83087W        W48248   5.659   1.735  13.280
83088W        W48249  39.789   6.286  14.962
83089W        W48250  12.848  33.543  12.107
83090W        W48251  43.281  19.210   0.463
83091W        W48252  19.237  22.082   3.862
83092W        W48253   8.955  22.086  14.902
83093W        W48254  21.021  36.362  14.873
83094W        W48255  27.554  24.171   1.435
83095W        W48256  15.548  34.792  12.454
83096W        W48257  34.185   7.386  11.971
83097W        W48258  38.419  15.688  12.567
83098W        W48259  41.456  37.953   2.626
83099W        W48260  32.862  20.389  11.607
83100W        W48261  17.668   8.129  11.202
83101W        W48262  28.666  10.063  11.050
83102W        W48263  39.093  22.652  13.416
83103W        W48264  10.645  19.336  11.755
83104W        W48265  25.633  10.675  12.639
83105W        W48266  44.041  35.029   0.801
83106W        W48267  42.809  29.088  13.504
83107W        W48268  41.476   0.594  14.350
83108W        W48269  40.831  43.661   3.655
83109W        W48270  35.380  43.769  13.731
83110W        W48271  22.931  31.372   4.161
83111W        W48272  21.745  40.019  11.145
83112W        W48273  40.104  44.954   0.864
83113W        W48274  33.071  32.335   1.807
83114W        W48275  40.936  44.018   1.308
83115W        W48276   7.544  27.304  12.498
83116W        W48277  39.351  17.626  14.306
83117W        W48278   9.946  13.654  12.381
83118W        W48279  32.475  35.380   3.933
83119W        W48280  19.108  29.319  11.098
83120W        W48281  20.605  35.511   3.850
83121W        W48282   8.665  12.315  10.780
83122W        W48283   6.847  38.928   4.641
83123W        W48284  18.848  33.453   0.089
83124W        W48285  20.053  41.950   4.204
83125W        W48286   7.431  44.948   1.356
83126W        W48287   5.705  17.274  13.873
83127W        W48288   0.969   7.025   4.987
83128W        W48289  12.592   4.395  10.675
83129W        W48290  20.783  41.817   3.495
83130W        W48291  41.614  14.139  13.037
83131W        W48292   3.359   0.533   3.699
83132W        W48293  40.453  36.097  11.606
83133W        W48294  39.502  16.336   1.303
83134W        W48295   2.220  29.560  13.286
83135W        W48296   0.084   2.859  12.508
83136W        W48297  43.962   9.619  12.416
83137W        W48298  19.065  24.125   5.051
83138W        W48299  33.517  29.239   4.069
83139W        W48300  15.936  23.231  11.456
83140W        W48301  21.495  26.864   0.540
83141W        W48302  16.671  31.567   0.274
83142W        W48303   1.256  27.195  13.967
83143W        W48304  12.918   3.170   3.630
83144W        W48305  15.558   9.812  11.767
83145W        W48306  23.636   9.331  14.769
83146W        W48307  37.289  40.334  13.757
83147W        W48308  16.141   4.906   0.564
83148W        W48309  19.695  41.311   1.835
83149W        W48310  11.338  34.042  11.901
83150W        W48311  21.721  40.124  12.035
83151W        W48312  44.748  38.532  12.846
83152W        W48313  27.019  26.871  12.939
83153W        W48314  28.208  18.082   1.720
83154W        W48315  42.354   0.490  13.626
83155W        W48316   2.628  25.923   1.942
83156W        W48317  39.795   6.327  12.984
83157W        W48318  12.755  17.011  11.955
83158W        W48319  34.155   3.371  13.513
83159W        W48320  13.848  32.874  13.061
83160W        W48321  16.683  36.107  10.658
83161W        W48322  39.411  15.860  14.749
83162W        W48323  37.943  44.025  12.587
83163W        W48324  43.720   1.014  14.921
83164W        W48325  41.322  10.726  12.912
83165W        W48326   4.535  10.679   0.776
83166W        W48327  41.324   9.637   4.255
83167W        W48328   3.060  11.853  10.559
83168W        W48329   9.855   5.141   3.179
83169W        W48330  37.602   3.469  11.617
83170W        W48331  32.492  29.530   2.423
83171W        W48332   0.143  23.257  14.227
83172W        W48333  42.121  31.894   0.307
83173W        W48334  27.114  22.467  12.434
83174W        W48335  38.085  28.672   1.675
83175W        W48336  34.892   5.904  11.569
83176W        W48337   5.049  43.529  13.943
83177W        W48338  25.251   8.627   1.300
83178W        W48339  32.316   9.470  13.874
83179W        W48340  37.526  41.583   0.150
83180W        W48341   1.462  20.404  11.758
83181W        W48342  16.624  15.106  14.779
83182W        W48343   1.897  27.167  10.736
83183W        W48344  36.795  42.466  10.967
83184W        W48345  16.711  10.451  12.578
83185W        W48346   9.322  39.472  10.584
83186W        W48347   8.184  14.043   3.381
83187W        W48348   4.527  41.462  12.910
83188W        W48349  10.624  20.776  14.662
83189W        W48350  33.560  38.503  10.302
83190W        W48351  22.670  37.411   0.780
83191W        W48352  21.995   3.468  12.663
83192W        W48353  24.201   2.252  14.448
83193W        W48354   7.381  33.090  13.669
83194W        W48355  37.200   0.379  11.349
83195W        W48356  39.569  30.012  12.877
83196W        W48357   7.020  13.524   4.217
83197W        W48358  23.079  25.029   4.105
83198W        W48359  36.033  41.696   4.263
83199W        W48360   0.945  27.986   3.188
83200W        W48361   4.162  18.198  14.279
83201W        W48362   5.070  35.058  11.192
83202W        W48363  37.073  42.144  10.176
83203W        W48364  28.612   3.190   3.697
83204W        W48365  43.566   9.795  13.473
83205W        W48366  33.299  29.668  10.165
83206W        W48367  29.521  37.842   9.812
83207W        W48368   3.942  32.199   0.427
83208W        W48369  15.545   4.461  12.427
83209W        W48370   4.824   8.122   0.002
83210W        W48371  27.508  38.343   0.027
83211W        W48372  23.094  37.309   1.079
83212W        W48373  41.432  24.784   0.844
83213W        W48374  20.549   3.686   4.047
83214W        W48375   9.456   7.720  11.629
83215W        W48376  27.678  31.875  13.587
83216W        W48377   9.409  22.057  11.143
83217W        W48378  38.291  12.314  12.277
83218W        W48379  36.345  24.172  12.437
83219W        W48380   6.051  38.411   4.147
83220W        W48381  34.364  16.548   0.932
83221W        W48382  17.233   0.897  14.437
83222W        W48383  35.885  13.650   4.207
83223W        W48384  28.187  14.839  12.160
83224W        W48385  24.933  36.565  10.706
83225W        W48386   0.198  39.392  12.467
83226W        W48387  30.338  42.440  11.501
83227W        W48388  20.742  43.993   4.671
83228W        W48389   8.639  21.245  10.376
83229W        W48390   4.915  34.381   3.744
83230W        W48391   3.239  21.642  11.134
83231W        W48392  43.875   4.646   0.708
83232W        W48393   6.995  39.448   1.479
83233W        W48394  20.173  24.793   2.223
83234W        W48395  19.831  16.295   2.259
83235W        W48396   4.680  41.975   1.970
83236W        W48397  20.803  25.984  11.581
83237W        W48398   9.264   3.180  10.235
83238W        W48399   0.087   7.199   0.502
83239W        W48400  32.098  39.106  11.808
83240W        W48401  25.589  24.835  13.074
83241W        W48402  44.932  31.413   3.121
83242W        W48403   5.020   1.823   0.729
83243W        W48404  40.739  26.489   3.824
83244W        W48405   5.169   4.087   1.285
83245W        W48406  17.090  43.325   0.147
83246W        W48407  20.740   9.544   2.347
83247W        W48408  22.177  21.988  13.892
83248W        W48409  17.708   6.958  13.183
83249W        W48410  30.621   0.439  14.057
83250W        W48411  14.547  11.107  11.190
83251W        W48412  19.729   9.242   4.116
83252W        W48413   5.135  21.553  11.981
83253W        W48414  33.614  28.162  11.681
83254W        W48415   6.474   3.485   1.503
83255W        W48416   1.864  26.555  13.344
83256W        W48417  27.307  31.266  12.458
83257W        W48418  14.897   6.047   2.765
83258W        W48419   8.904   6.715   2.739
83259W        W48420   0.088  14.778   2.628
83260W        W48421  33.163  18.199   0.930
83261W        W48422  24.046  27.043   3.256
83262W        W48423  30.355  38.685   2.599
83263W        W48424  18.798  10.256  14.877
83264W        W48425  20.531  21.935   1.839
83265W        W48426  20.001  15.664   2.414
83266W        W48427  41.556  31.289  12.733
83267W        W48428   7.845   9.713  12.886
83268W        W48429  28.099  20.777  11.132
83269W        W48430  15.649  32.063  13.509
83270W        W48431   8.223  27.351   2.852
83271W        W48432  23.049  40.892   2.938
83272W        W48433  20.109  30.095  14.866
83273W        W48434   7.686  29.512  13.789
83274W        W48435  20.280  15.329  12.540
83275W        W48436  37.971   7.334  14.437
83276W        W48437  33.518  26.161  12.612
83277W        W48438   1.906   7.315  12.545
83278W        W48439  20.222  44.468  14.746
83279W        W48440  37.019  30.213   3.295
83280W        W48441   3.423  29.813   4.535
83281W        W48442   7.282  23.151  13.958
83282W        W48443  19.719  40.268  10.938
83283W        W48444   6.454  19.498   3.527
83284W        W48445  15.615  25.897   3.687
83285W        W48446  44.867  16.646  13.432
83286W        W48447  29.933  32.413   1.730
83287W        W48448  28.440  20.223   1.383
83288W        W48449  37.453  35.856  10.966
83289W        W48450  27.915  24.448   0.495
83290W        W48451  25.666  26.202   4.585
83291W        W48452   3.443  23.259   0.903
83292W        W48453  29.868  26.760  11.698
83293W        W48454  20.279   3.795  10.670
83294W        W48455  27.914   9.034   1.928
83295W        W48456  20.330  37.918   0.446
83296W        W48457  20.987  29.001  13.397
83297W        W48458   0.445  27.169  11.569
83298W        W48459  44.834  25.185   0.367
83299W        W48460  15.144  33.864   0.710
83300W        W48461   9.751   8.865  14.300
83301W        W48462  21.048   2.435  14.733
83302W        W48463  12.724  41.504   4.038
83303W        W48464  13.077  41.978  12.032
83304W        W48465  28.201  23.722   1.210
83305W        W48466  18.277  11.778  14.904
83306W        W48467   4.900  28.003  13.921
83307W        W48468  10.371  40.696  10.241
83308W        W48469   8.193  44.484  11.314
83309W        W48470  17.282  23.000  11.583
83310W        W48471   1.690  17.223   1.386
83311W        W48472  28.242   6.191  10.506
83312W        W48473   4.279   0.885  14.880
83313W        W48474  21.377  23.178  10.323
83314W        W48475  28.200   8.061  13.188
83315W        W48476  43.364  13.396   2.730
83316W        W48477  13.544  29.104  13.874
83317W        W48478  17.243  37.329   3.344
83318W        W48479  24.580  12.098   0.594
83319W        W48480  43.289  10.402  12.403
83320W        W48481  44.968  43.215  13.830
83321W        W48482  22.166  14.174   0.795
83322W        W48483  12.307  26.081  13.931
83323W        W48484  10.471  32.537   2.761
83324W        W48485  33.491  43.874   0.756
83325W        W48486   9.868  38.019  11.122
83326W        W48487  40.579  16.226  12.369
83327W        W48488  18.286  28.002   0.540
83328W        W48489   1.230  11.908   3.215
83329W        W48490   6.267  41.877   4.538
83330W        W48491   8.450  41.763  12.956
83331W        W48492   6.725  15.463   0.801
83332W        W48493  36.632  36.479   2.723
83333W        W48494  36.486  36.538   0.830
83334W        W48495  19.693  41.530   4.893
83335W        W48496   7.379   1.339  13.729
83336W        W48497  26.116  11.280   4.171
83337W        W48498   3.057  38.291  14.782
83338W        W48499  41.390  43.650   4.832
83339W        W48500  25.142  22.339   2.226
83340W        W48501  42.205  13.839   1.612
83341W        W48502  33.721  33.174  14.037
83342W        W48503  32.794  41.840  14.414
83343W        W48504  23.086  32.117   1.838
83344W        W48505  20.185  30.367   1.308
83345W        W48506  26.563   7.728  10.610
83346W        W48507  12.502  11.947   0.896
83347W        W48508  18.236  15.848   0.004
83348W        W48509   2.250  26.051   1.589
83349W        W48510  13.618  25.083  13.087
83350W        W48511  20.046  12.821   2.159
83351W        W48512   1.197   3.283  13.853
83352W        W48513  23.434  30.520  12.011
83353W        W48514   9.376  29.071  10.759
83354W        W48515   1.709  11.311  12.210
83355W        W48516  39.069  12.828  10.022
83356W        W48517  21.653  24.847  14.772
83357W        W48518   4.418  43.984  12.818
83358W        W48519  40.366  40.143  12.470
83359W        W48520  17.555  40.269   2.178
83360W        W48521   7.514  22.986  13.455
83361W        W48522  10.310   1.336  13.558
83362W        W48523  15.239  20.276  13.405
83363W        W48524  33.478  34.779   3.264
83364W        W48525  13.242  15.539   9.910
83365W        W48526  33.655  11.333  13.174
83366W        W48527  20.763  43.577  14.008
83367W        W48528  15.599  27.692   4.246
83368W        W48529  15.816  32.995  12.253
83369W        W48530  34.040  16.614   4.332
83370W        W48531  28.207  13.418   0.994
83371W        W48532  19.071  42.540  12.929
83372W        W48533  37.897  28.419  12.965
83373W        W48534  27.475  35.356  13.868
83374W        W48535  34.323  19.816   3.200
83375W        W48536  42.843  18.149   2.089
83376W        W48537   0.423  15.702   2.647
83377W        W48538  34.300  10.900   1.745
83378W        W48539  32.862  32.104  12.829
83379W        W48540  22.721   7.822   3.443
83380W        W48541  15.072  42.527   4.013
83381W        W48542  10.811  17.108   1.516
83382W        W48543   3.220   0.960  10.657
83383W        W48544  22.064  30.129   3.025
83384W        W48545  44.215  40.485   3.188
83385W        W48546  15.795   5.449   2.799
83386W        W48547   6.847  42.248  12.549
83387W        W48548  30.373  23.951   0.914
83388W        W48549   3.496   4.425   3.321
83389W        W48550  25.360  15.128  13.135
83390W        W48551  18.616  25.037  10.770
83391W        W48552  18.650  33.108   4.383
83392W        W48553  11.582  23.005  10.769
83393W        W48554  28.159  26.489  11.758
83394W        W48555  17.658  27.164  10.504
83395W        W48556   9.039   8.601   3.733
83396W        W48557  14.091   8.310  14.809
83397W        W48558  18.191   4.383   4.531
83398W        W48559  13.970   8.794   1.243
83399W        W48560  20.758  18.853  11.084
83400W        W48561  33.347  32.548   4.810
83401W        W48562  26.128  22.150  11.721
83402W        W48563  30.361  42.395  10.627
83403W        W48564  35.402  24.934  11.125
83404W        W48565  31.086  30.443   3.212
83405W        W48566  29.026  34.831  14.840
83406W        W48567  23.561  32.005   0.983
83407W        W48568  22.485  26.575   2.240
83408W        W48569  28.474  24.198  11.571
83409W        W48570  22.619  18.751  10.698
83410W        W48571  25.154  11.380   2.439
83411W        W48572  11.203  12.271   0.939
83412W        W48573  14.668  13.655  13.605
83413W        W48574  42.812  18.623  10.920
83414W        W48575  30.010  39.437  13.220
83415W        W48576  43.430  12.135  11.446
83416W        W48577  12.845  11.393   3.735
83417W        W48578   5.190  33.602   0.066
83418W        W48579  10.881   2.635   0.505
83419W        W48580   2.400   0.272   4.567
83420W        W48581  22.742   9.866  12.872
83421W        W48582  12.391  26.660   1.374
83422W        W48583   9.158  38.903   4.165
83423W        W48584   3.714  20.805   1.705
83424W        W48585  20.548  40.598  10.564
83425W        W48586  27.657  38.079  13.619
83426W        W48587  28.776   4.960  12.661
83427W        W48588  42.795  27.293   3.917
83428W        W48589   4.791   5.895  10.320
83429W        W48590  44.372  17.372   3.674
83430W        W48591  26.596  43.918   4.318
83431W        W48592  29.046   7.179  13.916
83432W        W48593  43.265  44.338  12.326
83433W        W48594  18.149   2.109  14.498
83434W        W48595  24.897  44.436  12.804
83435W        W48596  11.730  13.560  13.766
83436W        W48597  41.685  39.407   3.680
83437W        W48598  33.938  26.529   4.153
83438W        W48599  25.984  33.573   2.729
83439W        W48600  25.665   7.698   2.679
83440W        W48601  22.791  15.330   2.371
83441W        W48602  14.812   7.400  10.769
83442W        W48603  38.134  33.609  14.619
83443W        W48604  18.519  27.964  13.433
83444W        W48605  37.624  36.566   4.975
83445W        W48606   1.279   6.400  13.064
83446W        W48607   7.309   1.192   0.911
83447W        W48608  39.947  26.016  13.748
83448W        W48609  33.481   3.307  12.100
83449W        W48610  35.340  44.549  11.181
83450W        W48611  11.872  28.412   2.779
83451W        W48612  36.017  32.130  13.873
83452W        W48613  34.639  30.371   0.247
83453W        W48614   9.796   3.368   3.398
83454W        W48615  25.946   3.844  11.901
83455W        W48616   7.164   6.770   0.156
83456W        W48617  38.935  23.465  12.957
83457W        W48618  37.946  18.209  10.672
83458W        W48619   2.290  42.522   4.031
83459W        W48620   3.483  15.215   4.158
83460W        W48621  32.116  19.137   2.803
83461W        W48622  21.835   7.740   4.842
83462W        W48623  38.339   0.121  12.612
83463W        W48624  30.401  37.234  12.470
83464W        W48625  34.107  33.927   0.033
83465W        W48626  41.934   7.872   1.803
83466W        W48627   3.168   5.364  14.480
83467W        W48628  10.586  44.142  14.827
83468W        W48629  28.703   3.215  13.887
83469W        W48630  38.392  17.864  12.578
83470W        W48631   1.874  19.718   4.311
83471W        W48632  26.000   6.217   3.517
83472W        W48633  22.209   8.562  10.142
83473W        W48634   1.406  15.566   3.608
83474W        W48635  41.830  14.546   4.957
83475W        W48636  30.952  43.790  13.041
83476W        W48637   4.914   9.226  13.469
83477W        W48638  15.214  32.360  14.499
83478W        W48639   8.350  23.290  11.531
83479W        W48640  27.516  11.208   0.282
83480W        W48641  12.659   4.331   4.090
83481W        W48642  19.251   5.939  11.184
83482W        W48643  19.348  37.799   1.518
83483W        W48644  13.829   9.346   4.830
83484W        W48645  19.324  41.476  13.092
83485W        W48646  12.336  34.897   2.741
83486W        W48647   3.327  40.029  13.101
83487W        W48648  36.621  32.237   2.207
83488W        W48649  33.935  41.847   5.053
83489W        W48650  31.832  30.839  10.787
83490W        W48651   6.144   9.903   4.160
83491W        W48652   7.668   3.406  14.380
83492W        W48653  24.676  33.331  12.412
83493W        W48654  32.144   0.693  14.778
83494W        W48655  18.330  42.687   9.634
83495W        W48656  29.897  13.731  10.713
83496W        W48657  42.827  12.026  13.273
83497W        W48658  34.431  15.300  12.545
83498W        W48659  16.722  38.059   2.691
83499W        W48660   9.355  32.653   2.443
83500W        W48661  35.913  12.879   4.405
83501W        W48662  16.417  10.619  11.518
83502W        W48663  38.170   8.731   4.716
83503W        W48664  16.629  13.697  11.864
83504W        W48665   5.013  39.988  11.989
83505W        W48666  36.472  20.205  14.381
83506W        W48667  20.077  34.558  14.081
83507W        W48668  38.590  32.531  11.528
83508W        W48669  14.744  32.619  11.241
83509W        W48670  19.159  16.843   1.240
83510W        W48671  41.546  13.566   3.105
83511W        W48672   9.408  43.267   0.336
83512W        W48673  28.619  21.366   0.666
83513W        W48674  37.978  18.554  11.109
83514W        W48675   4.630   3.329   1.243
83515W        W48676  39.075  14.887  13.382
83516W        W48677  44.721  23.930   3.192
83517W        W48678  44.847  11.619   4.031
83518W        W48679  33.040  12.301   1.741
83519W        W48680  15.059  14.683   2.587
83520W        W48681  15.468  16.617   3.531
83521W        W48682  25.679  35.681   2.279
83522W        W48683  40.899  26.592   0.647
83523W        W48684  43.473  26.628   4.989
83524W        W48685  42.365  31.584   1.714
83525W        W48686   3.383  11.896   5.058
83526W        W48687  33.074  32.127  11.935
83527W        W48688  19.795  38.778   1.429
83528W        W48689   3.206  25.471  13.890
83529W        W48690  42.948   0.753   0.282
83530W        W48691  18.062  21.601  13.381
83531W        W48692  26.562   4.949  14.870
83532W        W48693  30.451  26.199   3.332
83533W        W48694  17.883  24.653   3.247
83534W        W48695  15.779  21.056   4.544
83535W        W48696  39.531  39.290   4.910
83536W        W48697  15.245  16.265   4.514
83537W        W48698  29.501  35.531  14.710
83538W        W48699  40.460  26.039   3.173
83539W        W48700   2.195  30.564   1.370
83540W        W48701  19.728   1.329   2.205
83541W        W48702  13.453  35.130  12.411
83542W        W48703  36.956   7.515   4.712
83543W        W48704  12.343   6.655  10.668
83544W        W48705  23.929  31.921   5.025
83545W        W48706  18.017  22.783   1.723
83546W        W48707  19.494  25.650   3.581
83547W        W48708  36.810  43.978   2.397
83548W        W48709  27.149  37.466   2.634
83549W        W48710   0.390  23.121   0.890
83550W        W48711   0.757   0.240   2.719
83551W        W48712  38.587   7.715  13.936
83552W        W48713  29.165  21.108  12.115
83553W        W48714  20.489  44.039   3.239
83554W        W48715   9.597  34.639  13.177
83555W        W48716  31.917  21.364   0.944
83556W        W48717   7.242   9.427  13.576
83557W        W48718  16.825   6.859  12.893
83558W        W48719  41.360  16.973  10.937
83559W        W48720  44.235  12.670   2.223
83560W        W48721   1.812  34.842   1.047
83561W        W48722  15.212  12.566  12.234
83562W        W48723  11.252  35.063   0.507
83563W        W48724  43.569  35.584   5.507
83564W        W48725  23.691  33.518   4.204
83565W        W48726  39.904   9.628  13.187
83566W        W48727  35.851  18.878   2.851
83567W        W48728  35.834   1.236  13.599
83568W        W48729  22.997  29.488  10.266
83569W        W48730  30.177   5.796  10.731
83570W        W48731  33.708   7.164   4.060
83571W        W48732  32.902  22.722   0.064
83572W        W48733  40.428  15.495   1.310
83573W        W48734  21.999  31.398  11.081
83574W        W48735  44.478  44.414  12.964
83575W        W48736  22.137   7.808  11.565
83576W        W48737  18.549  39.387  13.239
83577W        W48738   7.356  22.818   4.200
83578W        W48739  17.534  44.309  11.489
83579W        W48740  42.111  30.734   0.459
83580W        W48741  43.695  44.066  12.525
83581W        W48742  19.677  35.463   0.021
83582W        W48743  17.086   5.285  10.942
83583W        W48744   5.453  40.425   0.238
83584W        W48745   0.446  19.205   3.908
83585W        W48746  16.778  21.684   4.257
83586W        W48747  20.436  37.909  14.938
83587W        W48748  38.564   3.460  14.469
83588W        W48749  10.209  41.519   5.015
83589W        W48750  36.506   0.121  14.746
83590W        W48751   7.255  21.225   1.755
83591W        W48752  27.235   6.459   3.742
83592W        W48753  18.716  44.557  13.279
83593W        W48754  22.820  25.197  12.018
83594W        W48755  40.329  23.443  13.479
83595W        W48756  15.697  35.401   2.229
83596W        W48757  31.863  11.188   4.199
83597W        W48758  28.790  21.121   3.327
83598W        W48759  11.923  32.127  12.536
83599W        W48760  13.869  22.723  10.970
83600W        W48761  11.243  19.715  13.180
83601W        W48762  17.294  31.406  13.618
83602W        W48763  27.306   9.738   3.359
83603W        W48764   0.279  38.862   5.454
83604W        W48765   4.733   4.097   4.835
83605W        W48766   7.726  36.888   0.972
83606W        W48767  41.271  14.409   0.357
83607W        W48768  18.122  19.237  13.998
83608W        W48769   3.890  29.918  13.142
83609W        W48770  12.780  42.049   2.183
83610W        W48771  26.028  32.202   3.019
83611W        W48772  29.583   9.654  13.195
83612W        W48773  22.992  43.505   2.332
83613W        W48774   4.918   7.068  12.962
83614W        W48775  27.804  18.850   4.104
83615W        W48776  18.442  12.842   4.086
83616W        W48777   2.682  41.614  12.752
83617W        W48778  32.609  32.364  10.616
83618W        W48779  18.719   3.535  13.901
83619W        W48780  40.242  24.331   3.820
83620W        W48781   9.289  29.906   1.729
83621W        W48782  28.449  26.146   3.197
83622W        W48783  41.291   1.195   0.969
83623W        W48784   8.738  42.460  13.609
83624W        W48785  33.915  33.485   1.259
83625W        W48786  40.455  16.165  11.863
83626W        W48787  12.422  42.117  11.489
83627W        W48788  37.827   5.878   4.902
83628W        W48789   1.214  23.613   3.770
83629W        W48790  12.713  31.677  12.424
83630W        W48791  38.979  38.214  10.006
83631W        W48792  18.550   0.888   2.770
83632W        W48793  25.622  34.613  13.986
83633W        W48794  31.460  26.399   4.553
83634W        W48795  44.088  42.477  14.869
83635W        W48796  27.179   3.273   4.168
83636W        W48797  38.801  16.022   1.819
83637W        W48798  16.078   1.619  12.535
83638W        W48799   9.465   9.472   0.405
83639W        W48800   4.784   4.794   0.626
83640W        W48801   9.937  36.180  13.110
83641W        W48802  15.783   6.753   3.851
83642W        W48803  38.060  38.496  12.078
83643W        W48804  25.597   1.225  13.258
83644W        W48805  34.380  12.556  10.862
83645W        W48806   9.608  17.252  12.421
83646W        W48807  41.280   2.284  13.613
83647W        W48808  44.388  44.814   2.903
83648W        W48809  38.357   9.255   0.808
83649W        W48810  31.428   3.465  14.404
83650W        W48811  38.806  32.100  13.085
83651W        W48812  38.076  14.768   3.723
83652W        W48813  36.379   3.002   0.772
83653W        W48814  12.050  13.206  14.509
83654W        W48815  28.917  42.215   1.726
83655W        W48816   0.251  22.648  11.010
83656W        W48817  19.715  16.028  12.503
83657W        W48818  32.907   1.449  14.337
83658W        W48819   4.979  24.676  14.170
83659W        W48820   0.226   9.634  12.833
83660W        W48821  43.108  32.577   1.432
83661W        W48822  23.422  10.331   0.017
83662W        W48823  17.140  25.998   2.842
83663W        W48824  21.663  41.222  11.548
83664W        W48825   9.685  11.125   0.322
83665W        W48826  16.947  13.278  12.489
83666W        W48827  32.012  17.839  10.620
83667W        W48828  37.841  19.527  11.170
83668W        W48829  28.327   3.413   1.713
83669W        W48830  10.130  32.398  13.089
83670W        W48831  15.605  23.084  11.109
83671W        W48832  33.109  28.519   4.767
83672W        W48833  24.476  29.937   3.219
83673W        W48834  30.163  10.191   0.839
83674W        W48835  11.806  23.462  12.103
83675W        W48836  35.452  40.869   2.667
83676W        W48837  27.705  35.031  12.489
83677W        W48838   2.443  39.859   2.721
83678W        W48839  35.466  13.946  14.389
83679W        W48840  21.832  18.299  10.720
83680W        W48841  36.314  17.898   2.405
83681W        W48842  17.153  39.171  12.639
83682W        W48843  17.533  14.096   3.665
83683W        W48844  30.551  10.256   1.196
83684W        W48845  13.270  33.924  11.681
83685W        W48846  28.074  27.104   4.423
83686W        W48847  38.892  40.863  11.465
83687W        W48848  17.788  35.567   2.334
83688W        W48849  21.494  44.641  14.459
83689W        W48850  29.264  28.946   2.950
83690W        W48851  16.086  11.936   1.217
83691W        W48852   5.406  18.656   1.175
83692W        W48853   2.830  22.833   3.346
83693W        W48854  19.818  24.609   1.836
83694W        W48855  34.932  19.206   0.242
83695W        W48856  37.409  32.916  13.900
83696W        W48857  12.057  16.611  13.104
83697W        W48858   7.832   4.424   3.346
83698W        W48859  24.384   8.133  11.600
83699W        W48860  12.612   8.580  11.561
83700W        W48861  22.740  24.764   3.807
83701W        W48862  22.723  44.365   4.582
83702W        W48863  20.082  42.416   0.284
83703W        W48864  11.097  36.985  14.855
83704W        W48865  24.792  16.164   3.725
83705W        W48866  26.084  34.170  11.996
83706W        W48867  43.288  38.795  12.971
83707W        W48868   3.421  31.881   1.350
83708W        W48869  11.641  42.737   4.086
83709W        W48870   7.956  43.777  10.880
83710W        W48871  38.382  27.046  10.641
83711W        W48872  15.233   1.923  13.448
83712W        W48873   4.078  24.307  12.964
83713W        W48874  12.125  17.285  14.223
83714W        W48875   7.188  17.354  13.586
83715W        W48876  11.419  24.154   2.602
83716W        W48877   0.517  39.708   1.886
83717W        W48878   3.961  30.473  10.317
83718W        W48879  31.006  24.665  12.060
83719W        W48880   3.913  18.196   1.548
83720W        W48881  36.432  21.512   2.265
83721W        W48882   3.381  30.148   3.229
83722W        W48883  25.866  10.296  13.284
83723W        W48884   6.155   5.178  11.330
83724W        W48885  26.622  33.695  13.151
83725W        W48886   7.896   7.894  13.880
83726W        W48887  14.909  18.053   3.456
83727W        W48888  43.545  14.752  14.869
83728W        W48889   5.756  23.755   0.044
83729W        W48890  29.477  38.157   1.224
83730W        W48891  26.172  19.557  11.703
83731W        W48892  34.636  27.974  14.446
83732W        W48893   8.310  13.655  14.997
83733W        W48894  12.569   4.698  13.346
83734W        W48895  33.956  16.889  14.856
83735W        W48896  16.721  37.880  13.509
83736W        W48897  10.758  14.332  14.343
83737W        W48898  12.782  39.919  10.696
83738W        W48899  36.259   8.241   2.696
83739W        W48900  11.414  12.511   1.821
83740W        W48901   7.208  38.531   4.760
83741W        W48902  32.198   2.648  11.662
83742W        W48903  20.245  32.711  14.363
83743W        W48904  39.111  29.641  12.959
83744W        W48905  29.114  23.909   1.303
83745W        W48906  30.963   3.704  11.186
83746W        W48907  23.040   5.616  11.603
83747W        W48908   8.430  42.223  11.148
83748W        W48909  30.928  36.071  12.912
83749W        W48910  43.925  24.640   1.406
83750W        W48911   4.538   0.502  14.607
83751W        W48912  27.989  27.564  13.083
83752W        W48913   7.924   8.814  10.551
83753W        W48914  37.110  19.682   9.777
83754W        W48915  20.255  43.506   2.804
83755W        W48916  36.516  41.369   0.053
83756W        W48917   3.857   2.262   3.616
83757W        W48918   6.185  13.857  11.604
83758W        W48919  25.837  44.810   4.766
83759W        W48920   3.499  27.357   0.450
83760W        W48921   5.579  28.370  12.899
83761W        W48922  25.671  30.596  12.964
83762W        W48923  26.202  17.883  10.505
83763W        W48924  12.612  32.001   2.707
83764W        W48925  29.125  23.748  13.570
83765W        W48926  30.905   2.884  12.342
83766W        W48927  43.990  34.825  10.209
83767W        W48928  11.636   5.177   0.534
83768W        W48929  26.935  41.550   4.466
83769W        W48930  38.976  26.580  10.208
83770W        W48931  20.869   1.888  14.703
83771W        W48932  16.541  35.728   2.680
83772W        W48933  21.449   7.827   3.877
83773W        W48934  27.155  22.219  13.445
83774W        W48935   1.005  33.381   4.533
83775W        W48936  34.915   1.730   4.554
83776W        W48937  44.053  26.114   2.952
83777W        W48938   4.222  13.126   1.635
83778W        W48939  14.597  40.527   1.133
83779W        W48940  43.993  11.509  12.498
83780W        W48941   3.238  15.631  14.077
83781W        W48942  18.503  14.208  13.084
83782W        W48943  13.849   9.644  14.530
83783W        W48944  30.685  36.366   0.818
83784W        W48945   7.738  28.664   4.285
83785W        W48946  24.935  44.241   0.136
83786W        W48947   1.406  19.844   4.124
83787W        W48948  19.038  33.384  11.023
83788W        W48949  40.558   5.955  13.070
83789W        W48950   2.427  33.505  12.943
83790W        W48951  11.398  36.440   4.538
83791W        W48952   6.413  35.202   1.237
83792W        W48953  42.816  35.112  14.406
83793W        W48954  20.527   1.359  11.241
83794W        W48955  21.336  24.148  14.277
83795W        W48956   9.449  29.527  10.998
83796W        W48957  41.709  41.845  14.292
83797W        W48958  30.949  25.424   5.163
83798W        W48959   6.764  44.706   3.107
83799W        W48960  13.815  15.600  10.718
83800W        W48961  13.520  35.030   1.459
83801W        W48962  32.453  35.500   0.806
83802W        W48963   2.763   7.596  11.268
83803W        W48964  38.571  36.631   4.453
83804W        W48965   6.188  15.406   3.863
83805W        W48966  10.205  40.336   0.693
83806W        W48967   3.251  29.586  13.332
83807W        W48968  16.057  22.214   3.841
83808W        W48969   3.162  15.456   2.325
83809W        W48970  31.880  41.407   2.352
83810W        W48971  27.356  11.686   1.484
83811W        W48972  28.108  27.495   2.171
83812W        W48973  39.564  41.789   1.868
83813W        W48974  20.866  22.238  12.481
83814W        W48975  14.220  27.494   1.404
83815W        W48976  34.194  34.251   1.857
83816W        W48977  44.935  24.962   0.834
83817W        W48978  18.340  23.516  14.328
83818W        W48979  37.377  41.162  11.606
83819W        W48980  37.629  23.007   4.777
83820W        W48981  44.862  29.111  11.544
83821W        W48982   8.576  12.367   0.665
83822W        W48983  34.361  12.750  12.218
83823W        W48984   7.743  27.165  14.396
83824W        W48985  43.300  42.507  11.717
83825W        W48986  40.841  14.181  14.582
83826W        W48987  39.271   1.601   1.968
83827W        W48988  29.107  31.655  13.366
83828W        W48989  34.393   8.250  14.220
83829W        W48990  18.627  26.703   4.394
83830W        W48991  24.309  31.499  14.453
83831W        W48992  35.580  44.382  11.589
83832W        W48993  41.095  22.052   1.945
83833W        W48994  28.973  32.346   3.166
83834W        W48995  34.567  37.751   2.267
83835W        W48996   4.345  19.072  12.862
83836W        W48997  15.065  39.738   1.868
83837W        W48998  43.090   6.879  12.909
83838W        W48999  35.535  24.981   0.437
83839W        W49000  43.047  19.556   0.800
83840W        W49001  11.408  22.991  13.270
83841W        W49002  19.217  21.186   3.154
83842W        W49003  25.009   8.601  10.777
83843W        W49004  34.070  42.000   1.838
83844W        W49005   2.035  12.822   4.017
83845W        W49006   2.289  24.869  11.624
83846W        W49007  30.241  28.165  12.155
83847W        W49008  40.115  16.832  12.067
83848W        W49009  29.030   6.697  14.097
83849W        W49010  13.822  20.054  13.439
83850W        W49011  15.529  27.878  14.960
83851W        W49012   5.581  16.141   2.431
83852W        W49013  39.689  21.497   0.018
83853W        W49014  10.860  13.692  13.455
83854W        W49015   3.013  35.273   2.804
83855W        W49016  21.486  31.561  12.633
83856W        W49017   2.380  33.227   2.358
83857W        W49018  40.515  36.039  13.814
83858W        W49019  23.597  37.534   2.357
83859W        W49020  27.177  29.571   3.823
83860W        W49021   8.375  15.129  13.435
83861W        W49022  12.410  25.438   2.407
83862W        W49023  37.758   8.179  13.935
83863W        W49024   3.993  39.321  14.092
83864W        W49025   9.821  35.706  12.871
83865W        W49026  42.480  28.928   2.325
83866W        W49027  14.160  15.690   1.345
83867W        W49028   5.450  14.362  14.877
83868W        W49029  17.709  19.945   3.339
83869W        W49030  27.522   8.758  13.475
83870W        W49031  37.634   6.974   0.232
83871W        W49032  37.267  20.112  11.290
83872W        W49033  17.090  18.724   0.759
83873W        W49034  16.293  30.891  11.417
83874W        W49035  37.919   7.959  13.385
83875W        W49036   6.424  30.542   1.554
83876W        W49037  11.418   8.760   5.123
83877W        W49038  33.562  42.769   0.491
83878W        W49039   7.330   5.124  10.912
83879W        W49040  44.514  16.012   1.313
83880W        W49041   3.319  43.738   3.248
83881W        W49042  25.645  24.538   1.138
83882W        W49043  21.252  28.495   0.383
83883W        W49044  35.397   4.718  14.976
83884W        W49045   0.206   9.511  13.396
83885W        W49046  36.908  12.409   0.410
83886W        W49047  12.364  29.721  12.491
83887W        W49048  29.413  32.109  14.501
83888W        W49049  43.282  11.681  12.176
83889W        W49050  38.450  11.148   1.162
83890W        W49051  41.684  28.540   2.424
83891W        W49052  38.345  23.163  13.967
83892W        W49053   0.202  28.241   2.667
83893W        W49054  26.923  30.429  14.398
83894W        W49055  15.090  38.752  12.860
83895W        W49056  13.342   6.798   3.808
83896W        W49057   4.912  19.632   1.469
83897W        W49058   2.842  29.742  10.348
83898W        W49059  44.518  21.201   3.111
83899W        W49060  32.971   8.162   4.586
83900W        W49061   7.337   2.279  12.446
83901W        W49062   3.907  27.322  12.034
83902W        W49063  22.384  26.440  12.459
83903W        W49064  10.808  40.515  12.950
83904W        W49065  32.912  19.128  13.638
83905W        W49066  19.726  21.688  14.921
83906W        W49067  39.614  11.244  10.819
83907W        W49068  43.481  28.064  11.182
83908W        W49069  21.165  19.741   4.157
83909W        W49070  33.618  40.796   3.189
83910W        W49071  26.573  22.739   0.262
83911W        W49072  26.034   5.364  12.727
83912W        W49073  25.640  36.403   0.789
83913W        W49074  22.971   2.792   1.905
83914W        W49075  41.345  11.298  14.026
83915W        W49076  34.927   9.744  14.951
83916W        W49077  35.146   2.029  10.315
83917W        W49078  27.286  20.697  13.093
83918W        W49079  15.825   8.843  13.187
83919W        W49080  19.443   0.517   3.757
83920W        W49081  25.425  34.719  14.456
83921W        W49082  39.397  28.111  13.006
83922W        W49083  13.289  29.612   1.228
83923W        W49084  33.333  11.204  12.812
83924W        W49085  21.849  37.624   0.334
83925W        W49086  31.958  34.178   3.377
83926W        W49087   2.072  12.536  13.342
83927W        W49088   8.427  36.374  14.314
83928W        W49089  35.101  22.513   1.826
83929W        W49090  32.135  36.033  12.447
83930W        W49091  44.958  31.396   4.288
83931W        W49092   0.482  10.732  10.653
83932W        W49093  28.484  44.026   1.751
83933W        W49094  43.836  10.617  10.373
83934W        W49095  10.639  21.051   2.390
83935W        W49096  22.375   7.763   4.807
83936W        W49097  43.809  41.830  14.302
83937W        W49098   2.142  18.489  13.486
83938W        W49099  19.016  21.184  12.028
83939W        W49100   9.491   7.426   4.695
83940W        W49101  25.188  13.126  12.492
83941W        W49102  12.199  25.687   2.813
83942W        W49103  44.377  35.650  13.300
83943W        W49104  10.183  21.740   1.923
83944W        W49105  36.546  12.393  12.978
83945W        W49106  15.562  24.009  11.345
83946W        W49107  40.902  19.150   0.615
83947W        W49108  13.801  30.618  11.082
83948W        W49109  14.795  22.204   2.326
83949W        W49110  33.559   8.554  12.719
83950W        W49111  28.497   1.649   3.492
83951W        W49112  37.150  27.022   1.361
83952W        W49113  30.321  26.042  13.416
83953W        W49114  32.851  11.084   4.568
83954W        W49115  18.497  44.276  14.748
83955W        W49116   3.970  34.116  12.602
83956W        W49117  16.073  28.484  11.366
83957W        W49118  13.376  42.321  14.286
83958W        W49119  28.144  19.122   1.768
83959W        W49120  31.642   3.819   0.223
83960W        W49121   7.911  20.942   2.144
83961W        W49122  23.516  18.291  10.653
83962W        W49123  42.778  37.060   0.355
83963W        W49124  30.254  35.552   1.498
83964W        W49125  27.479  37.681   4.834
83965W        W49126  43.412  17.692   2.637
83966W        W49127  34.106  39.612  14.803
83967W        W49128  27.848  38.952   3.014
83968W        W49129  26.012  10.275   2.329
83969W        W49130  15.051  10.086   2.272
83970W        W49131  15.581  41.511  11.802
83971W        W49132  33.400   1.367  12.965
83972W        W49133  36.597   4.835  11.185
83973W        W49134  42.872  20.113   0.070
83974W        W49135  36.482  35.425   0.202
83975W        W49136   4.546   2.901   2.366
83976W        W49137   9.684  36.120   2.250
83977W        W49138  28.772  14.919  11.124
83978W        W49139  30.627  30.013   1.500
83979W        W49140  32.582  31.078   4.608
83980W        W49141  28.640  34.119  11.168
83981W        W49142  36.444  38.569   0.007
83982W        W49143  20.207  12.451  10.564
83983W        W49144  28.983  36.745  11.488
83984W        W49145  18.559   7.326   0.979
83985W        W49146  29.780  20.536   3.562
83986W        W49147  33.829   5.461   4.260
83987W        W49148   9.914  38.902  11.018
83988W        W49149  13.657  30.589  14.013
83989W        W49150  26.487   9.188  10.067
83990W        W49151  40.190  18.139   0.340
83991W        W49152  18.191  34.790   1.165
83992W        W49153  40.236  31.471  10.712
83993W        W49154  13.740  18.791  11.150
83994W        W49155  26.083  42.047   3.663
83995W        W49156  23.946  34.706  11.108
83996W        W49157  19.089  16.118   3.613
83997W        W49158  27.453  19.629  12.350
83998W        W49159  42.600  40.012   4.619
83999W        W49160  34.835  11.799   4.550
84000W        W49161  37.583  29.633  13.050
84001W        W49162  43.475   1.339   2.180
84002W        W49163   4.500   7.333   3.256
84003W        W49164  39.311  37.651  11.661
84004W        W49165   1.287  10.424   0.946
84005W        W49166  26.883  41.589   0.765
84006W        W49167   8.271  19.853   4.199
84007W        W49168  40.437  27.130  10.761
84008W        W49169  35.157  30.732  13.498
84009W        W49170  26.130  13.716  14.691
84010W        W49171   4.509  33.608   4.869
84011W        W49172  14.590  32.910   2.963
84012W        W49173  43.287  35.224  13.041
84013W        W49174  24.790  32.469   2.336
84014W        W49175  26.167  11.278   0.710
84015W        W49176  14.579  43.419  12.100
84016W        W49177  20.208  18.746  14.433
84017W        W49178   3.437  40.382   0.843
84018W        W49179  43.750  22.075  11.576
84019W        W49180  42.494   0.722  14.137
84020W        W49181  31.183  41.286   3.672
84021W        W49182  14.242  14.827  13.853
84022W        W49183  17.019  16.125   1.279
84023W        W49184  28.424  35.946   1.749
84024W        W49185  38.339  10.696  11.497
84025W        W49186  33.059  22.156  10.485
84026W        W49187  17.124  40.776  10.543
84027W        W49188  23.595   0.568  11.527
84028W        W49189   6.323   7.706   0.512
84029W        W49190  17.654  12.405   0.672
84030W        W49191  44.017   1.625   2.070
84031W        W49192   6.216  17.522   2.823
84032W        W49193  23.750   3.920   2.255
84033W        W49194  27.229  32.946   4.687
84034W        W49195  24.963  11.866  13.580
84035W        W49196   3.977   8.079   3.573
84036W        W49197  21.176   8.831   2.413
84037W        W49198  20.291  18.550   0.948
84038W        W49199  42.833  17.593  12.649
84039W        W49200  19.933   9.191  10.650
84040W        W49201  13.449  16.647   1.752
84041W        W49202   0.899  15.055  12.084
84042W        W49203  13.606  34.397   3.673
84043W        W49204   7.930   1.456  12.658
84044W        W49205  14.196   8.381  13.925
84045W        W49206  11.351  12.706   4.357
84046W        W49207  36.131  33.968   0.803
84047W        W49208  42.010  43.341  12.071
84048W        W49209  24.469  16.776  13.379
84049W        W49210  28.414   7.812  13.877
84050W        W49211  16.960   9.402   2.716
84051W        W49212  42.018   1.540   4.139
84052W        W49213  34.875   8.214  12.395
84053W        W49214  16.096   0.760  11.604
84054W        W49215   1.319  16.896  11.105
84055W        W49216  38.095  29.061   3.719
84056W        W49217  14.672  22.150  11.218
84057W        W49218  20.079   3.176  12.908
84058W        W49219  40.000  14.506   3.144
84059W        W49220  13.651   3.141  14.305
84060W        W49221  15.178   5.603  11.088
84061W        W49222  17.590  38.043  11.534
84062W        W49223  29.752  25.085   1.803
84063W        W49224  30.194   4.403  12.867
84064W        W49225   4.293  13.365   3.231
84065W        W49226  22.890  40.739   0.608
84066W        W49227  44.715  14.759   0.794
84067W        W49228  19.779  32.002   0.786
84068W        W49229  28.239  14.507   3.316
84069W        W49230  30.571  20.218   0.297
84070W        W49231  15.619  26.435  11.073
84071W        W49232  33.692  43.116   4.100
84072W        W49233  30.021  11.768   1.362
84073W        W49234  31.170  44.901  13.495
84074W        W49235  34.104  28.930  11.520
84075W        W49236  11.374  22.536  10.631
84076W        W49237   9.471  27.591   0.042
84077W        W49238  34.147  22.931  12.150
84078W        W49239  36.154   0.343  12.051
84079W        W49240   8.857   1.484   4.473
84080W        W49241  37.795  18.810   3.646
84081W        W49242   8.558   0.504  12.176
84082W        W49243  28.607  28.238  11.559
84083W        W49244   2.213   4.259  13.600
84084W        W49245  29.046  38.801   3.598
84085W        W49246  37.800  14.613   2.856
84086W        W49247  38.530   0.266  11.143
84087W        W49248   5.186  30.197  11.981
84088W        W49249  36.272  11.583  12.477
84089W        W49250   6.822   5.284   3.687
84090W        W49251   4.507   4.006   4.341
84091W        W49252   1.394  15.423  10.121
84092W        W49253  42.918  24.355  12.415
84093W        W49254  39.411  20.067   2.650
84094W        W49255  25.735   2.211  14.561
84095W        W49256   3.011  23.282  11.732
84096W        W49257  16.766  16.918  14.626
84097W        W49258   1.798  43.832  14.906
84098W        W49259  18.710   4.859  10.742
84099W        W49260  44.944  14.361   0.538
84100W        W49261  39.563   6.227  12.025
84101W        W49262  22.028  25.025   1.302
84102W        W49263  41.391  17.074  11.434
84103W        W49264  44.917   0.315   4.649
84104W        W49265   8.893  33.903  10.584
84105W        W49266  32.085  10.684   3.381
84106W        W49267  36.629  36.477  12.465
84107W        W49268  28.207   8.828  10.405
84108W        W49269   9.722  32.579  14.719
84109W        W49270  12.578  27.661  10.789
84110W        W49271  16.181  43.911   1.886
84111W        W49272  31.463  28.105   3.051
84112W        W49273   3.937  14.027  13.872
84113W        W49274  10.304  19.784   0.661
84114W        W49275  25.417  27.940   4.670
84115W        W49276  18.137  19.128  11.190
84116W        W49277   0.291  35.613   0.254
84117W        W49278  14.005  35.751  12.003
84118W        W49279  38.504  16.342  12.272
84119W        W49280  16.336  31.626  14.662
84120W        W49281   5.926  24.627   0.930
84121W        W49282  17.313  27.052  10.847
84122W        W49283  43.787  36.647   0.314
84123W        W49284  25.040  40.292   3.178
84124W        W49285  11.686  35.947   4.912
84125W        W49286   1.503   0.491   1.786
84126W        W49287  17.755  27.540   1.208
84127W        W49288  23.226  22.702  13.539
84128W        W49289  26.945  43.375  12.507
84129W        W49290  23.502   3.600   2.693
84130W        W49291  33.076   9.350   2.669
84131W        W49292  34.900  36.788   3.699
84132W        W49293  25.760  44.236   1.685
84133W        W49294  40.420  35.371  12.960
84134W        W49295  19.593  14.747  11.595
84135W        W49296  17.139   9.341  12.937
84136W        W49297  26.181  23.727  12.967
84137W        W49298  44.009  25.705  11.187
84138W        W49299   4.019  41.938   0.089
84139W        W49300  35.164  18.744   0.197
84140W        W49301  24.513  13.600   3.718
84141W        W49302  15.262  37.111  12.397
84142W        W49303  41.655  34.489  10.323
84143W        W49304   4.509   3.461   2.259
84144W        W49305  38.965  19.106  12.835
84145W        W49306   7.699  16.697   4.576
84146W        W49307  30.763  43.603  14.937
84147W        W49308  43.285   5.239   0.021
84148W        W49309  41.863  12.275   3.823
84149W        W49310  32.506  19.173  13.308
84150W        W49311  34.123  30.219  14.390
84151W        W49312  31.956  34.947  12.436
84152W        W49313   2.538   1.724  10.583
84153W        W49314  40.202  36.077   1.683
84154W        W49315  41.156  43.159   1.312
84155W        W49316  26.999  34.519  14.753
84156W        W49317  43.894  38.118   4.012
84157W        W49318  15.858   1.295   0.330
84158W        W49319  23.021  44.766  10.552
84159W        W49320  36.776  18.917   4.991
84160W        W49321  36.828  41.097   4.231
84161W        W49322   4.410  14.274  11.174
84162W        W49323  11.657   7.294   4.359
84163W        W49324  22.108  30.132   3.546
84164W        W49325  14.254  36.665   3.790
84165W        W49326  41.355  37.366   4.046
84166W        W49327  18.156   7.457   2.364
84167W        W49328  34.450  42.578  11.114
84168W        W49329  19.344  12.127  11.564
84169W        W49330   2.237  32.941   0.251
84170W        W49331   4.840  40.018   2.364
84171W        W49332   4.605  12.567  10.338
84172W        W49333  25.814  23.504  13.316
84173W        W49334   6.710  15.791   3.238
84174W        W49335  10.223   4.413   1.064
84175W        W49336  35.956  37.903  11.807
84176W        W49337  36.571  44.901  12.453
84177W        W49338  38.896  39.361   1.666
84178W        W49339  39.993   9.796  14.268
84179W        W49340   1.126  32.976  12.006
84180W        W49341  10.609  35.418  10.602
84181W        W49342  25.039   1.089   2.292
84182W        W49343   6.382   1.510   0.384
84183W        W49344  40.516  37.921   0.685
84184W        W49345  25.626  15.884   1.282
84185W        W49346  14.192   3.842   3.049
84186W        W49347  15.741  43.327   9.878
84187W        W49348  31.964  21.653  12.761
84188W        W49349   5.761  41.031   1.887
84189W        W49350   4.905  11.088   2.145
84190W        W49351  42.835   9.269   1.168
84191W        W49352  41.286  34.545   4.606
84192W        W49353  29.791  17.675   3.153
84193W        W49354  28.995  35.858  10.935
84194W        W49355  33.045   9.795   1.399
84195W        W49356  11.346  11.342   1.271
84196W        W49357  30.640  13.823   3.634
84197W        W49358   0.530  41.598   4.111
84198W        W49359  34.348   3.834   3.138
84199W        W49360  40.830  16.030  11.535
84200W        W49361  26.599   9.285  14.862
84201W        W49362  26.681  11.757  11.585
84202W        W49363  38.637   2.714   0.866
84203W        W49364  31.046  10.392   0.329
84204W        W49365   4.575   2.820   9.929
84205W        W49366   4.833  37.266   4.357
84206W        W49367  37.688  33.197   4.618
84207W        W49368  27.674  23.305  11.560
84208W        W49369  17.989  22.128   0.055
84209W        W49370   6.989  15.185   1.144
84210W        W49371  22.944  10.206  14.014
84211W        W49372  37.523   4.592   4.628
84212W        W49373   1.851   6.837  11.945
84213W        W49374  31.986  38.084   0.327
84214W        W49375   9.936  14.260  14.300
84215W        W49376  27.097  25.283   1.040
84216W        W49377   9.693  25.609  12.580
84217W        W49378  21.622   4.752  13.801
84218W        W49379  19.743  32.202   1.280
84219W        W49380  38.677  32.389   3.608
84220W        W49381  25.814  14.937   3.245
84221W        W49382  31.105  28.671  13.627
84222W        W49383  29.149  32.755  12.996
84223W        W49384  23.596  44.337   2.872
84224W        W49385  30.532  12.318   3.185
84225W        W49386  34.574  40.346   4.826
84226W        W49387  42.322  21.739   3.663
84227W        W49388  21.162  17.187   1.124
84228W        W49389  24.552   3.569   1.959
84229W        W49390   8.917  22.249  12.636
84230W        W49391  43.862  41.327   2.342
84231W        W49392  40.892  15.595   1.503
84232W        W49393   9.829  27.593  13.837
84233W        W49394  14.791   3.550  14.920
84234W        W49395  10.717  41.273   2.010
84235W        W49396   8.306  33.700   3.456
84236W        W49397  41.322  15.320  11.991
84237W        W49398   6.113   9.116  14.418
84238W        W49399  15.259  40.249  12.900
84239W        W49400   4.101   2.415  14.578
84240W        W49401  25.528  20.652   3.147
84241W        W49402  25.239  11.240  13.535
84242W        W49403  30.224  18.227   3.697
84243W        W49404  29.622  39.954   2.775
84244W        W49405   5.664  22.045  13.470
84245W        W49406  29.072  19.192   3.263
84246W        W49407  16.549   0.972   3.881
84247W        W49408  14.616  41.094  14.916
84248W        W49409   3.991   7.944   3.058
84249W        W49410  40.711  25.777  12.969
84250W        W49411  20.621   3.695  12.690
84251W        W49412  37.611  14.919  12.552
84252W        W49413   2.503  15.566  14.357
84253W        W49414  43.768  18.216   2.536
84254W        W49415  41.599  27.404   0.826
84255W        W49416   0.389   9.749   1.704
84256W        W49417   5.051  12.273   1.322
84257W        W49418  20.495  17.556   2.212
84258W        W49419  28.035  30.339   3.297
84259W        W49420  23.057  16.101   1.007
84260W        W49421  27.920  15.249   0.858
84261W        W49422  39.301  25.525  11.680
84262W        W49423  17.881   0.925  13.620
84263W        W49424  18.107   8.217  11.464
84264W        W49425  40.772   1.002   2.346
84265W        W49426  40.971  31.542  13.318
84266W        W49427  36.471  24.993  13.078
84267W        W49428  21.516   3.124   4.947
84268W        W49429  27.195  37.070   1.178
84269W        W49430  24.079  26.109  14.512
84270W        W49431  41.052  42.815   3.348
84271W        W49432  38.107  12.780  12.105
84272W        W49433  22.702  11.244   0.669
84273W        W49434  36.558  43.482  14.317
84274W        W49435  34.606   2.773  10.672
84275W        W49436   2.223  15.810   0.913
84276W        W49437  21.738  31.377   2.290
84277W        W49438  22.857   5.483   1.431
84278W        W49439  29.530  42.522   3.388
84279W        W49440   7.731  11.311  14.218
84280W        W49441   2.439  17.204   4.017
84281W        W49442  20.708  10.109  12.586
84282W        W49443  43.005  19.152   2.834
84283W        W49444  10.700  18.357  14.337
84284W        W49445  44.448  14.235  13.888
84285W        W49446  22.099  33.803  11.635
84286W        W49447  28.614  28.182   3.111
84287W        W49448  35.633  31.527  14.997
84288W        W49449  18.596  43.530  13.410
84289W        W49450  41.997  25.970  14.369
84290W        W49451  21.236  43.401  13.901
84291W        W49452  35.530  13.233  12.560
84292W        W49453  36.405  25.994  14.753
84293W        W49454  28.859  24.759  11.085
84294W        W49455   2.262  19.507   4.601
84295W        W49456  30.649  26.670   3.297
84296W        W49457  24.800  32.859  11.225
84297W        W49458   4.927  12.790  11.300
84298W        W49459  31.567  38.048   2.739
84299W        W49460  27.761  36.664   2.159
84300W        W49461  26.264  16.765  11.960
84301W        W49462  24.405  21.033   2.229
84302W        W49463  12.264  10.422   2.628
84303W        W49464  19.542  39.351  11.353
84304W        W49465  28.308  36.321   3.300
84305W        W49466   3.405  41.456   0.650
84306W        W49467  43.732  31.099   3.367
84307W        W49468  19.136   1.876   4.471
84308W        W49469  11.648  23.744  11.312
84309W        W49470  27.921   1.874   2.761
84310W        W49471  26.814  12.941   2.444
84311W        W49472   2.155  17.284  12.836
84312W        W49473  40.960  34.027   0.948
84313W        W49474  39.258  20.496  14.020
84314W        W49475   3.233  14.696  13.476
84315W        W49476  21.540   5.876   3.628
84316W        W49477  44.926   0.880  13.001
84317W        W49478   7.560  40.488  13.661
84318W        W49479  10.939  32.434  12.380
84319W        W49480   8.714  26.739   0.309
84320W        W49481  23.741  26.109  13.846
84321W        W49482  20.185  35.303   0.891
84322W        W49483  18.311  20.078   4.549
84323W        W49484  22.501  23.301  14.760
84324W        W49485  22.497   9.198   3.696
84325W        W49486  37.342   4.713   2.701
84326W        W49487   4.903  36.836   0.927
84327W        W49488   5.396  39.525   0.209
84328W        W49489  31.663  16.834   3.535
84329W        W49490  25.302  13.029   0.889
84330W        W49491  40.097   5.715   2.294
84331W        W49492  30.103  27.349   2.206
84332W        W49493  33.524   9.121   0.852
84333W        W49494   5.542   6.468  12.544
84334W        W49495  25.765  33.184   3.627
84335W        W49496  42.710  15.838   2.189
84336W        W49497  44.661  29.698  13.252
84337W        W49498   0.928   2.416  12.288
84338W        W49499  39.680  37.540   4.083
84339W        W49500  11.698  19.663  12.358
84340W        W49501   3.502  37.085   1.729
84341W        W49502  28.765   2.007   1.695
84342W        W49503   2.660  15.801  12.089
84343W        W49504   3.290  18.967  13.761
84344W        W49505  27.201   6.223   3.281
84345W        W49506  22.374  31.390   1.047
84346W        W49507   9.612  38.987  10.580
84347W        W49508  21.292  44.430   0.615
84348W        W49509  32.392  12.694   4.392
84349W        W49510  19.794  42.313   1.725
84350W        W49511  32.790  21.379   3.824
84351W        W49512  23.523  34.805   1.976
84352W        W49513   6.918  21.179   4.787
84353W        W49514  19.787  12.987   4.703
84354W        W49515  21.596   6.292   0.784
84355W        W49516  10.184  20.819  13.914
84356W        W49517  23.663  16.673  10.667
84357W        W49518  11.555  15.873   1.693
84358W        W49519  33.461   4.795  14.381
84359W        W49520  16.817  19.930   2.707
84360W        W49521  30.129  15.608  12.114
84361W        W49522  38.298  18.756   3.578
84362W        W49523  25.558  44.728   1.699
84363W        W49524  41.410   5.063   3.604
84364W        W49525   2.019  10.306  10.229
84365W        W49526   1.986  15.598  13.557
84366W        W49527  33.660  38.395   0.275
84367W        W49528  32.879   2.997  14.454
84368W        W49529   2.406  21.552  13.570
84369W        W49530   9.071  20.309  10.654
84370W        W49531  14.589  41.057  11.046
84371W        W49532  13.352  23.459   3.798
84372W        W49533  29.653  22.788  12.069
84373W        W49534  39.376   5.846   1.044
84374W        W49535  27.165  11.754  13.910
84375W        W49536  40.950  20.886   3.755
84376W        W49537   8.842  43.365   2.284
84377W        W49538   1.155  28.550   0.814
84378W        W49539  11.367  22.539   0.658
84379W        W49540  43.904  22.717   0.832
84380W        W49541  40.776   3.846   2.263
84381W        W49542  14.791   3.255  10.668
84382W        W49543  37.998  39.349  11.041
84383W        W49544  39.382  37.370   3.685
84384W        W49545  13.935  13.888  10.323
84385W        W49546  41.893   9.921  11.166
84386W        W49547  40.427  10.113   0.783
84387W        W49548  20.354  37.693   4.598
84388W        W49549  16.688   1.482  10.699
84389W        W49550   2.928   4.346  10.705
84390W        W49551  32.537  30.242  13.923
84391W        W49552  34.098  40.161  11.581
84392W        W49553  27.703  37.052   1.691
84393W        W49554  16.809  44.278  12.067
84394W        W49555  38.544  35.671  10.726
84395W        W49556  12.780  37.877   4.952
84396W        W49557   0.554  29.217   2.835
84397W        W49558  15.122  35.797   0.908
84398W        W49559   0.196   6.926  11.871
84399W        W49560   8.301   4.989  10.408
84400W        W49561  37.621  14.684   3.969
84401W        W49562   3.837   2.280   4.632
84402W        W49563   2.637   8.474  14.047
84403W        W49564   0.696   1.586  13.230
84404W        W49565  27.901  23.950  13.312
84405W        W49566  44.044  25.472  13.409
84406W        W49567  32.632  44.502   2.181
84407W        W49568  21.552  39.441   4.914
84408W        W49569  40.452  32.899  14.303
84409W        W49570  30.641  13.500  13.848
84410W        W49571   1.376  41.570   2.878
84411W        W49572   8.462  29.566   3.908
84412W        W49573  38.294  36.150   4.558
84413W        W49574  33.195   4.773  10.621
84414W        W49575  44.343  18.248   0.779
84415W        W49576   9.278  24.498  11.057
84416W        W49577   7.715  15.654  10.678
84417W        W49578  28.228  12.876   4.958
84418W        W49579  26.531  10.785   2.369
84419W        W49580   9.172  34.287  12.289
84420W        W49581  38.088  10.099  11.136
84421W        W49582   2.583  24.205   4.567
84422W        W49583  41.350  40.672  12.703
84423W        W49584  12.430  10.707   3.804
84424W        W49585   6.694  38.575  13.023
84425W        W49586  26.493  35.398  14.911
84426W        W49587  38.065  21.228   2.239
84427W        W49588  37.392  35.993   4.212
84428W        W49589  20.064  30.403  11.216
84429W        W49590  27.746  40.738  14.914
84430W        W49591   2.846  19.157  10.617
84431W        W49592   8.151  35.520  14.848
84432W        W49593  44.941  25.237   2.614
84433W        W49594  17.050   1.447   3.183
84434W        W49595  43.809  26.638  12.093
84435W        W49596  30.506  38.815  12.531
84436W        W49597  35.126  41.631  11.645
84437W        W49598  26.748   5.277   3.237
84438W        W49599  31.548  23.932  14.526
84439W        W49600  33.614  18.556  11.566
84440W        W49601  20.599  40.771   4.276
84441W        W49602  27.786  36.552  12.061
84442W        W49603   1.047  40.126   0.995
84443W        W49604  23.244  40.693  14.321
84444W        W49605   7.390   2.750   0.746
84445W        W49606  16.040  34.762  12.606
84446W        W49607  18.078  29.516  10.635
84447W        W49608   0.873  27.770  12.128
84448W        W49609   7.820  18.630  11.537
84449W        W49610  22.393  35.975   2.745
84450W        W49611  25.599  12.879  11.150
84451W        W49612   9.847  41.064   0.877
84452W        W49613  25.685   2.696   0.728
84453W        W49614   1.189  38.863   0.219
84454W        W49615  22.681  38.084   1.198
84455W        W49616   1.376  40.442   0.217
84456W        W49617   0.755  21.196   2.101
84457W        W49618  19.585  34.458   3.526
84458W        W49619  44.285  17.490   2.231
84459W        W49620  42.700  16.839  11.548
84460W        W49621   9.778  12.947   2.607
84461W        W49622  42.743  30.963   4.719
84462W        W49623  42.542   8.391  14.343
84463W        W49624   6.473  25.189   2.172
84464W        W49625  37.875  12.405  14.455
84465W        W49626  18.941  15.188   9.758
84466W        W49627  10.803  33.344  13.494
84467W        W49628   1.702  44.342  10.670
84468W        W49629  32.583  32.537   1.797
84469W        W49630  14.553  28.503  11.546
84470W        W49631  31.142   0.495   4.084
84471W        W49632  25.080  21.747   0.904
84472W        W49633  10.680  36.966  12.346
84473W        W49634  19.216  20.349   0.696
84474W        W49635  15.377  32.053   1.545
84475W        W49636  35.571   2.042  11.632
84476W        W49637   6.225  44.455   1.348
84477W        W49638  39.784   2.641   2.222
84478W        W49639   3.431  33.892  14.337
84479W        W49640  12.670   4.250  11.589
84480W        W49641  22.832   7.867   2.400
84481W        W49642   8.313  40.829  11.388
84482W        W49643  15.726  11.812   3.660
84483W        W49644  26.387   0.901  10.981
84484W        W49645   5.426  30.868   3.272
84485W        W49646  18.036  43.472  10.551
84486W        W49647  32.081  32.370   1.752
84487W        W49648  38.005  41.803   4.941
84488W        W49649  39.402  35.397  12.053
84489W        W49650  36.249   7.275  11.924
84490W        W49651   8.805  11.903   4.152
84491W        W49652   8.224  28.376   2.678
84492W        W49653   7.320  32.309  11.237
84493W        W49654  28.033  39.061   0.786
84494W        W49655   4.856   4.481   4.313
84495W        W49656   6.317  18.018   3.775
84496W        W49657  41.850  24.747  10.993
84497W        W49658  36.541  34.517   2.652
84498W        W49659  44.205  36.347   0.372
84499W        W49660   4.546  29.502   1.327
84500W        W49661  15.552  44.278  14.375
84501W        W49662  15.855  20.225   2.647
84502W        W49663  35.700   8.118   4.188
84503W        W49664  11.553  16.388   4.509
84504W        W49665  35.911  27.205   3.198
84505W        W49666   4.342  15.064   1.129
84506W        W49667  29.079  30.010  14.072
84507W        W49668  23.283  40.796  13.808
84508W        W49669   6.364  35.832  10.986
84509W        W49670  12.187  37.431   3.105
84510W        W49671  28.285  36.052  14.870
84511W        W49672  12.062  40.587  11.594
84512W        W49673  12.410  35.500  12.451
84513W        W49674  23.151  19.707   1.862
84514W        W49675  26.416  39.892   0.185
84515W        W49676  18.854  37.291  10.770
84516W        W49677  27.087  33.533   3.858
84517W        W49678  30.208   6.288   1.193
84518W        W49679   5.760  19.094   4.232
84519W        W49680  32.126  34.864  14.803
84520W        W49681  28.273  36.373  11.923
84521W        W49682  26.649   7.303  13.898
84522W        W49683  39.845  36.852  14.015
84523W        W49684   1.374  43.515   0.872
84524W        W49685  32.465  19.797  11.267
84525W        W49686  11.037  30.000  14.511
84526W        W49687  44.722  26.123  13.494
84527W        W49688  30.541   8.718  14.919
84528W        W49689  40.165   4.229   0.883
84529W        W49690  19.196   9.395   1.954
84530W        W49691  35.002  10.903   0.943
84531W        W49692  33.046  11.720  11.782
84532W        W49693  28.498  42.966  11.962
84533W        W49694   2.569  39.590  14.008
84534W        W49695   9.434  11.606  11.600
84535W        W49696  19.602  21.457   4.067
84536W        W49697  16.491  15.504  10.630
84537W        W49698  28.401  39.102   4.135
84538W        W49699  28.019  35.356   4.138
84539W        W49700   4.210  35.904   2.191
84540W        W49701  38.181  28.562   3.746
84541W        W49702  22.924  10.326  14.854
84542W        W49703   8.457   5.717  14.009
84543W        W49704  38.977  41.835   0.022
84544W        W49705   2.960  25.679   1.121
84545W        W49706  21.615   0.296   4.239
84546W        W49707   7.846   5.385   0.041
84547W        W49708  43.322  12.050   1.349
84548W        W49709   9.163   3.687  13.906
84549W        W49710   8.464  12.246   3.622
84550W        W49711  40.904  16.749   2.732
84551W        W49712  13.772  24.701   4.592
84552W        W49713  39.869   0.929  12.851
84553W        W49714  17.363  41.030  13.076
84554W        W49715  12.807   7.914   3.705
84555W        W49716  29.253  11.010   2.462
84556W        W49717   1.513  18.635   3.349
84557W        W49718   4.403   0.564   3.539
84558W        W49719  29.045  39.248   1.717
84559W        W49720  29.072  38.291  11.521
84560W        W49721   9.104  27.680   0.435
84561W        W49722  42.572  26.079  13.379
84562W        W49723  29.180  10.266  14.564
84563W        W49724  29.201  18.692   0.523
84564W        W49725  10.202   4.491  14.817
84565W        W49726  29.379  33.809   9.686
84566W        W49727  13.549  14.593   3.998
84567W        W49728  27.487  30.477   2.496
84568W        W49729  23.119  21.263  13.478
84569W        W49730   3.835  37.945   0.007
84570W        W49731  18.198  23.770   0.622
84571W        W49732  13.894  22.999   4.178
84572W        W49733  14.238   0.525   4.177
84573W        W49734   3.736  33.213   2.681
84574W        W49735  35.374  30.581   3.727
84575W        W49736  30.418  17.538   1.452
84576W        W49737  13.646  12.605   3.214
84577W        W49738  40.472   3.724   0.023
84578W        W49739  32.577   8.907  12.016
84579W        W49740  27.549   1.296  12.413
84580W        W49741  22.000  26.455   3.732
84581W        W49742  28.670  16.152  12.349
84582W        W49743  33.392  16.248  11.177
84583W        W49744  10.653   3.938   4.136
84584W        W49745  20.948   8.158   1.543
84585W        W49746  43.303  42.738   2.800
84586W        W49747  10.896  35.691   4.437
84587W        W49748  43.719  31.386   1.109
84588W        W49749  15.227  28.533   2.442
84589W        W49750  44.302  41.568   0.122
84590W        W49751   7.295  24.988  11.161
84591W        W49752   0.338  24.810  13.116
84592W        W49753  40.552  41.455  11.171
84593W        W49754   7.401  27.448   4.089
84594W        W49755   4.240  38.354   1.670
84595W        W49756  31.944  40.860   2.748
84596W        W49757  41.266  24.016   3.343
84597W        W49758  40.017  22.517  11.688
84598W        W49759  15.760   9.279   0.750
84599W        W49760   6.244  27.522   2.411
84600W        W49761  24.005   7.435   3.135
84601W        W49762  14.719  12.117  11.611
84602W        W49763  44.695  11.765  11.961
84603W        W49764  28.219   6.311  12.910
84604W        W49765   6.986   2.477   0.985
84605W        W49766  32.106  11.532   4.495
84606W        W49767  12.304   3.044  11.175
84607W        W49768  29.676  40.861   4.540
84608W        W49769  42.504   3.862   3.203
84609W        W49770  10.659   2.748  14.980
84610W        W49771  20.285  26.620   2.012
84611W        W49772  23.106   7.496  11.542
84612W        W49773  39.067  35.034  11.387
84613W        W49774  26.916   9.739  12.532
84614W        W49775   0.192  40.555   1.502
84615W        W49776  29.920  34.445  10.663
84616W        W49777  18.147   1.725  11.211
84617W        W49778  12.617  25.973   0.470
84618W        W49779  38.751  35.998  12.191
84619W        W49780   4.213  41.241  14.367
84620W        W49781  22.989  16.110   1.975
84621W        W49782  21.131  39.127   1.919
84622W        W49783  34.998  26.189  10.768
84623W        W49784  16.494  20.146   4.996
84624W        W49785  10.785  38.309  13.798
84625W        W49786  34.481   4.534   2.914
84626W        W49787  34.272  38.101  12.579
84627W        W49788   6.400   5.402  13.810
84628W        W49789  21.682  32.191   0.089
84629W        W49790  20.141  12.236   0.022
84630W        W49791  31.207  42.841  14.831
84631W        W49792   8.264  29.293   5.138
84632W        W49793   6.454  13.182   4.897
84633W        W49794   1.576  34.029   0.175
84634W        W49795  22.672   8.168   0.792
84635W        W49796  19.169  17.633   0.767
84636W        W49797  27.230  34.923  13.758
84637W        W49798  19.972   0.199   0.830
84638W        W49799  42.969   6.507   0.407
84639W        W49800  38.696  15.332   4.112
84640W        W49801   6.630  22.287  11.040
84641W        W49802  39.768  26.727  14.809
84642W        W49803  10.958  30.947   4.378
84643W        W49804  18.296   3.024   1.342
84644W        W49805  11.379  32.642   4.657
84645W        W49806   3.391   8.665   2.192
84646W        W49807  20.545  27.960   3.318
84647W        W49808  22.115  39.477   0.813
84648W        W49809  21.161  24.220  11.192
84649W        W49810  41.758  16.093  12.013
84650W        W49811  13.503  41.585  14.555
84651W        W49812   9.671  42.988  11.644
84652W        W49813  19.530   4.810   2.503
84653W        W49814   2.220  21.791   1.300
84654W        W49815  12.368  30.186   4.063
84655W        W49816  18.254  41.897   3.866
84656W        W49817  26.342  23.055  11.742
84657W        W49818  16.385  21.499   1.308
84658W        W49819  43.949   3.711   1.134
84659W        W49820  36.875  28.865  11.159
84660W        W49821  33.041  21.697  12.318
84661W        W49822  12.126  13.983  14.057
84662W        W49823  36.162  28.529   4.563
84663W        W49824   7.779   7.300   4.484
84664W        W49825  25.109  18.752  14.856
84665W        W49826  44.173  20.356  12.106
84666W        W49827  40.617  42.590   2.226
84667W        W49828  36.950  29.100   0.716
84668W        W49829  35.803  21.619   1.375
84669W        W49830  16.188   9.369   0.054
84670W        W49831  40.741  26.285  12.513
84671W        W49832   6.426  14.713   2.936
84672W        W49833  29.842  26.859   2.384
84673W        W49834  18.301  20.576  10.912
84674W        W49835  43.149  11.580  11.542
84675W        W49836   6.304  44.756   0.917
84676W        W49837  27.549  34.955   3.260
84677W        W49838   5.667  27.866   5.479
84678W        W49839  26.444   7.106  12.030
84679W        W49840  28.699  43.818  12.483
84680W        W49841  11.387   3.860  11.572
84681W        W49842  26.421   6.407   1.804
84682W        W49843  37.578  27.662   1.780
84683W        W49844  11.311  32.240  11.932
84684W        W49845  13.078  22.998   3.726
84685W        W49846  35.427  23.073   2.915
84686W        W49847  22.443  44.058  13.099
84687W        W49848  17.720  33.459   1.928
84688W        W49849  12.818  21.680  12.451
84689W        W49850  11.918  19.781   5.221
84690W        W49851  37.446  36.486   1.185
84691W        W49852  33.631  40.523  14.588
84692W        W49853  27.293   1.322  13.402
84693W        W49854  41.277   1.832   3.861
84694W        W49855   2.484   7.870  12.995
84695W        W49856  12.576   9.989   0.384
84696W        W49857   2.911  40.964   2.730
84697W        W49858  24.803  13.144   0.821
84698W        W49859  21.637  18.029  11.100
84699W        W49860  31.669  25.929  13.430
84700W        W49861  25.563  19.564  10.559
84701W        W49862  41.153  37.232   2.807
84702W        W49863   8.242  11.118   1.843
84703W        W49864  27.683   1.422  14.731
84704W        W49865  12.668  13.336   4.235
84705W        W49866  42.394  34.614   1.258
84706W        W49867  24.653  19.813   1.802
84707W        W49868   3.225  37.461  11.931
84708W        W49869   1.479  38.447  14.792
84709W        W49870  42.838  28.098  13.539
84710W        W49871   1.161  35.841   0.351
84711W        W49872   2.424  22.534   3.281
84712W        W49873  27.179  38.798   0.369
84713W        W49874  27.994   8.636   4.213
84714W        W49875  43.866  24.730  10.815
84715W        W49876  27.552   9.629   3.833
84716W        W49877  23.552  10.379  10.669
84717W        W49878  18.447  29.422   3.247
84718W        W49879  43.976   4.906   4.008
84719W        W49880  42.984  22.884   2.705
84720W        W49881   6.557  17.435   4.867
84721W        W49882  32.632   5.954  13.451
84722W        W49883  42.546  30.449  11.166
84723W        W49884   4.909   3.190  12.118
84724W        W49885  32.136  40.013   1.349
84725W        W49886  15.625  32.584  13.428
84726W        W49887   0.456  24.704  14.861
84727W        W49888  26.937  29.009  12.898
84728W        W49889  43.568  16.296  12.483
84729W        W49890  13.301   5.066   0.694
84730W        W49891   3.312  42.483   0.306
84731W        W49892   0.556  41.378  10.150
84732W        W49893  39.212   6.013   2.708
84733W        W49894   8.646  30.599   2.763
84734W        W49895   0.043   0.512   0.939
84735W        W49896  13.528   3.810   0.441
84736W        W49897  29.246  21.328  13.817
84737W        W49898  38.990  25.210   3.684
84738W        W49899  11.058  40.858   2.668
84739W        W49900   1.268   9.779  14.847
84740W        W49901  19.388  16.466  13.561
84741W        W49902  12.438   4.509  13.859
84742W        W49903   9.439  18.701  13.868
84743W        W49904  23.169  35.797   0.353
84744W        W49905  18.375  32.006  10.734
84745W        W49906  25.976   5.765   1.857
84746W        W49907   2.568  34.943   2.235
84747W        W49908  33.471  40.158  11.159
84748W        W49909  17.240  44.231  14.928
84749W        W49910  19.329  30.809   4.257
84750W        W49911  22.180   9.732  13.937
84751W        W49912   3.488  37.183  12.313
84752W        W49913  10.137  16.283  12.052
84753W        W49914  43.479  25.475  12.077
84754W        W49915  40.738  25.653   3.672
84755W        W49916  15.589   7.229  14.741
84756W        W49917  38.059  29.671   2.650
84757W        W49918  10.266  12.327   3.888
84758W        W49919   6.153  25.708  13.043
84759W        W49920  41.429  14.171   5.076
84760W        W49921  17.252  10.768   0.887
84761W        W49922  28.230  18.150   3.613
84762W        W49923  31.980  38.819  13.244
84763W        W49924   8.218   3.664   0.218
84764W        W49925  24.130  44.605   4.474
84765W        W49926  31.506   9.845   3.219
84766W        W49927  10.373   1.017  11.577
84767W        W49928   9.647   1.817   2.696
84768W        W49929   6.207  11.805   5.039
84769W        W49930  35.327   0.661  14.054
84770W        W49931   2.217  29.426   4.128
84771W        W49932  11.204  28.560  14.329
84772W        W49933  16.662  31.362  12.908
84773W        W49934   9.865  26.540   4.573
84774W        W49935  24.494  39.500   0.176
84775W        W49936   2.323   5.099  14.346
84776W        W49937  35.344   3.870   3.262
84777W        W49938   2.913  24.684   3.565
84778W        W49939  28.274   4.643   4.161
84779W        W49940  40.390  25.093   2.311
84780W        W49941  20.717  37.304   1.669
84781W        W49942  26.661  36.493  14.494
84782W        W49943  39.306  15.834   1.268
84783W        W49944  43.488   1.697   1.497
84784W        W49945  18.058  11.698  11.089
84785W        W49946  21.526   2.744  12.046
84786W        W49947  44.175  31.023   3.090
84787W        W49948   8.830  44.949  11.878
84788W        W49949  40.208  40.806  10.646
84789W        W49950  40.803  32.585  14.094
84790W        W49951   6.838  40.466   4.604
84791W        W49952  43.902   6.246  12.878
84792W        W49953   0.424  30.200   4.557
84793W        W49954  33.896  26.021  14.055
84794W        W49955   4.209  17.899   3.329
84795W        W49956   0.215   2.415  11.580
84796W        W49957   8.732  20.079  13.551
84797W        W49958  13.173   0.757   3.009
84798W        W49959  10.824  38.830  11.956
84799W        W49960   1.554  15.248   3.206
84800W        W49961   2.363   0.698  10.282
84801W        W49962  30.201  43.767   0.357
84802W        W49963  40.871   9.312  14.098
84803W        W49964  26.016   1.491  13.582
84804W        W49965  28.097   8.690  11.937
84805W        W49966  11.130  37.566   4.135
84806W        W49967  42.054   0.169   4.333
84807W        W49968  18.295  38.021   2.281
84808W        W49969   0.985  35.535   2.732
84809W        W49970  35.958  10.297  13.091
84810W        W49971   1.236   1.556  11.992
84811W        W49972  33.327  35.822  12.427
84812W        W49973  26.014  34.935  13.817
84813W        W49974  23.211  31.982  13.577
84814W        W49975  40.994  16.810  11.251
84815W        W49976  22.085   1.319  13.105
84816W        W49977   9.148   6.956   3.166
84817W        W49978  36.376  31.679   4.968
84818W        W49979   4.305  16.612  14.247
84819W        W49980   5.053  44.939  13.915
84820W        W49981  42.517  39.407  13.849
84821W        W49982   9.613  44.867   2.780
84822W        W49983   1.666   7.789   4.152
84823W        W49984  18.161   0.517  11.953
84824W        W49985  19.806  34.472  14.991
84825W        W49986  34.032  20.814   4.915
84826W        W49987  21.539  15.279   1.711
84827W        W49988  33.284  33.005   3.857
84828W        W49989  41.327  41.601  14.940
84829W        W49990  22.214  39.667   4.977
84830W        W49991  27.080  38.616  14.875
84831W        W49992  28.024   0.277  10.716
84832W        W49993  26.098   2.284   1.947
84833W        W49994  34.293  43.523   1.813
84834W        W49995  29.412  16.225   0.961
84835W        W49996  41.268   5.293   1.280
84836W        W49997  27.853   1.843   4.216
84837W        W49998  42.597  44.894  11.645
84838W        W49999  33.992  26.648   3.186
84839W        W50000  10.142   0.384   1.408
84840W        W50001  34.190  35.814  11.147
84841W        W50002   7.057   3.515   4.547
84842W        W50003   0.511  12.817  13.571
84843W        W50004   7.816  44.214   0.241
84844W        W50005   8.753  26.475   0.806
84845W        W50006   1.718  18.157  11.928
84846W        W50007  20.828  35.941   2.295
84847W        W50008   0.206  17.399   1.342
84848W        W50009  39.280  11.263  13.917
84849W        W50010   9.782   5.867   3.662
84850W        W50011  33.396  31.135   2.388
84851W        W50012   6.190   4.891   1.372
84852W        W50013  17.673  22.150   3.098
84853W        W50014  21.790  17.635   2.838
84854W        W50015  34.528  18.255  14.261
84855W        W50016  33.517  20.809  12.257
84856W        W50017  42.452   9.105   5.026
84857W        W50018   1.777  22.466  12.042
84858W        W50019  11.404  21.258  12.303
84859W        W50020  13.431  44.932   0.524
84860W        W50021  17.954  33.409  11.722
84861W        W50022  33.537   7.184   2.818
84862W        W50023  11.632  17.455  11.194
84863W        W50024   7.039  27.191  14.865
84864W        W50025  30.577   5.371   3.112
84865W        W50026  16.788  43.804  14.258
84866W        W50027  34.951   4.829  13.798
84867W        W50028  10.057  22.467   2.763
84868W        W50029  40.055  23.105   3.761
84869W        W50030  17.582  28.140  11.358
84870W        W50031  14.268  41.764   0.457
84871W        W50032  14.631   4.238   4.345
84872W        W50033  17.651  36.912   1.337
84873W        W50034  20.155  39.522  12.906
84874W        W50035   8.481  34.265   0.226
84875W        W50036  16.470  39.408   2.306
84876W        W50037  36.437  30.218  11.207
84877W        W50038  15.747  36.135   1.758
84878W        W50039   7.793  36.855  11.888
84879W        W50040  41.721  10.913  13.824
84880W        W50041  16.066  32.595   0.703
84881W        W50042  39.574  17.268   2.620
84882W        W50043  17.548  27.592  14.380
84883W        W50044  26.125  19.490  14.097
84884W        W50045  30.539   3.732   1.696
84885W        W50046  19.723   5.044   3.534
84886W        W50047  27.415  24.597   0.484
84887W        W50048  13.359  30.148   0.168
84888W        W50049  36.797   3.627   1.258
84889W        W50050  39.325   7.460  11.635
84890W        W50051  18.612  12.663   4.545
84891W        W50052  20.760  14.299  13.494
84892W        W50053  14.248  42.844   4.761
84893W        W50054   5.672  16.298  11.435
84894W        W50055  39.612  16.556   0.747
84895W        W50056   6.012  18.507  11.387
84896W        W50057  25.229  21.505  12.957
84897W        W50058  44.939  24.445   0.886
84898W        W50059   1.425  17.575   0.317
84899W        W50060  33.590   8.954  13.025
84900W        W50061  36.484  26.438  11.184
84901W        W50062  23.798  28.694  11.370
84902W        W50063  14.099  42.528   1.251
84903W        W50064  11.741  33.309  13.544
84904W        W50065  15.753  12.495   1.731
84905W        W50066  22.761  29.551   2.138
84906W        W50067  39.440  23.905   0.887
84907W        W50068  22.665  31.652   4.699
84908W        W50069  36.596  16.154  14.227
84909W        W50070  25.064  41.349   3.139
84910W        W50071   7.250  11.642   3.258
84911W        W50072  27.095   4.195   2.276
84912W        W50073  27.225  19.365   1.675
84913W        W50074  23.648  40.771  11.982
84914W        W50075   8.728  35.638  12.525
84915W        W50076  28.516  41.988   4.736
84916W        W50077   1.405  27.493   1.196
84917W        W50078  20.221  31.032   3.487
84918W        W50079   9.684  22.740   2.429
84919W        W50080   7.839   2.918  14.347
84920W        W50081  41.699   5.585   1.191
84921W        W50082  22.819  30.684   1.647
84922W        W50083  11.255  42.565   2.323
84923W        W50084   4.858  35.192  13.426
84924W        W50085   2.887  35.643   4.704
84925W        W50086  20.587  20.535  14.538
84926W        W50087   3.245   4.061   3.637
84927W        W50088  44.514  22.506   1.760
84928W        W50089  39.672  11.100  12.994
84929W        W50090  21.113  21.509  13.419
84930W        W50091  32.971  12.992  10.550
84931W        W50092   1.102   4.813   1.448
84932W        W50093  27.594  13.641  11.897
84933W        W50094  44.284  25.441   0.341
84934W        W50095  40.133  24.750  11.142
84935W        W50096  37.007  21.933  13.141
84936W        W50097   7.084  33.293  11.111
84937W        W50098   7.690  36.439   0.675
84938W        W50099  39.806  26.662   2.938
84939W        W50100   6.265  27.530   1.418
84940W        W50101  36.130  30.189   0.890
84941W        W50102  18.777  19.553   0.576
84942W        W50103  19.365  16.438   4.542
84943W        W50104  34.327  25.570   3.740
84944W        W50105  24.109  31.816   3.146
84945W        W50106  32.453  18.445   2.482
84946W        W50107  40.314  42.561   0.483
84947W        W50108  37.989  28.219   1.903
84948W        W50109  41.964  18.367  12.944
84949W        W50110  17.204  12.164  13.763
84950W        W50111   1.003   8.748  12.697
84951W        W50112  40.170  11.644  12.028
84952W        W50113   1.429  14.227   1.772
84953W        W50114   9.847   6.066  14.405
84954W        W50115   7.684   2.983   2.214
84955W        W50116  28.150  38.336  14.366
84956W        W50117  27.772  21.360   5.011
84957W        W50118  37.671  33.376  14.762
84958W        W50119   9.224  34.380   4.391
84959W        W50120  34.472  31.945   1.002
84960W        W50121  22.120  12.397  10.520
84961W        W50122  38.849  20.770   4.594
84962W        W50123  16.846  39.977  14.385
84963W        W50124  29.275  17.913  13.881
84964W        W50125  17.660  16.181   3.332
84965W        W50126  16.000  11.832   2.359
84966W        W50127  19.820   8.606   2.725
84967W        W50128  24.990   2.500  14.795
84968W        W50129  39.314  33.816  11.102
84969W        W50130  38.604  27.123  11.614
84970W        W50131  21.781  32.503  12.529
84971W        W50132   2.672  27.674   4.129
84972W        W50133  25.286   9.156   3.709
84973W        W50134   2.344  32.576   4.734
84974W        W50135   7.127  13.890   2.197
84975W        W50136  35.354   2.008  14.417
84976W        W50137   3.247  33.380   2.480
84977W        W50138  43.212  38.867  12.118
84978W        W50139   5.984  26.851   1.027
84979W        W50140  36.134  14.829  13.575
84980W        W50141   3.800  40.923  14.233
84981W        W50142  12.483  31.152  14.755
84982W        W50143  22.939   4.323   4.623
84983W        W50144   9.412  30.454  11.460
84984W        W50145  25.738  14.617  12.054
84985W        W50146  20.112  17.469   0.816
84986W        W50147  11.840  16.464  14.965
84987W        W50148  20.075  23.207  12.036
84988W        W50149  37.278   9.897  11.165
84989W        W50150  23.483   0.632   2.063
84990W        W50151   2.408  20.892  14.347
84991W        W50152   9.204  42.475   3.214
84992W        W50153  40.728  20.694  11.610
84993W        W50154   3.340  31.147  14.777
84994W        W50155  44.414  32.236   4.529
84995W        W50156  26.526  41.203   1.650
84996W        W50157  42.693   3.661   1.730
84997W        W50158  10.221   1.083   3.724
84998W        W50159  22.213   2.715   2.267
84999W        W50160  40.517   7.801   3.095
85000W        W50161  24.250  40.779  13.895
85001W        W50162  19.250  39.387  10.311
85002W        W50163   3.919  32.183  12.041
85003W        W50164  26.100   8.214  10.696
85004W        W50165   2.864  40.675  12.404
85005W        W50166  34.822  23.348  13.591
85006W        W50167  12.450  44.845   4.520
85007W        W50168  18.302  43.378  10.979
85008W        W50169  19.133  25.126  13.638
85009W        W50170  24.741  42.267  11.705
85010W        W50171  24.103  30.971   2.810
85011W        W50172  36.058   2.182   4.553
85012W        W50173  29.013  37.260  13.417
85013W        W50174   7.144  32.076   1.749
85014W        W50175   2.461  16.975   4.503
85015W        W50176  36.838  42.805  13.494
85016W        W50177  38.598  22.593  10.698
85017W        W50178  43.120  14.871   3.105
85018W        W50179  26.009  41.438  14.235
85019W        W50180  34.038  32.028   4.522
85020W        W50181  42.786  16.739   3.171
85021W        W50182   4.739  23.037   3.479
85022W        W50183  33.357   1.962   0.878
85023W        W50184  30.651  33.008  12.591
85024W        W50185  13.536  11.521  11.569
85025W        W50186  21.988  16.453  12.514
85026W        W50187  27.745  41.495  13.838
85027W        W50188  33.483  28.527   0.491
85028W        W50189  18.842  26.935  13.419
85029W        W50190  29.162  19.711  14.593
85030W        W50191  41.216  22.311  12.078
85031W        W50192  15.644  28.492   4.671
85032W        W50193   9.306  41.773   4.136
85033W        W50194  28.274  35.969  13.990
85034W        W50195  10.064  34.903   3.451
85035W        W50196  18.615  43.528   3.150
85036W        W50197  13.890  39.739   4.316
85037W        W50198  38.907  23.769  12.516
85038W        W50199  24.812  16.348   2.377
85039W        W50200  42.010  40.487  13.421
85040W        W50201  12.374  29.879  11.709
85041W        W50202   8.974  22.464  14.552
85042W        W50203  28.496  10.193   3.791
85043W        W50204   2.138  15.791   4.093
85044W        W50205  17.955  21.598  12.845
85045W        W50206  23.449  23.750   0.285
85046W        W50207  34.700   5.652   4.460
85047W        W50208   8.520  21.076  14.498
85048W        W50209   9.646  42.783   1.319
85049W        W50210  42.210  22.752   4.891
85050W        W50211  35.455  34.394   1.181
85051W        W50212   3.890  29.170  12.411
85052W        W50213   2.076  30.346   3.572
85053W        W50214  20.221  27.888   1.809
85054W        W50215  31.368   1.938   4.089
85055W        W50216  38.901   2.481  14.414
85056W        W50217  37.849  17.104  14.619
85057W        W50218  27.561  10.709  13.350
85058W        W50219  37.203  33.320   3.670
85059W        W50220  27.179  30.016  13.042
85060W        W50221   6.236  20.221  14.939
85061W        W50222  10.911   8.252  12.347
85062W        W50223  23.221  18.350  12.622
85063W        W50224   8.235   2.511  12.778
85064W        W50225   8.148  29.151   1.440
85065W        W50226  39.709  32.128  14.227
85066W        W50227   9.325  25.122   0.870
85067W        W50228  24.144   9.157   2.116
85068W        W50229  38.771   9.602  10.855
85069W        W50230  13.592   6.825  12.702
85070W        W50231  17.028  36.951  11.426
85071W        W50232  37.361  20.640   1.133
85072W        W50233  35.663  29.516   2.102
85073W        W50234  34.953  19.804   2.392
85074W        W50235  28.415   8.595  13.176
85075W        W50236  12.899  39.272   1.286
85076W        W50237  24.548   3.219   4.922
85077W        W50238  17.523   2.626   1.772
85078W        W50239   8.675   0.839  12.542
85079W        W50240  10.487   1.337   4.097
85080W        W50241  25.958  11.108  14.683
85081W        W50242   9.254  26.450  13.481
85082W        W50243  44.228   7.212   1.254
85083W        W50244   5.814  41.132   2.884
85084W        W50245  43.538  31.093  14.546
85085W        W50246  36.337   1.353  14.472
85086W        W50247   1.219  23.581   4.506
85087W        W50248  24.062   9.923  12.906
85088W        W50249  16.572  34.687  14.453
85089W        W50250  41.892  41.043  14.663
85090W        W50251   2.657  42.575  14.812
85091W        W50252  43.003  36.456  11.955
85092W        W50253  26.436  24.785   4.185
85093W        W50254   7.116  16.357  14.544
85094W        W50255  11.651  12.837  10.413
85095W        W50256  42.869  26.269  11.201
85096W        W50257  41.739   0.917   2.652
85097W        W50258   7.319  41.416  12.550
85098W        W50259  41.120  38.375  10.960
85099W        W50260  39.985  15.874   4.893
85100W        W50261   8.877  36.443  14.794
85101W        W50262  24.936  24.247   4.155
85102W        W50263  36.396   0.786   0.010
85103W        W50264  27.658   3.655   1.752
85104W        W50265   9.332   5.346  10.571
85105W        W50266   2.720  36.914  11.165
85106W        W50267  36.394  35.010  10.724
85107W        W50268  41.025  14.675  14.436
85108W        W50269  27.839   5.974  14.458
85109W        W50270  11.002   5.427   4.327
85110W        W50271  35.914  27.443  13.499
85111W        W50272  38.974  33.049   3.582
85112W        W50273   5.755  31.573  14.444
85113W        W50274   7.427  43.906   3.291
85114W        W50275  10.273  32.773   1.477
85115W        W50276  18.503  28.372  14.340
85116W        W50277  21.130  13.831  13.181
85117W        W50278  20.283  33.773   1.876
85118W        W50279  11.319  36.319  14.916
85119W        W50280  12.740   6.622   0.419
85120W        W50281   9.376  13.217   2.447
85121W        W50282  22.309  12.519   3.621
85122W        W50283   4.342  28.418   2.369
85123W        W50284  26.474  24.616  12.594
85124W        W50285  31.112  37.352  13.483
85125W        W50286   9.403  10.293  14.311
85126W        W50287  11.795  29.936   3.756
85127W        W50288   4.855  28.519   2.965
85128W        W50289  43.953  34.846  11.549
85129W        W50290   6.903  16.641   0.893
85130W        W50291  22.601  40.912   1.581
85131W        W50292  32.937  22.298  14.335
85132W        W50293   5.824  26.749  11.198
85133W        W50294   5.559  14.628   1.815
85134W        W50295  15.550  38.066   0.965
85135W        W50296  18.209  40.969  14.751
85136W        W50297  35.628   6.284  12.934
85137W        W50298  43.042  18.441  12.192
85138W        W50299   6.909  39.444  10.961
85139W        W50300  15.396  18.387  10.117
85140W        W50301  29.047  14.494   3.222
85141W        W50302  33.425  27.201  10.077
85142W        W50303  15.640  40.617  12.939
85143W        W50304  29.486  44.218   1.845
85144W        W50305  41.603  24.640   2.588
85145W        W50306  17.586   1.981  13.908
85146W        W50307   5.209  11.058  13.535
85147W        W50308   0.430  12.257  13.460
85148W        W50309  37.539  43.135   1.435
85149W        W50310  33.236  44.357   4.991
85150W        W50311   9.460   2.425   2.228
85151W        W50312  13.243  12.559  11.005
85152W        W50313  41.643  35.765   2.856
85153W        W50314  33.050  35.022  11.154
85154W        W50315  21.597  37.419   4.514
85155W        W50316  44.260   2.713   0.271
85156W        W50317  33.451  16.110  14.856
85157W        W50318  34.148  17.327   0.949
85158W        W50319  23.271  24.674  14.731
85159W        W50320  28.482  36.532  11.459
85160W        W50321  25.979  20.074  12.986
85161W        W50322  19.199  30.095   4.579
85162W        W50323   5.689  12.846   2.757
85163W        W50324  37.391  37.774   4.689
85164W        W50325   7.686  24.022  12.704
85165W        W50326  39.659  25.976  10.470
85166W        W50327  27.536  24.592  12.266
85167W        W50328  14.255   3.962   0.828
85168W        W50329  10.944  22.693  13.921
85169W        W50330   9.699  19.591  12.047
85170W        W50331  23.851  11.775   0.277
85171W        W50332  35.385  42.882   0.484
85172W        W50333  30.854  27.317   1.467
85173W        W50334   4.268  34.316  13.059
85174W        W50335  28.119   5.742   2.341
85175W        W50336  14.091  13.257   3.021
85176W        W50337  26.973  21.581  11.678
85177W        W50338   9.190  33.065   2.727
85178W        W50339  16.530  18.567  11.939
85179W        W50340  29.980  21.978  14.003
85180W        W50341  42.390  34.657   2.107
85181W        W50342   2.270   9.294   3.808
85182W        W50343  20.774   5.922  11.114
85183W        W50344   6.224  24.999   3.599
85184W        W50345  43.178  29.027   0.126
85185W        W50346   7.223  40.765  11.563
85186W        W50347   9.452   1.942  11.585
85187W        W50348   9.859   3.930  13.477
85188W        W50349  38.810  41.981  13.147
85189W        W50350  33.002  41.482   3.171
85190W        W50351   7.160   4.295   0.951
85191W        W50352  16.422  15.007  10.505
85192W        W50353  31.934   2.009  13.671
85193W        W50354  34.098  17.146  11.792
85194W        W50355  35.916  40.636  14.433
85195W        W50356  19.333  44.545   1.292
85196W        W50357  20.539  32.923  11.258
85197W        W50358  32.379   1.064   4.251
85198W        W50359   0.005   2.993   4.920
85199W        W50360  42.587   5.447   0.631
85200W        W50361  31.151  19.039  13.883
85201W        W50362  25.247  25.604   1.992
85202W        W50363   9.867   8.879  11.526
85203W        W50364   8.170  38.094   2.751
85204W        W50365  14.531  26.929   1.810
85205W        W50366  39.383  34.930   1.201
85206W        W50367  37.860  28.436  10.803
85207W        W50368  41.331  40.118   3.268
85208W        W50369  16.735  12.521   1.741
85209W        W50370  38.443   5.747  12.930
85210W        W50371  40.627  23.389  12.001
85211W        W50372  42.581  20.040   4.189
85212W        W50373  21.481   9.701  11.189
85213W        W50374  19.196  43.427  12.413
85214W        W50375   0.785  27.921   4.111
85215W        W50376  27.963  40.160   2.770
85216W        W50377   3.920  30.683  14.378
85217W        W50378  38.927  16.549  12.447
85218W        W50379   2.814  16.895   5.469
85219W        W50380   9.361   4.232   3.251
85220W        W50381  31.455   6.348  11.977
85221W        W50382   9.603  17.537  11.623
85222W        W50383   9.049  30.739  11.232
85223W        W50384  25.540   2.419  11.673
85224W        W50385  29.550  37.378   1.725
85225W        W50386  38.600  10.788  14.238
85226W        W50387  26.977  36.379  14.888
85227W        W50388  31.009   3.162   3.200
85228W        W50389  16.981  33.802  11.700
85229W        W50390  44.760   1.951  11.110
85230W        W50391  30.429  14.938   2.753
85231W        W50392  16.179  44.780   1.409
85232W        W50393  11.111   0.466  13.646
85233W        W50394  38.970  17.261   4.858
85234W        W50395  37.593   0.406  12.146
85235W        W50396  40.248  20.011   4.467
85236W        W50397  26.942   3.688   2.257
85237W        W50398   9.808  37.584  13.285
85238W        W50399   8.233  13.042   3.272
85239W        W50400  43.207  33.994   1.390
85240W        W50401   2.379  22.583   2.298
85241W        W50402  35.514  27.636  14.868
85242W        W50403  31.298  18.384   2.905
85243W        W50404  29.973  17.699   2.663
85244W        W50405  17.032  10.644  12.203
85245W        W50406   2.887  43.895   1.698
85246W        W50407  14.730  12.776   4.117
85247W        W50408  18.777  21.190  13.016
85248W        W50409  10.352  42.994   4.840
85249W        W50410   4.173  39.023   1.333
85250W        W50411  20.778  14.302  11.161
85251W        W50412  44.495  23.242  10.529
85252W        W50413   5.693  33.956   3.712
85253W        W50414  32.467  27.570   0.659
85254W        W50415   1.911  15.379  14.056
85255W        W50416  13.680   5.510   4.299
85256W        W50417  44.591  14.599   2.569
85257W        W50418   4.505  28.785   2.684
85258W        W50419  24.328  20.621   1.406
85259W        W50420  12.825  29.667  11.747
85260W        W50421  33.001  13.912   3.844
85261W        W50422  44.545  37.892   0.667
85262W        W50423   6.188  26.638   3.480
85263W        W50424  32.597  31.198   0.241
85264W        W50425   1.304  35.154  12.487
85265W        W50426   7.788  18.745   1.272
85266W        W50427  44.062  23.930   3.296
85267W        W50428  26.517   8.037   1.351
85268W        W50429  15.827  17.320   1.759
85269W        W50430   7.738  28.466   1.865
85270W        W50431   2.402  10.170  14.993
85271W        W50432   8.861  24.256   0.237
85272W        W50433  10.138  17.612  10.630
85273W        W50434  18.257   9.451  10.730
85274W        W50435  18.641  29.500   9.878
85275W        W50436  39.997   6.395  11.119
85276W        W50437  35.059  12.820   4.283
85277W        W50438  27.903   7.335  14.388
85278W        W50439  24.831  15.864  13.420
85279W        W50440  38.473   6.348   1.681
85280W        W50441  19.506  23.512  13.031
85281W        W50442  42.245  13.880   1.070
85282W        W50443  34.680  24.712  14.987
85283W        W50444  28.973  43.355  14.357
85284W        W50445  11.653  34.990  14.758
85285W        W50446  18.189   8.828  10.238
85286W        W50447  19.134   1.362   4.321
85287W        W50448   5.719  14.102   3.096
85288W        W50449   0.474  23.788  14.794
85289W        W50450  39.147  38.291  13.013
85290W        W50451  41.951  34.971  14.966
85291W        W50452   3.926  12.052  14.497
85292W        W50453  40.418  39.412   0.747
85293W        W50454   1.871  34.552  14.690
85294W        W50455  35.818  14.576  13.929
85295W        W50456  32.043   7.553   3.159
85296W        W50457  34.021   1.802   1.405
85297W        W50458  39.964   0.839   0.965
85298W        W50459  10.466  14.290   0.543
85299W        W50460  36.375  33.678  14.787
85300W        W50461   0.387  32.847   4.139
85301W        W50462  25.219  31.377  14.436
85302W        W50463  30.175  26.182   4.256
85303W        W50464  14.055   0.940   3.137
85304W        W50465  10.120  17.995  12.322
85305W        W50466  22.143  39.828  14.959
85306W        W50467  26.913  43.525  11.091
85307W        W50468  12.881   4.121  12.125
85308W        W50469  28.717  18.712   0.646
85309W        W50470   7.765  34.932  13.207
85310W        W50471  31.720   4.748   4.627
85311W        W50472   8.306  17.987  10.978
85312W        W50473  35.173  26.313  10.291
85313W        W50474  40.071  12.344  12.490
85314W        W50475  27.468   6.339  14.339
85315W        W50476  10.123  41.883   2.561
85316W        W50477  11.643   5.975  10.315
85317W        W50478  30.994  24.158   1.412
85318W        W50479  26.023  40.892   3.963
85319W        W50480   4.660  42.333  12.583
85320W        W50481  16.332  31.089   4.440
85321W        W50482  22.349  32.265  11.781
85322W        W50483  12.392  23.026   1.351
85323W        W50484  26.548  22.547  11.825
85324W        W50485  12.188  10.622   4.769
85325W        W50486   3.867  20.250  13.974
85326W        W50487  42.142   6.455   4.151
85327W        W50488  15.930   2.864  11.965
85328W        W50489  37.504   5.623  14.044
85329W        W50490  40.747  14.949  11.160
85330W        W50491  13.685  12.051  11.695
85331W        W50492  14.343  37.982  13.771
85332W        W50493  43.378  15.173  11.525
85333W        W50494   3.690  43.971   2.376
85334W        W50495  27.670  28.829   1.784
85335W        W50496  42.825  20.175  14.072
85336W        W50497   0.779  20.990  11.530
85337W        W50498  42.435   5.232  12.890
85338W        W50499  16.724  28.217  13.946
85339W        W50500  14.559  16.805   2.915
85340W        W50501   1.951  20.640   3.814
85341W        W50502  31.637  28.534   3.262
85342W        W50503  17.061  21.722  12.006
85343W        W50504  26.674  25.208   1.345
85344W        W50505  13.702   1.844   2.848
85345W        W50506  44.900  15.873  11.137
85346W        W50507  18.450  27.706  10.892
85347W        W50508  26.619  36.342   0.973
85348W        W50509  28.698  13.552  13.466
85349W        W50510  42.329   2.684   3.914
85350W        W50511  21.419   5.239  13.894
85351W        W50512  31.027  37.160  12.976
85352W        W50513   3.691  14.473   4.544
85353W        W50514   8.628  23.942  10.806
85354W        W50515   1.659  43.394  11.582
85355W        W50516  19.252  16.583  12.120
85356W        W50517  42.493  38.883   3.600
85357W        W50518  17.301  43.712  14.889
85358W        W50519  42.770   3.968  14.705
85359W        W50520  17.149  19.288  13.079
85360W        W50521   0.932  18.256  14.026
85361W        W50522  14.690  10.042  13.139
85362W        W50523  24.515  37.963  14.281
85363W        W50524  24.045  30.220  13.414
85364W        W50525  15.094  34.099   4.079
85365W        W50526  39.437  37.122   3.204
85366W        W50527  11.109  44.295   3.003
85367W        W50528  27.274  43.438   4.871
85368W        W50529   9.712  21.452   3.982
85369W        W50530   5.726  42.358   3.857
85370W        W50531  33.705  33.211  10.286
85371W        W50532  34.900  23.483  11.615
85372W        W50533  34.595  29.151  14.083
85373W        W50534  30.362   1.494   2.674
85374W        W50535   8.512  33.973  11.098
85375W        W50536   3.095  19.362   4.153
85376W        W50537   3.224  29.448   4.165
85377W        W50538  23.014  21.077  14.369
85378W        W50539   6.721  31.195  12.534
85379W        W50540  36.999   4.344  12.831
85380W        W50541  24.020  30.896   4.857
85381W        W50542  41.339  16.141   3.289
85382W        W50543  24.698  35.375   1.331
85383W        W50544  26.937  13.097  13.227
85384W        W50545   8.788  43.075   1.858
85385W        W50546  43.773   6.713  10.686
85386W        W50547  19.619  40.590   2.664
85387W        W50548  13.720  34.364   4.581
85388W        W50549  23.215   2.081  14.409
85389W        W50550  21.635  18.144   2.698
85390W        W50551   6.974  30.427  13.440
85391W        W50552  24.477   6.868  14.493
85392W        W50553  19.412  43.087   0.763
85393W        W50554  24.977   5.038   2.850
85394W        W50555   9.340  36.581   1.042
85395W        W50556   9.787  34.479   3.279
85396W        W50557  42.345  41.561   1.722
85397W        W50558   4.340  30.640   1.881
85398W        W50559   3.062   9.389   5.027
85399W        W50560  11.233  32.703   3.758
85400W        W50561  13.124  10.017  14.663
85401W        W50562  16.196  13.899   2.816
85402W        W50563  24.107   3.850   1.868
85403W        W50564  15.116  29.911   3.356
85404W        W50565  38.032  26.096  12.474
85405W        W50566  20.613  22.459  13.889
85406W        W50567   9.318   9.404   4.328
85407W        W50568  39.854  19.049   3.001
85408W        W50569  34.559  32.584  13.427
85409W        W50570  23.477  34.590  11.593
85410W        W50571  10.121  13.743   4.475
85411W        W50572  16.194   9.392   3.315
85412W        W50573  40.427  34.299  12.078
85413W        W50574  25.130  27.089   3.936
85414W        W50575  17.685  11.242  12.654
85415W        W50576  30.764  19.289   2.063
85416W        W50577   7.380  38.943   0.772
85417W        W50578  29.942  15.762  10.848
85418W        W50579  44.578  14.585  11.992
85419W        W50580  37.591  31.643   2.299
85420W        W50581  23.381  33.939   2.479
85421W        W50582  21.148   2.456  12.912
85422W        W50583  39.111  14.938  14.353
85423W        W50584  36.578  18.256  13.453
85424W        W50585  16.793   1.816  13.532
85425W        W50586   9.169   4.166   2.350
85426W        W50587   1.172  13.230   0.708
85427W        W50588   2.212  13.264   4.223
85428W        W50589  40.831  28.451  14.121
85429W        W50590  27.723  43.937   3.317
85430W        W50591   1.797   5.420  12.041
85431W        W50592  14.716   8.506   3.829
85432W        W50593   7.110  44.834   2.757
85433W        W50594  18.184   3.482  12.423
85434W        W50595   3.924   0.399   2.998
85435W        W50596  38.374   8.553  13.826
85436W        W50597   7.688  17.219  14.255
85437W        W50598  11.824   3.409   0.303
85438W        W50599  35.497  27.779   4.097
85439W        W50600  38.930   8.463   4.132
85440W        W50601   5.708  13.750  10.760
85441W        W50602   2.017   2.984  13.753
85442W        W50603   0.378   4.752  11.492
85443W        W50604   1.264  14.597   2.467
85444W        W50605   8.725  43.307  10.911
85445W        W50606  44.204  20.802   2.796
85446W        W50607   6.427  40.552  13.999
85447W        W50608  36.879  31.907   3.547
85448W        W50609  19.230  34.940   1.383
85449W        W50610  40.040   0.362  11.880
85450W        W50611  23.183  24.303  11.124
85451W        W50612  21.609  40.152   2.342
85452W        W50613   0.335  32.168   1.471
85453W        W50614  13.635   3.913   2.313
85454W        W50615  18.989   9.354  13.529
85455W        W50616  30.538  22.505   2.245
85456W        W50617  35.929  36.166   1.522
85457W        W50618  43.795   0.034  14.836
85458W        W50619  13.774  14.820   0.898
85459W        W50620  27.068  12.235  10.706
85460W        W50621  20.771  10.336   0.897
85461W        W50622  14.286  39.230   5.199
85462W        W50623  18.713   2.330   0.660
85463W        W50624  34.121  40.216   4.557
85464W        W50625  34.559  16.479   1.803
85465W        W50626  30.240   6.745   3.155
85466W        W50627   8.596  24.841  13.844
85467W        W50628  43.814  38.264   0.456
85468W        W50629  19.129  13.711  11.189
85469W        W50630   8.570  27.549  12.432
85470W        W50631   1.280  41.936  12.814
85471W        W50632  21.077  41.885  11.995
85472W        W50633  39.517  30.450  14.435
85473W        W50634  29.500   4.379  11.524
85474W        W50635  15.008  10.656   2.841
85475W        W50636   1.788  21.445  11.962
85476W        W50637   1.668  36.907   3.576
85477W        W50638  34.430   2.089   1.216
85478W        W50639  15.774  18.108   2.213
85479W        W50640  13.815   9.901   1.757
85480W        W50641  33.783  38.414  11.176
85481W        W50642   9.219   8.423   4.760
85482W        W50643  36.051  35.872   4.652
85483W        W50644   6.683  14.132   2.377
85484W        W50645  15.256  11.334  11.495
85485W        W50646  37.005  31.037  13.900
85486W        W50647  21.245  32.062  13.609
85487W        W50648  17.993  27.369   4.171
85488W        W50649  40.785   9.715  13.714
85489W        W50650   4.318  41.359  11.552
85490W        W50651  41.605  16.243   2.866
85491W        W50652  44.342  31.530   0.427
85492W        W50653  33.005  40.222  12.792
85493W        W50654   8.403  42.698  13.909
85494W        W50655  15.254  18.316   3.149
85495W        W50656  24.957  35.516  12.482
85496W        W50657  40.881  23.748   0.921
85497W        W50658  39.026   1.749  14.971
85498W        W50659  12.824  27.089   0.862
85499W        W50660  34.480   7.352  13.364
85500W        W50661  26.676   5.771  12.474
85501W        W50662  34.982  24.757   2.832
85502W        W50663  33.796  10.371   3.132
85503W        W50664   7.852  38.513  14.002
85504W        W50665   4.344  41.456   1.872
85505W        W50666   3.289  32.832  11.641
85506W        W50667  42.011  41.360   3.472
85507W        W50668  33.911  37.534   3.639
85508W        W50669  21.274  15.263   2.188
85509W        W50670   4.965   4.158   2.781
85510W        W50671   9.976  27.742   0.131
85511W        W50672  11.622  34.913   4.191
85512W        W50673  26.774  41.155  12.489
85513W        W50674   9.851  11.549  10.997
85514W        W50675   3.107  18.245  11.162
85515W        W50676  20.800  40.465   0.373
85516W        W50677  23.220   4.741  11.553
85517W        W50678  21.423  16.498   2.247
85518W        W50679  40.925   1.060   3.302
85519W        W50680  38.869  36.765   0.472
85520W        W50681  25.240   1.307   1.213
85521W        W50682  18.339  26.569  14.495
85522W        W50683   2.133  24.994   1.003
85523W        W50684  25.574   8.598  11.770
85524W        W50685  18.268   3.629  11.093
85525W        W50686  43.679   0.318  12.055
85526W        W50687  40.594  41.153  12.195
85527W        W50688   4.511  18.691  11.352
85528W        W50689  37.750  43.473  14.389
85529W        W50690  26.673  20.471  14.933
85530W        W50691  29.511  37.464  11.248
85531W        W50692  18.661  40.872  12.549
85532W        W50693  43.243  32.952   4.881
85533W        W50694  32.474   7.770  11.771
85534W        W50695  38.071   5.675  11.445
85535W        W50696  38.496  15.017  12.130
85536W        W50697  42.849  30.463  11.569
85537W        W50698  40.330  28.521   2.283
85538W        W50699  43.908  14.220   1.270
85539W        W50700  36.910  20.791  11.989
85540W        W50701   8.341   3.725   3.387
85541W        W50702  14.193  40.378   0.845
85542W        W50703  37.843  42.957  14.154
85543W        W50704  25.290  17.487  11.632
85544W        W50705  16.118   9.504   2.270
85545W        W50706  33.345  12.398   2.160
85546W        W50707  11.049  42.790  13.778
85547W        W50708  34.572  25.550  14.797
85548W        W50709  15.313   8.658  11.206
85549W        W50710  23.462  18.112   0.441
85550W        W50711   3.685   0.459   4.162
85551W        W50712  30.296   5.385   2.665
85552W        W50713  35.059  23.054  13.943
85553W        W50714  16.790  24.881   3.971
85554W        W50715  28.660   3.987  10.345
85555W        W50716   4.050  21.661  14.691
85556W        W50717  29.112  13.856  14.191
85557W        W50718  13.852   6.501   4.106
85558W        W50719  38.293  41.078   4.615
85559W        W50720  32.388  21.844   0.398
85560W        W50721   7.295  32.222  13.480
85561W        W50722  10.338  37.020  11.127
85562W        W50723  25.561   9.517  14.858
85563W        W50724   8.644  37.382  14.855
85564W        W50725  38.356   5.960   4.751
85565W        W50726  18.046  32.160  13.519
85566W        W50727  16.269  27.031  12.419
85567W        W50728  41.813  15.556  12.102
85568W        W50729  23.757  14.520   3.128
85569W        W50730   5.580   0.835  11.578
85570W        W50731  23.163   2.348  13.862
85571W        W50732  43.883  14.089  14.293
85572W        W50733  31.141  35.912  14.945
85573W        W50734   9.765  31.497   1.215
85574W        W50735  33.624  30.588  11.379
85575W        W50736   3.640  23.446   4.359
85576W        W50737  36.674  41.510  12.848
85577W        W50738  41.924  34.857  13.482
85578W        W50739   0.204   1.026   4.755
85579W        W50740  37.398  31.238   4.769
85580W        W50741   2.381  24.145   4.100
85581W        W50742   4.220  39.271  13.339
85582W        W50743  29.746  43.732  13.596
85583W        W50744  38.062  32.541  14.919
85584W        W50745  27.801  12.703   4.731
85585W        W50746  42.679  11.238  14.065
85586W        W50747   3.972  38.844   1.797
85587W        W50748  22.695  32.694  13.492
85588W        W50749  12.928  31.434  11.979
85589W        W50750  16.394  32.018   1.334
85590W        W50751  17.536  25.877   3.651
85591W        W50752   2.273   7.789   0.179
85592W        W50753   6.829  37.970   4.330
85593W        W50754  32.989   6.433  13.296
85594W        W50755   3.293   5.774  10.803
85595W        W50756  15.150   7.852   3.130
85596W        W50757  24.980  30.875   0.717
85597W        W50758  43.948   7.665   2.435
85598W        W50759  42.853  40.715  11.091
85599W        W50760  27.812   1.803   0.533
85600W        W50761  24.978  35.498  14.971
85601W        W50762  38.896  43.395  13.060
85602W        W50763  26.346  29.523  13.414
85603W        W50764  28.875  23.495  12.860
85604W        W50765  25.729  14.530   2.512
85605W        W50766   3.697   7.880  12.370
85606W        W50767   7.440  27.254   3.579
85607W        W50768  13.785  10.278   0.042
85608W        W50769   8.097  31.049  11.608
85609W        W50770  27.544  22.144  10.423
85610W        W50771  37.584  17.269  12.985
85611W        W50772   0.796   8.405  14.728
85612W        W50773   9.564   2.915  10.606
85613W        W50774  35.339  42.263   2.801
85614W        W50775   2.394  21.514  13.041
85615W        W50776  26.796  41.455  11.601
85616W        W50777  30.107  14.179  14.948
85617W        W50778  35.893   7.605   0.326
85618W        W50779  17.550  32.951  14.922
85619W        W50780  23.460  12.874  11.331
85620W        W50781  10.851  10.445   3.756
85621W        W50782   8.336  44.776   4.404
85622W        W50783  24.615  44.797  11.986
85623W        W50784  34.195  41.804   1.227
85624W        W50785   7.101  29.146   3.627
85625W        W50786  22.667  19.834  12.054
85626W        W50787  41.312  22.148   5.171
85627W        W50788   2.244  10.438   4.236
85628W        W50789  33.156   0.593  11.666
85629W        W50790  40.829  33.082  12.149
85630W        W50791  25.587  35.364   1.864
85631W        W50792  27.768   2.444  14.419
85632W        W50793  26.339  31.543  12.559
85633W        W50794  11.551  15.288  12.060
85634W        W50795  32.903  32.801  11.297
85635W        W50796   0.590  23.290  13.959
85636W        W50797  38.902  18.118   3.778
85637W        W50798  38.142   0.330   2.742
85638W        W50799  28.515   6.598  11.442
85639W        W50800  18.142  25.294  10.595
85640W        W50801  16.212  31.782   0.196
85641W        W50802   3.294  38.023   3.650
85642W        W50803  27.515  40.089   1.825
85643W        W50804  33.608  38.563  13.401
85644W        W50805  37.500  27.955   2.612
85645W        W50806  24.390  21.662  13.174
85646W        W50807  13.826  11.877   3.715
85647W        W50808  17.175  40.505   4.008
85648W        W50809  30.439  43.693   0.835
85649W        W50810   5.211   6.330   2.850
85650W        W50811   2.818  38.581   2.086
85651W        W50812   5.242  21.055  12.535
85652W        W50813   7.724  34.582  13.581
85653W        W50814  37.618  40.378   4.265
85654W        W50815  24.190  10.734   9.994
85655W        W50816  20.021  17.185  11.161
85656W        W50817   1.334  15.690  12.611
85657W        W50818  25.935  27.418  12.524
85658W        W50819  22.424  32.861  11.247
85659W        W50820  28.224  34.469   4.143
85660W        W50821  17.766  25.550   2.995
85661W        W50822  24.608  25.862  14.474
85662W        W50823  37.063  22.166   4.415
85663W        W50824  42.917  31.066  12.209
85664W        W50825  11.567  12.061  12.064
85665W        W50826   0.679  22.072  10.617
85666W        W50827  40.498  43.419   2.852
85667W        W50828   7.670  14.365  12.428
85668W        W50829   5.347  42.772  10.623
85669W        W50830   0.490  40.935  10.865
85670W        W50831  11.286  21.474   1.517
85671W        W50832  24.463   1.688   0.950
85672W        W50833  19.602  16.141   3.558
85673W        W50834  30.497  20.320   1.172
85674W        W50835   2.953  13.594  12.127
85675W        W50836   2.964  20.543   4.932
85676W        W50837  16.877  37.348   3.716
85677W        W50838  23.115  34.493  14.937
85678W        W50839   2.502  29.919   1.856
85679W        W50840  30.581  10.356  11.971
85680W        W50841  13.551  24.206   3.262
85681W        W50842  19.671  43.193  11.676
85682W        W50843  34.091  25.394   1.368
85683W        W50844  10.522   6.375  10.965
85684W        W50845   7.410  18.408   0.279
85685W        W50846  31.400  17.060   0.252
85686W        W50847  17.871   9.323  12.419
85687W        W50848  41.765   4.384  14.949
85688W        W50849   7.356  20.964   1.322
85689W        W50850   2.259  26.752   3.213
85690W        W50851  29.582  27.666   3.818
85691W        W50852   3.246  36.233   0.042
85692W        W50853  15.871   8.951  12.688
85693W        W50854  29.647  26.152   1.421
85694W        W50855  15.107  20.334   1.441
85695W        W50856  12.097  26.554  13.941
85696W        W50857  44.722  16.600  14.285
85697W        W50858  24.013  20.293   2.115
85698W        W50859  28.983   2.452   0.513
85699W        W50860   2.981  12.590  14.340
85700W        W50861  30.164  42.389   0.333
85701W        W50862  35.024  36.372  14.693
85702W        W50863  26.254   9.490  11.967
85703W        W50864   8.424  36.320   4.183
85704W        W50865  14.767  12.729  12.483
85705W        W50866  27.730  13.688   3.648
85706W        W50867  15.686  15.246   3.592
85707W        W50868  32.431  38.426  11.643
85708W        W50869  32.435  42.381   4.100
85709W        W50870  43.423   3.480   1.823
85710W        W50871  11.206   0.470  14.228
85711W        W50872  35.066   4.858  14.296
85712W        W50873  33.070  19.569  12.941
85713W        W50874   3.847  34.303   0.102
85714W        W50875  26.095   4.200   1.380
85715W        W50876  35.987  24.324   1.284
85716W        W50877  12.746  15.759  12.407
85717W        W50878  42.762  13.330   1.343
85718W        W50879  36.949  40.188   2.323
85719W        W50880  44.814  13.334  12.107
85720W        W50881  23.150  40.569   2.119
85721W        W50882   1.305  21.641  11.909
85722W        W50883  14.523  12.690  14.015
85723W        W50884   8.620  24.562   0.958
85724W        W50885  12.841  26.598   1.635
85725W        W50886  22.191  38.763  10.659
85726W        W50887   1.523  36.920   2.288
85727W        W50888   9.636  27.163  14.785
85728W        W50889  26.608  25.568  12.745
85729W        W50890  32.830  36.066  14.013
85730W        W50891  10.234  36.878  12.590
85731W        W50892  33.106  29.155  14.371
85732W        W50893   8.155  24.100   1.932
85733W        W50894  10.750  19.798  13.005
85734W        W50895  43.943  29.940   4.589
85735W        W50896  42.837  13.643  12.084
85736W        W50897  20.505   4.840   1.270
85737W        W50898  33.223  27.462  13.821
85738W        W50899  28.721  21.357  13.820
85739W        W50900   5.767  17.556   0.254
85740W        W50901   7.856  21.538   2.727
85741W        W50902  32.383  14.834   2.552
85742W        W50903  24.589  15.593  10.127
85743W        W50904  33.525  26.553  13.077
85744W        W50905  26.134  41.484   1.767
85745W        W50906  27.265  14.316  14.543
85746W        W50907  33.132   5.687  10.697
85747W        W50908  20.713  15.996   0.806
85748W        W50909  27.211   4.332   3.348
85749W        W50910  24.046   5.341   3.618
85750W        W50911  25.378   3.457  14.921
85751W        W50912  29.990   5.461   4.385
85752W        W50913   6.404  20.683   0.152
85753W        W50914  13.659  14.169  13.380
85754W        W50915   1.812   1.311  11.605
85755W        W50916  20.738  24.522   0.059
85756W        W50917  28.133   5.930   0.863
85757W        W50918  28.421  18.434   0.305
85758W        W50919   4.923   6.845   3.650
85759W        W50920  34.526  31.945   2.018
85760W        W50921   7.218  24.062  12.954
85761W        W50922  27.138  15.241  10.179
85762W        W50923  20.150  40.902  10.263
85763W        W50924   7.087  11.139   0.906
85764W        W50925  20.733  37.688   4.108
85765W        W50926   6.169  41.989  11.303
85766W        W50927  27.194  20.536  14.905
85767W        W50928  25.744  43.379   5.025
85768W        W50929   2.268   5.018  10.386
85769W        W50930  37.635  41.124   2.132
85770W        W50931  31.471  30.198  14.664
85771W        W50932   8.362  20.852  14.057
85772W        W50933  21.303   9.681   3.081
85773W        W50934  11.832  35.555   2.561
85774W        W50935  28.054  42.014   3.226
85775W        W50936  34.507  39.958  14.848
85776W        W50937   5.189  23.752   2.860
85777W        W50938  15.496  38.357  11.258
85778W        W50939   9.241  13.336   4.407
85779W        W50940  26.164  30.890  11.158
85780W        W50941  37.113  14.866  13.638
85781W        W50942  32.133  11.618  13.462
85782W        W50943  23.919  23.051   0.604
85783W        W50944  25.651  40.655  13.065
85784W        W50945  21.775   0.980  12.528
85785W        W50946  43.683  19.910   0.324
85786W        W50947  41.235  31.710  10.692
85787W        W50948  37.952  22.414  12.669
85788W        W50949   1.524  22.531   3.743
85789W        W50950  40.337  44.081  13.196
85790W        W50951  21.484  44.759  11.119
85791W        W50952   8.826  35.811   0.619
85792W        W50953  23.210  36.902  10.733
85793W        W50954  44.482  28.148   1.369
85794W        W50955  18.680  11.325  12.471
85795W        W50956  22.266  28.509  13.263
85796W        W50957  16.560  41.906   1.449
85797W        W50958  37.626  29.243   3.851
85798W        W50959  19.042  36.129   1.782
85799W        W50960  11.627  39.289   0.001
85800W        W50961  15.190  10.365   4.253
85801W        W50962   9.060  14.212  11.691
85802W        W50963  44.892  27.204  12.706
85803W        W50964  21.339  42.445  11.150
85804W        W50965  25.550   1.019  11.660
85805W        W50966  11.680  17.747  12.968
85806W        W50967  19.930  29.686   5.053
85807W        W50968  25.465   7.697  11.233
85808W        W50969  38.187  41.514   1.333
85809W        W50970  37.584   4.244   1.201
85810W        W50971  26.175  21.033  12.377
85811W        W50972   1.696  44.976   2.933
85812W        W50973  24.057   4.701   3.408
85813W        W50974  21.153   6.395   4.092
85814W        W50975  30.106  43.876  11.515
85815W        W50976  21.247   8.694  13.950
85816W        W50977  17.518   2.290  14.758
85817W        W50978  40.587  11.475   5.082
85818W        W50979  34.917   1.125   2.613
85819W        W50980  11.750  37.053   3.159
85820W        W50981  20.532  15.905   1.773
85821W        W50982  24.890  25.508  11.250
85822W        W50983  30.245  35.954  14.800
85823W        W50984  39.364  43.838   2.696
85824W        W50985  13.465  39.273   0.426
85825W        W50986   7.920  12.580   2.771
85826W        W50987  25.537  30.410  14.983
85827W        W50988  30.125  26.584  14.000
85828W        W50989  16.233  41.824  13.081
85829W        W50990  16.183  33.040  11.009
85830W        W50991  19.590  33.985  14.763
85831W        W50992   7.447  29.587   1.859
85832W        W50993  32.376  12.868   3.196
85833W        W50994   2.311  42.836  11.983
85834W        W50995  39.057   6.000   4.015
85835W        W50996  12.800  33.492   1.152
85836W        W50997  28.177  10.939   0.414
85837W        W50998   5.640  27.530  13.915
85838W        W50999  33.141   8.949   4.382
85839W        W51000   7.521  28.374   3.915
85840W        W51001   6.122  41.761   0.823
85841W        W51002  41.127  43.244   3.641
85842W        W51003   2.014  34.946  13.097
85843W        W51004  10.402  22.245  14.945
85844W        W51005  10.133   0.032   1.838
85845W        W51006  43.403  22.010   1.984
85846W        W51007  36.712   0.132   1.870
85847W        W51008   2.827   7.225  13.538
85848W        W51009  21.549   4.415   3.346
85849W        W51010  33.958  14.762  10.738
85850W        W51011   2.040   9.506  12.366
85851W        W51012   6.856  11.409   0.080
85852W        W51013  13.900  34.687  11.208
85853W        W51014  12.272  21.047  11.969
85854W        W51015  33.601   8.176   1.800
85855W        W51016   4.951   3.716   4.576
85856W        W51017  16.930  38.374   1.576
85857W        W51018  33.637  44.249  12.850
85858W        W51019  44.154  31.594  12.135
85859W        W51020  44.015  20.159   4.349
85860W        W51021  38.570  20.037  14.592
85861W        W51022  17.066  25.104   1.437
85862W        W51023  26.611  29.075  13.299
85863W        W51024   9.298  11.840   0.354
85864W        W51025  13.264  34.718  14.371
85865W        W51026  17.388  11.916   4.373
85866W        W51027  27.541   8.717   1.775
85867W        W51028   1.761  14.269   3.275
85868W        W51029  20.331   5.197  12.101
85869W        W51030  27.677   7.998   3.358
85870W        W51031  25.864  27.041  11.671
85871W        W51032  20.071   4.852  10.068
85872W        W51033  13.825   3.312  14.761
85873W        W51034  15.644  44.961  12.398
85874W        W51035  40.117  26.593   1.315
85875W        W51036  18.165   0.700   1.173
85876W        W51037   2.387  27.275  13.431
85877W        W51038  22.642   2.542  13.818
85878W        W51039  17.031  15.937  10.376
85879W        W51040  37.938  33.810   0.054
85880W        W51041  13.264  44.467  11.762
85881W        W51042  17.657  17.580   0.253
85882W        W51043   6.210  35.045  11.554
85883W        W51044  35.923  13.138   3.253
85884W        W51045  33.119  30.365   4.370
85885W        W51046  44.705   0.900  11.185
85886W        W51047  25.953   8.437  10.269
85887W        W51048  35.374  29.594   4.019
85888W        W51049   2.081  32.803   2.269
85889W        W51050  37.409  16.976   4.733
85890W        W51051  43.106  26.061   4.879
85891W        W51052   1.027  36.936  12.526
85892W        W51053  43.826  42.235   3.766
85893W        W51054  13.062  17.564  11.519
85894W        W51055  25.902   0.511  14.949
85895W        W51056  10.834  18.110   5.105
85896W        W51057  24.745  37.250   5.047
85897W        W51058  18.557  30.468   2.843
85898W        W51059  42.349  36.022   3.328
85899W        W51060  39.511  38.980   0.752
85900W        W51061  34.350   3.386   2.353
85901W        W51062  23.126  11.685  12.920
85902W        W51063  13.692  21.635  10.718
85903W        W51064  14.070  40.248  14.948
85904W        W51065   5.933  33.496   3.666
85905W        W51066  37.535   6.841  10.722
85906W        W51067  44.790  28.439   3.720
85907W        W51068  19.281  15.924   4.523
85908W        W51069  10.164  33.163   0.499
85909W        W51070  19.033  37.465   2.362
85910W        W51071  44.996  23.843   2.300
85911W        W51072   1.013  40.362   1.645
85912W        W51073   7.634  15.857   0.836
85913W        W51074   6.907  42.771  14.636
85914W        W51075  12.794   9.655  13.750
85915W        W51076  16.688  42.315  14.741
85916W        W51077  10.207   5.413   1.974
85917W        W51078  28.363  30.113   0.789
85918W        W51079  33.647  25.179  11.578
85919W        W51080  37.034   1.714  10.966
85920W        W51081  17.475  20.749  10.639
85921W        W51082   4.693  40.514   2.261
85922W        W51083  11.363  16.820  13.853
85923W        W51084  23.541   9.167  12.918
85924W        W51085  41.825  38.221   1.345
85925W        W51086   0.765   0.498  12.571
85926W        W51087  42.485  11.681  14.250
85927W        W51088  42.538  12.670  12.053
85928W        W51089  13.374  23.156  13.860
85929W        W51090  11.209  34.270   0.892
85930W        W51091  42.861   2.622  10.801
85931W        W51092  38.883   2.228   2.692
85932W        W51093   1.976  42.744  13.327
85933W        W51094   4.538  22.876   5.061
85934W        W51095  22.900  37.796  10.442
85935W        W51096  10.978  38.054   0.123
85936W        W51097  23.212  23.795  13.097
85937W        W51098   1.223   5.714  14.794
85938W        W51099  15.816  10.184  12.672
85939W        W51100  21.308  26.566   0.959
85940W        W51101  14.279  22.570   5.193
85941W        W51102  35.465  27.866   2.301
85942W        W51103  23.960  30.116  14.376
85943W        W51104  38.232   3.466   4.572
85944W        W51105  43.057   2.612  13.924
85945W        W51106   2.638  20.561  12.172
85946W        W51107   3.235  42.321   4.486
85947W        W51108  39.271  42.171  12.992
85948W        W51109  26.683  27.473   2.344
85949W        W51110  32.653  21.603   0.789
85950W        W51111  18.044  24.468   2.743
85951W        W51112  12.643  16.307   0.997
85952W        W51113  21.981  40.037   5.545
85953W        W51114  16.080  21.070   3.196
85954W        W51115  37.880  21.754  11.513
85955W        W51116  37.680   4.792  12.067
85956W        W51117  13.322  43.568  12.598
85957W        W51118  19.575  40.455  14.084
85958W        W51119   6.986  26.131  14.908
85959W        W51120  15.241  25.212   4.137
85960W        W51121  10.447   6.192   5.082
85961W        W51122  29.160  39.824   0.930
85962W        W51123  13.624   3.267  13.555
85963W        W51124  28.188  12.465   4.001
85964W        W51125  10.327  10.097   2.548
85965W        W51126  32.601  10.366  12.555
85966W        W51127  27.098   0.294   1.469
85967W        W51128  24.918   9.793   4.590
85968W        W51129  10.161  24.511   2.384
85969W        W51130  19.713   2.391   1.308
85970W        W51131  40.864  34.275   4.812
85971W        W51132  13.506  11.614   4.995
85972W        W51133  29.715  22.916   1.853
85973W        W51134  15.227   3.976  13.916
85974W        W51135  17.111  21.048   0.282
85975W        W51136   2.259   8.434  13.684
85976W        W51137  41.465   1.314  12.836
85977W        W51138  27.162  36.343   3.613
85978W        W51139   6.747  22.585   4.250
85979W        W51140  15.220  18.090   5.429
85980W        W51141  39.370  42.424   0.550
85981W        W51142  22.444  43.760   2.777
85982W        W51143  17.896   4.083   1.828
85983W        W51144   8.211  35.744   3.152
85984W        W51145   5.282  11.443  11.581
85985W        W51146  12.761  40.488   0.896
85986W        W51147  29.936   7.686   3.392
85987W        W51148   3.708   3.021   2.649
85988W        W51149   0.304  33.143   1.460
85989W        W51150  18.478  44.793   1.859
85990W        W51151   4.260  21.847  12.368
85991W        W51152  40.532   6.928  14.309
85992W        W51153   2.358   0.963  12.133
85993W        W51154  19.535  18.195   4.189
85994W        W51155  18.690  17.665   2.939
85995W        W51156  17.612   5.834  10.678
85996W        W51157  19.484  36.839  13.843
85997W        W51158  34.960   0.021  14.365
85998W        W51159  15.526   9.280   2.852
85999W        W51160  15.832   2.833   2.353
86000W        W51161  24.203   1.666  13.280
86001W        W51162  16.046  40.429   2.409
86002W        W51163  35.912  10.842   4.111
86003W        W51164  33.726  31.197   2.792
86004W        W51165  38.888  36.935   2.642
86005W        W51166  33.908  18.107  12.107
86006W        W51167  21.661  28.352  12.757
86007W        W51168  22.944  43.016   5.002
86008W        W51169   6.726  36.778   4.669
86009W        W51170  14.879  20.056   4.075
86010W        W51171  41.934  33.413   0.385
86011W        W51172  17.530   0.800   2.758
86012W        W51173  42.435  38.597  12.528
86013W        W51174  35.524  30.852   2.926
86014W        W51175  39.881  21.710  14.479
86015W        W51176  29.137   9.165   4.307
86016W        W51177  12.638  24.154  12.865
86017W        W51178  21.792  23.043   0.440
86018W        W51179  40.431  20.573  11.184
86019W        W51180  11.221   7.292  12.645
86020W        W51181  37.546  37.460   2.267
86021W        W51182  21.772  11.288  14.917
86022W        W51183  44.796   0.069   1.736
86023W        W51184   0.448  21.543   0.660
86024W        W51185   8.323  16.644  10.385
86025W        W51186  38.245  19.599   5.030
86026W        W51187   8.759  34.161  14.386
86027W        W51188  32.181  12.280   2.022
86028W        W51189  29.538  25.346  14.082
86029W        W51190   9.668  43.877   3.744
86030W        W51191   5.522  37.030  12.698
86031W        W51192  29.971  30.902   0.297
86032W        W51193   2.057  13.275  12.887
86033W        W51194  15.527  26.556   0.778
86034W        W51195   3.741  14.282  14.564
86035W        W51196  17.471  18.153  11.622
86036W        W51197  17.481  20.136  10.708
86037W        W51198   7.400  34.624   1.698
86038W        W51199  39.458  34.402   2.421
86039W        W51200  30.135  31.163   2.809
86040W        W51201   6.365  12.290   1.658
86041W        W51202  24.018   4.250  13.874
86042W        W51203  38.047  43.752   3.241
86043W        W51204  34.177  18.202   0.958
86044W        W51205  12.171  19.637  13.074
86045W        W51206  16.256  19.522  10.451
86046W        W51207  17.080  16.775   2.334
86047W        W51208  41.738   2.440   0.307
86048W        W51209  19.674  36.992   4.428
86049W        W51210  22.617  37.088   1.450
86050W        W51211  12.355  16.896  14.811
86051W        W51212  26.476  22.059   0.762
86052W        W51213   1.728  44.540  12.057
86053W        W51214  35.507  40.321  14.395
86054W        W51215  12.703  16.635  10.799
86055W        W51216  20.155  15.406   4.088
86056W        W51217  13.127   7.784  12.788
86057W        W51218  33.519  26.131  10.749
86058W        W51219  40.913  13.375   2.330
86059W        W51220  34.225  27.538  11.614
86060W        W51221  33.315  21.071  11.892
86061W        W51222  15.116  15.110  12.413
86062W        W51223  24.406  26.849   4.552
86063W        W51224  34.460  21.699   2.882
86064W        W51225  10.073  33.903   5.284
86065W        W51226  30.454  10.350   2.964
86066W        W51227  15.594  33.126   1.407
86067W        W51228  13.333  20.562  11.441
86068W        W51229  22.635  42.034   1.160
86069W        W51230   9.815  37.229  14.240
86070W        W51231  42.013  36.951  14.403
86071W        W51232  44.400  26.340  14.265
86072W        W51233  33.376  41.217   1.537
86073W        W51234  27.575  24.513   3.656
86074W        W51235  42.048  13.177   0.308
86075W        W51236  24.022   9.265  13.802
86076W        W51237   0.033  20.164  14.473
86077W        W51238  41.248  40.644  13.990
86078W        W51239  14.085  36.686  11.615
86079W        W51240  16.805  31.400  14.807
86080W        W51241  29.327   5.032  11.490
86081W        W51242  14.598  42.886   0.987
86082W        W51243  43.884  12.107  11.178
86083W        W51244  44.815  18.315   1.960
86084W        W51245  15.215   9.170  14.811
86085W        W51246  41.795   7.950   2.734
86086W        W51247  24.219  22.051  12.500
86087W        W51248   6.685  24.716  14.639
86088W        W51249  22.541   2.040  13.952
86089W        W51250  32.654  43.608   1.223
86090W        W51251  31.645  39.360   2.741
86091W        W51252   7.964  10.559  11.257
86092W        W51253  42.276  28.283   1.769
86093W        W51254   1.626  35.955  11.964
86094W        W51255  25.946  21.067  12.858
86095W        W51256  25.215  41.317  10.689
86096W        W51257  17.857  22.578  12.922
86097W        W51258  31.749   4.344  13.665
86098W        W51259  37.783  29.438  11.539
86099W        W51260  14.376  27.243  14.334
86100W        W51261  17.559   2.542   0.792
86101W        W51262  41.738  39.647   4.131
86102W        W51263  17.697  41.013  13.927
86103W        W51264   7.188  27.145   4.833
86104W        W51265   2.247   8.772   1.296
86105W        W51266  15.937  27.160   2.881
86106W        W51267  38.876   0.174  12.556
86107W        W51268  31.866  44.522  13.903
86108W        W51269  33.002   3.016  12.094
86109W        W51270   7.333  16.141  12.623
86110W        W51271  37.212  30.980  10.875
86111W        W51272  15.032  40.937  13.999
86112W        W51273  19.786  28.562   1.240
86113W        W51274  31.982  30.438   1.714
86114W        W51275   8.828  26.744  13.460
86115W        W51276   7.902  25.457  14.562
86116W        W51277  43.486  37.789   4.073
86117W        W51278  33.988  35.373  10.340
86118W        W51279   7.507   3.074  14.780
86119W        W51280  21.023  21.245   2.080
86120W        W51281  32.757  37.688  12.959
86121W        W51282   5.778  12.934  11.077
86122W        W51283   1.848  42.554  14.313
86123W        W51284  30.412  25.432  12.326
86124W        W51285  34.292  16.261   4.044
86125W        W51286  28.597  14.690   4.986
86126W        W51287  39.915  12.096  14.493
86127W        W51288  26.796  14.169   4.460
86128W        W51289  36.458  36.059  11.272
86129W        W51290  12.743  24.918  13.504
86130W        W51291   0.935  25.999  13.919
86131W        W51292   7.381  18.323  13.273
86132W        W51293   1.266  20.746   1.638
86133W        W51294  13.739  38.743  12.041
86134W        W51295  10.594  33.496   1.610
86135W        W51296  36.623  22.758  14.422
86136W        W51297  18.571  33.403   3.473
86137W        W51298  15.363  41.943  14.503
86138W        W51299  14.922  42.872  14.314
86139W        W51300  29.121   0.774   0.661
86140W        W51301  19.555  26.074  14.524
86141W        W51302  29.580  15.837   1.398
86142W        W51303   8.053  40.818   3.720
86143W        W51304  27.516  23.634  13.957
86144W        W51305  38.025  37.021   0.098
86145W        W51306  12.859  20.943  14.175
86146W        W51307  37.149   4.891  13.451
86147W        W51308  37.097   4.981   3.136
86148W        W51309  33.202  38.371  11.533
86149W        W51310  16.995   2.390   1.291
86150W        W51311  10.760  35.965   1.981
86151W        W51312  31.896   5.524   0.696
86152W        W51313   9.653  35.367   1.800
86153W        W51314  36.588  13.648   1.869
86154W        W51315  35.155  27.160  14.316
86155W        W51316  16.867  20.270  12.623
86156W        W51317   5.004  27.617   1.165
86157W        W51318  15.244   4.888   2.994
86158W        W51319  38.504  26.403  13.368
86159W        W51320  43.859  41.558  13.838
86160W        W51321   5.261  22.637  11.368
86161W        W51322  30.226  13.823   0.333
86162W        W51323  30.584  44.057  13.324
86163W        W51324  29.723   3.993   1.925
86164W        W51325  36.867  44.422   0.854
86165W        W51326  29.654  40.273   4.137
86166W        W51327  43.897  41.699  10.247
86167W        W51328  12.734  36.333   2.956
86168W        W51329   4.614  37.503  10.723
86169W        W51330  15.062  43.646   2.802
86170W        W51331  37.999  33.139   0.725
86171W        W51332  17.899   8.357   3.704
86172W        W51333  18.813  28.674  12.062
86173W        W51334  24.092  25.299   0.662
86174W        W51335  29.685  38.412  14.324
86175W        W51336   6.767  21.717  14.455
86176W        W51337  14.830  11.670  11.943
86177W        W51338   1.839  44.890   0.970
86178W        W51339  14.576  36.582   0.554
86179W        W51340  13.787  30.471   0.971
86180W        W51341   8.695  17.407  11.695
86181W        W51342  34.582  42.428   1.758
86182W        W51343  38.439  29.451  13.476
86183W        W51344  34.412   4.372   4.299
86184W        W51345  12.157   7.663  11.593
86185W        W51346   2.942   2.285   0.975
86186W        W51347  10.296   5.929   1.013
86187W        W51348  12.088   4.761  13.525
86188W        W51349  41.288  29.665   1.448
86189W        W51350  24.677   4.225   2.474
86190W        W51351  22.196  44.755   3.655
86191W        W51352   9.503  36.108   3.118
86192W        W51353  37.370  26.546  11.263
86193W        W51354  21.695  29.272  12.016
86194W        W51355  16.732   1.353  13.835
86195W        W51356  29.552   2.519  13.931
86196W        W51357   7.287  40.961   4.418
86197W        W51358  14.244  13.623  13.915
86198W        W51359  41.934  22.648  13.343
86199W        W51360  28.433  25.179  11.648
86200W        W51361   3.674  19.487   2.104
86201W        W51362   7.750  18.223   1.414
86202W        W51363  28.764  37.686   5.075
86203W        W51364  25.168   3.926   3.542
86204W        W51365  10.217   7.781   2.136
86205W        W51366  16.308  40.800  11.640
86206W        W51367  26.409  22.826   4.152
86207W        W51368  19.096  29.093  11.957
86208W        W51369  32.035  26.506  13.849
86209W        W51370  43.566  26.937  14.023
86210W        W51371   5.120  13.275  11.213
86211W        W51372  19.673   0.216  14.027
86212W        W51373  28.974   3.460  12.450
86213W        W51374  32.593  33.046   0.278
86214W        W51375   6.266  17.803   4.260
86215W        W51376  31.677   3.434   1.251
86216W        W51377  28.065  29.042   3.910
86217W        W51378  32.520  12.619  14.965
86218W        W51379  34.811  28.649  12.846
86219W        W51380  20.941  44.038  14.187
86220W        W51381  30.878  10.207   1.605
86221W        W51382  27.765  43.563   0.626
86222W        W51383  42.882  40.683   2.590
86223W        W51384  35.911  26.260  12.086
86224W        W51385  29.624   6.281  13.100
86225W        W51386  10.321  44.746  10.441
86226W        W51387  22.238  43.792   0.987
86227W        W51388  41.547   1.782   3.358
86228W        W51389  42.278  21.124  12.573
86229W        W51390  18.357   4.749   1.754
86230W        W51391  41.806   2.340  14.496
86231W        W51392  39.746  22.516  12.638
86232W        W51393  14.971  44.934   4.652
86233W        W51394  32.003  39.612  11.655
86234W        W51395  29.412  18.080  11.151
86235W        W51396   2.217  40.871   4.095
86236W        W51397   9.776  10.505  11.113
86237W        W51398  41.762   5.977   4.642
86238W        W51399  44.301  26.404  13.752
86239W        W51400  42.587   5.066   2.455
86240W        W51401  13.346  18.062  12.519
86241W        W51402  20.299  19.730   1.291
86242W        W51403   1.698  26.467   1.976
86243W        W51404  12.773  17.619  11.956
86244W        W51405  17.223  12.772   4.406
86245W        W51406  28.011  29.630   5.261
86246W        W51407   9.502  43.827  13.822
86247W        W51408   5.606  24.179   2.463
86248W        W51409  38.992  26.800  12.079
86249W        W51410   8.879  25.195  12.649
86250W        W51411  34.281  24.672   0.894
86251W        W51412  33.549  22.259  12.845
86252W        W51413  18.785   6.455  13.715
86253W        W51414  35.624   7.964  12.849
86254W        W51415  17.353  22.036   4.546
86255W        W51416   7.405  22.326   4.028
86256W        W51417  36.452   9.454  11.176
86257W        W51418  31.571  34.020   1.221
86258W        W51419  33.097  16.746  11.625
86259W        W51420  32.713  23.686   1.247
86260W        W51421  23.913  44.959  14.406
86261W        W51422  30.155  38.998  13.486
86262W        W51423  35.481   6.810   4.702
86263W        W51424  13.795  36.082   0.410
86264W        W51425   1.829  39.781   1.352
86265W        W51426   7.878  38.802   0.917
86266W        W51427  43.055  34.134  12.381
86267W        W51428  32.068  18.100   4.148
86268W        W51429   4.790   9.125  11.582
86269W        W51430  43.197  40.336   1.826
86270W        W51431   5.632  24.163   3.945
86271W        W51432  38.492  39.285  12.057
86272W        W51433  26.094  17.237  12.124
86273W        W51434  33.848  11.238   1.670
86274W        W51435  15.528  19.800  10.391
86275W        W51436  22.883   0.958   3.116
86276W        W51437  44.285  12.588   3.187
86277W        W51438  30.126  41.409  10.618
86278W        W51439   2.757  42.887   1.840
86279W        W51440   0.205  26.078  14.616
86280W        W51441  24.536  27.960  14.425
86281W        W51442  25.524  28.398   4.418
86282W        W51443  33.491   6.624   0.842
86283W        W51444  25.699  30.577  10.486
86284W        W51445  41.742  25.517  13.454
86285W        W51446  24.202  38.645  12.582
86286W        W51447  14.220  10.217   4.042
86287W        W51448  28.494  39.035  14.726
86288W        W51449  14.415  41.703  14.076
86289W        W51450  10.648  24.949   3.698
86290W        W51451  13.777  28.597  11.155
86291W        W51452   9.834  29.170   0.666
86292W        W51453  37.426  11.860   4.045
86293W        W51454  19.489  27.545  13.779
86294W        W51455   7.731  17.191  11.365
86295W        W51456  12.156  39.810  14.534
86296W        W51457  40.441  15.006  14.337
86297W        W51458   6.271  22.597   4.461
86298W        W51459  24.977  21.864   2.185
86299W        W51460   0.223  21.098  14.863
86300W        W51461  25.167  42.750  12.556
86301W        W51462  35.790   6.477  10.847
86302W        W51463  37.643  21.229  13.106
86303W        W51464   2.024  28.174  13.520
86304W        W51465   4.258  19.918   2.814
86305W        W51466  42.267   6.691  14.964
86306W        W51467  20.173  38.946   2.486
86307W        W51468  26.991   2.442   2.834
86308W        W51469  43.526  44.528   2.695
86309W        W51470  33.482  25.609   1.384
86310W        W51471   7.300   0.754   4.591
86311W        W51472  26.002  42.440  13.087
86312W        W51473   3.925  28.750   2.370
86313W        W51474  19.066  39.074  10.998
86314W        W51475  32.080  20.193   1.357
86315W        W51476  10.712  28.806   3.658
86316W        W51477   9.143  37.391  13.960
86317W        W51478  36.491  19.696   0.263
86318W        W51479  10.901  38.843  13.409
86319W        W51480  23.114  24.213   0.952
86320W        W51481  24.336  44.346  10.639
86321W        W51482  30.516  17.757  10.787
86322W        W51483  38.948  38.161   4.131
86323W        W51484  43.026  24.020   3.452
86324W        W51485  26.234  26.787   0.283
86325W        W51486  18.666  30.584   1.899
86326W        W51487  35.142   7.225  11.684
86327W        W51488   5.032  31.997  14.723
86328W        W51489  25.675  10.319   2.721
86329W        W51490  37.308  42.775  13.709
86330W        W51491  15.128   4.879  11.749
86331W        W51492  18.477  36.896   1.278
86332W        W51493  26.174  26.227   3.742
86333W        W51494   3.752  33.337  13.958
86334W        W51495  44.246  41.141  11.359
86335W        W51496   7.439  42.870  13.969
86336W        W51497  25.453  10.784   2.756
86337W        W51498  35.317  19.038  12.529
86338W        W51499  12.617  29.100  14.026
86339W        W51500  29.431  16.440   2.880
86340W        W51501  27.727  17.149   1.901
86341W        W51502  21.141  19.860   1.784
86342W        W51503  17.324   9.365   4.169
86343W        W51504  31.828  13.063  14.796
86344W        W51505  25.094   0.514   4.532
86345W        W51506  13.626  15.251  12.606
86346W        W51507  15.143  25.374  14.577
86347W        W51508  21.111  11.864  11.552
86348W        W51509  13.675  40.471   1.990
86349W        W51510  18.728  21.663   3.658
86350W        W51511  34.183  41.152  14.946
86351W        W51512   3.244  16.608   3.168
86352W        W51513  18.812   0.733   3.296
86353W        W51514  29.107  40.474  14.468
86354W        W51515  12.582  24.622  13.094
86355W        W51516  42.510  13.474   0.298
86356W        W51517  24.928  35.125   2.350
86357W        W51518  17.907  39.453  13.015
86358W        W51519  33.241  21.704   2.174
86359W        W51520   9.155  13.388   3.395
86360W        W51521  36.557  12.210  13.987
86361W        W51522  44.204  36.133  13.179
86362W        W51523  18.088  36.618  12.127
86363W        W51524  24.057   3.759  14.414
86364W        W51525  23.808  38.154   5.467
86365W        W51526  42.848  20.181  13.537
86366W        W51527  15.204   8.785   1.709
86367W        W51528  25.069  42.472   1.642
86368W        W51529  25.737  32.591  12.034
86369W        W51530   7.765   0.345   1.389
86370W        W51531   0.441  36.854   3.119
86371W        W51532  12.746  16.529   2.810
86372W        W51533  30.592  27.785  12.024
86373W        W51534  37.288  42.819  13.205
86374W        W51535  10.084   6.196   4.078
86375W        W51536  35.292  23.923   3.648
86376W        W51537  18.106  18.703  14.074
86377W        W51538   1.264  32.826  11.065
86378W        W51539   8.857   0.443   4.755
86379W        W51540  14.088  11.116  14.128
86380W        W51541  36.850   0.916  10.834
86381W        W51542  34.816   8.707   4.653
86382W        W51543  44.412   1.077  12.846
86383W        W51544  39.861  36.603  10.859
86384W        W51545  11.473  17.445  12.490
86385W        W51546  17.585  17.012   3.193
86386W        W51547  39.492   2.363  11.880
86387W        W51548  29.891  27.515  11.210
86388W        W51549  29.244  37.032   4.627
86389W        W51550  23.454  44.763   1.682
86390W        W51551  36.767  26.011  11.113
86391W        W51552  11.942  44.250  11.214
86392W        W51553  43.100  12.619  12.478
86393W        W51554  19.703  12.891   2.702
86394W        W51555  32.005   4.079   4.904
86395W        W51556   7.962  44.146  12.920
86396W        W51557  12.196  27.168  11.938
86397W        W51558   7.601  22.742  14.668
86398W        W51559  24.627   7.448  13.538
86399W        W51560   7.636  35.501  12.491
86400W        W51561  33.177  23.134  14.910
86401W        W51562  40.803   9.891   3.001
86402W        W51563  29.022  23.228  13.574
86403W        W51564  31.099  21.747  12.998
86404W        W51565  21.574  27.848  14.581
86405W        W51566   3.636  40.838   3.647
86406W        W51567  26.612   7.619  14.543
86407W        W51568  40.885  23.749  12.263
86408W        W51569  27.404  18.769  13.330
86409W        W51570  42.251  22.168  13.885
86410W        W51571  22.785  12.682   2.763
86411W        W51572  16.477  18.102  11.734
86412W        W51573  40.805   9.612   4.282
86413W        W51574  32.844   7.344   0.349
86414W        W51575  17.073  30.124  13.564
86415W        W51576   8.292  39.457  10.724
86416W        W51577  21.475  11.231   3.707
86417W        W51578  36.970  15.379   0.815
86418W        W51579  22.770  10.630   1.448
86419W        W51580  13.097  25.426   0.652
86420W        W51581  30.524  33.903  14.996
86421W        W51582  38.817  15.047  11.544
86422W        W51583  14.136  37.874  12.032
86423W        W51584  44.193  15.986  13.495
86424W        W51585  27.687  40.975   1.858
86425W        W51586   1.473  40.843   3.435
86426W        W51587  18.505   7.931  12.627
86427W        W51588  37.291  22.139   3.909
86428W        W51589  23.163  20.922   1.877
86429W        W51590  13.265  42.867   2.437
86430W        W51591  29.897  17.339  14.438
86431W        W51592  22.994  25.148   9.954
86432W        W51593  22.606  33.728   0.818
86433W        W51594  40.452  15.121   0.962
86434W        W51595  40.021  31.402  12.002
86435W        W51596   5.706  20.057  11.599
86436W        W51597  13.573  24.592  11.121
86437W        W51598  33.380  39.841   2.783
86438W        W51599   1.425  39.472   1.519
86439W        W51600  41.345   7.185   0.803
86440W        W51601  36.084  37.078   4.245
86441W        W51602  37.477  16.760   1.697
86442W        W51603  13.866  31.598   4.753
86443W        W51604  35.668  39.348  11.890
86444W        W51605   6.948   0.934  11.181
86445W        W51606  43.092  26.372   0.026
86446W        W51607  37.295   2.392  11.180
86447W        W51608  20.503  44.823   1.444
86448W        W51609  14.687  16.629  11.407
86449W        W51610  11.854   0.419   4.133
86450W        W51611  22.144  20.254   3.657
86451W        W51612  28.296  30.399   1.326
86452W        W51613   1.884  20.715  12.652
86453W        W51614  12.240  11.346   1.717
86454W        W51615  31.653   6.274  11.492
86455W        W51616  35.549   0.511  11.326
86456W        W51617  31.518   5.859   1.482
86457W        W51618  14.663  40.134  13.117
86458W        W51619  35.026  18.195   2.539
86459W        W51620   8.181  14.220   0.839
86460W        W51621  30.216  41.493   0.490
86461W        W51622  26.133  38.838  12.401
86462W        W51623   1.920  42.020   1.057
86463W        W51624  16.778  22.630  14.270
86464W        W51625  23.323   1.161   0.450
86465W        W51626  17.123  22.750   5.034
86466W        W51627   8.810  15.711  12.542
86467W        W51628  25.751   0.476   3.354
86468W        W51629  20.435  36.198  12.964
86469W        W51630  28.358  41.032   0.770
86470W        W51631  36.409  34.125   3.261
86471W        W51632  36.347  39.044   2.778
86472W        W51633  20.660  34.622   4.093
86473W        W51634  38.949  29.526   3.906
86474W        W51635  34.265  41.412   2.711
86475W        W51636   6.267  43.033  10.622
86476W        W51637  30.707  30.508   1.327
86477W        W51638  25.646  35.749   3.186
86478W        W51639  39.976  19.923  12.888
86479W        W51640  12.587  35.922  14.509
86480W        W51641  30.071  23.508  12.848
86481W        W51642  27.970  30.052   1.571
86482W        W51643   9.135  24.361  10.291
86483W        W51644  32.530  25.653  11.409
86484W        W51645  14.734  32.916  12.088
86485W        W51646   8.576  32.502   0.357
86486W        W51647  25.756  22.663  13.037
86487W        W51648   4.012  24.315   1.752
86488W        W51649  38.595  18.631  14.862
86489W        W51650  33.313  12.594  12.232
86490W        W51651   9.448   7.137   0.378
86491W        W51652   8.320   4.238   3.301
86492W        W51653  34.348   2.995   3.721
86493W        W51654   5.265  29.218  11.961
86494W        W51655  21.076  43.936   1.430
86495W        W51656  21.213  30.047   2.025
86496W        W51657   7.351  33.898   1.248
86497W        W51658  44.963  44.466   0.962
86498W        W51659  38.785   7.744  11.228
86499W        W51660  32.163  17.641  14.880
86500W        W51661  44.739  12.046   3.200
86501W        W51662   7.798  40.323   4.801
86502W        W51663  40.732   7.749  11.147
86503W        W51664  43.310  13.758   2.332
86504W        W51665  26.197  28.721   2.313
86505W        W51666   0.267  38.799   2.467
86506W        W51667  27.771  15.373   2.319
86507W        W51668  11.617  10.379  12.616
86508W        W51669  26.645  31.397  14.398
86509W        W51670  12.609   1.786  13.318
86510W        W51671  17.049  11.553  14.354
86511W        W51672  33.450  29.024   3.588
86512W        W51673  43.604  37.948   3.587
86513W        W51674   7.372  27.439  11.815
86514W        W51675  13.924  36.353  12.004
86515W        W51676  13.068  34.805  12.503
86516W        W51677   7.621  12.202  10.862
86517W        W51678  33.488  23.453  13.558
86518W        W51679  35.446  31.113  11.152
86519W        W51680  26.725  39.807   1.173
86520W        W51681  14.866   9.817   0.806
86521W        W51682   6.962  20.997  10.729
86522W        W51683  26.720   2.574   0.581
86523W        W51684  20.938  21.658   3.594
86524W        W51685  24.058   4.725   2.378
86525W        W51686   3.294  32.475   0.473
86526W        W51687  36.887   0.960   4.581
86527W        W51688   7.293   6.149   0.819
86528W        W51689  36.056   2.759  11.185
86529W        W51690   7.615  14.866  12.300
86530W        W51691   1.437   5.216  13.914
86531W        W51692   7.220  13.874  12.535
86532W        W51693   5.655  21.142   0.718
86533W        W51694  30.537  20.806  14.751
86534W        W51695  29.623  40.372   0.725
86535W        W51696  30.055  35.899  14.296
86536W        W51697  27.622  12.228  10.823
86537W        W51698  14.750  21.356  13.888
86538W        W51699   7.448  39.408   4.062
86539W        W51700   5.744  31.056   1.941
86540W        W51701  10.594  34.541  11.979
86541W        W51702  11.161  25.158   1.663
86542W        W51703  43.848  20.213  14.906
86543W        W51704  21.287  41.684   0.830
86544W        W51705  27.513  10.742   1.228
86545W        W51706  41.029   9.366   3.864
86546W        W51707   7.440   4.968  13.505
86547W        W51708  33.124  23.120  13.780
86548W        W51709  18.826  19.996   0.875
86549W        W51710  29.132  31.204   2.697
86550W        W51711  17.287  39.043  12.131
86551W        W51712  17.385  13.184   4.094
86552W        W51713  21.170  12.387  11.632
86553W        W51714  40.837   9.587  13.200
86554W        W51715  44.180  39.546  10.986
86555W        W51716  22.757   2.332   4.362
86556W        W51717  43.564  38.998   1.617
86557W        W51718  30.666  29.800  13.694
86558W        W51719  25.661   5.682  12.488
86559W        W51720  31.335  26.474   2.796
86560W        W51721  31.885   1.590   2.744
86561W        W51722  11.975  28.210  12.276
86562W        W51723  41.853  28.173   0.346
86563W        W51724  26.965  25.036   4.976
86564W        W51725  16.112  25.528   1.858
86565W        W51726  42.279  38.417   0.510
86566W        W51727  12.896  21.174  12.542
86567W        W51728  19.305   8.855  11.932
86568W        W51729  34.027   3.405   3.221
86569W        W51730  25.465  37.502   1.798
86570W        W51731  28.213  32.354   2.446
86571W        W51732  24.950  18.377  10.829
86572W        W51733   0.875  21.494   3.612
86573W        W51734  41.943  18.119   1.714
86574W        W51735   1.490  35.813   1.673
86575W        W51736   0.878  30.938   1.754
86576W        W51737  39.421  11.360  12.013
86577W        W51738   5.473   6.739   2.742
86578W        W51739  22.081  10.579  12.448
86579W        W51740  36.497  25.787   2.703
86580W        W51741  27.119  19.872  10.478
86581W        W51742  23.190  34.519   4.621
86582W        W51743   5.823   6.363  14.340
86583W        W51744  37.202  39.154  11.116
86584W        W51745  31.358  14.160   3.654
86585W        W51746  33.401  14.331   4.750
86586W        W51747   2.897  29.165  10.415
86587W        W51748  19.300  42.048  12.503
86588W        W51749  33.087  43.991   4.588
86589W        W51750  15.669   0.857   0.620
86590W        W51751  33.703   0.862   4.297
86591W        W51752  35.711  19.707   4.385
86592W        W51753  38.000  19.279  13.907
86593W        W51754  32.087  33.165   0.321
86594W        W51755  39.264  34.724   3.210
86595W        W51756   9.512   5.799  12.350
86596W        W51757  22.150  41.432   0.829
86597W        W51758   3.749  11.908  13.101
86598W        W51759  16.595   5.325   0.013
86599W        W51760  31.719  15.114   5.218
86600W        W51761  21.408  10.297   0.081
86601W        W51762  24.002  17.226  12.052
86602W        W51763  32.621  23.150   1.370
86603W        W51764  25.026   5.936   0.932
86604W        W51765   1.785   7.268   1.825
86605W        W51766  33.636  23.052  13.927
86606W        W51767  41.058   6.294   0.828
86607W        W51768  24.083  18.690   1.733
86608W        W51769  19.100  27.925  13.441
86609W        W51770  41.925  42.975  13.922
86610W        W51771  19.136  40.379   5.137
86611W        W51772  25.086   3.717  12.858
86612W        W51773  27.433   2.290  14.847
86613W        W51774  13.915  29.161  14.389
86614W        W51775  41.565  29.051  11.566
86615W        W51776   2.921  29.441   2.831
86616W        W51777  22.774  40.581  13.106
86617W        W51778  15.646  42.054   1.939
86618W        W51779  34.913  35.141  12.986
86619W        W51780  32.006  36.516   2.624
86620W        W51781   2.731  28.025  12.000
86621W        W51782  25.502   7.720   0.770
86622W        W51783  33.644  15.402   2.162
86623W        W51784  27.464  10.658  10.630
86624W        W51785  42.957  17.156  11.849
86625W        W51786  39.877  10.761  14.664
86626W        W51787   7.500  39.606   3.559
86627W        W51788   5.548   1.244  13.359
86628W        W51789  17.576  23.025  12.025
86629W        W51790  33.060   4.885   2.758
86630W        W51791  34.988  36.974   1.941
86631W        W51792  25.100  37.195   0.652
86632W        W51793   9.785  12.412  14.881
86633W        W51794  11.065  36.373  14.266
86634W        W51795  31.269   1.618   3.222
86635W        W51796   6.486  33.542  12.870
86636W        W51797  37.584  36.338   3.624
86637W        W51798  13.989  34.909   5.034
86638W        W51799  24.269  35.904   0.926
86639W        W51800   5.724  25.680   3.699
86640W        W51801   5.753  12.975   0.315
86641W        W51802  43.883  28.403  12.417
86642W        W51803   6.176  18.063   2.789
86643W        W51804  44.291  32.713  12.539
86644W        W51805  23.137  14.602  11.501
86645W        W51806  15.161  30.531   4.196
86646W        W51807  22.465   6.891   4.938
86647W        W51808   3.555  26.517  11.662
86648W        W51809  27.074   0.443  10.669
86649W        W51810  19.085   4.590   1.382
86650W        W51811  38.515   8.016   2.764
86651W        W51812  12.600  14.640   1.779
86652W        W51813  21.706   5.478  14.288
86653W        W51814  41.461  10.211   0.888
86654W        W51815   5.356  43.286  12.979
86655W        W51816  41.509  40.524  13.539
86656W        W51817  25.760  16.676  11.935
86657W        W51818  24.020  21.498  14.516
86658W        W51819  24.722  27.154   2.709
86659W        W51820   9.135   8.053   2.512
86660W        W51821  10.492  20.300  13.884
86661W        W51822   0.909  31.540   2.885
86662W        W51823  42.533  28.154  14.879
86663W        W51824  42.869  40.541   0.694
86664W        W51825  36.095   1.200   1.326
86665W        W51826  24.120  33.078  13.537
86666W        W51827  19.019  18.594   2.227
86667W        W51828  11.184  29.538  14.349
86668W        W51829  19.541   7.265  11.189
86669W        W51830  43.947  18.657   0.746
86670W        W51831  36.529  14.929  12.029
86671W        W51832  21.512  16.319  12.643
86672W        W51833  26.099  30.179   2.003
86673W        W51834  12.372  38.897   3.053
86674W        W51835  28.611  20.768  14.890
86675W        W51836  40.930  20.027   2.843
86676W        W51837  26.115  22.752  14.810
86677W        W51838  17.531   0.490   2.349
86678W        W51839  41.264  26.663  11.111
86679W        W51840  43.530  40.306   5.118
86680W        W51841  11.310  33.468   3.170
86681W        W51842  16.370  31.722   0.721
86682W        W51843  32.735   4.804   3.638
86683W        W51844  11.775  14.888  10.610
86684W        W51845   5.402  31.603  14.834
86685W        W51846  16.106   2.964   1.866
86686W        W51847  42.795  32.550   3.960
86687W        W51848  22.273  36.287  14.004
86688W        W51849  44.907  19.662   2.648
86689W        W51850  38.103  19.629   2.747
86690W        W51851  31.851   5.256  14.024
86691W        W51852  39.276  30.169   1.428
86692W        W51853  13.806  41.009   3.227
86693W        W51854  36.376  25.020  14.102
86694W        W51855  33.652  33.430   2.128
86695W        W51856   9.945  40.324  11.961
86696W        W51857   7.681  32.479  11.979
86697W        W51858   3.191  39.365   3.987
86698W        W51859  18.516  10.368   4.256
86699W        W51860  25.619  36.452   1.683
86700W        W51861  33.306   7.230   4.394
86701W        W51862  39.004  34.635   0.965
86702W        W51863  15.217   3.208   3.726
86703W        W51864   6.744  19.748   0.518
86704W        W51865   7.068  37.400   2.189
86705W        W51866  15.094   9.225   1.967
86706W        W51867  12.833   1.841  12.832
86707W        W51868  35.284  24.433   1.878
86708W        W51869   4.900  36.362  11.557
86709W        W51870  33.597  12.242  12.951
86710W        W51871   6.227  19.165   1.208
86711W        W51872  28.654  26.989   2.251
86712W        W51873  42.650  35.343  13.974
86713W        W51874  39.752  15.413  14.759
86714W        W51875  39.912  17.138  14.467
86715W        W51876  27.834  19.589   0.930
86716W        W51877  23.074  20.041  12.825
86717W        W51878  37.602   5.096  14.078
86718W        W51879  10.310  22.426   0.436
86719W        W51880   7.694  44.717   0.241
86720W        W51881  34.358  34.857  11.502
86721W        W51882  39.035  37.293  10.996
86722W        W51883  10.739   3.597   0.290
86723W        W51884  17.989   4.654   4.153
86724W        W51885  32.665  20.554  14.968
86725W        W51886  40.830  14.756   0.416
86726W        W51887  29.961  43.205   2.092
86727W        W51888  25.745  39.982  11.076
86728W        W51889  22.532  29.705   1.716
86729W        W51890   1.784   5.671  11.597
86730W        W51891  16.268  10.317   4.686
86731W        W51892  37.296  26.214   0.814
86732W        W51893  42.467  29.480  13.036
86733W        W51894  32.916  32.823   3.506
86734W        W51895  38.043  10.360   2.688
86735W        W51896  30.994  22.736   3.475
86736W        W51897  31.407   0.149  13.071
86737W        W51898  40.033  38.195  14.047
86738W        W51899  21.757  12.168   2.659
86739W        W51900  37.596  40.765  12.987
86740W        W51901  16.210  31.807   1.806
86741W        W51902   0.418  36.509  11.923
86742W        W51903  26.612  38.222   2.932
86743W        W51904  37.828  25.734   0.222
86744W        W51905   4.631   5.133   1.328
86745W        W51906  21.991   7.055  12.353
86746W        W51907  33.008  23.940  13.243
86747W        W51908  23.809  10.382  11.128
86748W        W51909  44.332  35.494   2.824
86749W        W51910  25.898  21.736   1.373
86750W        W51911  30.894  12.657  12.840
86751W        W51912  19.226  14.941  12.387
86752W        W51913   3.010  41.992  11.562
86753W        W51914  42.516  10.661   1.384
86754W        W51915  18.007  19.832  12.974
86755W        W51916  37.075  41.385   3.609
86756W        W51917  21.491  30.555  12.580
86757W        W51918   7.200  32.750  12.003
86758W        W51919  42.771  16.359  11.460
86759W        W51920  26.992  29.385   1.153
86760W        W51921   5.615  44.223  14.408
86761W        W51922  40.065   1.907   0.099
86762W        W51923  38.112   5.593  12.486
86763W        W51924  11.058  37.631  14.305
86764W        W51925  30.159  38.582  14.329
86765W        W51926  38.484  22.022   1.305
86766W        W51927  13.323  29.618  11.659
86767W        W51928  40.979  35.880  13.993
86768W        W51929   7.436  35.113  14.895
86769W        W51930  18.917  32.422   1.883
86770W        W51931  29.524  36.477  14.536
86771W        W51932  20.347  33.697   3.793
86772W        W51933   0.407  18.198  14.464
86773W        W51934  44.369  23.698  14.307
86774W        W51935  28.478  39.305   2.978
86775W        W51936  12.958  40.001  13.355
86776W        W51937   0.955  15.756  11.691
86777W        W51938  23.992  16.771   2.911
86778W        W51939  17.792  26.059   3.172
86779W        W51940  42.141   1.539  11.205
86780W        W51941  30.613  42.971  14.094
86781W        W51942  13.508  23.673  12.985
86782W        W51943  27.443   2.439   2.578
86783W        W51944  43.837  44.707   0.784
86784W        W51945  25.069  40.341   1.074
86785W        W51946  33.144  12.758   1.008
86786W        W51947  37.356  28.170  11.982
86787W        W51948  29.462  43.919   3.568
86788W        W51949  34.081  30.514  14.836
86789W        W51950   5.853  28.851  13.927
86790W        W51951  37.568  30.625   3.349
86791W        W51952  36.822  23.263   1.910
86792W        W51953  35.411  40.085   0.768
86793W        W51954   9.612  11.341   4.594
86794W        W51955  19.117  36.965  11.546
86795W        W51956  42.512  21.273  11.736
86796W        W51957  10.269   7.174  10.425
86797W        W51958  10.406  11.296  13.329
86798W        W51959  43.797   7.099   0.766
86799W        W51960  37.971  17.215   0.149
86800W        W51961  31.210  18.500  14.021
86801W        W51962   3.766  39.521   4.624
86802W        W51963  13.890  30.918  10.668
86803W        W51964  10.279  16.046   4.133
86804W        W51965  14.800   1.359   4.019
86805W        W51966  33.680  42.943  11.570
86806W        W51967  32.422  30.025  10.657
86807W        W51968  17.152  34.889   2.387
86808W        W51969  19.250  34.671  11.621
86809W        W51970  24.273  42.926  14.487
86810W        W51971   6.936  28.048  12.943
86811W        W51972  44.955  37.880  14.392
86812W        W51973  17.172  44.881  10.132
86813W        W51974  35.385  20.999  10.877
86814W        W51975  23.741  31.817  13.560
86815W        W51976  25.714  28.718   4.056
86816W        W51977  44.273  24.990   1.201
86817W        W51978  14.613  21.977  13.172
86818W        W51979  11.835  11.058  13.505
86819W        W51980  27.576  22.952   9.914
86820W        W51981   6.046   2.086   0.738
86821W        W51982  35.881  20.981  11.848
86822W        W51983  32.661  13.687  13.858
86823W        W51984   9.677  34.294  14.174
86824W        W51985  26.342  15.773  14.687
86825W        W51986   3.004  41.983  12.458
86826W        W51987   6.926  33.484  14.509
86827W        W51988  32.172   6.311   3.120
86828W        W51989  43.708   3.314   1.398
86829W        W51990  14.500   6.893   2.827
86830W        W51991   4.242  30.378  11.559
86831W        W51992   0.543  21.178  12.924
86832W        W51993   9.157  18.521  13.439
86833W        W51994   8.166  21.180   3.407
86834W        W51995  31.880  35.528   3.765
86835W        W51996   4.381  40.821   4.726
86836W        W51997  31.409   9.795  14.229
86837W        W51998  36.139  15.277   0.164
86838W        W51999  15.544  30.720  13.151
86839W        W52000  44.897  39.408   0.923
86840W        W52001  42.371   3.671   1.328
86841W        W52002   7.525  36.258   0.188
86842W        W52003  20.018  27.437   1.682
86843W        W52004  26.215  27.701   2.324
86844W        W52005  16.113  16.539  13.025
86845W        W52006  27.059  22.979   2.151
86846W        W52007  27.363  16.245   5.539
86847W        W52008   8.326  37.803   4.988
86848W        W52009   0.957  34.440  12.847
86849W        W52010  15.813  18.730  13.030
86850W        W52011   6.336  37.498  11.592
86851W        W52012  21.687  14.997   0.406
86852W        W52013  40.385  33.031  12.507
86853W        W52014  16.171  17.729   4.642
86854W        W52015   0.843  31.217  12.488
86855W        W52016  25.675   6.143  14.051
86856W        W52017  20.372  38.978   4.198
86857W        W52018  12.051  24.643   3.692
86858W        W52019  34.157  27.191   1.791
86859W        W52020  44.858  30.077  12.018
86860W        W52021  43.447   9.079  11.197
86861W        W52022  29.710  28.015   1.998
86862W        W52023  42.930  15.623   0.812
86863W        W52024   2.892  25.599   5.054
86864W        W52025  29.620  14.066   4.267
86865W        W52026  13.939  29.206   1.841
86866W        W52027  13.840  36.977  12.462
86867W        W52028   5.231  43.485   4.703
86868W        W52029  35.120  25.489   3.301
86869W        W52030  30.185  22.125   2.345
86870W        W52031  31.658  43.847  12.579
86871W        W52032  10.101  37.357   2.316
86872W        W52033  14.916  15.375  13.271
86873W        W52034  15.759  17.605   1.336
86874W        W52035  17.192   7.152  13.387
86875W        W52036  28.643  10.905  12.600
86876W        W52037  22.696   7.370   4.159
86877W        W52038  42.845  34.517   2.955
86878W        W52039   1.314   7.648  11.613
86879W        W52040  42.315   7.443  14.419
86880W        W52041  26.442  37.079  12.116
86881W        W52042  15.549  28.170  12.942
86882W        W52043  20.500  15.374   1.730
86883W        W52044  27.581  25.572   2.093
86884W        W52045  37.655  17.066  12.078
86885W        W52046  18.794  38.414  13.089
86886W        W52047   4.801  32.466   9.841
86887W        W52048   5.248  16.537   4.869
86888W        W52049  38.231  22.692   2.796
86889W        W52050  13.269  19.076   3.235
86890W        W52051  38.511   0.845   0.784
86891W        W52052  38.544  16.340   0.440
86892W        W52053  29.905  12.114  12.489
86893W        W52054  42.340  24.940   0.407
86894W        W52055   2.523  33.894   0.791
86895W        W52056  19.493  24.814  14.835
86896W        W52057  18.261  17.812   3.184
86897W        W52058  10.438  10.216  10.055
86898W        W52059   9.417  31.941   4.059
86899W        W52060  43.749   9.161  13.675
86900W        W52061  30.667   1.316  13.521
86901W        W52062   9.663  30.652  12.134
86902W        W52063  17.243   9.779   3.438
86903W        W52064   7.724  29.430  11.062
86904W        W52065   9.490  28.037   4.160
86905W        W52066  31.096  18.101  13.679
86906W        W52067  40.982   3.179  12.098
86907W        W52068  32.482   1.725  14.508
86908W        W52069  24.459  30.128  13.716
86909W        W52070  34.999  22.825  12.562
86910W        W52071   1.739   1.926  13.461
86911W        W52072  14.154  17.861  14.078
86912W        W52073  19.385   8.760  11.061
86913W        W52074   4.304  35.107   0.509
86914W        W52075  22.861  13.762   1.921
86915W        W52076  12.205  11.293  13.805
86916W        W52077  28.753   5.487  11.975
86917W        W52078   0.410   0.407   0.276
86918W        W52079  35.818   1.427  14.543
86919W        W52080  42.844  10.801  14.302
86920W        W52081  43.410   6.143   3.290
86921W        W52082  35.923  37.174   1.726
86922W        W52083   8.235  44.537   3.298
86923W        W52084  38.545   9.810   3.711
86924W        W52085   2.255  43.771   4.657
86925W        W52086  18.563   6.346   3.201
86926W        W52087  42.854  42.042   2.482
86927W        W52088  39.204  18.944   4.284
86928W        W52089  26.747  37.379   3.311
86929W        W52090  35.004   6.109  12.072
86930W        W52091  43.080  25.210  13.634
86931W        W52092  13.378  34.416  12.323
86932W        W52093  13.813  26.886  13.439
86933W        W52094  29.232   8.661   3.610
86934W        W52095  26.117   8.838  13.120
86935W        W52096  33.795  31.842   5.322
86936W        W52097  32.768  29.624  14.286
86937W        W52098  36.146  43.608   2.704
86938W        W52099   1.396  33.027   4.082
86939W        W52100   9.220   3.256   2.695
86940W        W52101  21.937  26.876  11.073
86941W        W52102  17.162  43.670   1.017
86942W        W52103   9.659  27.087  11.596
86943W        W52104  12.067  40.540  13.826
86944W        W52105  22.190  35.647  10.966
86945W        W52106  27.456  39.948   2.332
86946W        W52107  40.948  36.508   1.281
86947W        W52108  19.782  40.744   4.413
86948W        W52109  41.454  15.380  11.244
86949W        W52110   8.113   0.829  13.369
86950W        W52111  42.932  14.157  14.762
86951W        W52112   0.006  27.970   1.355
86952W        W52113  10.631  11.877  14.302
86953W        W52114  27.931  28.343  13.990
86954W        W52115  12.912  28.427  12.465
86955W        W52116  13.795  23.497  11.500
86956W        W52117  12.942  42.005   5.258
86957W        W52118  30.343  30.249  13.617
86958W        W52119  30.187  36.085  13.311
86959W        W52120   0.464  39.769   4.922
86960W        W52121  33.938  40.343   3.175
86961W        W52122  37.488  23.971  11.170
86962W        W52123   5.411  21.545   3.856
86963W        W52124  39.866   9.297   1.000
86964W        W52125  44.405  27.650  14.049
86965W        W52126   9.173  43.709   3.724
86966W        W52127  10.888  38.287  11.601
86967W        W52128  23.113  37.961   9.988
86968W        W52129  11.710   6.701   3.767
86969W        W52130  20.577  42.333   1.192
86970W        W52131  18.296  38.500  14.008
86971W        W52132  26.437  21.899  14.794
86972W        W52133  25.793   3.291  14.033
86973W        W52134  20.520  27.980  14.434
86974W        W52135   5.965  34.677  12.124
86975W        W52136  13.009  14.748  12.873
86976W        W52137  33.762  43.398   4.805
86977W        W52138  32.971  25.123   1.966
86978W        W52139  18.245  42.482   1.674
86979W        W52140  18.557  27.535  14.833
86980W        W52141  43.897  16.674   0.191
86981W        W52142  34.525  14.585   4.155
86982W        W52143  39.648  33.520  11.424
86983W        W52144   2.789  32.848  13.919
86984W        W52145  27.973  22.403  12.581
86985W        W52146   8.862   8.882  13.739
86986W        W52147  43.167   3.081  14.092
86987W        W52148   9.197  28.125  14.663
86988W        W52149  33.023  36.012   0.424
86989W        W52150  21.578  14.339   3.753
86990W        W52151  40.395  23.331   2.697
86991W        W52152  26.754   5.459  14.871
86992W        W52153  15.800  32.653   1.998
86993W        W52154  26.601  24.573  13.084
86994W        W52155  10.680  40.868   2.314
86995W        W52156  39.132  28.334   5.012
86996W        W52157  13.757  23.493   1.012
86997W        W52158  14.915  15.885  13.377
86998W        W52159  28.882   6.827   2.897
86999W        W52160  29.771   8.037   0.460
87000W        W52161   8.662  18.663  13.518
87001W        W52162  38.477  37.647   3.106
87002W        W52163  14.915  42.082  12.375
87003W        W52164  16.502  35.903  11.563
87004W        W52165  22.639   3.417  14.224
87005W        W52166  14.437  26.405   4.117
87006W        W52167  27.667   2.931   1.276
87007W        W52168  19.882  44.494  12.932
87008W        W52169  18.122  44.281   4.271
87009W        W52170  17.315   8.848   4.198
87010W        W52171  15.126  12.692   3.803
87011W        W52172  32.466   7.231   1.233
87012W        W52173   8.839   0.045   0.934
87013W        W52174  42.051  20.958   3.275
87014W        W52175  24.716  42.982   4.152
87015W        W52176  44.040  42.359  12.491
87016W        W52177  39.625  25.670  12.997
87017W        W52178   6.682  14.102   0.461
87018W        W52179  23.105  18.551   0.226
87019W        W52180  22.946  10.849  10.581
87020W        W52181  18.608  22.974  13.312
87021W        W52182  13.077  44.579   3.754
87022W        W52183   3.544  16.020  11.332
87023W        W52184  13.217  23.263   1.800
87024W        W52185  25.576  10.077   5.200
87025W        W52186   1.198  30.501   5.091
87026W        W52187   4.254   8.828   1.929
87027W        W52188   4.416  35.185   2.898
87028W        W52189  28.895  32.795  14.345
87029W        W52190   6.724  38.237   2.806
87030W        W52191   6.929  13.871  12.106
87031W        W52192   5.551  16.232  12.063
87032W        W52193  33.802  41.379   1.310
87033W        W52194   7.326  18.037  12.847
87034W        W52195  36.979   3.431   4.121
87035W        W52196   4.180  32.786   2.702
87036W        W52197  24.439  42.537   0.765
87037W        W52198  36.994  17.741  13.812
87038W        W52199  25.197  40.551  14.093
87039W        W52200  13.745   1.789  13.958
87040W        W52201  36.615  37.539   4.846
87041W        W52202   9.448   8.297   1.225
87042W        W52203  32.160   3.077   3.457
87043W        W52204  43.779  30.332   3.700
87044W        W52205  23.466  33.355  11.990
87045W        W52206  16.897  21.812  12.476
87046W        W52207  25.255   5.400   2.146
87047W        W52208  12.849  21.863  14.486
87048W        W52209  13.199  32.626  10.564
87049W        W52210  36.174  27.611   4.739
87050W        W52211  39.468  22.988  12.609
87051W        W52212   8.439  37.921  13.974
87052W        W52213  17.703  29.050   0.854
87053W        W52214  19.258   9.815   4.672
87054W        W52215  35.254  38.373  11.240
87055W        W52216  43.561   8.330  12.097
87056W        W52217   7.861  22.862   5.009
87057W        W52218  31.908  18.921   0.263
87058W        W52219  30.931  38.951   1.724
87059W        W52220  19.212  19.925   1.216
87060W        W52221  17.265  13.877   2.025
87061W        W52222  38.406  18.632  14.369
87062W        W52223   5.875  21.836  13.901
87063W        W52224  25.144  35.798  11.471
87064W        W52225  30.382  27.344  11.132
87065W        W52226  27.368  15.167  13.935
87066W        W52227  14.954  18.006   0.241
87067W        W52228  12.693   4.627   3.148
87068W        W52229  18.941   3.955  12.901
87069W        W52230   5.268  35.691  10.896
87070W        W52231  44.642  32.794   3.161
87071W        W52232  26.914  16.386   0.885
87072W        W52233  35.095  16.642  10.477
87073W        W52234  18.553  43.831   4.657
87074W        W52235   4.147  21.475   2.938
87075W        W52236  32.854  13.917   1.021
87076W        W52237  21.882  39.570  10.084
87077W        W52238  20.678   9.346  11.094
87078W        W52239   3.291  32.030   4.368
87079W        W52240  13.817  20.961  12.117
87080W        W52241  30.443  37.461   0.321
87081W        W52242  30.536  25.516  14.865
87082W        W52243  31.386   6.079   3.287
87083W        W52244  27.618  14.906  12.509
87084W        W52245  21.957  13.726  14.084
87085W        W52246   1.324  19.761   1.354
87086W        W52247  34.083  25.105   2.901
87087W        W52248  26.406   8.163   4.174
87088W        W52249   9.611  11.995   4.052
87089W        W52250   5.613  14.212   4.630
87090W        W52251  37.451  30.766   3.903
87091W        W52252  28.051  30.883   0.396
87092W        W52253  25.123   1.236  13.497
87093W        W52254   6.292  11.285   1.762
87094W        W52255  28.713  10.895   0.591
87095W        W52256  19.803  38.187  14.900
87096W        W52257  17.083   6.119  11.107
87097W        W52258  43.451  25.120   4.325
87098W        W52259   1.850  33.821  11.622
87099W        W52260  33.403   4.299  10.580
87100W        W52261   1.315  37.887  11.648
87101W        W52262   2.972   6.545  10.555
87102W        W52263   7.392  41.416   3.179
87103W        W52264  35.539   9.366   3.153
87104W        W52265  36.947  44.238  11.893
87105W        W52266  20.122  14.792  10.853
87106W        W52267  20.720  29.707   0.341
87107W        W52268  37.277  36.076   0.920
87108W        W52269  14.961  44.267   1.583
87109W        W52270  34.875   0.427  14.058
87110W        W52271   1.244  22.484  14.580
87111W        W52272   0.424  33.162   3.199
87112W        W52273  28.405  16.268   2.736
87113W        W52274  42.396  44.504  13.591
87114W        W52275  14.771  28.022  11.386
87115W        W52276  23.009   0.216   2.819
87116W        W52277  12.508  43.448   1.738
87117W        W52278  10.153   3.521   3.001
87118W        W52279  33.620   2.428   1.832
87119W        W52280  39.844  25.495   4.592
87120W        W52281  34.441   7.659   2.959
87121W        W52282   0.013  31.157  11.196
87122W        W52283  26.030   6.122  14.464
87123W        W52284  12.338  18.374  14.829
87124W        W52285  33.554   4.254   1.657
87125W        W52286  25.987  25.573   1.584
87126W        W52287  42.984   8.863  11.139
87127W        W52288  18.616  16.627   2.054
87128W        W52289  17.971  15.790   3.439
87129W        W52290  24.203   3.236   1.675
87130W        W52291  34.730  19.807   1.504
87131W        W52292  39.875   3.677  10.590
87132W        W52293  24.096  40.289   0.004
87133W        W52294  42.109  25.053   1.680
87134W        W52295  32.793  21.332   2.649
87135W        W52296   7.285   9.326   4.526
87136W        W52297  19.142  43.849  10.698
87137W        W52298   2.794  15.574   5.284
87138W        W52299  42.322  26.733   0.870
87139W        W52300  39.320  39.641  13.356
87140W        W52301  36.839  42.408   0.970
87141W        W52302  35.551   5.839  11.954
87142W        W52303  29.468  12.336  10.136
87143W        W52304  22.462  40.406  12.451
87144W        W52305  41.342  33.206  13.848
87145W        W52306   8.832   9.402  13.507
87146W        W52307  41.510  44.388   0.803
87147W        W52308   1.295  12.718  13.013
87148W        W52309  36.801  38.547  10.203
87149W        W52310  39.478  39.397  12.920
87150W        W52311  42.345  21.821   4.409
87151W        W52312   6.094  14.891   1.098
87152W        W52313  20.073   0.873   2.820
87153W        W52314   8.687  31.909   4.492
87154W        W52315   5.948  39.891  11.892
87155W        W52316  39.865  40.880  12.906
87156W        W52317  24.753   7.612  13.041
87157W        W52318   5.337  28.439   3.136
87158W        W52319  43.998  28.652   0.273
87159W        W52320  44.830  17.048   1.876
87160W        W52321  14.161   4.757   4.270
87161W        W52322  38.217  41.937  10.859
87162W        W52323  29.499  24.826  13.995
87163W        W52324  23.971  12.875  14.324
87164W        W52325  30.224  44.324   4.010
87165W        W52326  16.844  31.226  10.535
87166W        W52327   1.782  39.801  12.539
87167W        W52328  32.157   3.969   3.421
87168W        W52329  18.078  38.781   3.165
87169W        W52330   2.171   5.503  14.693
87170W        W52331  24.166  37.392   1.103
87171W        W52332   1.152   0.815  10.000
87172W        W52333  44.453  41.329   0.608
87173W        W52334   1.486  26.667  12.069
87174W        W52335  33.797  30.609  10.904
87175W        W52336  10.915  39.628  10.699
87176W        W52337  32.447  15.712  12.482
87177W        W52338  31.842  16.637   1.882
87178W        W52339  22.680   3.792  11.544
87179W        W52340  39.272   7.231  14.079
87180W        W52341  19.386  38.958  12.918
87181W        W52342  24.474  37.029   1.394
87182W        W52343  37.997  12.142   2.134
87183W        W52344  23.179  21.661   2.371
87184W        W52345   2.700  25.088   2.741
87185W        W52346   0.418  12.304   0.937
87186W        W52347  27.157  13.788  12.735
87187W        W52348   5.644  33.880   2.829
87188W        W52349  10.661   3.494  12.894
87189W        W52350  36.427  37.746  11.969
87190W        W52351  20.341   0.797   4.658
87191W        W52352  16.591   5.767  14.228
87192W        W52353   6.955   9.951   1.518
87193W        W52354  19.913  39.422  11.008
87194W        W52355  29.147  33.159  12.203
87195W        W52356  28.611  44.202  11.623
87196W        W52357  23.672  32.432   0.726
87197W        W52358  37.267  28.830  13.357
87198W        W52359  21.114  44.810   4.522
87199W        W52360  18.030  12.381  12.451
87200W        W52361  13.783  11.280   1.989
87201W        W52362   2.026  36.425   2.722
87202W        W52363  25.169  36.050  14.044
87203W        W52364  16.830   3.963   3.719
87204W        W52365  38.277  44.389   3.824
87205W        W52366   3.386   1.390  11.397
87206W        W52367   0.574  34.553  13.174
87207W        W52368  17.331  36.197  10.348
87208W        W52369  10.776   9.991   0.890
87209W        W52370  14.878  29.475   3.876
87210W        W52371   0.077  19.705  14.759
87211W        W52372  36.140  13.883   1.932
87212W        W52373   2.234  34.958  11.737
87213W        W52374   6.299   4.164   4.674
87214W        W52375  15.840  26.688   2.662
87215W        W52376   3.263  22.484   3.217
87216W        W52377  30.165  33.065   4.672
87217W        W52378  24.150  21.017  11.656
87218W        W52379  44.632  32.326   1.409
87219W        W52380  36.004   3.197   4.541
87220W        W52381  11.867  43.768   3.924
87221W        W52382  43.125  14.164  10.384
87222W        W52383  23.069  42.086  11.066
87223W        W52384   3.432  26.221  14.897
87224W        W52385  32.842  20.830  14.547
87225W        W52386   0.323  24.737  14.000
87226W        W52387  24.517  10.889   1.828
87227W        W52388  26.637  24.152   4.933
87228W        W52389  24.926   1.925   1.685
87229W        W52390  20.265  14.786  13.258
87230W        W52391  24.022  15.373   1.852
87231W        W52392  11.845  17.335   4.984
87232W        W52393  43.245  41.769  11.473
87233W        W52394  44.274  20.568   0.479
87234W        W52395   3.922  34.140  14.310
87235W        W52396   4.723  28.133   3.285
87236W        W52397  37.194  39.345   2.718
87237W        W52398  38.649  15.181  10.708
87238W        W52399  13.488  34.860  13.927
87239W        W52400   6.309   2.582  11.691
87240W        W52401  30.708  38.909   4.543
87241W        W52402  37.888   0.679   3.692
87242W        W52403  38.771   9.221   4.515
87243W        W52404  27.682  24.680   2.325
87244W        W52405  29.272   2.668  14.805
87245W        W52406  12.947  34.083   0.912
87246W        W52407  12.317   8.404   1.351
87247W        W52408  33.118  26.017   1.272
87248W        W52409  21.229   7.416   0.796
87249W        W52410  29.541  40.093  14.772
87250W        W52411   0.044  35.007  10.635
87251W        W52412  21.374  27.805   4.051
87252W        W52413  29.708  33.906  14.323
87253W        W52414  40.408  20.153  10.776
87254W        W52415  27.249  10.105  13.554
87255W        W52416  26.554  16.760  12.900
87256W        W52417  44.088  28.651   4.108
87257W        W52418  33.351  12.323   0.377
87258W        W52419  33.933   5.825  11.094
87259W        W52420  32.013  12.822  11.509
87260W        W52421   4.440  14.954   3.237
87261W        W52422   3.033  29.142   3.275
87262W        W52423   1.013  24.711  10.898
87263W        W52424  44.875  17.035  14.504
87264W        W52425  18.002  30.751   1.382
87265W        W52426  36.112  30.600   0.588
87266W        W52427  21.836  36.882  12.049
87267W        W52428  42.521  18.086  11.267
87268W        W52429  16.033  39.829   1.817
87269W        W52430  34.517  42.836  11.569
87270W        W52431  25.886   7.762  14.851
87271W        W52432  33.532   2.484  14.886
87272W        W52433  37.295  31.329   2.607
87273W        W52434  20.859  38.457  10.825
87274W        W52435  44.524  25.277   2.325
87275W        W52436  40.786   2.712  10.858
87276W        W52437  17.169  24.493   0.775
87277W        W52438   0.980  39.822   3.774
87278W        W52439  22.160  44.239   0.713
87279W        W52440  37.880  43.559   0.833
87280W        W52441   5.742  28.399   9.802
87281W        W52442  39.566  40.016  10.667
87282W        W52443   0.716  30.642   1.245
87283W        W52444  27.459  18.679   1.751
87284W        W52445  29.372  20.493  14.582
87285W        W52446   0.063  36.405   2.304
87286W        W52447   4.846   8.051  12.826
87287W        W52448  27.164  27.868  10.649
87288W        W52449  14.185  43.604  11.238
87289W        W52450  33.859  25.836  11.934
87290W        W52451  24.249   7.313  13.049
87291W        W52452  10.199   0.919  12.479
87292W        W52453  28.652   0.299  13.575
87293W        W52454  13.074   7.696  10.613
87294W        W52455  16.177  13.879  12.193
87295W        W52456  31.809  44.788   0.252
87296W        W52457  39.480  20.528   2.372
87297W        W52458  15.043  16.735   3.832
87298W        W52459  23.303   5.069  14.704
87299W        W52460  31.508  43.470   3.224
87300W        W52461  42.799   0.575   3.339
87301W        W52462  39.494  11.964   2.179
87302W        W52463  11.204  30.712   3.642
87303W        W52464  32.371  10.687   2.550
87304W        W52465  23.651  27.138   3.585
87305W        W52466  27.728  15.263   1.344
87306W        W52467  15.116  14.012  12.933
87307W        W52468   2.299  19.006   4.463
87308W        W52469  29.170  12.093   4.662
87309W        W52470   8.486  20.135   4.629
87310W        W52471  34.023  40.567   1.834
87311W        W52472  31.836  40.890  12.658
87312W        W52473  33.968  11.829  10.809
87313W        W52474  31.920  12.084  11.043
87314W        W52475  23.542  32.015  14.520
87315W        W52476  17.357  19.722   0.796
87316W        W52477   1.325  38.076  13.080
87317W        W52478  28.300  39.837  11.151
87318W        W52479  13.957  34.405   0.938
87319W        W52480   2.273  10.760   1.311
87320W        W52481  20.562  21.365   4.837
87321W        W52482   3.448   6.810   2.845
87322W        W52483  43.477  44.269  13.900
87323W        W52484  34.180   4.927  10.185
87324W        W52485  13.350  29.055  12.918
87325W        W52486  32.715  23.516   3.143
87326W        W52487  39.086  22.052   2.738
87327W        W52488  28.848  38.310   0.668
87328W        W52489  35.654   1.882   1.198
87329W        W52490  28.145  31.806   1.432
87330W        W52491  28.423  26.533   2.430
87331W        W52492  30.127   9.660  13.274
87332W        W52493  25.114  28.284  13.909
87333W        W52494   7.440   5.367   4.174
87334W        W52495   2.346  23.919  12.598
87335W        W52496   8.123   2.338  14.977
87336W        W52497  22.873  18.708  14.248
87337W        W52498  17.584   5.861  13.339
87338W        W52499  44.515  30.459   4.475
87339W        W52500  29.715   9.948  13.608
87340W        W52501  23.051  29.167  11.901
87341W        W52502  18.718  40.153   5.358
87342W        W52503  42.881  22.206  12.609
87343W        W52504  20.046  17.193  14.439
87344W        W52505  42.061  25.563   4.030
87345W        W52506   7.427   3.772  10.628
87346W        W52507   8.748  43.503  14.899
87347W        W52508  39.885  33.513   1.876
87348W        W52509  38.891  24.566   2.202
87349W        W52510  41.801  14.835   2.752
87350W        W52511   2.930  25.752   9.958
87351W        W52512  20.568  16.045  12.206
87352W        W52513  40.035  12.375  11.597
87353W        W52514  33.142   9.126  10.299
87354W        W52515  34.639   4.738   3.407
87355W        W52516  35.252   5.975  14.555
87356W        W52517   1.993  36.272  12.090
87357W        W52518  34.494  15.298  14.506
87358W        W52519  42.972   6.847   4.394
87359W        W52520  21.870   9.739   9.958
87360W        W52521  16.230  43.866  12.443
87361W        W52522  30.165  35.431  14.971
87362W        W52523   8.760  34.583  12.094
87363W        W52524  34.993  27.701   2.836
87364W        W52525  44.019  16.188   1.371
87365W        W52526  22.213  30.428  13.369
87366W        W52527  26.962  34.994   2.360
87367W        W52528  34.904  23.817  12.472
87368W        W52529  32.430  36.552  12.038
87369W        W52530   7.116  26.102  12.965
87370W        W52531  25.034  36.276  11.818
87371W        W52532  25.508  23.576   4.816
87372W        W52533   7.868  18.932  14.487
87373W        W52534  28.056  17.806   4.567
87374W        W52535  22.096  40.540   4.701
87375W        W52536  24.957  15.985   4.208
87376W        W52537  10.766  14.843  14.406
87377W        W52538  17.712   9.285  10.648
87378W        W52539  38.527  25.926   1.881
87379W        W52540  31.555  38.608  11.581
87380W        W52541  32.027  19.221  11.640
87381W        W52542  36.315  42.452   1.148
87382W        W52543  33.010   3.742   4.735
87383W        W52544  10.196  34.312   2.191
87384W        W52545  33.293  20.219  10.270
87385W        W52546   9.821  22.476  14.428
87386W        W52547  43.990   9.853  10.378
87387W        W52548  36.966  36.557   1.956
87388W        W52549   0.513  26.715   0.781
87389W        W52550  35.999  38.097   1.233
87390W        W52551  33.973   9.259  12.878
87391W        W52552  35.277  24.974  10.229
87392W        W52553  38.800  10.766   0.475
87393W        W52554  28.790  14.356   2.442
87394W        W52555  11.033  24.287   1.212
87395W        W52556  20.061   8.409  13.189
87396W        W52557  30.888   0.020  14.901
87397W        W52558  33.478  15.669   2.575
87398W        W52559   0.371  33.132   0.340
87399W        W52560  10.754  22.502   1.618
87400W        W52561  11.080  39.458  11.157
87401W        W52562  26.943  11.888  12.019
87402W        W52563  44.729  15.589   3.841
87403W        W52564  35.998   5.950  11.705
87404W        W52565  44.053  37.797   0.460
87405W        W52566  44.829  32.438  14.238
87406W        W52567  16.106  38.444   3.248
87407W        W52568  38.825  10.807   2.627
87408W        W52569  30.023  13.642  12.150
87409W        W52570   3.935  23.237   1.756
87410W        W52571  14.050  21.757  12.019
87411W        W52572  23.805   2.079  11.953
87412W        W52573  16.655  12.140   0.503
87413W        W52574   3.679  15.262  13.039
87414W        W52575  32.501  38.105   2.023
87415W        W52576  23.667   0.339   0.248
87416W        W52577  23.399  28.070   2.589
87417W        W52578  23.848  28.117  12.054
87418W        W52579  32.507  16.779   3.921
87419W        W52580   9.610  35.495   4.946
87420W        W52581  40.904  29.413   2.690
87421W        W52582  13.205   1.723  12.484
87422W        W52583  10.356   2.650   1.244
87423W        W52584  22.471  43.555   1.419
87424W        W52585  22.539  19.127  14.212
87425W        W52586  23.120  23.157   3.203
87426W        W52587  37.593  13.227  13.872
87427W        W52588  29.468  36.211   0.805
87428W        W52589  33.810  40.374  13.434
87429W        W52590   3.652  41.777  11.194
87430W        W52591   3.912  37.686   4.188
87431W        W52592  28.653  40.515   3.255
87432W        W52593  22.926  17.994   3.314
87433W        W52594  32.598  15.760   2.424
87434W        W52595  30.921  30.225   1.866
87435W        W52596  17.662  31.438  12.829
87436W        W52597   6.301  18.544   3.747
87437W        W52598  22.289  19.772   1.417
87438W        W52599  41.301  35.045  14.293
87439W        W52600  39.117   1.553   1.468
87440W        W52601  25.451  25.517  12.502
87441W        W52602  15.168  38.076  12.382
87442W        W52603  19.659   3.441   0.346
87443W        W52604  10.710  12.767  12.769
87444W        W52605  20.791  35.109  11.893
87445W        W52606  35.790  29.000   2.893
87446W        W52607  26.820  33.934   0.189
87447W        W52608  20.400  39.297   1.123
87448W        W52609   2.683  10.276   2.354
87449W        W52610  44.538  16.584  13.806
87450W        W52611  29.231  16.597  11.184
87451W        W52612  18.605   4.371   1.455
87452W        W52613  21.686  33.463  11.715
87453W        W52614  35.620  11.182   2.149
87454W        W52615  26.907  24.655   0.550
87455W        W52616  35.572  26.138   2.863
87456W        W52617  26.519  16.547   3.711
87457W        W52618   4.897   0.634  13.347
87458W        W52619   4.092  14.333  12.933
87459W        W52620  32.373  43.077   3.564
87460W        W52621  35.059  26.748   5.122
87461W        W52622  22.457  20.840  12.227
87462W        W52623   0.346  29.690   4.497
87463W        W52624  28.066  26.400  14.921
87464W        W52625   4.871  35.719  12.742
87465W        W52626  23.033  39.706  14.632
87466W        W52627  21.073  33.179  14.396
87467W        W52628  30.895  29.708  14.992
87468W        W52629   1.351  12.782   2.824
87469W        W52630  19.625  22.997   1.724
87470W        W52631  18.642  44.228   4.322
87471W        W52632  10.872  35.038   0.870
87472W        W52633  32.948  35.014   4.506
87473W        W52634  38.072   9.674  13.894
87474W        W52635   6.832  21.253   3.627
87475W        W52636   9.914  11.689  12.564
87476W        W52637   8.627   8.273  14.898
87477W        W52638  20.495  14.130  13.063
87478W        W52639  16.021  13.858  13.575
87479W        W52640  11.234  32.616  11.595
87480W        W52641  12.173   8.905   1.250
87481W        W52642   6.698   3.838   3.013
87482W        W52643   3.423  34.835   3.567
87483W        W52644  22.545  25.653  13.971
87484W        W52645   5.537  27.013   0.162
87485W        W52646  35.314  15.119   0.740
87486W        W52647  23.201  44.421  12.082
87487W        W52648  11.970  41.773   0.406
87488W        W52649  24.411  34.806   3.239
87489W        W52650  26.649   1.757  14.982
87490W        W52651   3.421  20.499  13.263
87491W        W52652   7.282  18.859   2.725
87492W        W52653   9.393  37.902  12.071
87493W        W52654  18.553  42.327   3.807
87494W        W52655  44.998  10.085   9.986
87495W        W52656  22.117  30.295   1.997
87496W        W52657  40.448  10.289   3.242
87497W        W52658   6.585  12.092  13.816
87498W        W52659   9.967  34.433  14.598
87499W        W52660  18.456   2.016  11.978
87500W        W52661  27.597  35.521   3.902
87501W        W52662  44.226  15.619   4.540
87502W        W52663  16.132  13.683   0.886
87503W        W52664  24.481  29.829   4.669
87504W        W52665  20.506  43.249   4.171
87505W        W52666  12.713  37.723  13.003
87506W        W52667   8.199  13.024  12.065
87507W        W52668   8.749  11.138   0.178
87508W        W52669  14.682  40.581  12.891
87509W        W52670  37.932  10.293   1.781
87510W        W52671   9.152  40.872  14.587
87511W        W52672   0.561  31.972  11.843
87512W        W52673  24.481  17.775  14.334
87513W        W52674  23.698  27.115   4.087
87514W        W52675   9.990  36.866   3.746
87515W        W52676  24.489  41.965   2.800
87516W        W52677  14.121  31.904   0.291
87517W        W52678   6.927   0.090  14.981
87518W        W52679   5.903  19.456   3.917
87519W        W52680  11.314  22.798   3.641
87520W        W52681  30.216   4.134  11.037
87521W        W52682  29.738  36.114  14.874
87522W        W52683  23.016  17.833  14.335
87523W        W52684  35.144  25.096   0.756
87524W        W52685  35.460   6.073  10.553
87525W        W52686  21.407  39.326   2.696
87526W        W52687  35.470  38.777  12.640
87527W        W52688  16.152   5.970   1.028
87528W        W52689  23.193  22.034   0.191
87529W        W52690  26.644  25.677   0.371
87530W        W52691  13.769   0.723   4.307
87531W        W52692  32.344  12.843  12.160
87532W        W52693  29.240  32.251  12.898
87533W        W52694  17.232   1.908   1.222
87534W        W52695  19.436  13.773   2.820
87535W        W52696  38.505  17.073   4.961
87536W        W52697  28.427  25.682  11.525
87537W        W52698  39.867  34.095   2.560
87538W        W52699  40.353   8.853  12.944
87539W        W52700  39.423   9.821   4.520
87540W        W52701   1.163   6.718   2.242
87541W        W52702  25.386   0.794  12.128
87542W        W52703  42.535   9.648   3.733
87543W        W52704  33.584  31.084   1.883
87544W        W52705  17.149  30.560   0.944
87545W        W52706  41.013   4.772   4.060
87546W        W52707  44.590   8.679   0.001
87547W        W52708   0.773  36.168  13.984
87548W        W52709  13.349  44.446  11.258
87549W        W52710  38.828  35.438  11.111
87550W        W52711  15.981  25.422  11.941
87551W        W52712  16.816  19.604   1.946
87552W        W52713  35.083  15.248  14.345
87553W        W52714  32.216  44.001   0.644
87554W        W52715  38.771  31.417   3.249
87555W        W52716  38.367  41.860   3.215
87556W        W52717  33.740  37.809  14.054
87557W        W52718  32.486  18.525   0.504
87558W        W52719   2.352  26.945   0.980
87559W        W52720   1.304  28.498  12.522
87560W        W52721  31.259  18.211  12.353
87561W        W52722  28.190  28.394   1.032
87562W        W52723  24.158  41.621   0.241
87563W        W52724  24.306   9.655  13.600
87564W        W52725  31.940   0.457   3.721
87565W        W52726   8.870  32.697  13.498
87566W        W52727  16.503   3.389   2.251
87567W        W52728   0.394  16.874  14.883
87568W        W52729  32.669  32.551   0.422
87569W        W52730  38.398  38.897  10.706
87570W        W52731  25.712  21.064   2.913
87571W        W52732  44.736  17.045  13.996
87572W        W52733  23.305  27.073   0.657
87573W        W52734   6.330  14.644   4.394
87574W        W52735  22.296  31.949   4.934
87575W        W52736  15.160  24.994   4.610
87576W        W52737  34.381  30.049  14.916
87577W        W52738  14.530  22.340  14.353
87578W        W52739   2.694  15.758   3.231
87579W        W52740  25.480  27.666   1.556
87580W        W52741  21.210  31.151   3.567
87581W        W52742  30.948  17.985   0.428
87582W        W52743   6.171  15.800  10.263
87583W        W52744  27.677  44.949  12.833
87584W        W52745  13.325   4.370   1.467
87585W        W52746  31.560  38.267  11.174
87586W        W52747  26.087  27.240   0.488
87587W        W52748   5.379  30.613   2.800
87588W        W52749  37.461  32.251  11.080
87589W        W52750  26.064  40.833  12.084
87590W        W52751  43.784  20.428   0.390
87591W        W52752  10.945  28.898   4.839
87592W        W52753  43.664  35.030  11.162
87593W        W52754  31.940  16.590  12.031
87594W        W52755   6.033  34.429   4.537
87595W        W52756   9.199  36.421  11.291
87596W        W52757   1.970  31.284   3.670
87597W        W52758   8.670  43.769   2.573
87598W        W52759   1.251   7.936  12.639
87599W        W52760  29.945   7.766   0.870
87600W        W52761   3.236  29.846   1.322
87601W        W52762  14.558  38.140  11.252
87602W        W52763   6.141  44.242  10.660
87603W        W52764  42.552  15.083  11.181
87604W        W52765   3.322   6.317  14.788
87605W        W52766  40.871  43.501  10.694
87606W        W52767  26.525  28.601   1.393
87607W        W52768  26.070   6.892   2.910
87608W        W52769  29.925  35.810   0.249
87609W        W52770   9.873   2.505  13.466
87610W        W52771   9.679  13.351  11.197
87611W        W52772  21.773  33.339   1.000
87612W        W52773   1.873  15.112  12.211
87613W        W52774  33.386   2.594   4.161
87614W        W52775  33.030  42.067   2.750
87615W        W52776  22.393  23.220   2.657
87616W        W52777   2.365  35.792   4.300
87617W        W52778  21.724  19.569  12.855
87618W        W52779  20.243  24.108   0.815
87619W        W52780  22.149  12.871   2.802
87620W        W52781   7.715  31.954  10.548
87621W        W52782   7.834  24.210   0.970
87622W        W52783   3.858  24.577   4.262
87623W        W52784  11.715  12.122   0.901
87624W        W52785  23.568  20.637  13.945
87625W        W52786  16.570  29.070   1.678
87626W        W52787  20.951  37.927  14.849
87627W        W52788  24.684  12.332   1.059
87628W        W52789  31.637  30.634   3.794
87629W        W52790   4.656  39.331  10.923
87630W        W52791   2.005  28.987   3.082
87631W        W52792  41.776  33.025  12.613
87632W        W52793   6.374  36.800  11.138
87633W        W52794   9.296   2.147   3.515
87634W        W52795   8.276   4.729  13.830
87635W        W52796  40.698  28.585  10.590
87636W        W52797   9.258  41.050  11.082
87637W        W52798  40.609  36.207  13.334
87638W        W52799  13.212  40.537   0.643
87639W        W52800  44.801  31.248   4.808
87640W        W52801  34.988  34.493  13.710
87641W        W52802  21.020  26.961   0.769
87642W        W52803  24.652  22.055  13.416
87643W        W52804  40.007  28.649   1.887
87644W        W52805  42.141  12.201   0.339
87645W        W52806  41.314   1.346  13.801
87646W        W52807  29.508  42.467   2.880
87647W        W52808  31.868  31.436   4.772
87648W        W52809  39.840  25.761  12.525
87649W        W52810  22.027  35.811  13.994
87650W        W52811  22.034  44.915   3.193
87651W        W52812  29.939  29.097   4.882
87652W        W52813  41.048  36.336   9.650
87653W        W52814   1.336  34.919   1.255
87654W        W52815  39.406  39.826  11.982
87655W        W52816  26.260  15.000   0.390
87656W        W52817  31.546   5.874   2.499
87657W        W52818  32.024   6.844   3.963
87658W        W52819  41.296  23.618   3.682
87659W        W52820  14.806  35.422   3.303
87660W        W52821  23.616  25.980  12.466
87661W        W52822  30.086  15.546   0.657
87662W        W52823   1.425   6.367   4.858
87663W        W52824  20.296   3.967   1.883
87664W        W52825  21.154  40.142  12.356
87665W        W52826   7.280  42.366   1.194
87666W        W52827  44.800   3.234   2.710
87667W        W52828  20.488  22.904  12.021
87668W        W52829  44.731  25.710   0.361
87669W        W52830   7.903   5.681  11.986
87670W        W52831  43.693  35.270   1.530
87671W        W52832  14.722  15.577  13.734
87672W        W52833   0.389  44.516   3.253
87673W        W52834  17.350   7.168  12.030
87674W        W52835  17.068   6.435  13.849
87675W        W52836  39.012   1.807  13.566
87676W        W52837  31.121  34.024  13.613
87677W        W52838  41.292   9.165  14.446
87678W        W52839  23.304  24.652  11.570
87679W        W52840  33.816  15.165   0.755
87680W        W52841  14.718  21.150   2.783
87681W        W52842   1.336  34.438   0.482
87682W        W52843  34.819   6.783   2.836
87683W        W52844   2.392   2.726  11.172
87684W        W52845  33.148  25.200  14.392
87685W        W52846  13.795  33.159  13.498
87686W        W52847  11.396  42.293  10.743
87687W        W52848  38.484  11.113  10.536
87688W        W52849  17.217   5.891   2.872
87689W        W52850   9.728  25.551   0.938
87690W        W52851  32.428  29.720   1.412
87691W        W52852  37.289  18.405  14.989
87692W        W52853  10.381  30.458   0.281
87693W        W52854  43.574  37.117  14.974
87694W        W52855  18.605   6.447   4.066
87695W        W52856  30.512   2.528  14.798
87696W        W52857  33.019   2.951  11.120
87697W        W52858  17.618   0.357  12.023
87698W        W52859   2.976  38.567   0.698
87699W        W52860  32.029   7.355   4.060
87700W        W52861  18.789  10.858   3.395
87701W        W52862  35.067  34.842   2.751
87702W        W52863  28.873   7.290  12.839
87703W        W52864   4.895  27.631  10.952
87704W        W52865  38.976  38.949   0.809
87705W        W52866   1.217  17.669   3.317
87706W        W52867  42.527  44.848   3.715
87707W        W52868   7.324   2.638  11.563
87708W        W52869  41.143  31.044   1.697
87709W        W52870  41.735  35.077   4.559
87710W        W52871  17.533  30.573   4.524
87711W        W52872   2.475  27.996  12.433
87712W        W52873   4.808  30.504  10.755
87713W        W52874   4.355   1.759  10.732
87714W        W52875  32.944   3.590   0.287
87715W        W52876   8.124  41.744  14.872
87716W        W52877  27.769  39.012   3.514
87717W        W52878  20.531  23.243  12.430
87718W        W52879  11.051   6.628   2.311
87719W        W52880  13.351  11.598   3.684
87720W        W52881  41.456  26.681  12.649
87721W        W52882  42.231  40.999   0.810
87722W        W52883  35.687  39.980   0.348
87723W        W52884   0.517  34.078   1.430
87724W        W52885   7.991  15.242   4.666
87725W        W52886  23.425  14.228   1.412
87726W        W52887   3.276  43.210   4.107
87727W        W52888   1.404  39.921  12.829
87728W        W52889   4.233   7.366  13.604
87729W        W52890  42.323  25.662  11.608
87730W        W52891   3.721  37.613  12.026
87731W        W52892  35.539   9.351  13.230
87732W        W52893  29.164  15.685   2.383
87733W        W52894  44.334  28.093   2.817
87734W        W52895  19.118  20.554   3.681
87735W        W52896  37.334  12.776   3.599
87736W        W52897  43.708  21.193  10.767
87737W        W52898  24.024  40.531   4.422
87738W        W52899  17.191  41.353  11.778
87739W        W52900  27.937  20.932  12.650
87740W        W52901  42.937  29.686   0.581
87741W        W52902  10.662   0.421   1.420
87742W        W52903  10.733   5.733   0.808
87743W        W52904  40.065  18.568   1.630
87744W        W52905  17.549  32.024  11.187
87745W        W52906  43.861  38.762   5.026
87746W        W52907  43.343  27.919  14.465
87747W        W52908  30.359  28.923   0.875
87748W        W52909  11.298  25.465   3.847
87749W        W52910  21.243  42.239   4.258
87750W        W52911  11.638   8.437   3.849
87751W        W52912  19.618  15.882  13.007
87752W        W52913   3.985  36.020  10.379
87753W        W52914  26.576  13.268  13.562
87754W        W52915  39.350  26.345  13.389
87755W        W52916  16.645  38.823   1.584
87756W        W52917  37.494  18.521   1.271
87757W        W52918  17.716  39.792   0.029
87758W        W52919  22.167  29.949  14.061
87759W        W52920  42.650  43.837  10.812
87760W        W52921   6.216  13.076  12.066
87761W        W52922   6.155  34.469  14.701
87762W        W52923  15.496  30.884  14.762
87763W        W52924  21.464  17.756   1.352
87764W        W52925   6.508  23.052  10.700
87765W        W52926  37.385  44.517   4.610
87766W        W52927  39.638  29.127   4.547
87767W        W52928  25.117  25.654   4.950
87768W        W52929  42.346   9.877   0.000
87769W        W52930  29.405  32.497  11.551
87770W        W52931   9.407  11.277   3.253
87771W        W52932  17.640  20.611   3.715
87772W        W52933  12.812  17.845   0.749
87773W        W52934  42.279  28.069  12.058
87774W        W52935  16.650   9.906   0.842
87775W        W52936   9.184  30.850   4.101
87776W        W52937  28.583  33.054   0.036
87777W        W52938  13.864   4.667   2.724
87778W        W52939   2.820  15.609   3.710
87779W        W52940  29.135  30.521   3.633
87780W        W52941  39.173   7.244   4.876
87781W        W52942  20.268  12.405  12.853
87782W        W52943  39.850  31.184  13.346
87783W        W52944   4.094  39.933  12.547
87784W        W52945  32.022  43.193   4.252
87785W        W52946  44.728  12.352  13.294
87786W        W52947  29.829  41.887  12.736
87787W        W52948  31.853  43.238   0.946
87788W        W52949  33.984  43.283   1.014
87789W        W52950  17.621  28.093   4.414
87790W        W52951  42.050  41.418  11.925
87791W        W52952   0.309  26.028  10.889
87792W        W52953   2.091  21.146   5.062
87793W        W52954   1.259  30.418   2.311
87794W        W52955   7.939  16.234  11.392
87795W        W52956  18.599  42.296   2.289
87796W        W52957  40.056  30.405   0.963
87797W        W52958  30.020   6.252   3.232
87798W        W52959   2.604  19.876   2.355
87799W        W52960  36.808   7.263  10.998
87800W        W52961  32.647   1.966   3.088
87801W        W52962  29.859  44.821   1.357
87802W        W52963  33.037   6.456  11.099
87803W        W52964  40.570   7.230  12.062
87804W        W52965  16.552  31.629  14.180
87805W        W52966  41.700  41.320  12.939
87806W        W52967   8.203   2.712  10.514
87807W        W52968  22.685  21.515  14.282
87808W        W52969  25.747  19.262   1.839
87809W        W52970   4.176  10.290  12.777
87810W        W52971   5.516   9.704   1.839
87811W        W52972  26.970  15.772  10.298
87812W        W52973  24.728  35.470   0.422
87813W        W52974  23.260  19.342   4.104
87814W        W52975   7.910  39.805  11.770
87815W        W52976  28.003  21.243   4.554
87816W        W52977  42.805   0.927   5.153
87817W        W52978  41.878  36.096  14.477
87818W        W52979  34.970  35.413  11.189
87819W        W52980  13.047   0.801  14.411
87820W        W52981  14.065  23.666  11.914
87821W        W52982  31.563  31.908   0.090
87822W        W52983  43.065   4.856   0.328
87823W        W52984   8.218   3.853   1.757
87824W        W52985  15.235   7.378   3.589
87825W        W52986  39.257  29.246   0.701
87826W        W52987  19.529   5.998  10.661
87827W        W52988  35.388  30.287  11.585
87828W        W52989  41.454  41.303   1.323
87829W        W52990  29.451  20.687  11.154
87830W        W52991  33.428  23.448   1.868
87831W        W52992  40.451  22.615   0.347
87832W        W52993  19.303  38.750   4.417
87833W        W52994  23.783  20.566  10.345
87834W        W52995  32.046  32.133   2.687
87835W        W52996  41.416  34.914   2.607
87836W        W52997  32.650  13.299  10.824
87837W        W52998  41.201  19.597  10.752
87838W        W52999  19.630  27.355   3.553
87839W        W53000  27.728  16.191   1.373
87840W        W53001  40.285  40.789   3.190
87841W        W53002  24.690  19.029   0.023
87842W        W53003   0.878  22.991   0.755
87843W        W53004   3.007  29.419   1.521
87844W        W53005  33.573   4.361  12.124
87845W        W53006  30.015   5.553  13.381
87846W        W53007  14.122   7.864  13.025
87847W        W53008  32.961  36.507  14.938
87848W        W53009   6.855  10.083  12.852
87849W        W53010  23.992  10.640  11.666
87850W        W53011   0.150   6.826  10.466
87851W        W53012  29.482  39.481   1.846
87852W        W53013  36.419  10.082   1.921
87853W        W53014  34.435  23.001  13.509
87854W        W53015  44.911  26.650   0.951
87855W        W53016  20.770  44.312   2.338
87856W        W53017  38.417   4.763  11.371
87857W        W53018  19.383   2.143  13.990
87858W        W53019   6.955  26.620  13.848
87859W        W53020  44.404   9.252   5.058
87860W        W53021  40.569  39.893   0.975
87861W        W53022  18.400  22.515  12.996
87862W        W53023  32.150  17.385   2.304
87863W        W53024  36.056  15.355  13.470
87864W        W53025   8.586  25.594   4.020
87865W        W53026  31.452  25.431   4.501
87866W        W53027  23.120  21.113  12.501
87867W        W53028   7.423  25.363  14.743
87868W        W53029  27.697   4.007  12.150
87869W        W53030   1.944   8.770  11.759
87870W        W53031   8.132  32.959   1.863
87871W        W53032  34.091   4.234  12.916
87872W        W53033  19.064  40.924  10.214
87873W        W53034   2.768  14.568   4.574
87874W        W53035  13.643  40.315  11.167
87875W        W53036  34.565  24.891   5.047
87876W        W53037  20.017  35.872  14.964
87877W        W53038  21.075  31.444  11.218
87878W        W53039   5.391  21.388  11.241
87879W        W53040   1.237  42.470   0.745
87880W        W53041   2.218  23.424   3.684
87881W        W53042  23.309  36.845   0.938
87882W        W53043  31.168   9.276   2.674
87883W        W53044  21.271  35.560  14.624
87884W        W53045  25.080  18.097   1.590
87885W        W53046  32.591  30.495  14.740
87886W        W53047  15.804  22.082   1.748
87887W        W53048  20.869  25.157   3.751
87888W        W53049   5.465  23.660   3.293
87889W        W53050  40.542   7.878  14.839
87890W        W53051   9.515  10.530  14.758
87891W        W53052  10.160  41.942   4.662
87892W        W53053  24.719  20.286   2.604
87893W        W53054  36.440   6.354  11.553
87894W        W53055   3.226  13.786  13.978
87895W        W53056  27.906   5.934   0.366
87896W        W53057  31.982  43.861   3.041
87897W        W53058  17.067  33.976   2.244
87898W        W53059  32.216  19.808  13.355
87899W        W53060   9.364  37.487  14.422
87900W        W53061  22.094  24.706  13.952
87901W        W53062  12.026  16.161   4.490
87902W        W53063   6.879  26.580  12.878
87903W        W53064  44.910   2.018   2.418
87904W        W53065  10.883  11.296   1.503
87905W        W53066  21.601  17.487   0.248
87906W        W53067  21.275  10.737   4.726
87907W        W53068   2.678  19.983  13.465
87908W        W53069  44.442   7.741   3.177
87909W        W53070  13.547  21.518   1.937
87910W        W53071   8.869  18.605   0.561
87911W        W53072  18.834  43.419  11.656
87912W        W53073  23.869  13.653  11.538
87913W        W53074  25.829  20.547   4.081
87914W        W53075  29.504  35.701   0.702
87915W        W53076  15.142  11.832  11.558
87916W        W53077  24.655   9.837  14.520
87917W        W53078   3.717  33.023  10.726
87918W        W53079  41.619  15.331   2.837
87919W        W53080  19.234  12.583  12.677
87920W        W53081  19.175   4.428  13.065
87921W        W53082   5.658  17.990   1.646
87922W        W53083  35.290  30.483   3.211
87923W        W53084  18.000  37.105  12.899
87924W        W53085  37.404  20.373  10.758
87925W        W53086   9.642  31.695   2.147
87926W        W53087  41.413   1.214   3.431
87927W        W53088   4.291  22.427  13.802
87928W        W53089   1.774  24.150   0.334
87929W        W53090  21.546  24.746   1.708
87930W        W53091  30.656  26.673   0.367
87931W        W53092  41.530  44.241  12.922
87932W        W53093  20.626   3.716  14.817
87933W        W53094  18.754   2.041  12.555
87934W        W53095  43.280  18.180   2.847
87935W        W53096  16.796  32.362  13.017
87936W        W53097  15.391  26.611   1.681
87937W        W53098  16.030  32.640   2.942
87938W        W53099  41.123  35.902   3.825
87939W        W53100  33.086  10.286   5.069
87940W        W53101  41.280  22.082   0.342
87941W        W53102  20.692  34.994  14.292
87942W        W53103   7.708  40.772   4.143
87943W        W53104  38.550   9.417  12.047
87944W        W53105  42.485   8.321   2.348
87945W        W53106   6.574  11.226   0.916
87946W        W53107   9.838  38.848  12.317
87947W        W53108  35.112  11.753   0.416
87948W        W53109  40.363  13.564   4.618
87949W        W53110   2.540  39.304  10.269
87950W        W53111  39.375  13.030  13.448
87951W        W53112  34.662  26.619   0.405
87952W        W53113  28.007  24.193   3.103
87953W        W53114  30.130  23.730   3.078
87954W        W53115  11.249  12.083   3.216
87955W        W53116   4.156   5.388   1.134
87956W        W53117  44.890  42.793   1.333
87957W        W53118   2.321  17.167   0.642
87958W        W53119  24.238  33.977  10.734
87959W        W53120  11.241  33.986  12.937
87960W        W53121  31.602   4.750   3.255
87961W        W53122  32.936  17.863   1.270
87962W        W53123  20.196  16.196  12.603
87963W        W53124  29.718  10.206   0.602
87964W        W53125  20.085   9.796   3.063
87965W        W53126  20.723  14.717  12.574
87966W        W53127   8.933   5.845   3.714
87967W        W53128  42.511  40.160   3.683
87968W        W53129   0.334   8.358  12.173
87969W        W53130  25.496  20.605   3.692
87970W        W53131  23.145  35.659   2.861
87971W        W53132  36.342  19.638  12.896
87972W        W53133  15.833  34.038  11.063
87973W        W53134  44.799  17.552   3.475
87974W        W53135   7.265  33.986  12.324
87975W        W53136  17.547   2.476  10.986
87976W        W53137  14.663  39.574  14.894
87977W        W53138  13.312   5.307   3.409
87978W        W53139  23.089  27.897   3.218
87979W        W53140  27.138  42.270   2.885
87980W        W53141   3.174   6.747  13.870
87981W        W53142   5.051  17.991  12.881
87982W        W53143  11.916   1.709  12.426
87983W        W53144  27.487   5.786  13.013
87984W        W53145  11.874  15.432  14.871
87985W        W53146  21.041  35.402   1.448
87986W        W53147  41.394   0.804  12.926
87987W        W53148   5.735  31.539   4.018
87988W        W53149  10.610  13.799   4.657
87989W        W53150  18.161   6.605  11.590
87990W        W53151  40.880  12.255  10.660
87991W        W53152  15.273  41.792  12.097
87992W        W53153  32.157  12.567  11.088
87993W        W53154  15.222   6.446  14.463
87994W        W53155  35.816  14.592   1.340
87995W        W53156  23.618  23.532   2.549
87996W        W53157  16.160  31.726  10.843
87997W        W53158  14.768  18.520   0.235
87998W        W53159  34.167  17.542  13.606
87999W        W53160   4.802   0.306  12.388
88000W        W53161  17.533  34.267   2.953
88001W        W53162   9.835  41.869   3.355
88002W        W53163  38.535  10.449  13.331
88003W        W53164  20.210  33.967   0.366
88004W        W53165  38.977  13.258  13.675
88005W        W53166   1.949   3.001   4.459
88006W        W53167  28.122  12.247  11.614
88007W        W53168  11.663  40.560  13.019
88008W        W53169  13.611   0.743  11.669
88009W        W53170  24.455  17.563   2.775
88010W        W53171  28.167  41.963   4.214
88011W        W53172  41.511  41.518   0.862
88012W        W53173  37.439  17.338  11.674
88013W        W53174  38.449  44.099  13.858
88014W        W53175   9.367   0.929  13.891
88015W        W53176  35.027  32.486   3.393
88016W        W53177  44.874  44.583   4.123
88017W        W53178  36.083   8.622  13.312
88018W        W53179  25.938  18.677  12.084
88019W        W53180  20.820   8.907  13.362
88020W        W53181  33.637  23.560  11.175
88021W        W53182   6.110  28.601  11.677
88022W        W53183  35.525  38.919  12.147
88023W        W53184  20.009   5.609  12.451
88024W        W53185  18.271  15.634   3.053
88025W        W53186  28.569  34.595  13.571
88026W        W53187  19.885   5.693  11.941
88027W        W53188  14.199  22.821  13.025
88028W        W53189  20.936  35.772  11.160
88029W        W53190   9.303  33.039  11.439
88030W        W53191  23.427   8.699  10.687
88031W        W53192  31.525  38.895   2.352
88032W        W53193  20.505  25.187   1.940
88033W        W53194  16.108   7.350  14.716
88034W        W53195  32.085  43.431  11.434
88035W        W53196  13.695  25.275   1.881
88036W        W53197   2.519  11.425  14.857
88037W        W53198   1.999  42.971   3.253
88038W        W53199  15.376  21.451  10.734
88039W        W53200   9.227  33.178   0.616
88040W        W53201   9.364  36.458  14.491
88041W        W53202  11.232   3.041  10.692
88042W        W53203  12.468   0.775   1.389
88043W        W53204  12.795  25.468   3.708
88044W        W53205  30.875  42.802   3.647
88045W        W53206  40.349  16.672  12.482
88046W        W53207   0.429  34.076  14.448
88047W        W53208  21.748  36.766   2.774
88048W        W53209  25.255  23.947   0.548
88049W        W53210  12.725   7.284  12.138
88050W        W53211  24.156  17.232  14.818
88051W        W53212   3.416  28.199   4.588
88052W        W53213   1.284  36.874   1.301
88053W        W53214   3.354  13.599   0.438
88054W        W53215   4.165  39.313   3.536
88055W        W53216  26.176  34.974   3.791
88056W        W53217  33.581  10.168   2.706
88057W        W53218  43.732  30.034   4.120
88058W        W53219   8.121   6.910   2.213
88059W        W53220  13.254  11.630   4.563
88060W        W53221   2.652  36.428   4.124
88061W        W53222  42.475  17.879   2.723
88062W        W53223  32.855  10.040  10.576
88063W        W53224   9.630  40.537   1.769
88064W        W53225  40.797   4.007  11.001
88065W        W53226  24.018   8.528  14.986
88066W        W53227   9.950  31.865  13.881
88067W        W53228  17.620  43.015  11.939
88068W        W53229   9.596  42.278   1.153
88069W        W53230  20.742   8.172  14.007
88070W        W53231   2.073  43.762   1.117
88071W        W53232   0.757  37.385  12.419
88072W        W53233  31.432   9.763   0.044
88073W        W53234  34.432  16.061   0.779
88074W        W53235  39.079   6.273   5.179
88075W        W53236   1.244  20.073  11.430
88076W        W53237  41.273  28.319  13.568
88077W        W53238   4.481  28.187   2.820
88078W        W53239  22.963   6.949   1.418
88079W        W53240  24.914  35.834   1.788
88080W        W53241  30.711   9.059   2.717
88081W        W53242   1.849   4.702  12.942
88082W        W53243  35.582  33.342  12.802
88083W        W53244  22.414  35.046  11.793
88084W        W53245  11.689   5.640   2.294
88085W        W53246  42.301  42.860   4.914
88086W        W53247  26.792   5.133   4.092
88087W        W53248  38.997  41.374  14.014
88088W        W53249  10.953   5.843   3.209
88089W        W53250  30.494  22.199  11.901
88090W        W53251  42.363   5.830  12.212
88091W        W53252   5.275  34.947   0.355
88092W        W53253  23.207  28.046  14.201
88093W        W53254  29.833  11.916  14.477
88094W        W53255   3.403  26.322   0.407
88095W        W53256  34.930   8.862  14.796
88096W        W53257  36.385   6.323  12.524
88097W        W53258  35.143  30.392   0.398
88098W        W53259  40.919  27.679  13.504
88099W        W53260  33.393  38.471   2.571
88100W        W53261  14.716  28.712  12.858
88101W        W53262   6.240  22.059   3.600
88102W        W53263  32.691  44.269   2.644
88103W        W53264   2.671   5.441  14.579
88104W        W53265  19.854  30.054   1.593
88105W        W53266  22.783  26.412  14.420
88106W        W53267  21.693  30.460   2.297
88107W        W53268  10.886  28.627  13.908
88108W        W53269   5.699  24.225  11.076
88109W        W53270  32.665  43.894  12.280
88110W        W53271  36.809  17.160   2.559
88111W        W53272  16.572  41.091  12.453
88112W        W53273   3.634  38.240   0.403
88113W        W53274  29.694  34.573   2.148
88114W        W53275  29.448  34.076   0.289
88115W        W53276  30.591  10.615   0.189
88116W        W53277  28.890  30.616   0.292
88117W        W53278  12.315  20.745   1.793
88118W        W53279  33.818  25.644   3.684
88119W        W53280  13.562  40.873  12.619
88120W        W53281  36.116  17.026   3.250
88121W        W53282  25.517  40.523   2.116
88122W        W53283  12.891  36.084  14.089
88123W        W53284  26.467   0.961  14.372
88124W        W53285   9.114  26.881   1.586
88125W        W53286  39.543  24.234   2.504
88126W        W53287   7.868  42.656   0.091
88127W        W53288  39.362  15.219   4.773
88128W        W53289  39.846   0.117  11.487
88129W        W53290  44.292  20.097  14.114
88130W        W53291   9.140  36.886  14.733
88131W        W53292  29.558  13.777  13.936
88132W        W53293   7.676  37.693   4.274
88133W        W53294   7.969   3.708  10.699
88134W        W53295  12.268  29.203   3.764
88135W        W53296  38.069  18.645   4.069
88136W        W53297  25.179  41.980   4.472
88137W        W53298  21.476   2.658  13.333
88138W        W53299  23.065  36.315   0.400
88139W        W53300  35.398  19.695  13.883
88140W        W53301  31.176  41.443   0.396
88141W        W53302  40.116  38.996   0.132
88142W        W53303  26.357  41.509   0.774
88143W        W53304   6.250  30.607   3.647
88144W        W53305  33.682  43.840  11.478
88145W        W53306  16.386  43.310   2.349
88146W        W53307  16.885  31.607  11.485
88147W        W53308  30.146  10.356  11.143
88148W        W53309   6.868  12.465   1.607
88149W        W53310  34.327   9.360   2.261
88150W        W53311  15.767  25.652  10.706
88151W        W53312  34.727  25.281  10.790
88152W        W53313  25.752  36.919  10.683
88153W        W53314  25.500  19.075  14.014
88154W        W53315   4.481  43.255   2.213
88155W        W53316   8.071  44.863  13.500
88156W        W53317  18.998  25.162   1.740
88157W        W53318  42.110  32.909   0.528
88158W        W53319   7.605  44.256   2.048
88159W        W53320  11.228   9.242   0.852
88160W        W53321  44.266  14.820   3.452
88161W        W53322  42.493  14.185  11.065
88162W        W53323  19.042  31.935   0.023
88163W        W53324  11.078  21.968   3.911
88164W        W53325  27.429  37.663  13.995
88165W        W53326   0.062   1.908   4.103
88166W        W53327  18.407  26.045   3.293
88167W        W53328  23.543  38.030  12.581
88168W        W53329  42.502  27.132   2.354
88169W        W53330   9.057  34.795  11.031
88170W        W53331  12.376  15.276   2.669
88171W        W53332  18.654  23.086  11.414
88172W        W53333   7.303   9.822   0.483
88173W        W53334  42.269   0.174  12.067
88174W        W53335  15.318  15.621  12.427
88175W        W53336  35.188  42.242  10.658
88176W        W53337  37.122  33.247   0.932
88177W        W53338  20.007   1.257  11.383
88178W        W53339  33.272  16.810   4.427
88179W        W53340  16.478  34.728  10.603
88180W        W53341  41.207  23.628  13.290
88181W        W53342  31.575  36.070  13.320
88182W        W53343  40.723  15.754  13.999
88183W        W53344  30.661  20.038   3.844
88184W        W53345  11.243  13.781  13.044
88185W        W53346  20.360  33.958  12.457
88186W        W53347   0.105  16.704   4.134
88187W        W53348  36.392  17.240   4.916
88188W        W53349  20.375  25.085   3.611
88189W        W53350  24.456  20.533   2.238
88190W        W53351  17.230   9.606  13.507
88191W        W53352  24.065  34.572   1.127
88192W        W53353   1.308  33.143   0.259
88193W        W53354  12.600  26.481   3.635
88194W        W53355  12.376   6.355   4.852
88195W        W53356  31.368  42.567   4.098
88196W        W53357  27.002  27.195   3.109
88197W        W53358   6.008  24.403   4.174
88198W        W53359   7.203  23.963  11.159
88199W        W53360  30.570  25.662   9.762
88200W        W53361  40.944  40.869  14.404
88201W        W53362  32.009  14.888   2.917
88202W        W53363  44.319  24.183   4.130
88203W        W53364  21.715  38.100   1.250
88204W        W53365  37.455  31.866  14.874
88205W        W53366  30.103  42.201  11.918
88206W        W53367  17.911  13.709  14.257
88207W        W53368  33.515   6.898   2.176
88208W        W53369   4.327  22.465  14.718
88209W        W53370  11.856   0.758   2.366
88210W        W53371  37.418   0.535   3.458
88211W        W53372   3.074  15.903  10.589
88212W        W53373  43.253   5.639  14.377
88213W        W53374  24.711  15.090  13.199
88214W        W53375  28.950  44.853   2.748
88215W        W53376  40.429  23.059  11.631
88216W        W53377  34.015  25.471   4.735
88217W        W53378  43.288  18.722  10.619
88218W        W53379  31.550  39.627   1.812
88219W        W53380  28.286  30.405  12.699
88220W        W53381  35.200  20.916   4.173
88221W        W53382  36.189   0.331   3.910
88222W        W53383   5.672  36.066   0.318
88223W        W53384  20.172  18.488  14.919
88224W        W53385  21.801  34.026   0.147
88225W        W53386  22.596  18.648   0.243
88226W        W53387   2.198  42.281  11.172
88227W        W53388  25.153   6.563   5.185
88228W        W53389   1.970  14.060  13.543
88229W        W53390  19.059  13.903  10.716
88230W        W53391   5.929  18.733   1.257
88231W        W53392  27.007  33.433  12.930
88232W        W53393   3.999  38.526  12.149
88233W        W53394   5.896  29.976  10.785
88234W        W53395   4.508   1.211  12.736
88235W        W53396   4.880  42.051  13.094
88236W        W53397   0.780  34.993  14.135
88237W        W53398   4.335  10.394   1.835
88238W        W53399  34.884  31.921  10.743
88239W        W53400   6.323  30.195  11.024
88240W        W53401   4.564  38.804  14.735
88241W        W53402   6.717  29.147   2.351
88242W        W53403  15.838  38.729   4.994
88243W        W53404  37.083  24.053  10.211
88244W        W53405  36.131  12.948  12.470
88245W        W53406  38.803  14.124   3.428
88246W        W53407  35.092  22.588  12.040
88247W        W53408  41.436   2.298  11.324
88248W        W53409  41.120  21.915   3.317
88249W        W53410  37.436   5.343  13.604
88250W        W53411  35.599  35.858   1.211
88251W        W53412  10.230  38.292  10.148
88252W        W53413  36.428  16.434   4.481
88253W        W53414  40.394  31.108  11.585
88254W        W53415   5.706  15.282   2.723
88255W        W53416  24.422  26.901   0.324
88256W        W53417   2.127  29.596   1.744
88257W        W53418  34.950   0.872  14.338
88258W        W53419   4.987  42.436  14.011
88259W        W53420  35.070  28.118  14.111
88260W        W53421  31.508  44.685   3.776
88261W        W53422   1.287  23.598   2.859
88262W        W53423  21.895  13.268  12.413
88263W        W53424  17.979  39.368   1.706
88264W        W53425  42.362  33.162   0.149
88265W        W53426   3.924  12.912   0.385
88266W        W53427   9.163  30.354   4.991
88267W        W53428  13.909  26.415  11.285
88268W        W53429  30.610  15.362  12.161
88269W        W53430  26.071  36.291  13.508
88270W        W53431   8.802  37.683  14.236
88271W        W53432   8.735  44.778   3.317
88272W        W53433  10.923  39.922   1.977
88273W        W53434  12.266  17.638   1.949
88274W        W53435  10.883  38.736   4.920
88275W        W53436   7.955  18.743  12.369
88276W        W53437  38.667  40.418   2.283
88277W        W53438  21.209  42.579   0.822
88278W        W53439   5.321   3.799  12.053
88279W        W53440  24.985   3.597   3.182
88280W        W53441  29.096   2.229  10.760
88281W        W53442   0.680  38.904   1.365
88282W        W53443  41.005   7.709  11.978
88283W        W53444  41.573   4.825   0.181
88284W        W53445  29.841  34.586  12.509
88285W        W53446   4.682  16.937  14.084
88286W        W53447  16.688  33.187  11.652
88287W        W53448  30.506  14.276   0.324
88288W        W53449  37.861   1.806   0.500
88289W        W53450   2.389  25.527  14.846
88290W        W53451  37.461  18.202  14.517
88291W        W53452  27.686   6.048   2.285
88292W        W53453   0.864   1.791  11.118
88293W        W53454  17.125  29.902   3.219
88294W        W53455  32.554   6.458  10.665
88295W        W53456  22.733  26.086   0.432
88296W        W53457  23.058   1.937  13.091
88297W        W53458  29.766  20.640  11.571
88298W        W53459   4.218  33.612   1.330
88299W        W53460  32.528  14.489  11.476
88300W        W53461  28.907  22.333   1.998
88301W        W53462  15.378  29.484   1.963
88302W        W53463  11.092  26.927   0.208
88303W        W53464  14.674  32.079  11.896
88304W        W53465  37.995  16.591   3.738
88305W        W53466   5.205  34.117  13.903
88306W        W53467  34.945  41.588   2.346
88307W        W53468   9.044  36.864  12.083
88308W        W53469  34.328  13.888   3.849
88309W        W53470  19.562  13.720  11.503
88310W        W53471  30.975  15.643  10.218
88311W        W53472  41.796  44.932  12.075
88312W        W53473   7.136  26.457   1.241
88313W        W53474  39.691   2.445  12.845
88314W        W53475  16.186   1.260  11.612
88315W        W53476  12.281  35.358   0.286
88316W        W53477  42.861   8.330  13.923
88317W        W53478   6.309  22.423   2.834
88318W        W53479  30.871  44.409   4.576
88319W        W53480  40.800  14.063  13.355
88320W        W53481  22.030  13.227   0.740
88321W        W53482   6.976   9.138   3.674
88322W        W53483  11.935  18.332  12.002
88323W        W53484  39.124  22.088   0.875
88324W        W53485   3.523  31.655   4.058
88325W        W53486  39.773  23.952  14.001
88326W        W53487  13.348  34.909   0.214
88327W        W53488  37.802  15.274   1.192
88328W        W53489  33.711  41.134  10.991
88329W        W53490  42.102   5.212   2.414
88330W        W53491  12.232  17.092  11.929
88331W        W53492  28.007  35.793  11.094
88332W        W53493   8.879  39.585  14.991
88333W        W53494  16.970  14.285   0.788
88334W        W53495  26.822  11.597   1.901
88335W        W53496   6.074  13.819  13.108
88336W        W53497  16.252  33.471   3.819
88337W        W53498  34.007  23.615   3.058
88338W        W53499  24.619   5.135   0.764
88339W        W53500   2.210  21.765  12.077
88340W        W53501  36.534  20.760   4.187
88341W        W53502  23.148  32.047   2.926
88342W        W53503  17.731  14.749  11.544
88343W        W53504  38.461  20.464   4.039
88344W        W53505  37.177  42.380   1.751
88345W        W53506  19.674  30.028  14.585
88346W        W53507   1.517  35.264   4.592
88347W        W53508  22.225  40.158  11.014
88348W        W53509  10.685   4.765  14.873
88349W        W53510  13.944  38.904  12.722
88350W        W53511  20.789  15.998   5.117
88351W        W53512  26.474  24.610  14.046
88352W        W53513  34.190  37.567   0.003
88353W        W53514  26.074  35.510   0.986
88354W        W53515  28.918  25.347  11.638
88355W        W53516   6.355   2.119   3.198
88356W        W53517   8.096   9.325  13.978
88357W        W53518  34.076   3.799  13.879
88358W        W53519   4.842   3.666  14.738
88359W        W53520  35.261  38.074   9.777
88360W        W53521  30.481   1.418  11.719
88361W        W53522  38.378  11.664  11.460
88362W        W53523  23.241  38.894   2.641
88363W        W53524  43.376  25.878   0.434
88364W        W53525  16.285   0.382   0.174
88365W        W53526  41.270  29.458  11.516
88366W        W53527  33.349  34.814  11.543
88367W        W53528  34.812  36.329  13.765
88368W        W53529  12.750  15.662   0.369
88369W        W53530  15.012  44.373  12.452
88370W        W53531  32.955  42.527  10.617
88371W        W53532  26.123  13.357  13.832
88372W        W53533   7.139   3.952  11.023
88373W        W53534  28.444  40.895   2.565
88374W        W53535  16.048  17.292   2.627
88375W        W53536  11.221   5.848   0.598
88376W        W53537   1.460  34.984   3.269
88377W        W53538   4.182   0.398  11.144
88378W        W53539  11.240  30.093  12.660
88379W        W53540  12.732   8.990  12.455
88380W        W53541  38.478   9.676  14.790
88381W        W53542  33.393   6.828  10.363
88382W        W53543  29.140  26.546  13.848
88383W        W53544  16.156  27.862  13.440
88384W        W53545  24.028  43.334   2.273
88385W        W53546  18.155  35.728   3.683
88386W        W53547   2.995  17.724   2.760
88387W        W53548   5.009  30.981  10.643
88388W        W53549  34.386  33.237   1.359
88389W        W53550  19.956  31.052   1.738
88390W        W53551  30.050  16.871  11.556
88391W        W53552   0.358  24.389  12.781
88392W        W53553  43.890  11.625   2.761
88393W        W53554   8.459  28.486  14.982
88394W        W53555  12.159  21.079  10.425
88395W        W53556  27.967   3.847   0.264
88396W        W53557   3.861  36.944   0.993
88397W        W53558  34.646  14.382  14.276
88398W        W53559  18.983  25.512   3.714
88399W        W53560   7.547  28.268  11.001
88400W        W53561   6.758  12.883  12.103
88401W        W53562  42.380  39.254   2.218
88402W        W53563   9.170  43.210   3.659
88403W        W53564  34.066  23.772  10.585
88404W        W53565  35.975   2.029   0.804
88405W        W53566  32.008  37.599  13.937
88406W        W53567  35.951  31.919  14.541
88407W        W53568   9.177   3.041   1.446
88408W        W53569  24.045  33.829  12.933
88409W        W53570  40.575  32.369  10.603
88410W        W53571  19.091  36.749   2.329
88411W        W53572  17.763  42.597  11.680
88412W        W53573  43.474  39.569   0.231
88413W        W53574  24.900  18.899  10.934
88414W        W53575   8.101  40.411  10.632
88415W        W53576  27.576  29.750  10.817
88416W        W53577  40.329   8.708  10.115
88417W        W53578   2.589  14.779   5.011
88418W        W53579  43.734  44.003   1.687
88419W        W53580  20.534  28.063   4.203
88420W        W53581  38.044  26.070   1.743
88421W        W53582  31.419  10.113   3.758
88422W        W53583  39.266   3.531   0.103
88423W        W53584  26.944   8.309  11.670
88424W        W53585  21.690  25.519   3.174
88425W        W53586  29.251   4.659   9.680
88426W        W53587   3.496   0.459   1.672
88427W        W53588   7.301   3.959   1.873
88428W        W53589   0.577  35.006  14.729
88429W        W53590  31.841  28.923  14.928
88430W        W53591  12.689   8.316  11.118
88431W        W53592  26.667  23.467   0.779
88432W        W53593  10.175   3.865  11.209
88433W        W53594  37.602  44.655   2.667
88434W        W53595   2.787  16.436   2.281
88435W        W53596   0.198  18.044   0.497
88436W        W53597  26.223  37.441  11.626
88437W        W53598  11.654  16.283  12.090
88438W        W53599  19.403  43.258   4.426
88439W        W53600  23.704  21.433   0.726
88440W        W53601  34.351  33.371  11.665
88441W        W53602  28.901  33.562  14.385
88442W        W53603  43.559  31.020  12.721
88443W        W53604   4.635   5.794  14.212
88444W        W53605  25.366  12.616  11.532
88445W        W53606  34.388  38.396  14.330
88446W        W53607  36.174  20.297   2.416
88447W        W53608  14.591   9.913   1.325
88448W        W53609  10.740  41.100   4.450
88449W        W53610  30.781   2.238  12.067
88450W        W53611   6.932   0.178  12.863
88451W        W53612  39.663   5.431   3.558
88452W        W53613  13.251  24.082   4.720
88453W        W53614  31.140   4.783  10.428
88454W        W53615  18.353   7.371  11.903
88455W        W53616  36.106  26.425  14.518
88456W        W53617   1.451  19.225  10.936
88457W        W53618  38.554  16.273  11.784
88458W        W53619  21.779  26.692  14.670
88459W        W53620  41.439  44.476   2.749
88460W        W53621  32.946  44.987  13.009
88461W        W53622  24.265  17.148   1.158
88462W        W53623  31.164   4.982  11.110
88463W        W53624  18.673   0.805  12.033
88464W        W53625  10.230  34.513  10.259
88465W        W53626  24.560  42.507   4.158
88466W        W53627  27.032  27.642  11.085
88467W        W53628  32.285   7.608  14.817
88468W        W53629  40.122  24.034  11.721
88469W        W53630   1.414  42.213   4.205
88470W        W53631  32.883  16.811  12.811
88471W        W53632  19.852   6.048   0.350
88472W        W53633  36.114  20.169  13.952
88473W        W53634  23.654  36.798  14.359
88474W        W53635  30.743   1.605  11.320
88475W        W53636  23.013   6.186  13.576
88476W        W53637  34.033  40.635  14.941
88477W        W53638  16.517  25.789  11.134
88478W        W53639  11.228  43.530   2.455
88479W        W53640  39.757   6.788  13.225
88480W        W53641  20.783  29.821  13.388
88481W        W53642  39.597  32.318   1.789
88482W        W53643   2.873  25.033   4.376
88483W        W53644   0.863  32.130   0.789
88484W        W53645  10.181  31.381  13.867
88485W        W53646  33.191  21.804  14.916
88486W        W53647   5.463  26.204  14.937
88487W        W53648  40.647  37.374   2.790
88488W        W53649   7.109   8.859   1.257
88489W        W53650  32.175   1.756   3.157
88490W        W53651   7.402  27.554  14.837
88491W        W53652  25.419  17.104   0.176
88492W        W53653  26.098  13.349   4.142
88493W        W53654  10.812  17.472  12.133
88494W        W53655  13.844  17.013  11.997
88495W        W53656  31.664  41.802   3.748
88496W        W53657  20.206   5.413  11.616
88497W        W53658  41.958  18.112   2.637
88498W        W53659  30.496  40.287  11.184
88499W        W53660   0.603  32.108  14.522
88500W        W53661  38.005  11.652  10.761
88501W        W53662  31.233  16.478  14.518
88502W        W53663  29.855  12.877   4.623
88503W        W53664   2.473   5.676  11.910
88504W        W53665  19.536  42.417  13.102
88505W        W53666  19.683  31.896   3.264
88506W        W53667   7.475  11.362   2.335
88507W        W53668  11.072  28.093  14.028
88508W        W53669   8.802  30.475  11.637
88509W        W53670   9.406  13.730   2.623
88510W        W53671  27.312  39.817   4.583
88511W        W53672  37.208  19.307   4.183
88512W        W53673  15.372  41.857   2.329
88513W        W53674  30.395   1.385  14.799
88514W        W53675  28.528  42.475   3.592
88515W        W53676  37.517  13.208   0.258
88516W        W53677  37.435   2.426  11.955
88517W        W53678  14.322  14.528  12.997
88518W        W53679  43.226   9.445   3.309
88519W        W53680  29.063   1.652   4.545
88520W        W53681  28.075  11.817   2.341
88521W        W53682   9.582  34.786   3.642
88522W        W53683   3.914  15.661  14.904
88523W        W53684  21.086  33.157   3.730
88524W        W53685  39.441  35.641  12.511
88525W        W53686  33.620  12.371  14.918
88526W        W53687  14.559  28.068   4.412
88527W        W53688  22.909   2.847   2.912
88528W        W53689  18.793  20.514  14.248
88529W        W53690  19.969   3.683  11.071
88530W        W53691   2.460  42.474   2.269
88531W        W53692  20.571   4.860   2.409
88532W        W53693  25.923   2.408  11.313
88533W        W53694  36.878   8.937  14.942
88534W        W53695  21.626  20.334   3.418
88535W        W53696  14.784  11.281  14.855
88536W        W53697   1.742  24.221  14.817
88537W        W53698  33.070  28.692  12.499
88538W        W53699   0.809  36.343  11.610
88539W        W53700  27.244  25.338   3.702
88540W        W53701  19.278  43.420  11.908
88541W        W53702  26.795  32.355  12.033
88542W        W53703   1.468  41.352  14.905
88543W        W53704   2.289  40.992  10.649
88544W        W53705   9.325  28.158   9.631
88545W        W53706  35.894   4.710  14.395
88546W        W53707   1.210  11.197  12.269
88547W        W53708   7.244  17.992   1.258
88548W        W53709   5.426   1.396   0.806
88549W        W53710  30.652  35.330  14.817
88550W        W53711  14.169   2.215   3.685
88551W        W53712  33.220  26.943   1.956
88552W        W53713  39.579  33.121  13.365
88553W        W53714  18.108   8.470   1.125
88554W        W53715   7.282   6.679   0.822
88555W        W53716  16.816  42.587   2.355
88556W        W53717  16.783  16.399  10.275
88557W        W53718  41.047  23.473   0.541
88558W        W53719  11.668  23.787   2.268
88559W        W53720   1.496  30.334   1.850
88560W        W53721  13.720   3.156   1.832
88561W        W53722  39.972  44.368   3.882
88562W        W53723  10.875  24.012   1.899
88563W        W53724  24.646  14.629  11.971
88564W        W53725   3.188   8.034   0.198
88565W        W53726  24.022  43.361   3.312
88566W        W53727   1.980  28.666   4.553
88567W        W53728  27.587  30.908   2.194
88568W        W53729  29.436   4.837  13.179
88569W        W53730  24.713   0.218   1.331
88570W        W53731  33.704  30.908  12.107
88571W        W53732  16.145  20.748   1.823
88572W        W53733  44.441  13.841  12.519
88573W        W53734  32.529   6.712  11.130
88574W        W53735  31.520  41.906   2.378
88575W        W53736  40.073  34.777   0.738
88576W        W53737   6.741  34.576  13.382
88577W        W53738  41.386   9.675  14.364
88578W        W53739  38.960  34.139  12.938
88579W        W53740   5.540  44.061   4.423
88580W        W53741   4.309  18.360  11.702
88581W        W53742  27.512  16.065  14.796
88582W        W53743  36.369  36.924  12.374
88583W        W53744  40.528  31.398  11.995
88584W        W53745  26.040  22.674  11.964
88585W        W53746  23.375   2.826   0.562
88586W        W53747  20.671  31.012   4.437
88587W        W53748  38.191   3.914  14.270
88588W        W53749  30.591  41.834  10.685
88589W        W53750  12.668  24.657  13.967
88590W        W53751  11.092  19.920  13.633
88591W        W53752  26.227  27.193   2.387
88592W        W53753  11.636  32.763  14.928
88593W        W53754   9.727  15.746  12.599
88594W        W53755  25.375   7.703  14.880
88595W        W53756  38.782   5.095  13.852
88596W        W53757  41.948  20.304  12.991
88597W        W53758  40.879   0.770  14.367
88598W        W53759  13.421  39.693   4.133
88599W        W53760  31.723  26.794  12.539
88600W        W53761   0.901  32.109   4.668
88601W        W53762  18.082   9.764   0.943
88602W        W53763  20.022  15.682  12.793
88603W        W53764  21.952  16.209  11.300
88604W        W53765  15.913  27.089  10.688
88605W        W53766  39.925  42.102   4.249
88606W        W53767  11.659   3.185  10.954
88607W        W53768   6.161  33.404  13.889
88608W        W53769   2.043   6.786   0.748
88609W        W53770  38.037  33.635   1.130
88610W        W53771  18.299  10.874  11.574
88611W        W53772  11.749  19.785   2.568
88612W        W53773  35.430  26.888  13.071
88613W        W53774  24.746   1.196  12.608
88614W        W53775  27.047  15.328   3.509
88615W        W53776  40.338  42.268   3.889
88616W        W53777  37.475  41.032  14.772
88617W        W53778  28.380  35.539   4.934
88618W        W53779   3.183  35.576  11.098
88619W        W53780  23.603  40.309   2.216
88620W        W53781  31.003  12.165  12.689
88621W        W53782  17.247  29.511  13.947
88622W        W53783  40.757  29.076   4.912
88623W        W53784  17.779  24.670  11.538
88624W        W53785  38.467  17.277   1.784
88625W        W53786   2.944  26.017   3.803
88626W        W53787   0.716   8.715  13.098
88627W        W53788  27.095  27.161   0.155
88628W        W53789   2.946   4.116   0.950
88629W        W53790  23.157  22.439   0.487
88630W        W53791   1.321   3.978  14.564
88631W        W53792   7.738  11.258  10.597
88632W        W53793  38.787  21.243   0.420
88633W        W53794  25.578  37.030   1.981
88634W        W53795  13.901  14.771  12.749
88635W        W53796  18.621  24.415   0.870
88636W        W53797  44.497  23.669  11.536
88637W        W53798  35.039  13.680  14.616
88638W        W53799  32.731   0.250   2.893
88639W        W53800  42.526  11.833   2.301
88640W        W53801   1.797   4.141  14.381
88641W        W53802  13.367  24.966  10.839
88642W        W53803  36.882  15.045  14.072
88643W        W53804  35.944  26.864   0.377
88644W        W53805  42.779  10.583   0.946
88645W        W53806  17.267  24.671  11.637
88646W        W53807  29.012  42.636   4.109
88647W        W53808  25.319  23.261  10.213
88648W        W53809  28.051   6.776  12.684
88649W        W53810  28.223  41.344   1.243
88650W        W53811  30.868  35.314  12.095
88651W        W53812   9.630  38.438  13.605
88652W        W53813   7.180   9.979  14.141
88653W        W53814  24.621  19.643  12.948
88654W        W53815  14.612  16.149  11.628
88655W        W53816  21.718  23.558   2.189
88656W        W53817  40.146   8.355   1.956
88657W        W53818  40.610  27.116  14.972
88658W        W53819  11.237  11.044  11.464
88659W        W53820  13.390  19.088  13.799
88660W        W53821  32.080  28.151   3.234
88661W        W53822  25.001   8.343  13.409
88662W        W53823  24.634  20.283  14.331
88663W        W53824  40.294  35.885  11.169
88664W        W53825  31.841  21.570  11.024
88665W        W53826  40.976  20.656  13.543
88666W        W53827   5.504  13.673   2.899
88667W        W53828   9.933  14.906   1.672
88668W        W53829  36.409  20.278   2.875
88669W        W53830  37.112  44.342   0.386
88670W        W53831  23.612  25.200  14.899
88671W        W53832  17.596  42.973   1.773
88672W        W53833  43.965  37.005  14.323
88673W        W53834  31.281  27.102   0.736
88674W        W53835   5.432   9.720  12.768
88675W        W53836  13.720  16.776  12.474
88676W        W53837  11.251  26.040   2.229
88677W        W53838   5.651  38.103   1.390
88678W        W53839  17.742  32.577  12.265
88679W        W53840  30.321   3.207   0.475
88680W        W53841  16.060  17.333  11.930
88681W        W53842  18.256  44.896  13.317
88682W        W53843   1.606  29.160  10.474
88683W        W53844  32.693  30.850   3.702
88684W        W53845   4.289  37.112  13.839
88685W        W53846  11.310   7.519  11.592
88686W        W53847  19.801  27.210  10.741
88687W        W53848  32.322   6.629  14.013
88688W        W53849  32.969  32.414  10.973
88689W        W53850   2.315  32.154   0.913
88690W        W53851  28.013   5.916  11.671
88691W        W53852   4.618  38.806   4.197
88692W        W53853  39.353  24.944   2.910
88693W        W53854  43.045  19.208  14.586
88694W        W53855  34.475  18.552   3.883
88695W        W53856   2.362  17.717  10.269
88696W        W53857   0.103  16.895   1.267
88697W        W53858   6.803   7.458   0.968
88698W        W53859   1.650   8.966  13.471
88699W        W53860  18.722  39.160   3.305
88700W        W53861  39.462  22.297  11.068
88701W        W53862   9.390  24.710  12.830
88702W        W53863   9.298  30.721   1.365
88703W        W53864  21.056  26.399   2.884
88704W        W53865  32.213  18.642   2.875
88705W        W53866  14.194  16.261   0.808
88706W        W53867  32.394  19.822  10.769
88707W        W53868  19.011  38.782  13.866
88708W        W53869  31.206  32.673   1.856
88709W        W53870  34.556  23.837  14.870
88710W        W53871  34.515   3.182  14.392
88711W        W53872  26.550  30.702   3.270
88712W        W53873   0.710  13.799   0.217
88713W        W53874  44.133  26.498  12.867
88714W        W53875  29.711  34.119  12.640
88715W        W53876   5.316  40.427  12.820
88716W        W53877  16.390  44.107  13.380
88717W        W53878  24.161  27.157   3.809
88718W        W53879  26.165  29.921  12.999
88719W        W53880  39.016   6.894   3.089
88720W        W53881  27.530  20.718   4.226
88721W        W53882  24.214  23.668   4.484
88722W        W53883  41.380  42.283  14.317
88723W        W53884  14.166  26.034   3.824
88724W        W53885  43.346  26.824  14.503
88725W        W53886   5.632  26.384  14.371
88726W        W53887   4.680   5.723   4.659
88727W        W53888   1.859   7.723  14.883
88728W        W53889  17.852   9.861  12.872
88729W        W53890  15.242  21.471   3.802
88730W        W53891  34.613  40.055   1.200
88731W        W53892  39.393  10.739   4.186
88732W        W53893  32.063  36.407  14.869
88733W        W53894   1.824  30.913   1.386
88734W        W53895  25.733  20.606  12.845
88735W        W53896  10.702  15.552  12.541
88736W        W53897  37.917  18.039   1.781
88737W        W53898  30.273  27.226  12.870
88738W        W53899  22.333   8.406  13.776
88739W        W53900  20.994  34.136  13.563
88740W        W53901  43.879  42.256   4.270
88741W        W53902  32.537   6.970  13.654
88742W        W53903   3.240  36.756   3.117
88743W        W53904  18.314  12.160   2.446
88744W        W53905  36.799  26.151  10.593
88745W        W53906  19.975   3.245  14.076
88746W        W53907  23.729  44.891   3.094
88747W        W53908  20.655  22.188  13.425
88748W        W53909  10.357  42.767  10.702
88749W        W53910  18.351  38.210  10.991
88750W        W53911   4.767  40.622  11.499
88751W        W53912  11.391  28.669   2.768
88752W        W53913   4.308  12.879  14.762
88753W        W53914  13.562  32.910   3.775
88754W        W53915  17.594  43.153   3.979
88755W        W53916   0.209  27.840   2.993
88756W        W53917  40.041  27.940  11.070
88757W        W53918  26.769   1.010   5.040
88758W        W53919  16.150  18.557   4.148
88759W        W53920  14.087  34.596  10.721
88760W        W53921  16.180   2.145   0.745
88761W        W53922  36.901   2.945   2.402
88762W        W53923  15.951  25.324  14.922
88763W        W53924  41.914  30.067  13.513
88764W        W53925  37.476   3.280  11.172
88765W        W53926  15.574  43.010   0.400
88766W        W53927  27.137   5.241  13.077
88767W        W53928  38.503   3.867   3.675
88768W        W53929  27.839  42.702  14.254
88769W        W53930  12.824  26.245   4.079
88770W        W53931  19.692  26.466  12.052
88771W        W53932   3.637  22.082   2.291
88772W        W53933  42.545  16.283   0.392
88773W        W53934  24.791  35.998  10.231
88774W        W53935  22.804  30.423   3.086
88775W        W53936   8.900  44.806   1.383
88776W        W53937   6.820  37.247   0.767
88777W        W53938   2.028  17.772  13.000
88778W        W53939  34.446  43.771  13.910
88779W        W53940  36.950  22.558   0.815
88780W        W53941   6.595   0.822   0.511
88781W        W53942   4.998   6.389  12.565
88782W        W53943  18.169  44.712  13.861
88783W        W53944  19.728  33.437  13.386
88784W        W53945  34.381  20.861   2.204
88785W        W53946  17.510  40.618  10.847
88786W        W53947  17.304  41.281   2.602
88787W        W53948   8.789  36.529  13.391
88788W        W53949   4.758  43.041   3.252
88789W        W53950  27.988   4.870  12.973
88790W        W53951  27.533   4.993  10.716
88791W        W53952  40.397  20.260   2.591
88792W        W53953  30.598  41.323   4.871
88793W        W53954  42.952  15.097   0.868
88794W        W53955   6.423  32.620   3.349
88795W        W53956  21.742  32.867   4.313
88796W        W53957  14.113  34.104  14.815
88797W        W53958  39.103  24.147  12.817
88798W        W53959   8.617   5.859   3.220
88799W        W53960  10.375  39.462  12.957
88800W        W53961  22.501  42.458   0.912
88801W        W53962  19.054   8.534  12.946
88802W        W53963  30.809   7.447  12.084
88803W        W53964  31.403  42.825   3.652
88804W        W53965   6.820   1.234   1.806
88805W        W53966  21.161  20.310  11.921
88806W        W53967   7.172  31.104   4.957
88807W        W53968   4.072  44.865   0.400
88808W        W53969  36.844   9.707  14.478
88809W        W53970   4.718  40.739  12.335
88810W        W53971  29.625   2.912   2.865
88811W        W53972  28.066  15.270   3.698
88812W        W53973  11.100  34.794  14.004
88813W        W53974  39.914  38.442  13.612
88814W        W53975  25.552  38.542  13.503
88815W        W53976  42.353  18.363   2.905
88816W        W53977  26.808  42.853  14.982
88817W        W53978   3.332  34.299   3.724
88818W        W53979  44.470  27.343  12.955
88819W        W53980  42.638  29.087   0.939
88820W        W53981  32.673  37.807  14.175
88821W        W53982  20.071  16.164  14.728
88822W        W53983  22.456   4.961  10.137
88823W        W53984   7.986  28.727  14.439
88824W        W53985  17.467  18.320  10.782
88825W        W53986  40.410  19.079   0.472
88826W        W53987   6.692  40.804   3.263
88827W        W53988  32.370  35.326  13.020
88828W        W53989  12.740  17.840  13.950
88829W        W53990  42.481  21.676  13.148
88830W        W53991  38.362  32.910   1.655
88831W        W53992  22.532   3.450   3.669
88832W        W53993  29.385  12.301   5.089
88833W        W53994  42.293  38.053  13.403
88834W        W53995  13.495  17.080   3.783
88835W        W53996   0.033   9.819  12.391
88836W        W53997  39.461  36.192   0.943
88837W        W53998  18.775  30.336  13.269
88838W        W53999   1.859  17.851  10.315
88839W        W54000   8.478  22.169  10.632
88840W        W54001   7.823  13.381   1.922
88841W        W54002  10.395   3.372   1.674
88842W        W54003   4.184  36.405   3.309
88843W        W54004  13.455  40.526  11.620
88844W        W54005   4.650  14.439  14.540
88845W        W54006  10.289  28.516   3.569
88846W        W54007  31.038   6.354   4.072
88847W        W54008   9.380   6.028  13.173
88848W        W54009   3.795  13.587  10.386
88849W        W54010  33.134   0.401  14.197
88850W        W54011  34.586  31.109  11.945
88851W        W54012  43.851  23.913   4.167
88852W        W54013   1.489  14.983   2.209
88853W        W54014  21.616  35.997  13.751
88854W        W54015  20.534  24.015  13.840
88855W        W54016   5.260  35.291  10.582
88856W        W54017  40.538  21.447  12.268
88857W        W54018  16.807   1.681   2.782
88858W        W54019   0.107  10.909   2.241
88859W        W54020  22.698  15.404  10.581
88860W        W54021  16.686   0.539  12.081
88861W        W54022  33.592  35.758   3.143
88862W        W54023  23.497   5.504  11.049
88863W        W54024  26.017  34.088   3.877
88864W        W54025   3.686  10.874   1.798
88865W        W54026  18.106  29.675   2.924
88866W        W54027  12.521   3.816  11.793
88867W        W54028   7.728  31.920   4.618
88868W        W54029   5.200  12.341  12.052
88869W        W54030   2.734  28.750  13.571
88870W        W54031  30.464  13.392  12.033
88871W        W54032  44.458  17.626   1.721
88872W        W54033  30.744  16.287   4.722
88873W        W54034  10.165  21.364  13.021
88874W        W54035  34.292  35.013  14.026
88875W        W54036  23.700  35.506   3.597
88876W        W54037  42.598  39.238  11.375
88877W        W54038  34.536  13.681   1.340
88878W        W54039  12.847   1.304   3.682
88879W        W54040  20.281   9.025  11.068
88880W        W54041  44.256  37.529  13.493
88881W        W54042   5.463  42.870  14.527
88882W        W54043  36.416  12.145  11.516
88883W        W54044  16.064  30.449   1.792
88884W        W54045  14.664  12.305   2.234
88885W        W54046  34.109  18.303   4.857
88886W        W54047  32.282   8.382  14.423
88887W        W54048  15.333  21.004  12.336
88888W        W54049  13.311  32.251   3.232
88889W        W54050  31.464  15.225  11.714
88890W        W54051  16.905   0.333  12.517
88891W        W54052  15.065   5.765  14.292
88892W        W54053   7.326  39.336  12.368
88893W        W54054  11.624  43.512   2.122
88894W        W54055  36.392  22.943   3.286
88895W        W54056  14.675  23.202   1.429
88896W        W54057  37.932  32.004   4.078
88897W        W54058   6.981   0.202   1.753
88898W        W54059  31.303   7.329  12.209
88899W        W54060  44.218   7.352  14.274
88900W        W54061  27.494  38.658  14.040
88901W        W54062  13.740  20.425   3.903
88902W        W54063  10.762  27.141   0.542
88903W        W54064  30.490  40.982   2.297
88904W        W54065  18.528  12.499  12.538
88905W        W54066   1.516  35.806   4.646
88906W        W54067  42.042  35.507   3.090
88907W        W54068   2.948  30.398   3.428
88908W        W54069   1.993   2.959  12.451
88909W        W54070   2.748  18.517   0.844
88910W        W54071  19.606  41.905   3.501
88911W        W54072  16.137  39.093   4.060
88912W        W54073  37.902  31.376  12.928
88913W        W54074  39.517  44.984  12.472
88914W        W54075  30.096  30.534  14.004
88915W        W54076   8.229  10.258   4.314
88916W        W54077  28.285   3.772   1.322
88917W        W54078  18.566  22.965   1.206
88918W        W54079  19.078  42.272  13.397
88919W        W54080  44.564   1.283   1.996
88920W        W54081   1.529   3.566   2.038
88921W        W54082   7.323  20.745   2.877
88922W        W54083  27.613  29.889   1.888
88923W        W54084   6.471  41.081   4.102
88924W        W54085  12.817  39.408   1.791
88925W        W54086  38.370  26.000  11.990
88926W        W54087  41.191  25.505  12.973
88927W        W54088  33.408  25.196  11.125
88928W        W54089  36.236  11.924  10.234
88929W        W54090  26.622  29.449   0.746
88930W        W54091  43.945  11.382   3.225
88931W        W54092  17.281   2.334   4.020
88932W        W54093  37.036  13.184  13.296
88933W        W54094  22.703  36.339   4.539
88934W        W54095   5.795  31.638   4.505
88935W        W54096   4.723  21.641   4.522
88936W        W54097  36.535   8.880  14.192
88937W        W54098  13.116   1.532   9.838
88938W        W54099  22.764  41.306   2.842
88939W        W54100  22.673  32.186   4.676
88940W        W54101  38.961  19.649  14.625
88941W        W54102   4.785  38.519   0.468
88942W        W54103  36.491  33.395  10.605
88943W        W54104  36.102   8.867   4.802
88944W        W54105  39.458   7.241   3.126
88945W        W54106  33.226  41.922   0.955
88946W        W54107  14.663   6.223   3.182
88947W        W54108  40.894  32.303   5.012
88948W        W54109   0.908  15.368  12.599
88949W        W54110  33.658  20.280   2.333
88950W        W54111  19.624  18.988  10.201
88951W        W54112  16.213  44.888  11.653
88952W        W54113  32.085  38.313   2.276
88953W        W54114  37.621  13.652  14.988
88954W        W54115  43.104  16.124   4.738
88955W        W54116  37.639  21.975   1.886
88956W        W54117  30.896   0.802  10.455
88957W        W54118  42.755   5.054  11.940
88958W        W54119  16.274  24.697  12.461
88959W        W54120  43.559  21.212  14.408
88960W        W54121  24.045  33.158   4.149
88961W        W54122   6.878  26.471   0.792
88962W        W54123   7.727  13.056  13.329
88963W        W54124  43.447   7.333   2.466
88964W        W54125  27.497  43.000   2.579
88965W        W54126  13.517  14.724  10.705
88966W        W54127  30.140  32.076   1.381
88967W        W54128   0.483  25.600   1.333
88968W        W54129  33.348  42.678   4.134
88969W        W54130  25.098   5.514  11.659
88970W        W54131  17.123  37.378   4.177
88971W        W54132  44.773   9.865  14.139
88972W        W54133  30.660  11.734   0.891
88973W        W54134  38.231  25.111  11.249
88974W        W54135  11.228   7.234   3.536
88975W        W54136   0.424   9.012   1.031
88976W        W54137  36.201  11.693  11.602
88977W        W54138  18.736  20.612   0.126
88978W        W54139   4.672  26.705  13.709
88979W        W54140  21.038  35.994  14.514
88980W        W54141   6.666  38.602   3.654
88981W        W54142  23.961  41.277  13.037
88982W        W54143   7.286  35.393  14.478
88983W        W54144  20.902  41.439  13.021
88984W        W54145  41.478  39.607   3.242
88985W        W54146  30.572  24.785   2.661
88986W        W54147  24.976  41.438  11.143
88987W        W54148  18.152  25.144  12.020
88988W        W54149  32.401  37.185   2.157
88989W        W54150   3.752  27.162  12.861
88990W        W54151   8.405  19.759  10.457
88991W        W54152  10.830  24.961  13.892
88992W        W54153  16.259  35.812  10.611
88993W        W54154  24.684  28.712  14.828
88994W        W54155   4.419  28.986   1.643
88995W        W54156   0.520  39.308   0.268
88996W        W54157  26.983  28.068   0.702
88997W        W54158  36.613  17.643   1.368
88998W        W54159  37.118  14.282   2.655
88999W        W54160  21.024  41.828   4.587
89000W        W54161  18.786  19.401   4.041
89001W        W54162  11.089  34.856   4.193
89002W        W54163  34.625  38.874  12.624
89003W        W54164  13.209   9.441  10.806
89004W        W54165  29.895   9.661   2.066
89005W        W54166  10.060  40.808  11.831
89006W        W54167   0.430  32.407   0.851
89007W        W54168  14.450   0.093  10.959
89008W        W54169  40.070  14.672  12.433
89009W        W54170  28.091  10.374  13.534
89010W        W54171   4.338  13.948  14.756
89011W        W54172  37.027  44.399  13.818
89012W        W54173  41.447  43.306  13.368
89013W        W54174  40.311  36.326  10.776
89014W        W54175   6.276  44.518  11.083
89015W        W54176  25.453   6.231   0.881
89016W        W54177  25.406  27.115   4.641
89017W        W54178  26.463  11.284  11.824
89018W        W54179  14.623  22.103  12.643
89019W        W54180  19.010  26.990  12.476
89020W        W54181  32.053  33.550  13.102
89021W        W54182  40.915  24.765   1.437
89022W        W54183   8.356   0.772   3.203
89023W        W54184   7.754  38.302  13.534
89024W        W54185  11.862  22.669   1.274
89025W        W54186  22.252   9.948   2.787
89026W        W54187  16.401  17.318  13.890
89027W        W54188  25.126  16.164  12.230
89028W        W54189  36.900  31.746  12.365
89029W        W54190   5.407   3.046  13.395
89030W        W54191  21.320   6.260   2.298
89031W        W54192  23.913  19.586   4.919
89032W        W54193  23.220  19.013  12.930
89033W        W54194  18.184  35.575  12.617
89034W        W54195  42.042  28.591   3.265
89035W        W54196   3.513   9.665  12.601
89036W        W54197   0.821  34.888  12.085
89037W        W54198  33.920  30.046  13.942
89038W        W54199  31.485  12.296  14.950
89039W        W54200  16.984  30.682   3.292
89040W        W54201  10.367  42.418   4.703
89041W        W54202   8.783  24.299  12.513
89042W        W54203  21.975  37.572  14.408
89043W        W54204  21.716  11.353  11.109
89044W        W54205  11.260  34.811   0.040
89045W        W54206   0.237  27.455   2.020
89046W        W54207  39.939   6.582   4.823
89047W        W54208  40.860   4.718   4.620
89048W        W54209   0.400  39.579   3.158
89049W        W54210  42.118  36.029   2.865
89050W        W54211  10.856  28.192   0.243
89051W        W54212  33.477  21.929  13.601
89052W        W54213  41.369  43.751  13.041
89053W        W54214  11.485   5.651   3.201
89054W        W54215  42.512  11.657   0.772
89055W        W54216  25.680  21.961  13.557
89056W        W54217  26.223  44.832  13.940
89057W        W54218  14.059   2.864  11.298
89058W        W54219  18.056  25.038  12.567
89059W        W54220  28.712  35.141   2.660
89060W        W54221  16.815  18.020   0.409
89061W        W54222  42.951  18.788   5.036
89062W        W54223  11.336   2.811  14.743
89063W        W54224  44.904  19.963   4.277
89064W        W54225  31.578  10.269  14.372
89065W        W54226  24.061  37.321   2.509
89066W        W54227  35.704  39.387   2.691
89067W        W54228  44.333  36.344  10.784
89068W        W54229  24.555  29.506  14.376
89069W        W54230  35.002  29.020  13.162
89070W        W54231   0.253   3.927  14.861
89071W        W54232  33.943  26.729  14.850
89072W        W54233  12.395  17.203   1.235
89073W        W54234  23.145  25.093  12.431
89074W        W54235  43.203  39.405  11.132
89075W        W54236  17.847  44.452  11.899
89076W        W54237   7.870  22.264   0.353
89077W        W54238   6.782   2.841   1.927
89078W        W54239  29.956   3.099   0.116
89079W        W54240   9.765  36.979  12.820
89080W        W54241   6.623   4.192  10.910
89081W        W54242  33.106   6.158   0.207
89082W        W54243  37.545   1.449  10.983
89083W        W54244   4.174  43.476   0.495
89084W        W54245  19.883   4.834  14.738
89085W        W54246   5.763  27.328   2.288
89086W        W54247  41.501  41.751   2.652
89087W        W54248  22.294  20.036  10.469
89088W        W54249  37.152  13.746   3.270
89089W        W54250  41.404  44.309  11.452
89090W        W54251  24.210   6.559   3.272
89091W        W54252  17.506  32.753   4.055
89092W        W54253  15.780  11.193  14.700
89093W        W54254  21.135   8.931   0.678
89094W        W54255  40.380   0.863   4.119
89095W        W54256  10.868  13.374   0.915
89096W        W54257   1.439  43.707  14.512
89097W        W54258  35.401  34.025   2.517
89098W        W54259  12.796  33.956   4.335
89099W        W54260   5.098  36.342   1.868
89100W        W54261  21.130  35.593   1.915
89101W        W54262  25.081  26.060   1.787
89102W        W54263  38.748   5.330  13.050
89103W        W54264  43.672  19.149   0.956
89104W        W54265   6.603  21.621   4.911
89105W        W54266   7.280  33.822   4.227
89106W        W54267  21.660  17.640  13.286
89107W        W54268  32.209   6.377  14.514
89108W        W54269   0.456   1.872   1.216
89109W        W54270  42.893  29.136   4.569
89110W        W54271  21.019  36.466  13.338
89111W        W54272  31.058  15.029  11.008
89112W        W54273  35.671  15.176   2.949
89113W        W54274  17.910  27.981   4.816
89114W        W54275  22.258  37.272  14.073
89115W        W54276  22.145  19.792  12.635
89116W        W54277  14.316  17.992   1.404
89117W        W54278   4.348  41.391   0.430
89118W        W54279  35.576  41.981  11.581
89119W        W54280  30.002  20.193  11.518
89120W        W54281  18.653  42.610   0.421
89121W        W54282   7.761  25.417  10.185
89122W        W54283  38.235   7.233   4.906
89123W        W54284  20.884   9.089  13.967
89124W        W54285  14.048  20.771   1.514
89125W        W54286  38.982  36.395  11.962
89126W        W54287  33.533  31.393  12.014
89127W        W54288  26.464  22.390  14.896
89128W        W54289  11.866  11.296   4.093
89129W        W54290  35.920  39.842   0.830
89130W        W54291  44.928  37.005  13.899
89131W        W54292  37.355  25.184  11.641
89132W        W54293  29.091   5.251   3.177
89133W        W54294   0.832  41.167  10.547
89134W        W54295  34.032  10.853   0.899
89135W        W54296  21.037  20.366  13.888
89136W        W54297  18.336  41.458   1.518
89137W        W54298  30.452  26.624  10.665
89138W        W54299  24.723  32.972  10.742
89139W        W54300  11.295  21.523  10.540
89140W        W54301  37.065  14.899   1.677
89141W        W54302   8.515  30.948  12.507
89142W        W54303   1.727  39.579  11.419
89143W        W54304  39.892  40.968   2.914
89144W        W54305  34.113  33.537  12.405
89145W        W54306  26.218  28.552   0.977
89146W        W54307  14.003  15.463   2.176
89147W        W54308  29.846  19.708   1.262
89148W        W54309  25.002  37.018   1.270
89149W        W54310   6.870  26.115   2.648
89150W        W54311  43.245  15.569   3.579
89151W        W54312  22.695   1.410  12.482
89152W        W54313  39.537   1.545  12.928
89153W        W54314  39.967   3.643   2.195
89154W        W54315  18.012  14.082  13.142
89155W        W54316  11.099   3.292   3.233
89156W        W54317  22.814   4.440  10.959
89157W        W54318   6.000  30.162   2.341
89158W        W54319  11.653   8.283   4.338
89159W        W54320   6.828  23.690   3.591
89160W        W54321   9.824  23.145  11.430
89161W        W54322  28.007   4.743   4.966
89162W        W54323  12.097   7.789   1.798
89163W        W54324   2.309  25.745   2.342
89164W        W54325   8.694  41.265   3.811
89165W        W54326  16.304  33.621  13.028
89166W        W54327  37.201  28.502   4.614
89167W        W54328   6.634  36.473   0.257
89168W        W54329  44.705  30.988   2.925
89169W        W54330   6.365  35.464  12.175
89170W        W54331  34.611  18.017  10.333
89171W        W54332  27.964  28.971  12.981
89172W        W54333   8.162  11.886  13.784
89173W        W54334  41.210   8.287   3.222
89174W        W54335  34.551  22.237  14.795
89175W        W54336  23.897  13.356  12.406
89176W        W54337  12.985  22.197   1.850
89177W        W54338   0.861   3.369  13.039
89178W        W54339  13.119  44.959   2.231
89179W        W54340  18.149  34.021  12.119
89180W        W54341   8.915   5.434  14.029
89181W        W54342  24.029  17.938   0.427
89182W        W54343  10.759  14.251   4.876
89183W        W54344  42.839  41.135   2.318
89184W        W54345   6.942   0.439   4.359
89185W        W54346   1.970  33.961   0.994
89186W        W54347  41.731  41.988   0.815
89187W        W54348  32.322  44.795  10.506
89188W        W54349  35.531  10.666   0.904
89189W        W54350  30.847  11.652  10.873
89190W        W54351  30.470  36.565   4.139
89191W        W54352   1.635  19.501  11.687
89192W        W54353  10.283   3.844   4.917
89193W        W54354   0.427  33.872  10.850
89194W        W54355  44.461  12.824   2.731
89195W        W54356  32.999  18.592  12.906
89196W        W54357  22.249   3.225   2.277
89197W        W54358  29.991  36.879  12.466
89198W        W54359  10.602   0.453   3.132
89199W        W54360  27.023  43.538  11.991
89200W        W54361  19.563  28.392   4.713
89201W        W54362   4.682   7.758  12.433
89202W        W54363   5.816  35.825  11.569
89203W        W54364   4.244   2.259   1.359
89204W        W54365  22.287  27.899  12.502
89205W        W54366   4.435  41.961  12.829
89206W        W54367  28.654  42.841  13.449
89207W        W54368  39.378  43.089  12.177
89208W        W54369  30.168  14.171  12.856
89209W        W54370  32.732   7.462  10.929
89210W        W54371   6.099  27.147   0.093
89211W        W54372  41.557  39.536   1.871
89212W        W54373  28.561   4.145  11.787
89213W        W54374  42.053  24.712   4.281
89214W        W54375  29.054  25.073  13.945
89215W        W54376  17.696  36.005   0.470
89216W        W54377  36.148  38.122   4.480
89217W        W54378  21.296  17.835  12.271
89218W        W54379  25.490  10.247  11.312
89219W        W54380  39.425  15.258  14.074
89220W        W54381  20.762  29.557  12.048
89221W        W54382  39.901  22.505  13.958
89222W        W54383  42.360  34.010  11.459
89223W        W54384  29.194  13.799   0.376
89224W        W54385  24.303  43.753   2.189
89225W        W54386   3.418  17.533  13.607
89226W        W54387  25.181  34.225  14.690
89227W        W54388  26.974   8.800   2.214
89228W        W54389   7.421   5.755  11.683
89229W        W54390  36.869   6.840   2.870
89230W        W54391   7.223   1.646  13.318
89231W        W54392  35.943  10.304   0.474
89232W        W54393   0.936  36.283   3.478
89233W        W54394  17.186   9.290   3.218
89234W        W54395  25.604   9.097  13.816
89235W        W54396  29.362  28.367   1.831
89236W        W54397   3.008   7.212   3.104
89237W        W54398  43.584   5.682   3.348
89238W        W54399   9.554  30.358  14.995
89239W        W54400  32.329  25.966  14.064
89240W        W54401  41.280  23.668   1.674
89241W        W54402   5.843  21.572  11.473
89242W        W54403  32.414  11.194  13.315
89243W        W54404  37.467   7.618   4.693
89244W        W54405  33.744  42.043   1.253
89245W        W54406  42.050  28.702   4.205
89246W        W54407  28.690  17.605  10.921
89247W        W54408  19.994  15.161   1.709
89248W        W54409  38.500   8.158   1.465
89249W        W54410   1.754  15.659   4.982
89250W        W54411   4.283  15.067  12.502
89251W        W54412  40.770  41.030   0.882
89252W        W54413  38.992  39.508   4.212
89253W        W54414  27.528  33.042  14.055
89254W        W54415   4.320  32.418  12.970
89255W        W54416  25.867  18.863  12.553
89256W        W54417  30.342  28.549  11.830
89257W        W54418   8.355   1.491  11.105
89258W        W54419  30.312  35.550   0.477
89259W        W54420   0.173  13.349   0.808
89260W        W54421  39.050  36.905   4.211
89261W        W54422  30.853  22.879  10.788
89262W        W54423  43.029   2.341  11.225
89263W        W54424   0.001  38.573   1.700
89264W        W54425   1.801   6.349   3.313
89265W        W54426  21.814   1.392   2.961
89266W        W54427   8.756  41.145  13.419
89267W        W54428   6.183  37.326  14.009
89268W        W54429   9.411  29.048  11.675
89269W        W54430  35.783   6.288  14.835
89270W        W54431  20.528   7.424  13.276
89271W        W54432  38.775  27.643  14.170
89272W        W54433  44.107  19.629  13.648
89273W        W54434  32.929  28.149   3.097
89274W        W54435   9.342  29.687   1.252
89275W        W54436  42.277  36.038   9.976
89276W        W54437  30.394  39.517   3.799
89277W        W54438  25.688  38.755   3.939
89278W        W54439  11.120  16.118   4.543
89279W        W54440  12.627  15.194   3.116
89280W        W54441  19.236  16.676  11.192
89281W        W54442  26.113  43.239   1.291
89282W        W54443  25.581  40.232   5.794
89283W        W54444  31.360  10.927   1.469
89284W        W54445  37.978  35.119   1.757
89285W        W54446  39.565  18.423  14.709
89286W        W54447  44.540   2.944   1.250
89287W        W54448  34.550  13.356  11.098
89288W        W54449  36.924  38.189  10.989
89289W        W54450   7.483   2.271   1.537
89290W        W54451  38.158  13.582   0.873
89291W        W54452  28.018  34.524  12.950
89292W        W54453  31.521   0.205   3.844
89293W        W54454  11.621  40.994  12.330
89294W        W54455  20.352  28.222  10.245
89295W        W54456  23.117   3.585  12.039
89296W        W54457  17.492  10.032   0.221
89297W        W54458  15.164  12.983   4.295
89298W        W54459  36.072  22.498   0.421
89299W        W54460  43.727  10.378  12.038
89300W        W54461  26.634  24.860   3.721
89301W        W54462  37.058  15.579   5.047
89302W        W54463   7.991  30.002  12.498
89303W        W54464  41.008  14.191  11.901
89304W        W54465  22.579  14.392   1.213
89305W        W54466  35.982  37.266  11.644
89306W        W54467   7.881  15.608  14.429
89307W        W54468  14.831  16.207   5.644
89308W        W54469  35.050  26.490  11.992
89309W        W54470  36.116  40.770   0.906
89310W        W54471  39.990  10.668   1.265
89311W        W54472  18.918  39.480  10.696
89312W        W54473  18.273   7.858   2.918
89313W        W54474  44.508  20.318   4.281
89314W        W54475  29.473  14.670  13.786
89315W        W54476   6.918  30.048   1.367
89316W        W54477   5.126  31.565   3.085
89317W        W54478  29.083  32.379  14.806
89318W        W54479  32.642  14.848   1.536
89319W        W54480  40.120  27.414  13.839
89320W        W54481  25.475  34.492   2.737
89321W        W54482  41.312  31.975   5.065
89322W        W54483   9.119  24.893   4.552
89323W        W54484  11.278   7.947   4.223
89324W        W54485  38.615  21.808   2.712
89325W        W54486  26.596  29.167   4.795
89326W        W54487  41.138  22.248  13.449
89327W        W54488   3.085   3.742   0.379
89328W        W54489  37.460  15.058   4.260
89329W        W54490  33.992   9.222  14.518
89330W        W54491  18.336   4.768  13.864
89331W        W54492  12.348  39.853   2.644
89332W        W54493  11.967  39.823   4.106
89333W        W54494   9.014  11.680   4.929
89334W        W54495  33.950  12.073   4.028
89335W        W54496   9.450  17.478  14.973
89336W        W54497  29.394  13.407   5.069
89337W        W54498  32.400  27.040  13.590
89338W        W54499  24.564  11.506  12.713
89339W        W54500  21.650  44.323  12.504
89340W        W54501  30.263  20.677  11.419
89341W        W54502  10.438  18.305   3.207
89342W        W54503  14.314  35.878   2.658
89343W        W54504  18.278  31.449  14.610
89344W        W54505  14.701  25.653  11.977
89345W        W54506  43.261  18.274   4.966
89346W        W54507  15.981   5.901   5.118
89347W        W54508   7.761  34.018   4.423
89348W        W54509  20.732  44.579   1.867
89349W        W54510  10.704  22.229  10.702
89350W        W54511   4.768   8.158   0.872
89351W        W54512  32.352   7.411  12.261
89352W        W54513  15.611  32.112  14.703
89353W        W54514   1.975  13.725  10.437
89354W        W54515  23.284  25.809   4.702
89355W        W54516  31.992   8.389  10.841
89356W        W54517   9.798  23.575  10.508
89357W        W54518  38.915  16.808   3.561
89358W        W54519  22.689  10.059  12.381
89359W        W54520  27.146  15.202  13.464
89360W        W54521  28.026  36.760   0.285
89361W        W54522  44.820  35.010  12.910
89362W        W54523  33.842  19.105   1.918
89363W        W54524  32.312  38.382   0.842
89364W        W54525  26.299  44.851   4.528
89365W        W54526  31.004   3.395  11.627
89366W        W54527   1.017  44.248   1.809
89367W        W54528  37.457  37.866  11.030
89368W        W54529  42.772  40.921   4.753
89369W        W54530  10.641  26.760  11.509
89370W        W54531  40.378  41.382   3.292
89371W        W54532  36.104  11.355   2.393
89372W        W54533  39.336  16.068   4.156
89373W        W54534  15.621  36.375  13.383
89374W        W54535   1.816  19.059   3.679
89375W        W54536  13.151  44.652  10.813
89376W        W54537   3.804  12.716   2.337
89377W        W54538  37.038  11.080  14.144
89378W        W54539   8.697  13.166  11.987
89379W        W54540   2.861  33.683   0.211
89380W        W54541  25.744  20.125  13.986
89381W        W54542   4.221   5.873  12.002
89382W        W54543  31.187   8.785   2.806
89383W        W54544  12.538  38.225   1.543
89384W        W54545   5.501  18.094  10.652
89385W        W54546  12.833  14.622   4.532
89386W        W54547  30.868   1.308  12.114
89387W        W54548  25.746  41.163  14.707
89388W        W54549  10.203  35.990  12.686
89389W        W54550  20.005  28.083   0.464
89390W        W54551   4.980  29.486   2.845
89391W        W54552   0.937  21.455   1.696
89392W        W54553  32.293  25.121  13.064
89393W        W54554  19.191  27.188   0.453
89394W        W54555  44.171   3.431   5.258
89395W        W54556  40.807  32.178  14.410
89396W        W54557   8.690  22.551   3.376
89397W        W54558  21.235  29.712   3.778
89398W        W54559   3.435   9.926   1.918
89399W        W54560  16.026  42.780  11.625
89400W        W54561  42.322  35.951  14.688
89401W        W54562  11.703   6.797  11.755
89402W        W54563  37.910  38.988  10.696
89403W        W54564  30.123   2.816   3.235
89404W        W54565  27.309  12.881   4.653
89405W        W54566   4.310  27.672   2.943
89406W        W54567  19.733  31.631  12.918
89407W        W54568  21.995  43.031   1.933
89408W        W54569  32.006  40.784  14.627
89409W        W54570  37.857  35.621   1.826
89410W        W54571   2.081   3.704   3.423
89411W        W54572  28.887  12.714  14.061
89412W        W54573   5.367  25.067  12.063
89413W        W54574  39.333  12.469   2.163
89414W        W54575   3.883  34.976   0.227
89415W        W54576  35.953  37.490  13.040
89416W        W54577  15.182  20.531  13.856
89417W        W54578  16.895  12.695   0.286
89418W        W54579  29.517   7.982   3.139
89419W        W54580   0.513  38.932  11.230
89420W        W54581  16.271   2.376   3.123
89421W        W54582  30.205  13.676  14.044
89422W        W54583  44.339  19.907  10.038
89423W        W54584  41.261  20.601   1.224
89424W        W54585  35.023  18.131  14.397
89425W        W54586  25.988  23.549   4.552
89426W        W54587   3.177  22.973  13.404
89427W        W54588  37.351   1.749  10.554
89428W        W54589  36.251   4.343   0.021
89429W        W54590  44.180  38.525  11.315
89430W        W54591  32.919  13.180   1.651
89431W        W54592   2.985  38.929  11.895
89432W        W54593   8.223  33.075  14.881
89433W        W54594  15.229  20.601  13.024
89434W        W54595  29.092   3.026  13.450
89435W        W54596   4.371  25.887  13.836
89436W        W54597  21.019  42.124   0.676
89437W        W54598  16.852  39.444   3.216
89438W        W54599  42.038   7.660   4.226
89439W        W54600  26.003  11.119   3.223
89440W        W54601  40.025  32.858  12.027
89441W        W54602   5.307  19.555   0.649
89442W        W54603  34.193  22.093   4.558
89443W        W54604   1.057  17.119  11.497
89444W        W54605  36.962  35.352  11.512
89445W        W54606  37.761  23.600  12.998
89446W        W54607  19.050   5.109   1.388
89447W        W54608  26.589  21.308   1.820
89448W        W54609   2.324  21.572   1.786
89449W        W54610  14.916  29.881  11.095
89450W        W54611  22.239  21.220  10.567
89451W        W54612  14.806  22.695   1.502
89452W        W54613  18.067   3.914   3.207
89453W        W54614  13.727  17.513  12.039
89454W        W54615  38.624  37.016  11.188
89455W        W54616  13.520  39.831   3.329
89456W        W54617  19.336  12.442  10.641
89457W        W54618   0.760  10.886  11.066
89458W        W54619   4.546  22.494  11.854
89459W        W54620  22.917  18.074   5.053
89460W        W54621  38.588  21.779   1.801
89461W        W54622  21.182   4.659  10.201
89462W        W54623  24.013  15.798  12.041
89463W        W54624  11.832  13.087  14.993
89464W        W54625  16.341  24.379  11.052
89465W        W54626  35.565  37.926  10.652
89466W        W54627  30.486   8.394   2.397
89467W        W54628  14.959  31.498   4.943
89468W        W54629  26.481   9.901   5.167
89469W        W54630  19.438  19.168  10.640
89470W        W54631  31.887  29.638   0.385
89471W        W54632  12.945  29.719   2.273
89472W        W54633  31.118   9.278   4.164
89473W        W54634  15.333  25.172   1.847
89474W        W54635  15.971  42.321   3.521
89475W        W54636  42.028  32.545   4.121
89476W        W54637  36.848  12.397   1.292
89477W        W54638  12.283  23.760  13.566
89478W        W54639  18.533  20.947  11.177
89479W        W54640   6.744  10.712  11.079
89480W        W54641   2.647  20.116   3.685
89481W        W54642  12.659  42.571  11.524
89482W        W54643  23.699  27.118  13.780
89483W        W54644  21.162  10.733   0.235
89484W        W54645  36.517  22.724  12.050
89485W        W54646  27.410  33.479  13.793
89486W        W54647  36.076   7.422  11.470
89487W        W54648  33.352  22.131   0.317
89488W        W54649  43.444  25.094   4.855
89489W        W54650  41.836   6.677  14.159
89490W        W54651  35.442  29.597  11.066
89491W        W54652  12.688  22.172  10.961
89492W        W54653  37.978  24.699  12.393
89493W        W54654  32.635   7.442  13.840
89494W        W54655  39.957  42.854   1.761
89495W        W54656  22.805   3.313  13.395
89496W        W54657  33.351   2.938  13.624
89497W        W54658  44.866  28.669  12.856
89498W        W54659  40.775  21.401  10.997
89499W        W54660  13.347  43.614   1.498
89500W        W54661  27.306  14.641  11.324
89501W        W54662  37.432  26.514  11.765
89502W        W54663   8.662  38.707   4.037
89503W        W54664  33.925   0.509  11.970
89504W        W54665  35.317  15.673  14.576
89505W        W54666  33.689  41.947  12.472
89506W        W54667  44.280  13.678   1.775
89507W        W54668  26.656  33.408  14.482
89508W        W54669  15.510  44.485  12.552
89509W        W54670  28.110  23.030   0.803
89510W        W54671  18.594  17.591   2.434
89511W        W54672  10.398  36.404  12.420
89512W        W54673  10.807  37.168   1.771
89513W        W54674  14.335  35.111  14.275
89514W        W54675  25.650  22.998  13.453
89515W        W54676   4.213  33.158   1.874
89516W        W54677  15.676   3.965   2.753
89517W        W54678  14.900  27.221  14.506
89518W        W54679  41.905  28.942  11.223
89519W        W54680   0.835  40.780   1.376
89520W        W54681  41.534  20.631  12.485
89521W        W54682   1.889  33.932   1.516
89522W        W54683  27.105  11.406  14.778
89523W        W54684  18.758  30.423   1.029
89524W        W54685  12.150  10.190   4.457
89525W        W54686  39.756  41.376   2.652
89526W        W54687  31.624   5.629  14.976
89527W        W54688  19.804   6.384  11.578
89528W        W54689  14.192  37.888   0.915
89529W        W54690  18.548  26.113   1.185
89530W        W54691  25.661  35.633   1.303
89531W        W54692  26.495  23.497   4.511
89532W        W54693  13.117  31.918   3.587
89533W        W54694  25.405  43.483  10.282
89534W        W54695  23.071   7.843  10.758
89535W        W54696  38.166  40.731  14.240
89536W        W54697  13.753  39.253  11.952
89537W        W54698  15.628  40.595   2.157
89538W        W54699  37.059  32.694   0.861
89539W        W54700  14.929  17.087  12.924
89540W        W54701  26.608  14.371   3.197
89541W        W54702  10.214  14.089  13.074
89542W        W54703  10.800  20.475   1.520
89543W        W54704  28.528  38.131   1.607
89544W        W54705  32.790  10.239   1.157
89545W        W54706  16.781  35.275   2.452
89546W        W54707  14.530  29.976  12.243
89547W        W54708  30.393  13.669   2.322
89548W        W54709  25.187  12.665  13.802
89549W        W54710  44.998  21.008  11.121
89550W        W54711  37.045  11.785  12.914
89551W        W54712   3.705  12.185   1.431
89552W        W54713  12.597  14.796   2.710
89553W        W54714  33.359  43.315   2.920
89554W        W54715  28.234  26.948   3.517
89555W        W54716  37.367  27.039  10.610
89556W        W54717  22.057   4.169   4.042
89557W        W54718  40.489   1.141  14.323
89558W        W54719  43.336  37.305  13.027
89559W        W54720  15.238  13.342   1.391
89560W        W54721  13.109  10.142   1.422
89561W        W54722  21.168  42.286  11.618
89562W        W54723  41.935  11.336   4.363
89563W        W54724  15.586  14.716   2.830
89564W        W54725   5.643   3.200  12.486
89565W        W54726  30.429  24.288  13.861
89566W        W54727  15.905  29.064  12.596
89567W        W54728  27.415  37.821  11.747
89568W        W54729  33.814  42.122   3.731
89569W        W54730   7.326   9.170  14.956
89570W        W54731  38.963   2.905   1.248
89571W        W54732   3.210  30.431   0.287
89572W        W54733  44.622  26.937   0.371
89573W        W54734  13.282  44.006   0.061
89574W        W54735  22.908  32.844  14.033
89575W        W54736  13.692  31.774   2.306
89576W        W54737  35.032  31.210  11.454
89577W        W54738  39.109  18.572  11.502
89578W        W54739  28.066  16.537   2.178
89579W        W54740   6.735  33.171  11.549
89580W        W54741  10.620  17.754   4.289
89581W        W54742  13.789  35.886   3.810
89582W        W54743  35.459  32.925  13.734
89583W        W54744  10.829  16.733   3.187
89584W        W54745  16.840  41.465   1.248
89585W        W54746   2.769  22.175  13.070
89586W        W54747  15.133  19.254  13.404
89587W        W54748  43.228  15.702   4.465
89588W        W54749   3.282  18.578  14.955
89589W        W54750   4.520  40.454   0.217
89590W        W54751   0.512   6.202   4.505
89591W        W54752  36.496  13.127   0.096
89592W        W54753  38.769  22.081  10.658
89593W        W54754  20.184   5.034  14.362
89594W        W54755  13.115  34.572  14.872
89595W        W54756  11.692   0.905   0.314
89596W        W54757  12.845  30.232   2.264
89597W        W54758  22.130  23.735  14.023
89598W        W54759  21.465  31.499   3.886
89599W        W54760  33.812  31.864   4.040
89600W        W54761   7.187   4.949   4.443
89601W        W54762  19.017  36.874  12.973
89602W        W54763  19.568  14.998  10.304
89603W        W54764  12.024  14.828  14.066
89604W        W54765  31.874  42.007   1.258
89605W        W54766  36.081  30.672   4.697
89606W        W54767   7.707  37.628   0.263
89607W        W54768  10.771  15.795  13.409
89608W        W54769  36.411   5.348   3.262
89609W        W54770  22.236  42.072   2.619
89610W        W54771  37.569  28.838   4.760
89611W        W54772   9.172  37.306   4.102
89612W        W54773   7.820  21.209   0.252
89613W        W54774  31.866  12.384  13.769
89614W        W54775  30.168  10.634   3.366
89615W        W54776   2.470  29.413   3.692
89616W        W54777  20.265  43.214   3.687
89617W        W54778  10.062  32.589   3.089
89618W        W54779  13.319   3.514  12.752
89619W        W54780  20.108  41.821   2.892
89620W        W54781  10.057  33.589  12.306
89621W        W54782  12.642   9.132   0.025
89622W        W54783  43.405   1.981  12.394
89623W        W54784  10.818  37.444  12.556
89624W        W54785  16.786  38.354  13.215
89625W        W54786  18.660  12.359   4.112
89626W        W54787  21.604   0.386  13.788
89627W        W54788   2.738  24.991  11.424
89628W        W54789   0.960   0.176   3.723
89629W        W54790  13.432  13.998  10.229
89630W        W54791   2.906   5.826  13.749
89631W        W54792  40.963  21.186  13.502
89632W        W54793  12.335  23.552  10.773
89633W        W54794   9.600   6.181   4.225
89634W        W54795  38.198  24.226  11.706
89635W        W54796  26.221   9.294  13.332
89636W        W54797   7.231  38.178   2.510
89637W        W54798   3.407   2.265  10.402
89638W        W54799   4.809  37.465  12.561
89639W        W54800   5.940  11.351  14.821
89640W        W54801  19.841  36.408   1.820
89641W        W54802  40.537   1.801   2.056
89642W        W54803  38.398  26.458   1.848
89643W        W54804  15.299  25.003  12.456
89644W        W54805  10.129  18.813   4.524
89645W        W54806   0.855   4.039  12.435
89646W        W54807   7.250  19.130   0.852
89647W        W54808  11.743   1.785   3.240
89648W        W54809  37.519   3.861  14.480
89649W        W54810  11.299  37.330   0.226
89650W        W54811  29.823  42.418  10.371
89651W        W54812  37.458  42.305   4.130
89652W        W54813  35.232   0.416  12.548
89653W        W54814   2.431   5.913   0.909
89654W        W54815  13.694   0.371  11.314
89655W        W54816  24.694   7.654   4.843
89656W        W54817  12.634  41.985  10.690
89657W        W54818  44.881  38.438  13.778
89658W        W54819  15.271  31.899   1.047
89659W        W54820  41.208  43.512  11.502
89660W        W54821  35.879  19.515  12.125
89661W        W54822  15.035  23.824  14.984
89662W        W54823  35.260  30.324   1.835
89663W        W54824  15.837  10.293  13.988
89664W        W54825  38.216  33.016  13.539
89665W        W54826  37.942  38.372  11.116
89666W        W54827  10.199  29.246   1.915
89667W        W54828  10.228  43.618  12.668
89668W        W54829   9.873  31.074  11.394
89669W        W54830  17.538  23.121   2.676
89670W        W54831  40.037   5.714  10.450
89671W        W54832   9.823   3.517   0.370
89672W        W54833  21.216  20.374   1.771
89673W        W54834   8.705   2.283  12.613
89674W        W54835  32.613  35.433  11.328
89675W        W54836  17.515  14.126  14.984
89676W        W54837  30.921  44.264   0.291
89677W        W54838  11.783  40.008  11.048
89678W        W54839  32.310   8.041   2.741
89679W        W54840  11.545   4.117   4.434
89680W        W54841  13.540  43.280   3.214
89681W        W54842  18.004  33.284  12.518
89682W        W54843  40.045  29.040  14.503
89683W        W54844  35.873  31.400   1.274
89684W        W54845  40.576  10.755  11.052
89685W        W54846  43.917  18.131   0.022
89686W        W54847  42.824  34.939   2.104
89687W        W54848  44.640   8.914  12.207
89688W        W54849  20.662   1.264   4.137
89689W        W54850  30.036  41.927  13.451
89690W        W54851   5.409  10.916   0.934
89691W        W54852  23.541  24.622   0.347
89692W        W54853  34.433  44.952   3.193
89693W        W54854  11.207  33.447  14.446
89694W        W54855  24.758   2.190  13.814
89695W        W54856  30.638  12.363   0.344
89696W        W54857  19.515  34.921   2.672
89697W        W54858  20.854   4.198  14.785
89698W        W54859  29.861  33.943   3.715
89699W        W54860  21.450  29.492   0.951
89700W        W54861  23.048   4.850   4.619
89701W        W54862  39.714  25.882  11.647
89702W        W54863  17.978  10.142   1.818
89703W        W54864  18.606  33.492   1.444
89704W        W54865  43.303  39.463   2.798
89705W        W54866   8.971  14.482   2.881
89706W        W54867  44.240  15.656   4.024
89707W        W54868  34.954  36.968  10.991
89708W        W54869  40.361  29.610   1.751
89709W        W54870  43.939  38.801  12.494
89710W        W54871  27.970   6.917  12.195
89711W        W54872  33.200  43.859  11.640
89712W        W54873  21.492  33.115   4.738
89713W        W54874  38.874  13.889   2.945
89714W        W54875  35.649  17.690  14.757
89715W        W54876  26.127   7.717  14.393
89716W        W54877   6.904  21.628   2.829
89717W        W54878  39.173   4.331  11.840
89718W        W54879  35.294  10.209   1.230
89719W        W54880  34.258  37.412  10.289
89720W        W54881  35.506   6.279   4.743
89721W        W54882   5.165   1.177   1.336
89722W        W54883  44.824  20.752   0.621
89723W        W54884  13.340  17.111  11.483
89724W        W54885  10.717  30.955  12.662
89725W        W54886  15.637  10.330   3.983
89726W        W54887  41.381  19.796   2.771
89727W        W54888   3.512  14.627   4.055
89728W        W54889  21.758  27.907  11.143
89729W        W54890   4.297  35.680  11.208
89730W        W54891  36.126  39.027   0.253
89731W        W54892   9.741  14.783   3.130
89732W        W54893  32.086  21.626   1.974
89733W        W54894  18.775  21.554  12.601
89734W        W54895  14.656  25.050  10.515
89735W        W54896  19.997   4.770   1.208
89736W        W54897  39.365   3.727   2.710
89737W        W54898  41.969  34.918   2.267
89738W        W54899  18.292   5.742  14.082
89739W        W54900  33.455  35.383   3.837
89740W        W54901  10.367  14.591   2.773
89741W        W54902  19.754  44.836   0.017
89742W        W54903  41.374  14.819   1.187
89743W        W54904  31.642  29.923  13.247
89744W        W54905  23.076  27.860  12.450
89745W        W54906  19.047  38.945   2.925
89746W        W54907  33.938   1.245   4.605
89747W        W54908   9.708  11.283   1.387
89748W        W54909   6.358  14.195  12.850
89749W        W54910   2.747  17.213  14.810
89750W        W54911  28.850  36.920   2.738
89751W        W54912   1.349  24.240  13.933
89752W        W54913  33.681  41.438  11.733
89753W        W54914  18.173  37.995   3.752
89754W        W54915  27.643  38.977   1.363
89755W        W54916  13.746  18.358  10.560
89756W        W54917   0.069   1.178  10.965
89757W        W54918  19.908   7.970   4.887
89758W        W54919   4.220  16.059   1.390
89759W        W54920  10.178  13.419  11.079
89760W        W54921  26.980  12.180  11.571
89761W        W54922  29.358   5.832  12.847
89762W        W54923  39.572  36.144  12.525
89763W        W54924   7.190  39.473  11.910
89764W        W54925   6.168   2.564  12.228
89765W        W54926  12.552  23.980   1.581
89766W        W54927   6.555   8.186   2.182
89767W        W54928  26.636  39.992  12.026
89768W        W54929  20.632   9.630   4.304
89769W        W54930  43.329  24.684  12.562
89770W        W54931  21.070  25.898   2.754
89771W        W54932  13.673   4.458   2.231
89772W        W54933  12.095  21.075   0.435
89773W        W54934  32.359  44.064   2.294
89774W        W54935   3.961   5.182  12.447
89775W        W54936  32.555  39.581   0.820
89776W        W54937  25.644   0.481   4.167
89777W        W54938  41.099  21.003   1.839
89778W        W54939   1.713  15.728   0.868
89779W        W54940   4.715  29.610  13.599
89780W        W54941  34.070  24.193   4.232
89781W        W54942  41.873   7.399  13.060
89782W        W54943  11.889   3.902   4.776
89783W        W54944   4.118  41.192  12.050
89784W        W54945  35.446  34.591   0.700
89785W        W54946  38.752  34.612  12.074
89786W        W54947  34.570  15.129  11.661
89787W        W54948  29.893  34.417  14.276
89788W        W54949   9.593  37.624  11.277
89789W        W54950  10.235  35.980  12.159
89790W        W54951  44.379   2.613   3.437
89791W        W54952  23.505   4.456   1.389
89792W        W54953  16.022   1.015  11.136
89793W        W54954   3.771   4.822   0.417
89794W        W54955   6.315  15.299   2.923
89795W        W54956  10.976  30.091   0.365
89796W        W54957  30.580   9.957   2.655
89797W        W54958  34.808  33.953  12.398
89798W        W54959  38.276  31.617   3.196
89799W        W54960  32.531  27.071   2.706
89800W        W54961   7.859  17.891  12.118
89801W        W54962  38.626   8.194  10.961
89802W        W54963  12.253   0.053   4.085
89803W        W54964   4.294  21.057  11.662
89804W        W54965  37.620  25.456  14.789
89805W        W54966  43.575  27.125   3.773
89806W        W54967  31.381  15.652  14.846
89807W        W54968   1.823  35.971   1.300
89808W        W54969   5.890   6.198   2.194
89809W        W54970   8.675  33.045   1.857
89810W        W54971  33.184  18.593  14.379
89811W        W54972  32.860  25.628   3.757
89812W        W54973   1.666   1.481   1.000
89813W        W54974  22.312  27.090  11.425
89814W        W54975  36.258  15.836  13.462
89815W        W54976   7.986  19.796  14.896
89816W        W54977  41.146   3.050   3.609
89817W        W54978  27.411  15.679  11.624
89818W        W54979  28.759   0.927   4.084
89819W        W54980  33.078  29.122   4.327
89820W        W54981  12.852  44.090   0.375
89821W        W54982  34.386   9.637  14.733
89822W        W54983  17.011   0.407  14.448
89823W        W54984  29.955   6.270   2.130
89824W        W54985  18.099  24.167  12.555
89825W        W54986  32.107  35.405  13.485
89826W        W54987  41.774  14.804   3.687
89827W        W54988  13.259   5.922  14.239
89828W        W54989   4.895  40.503   3.797
89829W        W54990  33.858  16.797  12.988
89830W        W54991   1.223  30.898  12.877
89831W        W54992  30.476  21.227   1.918
89832W        W54993   0.645  18.818   0.850
89833W        W54994  12.160  21.587  10.570
89834W        W54995  26.130   8.862  12.585
89835W        W54996  12.413  20.164  12.973
89836W        W54997  28.515  28.976  12.094
89837W        W54998   2.227  26.690   2.367
89838W        W54999  41.984  19.033  13.548
89839W        W55000  40.437   5.139  12.710
89840W        W55001   7.400  39.546   2.800
89841W        W55002   3.915   4.611   3.621
89842W        W55003  11.601  12.273  10.974
89843W        W55004  25.069  29.492  14.516
89844W        W55005  26.668  43.741  10.677
89845W        W55006   3.910  40.169  12.973
89846W        W55007  34.447   8.111  14.736
89847W        W55008  32.835  31.903   2.963
89848W        W55009  38.010   7.706  14.807
89849W        W55010  29.016  24.539   4.083
89850W        W55011  12.581   4.954  12.293
89851W        W55012   7.754  20.445   2.895
89852W        W55013  35.917  30.960  14.475
89853W        W55014   1.612  10.338   2.645
89854W        W55015  33.509  24.634   0.194
89855W        W55016  31.212   1.427   0.457
89856W        W55017  41.035  37.622  12.012
89857W        W55018  11.816  20.455  13.338
89858W        W55019  10.059  39.135   2.858
89859W        W55020  29.096  41.488  10.816
89860W        W55021  36.124  27.103  12.723
89861W        W55022  23.350  44.124  14.482
89862W        W55023   2.688  11.847   3.535
89863W        W55024   6.963  33.014   4.059
89864W        W55025  15.219  30.570  12.067
89865W        W55026  14.446   2.999  10.984
89866W        W55027   7.882   0.095  14.909
89867W        W55028  31.535  40.025   2.220
89868W        W55029  21.817  34.660   3.682
89869W        W55030  27.953   2.289  11.641
89870W        W55031  38.067  21.648   0.397
89871W        W55032  14.273   8.131   3.132
89872W        W55033  37.092   7.408   0.901
89873W        W55034   6.768  20.491   1.938
89874W        W55035  16.505  11.081   3.381
89875W        W55036  19.666  22.295   3.657
89876W        W55037   2.015  13.026   1.288
89877W        W55038   9.233  17.002   3.565
89878W        W55039  19.207  19.360   2.665
89879W        W55040  23.193  33.597  12.373
89880W        W55041   7.578  24.000   3.545
89881W        W55042   2.295  24.024  13.585
89882W        W55043  41.691  38.117   4.048
89883W        W55044   6.820   7.171  14.333
89884W        W55045  31.336  25.202  12.683
89885W        W55046   3.214  40.288   2.929
89886W        W55047  40.437   6.265   1.276
89887W        W55048  22.374   7.999   2.125
89888W        W55049  11.605   9.352  12.170
89889W        W55050  17.735  38.423   3.013
89890W        W55051  19.078  18.420  11.702
89891W        W55052  27.954  30.434   4.932
89892W        W55053  26.207  32.032   0.181
89893W        W55054   1.508  33.112  12.853
89894W        W55055  14.431   1.839   2.642
89895W        W55056  39.070  40.705  14.030
89896W        W55057   6.981  25.832  13.390
89897W        W55058   3.360   3.956  14.294
89898W        W55059  29.555  37.576   2.725
89899W        W55060   5.964  28.713  12.906
89900W        W55061  22.579  25.217   2.633
89901W        W55062   9.856  42.396   4.488
89902W        W55063  12.796   6.840  13.380
89903W        W55064  42.349   8.015   2.754
89904W        W55065   4.432  11.621   2.697
89905W        W55066  13.809  14.710  12.208
89906W        W55067  31.154  43.159  14.440
89907W        W55068  40.455  44.533   0.861
89908W        W55069  17.707  43.038  10.425
89909W        W55070   5.646  10.918  14.506
89910W        W55071  15.290  44.774  13.703
89911W        W55072   2.657  30.559  12.912
89912W        W55073  44.349  27.524  10.078
89913W        W55074  31.245  28.828  12.647
89914W        W55075  12.419  30.318  11.145
89915W        W55076  30.471  23.879  11.976
89916W        W55077  36.571  42.728  14.869
89917W        W55078  26.165  20.198   0.927
89918W        W55079  41.228  40.636   3.225
89919W        W55080  39.702  40.384   0.483
89920W        W55081  20.685  33.667   0.331
89921W        W55082  42.177  39.597  12.563
89922W        W55083  29.837  19.449  13.079
89923W        W55084  14.142   1.413  11.110
89924W        W55085  16.063   2.782   2.811
89925W        W55086   8.372  25.611   2.232
89926W        W55087  34.480  32.927   3.546
89927W        W55088  29.134  39.306   2.245
89928W        W55089  23.298  35.493  11.945
89929W        W55090  32.100  42.422   2.807
89930W        W55091  35.971  23.655  10.709
89931W        W55092  20.757  23.766   0.214
89932W        W55093  17.303  42.345   4.902
89933W        W55094   2.185  37.317   4.578
89934W        W55095  26.321  38.620   2.249
89935W        W55096  37.893  14.097  10.715
89936W        W55097  38.985  34.592  13.622
89937W        W55098   9.320  44.395   2.750
89938W        W55099  43.564  42.023   1.448
89939W        W55100   3.699  31.897  10.719
89940W        W55101  19.745  33.197   3.309
89941W        W55102  40.341   3.220  13.379
89942W        W55103  43.093   0.427   1.893
89943W        W55104   3.317  16.556   2.259
89944W        W55105   8.198  22.272   0.776
89945W        W55106  38.840  40.323   3.532
89946W        W55107  18.860  13.072   2.387
89947W        W55108   4.221  38.868   3.248
89948W        W55109  33.565  23.992   9.912
89949W        W55110  12.873   7.712   1.228
89950W        W55111   9.765  36.920   0.466
89951W        W55112  30.377  20.172  10.563
89952W        W55113  29.933   7.523  12.079
89953W        W55114  30.646  25.015  10.756
89954W        W55115  23.186   7.443  10.468
89955W        W55116  41.249   9.703   3.281
89956W        W55117  19.112  24.099  14.147
89957W        W55118  28.538  18.995  14.543
89958W        W55119  36.438  32.675  14.529
89959W        W55120  40.662  33.204   0.584
89960W        W55121  26.734  15.568  12.348
89961W        W55122  39.396  40.319   4.299
89962W        W55123   7.270  12.332   1.281
89963W        W55124  12.783  36.565   4.480
89964W        W55125   9.903  24.702  12.847
89965W        W55126  36.046  23.195   3.606
89966W        W55127  28.903  25.011   4.342
89967W        W55128  37.797  36.139   0.962
89968W        W55129  12.688  28.396   0.381
89969W        W55130  41.839  31.667  13.475
89970W        W55131  44.452   3.867   1.182
89971W        W55132  14.187   8.350   4.631
89972W        W55133   6.083  14.332   2.787
89973W        W55134  22.873   7.564  12.039
89974W        W55135   5.682  44.811   1.774
89975W        W55136   1.300  42.344   2.175
89976W        W55137  18.699  24.392   1.469
89977W        W55138  20.893  38.450   1.470
89978W        W55139  41.507  37.545  11.800
89979W        W55140  19.577  29.627   1.471
89980W        W55141  28.389  24.990   4.543
89981W        W55142   2.905  35.608  12.645
89982W        W55143  18.826  36.293  12.530
89983W        W55144  37.792  27.881  12.026
89984W        W55145   8.378  20.505   1.208
89985W        W55146  12.574   7.182   2.762
89986W        W55147  13.974  24.577  12.057
89987W        W55148  40.936  16.232  14.132
89988W        W55149   0.364  29.650   3.031
89989W        W55150  37.416  19.225  12.020
89990W        W55151  32.647  41.799  13.488
89991W        W55152  24.086  14.101  11.606
89992W        W55153  24.665  36.924   3.651
89993W        W55154  22.478  10.854  12.651
89994W        W55155  36.977  19.119  12.837
89995W        W55156  35.401  16.324   3.278
89996W        W55157  18.020  22.576  11.124
89997W        W55158  27.734  12.140  14.958
89998W        W55159   2.160  24.078   2.831
89999W        W55160   2.303  22.644   2.800
90000W        W55161   1.464  18.251   2.154
90001W        W55162  10.665  17.335   3.884
90002W        W55163  43.413   6.768  12.508
90003W        W55164  24.421   1.995   0.491
90004W        W55165  28.444  20.286  10.752
90005W        W55166  11.707   8.294   2.296
90006W        W55167  20.438   2.356  11.564
90007W        W55168  43.414   0.258   2.303
90008W        W55169  44.823  32.176   0.925
90009W        W55170  32.350  36.374   4.803
90010W        W55171  38.901  38.321  11.214
90011W        W55172   3.850  12.630  14.949
90012W        W55173   4.661  14.016   2.179
90013W        W55174  41.986  29.547   0.786
90014W        W55175  31.095  10.632  13.002
90015W        W55176  23.883  17.129  10.766
90016W        W55177  12.624  23.974  11.957
90017W        W55178  31.840  30.524  12.015
90018W        W55179  11.945  41.023   1.889
90019W        W55180  27.983   1.893  14.190
90020W        W55181  29.313  43.808  11.944
90021W        W55182  11.127  28.190  12.667
90022W        W55183  15.713  24.938   3.372
90023W        W55184   8.857  44.329  10.662
90024W        W55185  28.466   9.727  12.385
90025W        W55186  44.044  41.356   3.629
90026W        W55187  43.761  32.330   0.890
90027W        W55188   1.876   5.866  14.113
90028W        W55189  18.763  26.426  11.231
90029W        W55190   3.761  30.095   1.345
90030W        W55191  16.158   4.402  14.289
90031W        W55192  16.084  24.440   4.751
90032W        W55193  44.883   5.194   1.597
90033W        W55194  25.970  36.818   1.698
90034W        W55195  32.102  20.250  14.783
90035W        W55196  44.636   9.679  12.745
90036W        W55197  17.631  15.641   1.443
90037W        W55198   5.716   9.998   3.917
90038W        W55199  35.565  14.784   4.195
90039W        W55200  25.456   1.717  14.876
90040W        W55201   4.424  32.985  14.576
90041W        W55202  30.077   1.938  13.400
90042W        W55203  43.580  24.705   2.606
90043W        W55204   2.584  30.184  10.087
90044W        W55205  20.282  23.991   0.295
90045W        W55206   3.940  10.456   0.578
90046W        W55207  28.642  33.970  12.174
90047W        W55208  17.727   0.865  12.088
90048W        W55209  23.632   8.135   2.794
90049W        W55210  43.614  27.661  12.591
90050W        W55211  21.183   9.429  14.220
90051W        W55212  25.219   6.855  13.374
90052W        W55213  30.106   5.820   2.895
90053W        W55214   0.608   2.149  14.446
90054W        W55215  10.723  30.566   3.620
90055W        W55216  40.081  33.607   3.834
90056W        W55217  36.066  40.567   3.230
90057W        W55218  21.710  43.565  11.145
90058W        W55219  21.587  41.465  12.591
90059W        W55220  38.009  40.109  13.461
90060W        W55221  21.460  17.292   5.279
90061W        W55222  10.695   8.937  11.149
90062W        W55223  20.864  27.511  13.492
90063W        W55224   7.452   7.930   2.250
90064W        W55225  42.985  15.611  14.873
90065W        W55226  41.595  19.555   3.174
90066W        W55227  31.347  41.406  12.983
90067W        W55228  23.109  43.313  12.159
90068W        W55229  21.776  12.222   1.224
90069W        W55230  10.839   3.271   2.788
90070W        W55231  39.973  24.653   1.195
90071W        W55232  13.676  11.907  12.555
90072W        W55233  21.231  23.672   0.449
90073W        W55234  22.760  39.280  14.833
90074W        W55235  28.273   4.959  12.544
90075W        W55236  32.110  41.230  14.379
90076W        W55237  41.384  27.324  13.533
90077W        W55238  18.481  38.382   4.231
90078W        W55239  28.658  26.662   3.411
90079W        W55240  17.183  31.040  10.891
90080W        W55241  37.039  35.190  12.620
90081W        W55242  33.805   5.481   1.812
90082W        W55243  39.483  29.075  11.121
90083W        W55244  38.419  31.617  12.904
90084W        W55245  44.978  27.188   4.124
90085W        W55246   1.593  35.328   3.635
90086W        W55247  13.661   7.887   1.980
90087W        W55248  27.197  42.987   3.476
90088W        W55249  36.374  26.294   2.703
90089W        W55250  11.827  22.178  12.268
90090W        W55251  31.594  21.917   4.404
90091W        W55252  40.596   9.955   4.638
90092W        W55253   4.262   0.731   0.375
90093W        W55254  41.363  16.352  13.874
90094W        W55255  31.107   1.832   1.709
90095W        W55256  33.448  17.293  12.944
90096W        W55257  23.022  22.025   3.164
90097W        W55258  31.929   7.614   1.329
90098W        W55259  37.256  33.300   4.895
90099W        W55260  33.328  18.426   5.243
90100W        W55261  12.151  19.389  11.142
90101W        W55262  36.195  16.010  12.668
90102W        W55263  15.243  44.305  13.963
90103W        W55264  27.002  10.867   1.447
90104W        W55265  29.986   2.634   0.361
90105W        W55266  40.460  34.518  14.500
90106W        W55267  23.113  38.708   1.485
90107W        W55268   6.807  33.878   3.596
90108W        W55269  14.864  38.560   1.356
90109W        W55270  38.368   1.748   0.731
90110W        W55271  14.699  32.995  13.106
90111W        W55272   2.946  33.281  12.034
90112W        W55273  19.184   2.622  13.961
90113W        W55274  38.455   7.740  10.779
90114W        W55275   4.254  14.069  12.490
90115W        W55276  14.028  22.088   2.740
90116W        W55277  13.983  40.877   2.733
90117W        W55278  14.574   9.809  11.571
90118W        W55279  38.834  33.621   1.144
90119W        W55280  12.742  36.169   0.387
90120W        W55281  29.490   3.137  14.796
90121W        W55282  36.618   8.677   1.311
90122W        W55283  13.563  35.984  12.149
90123W        W55284  35.602   4.867   4.403
90124W        W55285  44.468   6.432   2.735
90125W        W55286   8.253  42.597   4.996
90126W        W55287  11.166  13.643  14.921
90127W        W55288  19.282  43.942   4.953
90128W        W55289  27.737  33.955  12.206
90129W        W55290  31.816  10.182   4.239
90130W        W55291  31.361   5.622   3.565
90131W        W55292  41.110  34.610  10.978
90132W        W55293  20.145  19.106   2.296
90133W        W55294  14.189  12.965  11.554
90134W        W55295  20.310   7.351  10.686
90135W        W55296   8.556  28.171   1.856
90136W        W55297  21.041   1.220  10.412
90137W        W55298  36.543  39.652  12.131
90138W        W55299  12.184  15.152   4.045
90139W        W55300  17.770  38.352  12.942
90140W        W55301  34.898  16.124   1.012
90141W        W55302  10.512   1.554   4.580
90142W        W55303  20.568  17.882  14.327
90143W        W55304  19.310  24.381   0.327
90144W        W55305  25.185   2.220  14.374
90145W        W55306  10.492  15.117  11.090
90146W        W55307   9.205  20.179   0.770
90147W        W55308  14.330   9.772   3.175
90148W        W55309  37.542  20.716  12.540
90149W        W55310  19.619  44.370   4.088
90150W        W55311  40.554   9.065  11.052
90151W        W55312  21.204  28.116   1.606
90152W        W55313  41.683  32.314  13.897
90153W        W55314  24.062  44.036   0.768
90154W        W55315  17.280  19.698  13.881
90155W        W55316   4.631  14.171  12.867
90156W        W55317  39.539   6.312  12.519
90157W        W55318  19.108  44.550  13.930
90158W        W55319  33.766  34.384   1.192
90159W        W55320  37.422   0.754  12.649
90160W        W55321  43.239   5.958  11.012
90161W        W55322  24.446   2.492  13.505
90162W        W55323  32.864  27.933  10.785
90163W        W55324  38.367  24.766   2.083
90164W        W55325   8.698   1.344   0.678
90165W        W55326  31.019  13.248  11.734
90166W        W55327  39.008  14.602   3.346
90167W        W55328  22.816  42.357   4.355
90168W        W55329   6.029  40.269  13.478
90169W        W55330  36.636  27.246  11.702
90170W        W55331   1.270  44.365  11.936
90171W        W55332  18.672  21.010   2.426
90172W        W55333  12.508   5.954   3.250
90173W        W55334  13.584  33.038  12.098
90174W        W55335  15.031  25.165   0.506
90175W        W55336  25.940  31.141   3.361
90176W        W55337  38.886  27.936  12.859
90177W        W55338  24.530  13.099   3.782
90178W        W55339  27.521   8.795   3.573
90179W        W55340  17.712  25.288  14.352
90180W        W55341  28.059  39.334   1.244
90181W        W55342  40.535   4.589   0.796
90182W        W55343  40.744  22.743   0.917
90183W        W55344  40.889  19.081  10.615
90184W        W55345  14.187  20.868  14.639
90185W        W55346   2.180  43.395  10.698
90186W        W55347  42.071  11.787   5.071
90187W        W55348  13.221   9.932  13.863
90188W        W55349  21.735  15.255  14.942
90189W        W55350  25.053  37.241   4.646
90190W        W55351  13.067   0.684  12.452
90191W        W55352   5.278  11.418   0.918
90192W        W55353  20.050  10.276   1.364
90193W        W55354  12.118  29.567  12.909
90194W        W55355  15.452  15.696   0.997
90195W        W55356  40.746   1.246   4.239
90196W        W55357  15.220   5.416   1.737
90197W        W55358  40.383  18.152   1.758
90198W        W55359  31.522  17.160  13.967
90199W        W55360  31.165  13.289   1.435
90200W        W55361  17.793  35.530  14.698
90201W        W55362  31.928  42.006   0.407
90202W        W55363  24.697   2.287  11.568
90203W        W55364  14.684  36.405  12.451
90204W        W55365   9.310  41.247  12.058
90205W        W55366  18.767  23.689   1.938
90206W        W55367  41.344  30.688   1.310
90207W        W55368  35.739  28.231   4.176
90208W        W55369  18.978  17.135  11.150
90209W        W55370  17.554   8.835   3.739
90210W        W55371  33.155  34.190  12.824
90211W        W55372  26.592   2.188   3.689
90212W        W55373  40.064  35.031   2.186
90213W        W55374  22.744  15.374   1.384
90214W        W55375   7.820   4.763   4.638
90215W        W55376  15.760  20.198   4.457
90216W        W55377  41.686  22.510  11.986
90217W        W55378  24.068  25.989   3.283
90218W        W55379  23.680  21.986  14.917
90219W        W55380  41.733  13.590   0.405
90220W        W55381   8.502  17.507  13.945
90221W        W55382  30.140  38.757  10.574
90222W        W55383  34.478  27.145   2.934
90223W        W55384  25.338  36.837   4.546
90224W        W55385  16.179  30.229   4.705
90225W        W55386  32.606  27.105  12.607
90226W        W55387  16.686  33.138  10.638
90227W        W55388  39.897  25.554  11.251
90228W        W55389  42.433  28.936   4.453
90229W        W55390  22.264  38.028   2.846
90230W        W55391  37.136  16.754  10.756
90231W        W55392   9.050  24.833  13.606
90232W        W55393   2.178  42.474   1.144
90233W        W55394   9.876  18.390   0.759
90234W        W55395  26.255  37.264  12.589
90235W        W55396  27.946  13.694   1.936
90236W        W55397  21.608  40.663  13.938
90237W        W55398  30.717  12.300  14.437
90238W        W55399  32.972   2.009  13.402
90239W        W55400   6.413  36.626   1.336
90240W        W55401  31.464   4.315   4.503
90241W        W55402  43.262  16.180  14.026
90242W        W55403  35.601   7.363   3.821
90243W        W55404  34.016  11.586   3.841
90244W        W55405  37.872   4.321  12.895
90245W        W55406   1.642   3.810  12.042
90246W        W55407   0.332  15.840   0.873
90247W        W55408   2.719   9.955  11.475
90248W        W55409  13.810  16.559   4.125
90249W        W55410  19.896  38.347   1.169
90250W        W55411   6.695  32.409   1.871
90251W        W55412   6.932  19.559   0.969
90252W        W55413  35.930  21.673  14.401
90253W        W55414  42.562   7.558  13.850
90254W        W55415  28.145  39.447  12.040
90255W        W55416  25.448   3.907   0.710
90256W        W55417  35.959  33.820  13.584
90257W        W55418  21.325  14.277  11.126
90258W        W55419  35.621  23.281   4.431
90259W        W55420  18.184  25.026  14.234
90260W        W55421  40.926  28.448   1.673
90261W        W55422  20.299  25.411  13.605
90262W        W55423   8.151  39.884   2.719
90263W        W55424  15.130  23.337  11.117
90264W        W55425  19.488  30.010  12.031
90265W        W55426  18.001  32.084   2.714
90266W        W55427   9.812  18.484   3.590
90267W        W55428  34.756  27.784   5.010
90268W        W55429  16.460   2.852  12.582
90269W        W55430  34.064  25.144   3.865
90270W        W55431   4.708  36.164  12.498
90271W        W55432  20.085   4.829   0.221
90272W        W55433  18.015  18.036  14.754
90273W        W55434   9.388  15.520   1.659
90274W        W55435   3.865  40.654   0.769
90275W        W55436  44.441  10.174   0.818
90276W        W55437  42.871  25.111   2.366
90277W        W55438   0.474   7.368   2.268
90278W        W55439   1.589  12.352  13.262
90279W        W55440  11.616  14.577   4.173
90280W        W55441  17.324   3.711   2.736
90281W        W55442  17.206  30.831   0.469
90282W        W55443   9.693  23.565   3.365
90283W        W55444  39.177  43.683   0.966
90284W        W55445   4.493  22.817   3.082
90285W        W55446  39.256  43.272   3.043
90286W        W55447  22.416   3.379  13.772
90287W        W55448   1.416  44.454  13.723
90288W        W55449  25.093  26.907  11.095
90289W        W55450   8.664  14.045   0.788
90290W        W55451  32.020  36.562   1.266
90291W        W55452  37.923  32.136  11.349
90292W        W55453  38.695  38.772  14.322
90293W        W55454   8.867   7.244   2.041
90294W        W55455  16.596  14.542  10.678
90295W        W55456  19.031   0.708  14.387
90296W        W55457  34.372   0.336  12.977
90297W        W55458  35.929  20.811   3.314
90298W        W55459  32.935  18.123   5.076
90299W        W55460  26.891  23.713  10.245
90300W        W55461  37.092  35.387  14.929
90301W        W55462   8.180  13.862  12.869
90302W        W55463  22.463  37.909   0.759
90303W        W55464  25.144  26.329  14.001
90304W        W55465  18.212  22.615  13.897
90305W        W55466   3.312  10.236  13.996
90306W        W55467   9.954   3.163  10.093
90307W        W55468  28.933  11.178  14.118
90308W        W55469  42.853   1.052  13.975
90309W        W55470  30.978  43.093   1.251
90310W        W55471   0.174   7.981   2.149
90311W        W55472  38.470   1.199  14.561
90312W        W55473  32.864  11.757   3.316
90313W        W55474  41.545  15.673   4.093
90314W        W55475  27.003  17.603  12.961
90315W        W55476  12.675  32.497   2.826
90316W        W55477  39.456  37.770  12.973
90317W        W55478   4.271  15.801   4.267
90318W        W55479   0.803   2.460   0.375
90319W        W55480  10.706  11.294  10.791
90320W        W55481  42.385  27.200  14.357
90321W        W55482  28.485  13.781  14.807
90322W        W55483  43.861  44.982  13.536
90323W        W55484  28.094  27.534  10.690
90324W        W55485  24.421  25.096  14.014
90325W        W55486   2.230  42.048  12.880
90326W        W55487  26.228  20.317   0.210
90327W        W55488  40.632  21.205  11.615
90328W        W55489  40.293   2.503  11.713
90329W        W55490  41.569  31.012   2.145
90330W        W55491  38.264  26.902  13.295
90331W        W55492   9.204  27.646  10.745
90332W        W55493  31.621   0.768   4.713
90333W        W55494  22.863  24.405  11.539
90334W        W55495   9.228   6.532  13.273
90335W        W55496  26.309  32.016   1.236
90336W        W55497  20.172   2.784  11.886
90337W        W55498  37.477  14.239   3.040
90338W        W55499   0.605  20.644  12.972
90339W        W55500  44.262  30.433   2.188
90340W        W55501  36.832  42.642  12.393
90341W        W55502  33.376  32.126   3.893
90342W        W55503  10.124  33.605   4.843
90343W        W55504  11.869  34.658   1.506
90344W        W55505  33.704  43.834  10.571
90345W        W55506  42.823  13.709   1.729
90346W        W55507   0.360   1.407   2.370
90347W        W55508  12.891  27.387  12.576
90348W        W55509  21.474  29.902  12.937
90349W        W55510  44.379  18.209   1.306
90350W        W55511  26.291  19.789  12.159
90351W        W55512  38.463  35.814   3.790
90352W        W55513  25.648  28.687   1.229
90353W        W55514  43.234  32.661   3.235
90354W        W55515  36.634  14.512  12.567
90355W        W55516  17.330  29.305   1.381
90356W        W55517  18.689  29.532   2.773
90357W        W55518  37.979  11.101   2.195
90358W        W55519  20.638  39.730   2.283
90359W        W55520  42.923   9.220  14.077
90360W        W55521  35.162  43.637  10.187
90361W        W55522  41.413  28.059   1.196
90362W        W55523  11.455  25.501   3.346
90363W        W55524  18.703  42.109   0.220
90364W        W55525  39.217  41.051  10.626
90365W        W55526  19.318   4.227   1.736
90366W        W55527  37.553  17.233   1.921
90367W        W55528   1.886   7.554   2.255
90368W        W55529  28.309  42.197  11.292
90369W        W55530  35.611   2.456   0.729
90370W        W55531   2.552  16.837   5.006
90371W        W55532  38.100  42.699   4.158
90372W        W55533  37.745   6.000   3.132
90373W        W55534  27.507  31.856   3.826
90374W        W55535  12.302  44.902   2.178
90375W        W55536  13.565  31.441  14.507
90376W        W55537  43.472   0.731   1.023
90377W        W55538   2.011  27.932  12.623
90378W        W55539  27.462   7.664  12.859
90379W        W55540  30.231   2.433   3.591
90380W        W55541  40.484  37.800  12.030
90381W        W55542  17.363  10.552  14.343
90382W        W55543  27.975   6.873  11.672
90383W        W55544  23.065  13.132  11.139
90384W        W55545  36.775  36.010  14.139
90385W        W55546   4.426   1.543   1.922
90386W        W55547  30.504  35.287  12.852
90387W        W55548  12.259  37.606  14.734
90388W        W55549  40.296  18.312  11.101
90389W        W55550   4.308  43.869   1.225
90390W        W55551  27.305  23.259  14.255
90391W        W55552  34.077  13.567  13.019
90392W        W55553  26.771  30.559   4.173
90393W        W55554  39.388  27.222   3.028
90394W        W55555  38.048  37.173   1.245
90395W        W55556  39.574  43.516   3.630
90396W        W55557  37.055   1.535  14.837
90397W        W55558   6.856  14.011   4.251
90398W        W55559  22.142  44.249   1.232
90399W        W55560  12.926  14.280  13.048
90400W        W55561  41.838   5.289   2.847
90401W        W55562  21.477  37.122   2.060
90402W        W55563  13.178   0.790   0.869
90403W        W55564  18.553  28.562  12.534
90404W        W55565  22.210   7.225   2.474
90405W        W55566  32.958  20.981   3.546
90406W        W55567  13.162  20.778   2.731
90407W        W55568  13.357  19.766  10.183
90408W        W55569  23.068   7.447   2.186
90409W        W55570  34.559   5.280   1.415
90410W        W55571  28.996  40.974  14.494
90411W        W55572  36.063  41.219  11.604
90412W        W55573  44.423  31.955  11.104
90413W        W55574  32.440  38.541   1.724
90414W        W55575  33.098  21.977   1.738
90415W        W55576   9.928  27.447   4.227
90416W        W55577  15.117  40.583  14.414
90417W        W55578  26.755  32.593   3.002
90418W        W55579   0.926  15.862   2.658
90419W        W55580  22.354  41.494  14.452
90420W        W55581  35.281  10.793   0.041
90421W        W55582  40.768  33.430  11.086
90422W        W55583  24.444  35.026   0.549
90423W        W55584  42.320  17.129   2.433
90424W        W55585  13.513  44.043  12.471
90425W        W55586  38.683   5.306   1.295
90426W        W55587   5.959  20.505   0.402
90427W        W55588   5.486  39.327  10.793
90428W        W55589  15.707   4.731  14.350
90429W        W55590  40.298  37.616   3.664
90430W        W55591  33.913  18.611  11.977
90431W        W55592  25.113  29.109   1.282
90432W        W55593  21.510   1.309   0.796
90433W        W55594   6.016  20.418   1.865
90434W        W55595   8.626  35.497  13.350
90435W        W55596   7.495  34.494  13.100
90436W        W55597  19.758  39.991   1.197
90437W        W55598  12.354  35.991   3.719
90438W        W55599  32.149  11.697  14.846
90439W        W55600  29.897   4.324   0.261
90440W        W55601   2.533  23.211  11.896
90441W        W55602  40.409  31.340   4.194
90442W        W55603  35.402  38.225   0.911
90443W        W55604  36.009  12.729   4.902
90444W        W55605  28.527  15.882  11.094
90445W        W55606  26.166  29.050  14.387
90446W        W55607   9.788  24.124  12.424
90447W        W55608  24.277  35.993  10.231
90448W        W55609  20.094   1.550   4.343
90449W        W55610  27.686  32.066  11.905
90450W        W55611  19.880  16.172  11.629
90451W        W55612  21.967  19.803  14.922
90452W        W55613   9.236  25.404   4.557
90453W        W55614  24.073  28.930   3.368
90454W        W55615  23.942   2.558  12.136
90455W        W55616  13.175  15.478   3.686
90456W        W55617  25.361  21.083   0.705
90457W        W55618  21.499  42.368   2.314
90458W        W55619  38.887  27.242  10.672
90459W        W55620  22.664  37.112  13.026
90460W        W55621  14.431   6.317   2.725
90461W        W55622  30.334   5.191   1.315
90462W        W55623  37.868  15.860  11.546
90463W        W55624  18.762   2.772  13.210
90464W        W55625  19.693   2.671   0.842
90465W        W55626   5.438   3.859   4.402
90466W        W55627  44.621  16.785   1.495
90467W        W55628   3.827  39.269  11.044
90468W        W55629  17.748   3.483  14.552
90469W        W55630  40.350  16.280  10.898
90470W        W55631  44.900  36.812  14.916
90471W        W55632   4.099  44.214   2.175
90472W        W55633  43.924   1.070   3.263
90473W        W55634  42.866  25.866   2.382
90474W        W55635  23.762  12.776   3.698
90475W        W55636  33.521  11.208  10.860
90476W        W55637  38.674   6.451   2.951
90477W        W55638  28.521  26.172  11.565
90478W        W55639   0.152  27.575  13.629
90479W        W55640   6.843  42.916   4.689
90480W        W55641  22.007  39.932  13.897
90481W        W55642  35.952  23.806   1.186
90482W        W55643  30.892   4.852   0.339
90483W        W55644  22.536  37.316   4.253
90484W        W55645  10.823  37.842   0.899
90485W        W55646  10.865   8.447  11.348
90486W        W55647  18.723   5.874   1.837
90487W        W55648  29.081  15.259   4.364
90488W        W55649  39.648  17.082  12.152
90489W        W55650  43.541  29.200  14.782
90490W        W55651  36.681  30.496   1.991
90491W        W55652  12.253  36.954   1.207
90492W        W55653   0.939  27.212   2.194
90493W        W55654  35.306  33.655  13.538
90494W        W55655  41.733  41.296   0.075
90495W        W55656  18.616  31.017  12.045
90496W        W55657  27.771  27.550  10.253
90497W        W55658  36.418  15.016   2.484
90498W        W55659  28.063  22.170  10.524
90499W        W55660  20.478   6.231   2.016
90500W        W55661  20.353  29.644  14.946
90501W        W55662  19.218  21.284   5.482
90502W        W55663  40.061  20.336   0.028
90503W        W55664  12.693  43.560  11.504
90504W        W55665  22.529  10.839   3.398
90505W        W55666  39.947  39.770  14.286
90506W        W55667  31.959  23.744   0.853
90507W        W55668   0.781  36.936  14.471
90508W        W55669   9.004   7.591   4.785
90509W        W55670  37.991  38.162  12.481
90510W        W55671  22.917   0.067   4.137
90511W        W55672   9.427   6.780   2.769
90512W        W55673  21.288   6.880   0.716
90513W        W55674  30.411  17.837  12.648
90514W        W55675  13.654  20.058   1.764
90515W        W55676   6.281  38.705  11.043
90516W        W55677  10.477  35.636  12.448
90517W        W55678  26.171  10.763   0.478
90518W        W55679  33.032   4.101   4.331
90519W        W55680  12.237   5.150   4.145
90520W        W55681  36.619  15.279   1.939
90521W        W55682  44.732   4.714  12.078
90522W        W55683  13.589  23.358  13.409
90523W        W55684  41.334  35.505  13.939
90524W        W55685  44.131  21.419   0.516
90525W        W55686  41.864  17.315  11.601
90526W        W55687  31.302   9.643   1.917
90527W        W55688  44.724  21.694   1.386
90528W        W55689  36.293   6.349  10.793
90529W        W55690  40.603  19.535   0.357
90530W        W55691  19.219  14.795   3.552
90531W        W55692  22.438  27.628   4.646
90532W        W55693   9.195   8.956  14.988
90533W        W55694  42.838  41.051   1.244
90534W        W55695  23.552   9.951  10.962
90535W        W55696   2.397  38.965   4.205
90536W        W55697  13.161  38.294   4.398
90537W        W55698  11.321  30.243   0.772
90538W        W55699  10.236  41.950   3.652
90539W        W55700   4.452  11.500  10.333
90540W        W55701  33.992   6.218   0.074
90541W        W55702  27.039  23.609   4.035
90542W        W55703  37.401  34.858  13.375
90543W        W55704  41.574  21.746  11.483
90544W        W55705   6.652  39.506  11.897
90545W        W55706  27.697  37.417   0.302
90546W        W55707  22.519  29.446   0.411
90547W        W55708  42.780  24.697   4.657
90548W        W55709  16.678   3.867   2.338
90549W        W55710  35.640  24.441  11.048
90550W        W55711  14.710   4.949  10.003
90551W        W55712  44.566  21.496   0.179
90552W        W55713  44.346  26.170  14.753
90553W        W55714  32.637  37.559  11.962
90554W        W55715  16.082  32.404  14.277
90555W        W55716   0.231  11.437   0.695
90556W        W55717  39.684  28.544  14.773
90557W        W55718  29.940  41.534   4.101
90558W        W55719  11.606   0.383  10.248
90559W        W55720  44.497   4.882   0.433
90560W        W55721  10.950   4.404   4.305
90561W        W55722  37.055  12.700  10.692
90562W        W55723  29.767  36.328  13.176
90563W        W55724  39.931  40.819  13.410
90564W        W55725  15.559  14.203  12.115
90565W        W55726  28.978  29.130  13.005
90566W        W55727  15.732  18.672   0.134
90567W        W55728   0.393  24.552   1.375
90568W        W55729   3.008  14.272  13.976
90569W        W55730  35.877  26.703  12.503
90570W        W55731  23.934  36.836   2.986
90571W        W55732   0.920  30.421   1.702
90572W        W55733  21.455  27.362  12.843
90573W        W55734  36.049   8.471   4.005
90574W        W55735  11.271   9.702  10.585
90575W        W55736   9.711  23.059  10.551
90576W        W55737  28.441  19.242  12.005
90577W        W55738  33.192  11.223   0.397
90578W        W55739  15.275   9.709   2.769
90579W        W55740  26.494  20.630  10.332
90580W        W55741  37.821  40.433   0.542
90581W        W55742  43.019  32.349   0.214
90582W        W55743   4.378  13.295  11.999
90583W        W55744  18.644  26.173  10.803
90584W        W55745  29.913  43.792   3.817
90585W        W55746   5.811  17.499  14.343
90586W        W55747   9.837  32.068  13.411
90587W        W55748  10.705  12.323  14.577
90588W        W55749  27.937  26.165   3.253
90589W        W55750  24.811   1.725   0.259
90590W        W55751  38.814  20.458  11.489
90591W        W55752  40.381  22.699   3.659
90592W        W55753  38.493  22.116   3.143
90593W        W55754   2.895  43.506  13.161
90594W        W55755   3.900  10.524   3.121
90595W        W55756  27.966  40.143   0.865
90596W        W55757  44.033   9.383   0.031
90597W        W55758  12.109  19.252   1.816
90598W        W55759  15.186  27.913   1.339
90599W        W55760  37.010   3.063  13.595
90600W        W55761  37.023  27.440  13.010
90601W        W55762  25.650   2.663   3.674
90602W        W55763  31.712  13.166   1.460
90603W        W55764  44.850  29.931  13.688
90604W        W55765   4.635  23.755   1.363
90605W        W55766  44.269  11.063  13.686
90606W        W55767  44.002  15.711  14.753
90607W        W55768  35.043  37.387  14.786
90608W        W55769  39.263  21.483  13.886
90609W        W55770   1.384   2.776  14.481
90610W        W55771  21.133  20.425   2.765
90611W        W55772  18.615  37.454   0.239
90612W        W55773  42.607   9.739  11.177
90613W        W55774  21.310  37.309  11.247
90614W        W55775  39.584  14.341   0.331
90615W        W55776  41.907  24.842   3.790
90616W        W55777  11.260  10.097  11.361
90617W        W55778  15.281  23.980   0.443
90618W        W55779  40.477  20.141   3.084
90619W        W55780  29.844  38.222  13.104
90620W        W55781  33.946  36.763  13.368
90621W        W55782  22.415  11.196   9.821
90622W        W55783  25.082  40.544   3.620
90623W        W55784  39.828  14.994   3.866
90624W        W55785  25.523  42.846   3.771
90625W        W55786  36.763  18.435   0.846
90626W        W55787  30.881  42.005   4.157
90627W        W55788   6.187  40.092  13.966
90628W        W55789  15.801  21.668  13.104
90629W        W55790  43.449  43.102   0.419
90630W        W55791  28.061   2.733  12.978
90631W        W55792  17.733  29.663  13.882
90632W        W55793  21.685   8.810   4.610
90633W        W55794  34.564  30.399  14.602
90634W        W55795  37.520  22.557  13.975
90635W        W55796  22.137  35.930   0.383
90636W        W55797  37.624  23.680   3.714
90637W        W55798  26.819  22.981  11.583
90638W        W55799  41.299  13.328  12.113
90639W        W55800   0.828  32.345   0.322
90640W        W55801  32.738  10.722   0.894
90641W        W55802  24.618  28.208  14.871
90642W        W55803  29.919  37.695  13.047
90643W        W55804  38.975  34.598   2.320
90644W        W55805  19.786  43.824  12.414
90645W        W55806  14.065  16.606   4.559
90646W        W55807  10.182   6.374  12.787
90647W        W55808  14.677  30.184   3.233
90648W        W55809  29.418   1.247   0.760
90649W        W55810  35.555   2.916  11.104
90650W        W55811  11.344  16.154  10.404
90651W        W55812   2.713   5.877   0.465
90652W        W55813  26.575  17.284  12.905
90653W        W55814  17.112  44.865   4.504
90654W        W55815  11.259  42.826   4.686
90655W        W55816  21.760  40.056   0.268
90656W        W55817  37.406  22.626   3.837
90657W        W55818  40.934  18.029   2.261
90658W        W55819   4.606  19.761  13.479
90659W        W55820  10.403  20.586  10.766
90660W        W55821  19.030   5.476   1.743
90661W        W55822   3.924  44.396  12.168
90662W        W55823  25.979  32.350  13.396
90663W        W55824  11.761  16.169  12.987
90664W        W55825  18.604  24.527   4.397
90665W        W55826  35.943  40.735   4.568
90666W        W55827  39.008   9.556  11.307
90667W        W55828  28.695  23.444   3.135
90668W        W55829   3.841  13.116   4.920
90669W        W55830  32.188  27.070  11.695
90670W        W55831  12.348  33.657   3.174
90671W        W55832  42.899  27.801  11.244
90672W        W55833  29.701  20.969   5.108
90673W        W55834  25.169  20.064   2.680
90674W        W55835  17.645  37.825   1.657
90675W        W55836  38.937  24.517  14.276
90676W        W55837  36.416  24.452  11.465
90677W        W55838  26.073  13.892  10.399
90678W        W55839  13.086  16.359  13.371
90679W        W55840  31.986  36.154  10.661
90680W        W55841  43.500  44.052  13.014
90681W        W55842  34.005  38.055   5.442
90682W        W55843   3.258  44.696  11.578
90683W        W55844  11.022  14.194  13.343
90684W        W55845   8.817  22.906   4.131
90685W        W55846  27.156   2.262  12.939
90686W        W55847  22.807  28.093  12.060
90687W        W55848  25.334  27.508   3.518
90688W        W55849  35.800   9.610  12.556
90689W        W55850  14.478  38.505  10.923
90690W        W55851   5.885  12.169   4.882
90691W        W55852   1.988  29.149   0.802
90692W        W55853  29.029  33.744   4.157
90693W        W55854  24.199  30.489   3.016
90694W        W55855   0.747  13.631  13.007
90695W        W55856  22.793  12.184   1.356
90696W        W55857  17.605  32.062   3.626
90697W        W55858  33.913  43.017   3.646
90698W        W55859  23.016  21.453  11.610
90699W        W55860  19.708  22.740  11.012
90700W        W55861  17.271   5.349   4.763
90701W        W55862  16.743  14.075   0.357
90702W        W55863  39.971  13.596   3.288
90703W        W55864  39.788  23.842   4.584
90704W        W55865   2.187   3.806  13.355
90705W        W55866  42.215  33.015   4.231
90706W        W55867   6.773   7.671  13.515
90707W        W55868  32.472  29.511  10.493
90708W        W55869  41.549  40.584  11.528
90709W        W55870  12.622   7.664   1.712
90710W        W55871  28.413  19.078   0.451
90711W        W55872   1.850  36.783  12.999
90712W        W55873  28.393   9.804   1.610
90713W        W55874  30.699  11.213  11.543
90714W        W55875  33.525  22.062  10.683
90715W        W55876   5.289  27.101  10.830
90716W        W55877  13.168  44.499   0.259
90717W        W55878   9.009  13.812  12.724
90718W        W55879  33.421   0.316  13.778
90719W        W55880  34.324   1.272  14.409
90720W        W55881  11.633   8.074   3.404
90721W        W55882  27.928   2.814   4.048
90722W        W55883  40.547   7.163  13.438
90723W        W55884  33.173  37.456   1.225
90724W        W55885  44.741  38.963   2.774
90725W        W55886  38.297  20.364   1.911
90726W        W55887  22.328  21.138   5.339
90727W        W55888   9.827  14.410   1.816
90728W        W55889  20.720  17.834  14.844
90729W        W55890  11.651  37.131  14.011
90730W        W55891  31.884  10.281   1.517
90731W        W55892   5.897  20.458  11.948
90732W        W55893  28.973  14.303  12.420
90733W        W55894  27.142  14.381   9.534
90734W        W55895   5.202  13.148   3.778
90735W        W55896  16.635  36.737  13.966
90736W        W55897   2.739  36.715   0.652
90737W        W55898  32.866  12.727   3.254
90738W        W55899   7.891  10.941   2.291
90739W        W55900  29.953  15.178  13.982
90740W        W55901   4.172   2.287  11.630
90741W        W55902   2.258  42.684   1.814
90742W        W55903  24.801  35.839   0.930
90743W        W55904  13.009  34.785   3.171
90744W        W55905  13.654   6.132   3.306
90745W        W55906  12.757  38.882   2.297
90746W        W55907  35.524  20.741  10.447
90747W        W55908  12.078  39.796   2.205
90748W        W55909  27.687  24.189  11.139
90749W        W55910  27.681  37.241   4.595
90750W        W55911   7.441   6.349  14.468
90751W        W55912   1.133  14.225   4.079
90752W        W55913  10.405   5.307  10.812
90753W        W55914  33.000  21.529  13.318
90754W        W55915   2.821  17.611   1.843
90755W        W55916  14.134   9.744  14.104
90756W        W55917  41.824  34.451  14.959
90757W        W55918  24.016  15.130  12.646
90758W        W55919   3.832   1.820  12.437
90759W        W55920   1.779   2.498   4.570
90760W        W55921  31.151   3.319   0.787
90761W        W55922  14.271  28.928   2.208
90762W        W55923  36.508  28.115   0.360
90763W        W55924  30.841  25.947  14.837
90764W        W55925  18.480  24.696  14.853
90765W        W55926  40.333   9.523  12.012
90766W        W55927  30.558  12.051  13.939
90767W        W55928  12.406  25.927   4.111
90768W        W55929  17.239   8.116  14.857
90769W        W55930  39.595  42.888   0.474
90770W        W55931  11.428  33.888   4.075
90771W        W55932  42.894  26.945   0.762
90772W        W55933  17.050  26.097  13.434
90773W        W55934  37.495  41.527   3.251
90774W        W55935  30.124  32.947   0.450
90775W        W55936  21.745  28.729   1.281
90776W        W55937  36.910  42.500  12.921
90777W        W55938  42.039  37.834   4.297
90778W        W55939   7.686  20.172   1.589
90779W        W55940  19.676  26.153   2.655
90780W        W55941   8.143  18.082   2.789
90781W        W55942  28.923  15.471   3.358
90782W        W55943  33.866   5.291  13.530
90783W        W55944  44.096   2.963  12.467
90784W        W55945  36.408  18.578  12.362
90785W        W55946   8.621  11.533   1.788
90786W        W55947   5.917  12.700   1.850
90787W        W55948   7.839  27.698  13.488
90788W        W55949  37.613   5.155   2.439
90789W        W55950  38.579  44.535  13.574
90790W        W55951  27.296  41.373  11.582
90791W        W55952  38.817  19.115  14.769
90792W        W55953  28.494   0.492   4.210
90793W        W55954  42.351   7.642  13.014
90794W        W55955  18.579  33.070  12.025
90795W        W55956  35.687   3.729   4.227
90796W        W55957  26.025  24.934  11.154
90797W        W55958  37.454  22.243   1.471
90798W        W55959  24.500   6.974  13.365
90799W        W55960  17.870   2.719   0.417
90800W        W55961  41.924   3.011  12.421
90801W        W55962  19.850  12.127   2.288
90802W        W55963  16.504  25.004   0.460
90803W        W55964  40.149  27.187  12.498
90804W        W55965  11.254  11.100  14.271
90805W        W55966  41.900  18.083  14.293
90806W        W55967  27.519   7.166   0.451
90807W        W55968  16.439   3.991  12.512
90808W        W55969  44.353  43.544  13.096
90809W        W55970  20.220   5.464   4.206
90810W        W55971   6.385  14.562   4.998
90811W        W55972   5.525  27.217   3.769
90812W        W55973   0.052   5.669   1.785
90813W        W55974  29.712   7.409  13.512
90814W        W55975  22.750  16.385   1.342
90815W        W55976   2.519  20.771   2.200
90816W        W55977  33.547  11.768  11.709
90817W        W55978  36.511  40.005  11.740
90818W        W55979  30.693  16.888  12.395
90819W        W55980  43.842  10.281  13.905
90820W        W55981   1.952  34.468  10.596
90821W        W55982  30.836  31.161  11.817
90822W        W55983  42.517   5.250   1.121
90823W        W55984   8.803  25.716  10.993
90824W        W55985  10.192  40.528  12.497
90825W        W55986  42.035  16.653   0.454
90826W        W55987   7.964  39.380   3.619
90827W        W55988  36.101  11.778   2.091
90828W        W55989  12.473  25.670  13.109
90829W        W55990  16.685  15.214   0.729
90830W        W55991  35.829  26.161  12.972
90831W        W55992   8.965  21.542  13.992
90832W        W55993  14.627  36.424   0.059
90833W        W55994   0.349   3.733  10.659
90834W        W55995  44.417  35.017  10.539
90835W        W55996  27.422  22.745  14.997
90836W        W55997  26.484  14.562  11.585
90837W        W55998  34.378  27.184   4.768
90838W        W55999  15.593  25.080  14.619
90839W        W56000   7.924  36.041   1.910
90840W        W56001  35.622  11.494   0.475
90841W        W56002  10.313  31.587   2.846
90842W        W56003  25.991  43.982  10.666
90843W        W56004  29.212   2.714   2.617
90844W        W56005  28.420   2.391   1.396
90845W        W56006   4.437  21.570  11.607
90846W        W56007   2.147  31.628  12.917
90847W        W56008  13.930  18.676  12.639
90848W        W56009   8.654   1.753   1.956
90849W        W56010   5.004  41.553  11.641
90850W        W56011  26.629  10.312   1.757
90851W        W56012  31.547  29.903   3.527
90852W        W56013  43.381  33.358   4.574
90853W        W56014  21.920  36.953   2.263
90854W        W56015  25.661  11.328   3.574
90855W        W56016   8.645  40.569  14.589
90856W        W56017  44.721   4.183  12.019
90857W        W56018   8.216  13.087  13.533
90858W        W56019  25.688  11.074  11.799
90859W        W56020  21.374  29.587   3.272
90860W        W56021  13.342   7.623   2.304
90861W        W56022  28.005  24.030   0.777
90862W        W56023  38.550  21.183   4.435
90863W        W56024  36.896  25.164   2.381
90864W        W56025  15.205  34.304  11.732
90865W        W56026  10.649   5.278   1.739
90866W        W56027  25.370  10.346   0.855
90867W        W56028   8.565   3.432  14.060
90868W        W56029  37.458   2.387   3.078
90869W        W56030  20.297  20.160  12.119
90870W        W56031  33.386  43.374  10.371
90871W        W56032  27.706  43.500   4.570
90872W        W56033   3.810  16.661   2.414
90873W        W56034  36.150   9.235  13.935
90874W        W56035  30.468   7.720   4.579
90875W        W56036  24.992  29.802  11.565
90876W        W56037  32.090  32.402  14.769
90877W        W56038   9.553   0.469  12.932
90878W        W56039   9.296  37.000   0.725
90879W        W56040  33.101  20.803  14.043
90880W        W56041  37.353  38.441   1.919
90881W        W56042  28.633  33.930  12.673
90882W        W56043   8.944  26.147  11.909
90883W        W56044  10.180  11.177   2.607
90884W        W56045  42.551  33.496  13.374
90885W        W56046  40.398  12.358  13.581
90886W        W56047  11.737   9.460  10.603
90887W        W56048  18.515  17.070  14.488
90888W        W56049  28.634   1.409  11.816
90889W        W56050  22.054  42.944  13.842
90890W        W56051   9.739  43.330   2.094
90891W        W56052   5.392   6.285  12.081
90892W        W56053   1.584  26.501  14.379
90893W        W56054   7.462   8.301  11.090
90894W        W56055  43.615  27.889   3.685
90895W        W56056  22.552  25.527   2.214
90896W        W56057  11.534  44.113   5.058
90897W        W56058  23.484  43.878   1.783
90898W        W56059  28.064   5.750  14.886
90899W        W56060   0.296  27.046  13.400
90900W        W56061  20.102  22.592  12.259
90901W        W56062  23.551  18.820  10.626
90902W        W56063  44.474  13.512   1.320
90903W        W56064   7.246  22.300  11.989
90904W        W56065  43.575   2.017  11.645
90905W        W56066   2.441  39.135   4.678
90906W        W56067  43.728  40.902  12.448
90907W        W56068  20.119  40.898  11.422
90908W        W56069  14.664  24.065  11.458
90909W        W56070  33.922   5.437  11.420
90910W        W56071  30.682  23.509  11.659
90911W        W56072  25.118  12.605   1.184
90912W        W56073  35.160  36.098  10.973
90913W        W56074  43.776  27.137   0.507
90914W        W56075   8.569  39.036   0.319
90915W        W56076   6.799  16.783  14.476
90916W        W56077  39.598  32.422  14.975
90917W        W56078  23.991   6.188   1.928
90918W        W56079   1.670  14.332   2.225
90919W        W56080   2.364  43.877   3.766
90920W        W56081  22.138  27.439   2.210
90921W        W56082  33.853   7.833  14.274
90922W        W56083  29.875  20.248  10.613
90923W        W56084  28.519  21.503  14.316
90924W        W56085  37.911  33.947   3.357
90925W        W56086  23.661  35.137  14.924
90926W        W56087  22.915  24.125  10.705
90927W        W56088  17.199  28.371  12.356
90928W        W56089  30.420   4.913   0.083
90929W        W56090   0.948  23.007   0.237
90930W        W56091  42.156  40.930  13.203
90931W        W56092  40.711  33.938  13.385
90932W        W56093  23.868  41.972  11.494
90933W        W56094   0.996  20.184   3.259
90934W        W56095  23.492  42.367  14.481
90935W        W56096  11.848  32.211  11.579
90936W        W56097  17.194  39.876   0.344
90937W        W56098   9.224  30.522  11.916
90938W        W56099   3.420  35.975  12.060
90939W        W56100  19.099  17.580  12.041
90940W        W56101  12.971  35.599  14.266
90941W        W56102  40.414   0.605  14.161
90942W        W56103   3.477   9.986   2.482
90943W        W56104   5.805  29.063   4.429
90944W        W56105  12.079  28.554  10.483
90945W        W56106  35.346  25.167   2.258
90946W        W56107  32.527  41.279  13.416
90947W        W56108  36.777  32.910   2.648
90948W        W56109  13.795   2.425   2.414
90949W        W56110  35.415  14.188  12.936
90950W        W56111  24.001   9.134  12.502
90951W        W56112  31.387  21.752   2.783
90952W        W56113  12.069  16.023   1.845
90953W        W56114  21.361   1.358   4.725
90954W        W56115   8.768   1.834  11.165
90955W        W56116  29.548  29.646  12.453
90956W        W56117  15.911  30.076  11.167
90957W        W56118  37.381  40.708   9.968
90958W        W56119  32.957  37.860   0.512
90959W        W56120  13.240  33.942  12.625
90960W        W56121  42.959  14.665  13.646
90961W        W56122  38.852  18.728   3.675
90962W        W56123  25.588  26.105  14.236
90963W        W56124   3.480  37.298   0.976
90964W        W56125  18.828  34.524  13.238
90965W        W56126   6.658   5.256  12.680
90966W        W56127  28.945  22.981  14.113
90967W        W56128  28.469  22.651   5.558
90968W        W56129  24.360  16.585   0.003
90969W        W56130  23.182  24.729  10.710
90970W        W56131   4.394  17.516  12.786
90971W        W56132  40.561   5.663  12.638
90972W        W56133   0.289  23.707   1.720
90973W        W56134  10.007   7.287  12.990
90974W        W56135  16.700  41.039   3.751
90975W        W56136  42.282  29.460  14.141
90976W        W56137  44.949  10.258  11.130
90977W        W56138  36.686  40.404   4.024
90978W        W56139  43.349  41.065  12.055
90979W        W56140   8.950  28.227  11.170
90980W        W56141  31.570  27.707   1.240
90981W        W56142  19.868  24.630  10.684
90982W        W56143  38.647  37.813  14.297
90983W        W56144  17.514  43.310   0.905
90984W        W56145  26.697  25.108   4.501
90985W        W56146  30.191  27.124  11.549
90986W        W56147  22.477  37.525  14.508
90987W        W56148  33.786  41.532   2.595
90988W        W56149  42.024  21.439  11.592
90989W        W56150  22.817  10.750  14.507
90990W        W56151  23.856  20.120  11.260
90991W        W56152  23.478   1.616  12.994
90992W        W56153  19.647   5.438  14.011
90993W        W56154  35.568  25.313  14.027
90994W        W56155  44.197  31.045  13.907
90995W        W56156  33.187  10.542  11.189
90996W        W56157  23.517  24.293   1.747
90997W        W56158  40.361  37.426  13.276
90998W        W56159  14.143  25.507   3.813
90999W        W56160  13.542  42.272   9.641
91000W        W56161  26.910  11.645   0.338
91001W        W56162  12.593  38.070  13.345
91002W        W56163  28.588  28.337   1.355
91003W        W56164  11.210   5.001   0.002
91004W        W56165  32.564  23.764  13.557
91005W        W56166  32.946  14.868  13.398
91006W        W56167  12.266   8.889  13.203
91007W        W56168  31.977  15.204  11.988
91008W        W56169  18.283  26.285  11.231
91009W        W56170  11.167  17.811   1.163
91010W        W56171  20.896  11.328   4.567
91011W        W56172  23.040  20.207  12.343
91012W        W56173  14.765  21.083  13.009
91013W        W56174   1.086  19.496  14.730
91014W        W56175  15.962  16.531  11.551
91015W        W56176   3.015  39.643  14.465
91016W        W56177  12.951  14.406  11.110
91017W        W56178  13.852  14.096   3.346
91018W        W56179  18.784   0.034  13.461
91019W        W56180  24.860  44.712   0.482
91020W        W56181   3.659  39.439  12.981
91021W        W56182  33.941  18.882  14.875
91022W        W56183  42.497  19.820   1.799
91023W        W56184  16.059  23.017   0.349
91024W        W56185   2.313   2.865   3.067
91025W        W56186  41.705  11.797   2.649
91026W        W56187   7.766  36.991  12.397
91027W        W56188  39.674  17.189   0.341
91028W        W56189  28.548  34.433   4.556
91029W        W56190  42.486   2.392   0.133
91030W        W56191  40.680  23.294  10.649
91031W        W56192  43.833  42.452   1.278
91032W        W56193   9.268  17.000  12.727
91033W        W56194  43.083  32.652  13.032
91034W        W56195   8.608   3.040  10.430
91035W        W56196  28.020  26.084  13.531
91036W        W56197   3.406   2.538   3.679
91037W        W56198  26.925  37.017  11.876
91038W        W56199  33.980  28.254  11.012
91039W        W56200  24.206  30.453  14.083
91040W        W56201   7.925  31.525   1.509
91041W        W56202  29.392  38.290  12.879
91042W        W56203  12.277  35.540   2.267
91043W        W56204   2.763  26.870   3.178
91044W        W56205  11.785  19.032  14.755
91045W        W56206  14.967  36.824   1.802
91046W        W56207  27.686   4.426  13.078
91047W        W56208   2.279  38.967  14.504
91048W        W56209  36.583   2.289   4.613
91049W        W56210  22.552   4.970  13.101
91050W        W56211  19.053  41.133   3.171
91051W        W56212   5.758  39.316  12.185
91052W        W56213  20.045  11.647   2.382
91053W        W56214  42.326  15.753  13.318
91054W        W56215   0.845   2.101   5.307
91055W        W56216  30.890  38.086  13.990
91056W        W56217  40.429   7.573   3.536
91057W        W56218  24.137  25.931  12.350
91058W        W56219  11.908  33.606   1.028
91059W        W56220  29.905  41.490  14.531
91060W        W56221   6.759   0.310   1.249
91061W        W56222   0.707  14.809   1.789
91062W        W56223  38.568  13.589  12.467
91063W        W56224  15.157  30.820   3.763
91064W        W56225   2.783  21.017  14.969
91065W        W56226  37.569  18.769   4.111
91066W        W56227  24.975  31.522   2.724
91067W        W56228   4.843  43.139   4.666
91068W        W56229  33.633  22.127  14.043
91069W        W56230  14.538  28.645   3.655
91070W        W56231  36.660  22.182  14.574
91071W        W56232   2.110  10.876  13.912
91072W        W56233   7.856  11.419  11.088
91073W        W56234  23.060  29.703   4.703
91074W        W56235  33.784  33.133   3.730
91075W        W56236  12.949   3.484   1.297
91076W        W56237  26.662  42.917   0.582
91077W        W56238  25.678  29.015   0.445
91078W        W56239  13.456  32.290  14.356
91079W        W56240  15.693  36.919  13.273
91080W        W56241  41.357  13.800  11.879
91081W        W56242   6.824  20.634   2.440
91082W        W56243  41.852  29.649  10.739
91083W        W56244  23.162  33.115  13.335
91084W        W56245  35.129  14.336  10.408
91085W        W56246  22.015  38.976   0.816
91086W        W56247   6.401   4.936  14.042
91087W        W56248  23.528  32.985   4.107
91088W        W56249   7.334  42.899  13.143
91089W        W56250  39.726  43.743   0.049
91090W        W56251  28.964   6.178   0.337
91091W        W56252   9.833   5.729   4.175
91092W        W56253  43.672   8.872   4.293
91093W        W56254  35.305   4.402   4.403
91094W        W56255  42.335  11.578  13.778
91095W        W56256  14.612  43.021   3.791
91096W        W56257  20.629  36.065  12.442
91097W        W56258   9.734  19.534   4.098
91098W        W56259  29.244  20.491   1.223
91099W        W56260   7.048   3.944  14.649
91100W        W56261  39.802  39.597   1.294
91101W        W56262   0.046  10.360  11.672
91102W        W56263  28.166  24.433   4.475
91103W        W56264   9.722  12.120  14.426
91104W        W56265   4.230  26.738  14.967
91105W        W56266  43.550  24.162   3.281
91106W        W56267  20.178  43.874   4.572
91107W        W56268  27.810  26.655   3.467
91108W        W56269  19.269  39.724  13.129
91109W        W56270  19.655   8.744  10.630
91110W        W56271  36.438   4.445  10.247
91111W        W56272  41.448  17.239   1.429
91112W        W56273  14.655  19.144  13.537
91113W        W56274  33.345  23.024   2.804
91114W        W56275  42.905  35.272  13.480
91115W        W56276   1.953   3.211   2.888
91116W        W56277  37.949  17.498  14.289
91117W        W56278   7.588  27.610  13.987
91118W        W56279  33.592  29.659  11.204
91119W        W56280  43.821   5.023  14.894
91120W        W56281  13.012   6.277  12.784
91121W        W56282  43.110  30.648  11.984
91122W        W56283  32.323  37.603  12.442
91123W        W56284  38.434  42.456  10.852
91124W        W56285   7.366  19.226  14.948
91125W        W56286  38.956  41.419   9.879
91126W        W56287   8.416   6.334  12.794
91127W        W56288  31.043  24.945  14.446
91128W        W56289  44.019   5.884  13.799
91129W        W56290  36.369  42.454  12.123
91130W        W56291  12.864  31.171   1.477
91131W        W56292  30.595  24.503   3.603
91132W        W56293   0.041  32.386  12.445
91133W        W56294  42.520  39.329   0.285
91134W        W56295  13.017  36.918  14.813
91135W        W56296  40.334  11.121   0.872
91136W        W56297  34.719  25.474  11.696
91137W        W56298  28.811  12.798   1.325
91138W        W56299  19.195  27.269   3.224
91139W        W56300  43.468  17.936  14.780
91140W        W56301  16.665  11.851  11.636
91141W        W56302  24.206  26.497   3.254
91142W        W56303  38.828  30.273   1.206
91143W        W56304  25.691  43.427  11.638
91144W        W56305  41.963  39.439  13.037
91145W        W56306  34.504  11.289  13.156
91146W        W56307  31.992  19.567  11.250
91147W        W56308  43.754   6.898   3.353
91148W        W56309  19.768  35.123  11.146
91149W        W56310   4.911  29.141  13.517
91150W        W56311  39.279   1.935   0.376
91151W        W56312  40.273   6.052   0.805
91152W        W56313   5.652   1.281   0.359
91153W        W56314   8.340   3.365   1.547
91154W        W56315   7.520   4.820   1.718
91155W        W56316   9.192  14.849  10.964
91156W        W56317  23.438  31.482   3.619
91157W        W56318  23.185  29.175   4.157
91158W        W56319   5.458  23.667   4.164
91159W        W56320  29.698  30.514  10.922
91160W        W56321  36.472  28.230  10.964
91161W        W56322  41.345   3.778   2.269
91162W        W56323  19.931  30.246  11.828
91163W        W56324   0.466  36.230   0.786
91164W        W56325  33.919  25.240   3.370
91165W        W56326  22.743  28.525   3.264
91166W        W56327   9.687  18.265  12.423
91167W        W56328  15.531  35.987  11.313
91168W        W56329  14.345   3.829  13.531
91169W        W56330  24.237  28.509  13.537
91170W        W56331  16.042  31.493   1.404
91171W        W56332  15.595   9.263  11.113
91172W        W56333  14.243  34.110  10.685
91173W        W56334  24.737  14.901   0.507
91174W        W56335  31.624   2.700   2.487
91175W        W56336   2.357  28.657  11.678
91176W        W56337  39.362  34.084  12.604
91177W        W56338  17.653  33.094   0.434
91178W        W56339  29.551  20.976   4.326
91179W        W56340  13.665  24.244   1.682
91180W        W56341  15.802  15.149  11.655
91181W        W56342  12.703  33.980  14.377
91182W        W56343  34.478  11.119  12.647
91183W        W56344  30.950  39.024  12.390
91184W        W56345  12.207  24.143   3.826
91185W        W56346  11.805  14.060   0.194
91186W        W56347  44.480  32.483  11.592
91187W        W56348  15.651  43.614   5.542
91188W        W56349  13.475  29.570  11.165
91189W        W56350   7.017  13.090  12.557
91190W        W56351   7.464  40.917  11.010
91191W        W56352   5.854  26.825   0.511
91192W        W56353  43.186  11.100  13.090
91193W        W56354   3.988  38.406   3.144
91194W        W56355  44.395  24.526  13.213
91195W        W56356  35.616   2.166  10.491
91196W        W56357  29.505  41.202   4.972
91197W        W56358  11.869  24.376   2.765
91198W        W56359  43.116  25.213   1.850
91199W        W56360  37.925  41.587  13.313
91200W        W56361  35.572  25.378   3.674
91201W        W56362  22.558  12.408  11.332
91202W        W56363  16.224  13.398  11.454
91203W        W56364  24.538  17.609   1.187
91204W        W56365  12.941  23.953  11.517
91205W        W56366  41.037  14.335   2.772
91206W        W56367  38.540   1.568  13.693
91207W        W56368  23.547  27.980   0.317
91208W        W56369  35.111  40.438   3.280
91209W        W56370   3.633  10.123   0.343
91210W        W56371  18.691  21.033   0.398
91211W        W56372  34.303  31.710   4.193
91212W        W56373  20.614  30.148  11.250
91213W        W56374  16.270  34.364  14.148
91214W        W56375   1.193   8.322  14.395
91215W        W56376   6.737  22.581   4.791
91216W        W56377  41.703  34.659   4.885
91217W        W56378  39.290  42.983  14.819
91218W        W56379  28.156  38.484  11.436
91219W        W56380  22.692  26.048  10.600
91220W        W56381  12.834  11.801   0.071
91221W        W56382  21.239   0.973  12.563
91222W        W56383  33.924  31.650   2.980
91223W        W56384  26.737  12.640  11.600
91224W        W56385   2.782   7.153  14.862
91225W        W56386  20.605  33.166   0.460
91226W        W56387  11.915  13.602   4.339
91227W        W56388  15.784  17.580   2.204
91228W        W56389  28.886  17.290  14.425
91229W        W56390   9.148   2.235   0.842
91230W        W56391  18.616  11.772  12.843
91231W        W56392  35.513  32.092  14.973
91232W        W56393  39.446  33.585  12.438
91233W        W56394  34.802   3.694   0.379
91234W        W56395  12.094   1.933   3.640
91235W        W56396  16.941  14.896   0.408
91236W        W56397  12.320   9.542  14.973
91237W        W56398  15.823  43.799   2.265
91238W        W56399  21.479  20.713  11.951
91239W        W56400  12.646   7.168  11.122
91240W        W56401  32.038  36.033   1.176
91241W        W56402  36.045   2.328   2.392
91242W        W56403  19.664  22.608   4.598
91243W        W56404   6.782  21.497   1.766
91244W        W56405  16.418  33.214  13.443
91245W        W56406  44.795  10.679  11.362
91246W        W56407  34.849  31.053  12.375
91247W        W56408  34.970  28.443   1.834
91248W        W56409  21.337  29.691  12.125
91249W        W56410  22.220   7.384   3.936
91250W        W56411  34.766   6.566  10.650
91251W        W56412   5.799  19.613   1.985
91252W        W56413  15.205  37.070   1.224
91253W        W56414  41.046  24.555   4.130
91254W        W56415  41.340  21.773   0.999
91255W        W56416   6.482  37.814  12.931
91256W        W56417  17.318  36.609   2.806
91257W        W56418  17.934  38.439  14.970
91258W        W56419  12.990  44.413   9.941
91259W        W56420  44.606  16.663   4.872
91260W        W56421  14.312  10.249   3.531
91261W        W56422  38.923  15.384   4.567
91262W        W56423  31.560  19.182  13.401
91263W        W56424  23.450  20.257   5.506
91264W        W56425  35.134  36.003   1.047
91265W        W56426  13.669   8.486  13.878
91266W        W56427   6.702  36.514   3.286
91267W        W56428   1.224  39.526  14.309
91268W        W56429  15.844   5.408  12.624
91269W        W56430  30.884  34.490   4.579
91270W        W56431   0.027  12.291   2.438
91271W        W56432  26.096  14.732  14.299
91272W        W56433  20.709  13.172  11.586
91273W        W56434  18.376  39.826  13.595
91274W        W56435  31.935  13.356   2.731
91275W        W56436  10.909  36.847   2.264
91276W        W56437  15.032  28.958  13.899
91277W        W56438  18.438  38.007   1.301
91278W        W56439  24.708  38.132   2.697
91279W        W56440  29.044  27.043   4.404
91280W        W56441  37.937  18.097  13.978
91281W        W56442  39.426  40.093  11.546
91282W        W56443  22.957   7.729   0.911
91283W        W56444  22.635  24.225  12.377
91284W        W56445   2.413  35.035   0.359
91285W        W56446  15.335   5.403   3.077
91286W        W56447  16.743  32.380   2.240
91287W        W56448  25.116  19.773   0.765
91288W        W56449  35.679   5.415  12.915
91289W        W56450  38.011  33.855   1.866
91290W        W56451   5.965  25.119  13.837
91291W        W56452  27.727   8.174   0.096
91292W        W56453   5.874  29.497   0.733
91293W        W56454  43.985  13.109  12.501
91294W        W56455  32.576  40.979   4.611
91295W        W56456  20.784  36.390  11.591
91296W        W56457  38.783  28.430  12.837
91297W        W56458  21.788  24.075  12.093
91298W        W56459  26.996   6.912  13.857
91299W        W56460  40.718  37.909  11.597
91300W        W56461  33.029  28.841   3.876
91301W        W56462  11.579  22.464  12.664
91302W        W56463   5.836  10.812  10.562
91303W        W56464   0.488   5.873   2.312
91304W        W56465  10.067   1.287   3.241
91305W        W56466  44.509  11.787  14.488
91306W        W56467  23.010  36.865  12.632
91307W        W56468   4.854  41.040  12.852
91308W        W56469  42.778  22.544   2.317
91309W        W56470  12.404   8.939  13.777
91310W        W56471  17.978  35.312   4.668
91311W        W56472  25.260   9.270   1.200
91312W        W56473  14.650   9.052   3.358
91313W        W56474  34.762  29.064   3.710
91314W        W56475  16.019  26.764  11.111
91315W        W56476  14.801  37.359  12.495
91316W        W56477  21.322  15.754  14.347
91317W        W56478  17.600   6.144  11.117
91318W        W56479  19.671  12.746   0.266
91319W        W56480  33.142  27.350  13.032
91320W        W56481   6.168  16.241   3.182
91321W        W56482  41.273  31.408  14.206
91322W        W56483  28.093  25.287   0.798
91323W        W56484  21.982  14.650  14.943
91324W        W56485  24.139  28.455   3.617
91325W        W56486  11.232   2.547   4.135
91326W        W56487  12.643  41.468  14.567
91327W        W56488   5.845  17.184   4.504
91328W        W56489  34.049  34.943  12.495
91329W        W56490   2.205  11.385   0.719
91330W        W56491  42.794  31.452   1.361
91331W        W56492  22.765  17.338  12.576
91332W        W56493   7.820  14.053   4.273
91333W        W56494   1.785  24.223   1.364
91334W        W56495  29.537   6.308   3.464
91335W        W56496  36.921  20.326   1.979
91336W        W56497   1.717  21.961  12.004
91337W        W56498  38.514  41.453  13.827
91338W        W56499   3.409  19.124   0.845
91339W        W56500   4.360  34.949  14.993
91340W        W56501   6.424  10.775   1.671
91341W        W56502  37.277  24.139  10.682
91342W        W56503  12.824  41.831  13.164
91343W        W56504  20.755   7.710   4.609
91344W        W56505   6.436  43.982   1.312
91345W        W56506  38.840  14.500  10.683
91346W        W56507  36.568   0.397   0.737
91347W        W56508  43.752   2.782   0.277
91348W        W56509  24.484  15.318  12.761
91349W        W56510  13.218  30.114  10.588
91350W        W56511  13.363  36.752  13.766
91351W        W56512  33.752  25.831  14.924
91352W        W56513  17.156  36.872   1.479
91353W        W56514  35.228  18.532  10.983
91354W        W56515   1.915   4.656  14.307
91355W        W56516  39.117  36.560  12.529
91356W        W56517  31.880  39.260   2.171
91357W        W56518  41.909   5.858  10.775
91358W        W56519  36.657  13.863   3.203
91359W        W56520  37.896  20.290   4.668
91360W        W56521  17.358  39.290   3.187
91361W        W56522  38.264  40.295   0.790
91362W        W56523  29.174  18.537   2.383
91363W        W56524  10.112  26.052  11.560
91364W        W56525  38.871  28.641  10.629
91365W        W56526  11.747  36.610  14.088
91366W        W56527  31.963  20.054  12.957
91367W        W56528  44.379  37.391  12.371
91368W        W56529  19.876  19.157  13.452
91369W        W56530  40.387   7.394   4.915
91370W        W56531   1.489   9.969  12.423
91371W        W56532  36.559  28.086  13.708
91372W        W56533  35.972   0.287   0.635
91373W        W56534  30.453  18.651  10.666
91374W        W56535  38.038   3.114  14.971
91375W        W56536  37.892  42.884   2.667
91376W        W56537  12.856   1.303  14.517
91377W        W56538  25.254   0.290  10.882
91378W        W56539  41.833  26.207  12.990
91379W        W56540   7.471  10.321   0.403
91380W        W56541   3.667  15.596  11.846
91381W        W56542  28.195  15.050   5.025
91382W        W56543  12.080  14.104   4.207
91383W        W56544   2.344  17.413  11.068
91384W        W56545  34.986  31.155   0.794
91385W        W56546  44.472  28.292   0.353
91386W        W56547   6.765  14.006   3.338
91387W        W56548  11.181  14.669   0.125
91388W        W56549  26.711  22.071   1.394
91389W        W56550  11.856  35.066   2.851
91390W        W56551  23.533  27.969   4.127
91391W        W56552  30.789   3.943   2.712
91392W        W56553  29.538  28.298  13.783
91393W        W56554  38.309  17.252  14.773
91394W        W56555  22.544  38.304  12.520
91395W        W56556  16.750   0.959   4.388
91396W        W56557   5.931  43.764  10.729
91397W        W56558  37.925  26.448  11.630
91398W        W56559  18.149   4.929  12.550
91399W        W56560  14.359  30.031  13.084
91400W        W56561   4.401  19.509   5.015
91401W        W56562   7.349  24.024   3.110
91402W        W56563  12.915   7.140   4.072
91403W        W56564  40.812   7.369  14.884
91404W        W56565  34.758   8.296   1.320
91405W        W56566  14.348  26.083  14.742
91406W        W56567   6.914  30.576   1.369
91407W        W56568  11.899   4.047  11.129
91408W        W56569  26.151  39.571  13.751
91409W        W56570   7.565  44.946  13.375
91410W        W56571  23.562  20.074  13.038
91411W        W56572  35.872  27.574   2.774
91412W        W56573  11.446  21.595  11.388
91413W        W56574  19.673  20.033  14.434
91414W        W56575  15.861  43.317   1.450
91415W        W56576  38.339  39.091   0.120
91416W        W56577  39.654  30.703   1.014
91417W        W56578  30.706  22.364   4.731
91418W        W56579   3.877  39.476  12.523
91419W        W56580  35.005  22.027  13.841
91420W        W56581  13.623  16.171  11.624
91421W        W56582  10.463  19.966  14.399
91422W        W56583  32.428  32.799  14.406
91423W        W56584   1.879   3.907   1.855
91424W        W56585  31.888  26.663   0.530
91425W        W56586  34.606  13.177  13.043
91426W        W56587  26.474  34.523  14.601
91427W        W56588  34.567  28.624   0.749
91428W        W56589  11.709  10.299  14.060
91429W        W56590  44.913   2.004  11.589
91430W        W56591  44.276  31.962  13.938
91431W        W56592  23.307  22.304   3.511
91432W        W56593  34.462  10.060   0.709
91433W        W56594  30.460  32.912  12.134
91434W        W56595   0.829  12.422  13.739
91435W        W56596  14.293  36.314  12.859
91436W        W56597   4.148  31.705  13.453
91437W        W56598  25.000  24.269  12.367
91438W        W56599  28.188   8.401   0.211
91439W        W56600  15.820  21.001   1.262
91440W        W56601   9.297  18.141  13.797
91441W        W56602  12.653   9.295  14.108
91442W        W56603  13.682   4.987   4.256
91443W        W56604  42.304  14.858   4.625
91444W        W56605  20.032  10.114   0.212
91445W        W56606  41.554  43.820   4.382
91446W        W56607  38.440  10.161   1.717
91447W        W56608   0.007  18.570  12.976
91448W        W56609  43.541  29.184  13.810
91449W        W56610  34.665   5.343   3.712
91450W        W56611  18.602  18.314   3.897
91451W        W56612  29.625  13.554  12.470
91452W        W56613  27.578  27.565  10.828
91453W        W56614  39.366  36.939   0.520
91454W        W56615  25.440   1.217   1.693
91455W        W56616   3.214  31.950  11.640
91456W        W56617   8.125  25.113   4.636
91457W        W56618  34.459  41.502  11.342
91458W        W56619  44.290  35.263   5.023
91459W        W56620  12.132  29.378  14.335
91460W        W56621  38.845   2.730   0.379
91461W        W56622  13.613  32.909  10.724
91462W        W56623  17.264   0.014   3.253
91463W        W56624  43.985  32.101   2.642
91464W        W56625  17.659   9.862   2.131
91465W        W56626  34.428  28.136  13.954
91466W        W56627  42.489  17.602   3.702
91467W        W56628  36.209  43.357   1.774
91468W        W56629  34.363  16.081  14.901
91469W        W56630   5.886   7.875   0.821
91470W        W56631  15.939  16.277   5.119
91471W        W56632   1.248  44.314  10.924
91472W        W56633  22.765   0.964  12.131
91473W        W56634  14.171  27.939  13.798
91474W        W56635   9.212  40.169  11.522
91475W        W56636   5.276  40.629   2.784
91476W        W56637  14.310   6.186  10.770
91477W        W56638  19.579  27.230   1.425
91478W        W56639  26.876  32.033  12.980
91479W        W56640  19.077  40.726   1.285
91480W        W56641  31.557  42.813   0.809
91481W        W56642  17.332   5.197  11.956
91482W        W56643  27.115  31.945  11.121
91483W        W56644  42.411  10.758  14.579
91484W        W56645  34.328  30.384   0.706
91485W        W56646  12.611   3.953  13.091
91486W        W56647  44.792  24.225  14.420
91487W        W56648   4.416  32.908   3.180
91488W        W56649  24.058  12.930   4.103
91489W        W56650  11.108  23.963  11.644
91490W        W56651  27.355  29.039  14.793
91491W        W56652  43.136  35.508   5.205
91492W        W56653  32.069   0.999  13.853
91493W        W56654   5.046  23.065  14.883
91494W        W56655  14.744  10.870   0.420
91495W        W56656  44.897   7.840  11.633
91496W        W56657   2.643  44.590  11.138
91497W        W56658  31.568   4.184  12.434
91498W        W56659   4.139   0.761  10.442
91499W        W56660  15.655   6.157  13.794
91500W        W56661  11.731   7.643  11.276
91501W        W56662  30.400  39.005   1.675
91502W        W56663  23.430  25.934   0.856
91503W        W56664  19.366  16.847  10.733
91504W        W56665  13.308   9.344  12.960
91505W        W56666   6.382  11.756  13.368
91506W        W56667   7.342  41.425   0.424
91507W        W56668  32.616  20.616  14.132
91508W        W56669   2.923   8.901   0.392
91509W        W56670  16.107  19.100   4.231
91510W        W56671  41.502  21.804  12.714
91511W        W56672  18.178   0.818  10.413
91512W        W56673  33.398  34.702   4.436
91513W        W56674  26.920  21.118   3.820
91514W        W56675  38.351   2.800  12.794
91515W        W56676  11.570  37.905  10.624
91516W        W56677  43.688   0.151   3.178
91517W        W56678  17.154  39.550  12.300
91518W        W56679  43.255   4.163  11.121
91519W        W56680  11.773   1.179  13.602
91520W        W56681  32.964  34.180  14.297
91521W        W56682  40.578   2.284   0.882
91522W        W56683  16.274  34.439   2.697
91523W        W56684  35.884  33.955   2.688
91524W        W56685   9.639  16.578   2.827
91525W        W56686  32.142   5.695  12.551
91526W        W56687  11.654  44.570  10.871
91527W        W56688  39.550  25.473   1.734
91528W        W56689   3.370  42.237  11.209
91529W        W56690   9.627  30.914   0.501
91530W        W56691  21.445  36.635  14.774
91531W        W56692   4.333   6.422   2.262
91532W        W56693  24.540   0.761   1.211
91533W        W56694   8.655  35.099  12.479
91534W        W56695  15.777  10.811   1.019
91535W        W56696   3.760  15.785  12.317
91536W        W56697  41.028  25.815  12.554
91537W        W56698  32.587   4.011   4.659
91538W        W56699  43.005  41.586  13.731
91539W        W56700  35.341  17.777  12.464
91540W        W56701   8.134   5.864   4.123
91541W        W56702  16.861  35.068   1.615
91542W        W56703  43.961  28.446   4.554
91543W        W56704  32.617  21.896  13.055
91544W        W56705  37.417  14.353  10.802
91545W        W56706   5.990   5.833   3.056
91546W        W56707  23.233  40.397  12.855
91547W        W56708  35.161  10.257  13.453
91548W        W56709   1.384   5.791  10.312
91549W        W56710  19.986  35.875   2.747
91550W        W56711  20.057   5.350  14.831
91551W        W56712  40.388   2.159  13.428
91552W        W56713  30.369  17.630  11.785
91553W        W56714  41.162  36.226   5.508
91554W        W56715  30.121   6.791   3.675
91555W        W56716  20.346  10.208  14.812
91556W        W56717  12.170   7.904   0.442
91557W        W56718  35.543   3.372  11.936
91558W        W56719   3.802  43.892  11.158
91559W        W56720  20.182  26.109   0.313
91560W        W56721   9.694   7.468  13.776
91561W        W56722  30.739  33.999  14.489
91562W        W56723  34.846   4.434  11.098
91563W        W56724  28.690   8.267   4.510
91564W        W56725   1.421   5.756  12.349
91565W        W56726  13.883   5.245  12.309
91566W        W56727  36.336  12.586  11.213
91567W        W56728  10.185  15.803   4.611
91568W        W56729  38.618  10.415  13.856
91569W        W56730   8.801  25.063   4.162
91570W        W56731  33.726  16.643  14.479
91571W        W56732  43.410  26.137  13.671
91572W        W56733  40.350   9.128  11.627
91573W        W56734   3.606  18.818  11.616
91574W        W56735  16.131  14.334   4.542
91575W        W56736   3.198   2.495  14.089
91576W        W56737  16.218  12.650  10.901
91577W        W56738   3.272  21.455   0.645
91578W        W56739  10.174  17.005  11.283
91579W        W56740   7.695  38.635  12.961
91580W        W56741  21.204  12.352   0.357
91581W        W56742  30.217  14.974  11.130
91582W        W56743   9.157  14.143   3.863
91583W        W56744  24.456  34.125   2.414
91584W        W56745  42.508  35.793   3.773
91585W        W56746  11.394  13.851  12.510
91586W        W56747  39.157  19.599   2.801
91587W        W56748  41.912   9.628   4.376
91588W        W56749  18.023  38.877   0.271
91589W        W56750  34.849  33.466  11.134
91590W        W56751  41.104  19.729  11.607
91591W        W56752   4.295  13.068   3.704
91592W        W56753  31.280  32.479  11.629
91593W        W56754   7.682  25.389   5.330
91594W        W56755   0.005   5.238   0.636
91595W        W56756   8.128  16.543   4.264
91596W        W56757  12.352   3.763  13.497
91597W        W56758   1.974  31.011  12.074
91598W        W56759  32.128  20.221   2.240
91599W        W56760  21.664   1.796   3.258
91600W        W56761  35.614  36.990   2.147
91601W        W56762   4.615   9.160   2.280
91602W        W56763   4.176   8.328   4.013
91603W        W56764   4.339  33.320  14.197
91604W        W56765   7.953  41.208   4.028
91605W        W56766  42.051  24.056   0.777
91606W        W56767  42.670  33.832  10.168
91607W        W56768   5.012   2.500  10.149
91608W        W56769   9.616  27.761   0.502
91609W        W56770  37.370  26.241   3.814
91610W        W56771   8.616   1.296   2.243
91611W        W56772  31.098  25.056   3.347
91612W        W56773  18.862  14.163  11.170
91613W        W56774  13.638  14.682  13.550
91614W        W56775  30.636   8.366   0.986
91615W        W56776   2.783  22.112   2.699
91616W        W56777   0.694  21.079  10.620
91617W        W56778  32.103  10.307  14.427
91618W        W56779  31.598  32.499  10.845
91619W        W56780  13.730  37.444   2.920
91620W        W56781  17.538   2.193  11.448
91621W        W56782  29.077  21.718   4.198
91622W        W56783  10.806  29.977  11.010
91623W        W56784   2.953   7.679  12.846
91624W        W56785   5.728  35.493   0.968
91625W        W56786  20.016  23.291   1.930
91626W        W56787  36.138  20.733   0.256
91627W        W56788  33.840  23.058   1.966
91628W        W56789  17.647  28.160  13.775
91629W        W56790  27.703  24.052  14.217
91630W        W56791  26.571   1.955   3.236
91631W        W56792  23.437   2.462  12.055
91632W        W56793  39.465  14.504   2.373
91633W        W56794  40.322  35.338   3.654
91634W        W56795  30.795  13.734  14.295
91635W        W56796  32.952  32.429   3.850
91636W        W56797   0.058  24.966  11.508
91637W        W56798  34.468  21.740   9.723
91638W        W56799   9.509  17.060   2.705
91639W        W56800  42.001  37.794   2.629
91640W        W56801  36.779  24.666   0.439
91641W        W56802  22.431  14.336  13.011
91642W        W56803  25.105  25.159   2.666
91643W        W56804   5.167  27.433  13.035
91644W        W56805  44.464  24.531   1.371
91645W        W56806  25.067  15.678   4.613
91646W        W56807  43.830  28.842  14.391
91647W        W56808  21.279   8.663  14.824
91648W        W56809   0.488  28.033  14.463
91649W        W56810  20.649   2.755   4.451
91650W        W56811  31.484  17.636   0.701
91651W        W56812  38.573  37.601  13.810
91652W        W56813   8.422  13.370  12.944
91653W        W56814   9.229  34.420  11.344
91654W        W56815  18.212  19.664  11.040
91655W        W56816  34.753  10.696  14.934
91656W        W56817   9.788  41.339   2.656
91657W        W56818  33.804  30.651   2.782
91658W        W56819  26.980   3.495  11.659
91659W        W56820  40.866   4.538  12.207
91660W        W56821  13.371  33.033  13.116
91661W        W56822  14.310  14.011  12.981
91662W        W56823   6.874  17.369  10.984
91663W        W56824  14.701  21.605   0.728
91664W        W56825  40.562  23.570   0.344
91665W        W56826  40.482  27.444   2.730
91666W        W56827  14.666  40.831  10.541
91667W        W56828   2.962  33.434   4.522
91668W        W56829   5.304  42.231   4.776
91669W        W56830   5.902  12.593   0.902
91670W        W56831  15.858  38.957   4.523
91671W        W56832  17.648  35.171  14.204
91672W        W56833  33.654  17.207   3.187
91673W        W56834  36.583  10.938  14.403
91674W        W56835   3.737  22.568   0.054
91675W        W56836  43.469  30.251  12.075
91676W        W56837  34.901  33.456  12.169
91677W        W56838  30.828  40.499   5.055
91678W        W56839  37.052  12.581  11.954
91679W        W56840   7.661   5.179   3.739
91680W        W56841  14.286  27.440  13.854
91681W        W56842  22.222  40.898   4.184
91682W        W56843  12.354   9.336   0.477
91683W        W56844  13.247  34.043   4.595
91684W        W56845  26.239  30.218   3.251
91685W        W56846   0.235  17.584   2.236
91686W        W56847  16.186  31.841  12.393
91687W        W56848  10.479  17.366  11.542
91688W        W56849  12.779  29.036  11.319
91689W        W56850   4.915  26.153   2.213
91690W        W56851  41.385  10.305  13.849
91691W        W56852  20.616  16.964   0.355
91692W        W56853  25.368  10.452   5.481
91693W        W56854  31.044  32.681   3.121
91694W        W56855   1.975  14.308  14.023
91695W        W56856  21.055  18.953   2.660
91696W        W56857  13.943   6.157  11.605
91697W        W56858  30.728   1.586   1.943
91698W        W56859  26.917  34.037   2.253
91699W        W56860  15.341  34.922  14.056
91700W        W56861  17.092  31.942   4.999
91701W        W56862   5.056   6.190   0.368
91702W        W56863  29.438  18.800  10.761
91703W        W56864  34.944  19.220   3.685
91704W        W56865  16.749  37.490   2.792
91705W        W56866  20.117   7.190  13.523
91706W        W56867  14.124  16.453  12.506
91707W        W56868   5.322  41.725   4.908
91708W        W56869  36.577  37.424  10.995
91709W        W56870   9.264   2.907   2.317
91710W        W56871  36.936  11.318   1.733
91711W        W56872  14.564  12.327   4.715
91712W        W56873  15.226  32.980  11.192
91713W        W56874  25.485  38.185  14.835
91714W        W56875  42.248   2.929  13.891
91715W        W56876  42.210  40.445  12.911
91716W        W56877  21.267  15.271  12.385
91717W        W56878  16.484  13.815  11.291
91718W        W56879   9.837   2.491  14.300
91719W        W56880   2.994  39.995   4.539
91720W        W56881  33.641   9.291  13.456
91721W        W56882  17.212  19.809  14.890
91722W        W56883  41.856   1.464  12.442
91723W        W56884  39.362  40.283   3.118
91724W        W56885  32.260   4.823   3.831
91725W        W56886   2.337  43.487   1.458
91726W        W56887   5.264  15.186  11.800
91727W        W56888   6.763  31.688   4.243
91728W        W56889  24.780   9.981  10.273
91729W        W56890  40.301  25.645   2.861
91730W        W56891  43.346  33.326  11.894
91731W        W56892  44.752  27.459  11.430
91732W        W56893  16.280  41.902  14.057
91733W        W56894   8.962  38.846   2.241
91734W        W56895  19.931   4.819   4.157
91735W        W56896  11.884  37.421  10.068
91736W        W56897  42.775  13.577  14.815
91737W        W56898  25.670   1.000   4.124
91738W        W56899   3.498  17.302  11.515
91739W        W56900   5.308   9.423  14.473
91740W        W56901  21.956  23.525   2.648
91741W        W56902  25.085  34.174   4.285
91742W        W56903   9.977  34.894  14.865
91743W        W56904  16.903  15.668   2.669
91744W        W56905  40.464  38.255   0.306
91745W        W56906  13.040  23.639  13.874
91746W        W56907  38.193  15.441   2.226
91747W        W56908  29.407  13.515  10.724
91748W        W56909   5.660   9.383   2.266
91749W        W56910  10.334  18.652  10.679
91750W        W56911   4.829   0.592   0.559
91751W        W56912  21.441  12.163   3.637
91752W        W56913   4.328   1.742  12.603
91753W        W56914   8.740  17.779  10.762
91754W        W56915   4.267  21.364  12.574
91755W        W56916  32.557  11.386   2.007
91756W        W56917  42.954  41.845   0.210
91757W        W56918  35.115  12.133  11.080
91758W        W56919  14.997  31.282  13.520
91759W        W56920  27.630   4.993   2.191
91760W        W56921  17.627  18.714   1.613
91761W        W56922   0.302  17.917  13.166
91762W        W56923  12.426  40.283  12.927
91763W        W56924  43.230  12.714   0.861
91764W        W56925  15.164  30.372   3.136
91765W        W56926  42.986  42.530   2.397
91766W        W56927  19.276  12.887   1.790
91767W        W56928  22.795   1.434   2.921
91768W        W56929  22.585  16.219   4.973
91769W        W56930  25.820   4.939  14.858
91770W        W56931  44.958  13.670   1.166
91771W        W56932   5.648  30.874  14.992
91772W        W56933  19.531   9.175   2.784
91773W        W56934   9.927  38.583   0.310
91774W        W56935  22.751   4.317  14.388
91775W        W56936   3.929  34.655  14.308
91776W        W56937  22.093   3.405  12.148
91777W        W56938  21.632  19.715   2.648
91778W        W56939   6.017  44.742  10.685
91779W        W56940  21.305  23.108   0.289
91780W        W56941  26.113  29.460   2.815
91781W        W56942  35.827  36.982   2.899
91782W        W56943  26.595  12.817   5.457
91783W        W56944  16.738  38.589   2.935
91784W        W56945   4.904  17.052   0.408
91785W        W56946  39.359  33.882  14.718
91786W        W56947  41.302  43.354   2.372
91787W        W56948  43.415  36.504  12.728
91788W        W56949  15.330  18.725  12.450
91789W        W56950  41.734  40.029  13.433
91790W        W56951  15.591  30.932   5.006
91791W        W56952   3.264  39.879   1.721
91792W        W56953   4.845  41.346   3.680
91793W        W56954  30.961  21.191  10.957
91794W        W56955  10.776  14.523   1.269
91795W        W56956  27.070  15.532   2.564
91796W        W56957  21.309  39.360   3.537
91797W        W56958   6.782   9.329  10.553
91798W        W56959  23.613  17.654   2.187
91799W        W56960  12.122  19.256  11.626
91800W        W56961  24.440  40.288  12.441
91801W        W56962  31.219   5.932   0.071
91802W        W56963  39.083  12.167   4.474
91803W        W56964   8.152  38.813  11.008
91804W        W56965  21.279   4.125   0.369
91805W        W56966   6.058  23.009  11.835
91806W        W56967   4.727   5.497   4.122
91807W        W56968  26.397  42.489  14.862
91808W        W56969  12.756   5.367   4.253
91809W        W56970  44.369  20.185  11.374
91810W        W56971   8.700   8.541   0.759
91811W        W56972   3.493  13.906   4.910
91812W        W56973  12.398  10.861  11.030
91813W        W56974  17.970   9.216   2.806
91814W        W56975  31.041  33.002   2.716
91815W        W56976  21.573   2.528  14.719
91816W        W56977  31.134  33.775  11.087
91817W        W56978   1.133  13.814  14.877
91818W        W56979  13.411  43.792  10.726
91819W        W56980  39.422   2.025  14.003
91820W        W56981   2.263  37.933  13.800
91821W        W56982  42.812  21.972   3.637
91822W        W56983  21.567   0.559   3.781
91823W        W56984  33.037   3.918  10.558
91824W        W56985  38.689   5.060   4.124
91825W        W56986  27.762   8.649   5.405
91826W        W56987  21.463  44.850  11.619
91827W        W56988  11.769  38.945   3.541
91828W        W56989  16.846  13.294   4.049
91829W        W56990  38.210  24.073   2.444
91830W        W56991  25.620  23.467   3.831
91831W        W56992   2.443  29.393   0.883
91832W        W56993  38.643  28.989  11.548
91833W        W56994  40.620  19.230  11.040
91834W        W56995  17.198  41.839  11.562
91835W        W56996  12.658   8.809   3.343
91836W        W56997   9.281   1.259  13.459
91837W        W56998   5.276  34.893   2.872
91838W        W56999   8.451  43.201   0.736
91839W        W57000   7.151   0.958  10.712
91840W        W57001  41.279  27.603  12.419
91841W        W57002  22.272   3.811  11.862
91842W        W57003  40.479  36.694   2.112
91843W        W57004  43.878   8.172   2.805
91844W        W57005  40.815   4.506  11.098
91845W        W57006  44.502  43.972  14.961
91846W        W57007  35.059  34.840  14.504
91847W        W57008  34.379  32.714  11.913
91848W        W57009  18.056   5.179   1.777
91849W        W57010   7.168   3.411   2.749
91850W        W57011  19.157  32.691   3.176
91851W        W57012   3.740  21.691  11.096
91852W        W57013  17.177  13.201  11.651
91853W        W57014  20.550  24.453   2.321
91854W        W57015   9.784   5.748  11.166
91855W        W57016   4.359   3.728  14.480
91856W        W57017  32.393  33.848  12.476
91857W        W57018  12.263  32.131  10.743
91858W        W57019  31.430  10.784  11.520
91859W        W57020  22.732  21.617   3.310
91860W        W57021   3.192  17.680   1.449
91861W        W57022  27.049  42.522   4.808
91862W        W57023  31.802  36.541  14.448
91863W        W57024  16.694  16.135   2.808
91864W        W57025  14.223  26.638  10.561
91865W        W57026  27.326  24.272   9.719
91866W        W57027  30.202  40.387  13.412
91867W        W57028   2.934  40.891   1.807
91868W        W57029  30.701  33.070   4.744
91869W        W57030   8.850  12.376   1.098
91870W        W57031  34.418  41.355  12.334
91871W        W57032  18.209  35.847  14.624
91872W        W57033   4.667   9.202   0.723
91873W        W57034   4.913  23.150  13.507
91874W        W57035   7.380  14.276  12.835
91875W        W57036  26.540  41.077   4.515
91876W        W57037  31.088   2.911  10.969
91877W        W57038   5.807   8.274   4.813
91878W        W57039   9.627  15.718   0.450
91879W        W57040  31.633  16.115  13.985
91880W        W57041   7.135  29.113  14.871
91881W        W57042  13.326  11.853   0.968
91882W        W57043   0.282  31.536   0.296
91883W        W57044  21.346  22.699   3.117
91884W        W57045  44.328  17.679  13.434
91885W        W57046  12.120  39.240  12.487
91886W        W57047  31.534  43.408   0.488
91887W        W57048  19.689   6.190   3.642
91888W        W57049   1.461  18.047   2.635
91889W        W57050  10.664   7.581  10.869
91890W        W57051  16.647  27.275   0.054
91891W        W57052  26.509  42.882  11.495
91892W        W57053   9.275  21.973   0.682
91893W        W57054   2.938  24.434  14.991
91894W        W57055  34.125  27.647   3.447
91895W        W57056   3.490  22.590  13.313
91896W        W57057  35.151  28.701   3.655
91897W        W57058   4.421   0.264   1.309
91898W        W57059  29.146  26.658  11.055
91899W        W57060  19.996  39.427   2.366
91900W        W57061  20.676   7.723   1.700
91901W        W57062  37.142  26.016   0.354
91902W        W57063  16.749  39.641   0.207
91903W        W57064  10.329   6.653   4.286
91904W        W57065   3.306  17.026  13.862
91905W        W57066  34.948  25.228  14.871
91906W        W57067   5.254   4.790  11.163
91907W        W57068   0.056  31.090  14.305
91908W        W57069  24.479   7.754  12.157
91909W        W57070   1.258   0.036   3.248
91910W        W57071  34.829  41.084   4.630
91911W        W57072   9.611   4.851  12.453
91912W        W57073   3.515   3.526   4.618
91913W        W57074  21.280  14.270  14.308
91914W        W57075  29.155  15.810   3.706
91915W        W57076  27.843   7.641  11.054
91916W        W57077  16.943  17.952  13.702
91917W        W57078  22.280   7.707   1.715
91918W        W57079   9.784  21.971   4.081
91919W        W57080  38.403  36.592   0.262
91920W        W57081  21.036   5.658  11.520
91921W        W57082   3.763  38.769  10.935
91922W        W57083  44.765  27.038  13.256
91923W        W57084  19.151   3.608   1.453
91924W        W57085   5.280  20.941   1.906
91925W        W57086  23.199   4.166  10.729
91926W        W57087   1.689  15.094   3.726
91927W        W57088   6.830  43.139   2.203
91928W        W57089  23.181  11.427   3.355
91929W        W57090  44.385  29.150   0.930
91930W        W57091   6.822   3.001  12.791
91931W        W57092  23.112   4.273  14.820
91932W        W57093   6.612  35.516   3.147
91933W        W57094  23.578  25.895  14.339
91934W        W57095  28.834  29.228  11.015
91935W        W57096   1.344  14.546   0.241
91936W        W57097   2.696   7.524   1.846
91937W        W57098  19.652   5.875  14.294
91938W        W57099  24.957   4.244  11.528
91939W        W57100  17.669  17.967   2.022
91940W        W57101  36.330  34.459  12.494
91941W        W57102   0.402  28.272   4.117
91942W        W57103  11.617  44.932  10.499
91943W        W57104   9.356  36.953   3.400
91944W        W57105   9.668  15.715  13.115
91945W        W57106   2.288  15.357   4.526
91946W        W57107  11.418  23.931   1.244
91947W        W57108  20.310  42.780   1.074
91948W        W57109   7.013  29.629   5.026
91949W        W57110  43.461   4.384  10.726
91950W        W57111  14.020  43.013  10.292
91951W        W57112   2.848  10.828   0.286
91952W        W57113  25.098  28.827  10.706
91953W        W57114  35.832   7.878   0.783
91954W        W57115  13.448   6.699  11.943
91955W        W57116  15.907  18.098  10.626
91956W        W57117  36.927  32.908  11.071
91957W        W57118  13.852  21.602   2.838
91958W        W57119  33.911  30.148   2.826
91959W        W57120  17.722  22.460   1.370
91960W        W57121  36.102  26.580  12.990
91961W        W57122  38.091  10.818  11.957
91962W        W57123   2.751  44.767  13.971
91963W        W57124  26.582  22.607   3.308
91964W        W57125  28.275   9.686  14.915
91965W        W57126  37.925  39.253  12.995
91966W        W57127   4.702  35.959   4.178
91967W        W57128  15.313  31.189  11.186
91968W        W57129  17.638  20.701   4.559
91969W        W57130   2.550  16.229  13.953
91970W        W57131  39.849  30.472   3.323
91971W        W57132   3.531  20.566   2.891
91972W        W57133  22.639  30.993  11.923
91973W        W57134  32.944  40.042  14.790
91974W        W57135  19.848  22.449   2.335
91975W        W57136  33.936  29.508  10.788
91976W        W57137  33.688  37.461   1.286
91977W        W57138   8.993  30.080  13.540
91978W        W57139   5.867  38.573   1.452
91979W        W57140  24.678  32.369  11.150
91980W        W57141   9.391   1.769   0.850
91981W        W57142  27.130  26.230   2.750
91982W        W57143   7.073  32.502  14.333
91983W        W57144  34.860   8.799  14.289
91984W        W57145  30.427  11.666  11.583
91985W        W57146   3.724  44.380   0.457
91986W        W57147  11.606   6.409   4.177
91987W        W57148  34.524  39.503   0.095
91988W        W57149  18.111  27.577  11.262
91989W        W57150  44.738  41.809   0.579
91990W        W57151  39.369  25.753   3.339
91991W        W57152  27.891  23.477   2.838
91992W        W57153  12.567  29.206   2.198
91993W        W57154  27.429  42.200  14.840
91994W        W57155   9.449  28.934  12.900
91995W        W57156  43.876  12.073  10.642
91996W        W57157   5.131  44.958   2.713
91997W        W57158  18.340  21.068   2.812
91998W        W57159   9.747   5.424   4.779
91999W        W57160   1.317  42.754   0.332
92000W        W57161  38.444  25.967   2.774
92001W        W57162  34.090  25.405  14.914
92002W        W57163   4.481  12.308  13.605
92003W        W57164  33.890  32.985  12.914
92004W        W57165  13.272   7.300   4.443
92005W        W57166  37.233   8.964  10.360
92006W        W57167  25.508  27.712   1.038
92007W        W57168  28.482  41.223  14.405
92008W        W57169  15.710  24.156  11.821
92009W        W57170  26.203   3.608  12.262
92010W        W57171  41.623  18.467  14.938
92011W        W57172   5.237  12.342  12.557
92012W        W57173  43.985  15.292  11.988
92013W        W57174  30.412  19.301  13.965
92014W        W57175  11.218   1.195   0.795
92015W        W57176   9.380  20.754  10.704
92016W        W57177  12.339   2.865   3.068
92017W        W57178   3.047  44.895  10.277
92018W        W57179  17.071   7.189   3.135
92019W        W57180   8.251  29.419  13.808
92020W        W57181   9.841  43.829  13.411
92021W        W57182  40.897   6.806   0.728
92022W        W57183  28.115  29.964   3.706
92023W        W57184   6.342  41.481   1.270
92024W        W57185  15.980  13.056  11.156
92025W        W57186  31.989  44.271   3.371
92026W        W57187  40.291   3.102   1.452
92027W        W57188  27.636   4.749   1.726
92028W        W57189  41.164  10.353  14.307
92029W        W57190  29.825  31.410  10.647
92030W        W57191  35.847  10.325  12.105
92031W        W57192  15.717   3.727  11.882
92032W        W57193  14.621  42.486   3.729
92033W        W57194  41.765   3.529  10.416
92034W        W57195  44.760   0.079   4.198
92035W        W57196   7.687  11.382  12.451
92036W        W57197  13.299  26.992   4.145
92037W        W57198  13.809   1.577  10.754
92038W        W57199  21.375  35.278   2.257
92039W        W57200   0.169  20.229   3.611
92040W        W57201  36.329  29.852  13.894
92041W        W57202   4.790  41.999   0.957
92042W        W57203   2.906   0.387   2.628
92043W        W57204  31.129  11.525   4.437
92044W        W57205  25.104  27.005  12.471
92045W        W57206  12.880  25.973   0.025
92046W        W57207   4.984  38.488   2.328
92047W        W57208  27.053  12.090  10.194
92048W        W57209  28.093  41.848   0.261
92049W        W57210  36.809  25.992   0.760
92050W        W57211   7.236  42.495  14.314
92051W        W57212  18.105  39.080  14.809
92052W        W57213  14.696  29.981   2.753
92053W        W57214   9.878  15.038  10.718
92054W        W57215  41.630   7.734  12.291
92055W        W57216  13.780  12.888   2.776
92056W        W57217  12.777   6.366   2.141
92057W        W57218  30.488  30.265   3.245
92058W        W57219   1.604  18.066  12.859
92059W        W57220  22.165  39.913  11.868
92060W        W57221  36.794  15.754  11.621
92061W        W57222  15.509  23.498  11.421
92062W        W57223  10.277  17.989  14.549
92063W        W57224   6.830  19.569  13.521
92064W        W57225  12.650  34.516   3.863
92065W        W57226  27.729  16.588  12.078
92066W        W57227  22.958  13.086  12.957
92067W        W57228  13.312   0.890   4.470
92068W        W57229   4.162  21.124  14.049
92069W        W57230  24.954  32.105  12.852
92070W        W57231   1.197  26.498   2.372
92071W        W57232  16.662  29.751  11.556
92072W        W57233   5.854  23.869   4.907
92073W        W57234  40.487   6.063  14.892
92074W        W57235  22.850  35.275  11.856
92075W        W57236  43.045  26.313   2.215
92076W        W57237   1.434  26.222   3.719
92077W        W57238  37.143  29.025  10.743
92078W        W57239  42.254   4.577   4.463
92079W        W57240   1.146  23.790   0.965
92080W        W57241  11.046   3.903  12.001
92081W        W57242  16.078  20.509  12.860
92082W        W57243  19.254   9.907  13.428
92083W        W57244  35.340  28.073   3.268
92084W        W57245  13.071  28.212   2.150
92085W        W57246  43.701  22.475   4.015
92086W        W57247  31.476  42.622  12.429
92087W        W57248  40.247  25.932  14.800
92088W        W57249  22.998  12.885  13.498
92089W        W57250  44.745  25.490  10.693
92090W        W57251  16.673  34.762   2.585
92091W        W57252  39.362   6.816  14.914
92092W        W57253  41.613  21.325  12.979
92093W        W57254  11.219  35.682   3.210
92094W        W57255   3.895  14.018   2.042
92095W        W57256  13.770  43.697   1.207
92096W        W57257  38.816   7.926  14.388
92097W        W57258  38.321  11.306  13.753
92098W        W57259  13.500  22.248   3.075
92099W        W57260  29.473  29.677  10.375
92100W        W57261  16.198  16.828   2.869
92101W        W57262  36.948  21.138   4.266
92102W        W57263  41.418  33.524   4.396
92103W        W57264  22.706  34.412  12.884
92104W        W57265  18.581  13.858  12.312
92105W        W57266  11.220  24.729  12.073
92106W        W57267  35.802  25.936  13.874
92107W        W57268   7.381  24.931   0.026
92108W        W57269  36.664   3.855   4.436
92109W        W57270  10.401  19.766  11.577
92110W        W57271  12.081  41.764  11.429
92111W        W57272  38.123   3.342   0.961
92112W        W57273   3.016   4.706   3.792
92113W        W57274   1.686  21.214  10.619
92114W        W57275   5.254  38.749   3.122
92115W        W57276   5.283  17.810   1.988
92116W        W57277   0.990  30.455  10.681
92117W        W57278   4.471  13.245  13.416
92118W        W57279  28.055  26.721   4.815
92119W        W57280  15.738  13.310   1.216
92120W        W57281  43.336  22.170  13.913
92121W        W57282   8.738  33.667  12.376
92122W        W57283  34.434  20.028   1.895
92123W        W57284  14.196  27.407   3.242
92124W        W57285   5.900  20.862  14.932
92125W        W57286  23.243  10.801   3.717
92126W        W57287  18.596  31.390   3.358
92127W        W57288  17.245  18.211   0.900
92128W        W57289   1.528  20.759   1.198
92129W        W57290  28.669  34.597  11.391
92130W        W57291  25.173  43.472   1.431
92131W        W57292  19.708  20.794   0.881
92132W        W57293  12.195  30.985  12.129
92133W        W57294  15.164  19.294   0.604
92134W        W57295  14.124  13.829  11.823
92135W        W57296   3.864   2.533  10.508
92136W        W57297  12.921  27.443  13.414
92137W        W57298  15.024  32.417   3.613
92138W        W57299   0.278  29.151   3.669
92139W        W57300   2.394  19.936   4.355
92140W        W57301   8.802  20.460  12.321
92141W        W57302  21.658   7.157  13.955
92142W        W57303  16.986   9.265  13.841
92143W        W57304  38.392   9.371   1.308
92144W        W57305  19.791   4.528  10.462
92145W        W57306  41.444  20.336   0.771
92146W        W57307   0.450  42.972   0.860
92147W        W57308  29.142  41.035   0.423
92148W        W57309  43.444  35.945   2.144
92149W        W57310  24.024  35.199   4.205
92150W        W57311  40.448  18.605  10.717
92151W        W57312   9.440  31.076   0.973
92152W        W57313  23.151  30.576  13.942
92153W        W57314  22.512  37.316   2.949
92154W        W57315  28.782  30.571  13.978
92155W        W57316   3.931   8.684  14.139
92156W        W57317  12.597   2.203  11.648
92157W        W57318  25.507  41.178   9.812
92158W        W57319  11.433  14.104  11.175
92159W        W57320  29.142  32.680  12.013
92160W        W57321  12.822   6.416  14.047
92161W        W57322  16.147  31.505  13.766
92162W        W57323  30.202  16.913  14.388
92163W        W57324   9.203  44.693  11.653
92164W        W57325  43.321   2.027  14.346
92165W        W57326  40.641   8.761  12.523
92166W        W57327   0.765  39.721   0.063
92167W        W57328  24.542  39.111  14.835
92168W        W57329  32.010  40.790  14.107
92169W        W57330  14.700   3.424  11.958
92170W        W57331  13.789  26.357  12.577
92171W        W57332  12.110  26.178   3.682
92172W        W57333   3.947  24.858  10.709
92173W        W57334  18.758   7.780  11.171
92174W        W57335  25.920   0.403  12.615
92175W        W57336  20.527   0.063   1.904
92176W        W57337  37.924  12.712   2.094
92177W        W57338  13.041  19.588   3.977
92178W        W57339  27.845   2.872  13.984
92179W        W57340  31.087  44.222   2.165
92180W        W57341   0.315   9.476  11.055
92181W        W57342  13.650  15.102   4.188
92182W        W57343  42.924  12.198   4.182
92183W        W57344   6.735  38.542   0.384
92184W        W57345  26.515  19.649  11.311
92185W        W57346  14.328   5.009   0.928
92186W        W57347   4.914  30.620  12.028
92187W        W57348  30.024  21.194   2.156
92188W        W57349  18.089  35.814   4.524
92189W        W57350  11.818  32.125  14.009
92190W        W57351  12.137  29.208  14.847
92191W        W57352  31.601  33.909   2.262
92192W        W57353  31.907  27.213   0.498
92193W        W57354  33.054   1.213   3.125
92194W        W57355  40.824   5.938   4.595
92195W        W57356  21.142  13.603   1.685
92196W        W57357   4.315  14.570  12.529
92197W        W57358  27.502   9.641  14.494
92198W        W57359  27.202  36.305  11.213
92199W        W57360  35.808   7.221  14.347
92200W        W57361  38.407  34.352  14.889
92201W        W57362  16.678  17.194   1.822
92202W        W57363  11.592  33.555  11.378
92203W        W57364  14.343  34.854   1.670
92204W        W57365  33.504  11.597   1.944
92205W        W57366  21.937   2.495  12.419
92206W        W57367  30.349  10.745  14.224
92207W        W57368  37.126   7.964   4.545
92208W        W57369  19.603  37.403   0.233
92209W        W57370  25.303  38.960   2.215
92210W        W57371   4.600  11.971   4.092
92211W        W57372  23.520  14.545  12.755
92212W        W57373   7.612  18.725   0.785
92213W        W57374  29.232  15.042   1.318
92214W        W57375   8.382   5.881   2.160
92215W        W57376   8.909  12.976   2.719
92216W        W57377  21.055  12.007  12.381
92217W        W57378  28.661  38.365  11.214
92218W        W57379  33.536  29.741  13.505
92219W        W57380  26.176   6.614   4.329
92220W        W57381   4.321  17.482  10.745
92221W        W57382  33.634   1.490  12.528
92222W        W57383  29.765  35.698   1.168
92223W        W57384  22.086   6.883  10.536
92224W        W57385  20.520  12.200   3.266
92225W        W57386   6.285  26.014   2.338
92226W        W57387  20.220   6.508  14.719
92227W        W57388  39.731   8.828   3.780
92228W        W57389   2.013  28.911  10.666
92229W        W57390  10.481  35.489   2.812
92230W        W57391  15.433  28.099   3.050
92231W        W57392  13.439  15.727   0.851
92232W        W57393  25.600  15.186   0.466
92233W        W57394  28.631  25.982  14.869
92234W        W57395  44.505   1.457   5.112
92235W        W57396  42.845   2.726   0.295
92236W        W57397  31.373   7.731   4.867
92237W        W57398  21.566  11.512   0.451
92238W        W57399   0.501  14.186  10.446
92239W        W57400  25.227  29.455  11.258
92240W        W57401  35.062  11.706  14.508
92241W        W57402  12.057   2.929  12.187
92242W        W57403   7.295  10.411  12.805
92243W        W57404  32.706  28.957   1.259
92244W        W57405  26.653   5.266  13.324
92245W        W57406  35.303  10.677  13.774
92246W        W57407  39.439  26.040  13.813
92247W        W57408  40.815  35.081   3.558
92248W        W57409  41.230  20.714  11.678
92249W        W57410  40.135   0.264  13.273
92250W        W57411  44.311  10.059  13.975
92251W        W57412  27.085  14.561   1.616
92252W        W57413  38.807  38.527   1.144
92253W        W57414  17.334  38.012  10.191
92254W        W57415   8.854   7.770  12.393
92255W        W57416   2.027  41.557  11.543
92256W        W57417  10.753  35.162  13.905
92257W        W57418  36.880   7.644  12.622
92258W        W57419  20.936   8.274   3.270
92259W        W57420  34.366  27.372   3.820
92260W        W57421  22.336   4.524  13.050
92261W        W57422  14.516  25.073  13.745
92262W        W57423  39.467   2.695   2.894
92263W        W57424  44.000  43.887   2.102
92264W        W57425   6.357  19.629  14.836
92265W        W57426   8.315  37.498   2.379
92266W        W57427  20.387  44.886   0.940
92267W        W57428   1.351  12.728   0.704
92268W        W57429  38.806  17.247   4.341
92269W        W57430  27.255  24.973  12.544
92270W        W57431  24.629  39.217   2.614
92271W        W57432   4.711   4.352   0.350
92272W        W57433   9.301  23.292  14.450
92273W        W57434  35.271  31.571  13.886
92274W        W57435  14.746  15.932   1.372
92275W        W57436  39.333  43.694  12.923
92276W        W57437   7.833   0.104   2.808
92277W        W57438  35.503  13.702  12.303
92278W        W57439  39.437  25.719   1.277
92279W        W57440  21.106   3.407   1.429
92280W        W57441  13.098  33.969  14.049
92281W        W57442  14.657  32.136   4.367
92282W        W57443   2.113  17.660  14.137
92283W        W57444  12.297   3.010  13.957
92284W        W57445  30.058   7.874   1.373
92285W        W57446  21.529  31.889   0.474
92286W        W57447  25.357  41.441   4.549
92287W        W57448  38.119   1.761  14.490
92288W        W57449  17.178  16.040   3.039
92289W        W57450  31.745   1.224   3.718
92290W        W57451  13.590  40.839  11.196
92291W        W57452  39.937  32.379   2.979
92292W        W57453  15.193  36.876  11.919
92293W        W57454  37.416   6.186   2.784
92294W        W57455  44.436  22.479  11.139
92295W        W57456  26.280  38.967  11.913
92296W        W57457  25.207  20.113   3.654
92297W        W57458  32.058  26.957   0.077
92298W        W57459  26.931  42.458   0.769
92299W        W57460   4.853  39.814   0.883
92300W        W57461  34.001   7.644   2.278
92301W        W57462  44.016   1.006   1.262
92302W        W57463  22.632  25.991  12.448
92303W        W57464  28.144  30.520   2.799
92304W        W57465  40.282  14.855   0.560
92305W        W57466  15.224  14.247   2.371
92306W        W57467  42.559  25.499   2.573
92307W        W57468  20.654  36.529   3.974
92308W        W57469  24.579  14.101   3.785
92309W        W57470  34.645  12.046   3.157
92310W        W57471  36.637  44.187   9.751
92311W        W57472  29.153  10.933   9.857
92312W        W57473  39.934  43.679   1.513
92313W        W57474  10.717   0.653  11.552
92314W        W57475   7.315  37.193  11.060
92315W        W57476   8.267  10.177  13.605
92316W        W57477  41.105  14.555   3.262
92317W        W57478  42.870  40.725  14.846
92318W        W57479  23.169  37.801   1.264
92319W        W57480  43.168   3.353  11.671
92320W        W57481  29.485  17.254   3.242
92321W        W57482  15.039   5.814   3.191
92322W        W57483   9.247   6.821  12.371
92323W        W57484   1.997  10.124  13.293
92324W        W57485  43.392   1.951   0.538
92325W        W57486  16.088  15.819  10.658
92326W        W57487  37.094  30.590   2.302
92327W        W57488   3.234  20.171   1.250
92328W        W57489  29.939  37.383   3.993
92329W        W57490   7.853   0.538   0.914
92330W        W57491  35.394  42.828  11.847
92331W        W57492  40.106  31.805   0.620
92332W        W57493  44.714   1.517   4.195
92333W        W57494  29.472  31.341   4.085
92334W        W57495  44.712  24.779  11.881
92335W        W57496   3.640  13.695   0.903
92336W        W57497  42.952  43.380  10.389
92337W        W57498  23.086  11.061  10.123
92338W        W57499  41.697  24.415   0.599
92339W        W57500  18.587   4.328   3.904
92340W        W57501  21.519  30.113   3.205
92341W        W57502   9.169   3.182  13.395
92342W        W57503  34.399  19.388  11.977
92343W        W57504  27.662  34.110  14.745
92344W        W57505  10.056  36.913   4.502
92345W        W57506  31.929   1.505   0.016
92346W        W57507   9.167   6.727   0.484
92347W        W57508  34.420   8.851   4.993
92348W        W57509  25.762  23.020   0.751
92349W        W57510  36.542   6.227   2.195
92350W        W57511  40.792   6.253  10.578
92351W        W57512  44.020  40.488   1.357
92352W        W57513  15.216  31.157   4.657
92353W        W57514  23.691  23.248   5.703
92354W        W57515  44.862  28.183   4.165
92355W        W57516  27.590  17.993   1.443
92356W        W57517  29.264  15.984  11.344
92357W        W57518  19.298  37.034  13.387
92358W        W57519  26.211  35.855  14.660
92359W        W57520  28.893  40.342   1.868
92360W        W57521   8.415  30.426   0.850
92361W        W57522  41.298  33.711  13.814
92362W        W57523  20.090  16.725   1.735
92363W        W57524   2.964  14.505  11.991
92364W        W57525  38.055  18.730   2.593
92365W        W57526   2.610  38.598  14.812
92366W        W57527  10.709  38.104   1.750
92367W        W57528   6.871  17.856  11.104
92368W        W57529   5.178  23.924   2.380
92369W        W57530  22.429  24.747  11.162
92370W        W57531  42.532  41.890  14.872
92371W        W57532  22.458   0.303   4.221
92372W        W57533   7.281   7.395  11.579
92373W        W57534   8.657  15.663  10.645
92374W        W57535  43.034   3.130   0.835
92375W        W57536   3.206  14.297   4.636
92376W        W57537   7.373  14.736   1.919
92377W        W57538   8.564  14.606  12.521
92378W        W57539   4.627  38.961  13.363
92379W        W57540  20.508   1.536   0.579
92380W        W57541  29.591  11.323   4.464
92381W        W57542  25.426   4.735  11.807
92382W        W57543   2.421  17.002  11.380
92383W        W57544  36.509  30.825  14.865
92384W        W57545  13.760  29.940   1.182
92385W        W57546   2.824  21.173  13.543
92386W        W57547  14.662  16.110  14.469
92387W        W57548  20.808  10.841  14.312
92388W        W57549   1.669   4.318  12.439
92389W        W57550  23.496   3.945  12.019
92390W        W57551   0.510  40.825  12.338
92391W        W57552  28.159  40.599  13.998
92392W        W57553  29.910  12.823   3.366
92393W        W57554   6.121  23.589  13.203
92394W        W57555  29.426  34.141  13.055
92395W        W57556  17.397  35.586  13.611
92396W        W57557  21.892  29.552  14.965
92397W        W57558  24.909  35.294  11.575
92398W        W57559  19.593   4.482   2.118
92399W        W57560  23.571  18.879   2.270
92400W        W57561   2.688   2.245  10.622
92401W        W57562  35.127  17.973  13.470
92402W        W57563  12.709   1.053   0.965
92403W        W57564  41.705  24.555   2.062
92404W        W57565  35.273  22.296  11.667
92405W        W57566  15.639  19.054   2.444
92406W        W57567  19.247  28.954   0.973
92407W        W57568  23.321  22.103  10.846
92408W        W57569  20.734  23.427   3.276
92409W        W57570  22.626   8.892  14.779
92410W        W57571  13.726  30.364  10.636
92411W        W57572  21.782  18.533  12.398
92412W        W57573  31.213   1.578  12.368
92413W        W57574   2.779  15.091   3.732
92414W        W57575  42.822  40.028  13.278
92415W        W57576  30.444  30.940  11.085
92416W        W57577  43.777   4.226  11.101
92417W        W57578  24.702  29.692  13.884
92418W        W57579  22.990  32.113   2.396
92419W        W57580  33.422  43.093  13.467
92420W        W57581  29.434  41.454   3.223
92421W        W57582  24.172  28.192   2.137
92422W        W57583  15.715  19.340   3.844
92423W        W57584  16.435   4.543  13.013
92424W        W57585  14.109  42.720   0.770
92425W        W57586   8.157   8.860   3.859
92426W        W57587   8.509   1.749  10.695
92427W        W57588  31.072  35.770   9.460
92428W        W57589  32.742  35.417  12.647
92429W        W57590  10.664  10.693  13.004
92430W        W57591  31.306  30.500  11.890
92431W        W57592  35.818  30.535  11.445
92432W        W57593  28.990   6.382  14.855
92433W        W57594  37.332  19.034   1.283
92434W        W57595  40.500  44.399   2.618
92435W        W57596  39.917  26.631  11.501
92436W        W57597  11.194  42.997   2.620
92437W        W57598  29.757   0.593   4.213
92438W        W57599  22.758  41.118  10.796
92439W        W57600  29.038  33.055   1.501
92440W        W57601  39.834  35.833   0.901
92441W        W57602  37.778  39.404   1.376
92442W        W57603  29.333  19.607  14.055
92443W        W57604  28.834  13.151  12.222
92444W        W57605   8.291  13.225  14.032
92445W        W57606   6.715  32.376   0.967
92446W        W57607   2.746  15.578   4.705
92447W        W57608   2.447  12.206   1.924
92448W        W57609  20.975  43.495  12.895
92449W        W57610   4.886   2.917   4.120
92450W        W57611  23.165   3.467  14.054
92451W        W57612   5.983   5.561  14.932
92452W        W57613  11.617   8.901  12.431
92453W        W57614  35.889  36.500  10.727
92454W        W57615   2.097  21.559  11.584
92455W        W57616  41.472  21.583   4.779
92456W        W57617  27.162  19.081   2.646
92457W        W57618  38.880  26.209   0.012
92458W        W57619   7.024  13.100  14.332
92459W        W57620   6.859  38.333  10.768
92460W        W57621  44.692  17.843   2.148
92461W        W57622   6.806  10.243  13.337
92462W        W57623   2.188  11.630   3.542
92463W        W57624   8.363  42.799   3.634
92464W        W57625  41.489  27.401   4.744
92465W        W57626  30.919  30.939   3.131
92466W        W57627   4.738  41.203   4.614
92467W        W57628   3.837  14.304   3.298
92468W        W57629  27.023  40.244   4.626
92469W        W57630  17.000  21.580  13.712
92470W        W57631  36.172  40.824  11.233
92471W        W57632  11.074  19.097   2.731
92472W        W57633  11.602  26.403   5.325
92473W        W57634  42.739  19.917   0.526
92474W        W57635  11.715  28.661   2.357
92475W        W57636  27.411   3.174  11.586
92476W        W57637   9.666   9.773   4.064
92477W        W57638  27.366  15.632  14.268
92478W        W57639   8.259  31.555  13.850
92479W        W57640   0.769   2.422  13.303
92480W        W57641  16.571  20.006   2.190
92481W        W57642  27.126  35.314   3.764
92482W        W57643  39.450  24.155   3.416
92483W        W57644  24.997  19.116   3.651
92484W        W57645  20.541  29.488   1.358
92485W        W57646  19.199  30.095   0.369
92486W        W57647   2.642  24.473  11.700
92487W        W57648  32.955  20.480   3.673
92488W        W57649  14.519  44.261  13.399
92489W        W57650   8.210   6.138   2.956
92490W        W57651  23.019   7.339   3.077
92491W        W57652  15.646  39.517  13.069
92492W        W57653  19.466  30.906  13.326
92493W        W57654  43.818  32.987  12.412
92494W        W57655  31.975  36.817  12.036
92495W        W57656   0.258  30.834  14.727
92496W        W57657  21.612  13.534   4.669
92497W        W57658  10.783  27.555  12.984
92498W        W57659  41.009  19.119  11.950
92499W        W57660  32.034  11.794   4.042
92500W        W57661  31.177  44.857   1.098
92501W        W57662  22.082  27.907   1.298
92502W        W57663   8.685   5.397   3.590
92503W        W57664  41.442  29.853  12.168
92504W        W57665  30.987  38.025  12.528
92505W        W57666  36.119  21.899   2.318
92506W        W57667   1.527   0.485   4.701
92507W        W57668  43.058   0.444  12.863
92508W        W57669  34.874  40.738   0.817
92509W        W57670  23.680  26.660  12.883
92510W        W57671  12.190   4.732  10.772
92511W        W57672  25.977  36.915  10.210
92512W        W57673  35.353   0.530   1.838
92513W        W57674  36.906   7.786  13.437
92514W        W57675  34.372   0.173  10.774
92515W        W57676  41.550   7.255  10.984
92516W        W57677  25.927  38.827   0.029
92517W        W57678  27.162   4.920  12.524
92518W        W57679   5.892  30.555   2.684
92519W        W57680  31.475  14.236   1.925
92520W        W57681  22.265  41.918  10.709
92521W        W57682  43.856  30.566   3.219
92522W        W57683   6.837  15.643  10.619
92523W        W57684  11.378  26.436  13.428
92524W        W57685  28.257   3.819  14.752
92525W        W57686  29.841  43.733  14.993
92526W        W57687   5.417  21.312   1.531
92527W        W57688  43.928  27.479   3.517
92528W        W57689  35.491   3.843   1.956
92529W        W57690   3.414  23.933   3.354
92530W        W57691  10.254  18.056   0.528
92531W        W57692  28.670   9.100  13.249
92532W        W57693  26.175  29.407  13.892
92533W        W57694   3.378   1.831  11.641
92534W        W57695  20.493   8.291  14.492
92535W        W57696  26.891   9.853   0.093
92536W        W57697  29.221  28.347  12.951
92537W        W57698  39.313  17.770   4.898
92538W        W57699  22.210  30.653  10.440
92539W        W57700  40.867  37.769  13.985
92540W        W57701  21.242  39.336  14.932
92541W        W57702   2.756  38.836  14.320
92542W        W57703   3.570   8.063   3.904
92543W        W57704  35.798   5.783   1.882
92544W        W57705  18.084  19.785   2.186
92545W        W57706  24.417  36.572   2.149
92546W        W57707  41.924  26.222   0.270
92547W        W57708  19.589  10.672   4.426
92548W        W57709  17.034  15.692   4.980
92549W        W57710  35.143  30.735  10.277
92550W        W57711  20.992  28.407  11.548
92551W        W57712  26.457  42.364   3.567
92552W        W57713  28.186  19.133   4.358
92553W        W57714  32.266  40.944   0.822
92554W        W57715   3.336  40.473  12.417
92555W        W57716   7.244   4.877  12.147
92556W        W57717  22.087   8.328  11.645
92557W        W57718  44.370  10.353   2.262
92558W        W57719  17.196   2.227   3.479
92559W        W57720  38.589   4.920  12.360
92560W        W57721  22.740  38.453  12.050
92561W        W57722  16.816  31.834  13.072
92562W        W57723   2.812   1.300  10.755
92563W        W57724  28.086  39.786   3.598
92564W        W57725   3.765  16.682   1.082
92565W        W57726  19.554  16.041  13.830
92566W        W57727  20.212  24.866  14.447
92567W        W57728   0.795  31.652  12.195
92568W        W57729  41.894  32.585   3.628
92569W        W57730  36.121  44.383  10.713
92570W        W57731  30.242  24.592   2.136
92571W        W57732  43.507  18.951  14.913
92572W        W57733   2.799  20.250  12.570
92573W        W57734  35.674  26.223   3.360
92574W        W57735  25.444  27.945   4.165
92575W        W57736  14.779  10.573  13.107
92576W        W57737  40.446  36.922  13.058
92577W        W57738  27.095  33.691  14.429
92578W        W57739  19.850  17.504  14.058
92579W        W57740  38.480  20.768   3.593
92580W        W57741  37.560  39.722   2.823
92581W        W57742  16.524  31.640   3.111
92582W        W57743  17.026  25.409  13.782
92583W        W57744  33.585  31.531   1.151
92584W        W57745  16.840   3.828  13.487
92585W        W57746  38.843  42.720  14.882
92586W        W57747  19.508  25.625   4.575
92587W        W57748  20.609  12.491   4.612
92588W        W57749  18.266  40.760   2.731
92589W        W57750   4.505   7.915   4.185
92590W        W57751   6.709  25.167   5.431
92591W        W57752  27.496  12.769   5.137
92592W        W57753  39.158  10.907  12.967
92593W        W57754   1.362  43.564  13.992
92594W        W57755  10.185  21.798  14.036
92595W        W57756   7.122  19.150  12.558
92596W        W57757  20.733   3.837  11.523
92597W        W57758  12.625  27.672  14.304
92598W        W57759  30.803  21.479   4.472
92599W        W57760  13.787  32.724  14.904
92600W        W57761  19.813  44.576   4.965
92601W        W57762  21.285   8.194   4.191
92602W        W57763  34.159  42.265   0.940
92603W        W57764  30.668   1.801   1.432
92604W        W57765  35.712  37.905  10.145
92605W        W57766   9.470  35.503   3.877
92606W        W57767   1.763  38.830  14.511
92607W        W57768  14.954  18.518   3.702
92608W        W57769  10.841  14.384   2.729
92609W        W57770  26.534   6.209  13.777
92610W        W57771   7.390  33.627   0.776
92611W        W57772  17.325   3.467  12.007
92612W        W57773  44.466  33.138  13.430
92613W        W57774   7.389   9.060  14.420
92614W        W57775   4.726  11.859  11.134
92615W        W57776  39.452  34.648  10.747
92616W        W57777  20.113  21.162   2.179
92617W        W57778  22.645   1.795   0.340
92618W        W57779  22.827   9.283  10.973
92619W        W57780  33.841  21.761  14.353
92620W        W57781  22.194  12.475   4.128
92621W        W57782  24.476  39.853  14.351
92622W        W57783  36.912  13.280   4.610
92623W        W57784  14.615   0.702   4.679
92624W        W57785   9.392  40.881   4.168
92625W        W57786  29.617  10.537  11.064
92626W        W57787   3.529  24.903   0.927
92627W        W57788   5.964  11.666   1.859
92628W        W57789  39.510  19.201   3.908
92629W        W57790  14.341   1.939   1.650
92630W        W57791   8.236  24.680  11.601
92631W        W57792  29.462  29.305  13.118
92632W        W57793   4.875  37.862  14.917
92633W        W57794  10.690   9.944   3.762
92634W        W57795   0.719  29.074   4.709
92635W        W57796  29.979  31.232   4.119
92636W        W57797   2.798   7.906  10.612
92637W        W57798  39.051  19.679  12.629
92638W        W57799  10.340  11.628   0.245
92639W        W57800  39.762  19.027  14.388
92640W        W57801  31.467  26.887   1.653
92641W        W57802  16.575  23.444  12.958
92642W        W57803  36.905   9.357   4.485
92643W        W57804  35.418  13.154  14.760
92644W        W57805  37.251  34.251  14.849
92645W        W57806   6.404  34.968  12.025
92646W        W57807  16.514  38.909  12.966
92647W        W57808  26.534  33.858   3.179
92648W        W57809  12.633  39.467   4.702
92649W        W57810  20.963   8.676   1.432
92650W        W57811  26.658  25.551  13.254
92651W        W57812   2.547   1.973   2.559
92652W        W57813   2.587  42.970  14.011
92653W        W57814   6.228  17.234   0.027
92654W        W57815  22.488  42.877   1.230
92655W        W57816  37.366  19.371  13.567
92656W        W57817  11.203  32.475   0.054
92657W        W57818  39.844   0.371  13.681
92658W        W57819  29.181  31.050   3.773
92659W        W57820  25.083   8.674   2.108
92660W        W57821  23.700   4.264   4.693
92661W        W57822  18.713  17.778   0.209
92662W        W57823  39.967  35.359  10.624
92663W        W57824  19.970  41.820  10.521
92664W        W57825  16.049  21.567   3.045
92665W        W57826  24.519  29.032   2.558
92666W        W57827  35.817  17.985  12.417
92667W        W57828  32.263   4.787  12.366
92668W        W57829  24.490  41.386  13.063
92669W        W57830   0.369  14.773   3.086
92670W        W57831  14.255  19.981   1.082
92671W        W57832  36.045  30.445   1.337
92672W        W57833   4.174  35.803  14.793
92673W        W57834  20.033  23.266  13.051
92674W        W57835  16.835  42.918  10.186
92675W        W57836  15.645  35.687  11.707
92676W        W57837  39.506  32.919   3.650
92677W        W57838  20.302  18.801  11.696
92678W        W57839   4.980  15.297   3.232
92679W        W57840  33.447   0.640   5.005
92680W        W57841  12.129  38.524   2.800
92681W        W57842   1.311  24.611  11.591
92682W        W57843   8.940  37.473  10.459
92683W        W57844  18.451  12.476   3.663
92684W        W57845  25.491   0.166   3.696
92685W        W57846   2.853  18.061  13.525
92686W        W57847  31.176   6.629  13.456
92687W        W57848  22.803  23.184   3.624
92688W        W57849  38.856  43.517   5.037
92689W        W57850  18.992   7.716  10.718
92690W        W57851  41.344  10.853  14.341
92691W        W57852  24.799  38.521  13.153
92692W        W57853  23.666  13.492  11.965
92693W        W57854  43.554  39.839   4.908
92694W        W57855  37.277  20.010  13.966
92695W        W57856  31.435  19.571  12.133
92696W        W57857  43.844  20.990  14.020
92697W        W57858  42.229  18.593   3.800
92698W        W57859  33.888  25.625   0.373
92699W        W57860  21.060   0.990   2.626
92700W        W57861  33.708  29.118   2.213
92701W        W57862  20.518  26.978  14.306
92702W        W57863  12.973  14.742  10.680
92703W        W57864  24.209  15.557  11.573
92704W        W57865  30.418  23.680   2.640
92705W        W57866  18.554  18.612  14.366
92706W        W57867  36.566   0.925   0.849
92707W        W57868  13.082  38.211  13.404
92708W        W57869  25.484  25.431   1.507
92709W        W57870  15.543  29.014  13.952
92710W        W57871  13.793  34.094   0.543
92711W        W57872   8.146   1.574   2.349
92712W        W57873  25.522  36.945   2.495
92713W        W57874  18.056   7.693   3.366
92714W        W57875  35.397  44.231  13.919
92715W        W57876   6.322  29.352   3.192
92716W        W57877  33.852  33.857  11.506
92717W        W57878  21.902  31.007   0.769
92718W        W57879  43.763  39.901  10.174
92719W        W57880  40.612   7.811  11.660
92720W        W57881  27.979  38.805   0.302
92721W        W57882  16.544  30.453   2.895
92722W        W57883  44.362  19.476  12.258
92723W        W57884  39.011  18.871  13.302
92724W        W57885  43.944  20.540   0.895
92725W        W57886  19.238  18.820  11.434
92726W        W57887  34.798  24.509   4.130
92727W        W57888  23.320  43.051  11.088
92728W        W57889   5.010  41.542  13.091
92729W        W57890  23.000  36.812   0.529
92730W        W57891  10.104  35.408   4.885
92731W        W57892  35.538  18.712  12.848
92732W        W57893  23.121  22.747   4.643
92733W        W57894   1.604  41.846  11.683
92734W        W57895   3.782   1.795   3.428
92735W        W57896  32.351  31.900  12.479
92736W        W57897  24.395   6.933  12.519
92737W        W57898  12.823  42.442  14.835
92738W        W57899  27.549  18.210  13.960
92739W        W57900  38.667  17.233   2.768
92740W        W57901   5.824  13.050  13.481
92741W        W57902  22.928  34.932  12.627
92742W        W57903  20.199  39.257   0.180
92743W        W57904   7.897  23.934   4.513
92744W        W57905  39.022   3.161  12.954
92745W        W57906  14.103   7.650   4.859
92746W        W57907   3.321  39.818  14.987
92747W        W57908  22.038   2.944   0.842
92748W        W57909   0.669  32.682  13.301
92749W        W57910   7.158  33.591   2.234
92750W        W57911   6.251  33.890   0.525
92751W        W57912  30.534  42.764  14.584
92752W        W57913   9.728  33.062   0.767
92753W        W57914  16.363  32.216   0.854
92754W        W57915   8.770  24.471  14.775
92755W        W57916  17.657  36.102   3.215
92756W        W57917   6.858  37.593  10.323
92757W        W57918  25.462  38.716  14.792
92758W        W57919   2.483  17.659  12.056
92759W        W57920  42.653  31.892  10.704
92760W        W57921  25.140  37.258   0.115
92761W        W57922  15.146  35.482   4.545
92762W        W57923  34.418  14.717   0.411
92763W        W57924  37.209  43.454  12.561
92764W        W57925  19.742  24.279  11.596
92765W        W57926  27.218  21.195  11.378
92766W        W57927  33.675  23.019   0.518
92767W        W57928  39.005  34.087   2.400
92768W        W57929  11.563  16.126  13.504
92769W        W57930  24.845   8.650   3.355
92770W        W57931  12.212  29.016   3.279
92771W        W57932  26.021  28.155   0.498
92772W        W57933  20.683  27.219  13.890
92773W        W57934  39.005  43.587  11.588
92774W        W57935  27.616  41.757   4.519
92775W        W57936  44.836  24.019   1.845
92776W        W57937   6.181  41.502   4.163
92777W        W57938  37.559  18.219   0.866
92778W        W57939  21.651  41.741   3.093
92779W        W57940   1.252   9.653  12.787
92780W        W57941  21.550  33.754  12.106
92781W        W57942  44.001   5.634  12.868
92782W        W57943  43.751   2.926  10.963
92783W        W57944   3.853   4.483   1.365
92784W        W57945  19.029  13.649   4.563
92785W        W57946  17.199  19.797  12.908
92786W        W57947  16.181  22.406   3.326
92787W        W57948   7.780  37.101  12.924
92788W        W57949  21.098  29.938  13.928
92789W        W57950  22.921  11.758  10.250
92790W        W57951  11.576  25.036  11.365
92791W        W57952  18.219  20.729   2.367
92792W        W57953  16.047  39.063   3.194
92793W        W57954  21.159  44.533   2.617
92794W        W57955  20.244   3.940   2.724
92795W        W57956  28.732  35.094  11.574
92796W        W57957  33.922  30.901   3.805
92797W        W57958  20.873  14.334   4.215
92798W        W57959  34.189  17.645  13.105
92799W        W57960  42.939   2.398  14.390
92800W        W57961   5.129  29.577   2.334
92801W        W57962  36.041  27.417  14.882
92802W        W57963  14.847  38.976  12.481
92803W        W57964  28.501  13.665  14.290
92804W        W57965   5.880  18.798  12.933
92805W        W57966   4.682  22.068  12.140
92806W        W57967  10.436  28.550  11.484
92807W        W57968  20.781  36.954   2.621
92808W        W57969   6.718  10.442   2.641
92809W        W57970  18.624   2.319  12.970
92810W        W57971  41.098  39.718   9.890
92811W        W57972   6.631  36.038  13.835
92812W        W57973  30.183  44.636   0.883
92813W        W57974   4.373   7.213   1.902
92814W        W57975   4.891  41.157  14.843
92815W        W57976  11.677  13.544   3.388
92816W        W57977   6.899  38.098  14.918
92817W        W57978  14.761  36.629   4.033
92818W        W57979  19.980  13.797   0.478
92819W        W57980   7.613  37.512   3.390
92820W        W57981  22.924   1.924   4.068
92821W        W57982   0.874  24.616   2.540
92822W        W57983  23.642  26.103  11.147
92823W        W57984   0.974  17.410  13.472
92824W        W57985  37.039  37.484   1.609
92825W        W57986  27.298   2.491  10.753
92826W        W57987  20.785  25.510   4.127
92827W        W57988  22.097  11.868  10.514
92828W        W57989  39.866  12.274  10.796
92829W        W57990  14.086  35.902  11.232
92830W        W57991  21.817  26.155  11.831
92831W        W57992  24.480   1.806   2.304
92832W        W57993  25.450  29.239  12.793
92833W        W57994  42.918  27.696   0.320
92834W        W57995  35.558  25.546  10.882
92835W        W57996  19.083  37.715  12.402
92836W        W57997  18.059  36.681  14.189
92837W        W57998  17.752  17.213   1.513
92838W        W57999  27.182  31.607  10.715
92839W        W58000  30.127  43.904  12.360
92840W        W58001   0.810  19.798   2.486
92841W        W58002  38.575  24.596   4.034
92842W        W58003  13.470  27.766   2.252
92843W        W58004  20.457  44.577   0.187
92844W        W58005  13.756   5.836  12.947
92845W        W58006  39.381   8.872  13.868
92846W        W58007  44.481  23.057   1.181
92847W        W58008  24.942  39.476   0.497
92848W        W58009   7.345  28.530   2.573
92849W        W58010   1.038  21.355  12.830
92850W        W58011  31.689   5.432  12.049
92851W        W58012  42.496  40.933   4.308
92852W        W58013  14.310  20.623  13.340
92853W        W58014  23.125  44.313  10.764
92854W        W58015  22.798  12.636   3.546
92855W        W58016   8.496  41.310   1.685
92856W        W58017   3.505  33.651   2.841
92857W        W58018  27.691  37.426  14.410
92858W        W58019   2.275  34.428   4.091
92859W        W58020  32.814  42.322   2.170
92860W        W58021  33.604   2.424   0.788
92861W        W58022  13.746  16.198   3.459
92862W        W58023  14.006   2.279   1.966
92863W        W58024  17.557  33.907   2.138
92864W        W58025   6.363  30.094   1.291
92865W        W58026  42.924   0.457  12.372
92866W        W58027  13.753   4.402   1.194
92867W        W58028  11.558  31.247   2.219
92868W        W58029   2.164  30.382   0.054
92869W        W58030   7.816   2.677  12.143
92870W        W58031  32.456  21.653  12.646
92871W        W58032  21.561  16.218   0.850
92872W        W58033  19.200  41.001   1.829
92873W        W58034  14.273   5.264  14.450
92874W        W58035  28.967  28.578   2.104
92875W        W58036  44.768  41.241  12.714
92876W        W58037  21.051  38.390   9.965
92877W        W58038  42.266   1.947   3.643
92878W        W58039   9.796  17.610   3.033
92879W        W58040  41.115   4.921   1.620
92880W        W58041  22.760  17.557   1.065
92881W        W58042  13.429  44.974  14.499
92882W        W58043  22.956  34.113   4.160
92883W        W58044   7.923  31.505   4.879
92884W        W58045  18.122  18.184  12.468
92885W        W58046   0.492  44.935   0.077
92886W        W58047   4.141  26.946   0.468
92887W        W58048  38.473  12.256   2.305
92888W        W58049  28.927  22.463  14.775
92889W        W58050  20.642  24.308   0.518
92890W        W58051   3.268  31.200   4.056
92891W        W58052  25.115  39.055   0.745
92892W        W58053  15.255  35.128  13.066
92893W        W58054  39.990  38.394   2.702
92894W        W58055  35.720   2.402  14.374
92895W        W58056   4.755  37.579   4.738
92896W        W58057   0.533  39.404  12.026
92897W        W58058  30.196  18.689  11.111
92898W        W58059  24.514  15.292   1.263
92899W        W58060   3.416   2.692  13.657
92900W        W58061  18.806  34.950  12.939
92901W        W58062   1.053   3.429   1.896
92902W        W58063  12.822  35.529  14.760
92903W        W58064   1.679  31.605   3.335
92904W        W58065  11.816  32.984   2.869
92905W        W58066  10.686  22.739   1.177
92906W        W58067  38.483   3.409  13.567
92907W        W58068  37.593  28.052   3.099
92908W        W58069   8.980  32.925   4.454
92909W        W58070  27.036  15.665   0.422
92910W        W58071  11.188  32.872   4.227
92911W        W58072   7.938  12.617  13.488
92912W        W58073  37.540  20.613   4.060
92913W        W58074  26.079   6.254  12.493
92914W        W58075   2.736   4.387  14.051
92915W        W58076  18.102  24.352  14.829
92916W        W58077  25.107  20.008   1.667
92917W        W58078  25.328  23.068   1.910
92918W        W58079   4.383  27.640  10.854
92919W        W58080  17.954  37.939  13.173
92920W        W58081  13.076  30.018   4.479
92921W        W58082  16.323  25.108   2.142
92922W        W58083  23.548  29.096  12.092
92923W        W58084  33.072   0.749   0.026
92924W        W58085  28.829  37.871  11.714
92925W        W58086   7.951  25.034   1.327
92926W        W58087  36.593  19.119  14.570
92927W        W58088  19.561  28.990   1.986
92928W        W58089  44.771   5.266  14.298
92929W        W58090  24.192   2.290   4.893
92930W        W58091  44.236  21.273   4.603
92931W        W58092  21.800  22.777   0.886
92932W        W58093  13.290  37.012  14.357
92933W        W58094   7.877  24.312  13.863
92934W        W58095  41.375  38.457   1.399
92935W        W58096  17.844  32.713  14.522
92936W        W58097  19.628  10.106  11.547
92937W        W58098  41.481  30.436   4.050
92938W        W58099  39.798  22.066  10.748
92939W        W58100  22.849  32.607   1.879
92940W        W58101  41.495   9.515  14.835
92941W        W58102   1.375  31.972  11.894
92942W        W58103  42.346  10.713  13.587
92943W        W58104  27.937  25.553  10.672
92944W        W58105  39.159  12.263  14.077
92945W        W58106   4.377  29.929   3.553
92946W        W58107  18.814  14.660  10.474
92947W        W58108  33.207  39.564  14.812
92948W        W58109   6.156  30.096  13.060
92949W        W58110  31.445  34.648  14.480
92950W        W58111  37.036   4.671   1.787
92951W        W58112  17.707  43.596  13.426
92952W        W58113  42.366  31.961   0.775
92953W        W58114   9.352   6.640  11.873
92954W        W58115  22.080  36.115  13.534
92955W        W58116  29.012  31.039  13.790
92956W        W58117  38.138  25.136   4.092
92957W        W58118  39.312  24.249  11.995
92958W        W58119   0.041  39.694   2.299
92959W        W58120   0.325  42.035  13.377
92960W        W58121  18.743   0.338  14.088
92961W        W58122  38.277  22.043  11.315
92962W        W58123   8.242  21.026  12.124
92963W        W58124   0.032   9.566   3.960
92964W        W58125  29.094  34.089   1.894
92965W        W58126   2.962   2.912  13.870
92966W        W58127  22.672  41.583  14.019
92967W        W58128  21.605  40.533  11.102
92968W        W58129  20.422  36.980   1.328
92969W        W58130  14.290  11.706   2.180
92970W        W58131   7.402  26.409  14.768
92971W        W58132  16.060  27.857   1.270
92972W        W58133  14.379  11.434  12.006
92973W        W58134  18.476  11.389  13.152
92974W        W58135  37.917  17.127  12.559
92975W        W58136  38.958  24.756   1.355
92976W        W58137  44.468  13.203   2.377
92977W        W58138  32.828  13.328  11.304
92978W        W58139   9.936  31.430  13.090
92979W        W58140  21.237   4.310   1.377
92980W        W58141   5.580  16.340   1.071
92981W        W58142  26.491  16.052  11.516
92982W        W58143  24.149  18.739  13.791
92983W        W58144   0.308  16.707  10.977
92984W        W58145   0.983   9.932   4.126
92985W        W58146  21.745  34.946   3.230
92986W        W58147  26.521  10.953  14.371
92987W        W58148   8.239  27.635   4.229
92988W        W58149  19.499  28.251  13.319
92989W        W58150   5.241  29.545  13.510
92990W        W58151  23.074   9.019   5.047
92991W        W58152  23.573  21.609   1.853
92992W        W58153  13.699   5.962   2.317
92993W        W58154   0.539  44.001  14.931
92994W        W58155  21.267  23.565   3.542
92995W        W58156  25.899   3.796   4.248
92996W        W58157  23.981  24.198   0.889
92997W        W58158  23.570  25.603  13.927
92998W        W58159  29.320  12.828   1.261
92999W        W58160  16.781  33.970  14.949
93000W        W58161  37.167  10.299   4.924
93001W        W58162  21.686  17.285   2.463
93002W        W58163  14.367  19.954  11.681
93003W        W58164  19.051  33.242   0.563
93004W        W58165  30.201  30.586  12.859
93005W        W58166   1.453  44.479   1.022
93006W        W58167  37.788  39.596  13.592
93007W        W58168  17.035   8.235   0.391
93008W        W58169  42.051  29.654  12.771
93009W        W58170   5.086  24.590   1.345
93010W        W58171   7.168  27.156  12.187
93011W        W58172  44.765  29.038  12.431
93012W        W58173  29.679  43.942   1.363
93013W        W58174  30.977  15.279  13.921
93014W        W58175  44.271  28.548   2.175
93015W        W58176  12.880  27.654   3.189
93016W        W58177  14.888  36.550  11.112
93017W        W58178  40.595  24.540  10.491
93018W        W58179   3.484   3.121  12.157
93019W        W58180  38.158   8.164   0.799
93020W        W58181   3.427  20.925  13.577
93021W        W58182  18.021  14.124   0.905
93022W        W58183  16.170  18.835  11.062
93023W        W58184  28.983  18.201  11.446
93024W        W58185  10.771   7.042  12.841
93025W        W58186  25.643  13.982   3.115
93026W        W58187  17.752  42.044   2.788
93027W        W58188  33.726   5.232  14.392
93028W        W58189  15.775  41.905  12.361
93029W        W58190  22.741  31.848   5.177
93030W        W58191  25.257  41.579   3.568
93031W        W58192   9.857  29.236  12.955
93032W        W58193  21.636  33.450   1.967
93033W        W58194   0.423  18.226   2.780
93034W        W58195  40.683  24.402  13.957
93035W        W58196  21.521  31.928  14.566
93036W        W58197  27.576  44.828   1.149
93037W        W58198  17.095  17.626  14.686
93038W        W58199  26.165  28.720  10.813
93039W        W58200  28.942  43.042   2.317
93040W        W58201  16.787  20.877   2.356
93041W        W58202  16.542  11.382  13.621
93042W        W58203  18.006   2.223   3.293
93043W        W58204   1.558  28.881  13.890
93044W        W58205   4.998  24.010   5.510
93045W        W58206   1.341  44.280  11.435
93046W        W58207  15.658  27.212  13.679
93047W        W58208  31.086  25.145  12.229
93048W        W58209  35.059   1.451   0.028
93049W        W58210  40.617   1.820   3.085
93050W        W58211  27.423  17.300  12.914
93051W        W58212  12.721  44.745  12.470
93052W        W58213   6.988  25.610  14.912
93053W        W58214   0.604  19.666  14.733
93054W        W58215  21.076   3.403   2.428
93055W        W58216  39.555  27.664   0.923
93056W        W58217  44.740   0.790   4.587
93057W        W58218  38.017   3.921  12.583
93058W        W58219  31.320  21.562  10.952
93059W        W58220  12.272  37.472   1.104
93060W        W58221  12.460  44.528  12.861
93061W        W58222  37.795  30.363  13.920
93062W        W58223  27.750  28.101  12.417
93063W        W58224  27.239  34.970   2.819
93064W        W58225  29.459  35.468   1.534
93065W        W58226  40.389  37.098  11.562
93066W        W58227  41.114  19.554   0.322
93067W        W58228  30.499  21.976  10.593
93068W        W58229   2.524   3.276   5.194
93069W        W58230  27.577   2.141  13.981
93070W        W58231   7.855  23.756   5.009
93071W        W58232  30.098  22.444  12.993
93072W        W58233   4.143  15.085  14.346
93073W        W58234  31.452  43.844   2.279
93074W        W58235  39.100   8.836  13.409
93075W        W58236  20.219   1.529   5.102
93076W        W58237  31.615  35.393  10.764
93077W        W58238  25.674  26.374   2.201
93078W        W58239  12.279  18.063   1.370
93079W        W58240   8.635  14.888  12.109
93080W        W58241  41.924  32.465  11.922
93081W        W58242  28.712   9.562  10.938
93082W        W58243   9.838  31.941   1.686
93083W        W58244  17.099  36.349  10.834
93084W        W58245  10.326  31.198  11.541
93085W        W58246  26.787  23.639   4.923
93086W        W58247  24.658  41.920  13.022
93087W        W58248  15.344  10.809  10.711
93088W        W58249  23.634   3.930   4.218
93089W        W58250  39.439  17.132   1.178
93090W        W58251  25.377  13.214  10.825
93091W        W58252  29.390  30.247   2.784
93092W        W58253  38.023  32.903   2.646
93093W        W58254   6.248   1.932  10.730
93094W        W58255   1.915   0.322  10.776
93095W        W58256   3.470  19.268  14.659
93096W        W58257  35.922  25.041  14.341
93097W        W58258   7.629  19.464  13.089
93098W        W58259  21.910  35.013  12.968
93099W        W58260  10.797  35.493   2.177
93100W        W58261   8.382   4.166   4.209
93101W        W58262   5.510  32.530  12.484
93102W        W58263  34.949  36.041   1.518
93103W        W58264  28.145   3.711  12.934
93104W        W58265   5.631  15.416   0.330
93105W        W58266   3.975  19.587   1.280
93106W        W58267  20.578  23.700   2.829
93107W        W58268  40.071  43.143   2.829
93108W        W58269  18.402  11.758  11.802
93109W        W58270   4.344  22.209  10.453
93110W        W58271  23.040  13.294   2.805
93111W        W58272   6.676   6.861   0.254
93112W        W58273  20.248  37.079   4.553
93113W        W58274  13.117  31.888  12.111
93114W        W58275  13.181  28.753  14.071
93115W        W58276  39.484   1.272  11.197
93116W        W58277   8.730   6.935  14.262
93117W        W58278   1.500   4.440   3.874
93118W        W58279  43.038  15.446  10.350
93119W        W58280  26.469  44.031  12.719
93120W        W58281  17.576   3.760   4.503
93121W        W58282  34.640   0.995  12.015
93122W        W58283  19.333   7.937  12.051
93123W        W58284  10.169  23.688   3.189
93124W        W58285   7.030   3.405  10.615
93125W        W58286  28.703  13.390   2.672
93126W        W58287  24.983  29.125  14.881
93127W        W58288  20.694  26.965   2.238
93128W        W58289   7.767   4.786   1.229
93129W        W58290  10.576  37.869  11.500
93130W        W58291  40.130  21.310  11.590
93131W        W58292  11.269  43.862   3.211
93132W        W58293  43.409   0.845   2.000
93133W        W58294  41.725   3.283  14.392
93134W        W58295  32.497   7.162   4.067
93135W        W58296  42.376  43.940  14.690
93136W        W58297   6.733   6.732  10.988
93137W        W58298  36.370  34.573   1.699
93138W        W58299  18.988  44.117   0.950
93139W        W58300   7.846   3.402   1.399
93140W        W58301  27.458   4.851  12.922
93141W        W58302  26.585   5.848   4.519
93142W        W58303   5.157  24.127   0.007
93143W        W58304  34.674  26.443  14.348
93144W        W58305  24.567  39.035  11.758
93145W        W58306  38.140  18.126   4.218
93146W        W58307  33.187   8.912  11.301
93147W        W58308  15.274  12.461   1.536
93148W        W58309  30.687  10.319  14.737
93149W        W58310   1.379   4.995  13.011
93150W        W58311   5.213   3.862  13.068
93151W        W58312   6.855   7.581   3.764
93152W        W58313  38.072   1.337  13.727
93153W        W58314  43.313  23.170   2.983
93154W        W58315  29.852  24.718  14.805
93155W        W58316  30.522  14.300   4.671
93156W        W58317  23.977  41.727   1.848
93157W        W58318  28.147  20.578   3.610
93158W        W58319  24.179   8.427  13.985
93159W        W58320  32.636  40.566  12.427
93160W        W58321  13.471  28.503   0.037
93161W        W58322   3.777  13.295   3.241
93162W        W58323  14.202  37.884  14.866
93163W        W58324  41.079  15.488  14.706
93164W        W58325   1.535   6.961  12.393
93165W        W58326  25.240   8.199   0.351
93166W        W58327   8.470  35.032  13.536
93167W        W58328  37.977   1.680   3.313
93168W        W58329   0.796   8.075  11.074
93169W        W58330  18.286  20.487  12.011
93170W        W58331  14.645   1.539  11.131
93171W        W58332   3.694  23.683   0.681
93172W        W58333  24.598  23.891  12.424
93173W        W58334   0.830  25.198  13.341
93174W        W58335   7.093  39.465  11.422
93175W        W58336   6.216  15.590   0.892
93176W        W58337  12.331   3.441  11.500
93177W        W58338  14.037  13.735   0.942
93178W        W58339  15.013   1.855   4.735
93179W        W58340  23.879  36.781   0.431
93180W        W58341  41.658  36.989  13.502
93181W        W58342  44.648  38.465  11.113
93182W        W58343  24.670  11.999   1.477
93183W        W58344   6.789  36.763   2.836
93184W        W58345  34.196  17.170   3.114
93185W        W58346  21.936  26.128   2.597
93186W        W58347   0.877  22.461  13.804
93187W        W58348  12.561  10.676  12.939
93188W        W58349   0.388   2.388  14.849
93189W        W58350  25.886   7.215  14.421
93190W        W58351   2.634  44.730   1.317
93191W        W58352  11.677  29.538  11.240
93192W        W58353  31.851  26.550  14.334
93193W        W58354  38.336  14.572  14.985
93194W        W58355  30.938  23.743   1.720
93195W        W58356  18.859  26.775   2.653
93196W        W58357  30.435  43.861   2.881
93197W        W58358  32.673  17.999   2.611
93198W        W58359  32.911  29.503   1.464
93199W        W58360  26.091   6.851  11.751
93200W        W58361  17.261  43.301  13.500
93201W        W58362  40.040  31.744  14.765
93202W        W58363  37.252  21.199   2.584
93203W        W58364   6.431   6.838   1.098
93204W        W58365   0.213  14.827   0.775
93205W        W58366   4.419  16.094  11.624
93206W        W58367  34.260  16.780   3.893
93207W        W58368  32.366  27.421  11.355
93208W        W58369   1.081  32.547  13.918
93209W        W58370  40.381  12.121   0.966
93210W        W58371  11.100  18.058  13.393
93211W        W58372  35.825  26.474  14.996
93212W        W58373  23.684  13.921   2.861
93213W        W58374  37.846  37.325  10.358
93214W        W58375  22.682  28.198  12.581
93215W        W58376   4.878   7.892   2.895
93216W        W58377  19.037  15.218  11.043
93217W        W58378   2.514  17.320  10.590
93218W        W58379  20.011   4.328  12.191
93219W        W58380   1.016  19.370  13.429
93220W        W58381  12.861   1.174   3.172
93221W        W58382  14.924   6.485  11.572
93222W        W58383  15.077  12.186   3.816
93223W        W58384  25.181  10.976  12.023
93224W        W58385  39.900  33.574   2.406
93225W        W58386  11.903  42.288  10.642
93226W        W58387  14.922  43.008   0.214
93227W        W58388  23.516  31.355   4.111
93228W        W58389  41.862  32.355   1.607
93229W        W58390  15.618  18.442  12.119
93230W        W58391  24.526  42.070   0.970
93231W        W58392  31.877  27.430  14.254
93232W        W58393  29.128  42.820   3.130
93233W        W58394  22.740  13.230  12.090
93234W        W58395  41.636  17.114   3.689
93235W        W58396  40.430  21.015   0.265
93236W        W58397  42.963  39.198  14.563
93237W        W58398  39.126  26.247  12.062
93238W        W58399   4.017  34.035   1.653
93239W        W58400   0.767   8.239   2.720
93240W        W58401  31.410  29.611   1.265
93241W        W58402  40.899  41.083  11.516
93242W        W58403  33.065  31.846  14.775
93243W        W58404  20.286  26.202  13.907
93244W        W58405   1.917  31.902   4.596
93245W        W58406  18.695  32.672  14.529
93246W        W58407  36.134  28.738  13.962
93247W        W58408  40.859  32.764   3.106
93248W        W58409  31.405  23.655  14.951
93249W        W58410  30.935   7.928   1.151
93250W        W58411  16.562  22.926   2.507
93251W        W58412   0.962   8.649  11.631
93252W        W58413   6.619   8.311  12.391
93253W        W58414   2.458   6.156  12.179
93254W        W58415  16.991  42.030   1.797
93255W        W58416  10.350   7.770   1.229
93256W        W58417  41.474  41.536  11.053
93257W        W58418   2.965  29.960  11.236
93258W        W58419  10.957  17.751   3.853
93259W        W58420  14.109   4.557   0.857
93260W        W58421  25.655  36.242   3.062
93261W        W58422  19.543  29.092  13.084
93262W        W58423  10.414  39.912  14.175
93263W        W58424  29.411  12.127   0.887
93264W        W58425  22.563  34.244   0.815
93265W        W58426  14.586   2.860  11.466
93266W        W58427  20.953   4.055   5.112
93267W        W58428  42.347  43.418  14.736
93268W        W58429  20.865  17.479   4.648
93269W        W58430  31.945  44.846   2.130
93270W        W58431  31.394  26.928   4.506
93271W        W58432  27.688   7.490   0.831
93272W        W58433  26.658  41.441   1.205
93273W        W58434  12.373   9.866  13.589
93274W        W58435  11.816   4.485  12.850
93275W        W58436   0.362  14.062   0.472
93276W        W58437   6.799   3.012   4.062
93277W        W58438  15.512  37.925  13.036
93278W        W58439  28.455  24.925  12.114
93279W        W58440  42.455  30.589   3.656
93280W        W58441  43.938   1.610  14.026
93281W        W58442  26.508  13.815   0.962
93282W        W58443  29.652  24.131   1.823
93283W        W58444  16.747  11.214  14.065
93284W        W58445   8.795  40.010   1.806
93285W        W58446  25.495  19.150  11.397
93286W        W58447   2.812  26.953  13.322
93287W        W58448   8.808  16.138  12.872
93288W        W58449  41.443  27.283  14.431
93289W        W58450  38.494  44.885  11.519
93290W        W58451   0.170   6.121   2.663
93291W        W58452  11.692   5.948  12.329
93292W        W58453  27.185  23.732   0.188
93293W        W58454  27.639   8.359   4.511
93294W        W58455  25.196  33.563  12.484
93295W        W58456   3.960  23.329   0.982
93296W        W58457  25.422   0.920   3.234
93297W        W58458   0.077  29.737  14.542
93298W        W58459   8.855  37.815   0.921
93299W        W58460  41.721  29.068   4.071
93300W        W58461   3.892  20.165   3.186
93301W        W58462  42.245  41.947   0.740
93302W        W58463  35.574  22.204   1.114
93303W        W58464  18.567  44.345  11.415
93304W        W58465  43.451  14.754   2.694
93305W        W58466  29.643  23.746   1.258
93306W        W58467   6.342  31.142   4.703
93307W        W58468   1.941   8.377  10.914
93308W        W58469   8.333   5.484   0.859
93309W        W58470  12.538  39.454  10.683
93310W        W58471  11.571  27.588  12.254
93311W        W58472  29.569  33.595   5.006
93312W        W58473  44.263   0.612  11.047
93313W        W58474  27.492  21.652   3.265
93314W        W58475  26.170   1.732   1.169
93315W        W58476  27.003  39.380   3.168
93316W        W58477   7.807  13.222   1.411
93317W        W58478  22.005  43.809   1.470
93318W        W58479  15.045  13.423  14.522
93319W        W58480  11.223  24.445  13.432
93320W        W58481  41.346  43.024   4.037
93321W        W58482  43.958   5.390   4.695
93322W        W58483   5.362  12.793  12.785
93323W        W58484  35.617  11.116  13.842
93324W        W58485  33.445  16.631  14.910
93325W        W58486  29.137  10.052   9.761
93326W        W58487   0.505  10.282   0.300
93327W        W58488  32.063   9.285   3.764
93328W        W58489   7.668   6.253   3.300
93329W        W58490   7.536  10.753  11.462
93330W        W58491  34.802  35.949  13.281
93331W        W58492   4.942  25.238   4.337
93332W        W58493  12.836  19.445  11.960
93333W        W58494  29.491  37.308   4.251
93334W        W58495  32.233  18.508  12.350
93335W        W58496   8.220   9.100   3.228
93336W        W58497  35.770  33.817   2.202
93337W        W58498   7.235  24.516   1.416
93338W        W58499  18.316  11.340   2.342
93339W        W58500  15.312  20.610   3.275
93340W        W58501  23.376  23.536  12.697
93341W        W58502   0.889  16.680   4.750
93342W        W58503  34.556  34.611   1.866
93343W        W58504   7.878  14.629   4.588
93344W        W58505   7.185  21.824  12.242
93345W        W58506  27.921  12.278   3.560
93346W        W58507  25.624   5.214  14.447
93347W        W58508  27.594  18.149  11.696
93348W        W58509  27.541  44.848  14.184
93349W        W58510  34.494  15.470  11.262
93350W        W58511  13.095  38.587  12.577
93351W        W58512  27.415  17.598   3.926
93352W        W58513  44.735  30.933   4.367
93353W        W58514  25.522  17.940  14.718
93354W        W58515  24.624  28.212  11.035
93355W        W58516   0.325  19.479  12.072
93356W        W58517  44.297  13.553  12.927
93357W        W58518  26.680  10.751   0.627
93358W        W58519  12.594  17.622   1.508
93359W        W58520  15.386  23.001  14.586
93360W        W58521  43.986  18.737  14.865
93361W        W58522   0.095  13.186   1.348
93362W        W58523  20.697  44.285  13.817
93363W        W58524  36.954  25.829  14.891
93364W        W58525  14.630  44.247   3.143
93365W        W58526   8.329  38.534   2.560
93366W        W58527   3.811  32.013   4.330
93367W        W58528  31.177   2.795   0.773
93368W        W58529  42.426   3.964  10.600
93369W        W58530  44.687  17.553  11.513
93370W        W58531   2.977   7.414   4.074
93371W        W58532   0.473   3.239  12.400
93372W        W58533  30.072  10.928  13.559
93373W        W58534  26.631  26.532  14.760
93374W        W58535  16.370  17.240  13.365
93375W        W58536  42.533  22.664   0.027
93376W        W58537  41.042   5.282   3.882
93377W        W58538  28.432  20.755   3.161
93378W        W58539  35.991  33.078   0.420
93379W        W58540  35.557  14.176   4.925
93380W        W58541  36.555  20.697  13.354
93381W        W58542   1.254  35.883   3.033
93382W        W58543  41.129   5.432   1.787
93383W        W58544  22.608  28.171   2.013
93384W        W58545  20.129  29.547  13.590
93385W        W58546  19.545   6.123  12.521
93386W        W58547  28.568   0.371   4.724
93387W        W58548  39.722  39.271  13.364
93388W        W58549  13.761  22.851   0.554
93389W        W58550  29.134  32.952   2.406
93390W        W58551   1.974  27.107   3.914
93391W        W58552  18.770  22.728  14.612
93392W        W58553   3.832   9.121  14.495
93393W        W58554  18.795   9.341  10.704
93394W        W58555  16.159  37.706   4.545
93395W        W58556  14.140  40.484  12.061
93396W        W58557  20.283  43.451  13.872
93397W        W58558  16.750  21.101   1.093
93398W        W58559  34.798  31.583   4.306
93399W        W58560   7.302  17.302  10.690
93400W        W58561  15.506   3.336  12.607
93401W        W58562   4.383  12.742   0.584
93402W        W58563  43.299  42.963   4.312
93403W        W58564   5.852  31.993  14.170
93404W        W58565  16.120  40.440  13.045
93405W        W58566   4.523  26.646  13.130
93406W        W58567  41.800   9.258  11.371
93407W        W58568  23.258  26.029   4.226
93408W        W58569   8.832  17.059  14.504
93409W        W58570  41.724  30.858  13.035
93410W        W58571  34.153   6.398   3.920
93411W        W58572  37.481  37.597   3.351
93412W        W58573  30.104   6.289  11.611
93413W        W58574   3.381  34.735  13.096
93414W        W58575  44.891   1.163  14.867
93415W        W58576  14.478  24.138   4.540
93416W        W58577   3.887  10.702  14.029
93417W        W58578  12.195  28.511   0.392
93418W        W58579  20.679  35.863   1.792
93419W        W58580  15.153  39.377  14.800
93420W        W58581  18.351  27.191  11.033
93421W        W58582   1.241   0.474   1.330
93422W        W58583  17.804   6.316  12.586
93423W        W58584  33.649  42.190   0.768
93424W        W58585   5.863  38.767   2.422
93425W        W58586  44.540  40.565   1.428
93426W        W58587  19.537  18.626   3.014
93427W        W58588  36.044  29.520   1.274
93428W        W58589  10.157  40.044   2.628
93429W        W58590   6.320  13.031   0.874
93430W        W58591   9.912  36.813   2.732
93431W        W58592  39.892  12.080   3.136
93432W        W58593  11.810  23.698  14.552
93433W        W58594  39.307  35.317   0.436
93434W        W58595  22.067  19.381  13.426
93435W        W58596  38.728  11.619   5.088
93436W        W58597  38.389  15.847  11.556
93437W        W58598  42.984  30.486  13.380
93438W        W58599  25.512   4.487   2.272
93439W        W58600  24.601  36.304   0.877
93440W        W58601  10.872  18.625   3.846
93441W        W58602  13.273  33.470  12.857
93442W        W58603  37.508  36.836   3.714
93443W        W58604   7.650  32.636  13.448
93444W        W58605  27.684  23.721  12.405
93445W        W58606   4.146  13.723   0.738
93446W        W58607  40.384   9.876   3.547
93447W        W58608  17.174  25.980   4.558
93448W        W58609   7.372   3.966   4.491
93449W        W58610  35.910  42.802   0.686
93450W        W58611  30.972  27.153  13.422
93451W        W58612  35.393  36.678   3.023
93452W        W58613  13.036  32.947   3.706
93453W        W58614  38.947  42.638   5.069
93454W        W58615  19.861   9.323   3.153
93455W        W58616  23.058  15.968  11.145
93456W        W58617  10.783  23.206   4.228
93457W        W58618  39.437  11.425   2.101
93458W        W58619  33.066   0.546   2.613
93459W        W58620  18.751  39.711   3.257
93460W        W58621  24.479  39.950  14.908
93461W        W58622   1.367  22.907   0.525
93462W        W58623  31.990  34.171  10.600
93463W        W58624  23.520   6.476  14.231
93464W        W58625  33.486  22.725  14.891
93465W        W58626  42.354   9.285   1.413
93466W        W58627   3.981  34.903   1.339
93467W        W58628  29.061  37.795  13.504
93468W        W58629  18.723  26.098  13.827
93469W        W58630  43.339   4.185   1.394
93470W        W58631  43.524  44.325   4.308
93471W        W58632   1.705  29.077  14.471
93472W        W58633  32.592   7.292   4.565
93473W        W58634   4.369  11.657  11.944
93474W        W58635  19.492  12.335   3.550
93475W        W58636  35.979  31.910   1.483
93476W        W58637  38.273  34.271   1.670
93477W        W58638  42.746   0.002  12.221
93478W        W58639   5.994   9.415  11.098
93479W        W58640  27.819   9.747   3.356
93480W        W58641  14.849  36.850  12.671
93481W        W58642  15.700  23.915   5.081
93482W        W58643  17.289  27.901  14.048
93483W        W58644   8.480  26.445   2.858
93484W        W58645  19.390   5.653   4.067
93485W        W58646  35.996  37.208  12.574
93486W        W58647  36.993   7.708  10.781
93487W        W58648  39.385  33.415   0.477
93488W        W58649  41.525  25.518  13.918
93489W        W58650  18.532   0.972   3.709
93490W        W58651  26.077  19.261  11.290
93491W        W58652  17.441  21.636  12.826
93492W        W58653  43.679   3.738  11.008
93493W        W58654  17.677  34.411   3.500
93494W        W58655  18.282   3.726   1.942
93495W        W58656  18.463  33.602   4.424
93496W        W58657   6.524  41.065  14.826
93497W        W58658   4.283  31.358  13.063
93498W        W58659  28.215   8.873  14.372
93499W        W58660  40.558  17.635  14.005
93500W        W58661  14.759  17.129   3.664
93501W        W58662   1.095  25.975  11.434
93502W        W58663  37.567  43.329  12.002
93503W        W58664  40.559  42.258  13.016
93504W        W58665  19.853  15.538   3.645
93505W        W58666   0.871  20.614  12.524
93506W        W58667  27.110  30.655   2.193
93507W        W58668  26.631  34.387   0.089
93508W        W58669   2.507  20.308   3.220
93509W        W58670  38.037   9.796   3.541
93510W        W58671  35.951  13.713  12.609
93511W        W58672  22.555   0.571  13.902
93512W        W58673  40.782  16.270  12.874
93513W        W58674  11.893  10.756  11.130
93514W        W58675  37.978  35.964  14.042
93515W        W58676  31.471  26.098  11.526
93516W        W58677  15.710  40.317   1.712
93517W        W58678  36.978  17.203   2.067
93518W        W58679  31.037  15.391  12.471
93519W        W58680  39.025   0.269   2.707
93520W        W58681  15.709   2.335  11.092
93521W        W58682   3.563  27.144  12.385
93522W        W58683   7.814  32.106  13.538
93523W        W58684  31.985  29.918  10.947
93524W        W58685   1.713  31.185  12.904
93525W        W58686  28.217  14.369  14.477
93526W        W58687  27.637  25.529  11.086
93527W        W58688  29.580   7.235  10.930
93528W        W58689   9.871  25.099  12.474
93529W        W58690  26.480  28.080   1.359
93530W        W58691  36.799  34.886  11.654
93531W        W58692  31.717  16.727  11.528
93532W        W58693  31.836   7.159  11.410
93533W        W58694  18.306  44.371   2.130
93534W        W58695  23.484  33.178  12.476
93535W        W58696  27.480   1.378   0.752
93536W        W58697  22.206  44.587   2.831
93537W        W58698  34.095   7.650   0.250
93538W        W58699   0.754  31.441  13.123
93539W        W58700  36.343  13.020   2.499
93540W        W58701  21.178   1.824   3.458
93541W        W58702  39.282   4.813   0.856
93542W        W58703   3.178  10.385   3.280
93543W        W58704   7.045   4.791  11.677
93544W        W58705  38.005  11.132  10.761
93545W        W58706   4.660  25.964  12.132
93546W        W58707   9.809  15.279   3.005
93547W        W58708  11.788  30.385   0.505
93548W        W58709  16.204  38.723   2.774
93549W        W58710  37.294  42.070   4.544
93550W        W58711  10.593  28.670  10.785
93551W        W58712  19.004   5.691   0.434
93552W        W58713  30.412   2.357   2.216
93553W        W58714  33.516  42.309   2.722
93554W        W58715  30.114  20.050   0.972
93555W        W58716  28.630   5.895   4.853
93556W        W58717  34.713   1.071  12.878
93557W        W58718  19.766   4.785  12.413
93558W        W58719  43.011  39.756   3.751
93559W        W58720  19.523  32.876   2.345
93560W        W58721  36.507  34.138   1.411
93561W        W58722  11.790  26.009  11.962
93562W        W58723   2.160  43.368  13.355
93563W        W58724  19.281  20.604  11.592
93564W        W58725  40.528  38.788  11.206
93565W        W58726  20.989  40.832   1.178
93566W        W58727  10.547  44.502  12.242
93567W        W58728  36.447  42.941  12.551
93568W        W58729   2.176   9.158  11.432
93569W        W58730  33.613  40.842   1.225
93570W        W58731   1.973  13.532  13.601
93571W        W58732  41.481  31.332  13.745
93572W        W58733  10.708  23.692  10.964
93573W        W58734  12.288  41.266  14.918
93574W        W58735  36.839  17.148  14.447
93575W        W58736  31.120  16.808   4.716
93576W        W58737  24.720  23.682  13.078
93577W        W58738  27.690   2.741  11.633
93578W        W58739  44.981   2.821  14.333
93579W        W58740   5.885  44.476   5.382
93580W        W58741  11.128  10.550  11.609
93581W        W58742  24.584  18.834   0.924
93582W        W58743   4.269  23.028   0.687
93583W        W58744   0.525  31.624   1.399
93584W        W58745   5.011   7.362  12.542
93585W        W58746  29.906  42.758   2.674
93586W        W58747  26.580  43.418   1.421
93587W        W58748   6.175  14.570   2.331
93588W        W58749  13.096   7.306   2.692
93589W        W58750   5.810  39.340   0.928
93590W        W58751  13.160   1.409  14.908
93591W        W58752  36.321  22.900  10.370
93592W        W58753  24.472  17.623   0.278
93593W        W58754  32.876  15.990   4.113
93594W        W58755   0.561  17.086  10.726
93595W        W58756   8.820  36.159  11.099
93596W        W58757   0.278  19.121  10.878
93597W        W58758  18.851  41.168  12.997
93598W        W58759  22.181   6.090  12.122
93599W        W58760  11.428  32.446  14.566
93600W        W58761  22.283   1.962  10.443
93601W        W58762   4.865  36.539  12.858
93602W        W58763  38.559   7.140   3.061
93603W        W58764   0.792   1.418  12.230
93604W        W58765  16.894  39.521   4.064
93605W        W58766   8.831  13.714  14.434
93606W        W58767  34.652  21.518   4.595
93607W        W58768  32.630  16.970  11.597
93608W        W58769  19.641   8.842   3.184
93609W        W58770   8.375  15.038   3.432
93610W        W58771   1.371   4.864   2.691
93611W        W58772  21.567   7.255   1.168
93612W        W58773   2.224  25.749  13.094
93613W        W58774   0.001   4.155  10.694
93614W        W58775   7.914  37.766   0.733
93615W        W58776   4.577  41.789  11.532
93616W        W58777   3.825  42.911  14.770
93617W        W58778  41.586   2.400   0.802
93618W        W58779  17.507  37.665  13.384
93619W        W58780   2.293  11.620  13.532
93620W        W58781  38.138  23.006   1.330
93621W        W58782  32.014  29.923   4.550
93622W        W58783  32.553   2.925  11.390
93623W        W58784  22.721  36.609  13.028
93624W        W58785  20.433  25.171  11.181
93625W        W58786  28.241  10.330  14.377
93626W        W58787  31.705  37.319  11.657
93627W        W58788  33.075  17.343   2.349
93628W        W58789  23.725  13.511  13.460
93629W        W58790  18.247  13.311  13.525
93630W        W58791  22.542   1.771  11.693
93631W        W58792   2.881  13.199  14.083
93632W        W58793  25.583  21.182  11.650
93633W        W58794  32.390  39.458   1.304
93634W        W58795  40.422  26.204  13.047
93635W        W58796  32.678   4.784   4.766
93636W        W58797  38.445  33.160   4.559
93637W        W58798  19.594  20.231  14.941
93638W        W58799  25.193  39.009  10.956
93639W        W58800  44.172  22.056  11.010
93640W        W58801  17.638  41.233   4.235
93641W        W58802  15.606   6.962  10.823
93642W        W58803   2.438  21.957  12.725
93643W        W58804   7.771  30.625   1.527
93644W        W58805  14.203  22.386   0.741
93645W        W58806   2.462  30.637  12.031
93646W        W58807  15.262   1.544   2.779
93647W        W58808   6.241  13.787  10.699
93648W        W58809  13.789  42.260   1.825
93649W        W58810  15.742  31.215  13.900
93650W        W58811  44.548  19.756   3.288
93651W        W58812  35.869  20.484   3.717
93652W        W58813  40.500  12.731  11.283
93653W        W58814   1.637  12.519   1.417
93654W        W58815  23.547  13.384  11.252
93655W        W58816   4.589  32.355   1.811
93656W        W58817  16.648  38.519   9.542
93657W        W58818  43.930  39.846  11.642
93658W        W58819  36.311   8.692  11.282
93659W        W58820   4.764  43.220   3.781
93660W        W58821  17.325  18.837  13.859
93661W        W58822  41.158  37.437   4.536
93662W        W58823   0.765   8.465   1.732
93663W        W58824  23.679  25.226   1.965
93664W        W58825   4.425   2.492  12.040
93665W        W58826  15.703  19.145   9.826
93666W        W58827  41.406  13.128   0.721
93667W        W58828   4.427  28.089   4.591
93668W        W58829  40.784  32.449   3.510
93669W        W58830   6.420  36.999  13.523
93670W        W58831  37.787   1.341   3.644
93671W        W58832  39.080   9.762   1.007
93672W        W58833  34.275  15.206   0.999
93673W        W58834   9.839  12.673   0.339
93674W        W58835  25.571  33.177  13.913
93675W        W58836  13.670  12.186  12.997
93676W        W58837   0.843  17.221   4.805
93677W        W58838  43.347  38.346   2.383
93678W        W58839  23.648  17.692  12.189
93679W        W58840   1.668  29.396   1.655
93680W        W58841  17.211   2.708  13.965
93681W        W58842  32.370   2.477   1.343
93682W        W58843  16.625  20.821  12.581
93683W        W58844  18.157  24.462  11.252
93684W        W58845   6.206   3.872  11.079
93685W        W58846  42.976  21.037   2.256
93686W        W58847  23.593  33.492   2.274
93687W        W58848  30.663  42.353  12.821
93688W        W58849  21.524  25.194   4.337
93689W        W58850   4.416  22.600   2.272
93690W        W58851  11.130  12.853   2.146
93691W        W58852  17.459  26.518  11.934
93692W        W58853  35.797  41.904   2.134
93693W        W58854  37.834  15.234   4.561
93694W        W58855   3.342  25.471  14.379
93695W        W58856  26.434  37.123  13.364
93696W        W58857  27.194  43.357   3.859
93697W        W58858  25.169  24.699   0.910
93698W        W58859  11.490  14.749   0.911
93699W        W58860  11.560  43.912  11.178
93700W        W58861  32.031  10.363   2.014
93701W        W58862  25.518  18.063   3.698
93702W        W58863   3.032  36.690  14.849
93703W        W58864  27.477   5.259   1.751
93704W        W58865  35.491  19.142  12.051
93705W        W58866   6.829  43.650   2.185
93706W        W58867  23.590  43.062  12.874
93707W        W58868  24.406  15.009  13.665
93708W        W58869  12.402  38.264   2.410
93709W        W58870  11.204  39.609  14.982
93710W        W58871   2.770  28.420  10.881
93711W        W58872  17.975  17.292  12.959
93712W        W58873   6.835  16.174  13.715
93713W        W58874  43.474   8.627   1.635
93714W        W58875  44.010  43.058  13.989
93715W        W58876  20.510  24.960  14.897
93716W        W58877   9.828  20.103   2.965
93717W        W58878   3.039  11.692  14.615
93718W        W58879  12.100  32.925  13.757
93719W        W58880  26.181  31.721  11.660
93720W        W58881  28.604  12.172  14.975
93721W        W58882  41.970  13.342  12.809
93722W        W58883  40.603  41.461   3.783
93723W        W58884   8.601  40.899   2.830
93724W        W58885  36.770  36.492  14.344
93725W        W58886  42.821  14.404  12.788
93726W        W58887  10.181  34.086  12.178
93727W        W58888  40.555  17.134   2.679
93728W        W58889  44.321  13.597  14.865
93729W        W58890   3.399  32.642  10.575
93730W        W58891  14.664  44.853   0.545
93731W        W58892  29.950   4.395  10.674
93732W        W58893  28.886   5.630   1.950
93733W        W58894  31.535   4.760  10.765
93734W        W58895  40.895  35.155  12.863
93735W        W58896  19.221  19.193  12.849
93736W        W58897  34.408  21.015   1.685
93737W        W58898  19.600   4.227   2.566
93738W        W58899  22.014  39.320  12.684
93739W        W58900  22.979   4.956   4.127
93740W        W58901  33.163  30.986  12.998
93741W        W58902  13.047  19.749  13.502
93742W        W58903  37.830  28.397  12.065
93743W        W58904  19.926  17.957   1.698
93744W        W58905  22.656  11.585   4.105
93745W        W58906  21.591  29.093  10.600
93746W        W58907  36.110  30.820  11.819
93747W        W58908  35.599   9.183  13.996
93748W        W58909  21.833  10.275   1.023
93749W        W58910  13.827  21.779   1.571
93750W        W58911  25.394  38.029  11.400
93751W        W58912  28.629  33.172  14.546
93752W        W58913  33.961  36.750  12.056
93753W        W58914   9.765  38.408   1.331
93754W        W58915   1.922  42.468  12.916
93755W        W58916  23.632  19.074  13.866
93756W        W58917  15.265  31.169  13.012
93757W        W58918  44.022  32.033   9.944
93758W        W58919   2.563  21.393  11.346
93759W        W58920  43.764   0.881   4.664
93760W        W58921  23.636  42.543  12.609
93761W        W58922  25.345  17.234  11.144
93762W        W58923   6.738  25.057   3.648
93763W        W58924  29.459  40.596   3.673
93764W        W58925  41.898   6.532   0.947
93765W        W58926  35.302  37.938  12.439
93766W        W58927  21.924  36.157   2.922
93767W        W58928  32.202  10.286   3.891
93768W        W58929   8.722  15.774   1.608
93769W        W58930  40.535  27.431   0.858
93770W        W58931  43.098  20.885   3.321
93771W        W58932  29.283  43.465   4.640
93772W        W58933  15.506  15.490   4.051
93773W        W58934  18.063  42.929  11.383
93774W        W58935   3.793  15.483   3.674
93775W        W58936   9.192  39.913  13.462
93776W        W58937   2.730  19.672   1.831
93777W        W58938   8.536  21.515  12.084
93778W        W58939  26.683  36.223  12.473
93779W        W58940  30.987  13.272  13.550
93780W        W58941  13.742  30.908  12.830
93781W        W58942  17.312   6.544   1.725
93782W        W58943   1.461  41.864   1.973
93783W        W58944  18.404  31.420   0.093
93784W        W58945  16.227  33.448   4.325
93785W        W58946  25.716  37.892  12.405
93786W        W58947  32.896  34.035  12.409
93787W        W58948  27.940  44.968  11.481
93788W        W58949  23.509  27.111   3.092
93789W        W58950  11.419  20.220  13.043
93790W        W58951  40.342  30.845   2.699
93791W        W58952  27.429  39.854  14.579
93792W        W58953  35.592  18.625  14.945
93793W        W58954   3.988  20.611   4.696
93794W        W58955   6.977   0.236  12.331
93795W        W58956   4.112  32.974  13.838
93796W        W58957  38.280  40.337   1.323
93797W        W58958  36.305  16.832  13.077
93798W        W58959  24.782  39.331   1.063
93799W        W58960  41.822  33.266   5.080
93800W        W58961  44.895   8.560   0.410
93801W        W58962  37.909  22.252  11.591
93802W        W58963  41.335  41.020   0.853
93803W        W58964  31.646  31.040   0.475
93804W        W58965  20.832   5.841   1.795
93805W        W58966  41.914  41.485   1.429
93806W        W58967   4.687  18.894  14.840
93807W        W58968  24.451  29.987  14.698
93808W        W58969  35.846  41.584  14.419
93809W        W58970   8.147  38.906  14.747
93810W        W58971  23.245  35.066  11.611
93811W        W58972  20.252  12.156   1.957
93812W        W58973  14.556   5.098  10.949
93813W        W58974  19.929   8.341  11.660
93814W        W58975  26.211  41.940  14.467
93815W        W58976   9.078  15.797   1.976
93816W        W58977  39.908  22.293   2.210
93817W        W58978  27.505   4.217  14.583
93818W        W58979   0.495  27.559   4.752
93819W        W58980  42.344  27.063  12.475
93820W        W58981  44.348  19.409  14.476
93821W        W58982  25.236  14.825   0.345
93822W        W58983  28.659  23.286   0.823
93823W        W58984  14.870  32.879   3.423
93824W        W58985   3.269  28.091  12.888
93825W        W58986  39.574  10.971   1.225
93826W        W58987  39.797   1.726   4.052
93827W        W58988  14.053  39.993  12.340
93828W        W58989  25.015   0.966   0.855
93829W        W58990  27.976  44.976  12.416
93830W        W58991  34.620  44.909  14.878
93831W        W58992  16.062  10.941  12.943
93832W        W58993  24.733  27.454   2.242
93833W        W58994  24.361  44.881  12.459
93834W        W58995  32.573   5.679   2.361
93835W        W58996  21.133  40.626   0.738
93836W        W58997  37.982  43.890  14.043
93837W        W58998   0.435  21.494  11.377
93838W        W58999  19.781  28.544  14.328
93839W        W59000  33.366  37.916  13.600
93840W        W59001  36.761  37.031   4.906
93841W        W59002  41.023  15.653   4.109
93842W        W59003  40.437  33.801  12.064
93843W        W59004  10.647  36.428   1.766
93844W        W59005  12.217  24.437   0.516
93845W        W59006  37.992  42.351  11.088
93846W        W59007  22.874   7.446  13.404
93847W        W59008  29.994   6.291   0.172
93848W        W59009  21.473   9.437   0.109
93849W        W59010  30.721   6.354  13.351
93850W        W59011  35.571  25.409  11.386
93851W        W59012  42.069   1.271   1.400
93852W        W59013  26.992  38.990   2.791
93853W        W59014  16.402  17.205  10.561
93854W        W59015  28.502  10.143   4.749
93855W        W59016   5.760  25.882  11.992
93856W        W59017  26.589   9.954  14.351
93857W        W59018  22.078  12.763  12.573
93858W        W59019  40.470  38.504  13.956
93859W        W59020  16.508  41.090   2.573
93860W        W59021  17.011  32.833  14.360
93861W        W59022  14.803  38.975   1.650
93862W        W59023  27.129  31.550   4.095
93863W        W59024  29.428  34.083   2.386
93864W        W59025  20.588   2.281  10.723
93865W        W59026  12.249  17.984  12.825
93866W        W59027  21.150  12.195   4.068
93867W        W59028  20.122  17.530  12.970
93868W        W59029  11.485  39.566  10.842
93869W        W59030  38.124  19.723  11.558
93870W        W59031  12.513  31.557   0.946
93871W        W59032   0.321   7.855  11.978
93872W        W59033   4.635  18.024   4.213
93873W        W59034  36.845  16.787  11.627
93874W        W59035  43.957  10.283  12.986
93875W        W59036  37.914   9.923  13.472
93876W        W59037  19.563  31.945  14.889
93877W        W59038  22.521  34.387   4.186
93878W        W59039  21.067  32.124  12.993
93879W        W59040  31.109  31.921   0.325
93880W        W59041  33.354  36.095  11.998
93881W        W59042  14.510  36.633   1.980
93882W        W59043   1.778  21.606   2.747
93883W        W59044  16.320  33.908   2.663
93884W        W59045  22.517   0.428  13.398
93885W        W59046  21.733  20.252  14.921
93886W        W59047   5.987  33.598  13.435
93887W        W59048   4.730  21.113  14.756
93888W        W59049   5.831  36.646  12.574
93889W        W59050   7.770  24.210  10.290
93890W        W59051  41.176  33.125  11.180
93891W        W59052   6.747   1.126   3.172
93892W        W59053  37.787  27.505  13.986
93893W        W59054  18.242   7.486  14.758
93894W        W59055  27.802  14.194  13.744
93895W        W59056   3.914  35.536  13.003
93896W        W59057  43.360  29.481  13.395
93897W        W59058  10.351  38.202   2.110
93898W        W59059  24.039   7.006   2.361
93899W        W59060  41.926  30.501   0.894
93900W        W59061  21.271   3.729  14.093
93901W        W59062  16.784  44.991   2.253
93902W        W59063  42.991   8.450   1.657
93903W        W59064  26.163   7.873  13.349
93904W        W59065   7.758  14.996   4.256
93905W        W59066  38.984  10.267   1.723
93906W        W59067   9.614  31.917  14.801
93907W        W59068  18.835   7.759   3.756
93908W        W59069  23.250   3.227  12.694
93909W        W59070  35.869  34.572   4.188
93910W        W59071   5.200  40.848  12.486
93911W        W59072  43.220  18.628   3.762
93912W        W59073  38.733  10.680  14.930
93913W        W59074  12.763   2.746   3.877
93914W        W59075  27.845   4.469  14.000
93915W        W59076  37.891  40.146   2.793
93916W        W59077   5.790  40.283  13.009
93917W        W59078  42.395  29.405  12.023
93918W        W59079  14.003  33.548  13.909
93919W        W59080  30.419  16.533  14.046
93920W        W59081  28.540   4.910   2.229
93921W        W59082  18.013  33.898  14.475
93922W        W59083  32.165  30.797  14.784
93923W        W59084   8.882   2.219  13.604
93924W        W59085  23.190  34.105  11.601
93925W        W59086   7.827  44.605  14.755
93926W        W59087  17.094  41.822  12.575
93927W        W59088  17.052   2.683   2.605
93928W        W59089  14.797   5.604   0.249
93929W        W59090  38.823  19.845  14.166
93930W        W59091  31.747  24.528   3.234
93931W        W59092  40.333  39.274   4.096
93932W        W59093  16.819   6.301   0.894
93933W        W59094  32.446   2.440   0.829
93934W        W59095  11.369  37.277   2.709
93935W        W59096  35.608  11.528   1.247
93936W        W59097  31.561  41.342  13.463
93937W        W59098  24.344   0.088  11.610
93938W        W59099  43.296  35.356  14.366
93939W        W59100  23.520  39.772   4.604
93940W        W59101  37.809  32.626  11.142
93941W        W59102  21.904  16.609  14.946
93942W        W59103   7.178   4.990   3.919
93943W        W59104  27.194  29.967  14.365
93944W        W59105  10.144  34.131   3.757
93945W        W59106  44.652  31.992  11.561
93946W        W59107  25.230  34.677   2.331
93947W        W59108   4.484  18.257   3.687
93948W        W59109  22.119  22.473  13.707
93949W        W59110  33.313  37.820   4.074
93950W        W59111  33.032   5.737   4.566
93951W        W59112  11.604  30.150   2.821
93952W        W59113  35.793  36.853   0.966
93953W        W59114  35.391  16.986  10.750
93954W        W59115  20.329   7.735  12.868
93955W        W59116  44.477  23.138  12.831
93956W        W59117   2.917  34.421   2.906
93957W        W59118  41.964  11.182  13.437
93958W        W59119  41.182  37.800   9.834
93959W        W59120  34.202   5.344  14.521
93960W        W59121  27.160  41.704   2.837
93961W        W59122  24.677  41.475   0.199
93962W        W59123  18.702  28.055   3.574
93963W        W59124   9.339   8.903  12.201
93964W        W59125   6.415  38.661  14.916
93965W        W59126  41.440  33.591   4.901
93966W        W59127  30.776   3.113   1.722
93967W        W59128  43.429  39.317  12.985
93968W        W59129  27.286  14.722   9.916
93969W        W59130  16.748  31.793   4.067
93970W        W59131  39.072   3.418   1.206
93971W        W59132  13.693  39.260   4.248
93972W        W59133  30.123  21.043  14.266
93973W        W59134   0.957  16.945  14.260
93974W        W59135  24.148  20.354  13.956
93975W        W59136   1.966  29.421  14.789
93976W        W59137   6.559   0.428  12.105
93977W        W59138  39.574  14.276   4.473
93978W        W59139  40.220   3.439  10.969
93979W        W59140  41.882   0.169   3.330
93980W        W59141  35.940   9.423  12.066
93981W        W59142   8.265   0.409   2.758
93982W        W59143   1.316  17.365  10.311
93983W        W59144  37.369  21.484   0.869
93984W        W59145  35.666  23.771  11.976
93985W        W59146  11.615  11.519  12.058
93986W        W59147   8.720  40.059  14.748
93987W        W59148  16.624  16.325  11.041
93988W        W59149  41.477   6.367  13.818
93989W        W59150  22.063  41.063  14.403
93990W        W59151  34.562  32.333  12.869
93991W        W59152  16.803  26.416  12.698
93992W        W59153   7.212  31.623  12.267
93993W        W59154   6.855  31.414  14.805
93994W        W59155  23.014  31.073   2.875
93995W        W59156  38.080  15.752   9.930
93996W        W59157   5.005  31.721  12.900
93997W        W59158  35.099  14.554  11.123
93998W        W59159   9.951  26.692  13.082
93999W        W59160  14.252  24.352  11.627
94000W        W59161  33.792  28.157  14.821
94001W        W59162   0.206  23.687  10.593
94002W        W59163   7.413  31.382   2.589
94003W        W59164   3.303  37.653  12.412
94004W        W59165  35.956   6.227   0.321
94005W        W59166  19.797  39.505  12.449
94006W        W59167  30.055  26.548   5.133
94007W        W59168  20.997  20.764   0.906
94008W        W59169  20.078  26.080  14.389
94009W        W59170  23.473  32.846  12.033
94010W        W59171  34.495  17.989   1.834
94011W        W59172  15.110  17.495  12.567
94012W        W59173  36.443  23.629  13.472
94013W        W59174   1.796   9.493  12.822
94014W        W59175  41.802  35.625  12.457
94015W        W59176  37.246   4.080   3.359
94016W        W59177  17.743  24.783  10.538
94017W        W59178  13.483  32.007   4.945
94018W        W59179  32.855   1.574   2.738
94019W        W59180   1.192  10.888   4.649
94020W        W59181  26.889  13.773   1.983
94021W        W59182  19.195  29.469  12.420
94022W        W59183  38.591  36.704  13.853
94023W        W59184   9.589  39.403   0.893
94024W        W59185   6.024   7.320  12.529
94025W        W59186  24.722  20.048   0.345
94026W        W59187   0.475  30.851   0.658
94027W        W59188   5.835  29.724   1.678
94028W        W59189  41.980  44.961  11.181
94029W        W59190  18.540  35.796  11.226
94030W        W59191  36.361  16.838   0.844
94031W        W59192  34.031  14.769   4.193
94032W        W59193  17.112  26.895  12.017
94033W        W59194  29.140  40.968  10.157
94034W        W59195  16.615  37.404   4.561
94035W        W59196  42.375  11.110  12.053
94036W        W59197  40.460   1.694  10.777
94037W        W59198  12.876  40.935  13.449
94038W        W59199  21.590   3.340   2.599
94039W        W59200   2.857  37.055  13.002
94040W        W59201  18.760   0.292  12.582
94041W        W59202  34.686  42.697   2.221
94042W        W59203  31.804  43.987  13.952
94043W        W59204  28.034  37.003  13.862
94044W        W59205  19.567   4.563  13.764
94045W        W59206  24.554  36.820   9.910
94046W        W59207  11.569  12.077  14.979
94047W        W59208  34.576  15.565   0.784
94048W        W59209  38.983  15.077  13.874
94049W        W59210   6.819   6.441   0.936
94050W        W59211  11.762  33.900  10.706
94051W        W59212  39.765  13.109   3.339
94052W        W59213   1.355  10.798  11.509
94053W        W59214  17.949   2.327   0.063
94054W        W59215   9.129  39.560   1.492
94055W        W59216  18.776  13.549   3.252
94056W        W59217  30.632  14.320  11.980
94057W        W59218  17.074  41.939   0.404
94058W        W59219  12.762  26.076  12.991
94059W        W59220  37.810  12.373   1.696
94060W        W59221  41.872  24.206  10.858
94061W        W59222  21.486  44.791   1.663
94062W        W59223  36.300  24.127  14.752
94063W        W59224  11.067   1.692   0.903
94064W        W59225  38.248  24.386  10.864
94065W        W59226  20.657  42.338   2.660
94066W        W59227  18.694   8.819   1.507
94067W        W59228  30.900  42.014  11.096
94068W        W59229   5.651   9.312  13.045
94069W        W59230  11.915  26.694   5.008
94070W        W59231  38.344   4.266   1.956
94071W        W59232  43.566   3.171   0.534
94072W        W59233  31.508  44.003   3.214
94073W        W59234   3.676  11.701   1.659
94074W        W59235  40.476   2.259  14.903
94075W        W59236  31.131  15.393   2.646
94076W        W59237  35.175   9.782  14.026
94077W        W59238   0.957   9.213  13.117
94078W        W59239  10.214  41.100   2.373
94079W        W59240  16.322  38.914  12.099
94080W        W59241  37.038   4.514   1.065
94081W        W59242   0.788  32.092  13.986
94082W        W59243  39.923  11.529  11.250
94083W        W59244  38.141  29.409  10.728
94084W        W59245  37.566  38.617  14.538
94085W        W59246  44.764   1.358  13.124
94086W        W59247  14.197  40.797   0.509
94087W        W59248  37.102  16.812   1.319
94088W        W59249  41.791  32.556  12.420
94089W        W59250  18.315   8.823   1.937
94090W        W59251  28.971  32.539  12.517
94091W        W59252  25.602   3.028   3.325
94092W        W59253  13.126  17.995   0.252
94093W        W59254  17.127  20.915  12.403
94094W        W59255  12.797  16.395  11.237
94095W        W59256   9.272  40.347   0.195
94096W        W59257   5.014  29.850  11.627
94097W        W59258  19.296  19.345  11.988
94098W        W59259  38.306  27.101   3.670
94099W        W59260  35.020   6.539  14.464
94100W        W59261  23.928  43.921  12.119
94101W        W59262  11.873  20.914  14.954
94102W        W59263   7.184  15.115   3.842
94103W        W59264  12.161  21.799  13.534
94104W        W59265  29.684   0.738  13.933
94105W        W59266  41.056  38.064   2.259
94106W        W59267  15.519  41.404  14.733
94107W        W59268  30.139  13.234   3.163
94108W        W59269  35.833   2.128  12.076
94109W        W59270  29.977  15.143   3.657
94110W        W59271  29.964  20.191   2.369
94111W        W59272  38.966  29.188   1.413
94112W        W59273  44.915  29.027  10.698
94113W        W59274   0.378   5.688   4.097
94114W        W59275  19.595   5.204   0.013
94115W        W59276   4.257  34.051   4.986
94116W        W59277  40.958  19.511   2.716
94117W        W59278  15.586  42.412   3.210
94118W        W59279  39.490  11.712   3.112
94119W        W59280   1.451  38.225   1.643
94120W        W59281  20.046  36.094   1.300
94121W        W59282  36.890  37.955   2.708
94122W        W59283  14.331  26.517   0.175
94123W        W59284  32.765  26.544  11.105
94124W        W59285  10.235  36.851   2.255
94125W        W59286  36.317  18.913  11.129
94126W        W59287  24.891  17.349   4.026
94127W        W59288   0.377  18.732  13.301
94128W        W59289  43.552  39.853  13.850
94129W        W59290  30.394   8.900   4.095
94130W        W59291  29.064  33.064   0.355
94131W        W59292  43.549  43.404   3.159
94132W        W59293  44.343   3.790   2.159
94133W        W59294  34.422  44.341   1.260
94134W        W59295  34.059  28.461   2.597
94135W        W59296  19.288   4.491   2.879
94136W        W59297  32.827  44.297   3.162
94137W        W59298   4.237   8.676  13.336
94138W        W59299  24.371  24.911   0.448
94139W        W59300   6.765  34.435   0.930
94140W        W59301  14.845  17.969   4.659
94141W        W59302  22.275  14.712   4.017
94142W        W59303  42.749  23.122   1.328
94143W        W59304  29.693   2.965  11.719
94144W        W59305  20.615  18.749  14.810
94145W        W59306  27.125  14.086   0.903
94146W        W59307  42.101  39.362  11.530
94147W        W59308  32.817  18.658  13.372
94148W        W59309  17.625  24.174  10.563
94149W        W59310  10.228   4.275   0.557
94150W        W59311  26.709   9.828  13.006
94151W        W59312   7.752   3.736  10.208
94152W        W59313   0.957  21.328  14.529
94153W        W59314  38.966  33.814  12.430
94154W        W59315  18.599   8.567   3.221
94155W        W59316  12.740   0.515   1.032
94156W        W59317  23.575  14.277  14.090
94157W        W59318  43.758   1.902  13.128
94158W        W59319  33.912  28.730  12.457
94159W        W59320  13.254  40.579  12.093
94160W        W59321  22.352  24.649  12.502
94161W        W59322  32.586  34.905   3.688
94162W        W59323  29.230  17.700   3.217
94163W        W59324  31.521  43.994  12.101
94164W        W59325   2.906   6.233  12.446
94165W        W59326  18.754  22.906   4.242
94166W        W59327  12.196  26.482   3.228
94167W        W59328  35.498   2.951   1.453
94168W        W59329  29.516  29.169   0.469
94169W        W59330  15.270   7.387  11.565
94170W        W59331  34.127  14.629   1.641
94171W        W59332  28.878   2.880   1.679
94172W        W59333  19.699  24.789  11.602
94173W        W59334   3.719  30.102   4.894
94174W        W59335  30.039  16.705  12.930
94175W        W59336  31.211  39.515   5.006
94176W        W59337  11.225   2.207   4.514
94177W        W59338  42.839  26.059  10.742
94178W        W59339  31.050  35.520   0.276
94179W        W59340  43.505  32.749  13.985
94180W        W59341  14.520  29.517  11.178
94181W        W59342  42.289  10.123   3.770
94182W        W59343  10.974  22.551  11.555
94183W        W59344  41.419  32.429   0.518
94184W        W59345  23.721  27.934  14.167
94185W        W59346  35.500  19.132  13.604
94186W        W59347  12.951   1.411   1.291
94187W        W59348   4.262  39.258   2.518
94188W        W59349  13.707  43.475   3.647
94189W        W59350   7.309  43.976  14.540
94190W        W59351  43.433   1.548  11.519
94191W        W59352  16.097  24.166   1.719
94192W        W59353   4.218  10.141   1.405
94193W        W59354  34.926  10.378   5.282
94194W        W59355   8.860  33.541   0.665
94195W        W59356   3.182  34.257   4.197
94196W        W59357  35.841  43.788   2.287
94197W        W59358  19.811  37.473   1.714
94198W        W59359  14.863  19.888  11.461
94199W        W59360   9.802  14.756   2.230
94200W        W59361  17.507  13.573   3.751
94201W        W59362  15.679  29.982   2.628
94202W        W59363  24.363  26.386  12.422
94203W        W59364  43.285  15.191  14.984
94204W        W59365  32.412   8.306   4.674
94205W        W59366  35.324  41.526  12.514
94206W        W59367  44.782  35.650   1.945
94207W        W59368  12.124  36.313  11.850
94208W        W59369   5.639  12.019   0.483
94209W        W59370  37.774  41.373   2.565
94210W        W59371  40.263   4.367   1.785
94211W        W59372  32.176  21.764  11.790
94212W        W59373   6.749   3.165  14.337
94213W        W59374  24.226  29.159   4.997
94214W        W59375   5.755  21.745   4.299
94215W        W59376  11.416  31.640  11.186
94216W        W59377  19.104  35.829  11.086
94217W        W59378  43.574   3.408   0.062
94218W        W59379  40.393   3.063   2.885
94219W        W59380  12.097  18.252   3.766
94220W        W59381  18.776  20.566  12.543
94221W        W59382  16.282  17.238   4.577
94222W        W59383  40.632  12.298   1.400
94223W        W59384  39.432  31.601   1.478
94224W        W59385  39.840  41.995  14.357
94225W        W59386  18.486   6.884  10.658
94226W        W59387  22.240  26.656   1.727
94227W        W59388  44.524  16.129   0.405
94228W        W59389  15.309  28.981   3.228
94229W        W59390   8.814  18.008   2.223
94230W        W59391  35.377  25.408   1.793
94231W        W59392  14.093   8.572  12.516
94232W        W59393   9.313   3.460  14.716
94233W        W59394  29.106  16.188  13.567
94234W        W59395   1.535  27.263   3.605
94235W        W59396  33.678  35.351   0.321
94236W        W59397  30.273  24.994   1.800
94237W        W59398  11.851  44.873  13.568
94238W        W59399  15.742  27.486  12.158
94239W        W59400   3.185  27.537  14.528
94240W        W59401  44.106   5.869   1.936
94241W        W59402  15.237  17.283  10.396
94242W        W59403   5.657  17.493   2.135
94243W        W59404  15.781  38.068   2.407
94244W        W59405  39.631  11.938  11.169
94245W        W59406  36.528   1.189   0.372
94246W        W59407  13.924  44.938   4.792
94247W        W59408  12.066  27.688   3.742
94248W        W59409  20.409  37.454   0.182
94249W        W59410  10.195   9.115   1.788
94250W        W59411  43.526  29.793   2.845
94251W        W59412  34.433  26.942   0.051
94252W        W59413  12.666  18.353   1.886
94253W        W59414  21.012  32.072   2.753
94254W        W59415  28.063  44.373   1.684
94255W        W59416  22.442   5.174   4.513
94256W        W59417  33.803   9.241   0.445
94257W        W59418  41.376  12.235   3.628
94258W        W59419  22.737  40.666   3.333
94259W        W59420   2.766  23.699  14.351
94260W        W59421   7.324  26.899  14.563
94261W        W59422  38.625  42.073   3.782
94262W        W59423  20.495  29.885   3.295
94263W        W59424  29.676  32.094  13.165
94264W        W59425   6.206  11.422   3.778
94265W        W59426  43.376   5.812   2.301
94266W        W59427   4.381  40.326  12.416
94267W        W59428  43.086  43.220   2.899
94268W        W59429  43.507  27.492  12.118
94269W        W59430  27.033  27.916  13.005
94270W        W59431  22.023  16.430   2.553
94271W        W59432  20.176  43.937  14.764
94272W        W59433   3.902   2.917  10.855
94273W        W59434  35.455  14.964   3.383
94274W        W59435  32.664   8.829   4.115
94275W        W59436  14.333  37.629  12.479
94276W        W59437  35.629  44.703  13.515
94277W        W59438  11.328  28.287  13.161
94278W        W59439  42.320   2.419  12.030
94279W        W59440  37.470  20.111   0.272
94280W        W59441  13.281  35.535  12.135
94281W        W59442  43.268  17.048   4.980
94282W        W59443  29.063  16.871  11.603
94283W        W59444  16.721   7.226   3.862
94284W        W59445   5.190  27.706   4.313
94285W        W59446  35.090  22.166  12.886
94286W        W59447   4.743  28.153   0.713
94287W        W59448   6.357  43.317  13.456
94288W        W59449  37.793  16.250  14.834
94289W        W59450  26.103  41.532   3.221
94290W        W59451  37.493  35.629  14.695
94291W        W59452  17.225  29.400   3.260
94292W        W59453  40.505  43.747   3.258
94293W        W59454  40.010  33.347   4.270
94294W        W59455   4.584  28.440   1.863
94295W        W59456   7.884  11.588   4.090
94296W        W59457   4.642  33.040   3.666
94297W        W59458  27.861  11.638   1.355
94298W        W59459  21.623   1.870   0.398
94299W        W59460  43.838  20.460   1.452
94300W        W59461   8.307  26.976  13.443
94301W        W59462  37.611  25.609  11.834
94302W        W59463   8.166  25.119   2.230
94303W        W59464  14.810  18.968   3.198
94304W        W59465  34.288  34.039  12.416
94305W        W59466  21.184  37.438  14.796
94306W        W59467  39.954  15.674  11.499
94307W        W59468  21.871  41.823  12.321
94308W        W59469  31.927  28.146   1.364
94309W        W59470  38.105  42.231   0.330
94310W        W59471  11.138  33.838  14.821
94311W        W59472  30.921  28.654  14.955
94312W        W59473  11.786  23.640  13.585
94313W        W59474  29.038  14.720   2.762
94314W        W59475   0.487   4.019  13.939
94315W        W59476  33.837  30.453  12.310
94316W        W59477  23.985  14.571  13.966
94317W        W59478  33.459  17.094  14.701
94318W        W59479  13.317  26.063   3.255
94319W        W59480   6.130   7.275  14.794
94320W        W59481  10.777  31.110  11.745
94321W        W59482  31.350  40.495   2.444
94322W        W59483  12.365  27.187  14.996
94323W        W59484  30.878  22.094  14.523
94324W        W59485  11.683  26.256  12.397
94325W        W59486  39.450  43.353  11.389
94326W        W59487   1.983  21.578   0.317
94327W        W59488  38.749  38.856   2.445
94328W        W59489   0.288   4.989  14.855
94329W        W59490  23.072  30.823   2.076
94330W        W59491  26.063   9.077   4.169
94331W        W59492   8.643  36.396  11.537
94332W        W59493  28.162  27.954  11.571
94333W        W59494  30.849  17.765  11.637
94334W        W59495  24.132   2.713   1.711
94335W        W59496  12.926   4.690  13.770
94336W        W59497  10.576  19.341   0.557
94337W        W59498   3.322   0.365  14.809
94338W        W59499  18.436  14.985   4.974
94339W        W59500  17.677  11.267   3.746
94340W        W59501  44.909  33.100  10.838
94341W        W59502  42.619  43.764   2.256
94342W        W59503  22.761   7.820  13.018
94343W        W59504  20.153  39.988  14.544
94344W        W59505  21.110  14.506  11.915
94345W        W59506  15.787  10.278  11.651
94346W        W59507  19.200  41.739   1.294
94347W        W59508   8.374   2.284   1.334
94348W        W59509  20.235  40.103  12.835
94349W        W59510  15.197  30.019   4.342
94350W        W59511   5.010   7.153   3.267
94351W        W59512  34.088  22.018   3.665
94352W        W59513  34.132   6.883  12.581
94353W        W59514  37.085  17.681   4.750
94354W        W59515  20.763   6.798   0.799
94355W        W59516  15.339  16.134  13.080
94356W        W59517  24.217   4.277  14.359
94357W        W59518  17.012  30.019   2.431
94358W        W59519  21.651  35.467  12.974
94359W        W59520  42.251  35.580   2.626
94360W        W59521   1.678  30.739  13.772
94361W        W59522  37.710  21.201   0.485
94362W        W59523  20.583  34.870  11.448
94363W        W59524  28.038  31.056  13.849
94364W        W59525  10.244  22.970   0.383
94365W        W59526   2.287   3.128  11.909
94366W        W59527  27.165  34.030  14.821
94367W        W59528  19.701  24.732   0.334
94368W        W59529  15.780  31.450   4.189
94369W        W59530  16.071  10.355   3.686
94370W        W59531   5.268  18.476   3.198
94371W        W59532  24.089   9.577   1.800
94372W        W59533   2.459  20.164  13.009
94373W        W59534   4.139  36.452  12.466
94374W        W59535  12.252  20.534  12.088
94375W        W59536   9.616  44.333  11.088
94376W        W59537  37.975  32.382  12.599
94377W        W59538  28.079  10.853  13.398
94378W        W59539  35.407  21.937  12.556
94379W        W59540  23.598  38.427   0.193
94380W        W59541  38.232  30.729   2.771
94381W        W59542  35.537  13.045  13.985
94382W        W59543  18.171  28.166   2.844
94383W        W59544  44.495   8.318   4.099
94384W        W59545  15.696  17.889  10.173
94385W        W59546  14.102  38.525  12.388
94386W        W59547  33.167   7.821   0.193
94387W        W59548  22.272  44.468   1.927
94388W        W59549  31.645  15.158  13.937
94389W        W59550   8.766  44.887   4.702
94390W        W59551  34.927  22.065   0.284
94391W        W59552  37.019  17.510  14.794
94392W        W59553  21.450  19.642   2.163
94393W        W59554  22.319  11.189   1.858
94394W        W59555  36.538  38.268   0.457
94395W        W59556  41.828  18.683  14.504
94396W        W59557  32.135  42.236  12.054
94397W        W59558  36.828  12.675  14.003
94398W        W59559  13.543   9.787  13.133
94399W        W59560  11.234  21.647   3.380
94400W        W59561  16.562  20.536  12.998
94401W        W59562   8.731  34.178  12.553
94402W        W59563   9.784  30.419   1.378
94403W        W59564  31.942   4.721   0.374
94404W        W59565  24.943  19.243   0.916
94405W        W59566  27.005  24.687  11.030
94406W        W59567  43.414  25.445  13.979
94407W        W59568  12.280  34.925  12.939
94408W        W59569  28.700  31.968   4.214
94409W        W59570  38.929  14.640   2.474
94410W        W59571  30.219   7.789   0.418
94411W        W59572  11.782  33.532   4.055
94412W        W59573  17.187  22.588  10.708
94413W        W59574  42.806  39.347   1.931
94414W        W59575  18.732   9.737  14.999
94415W        W59576  21.074   6.151  14.745
94416W        W59577  34.012   8.918   2.280
94417W        W59578  26.244  34.518   1.716
94418W        W59579   1.709  14.633   4.634
94419W        W59580   3.387  27.959   1.488
94420W        W59581  24.648  25.280  12.963
94421W        W59582  26.759  17.213  14.854
94422W        W59583  13.705  13.690  13.170
94423W        W59584  31.433   3.760   3.953
94424W        W59585  29.035  26.998  14.084
94425W        W59586  25.877  25.616  11.630
94426W        W59587  17.330  25.162   0.272
94427W        W59588  33.185  21.672   2.688
94428W        W59589  17.732   1.894   2.362
94429W        W59590   7.246   9.410   1.309
94430W        W59591  18.111   9.210   0.318
94431W        W59592  12.186  21.267   4.453
94432W        W59593  19.016  14.715  13.343
94433W        W59594  24.862   6.695  12.614
94434W        W59595   7.351  13.213   3.182
94435W        W59596  26.927   8.161  13.416
94436W        W59597  32.623  11.538   4.591
94437W        W59598   0.231  38.132  14.001
94438W        W59599   7.784   7.282   3.619
94439W        W59600  16.002  19.167   2.082
94440W        W59601  24.127  29.634   1.899
94441W        W59602  10.708  23.254   1.341
94442W        W59603  32.532   4.399  12.603
94443W        W59604  25.147  41.970  11.967
94444W        W59605  34.560  19.293  13.374
94445W        W59606  28.208  28.248   4.516
94446W        W59607  12.691  41.279  11.245
94447W        W59608  31.985  27.732   0.528
94448W        W59609   1.023  15.447  14.321
94449W        W59610   2.976  29.560   4.607
94450W        W59611  14.078  16.599   2.614
94451W        W59612   2.601  42.611   1.411
94452W        W59613  25.120  29.175   4.877
94453W        W59614   7.974   1.985   4.681
94454W        W59615  15.061  12.191   4.700
94455W        W59616   6.405  43.946  12.141
94456W        W59617  13.022  30.347   0.503
94457W        W59618  22.982  20.582   3.300
94458W        W59619  41.018   1.791   1.832
94459W        W59620  22.517  43.794   3.700
94460W        W59621  20.203  25.896   1.327
94461W        W59622  24.610  31.924  12.015
94462W        W59623  13.135   0.980   4.947
94463W        W59624   8.465  32.260  14.348
94464W        W59625  24.427  27.991   3.030
94465W        W59626  17.159  26.097  12.931
94466W        W59627  36.467   4.663   0.391
94467W        W59628  32.301  18.028   3.340
94468W        W59629  26.980  39.618  14.807
94469W        W59630  21.040  29.994  10.978
94470W        W59631  29.883   9.510  11.773
94471W        W59632  13.372  34.985  13.454
94472W        W59633  26.551  30.040   4.088
94473W        W59634  33.806   9.640   3.432
94474W        W59635  34.053   7.497   3.264
94475W        W59636  30.957  37.535   2.694
94476W        W59637  36.370  22.426   3.194
94477W        W59638  39.657   4.880  11.596
94478W        W59639  34.612  21.996   0.689
94479W        W59640  31.151  18.464  11.116
94480W        W59641  39.280  35.925  12.111
94481W        W59642  14.962  17.483  13.854
94482W        W59643  17.255   4.495   3.140
94483W        W59644  29.507  14.056  11.577
94484W        W59645  26.730  17.815  11.130
94485W        W59646  40.853   8.654  12.061
94486W        W59647  18.708  28.087   3.066
94487W        W59648  21.560   5.758  13.870
94488W        W59649   2.017  22.901  12.066
94489W        W59650  30.061  32.048  12.339
94490W        W59651  13.686  41.409   2.929
94491W        W59652  21.087  34.735  12.517
94492W        W59653  41.944  37.513  12.578
94493W        W59654  43.455  30.031   0.462
94494W        W59655   8.554  16.645   4.931
94495W        W59656  21.373  25.156   3.839
94496W        W59657  26.739  44.195  14.355
94497W        W59658  19.750   4.230   4.134
94498W        W59659  11.233  35.941   0.902
94499W        W59660   8.922  14.790   1.859
94500W        W59661  10.896  23.857  14.506
94501W        W59662   9.720   9.703  14.897
94502W        W59663  44.569  15.247   0.272
94503W        W59664   4.214  11.110   3.648
94504W        W59665  29.834  44.033  11.067
94505W        W59666   7.839  30.043   0.476
94506W        W59667  18.936  32.493  13.840
94507W        W59668  29.964  40.796  14.099
94508W        W59669  15.998  41.416   1.700
94509W        W59670  40.331  28.694   3.417
94510W        W59671   6.946  37.252   2.770
94511W        W59672  10.189  20.585   3.202
94512W        W59673   8.415  30.640  12.948
94513W        W59674  33.933  22.182   2.274
94514W        W59675  37.015  19.425   1.879
94515W        W59676   2.225   7.306   2.756
94516W        W59677  11.181  16.351   3.246
94517W        W59678  25.974  34.569  11.512
94518W        W59679  42.392  39.305  10.537
94519W        W59680  23.966   9.773   1.299
94520W        W59681  30.229   0.237  11.369
94521W        W59682  44.375   1.331  14.732
94522W        W59683   7.260   7.965  12.394
94523W        W59684   8.717  40.987  14.289
94524W        W59685   3.204  20.486  11.550
94525W        W59686   8.138  38.049  13.289
94526W        W59687  24.431   8.048   4.664
94527W        W59688  20.555   0.205  13.849
94528W        W59689  29.819  18.484   0.042
94529W        W59690  25.608   7.198  11.274
94530W        W59691  36.561  28.544   0.066
94531W        W59692  11.841  19.531  14.831
94532W        W59693   5.646  21.906   2.892
94533W        W59694  11.139  22.724  12.919
94534W        W59695   8.373  16.516  14.344
94535W        W59696  11.088   3.793  12.905
94536W        W59697  18.682  22.259   1.804
94537W        W59698  33.881   3.205   3.674
94538W        W59699  16.322  12.254   4.843
94539W        W59700  23.911  20.162   0.700
94540W        W59701  22.502  21.615   1.817
94541W        W59702  23.117  21.517  14.580
94542W        W59703  23.084   3.737   0.386
94543W        W59704  35.055   8.243   3.112
94544W        W59705  10.416   2.480  13.468
94545W        W59706  18.783  17.365  14.857
94546W        W59707   1.945   8.397  11.428
94547W        W59708  14.267  22.054   4.126
94548W        W59709  44.911  37.392  14.250
94549W        W59710  18.968  11.353  12.952
94550W        W59711  10.655  13.175  14.474
94551W        W59712  19.997  27.602  13.972
94552W        W59713  41.245  44.760   4.049
94553W        W59714  25.568  25.889   1.707
94554W        W59715  41.950  27.470  11.520
94555W        W59716  12.886  37.297  11.585
94556W        W59717  28.661   1.982  10.656
94557W        W59718   6.570  32.609  14.370
94558W        W59719  43.099  27.195  12.078
94559W        W59720  16.171  28.045  11.628
94560W        W59721  24.620  18.176   1.278
94561W        W59722  14.794  13.032  14.810
94562W        W59723  43.047  44.824  14.243
94563W        W59724  21.116   6.274  13.050
94564W        W59725  19.164  29.882  14.465
94565W        W59726   5.268  34.853   4.700
94566W        W59727   4.707  24.051  14.751
94567W        W59728   5.719  24.440   4.589
94568W        W59729   3.050  25.793   5.513
94569W        W59730  42.939  10.995   2.608
94570W        W59731  11.754  11.562  13.341
94571W        W59732   6.957   4.437   2.203
94572W        W59733  18.718  35.382  10.948
94573W        W59734  31.928  41.083   4.070
94574W        W59735  11.595  23.782   4.571
94575W        W59736  41.263  19.713   4.163
94576W        W59737  40.278  41.952   3.048
94577W        W59738  32.049  32.581  12.969
94578W        W59739   0.210  21.177  12.161
94579W        W59740   7.289  19.721  14.935
94580W        W59741  17.260  27.987   1.630
94581W        W59742  21.241  41.456   0.255
94582W        W59743  33.532   3.793  10.411
94583W        W59744  14.168  43.346  14.576
94584W        W59745   3.512  16.332   0.357
94585W        W59746  19.300  44.761  11.562
94586W        W59747  16.412  21.618  14.926
94587W        W59748  31.499  19.701   0.439
94588W        W59749  17.216   5.303  10.451
94589W        W59750  24.327  30.575   1.929
94590W        W59751  31.611  14.734   4.342
94591W        W59752  23.100  39.375   4.659
94592W        W59753  43.863   1.845  12.619
94593W        W59754  34.855  44.386   2.863
94594W        W59755  32.618  24.017  10.375
94595W        W59756  37.666  38.608  10.000
94596W        W59757   6.472  28.249   2.595
94597W        W59758  12.432  44.963   0.286
94598W        W59759  44.257  34.137  10.992
94599W        W59760  19.212   5.715  14.017
94600W        W59761   1.811   6.751   0.272
94601W        W59762  19.042   2.184   3.346
94602W        W59763  25.062  18.555  11.911
94603W        W59764  13.236  37.122   1.965
94604W        W59765  23.497  34.907  11.180
94605W        W59766  42.411  37.518  13.401
94606W        W59767  38.905  10.304   0.273
94607W        W59768  41.316  10.511  13.374
94608W        W59769  36.395  32.893  11.551
94609W        W59770  18.570  11.876  13.355
94610W        W59771   3.395   3.767  11.579
94611W        W59772   5.348   5.197  12.923
94612W        W59773  32.414  16.233   2.595
94613W        W59774  42.594   7.220   3.128
94614W        W59775  12.535  13.856   2.223
94615W        W59776  17.221  37.074  13.245
94616W        W59777  17.499  44.847  11.965
94617W        W59778   2.270  20.278   2.533
94618W        W59779  29.398   1.508  14.561
94619W        W59780  37.356  23.180  12.456
94620W        W59781   5.276  18.815   1.794
94621W        W59782  43.816  11.431   0.811
94622W        W59783   4.685  24.556   3.736
94623W        W59784  44.421  24.324   3.138
94624W        W59785  33.512  44.797   1.796
94625W        W59786   9.900  12.688  11.783
94626W        W59787  16.209   5.641   3.246
94627W        W59788  42.278  15.812  12.232
94628W        W59789  40.125  28.433  12.058
94629W        W59790  28.197  41.028   3.170
94630W        W59791   4.022   7.756   1.321
94631W        W59792  41.704  11.419  13.048
94632W        W59793  22.767  11.213  14.785
94633W        W59794  28.499  28.537   2.339
94634W        W59795  40.891  18.541   4.244
94635W        W59796  14.549   1.433  12.031
94636W        W59797  33.167  43.963  13.535
94637W        W59798  31.654  29.612  11.525
94638W        W59799  19.169  29.728  14.973
94639W        W59800  15.651  17.194  12.678
94640W        W59801  18.482   4.790   2.257
94641W        W59802  31.022  28.411   0.447
94642W        W59803  19.589  20.914  13.845
94643W        W59804  23.669  30.616  14.849
94644W        W59805  33.968  36.245   2.370
94645W        W59806   3.996  31.655   3.863
94646W        W59807   5.938  20.591   1.380
94647W        W59808  29.392   3.800  13.506
94648W        W59809  34.839  24.552   0.848
94649W        W59810  44.805  27.756   1.857
94650W        W59811   4.478  15.801   1.806
94651W        W59812  30.208   7.236   3.346
94652W        W59813   5.728  20.323  14.957
94653W        W59814  28.963  43.550   2.188
94654W        W59815  16.734  29.409   2.949
94655W        W59816  33.119  36.482   2.140
94656W        W59817  21.152  20.281  11.050
94657W        W59818   1.532  22.046  12.596
94658W        W59819  25.106  28.630   4.691
94659W        W59820   2.481  33.706  14.353
94660W        W59821  11.915  27.641   4.734
94661W        W59822  21.094  18.602   1.397
94662W        W59823  27.002  23.037   2.686
94663W        W59824  24.428  42.140   9.918
94664W        W59825  16.589  31.162  14.401
94665W        W59826  27.629  43.560   1.651
94666W        W59827   1.198  12.649   1.193
94667W        W59828  44.825  35.951   2.372
94668W        W59829  40.290  13.326   4.145
94669W        W59830   5.868  32.701   1.336
94670W        W59831   2.268  29.601   2.277
94671W        W59832   7.792   8.254   3.096
94672W        W59833  21.771  38.497  11.895
94673W        W59834  35.770  25.506  13.599
94674W        W59835  10.196  41.861   0.743
94675W        W59836  30.461  42.304   0.756
94676W        W59837   2.859  31.457  14.731
94677W        W59838  31.185  14.037  11.143
94678W        W59839  22.095   1.082   4.182
94679W        W59840  26.770  12.201   2.780
94680W        W59841  16.886   5.376  12.867
94681W        W59842   3.302  30.631   0.747
94682W        W59843  20.758  44.106   0.518
94683W        W59844  41.424  41.447  13.365
94684W        W59845  19.118  44.271  13.494
94685W        W59846   9.260  16.144  12.089
94686W        W59847  23.441   2.121  11.609
94687W        W59848  34.945  25.089   4.740
94688W        W59849   1.850  39.459   0.893
94689W        W59850   2.564  41.146   0.251
94690W        W59851  15.758   0.526   1.011
94691W        W59852  18.045   0.815   2.766
94692W        W59853  29.517   4.743   4.852
94693W        W59854  24.701  34.174  14.362
94694W        W59855  23.087  34.421   1.463
94695W        W59856  13.617  43.884  13.391
94696W        W59857  33.445  38.010   0.526
94697W        W59858  42.697  26.221   4.543
94698W        W59859  40.061   7.177   1.452
94699W        W59860  25.128  35.042   1.286
94700W        W59861  40.737  17.632  10.909
94701W        W59862  27.462  19.153  14.980
94702W        W59863   2.347  12.852   0.915
94703W        W59864  32.673   9.268  10.545
94704W        W59865  10.350  13.250  10.635
94705W        W59866  30.455   3.311  10.787
94706W        W59867  40.848   3.818   0.371
94707W        W59868  29.169  37.354   0.956
94708W        W59869  25.688  14.580   0.830
94709W        W59870  33.329  41.382  10.733
94710W        W59871   2.719  32.080  12.532
94711W        W59872  27.189  32.462  13.007
94712W        W59873  14.378  20.379  13.811
94713W        W59874  15.224   2.903  13.197
94714W        W59875  32.906   0.194  13.770
94715W        W59876  20.477   3.928   1.386
94716W        W59877   5.463  16.178  10.584
94717W        W59878  12.712  39.927   4.447
94718W        W59879  11.481   0.138  12.317
94719W        W59880   5.482  22.725   1.216
94720W        W59881  32.918  40.721   4.332
94721W        W59882  14.685  40.577  14.693
94722W        W59883   1.876   4.502  12.002
94723W        W59884  33.503  19.668  11.653
94724W        W59885  32.726  22.084  12.463
94725W        W59886  14.096  42.391  13.451
94726W        W59887   9.050  12.881   4.170
94727W        W59888  43.783  32.943  10.528
94728W        W59889  27.262  29.910  11.563
94729W        W59890  11.543  35.830   4.378
94730W        W59891  11.117  22.488   3.985
94731W        W59892  35.020  14.418   4.223
94732W        W59893  41.848  43.485  14.480
94733W        W59894   4.554   1.526   0.464
94734W        W59895   9.296  17.569  12.042
94735W        W59896  23.237   5.917  12.568
94736W        W59897  42.014  24.449   2.870
94737W        W59898  30.125  21.446  11.997
94738W        W59899  17.412   5.857  14.920
94739W        W59900  10.339  23.717  12.160
94740W        W59901  10.740   8.671   4.276
94741W        W59902  43.702   6.064   0.858
94742W        W59903  35.489  42.516   0.837
94743W        W59904  24.907   5.976  11.592
94744W        W59905  28.101   9.117   0.848
94745W        W59906  29.847  39.474   2.886
94746W        W59907  40.699   0.800  11.135
94747W        W59908  17.369   9.195  12.501
94748W        W59909   6.305   7.862   4.039
94749W        W59910  38.872  19.672   5.206
94750W        W59911  25.379  23.188   0.434
94751W        W59912  28.165  43.350   0.907
94752W        W59913  31.571   8.540   2.557
94753W        W59914  14.226  25.272  10.721
94754W        W59915  17.646   7.679   4.352
94755W        W59916   2.780  16.519   4.312
94756W        W59917  37.429  39.122  10.644
94757W        W59918  16.395  26.577   4.460
94758W        W59919  40.576  12.226   2.237
94759W        W59920   2.021   2.854   0.195
94760W        W59921  24.295  25.959  11.839
94761W        W59922  32.987  29.994   1.626
94762W        W59923   2.062  26.477  10.055
94763W        W59924  26.896  22.328  10.084
94764W        W59925  19.367  15.686   3.710
94765W        W59926  38.370  13.223   1.749
94766W        W59927  42.068  31.155  14.345
94767W        W59928  18.797  37.512  13.219
94768W        W59929  17.232  19.210   0.644
94769W        W59930   7.061  34.001   3.148
94770W        W59931   3.605  14.852  11.147
94771W        W59932  44.068  44.775  10.002
94772W        W59933  43.953  39.970  10.732
94773W        W59934  33.895  14.738  11.243
94774W        W59935  33.500  15.290   4.428
94775W        W59936  25.129  42.688   4.987
94776W        W59937   4.120  42.456   0.450
94777W        W59938   5.246  20.634   4.153
94778W        W59939  26.194  23.437   9.806
94779W        W59940  43.769  21.350   3.743
94780W        W59941  42.876  25.986   3.244
94781W        W59942  44.017  35.226  12.464
94782W        W59943  18.094  20.060   0.238
94783W        W59944  28.077  41.241   2.709
94784W        W59945  30.781  24.558  11.559
94785W        W59946   7.857  31.408  11.950
94786W        W59947   3.211  20.784  11.124
94787W        W59948  21.520  23.242   2.755
94788W        W59949  43.011  12.187   0.928
94789W        W59950  11.083   8.676  13.496
94790W        W59951  25.976   0.329   3.811
94791W        W59952  16.334  10.741  11.031
94792W        W59953   1.410  33.558  11.564
94793W        W59954  24.297  39.316  13.991
94794W        W59955  10.658  28.676   0.309
94795W        W59956  26.671   0.081  14.055
94796W        W59957  15.171  28.584  14.500
94797W        W59958   0.381  38.862  11.720
94798W        W59959  13.124   1.357  11.179
94799W        W59960  12.849   7.141  12.967
94800W        W59961  32.392  12.251   4.093
94801W        W59962  32.359  10.232  10.421
94802W        W59963  39.776  10.665  11.612
94803W        W59964  27.504   4.387  13.582
94804W        W59965   3.338  19.390  12.399
94805W        W59966  13.061  25.552  12.503
94806W        W59967  28.462   6.830  11.005
94807W        W59968  15.143  44.584  12.892
94808W        W59969  14.023  13.247  11.080
94809W        W59970  20.127   8.971   1.953
94810W        W59971  20.376   7.299   0.013
94811W        W59972  38.410   1.998   0.270
94812W        W59973  34.469  10.878   0.355
94813W        W59974  29.674  38.828   0.761
94814W        W59975  44.711  41.018  14.879
94815W        W59976   4.000  19.161  14.547
94816W        W59977  28.877  27.630  11.113
94817W        W59978  22.175  26.005   3.550
94818W        W59979   4.245  38.566   0.349
94819W        W59980  11.035  20.939   3.627
94820W        W59981  25.718  23.521   2.703
94821W        W59982   2.938   5.175  14.966
94822W        W59983  31.618  16.302   3.697
94823W        W59984  35.922  20.294   0.076
94824W        W59985  14.763   7.128   2.269
94825W        W59986  12.522  31.198   3.217
94826W        W59987  20.183  12.748   0.191
94827W        W59988  43.869   3.379   4.497
94828W        W59989  24.584  27.278  12.651
94829W        W59990  13.658  38.974   2.348
94830W        W59991   1.320  12.065  10.166
94831W        W59992  33.113   0.178   0.700
94832W        W59993  21.935  34.900  11.651
94833W        W59994   2.704   3.404  12.630
94834W        W59995  40.907  21.068   2.735
94835W        W59996  20.098  22.657  10.119
94836W        W59997  14.194  38.366   0.144
94837W        W59998  38.766  44.883  12.093
94838W        W59999  19.120  30.560   0.600
94839W        W60000  30.074   5.700  12.481
94840W        W60001  29.496  19.220  14.405
94841W        W60002   8.685   8.268  11.674
94842W        W60003  35.473  27.008   2.943
94843W        W60004  22.406  16.616  14.889
94844W        W60005   0.035  34.992  11.461
94845W        W60006   5.777   6.178   3.767
94846W        W60007  31.827  12.759  12.992
94847W        W60008  11.652   1.412  12.078
94848W        W60009  41.456  35.867   4.236
94849W        W60010  29.125  41.023   2.402
94850W        W60011  42.740  28.295   0.899
94851W        W60012  37.885  44.963  12.435
94852W        W60013  25.625  37.420  14.509
94853W        W60014  35.653   0.906   4.053
94854W        W60015   8.419  23.071   2.130
94855W        W60016  21.502  13.374  11.025
94856W        W60017  21.023  25.571   4.565
94857W        W60018   0.940   5.206   1.752
94858W        W60019  13.249   5.421  11.156
94859W        W60020  16.605  28.266  14.864
94860W        W60021  25.958  28.197   3.188
94861W        W60022   7.899   6.719   3.567
94862W        W60023  20.185  12.038   4.589
94863W        W60024  12.615  19.933   3.758
94864W        W60025   6.009   9.758   3.138
94865W        W60026   4.019   4.717  14.521
94866W        W60027  35.094   3.475  12.618
94867W        W60028  20.478  34.029  10.806
94868W        W60029  24.875  27.994   2.011
94869W        W60030  22.604  10.226  11.042
94870W        W60031  22.028  36.462   0.359
94871W        W60032  22.982  41.752   3.607
94872W        W60033  14.708  32.091   3.853
94873W        W60034  26.115  20.198  10.515
94874W        W60035  32.327   4.833  12.882
94875W        W60036   9.618  18.589   4.430
94876W        W60037  34.864  29.146   4.623
94877W        W60038   2.878   6.161   0.868
94878W        W60039  28.085  41.832  14.371
94879W        W60040  19.196   7.795   0.781
94880W        W60041   7.309  20.312  12.111
94881W        W60042   0.936   1.975  13.491
94882W        W60043  29.116  29.998  11.464
94883W        W60044  21.920  41.154   3.820
94884W        W60045  21.522  40.160  13.928
94885W        W60046   9.381   3.404  10.708
94886W        W60047   7.686  23.636  14.464
94887W        W60048   0.828  36.099  11.113
94888W        W60049  44.114  36.503   1.976
94889W        W60050   9.986  44.563   4.094
94890W        W60051  12.271   7.950   4.070
94891W        W60052   4.685  32.843   2.752
94892W        W60053   6.875  11.632  10.710
94893W        W60054  33.997  24.279  10.627
94894W        W60055  38.072  33.773  12.423
94895W        W60056   4.362  11.808  14.314
94896W        W60057   5.195  19.737  10.134
94897W        W60058  11.734  16.130   4.077
94898W        W60059  23.303  38.958   0.444
94899W        W60060  36.907  30.419   0.690
94900W        W60061  35.397  36.396  11.476
94901W        W60062  16.244  29.278  14.893
94902W        W60063  14.590  18.648  11.544
94903W        W60064  42.295  25.091   4.035
94904W        W60065  13.651  29.466   2.825
94905W        W60066  28.184  33.437  11.536
94906W        W60067  29.653   7.470   3.993
94907W        W60068   9.240  35.876   4.991
94908W        W60069  37.577  27.945   0.455
94909W        W60070  30.245  34.518   0.212
94910W        W60071  24.402  43.978  12.460
94911W        W60072  27.312  12.079  11.196
94912W        W60073   2.084  10.843  12.582
94913W        W60074  31.754  26.309   4.981
94914W        W60075  20.237  37.848  12.367
94915W        W60076  28.650  10.493  11.808
94916W        W60077  11.704  12.828  14.545
94917W        W60078  42.932  27.612  14.333
94918W        W60079  12.136  17.820   2.916
94919W        W60080  29.019  24.422   2.614
94920W        W60081  35.906  32.374   3.655
94921W        W60082  18.588  25.129  11.665
94922W        W60083  33.059  43.872   1.045
94923W        W60084  43.512  43.759   1.270
94924W        W60085   7.854  22.680   2.644
94925W        W60086  28.177  16.822  14.415
94926W        W60087  24.766  15.772   0.512
94927W        W60088  35.624  41.483  11.623
94928W        W60089  16.096  16.509  14.898
94929W        W60090  13.723  44.547   2.709
94930W        W60091  13.248  42.370   0.667
94931W        W60092  15.762  10.422  12.176
94932W        W60093  12.117  25.638  14.796
94933W        W60094  17.130  15.689  12.925
94934W        W60095  26.490  16.003   4.607
94935W        W60096  38.640  32.455   1.631
94936W        W60097  27.514  36.622   1.418
94937W        W60098   8.810  13.344  13.276
94938W        W60099  14.785  20.093  13.088
94939W        W60100  13.446  31.423   0.859
94940W        W60101  21.664  29.934   3.673
94941W        W60102  27.526  18.159   2.898
94942W        W60103  28.054  27.335  13.969
94943W        W60104   3.441  12.577   3.189
94944W        W60105  20.073  34.615   2.296
94945W        W60106  37.932  39.739  13.122
94946W        W60107  31.082   4.007  10.740
94947W        W60108  22.354  15.372   4.580
94948W        W60109   2.340  12.848  13.017
94949W        W60110  24.198   0.165   5.003
94950W        W60111  41.747  33.982   4.139
94951W        W60112  41.455  14.735  10.739
94952W        W60113  12.624   4.952   2.318
94953W        W60114  32.655  27.150   0.893
94954W        W60115   2.787  26.642  10.597
94955W        W60116  11.232  31.226   1.812
94956W        W60117  14.552   9.774  12.714
94957W        W60118  23.193  36.518   2.682
94958W        W60119  43.683  30.104  11.625
94959W        W60120  33.077   7.234  10.593
94960W        W60121   7.662  22.117  13.527
94961W        W60122  43.985  25.272   0.791
94962W        W60123  39.356   7.995  11.650
94963W        W60124   1.725   8.431   2.775
94964W        W60125  24.947  19.137   2.417
94965W        W60126  16.849   6.686  14.688
94966W        W60127  12.634   4.761  11.050
94967W        W60128   8.392  26.471  13.457
94968W        W60129  32.985  28.465  10.755
94969W        W60130  43.580  26.405  10.938
94970W        W60131  22.513  28.703   0.904
94971W        W60132   6.784  12.053   1.929
94972W        W60133  38.444  16.778   0.812
94973W        W60134  10.886  24.141   2.418
94974W        W60135  14.274  32.448  14.070
94975W        W60136   6.334  23.995  13.422
94976W        W60137   2.705  27.649  11.646
94977W        W60138   4.358  44.440  11.175
94978W        W60139  34.924  42.324  11.108
94979W        W60140  30.566  16.661  12.828
94980W        W60141  27.675   5.501   3.227
94981W        W60142  35.464  26.985   4.395
94982W        W60143  38.212  16.095   3.657
94983W        W60144  37.640   9.810   4.250
94984W        W60145   2.323   6.148   3.275
94985W        W60146  19.444  27.147   4.064
94986W        W60147   6.818  27.194  12.565
94987W        W60148  37.466  36.603  13.514
94988W        W60149  28.825   9.342   3.923
94989W        W60150   7.360  33.312   3.960
94990W        W60151  29.160  19.274   2.759
94991W        W60152  24.106  19.801  13.090
94992W        W60153   0.285  38.865  13.404
94993W        W60154  13.708  28.111  11.376
94994W        W60155   6.631  39.965   1.927
94995W        W60156  13.822  11.443   2.817
94996W        W60157  43.856  40.329  14.748
94997W        W60158  44.869  17.617  13.335
94998W        W60159  17.152  28.931   0.949
94999W        W60160  35.547  10.278   4.683
95000W        W60161  23.072  20.637  14.931
95001W        W60162  27.180  30.591  13.942
95002W        W60163   8.219  39.513  12.086
95003W        W60164  33.687  20.096   0.509
95004W        W60165   2.069  26.360  14.507
95005W        W60166  31.829  29.821  14.511
95006W        W60167  10.597  39.999   0.433
95007W        W60168  38.783  24.031  14.222
95008W        W60169  30.384   7.119   0.274
95009W        W60170  17.255  26.046  14.874
95010W        W60171  14.543  44.853   3.717
95011W        W60172  34.849  10.212  12.200
95012W        W60173  32.227  37.411  11.625
95013W        W60174  17.785  36.461  14.732
95014W        W60175  23.493  20.002  12.141
95015W        W60176   6.234  24.611  11.899
95016W        W60177   2.484  43.378   3.783
95017W        W60178  30.360  21.691  12.490
95018W        W60179  44.568   6.355  12.372
95019W        W60180  35.672   0.347   3.844
95020W        W60181  13.622  21.440  12.098
95021W        W60182   0.746  17.591   3.105
95022W        W60183  11.804  35.015  13.387
95023W        W60184  12.269   7.425  12.916
95024W        W60185  33.815   6.126   2.205
95025W        W60186  19.720   0.104  11.558
95026W        W60187  11.584   8.800   0.709
95027W        W60188  40.997  43.956   4.401
95028W        W60189  43.817  10.350   0.749
95029W        W60190  18.013   3.196   4.013
95030W        W60191  26.032  26.654   0.798
95031W        W60192  27.513   2.169   0.717
95032W        W60193  31.067   8.704  11.244
95033W        W60194  16.200  40.455  14.046
95034W        W60195  15.121  13.394   2.441
95035W        W60196  44.461   9.105  14.298
95036W        W60197  23.075  27.396   3.088
95037W        W60198   3.555   3.630  12.119
95038W        W60199  21.167  29.495  13.602
95039W        W60200  21.066  22.945  14.869
95040W        W60201  36.543   7.820   2.553
95041W        W60202  15.191  14.326   4.502
95042W        W60203   8.686   2.558   2.938
95043W        W60204  39.383  10.870  11.124
95044W        W60205  16.889  38.182   2.225
95045W        W60206  25.261  14.723   1.802
95046W        W60207  41.870  11.797   4.579
95047W        W60208  26.927   9.397  12.926
95048W        W60209   3.480  19.047   1.761
95049W        W60210  23.207  35.818   3.350
95050W        W60211  20.980   9.882  11.949
95051W        W60212   2.345  40.866  14.830
95052W        W60213  13.721  18.642  14.132
95053W        W60214  15.281  43.830   3.231
95054W        W60215  22.946  18.139   0.474
95055W        W60216   9.273  19.444   3.788
95056W        W60217  36.928  36.816   4.357
95057W        W60218   7.917  44.234  11.948
95058W        W60219  28.511   4.148   2.652
95059W        W60220  27.954  24.261  11.596
95060W        W60221   1.403  15.585   0.270
95061W        W60222  14.786  16.599   1.972
95062W        W60223   0.253  21.152   2.124
95063W        W60224  32.856  14.302  11.845
95064W        W60225  35.540  36.839  12.662
95065W        W60226   5.782  35.272  13.008
95066W        W60227  28.834  32.619   0.212
95067W        W60228   0.811  42.687  12.407
95068W        W60229  31.505  33.495   1.300
95069W        W60230   8.280  17.034   0.657
95070W        W60231  10.601  19.946  13.495
95071W        W60232   2.010   4.186   0.788
95072W        W60233  17.734  17.388  14.015
95073W        W60234   3.407   7.906  11.927
95074W        W60235  31.841  22.587  13.527
95075W        W60236  38.578   1.912   2.262
95076W        W60237   0.968   1.583   4.105
95077W        W60238  42.465   5.821   4.104
95078W        W60239  42.684  11.127  12.924
95079W        W60240  27.009   9.798  14.577
95080W        W60241   2.888  15.539   0.939
95081W        W60242  28.452  29.465  13.446
95082W        W60243  20.680   1.884   1.441
95083W        W60244  30.624   4.496  14.763
95084W        W60245  28.623  34.097   4.165
95085W        W60246  38.047  10.213   4.286
95086W        W60247  23.736  44.756   2.101
95087W        W60248  34.219  25.309  10.733
95088W        W60249  43.890  17.242   0.834
95089W        W60250   1.002  32.890   3.397
95090W        W60251  11.796   2.784   0.023
95091W        W60252   6.896  43.176   0.024
95092W        W60253  10.412  28.655  13.396
95093W        W60254  17.526   0.504   4.081
95094W        W60255   4.524  40.972   2.664
95095W        W60256   6.026  36.610  13.564
95096W        W60257  17.383   6.225  14.204
95097W        W60258  36.844  24.976  13.867
95098W        W60259  32.346  28.106  12.777
95099W        W60260  24.534  36.025   1.344
95100W        W60261  15.592  34.995  11.235
95101W        W60262  36.507  22.028  13.266
95102W        W60263  25.305  13.725   4.958
95103W        W60264  28.126  14.781   2.876
95104W        W60265  29.171  14.196   1.038
95105W        W60266   5.722  38.357   4.885
95106W        W60267  32.528  13.851  10.766
95107W        W60268   6.200  42.014  14.899
95108W        W60269   3.387  17.806  10.994
95109W        W60270  16.241  30.528   5.147
95110W        W60271  37.358  41.964  10.599
95111W        W60272  21.159  15.038  10.991
95112W        W60273   7.895  33.407  11.416
95113W        W60274  36.986  39.791   5.048
95114W        W60275  25.745  11.245  13.312
95115W        W60276  23.188  36.076   2.092
95116W        W60277  37.855  26.055  11.975
95117W        W60278  24.597   9.388   2.216
95118W        W60279  15.080  31.365  14.426
95119W        W60280   7.187  23.900  13.445
95120W        W60281  22.169  17.658   2.286
95121W        W60282  31.092  34.479  12.407
95122W        W60283   0.129   8.147  13.135
95123W        W60284  17.205  33.462   3.610
95124W        W60285  32.926  11.523  11.113
95125W        W60286  26.862   0.573   1.858
95126W        W60287  26.177   4.600  14.656
95127W        W60288   1.449  24.991  11.290
95128W        W60289   6.221  38.828   3.436
95129W        W60290  27.427   0.909   0.479
95130W        W60291   2.277  31.189   3.262
95131W        W60292  20.498  35.209  12.946
95132W        W60293   6.417   6.706  13.492
95133W        W60294  43.071  19.542   2.173
95134W        W60295  13.300  25.523   3.514
95135W        W60296  31.163  42.146  12.080
95136W        W60297  36.278   3.101   3.622
95137W        W60298  29.250   3.286   1.780
95138W        W60299  14.223  33.310  14.301
95139W        W60300   8.640   9.945   4.133
95140W        W60301  38.737   3.785   3.234
95141W        W60302  20.770  33.187   4.246
95142W        W60303  20.250  26.089   1.813
95143W        W60304  11.981  33.541  14.933
95144W        W60305  24.162  36.981  14.517
95145W        W60306  37.517  31.391  10.778
95146W        W60307  25.130   7.388  13.361
95147W        W60308  26.497  23.988  10.663
95148W        W60309  35.871   6.188   3.189
95149W        W60310  32.178  10.200  13.523
95150W        W60311  24.255  10.972   5.277
95151W        W60312  44.486   8.508   2.160
95152W        W60313  23.022  36.489  10.413
95153W        W60314  24.713   2.691  13.911
95154W        W60315  40.857  37.843  12.455
95155W        W60316  43.187   1.720   1.941
95156W        W60317  14.968  17.965   1.766
95157W        W60318  20.338  11.714   1.262
95158W        W60319   0.021  16.556   2.923
95159W        W60320  13.357   6.361  14.920
95160W        W60321  42.736  39.619  14.310
95161W        W60322  29.424  13.677  14.898
95162W        W60323   7.125  40.879   2.864
95163W        W60324  40.043  19.975   1.950
95164W        W60325  35.830  17.378  11.582
95165W        W60326  21.372   7.223   0.325
95166W        W60327  15.640  27.365   2.455
95167W        W60328  11.299  27.091   1.262
95168W        W60329  34.944  19.300   4.565
95169W        W60330  44.853  30.364  12.448
95170W        W60331  31.890  44.061  11.123
95171W        W60332  32.940  25.567   2.283
95172W        W60333  35.068  23.684   1.332
95173W        W60334   2.483  38.818  10.680
95174W        W60335  36.261  35.369   0.678
95175W        W60336   0.641  24.588  14.386
95176W        W60337  44.694  16.808   0.954
95177W        W60338  33.304  42.180   3.667
95178W        W60339  13.597  36.973   1.600
95179W        W60340  30.839  38.367  10.240
95180W        W60341  19.203  25.428   2.780
95181W        W60342  25.149  24.233   1.354
95182W        W60343  35.272  41.300   2.918
95183W        W60344   2.537  36.375   2.689
95184W        W60345  40.818  13.241  13.394
95185W        W60346  31.418  23.103   1.219
95186W        W60347  19.779  42.269  14.874
95187W        W60348   2.812  33.142   4.118
95188W        W60349  11.373  32.209   2.006
95189W        W60350  12.663  22.486  11.961
95190W        W60351  39.113   0.425   3.216
95191W        W60352  24.218  16.577  12.942
95192W        W60353  42.002  23.204   2.648
95193W        W60354  25.165  28.506   1.280
95194W        W60355   7.159  36.285  13.966
95195W        W60356  44.275  40.655  14.728
95196W        W60357   3.306  37.548  10.125
95197W        W60358   5.319  37.344  12.353
95198W        W60359   3.784  41.730  13.811
95199W        W60360   9.358   5.269   0.867
95200W        W60361  20.967   8.201  13.056
95201W        W60362  40.397  18.320  14.836
95202W        W60363  23.120  20.167   3.572
95203W        W60364  37.571  44.847   1.814
95204W        W60365  15.005  37.344  12.034
95205W        W60366  36.481  15.964   4.220
95206W        W60367  44.695  42.482   3.671
95207W        W60368  39.834   1.388   2.129
95208W        W60369  17.552  43.587   3.200
95209W        W60370  18.819  30.634   5.120
95210W        W60371  23.268  14.685   1.865
95211W        W60372  13.996   4.912   0.490
95212W        W60373  19.304  42.494  10.965
95213W        W60374  18.776  39.813   1.870
95214W        W60375  26.335   4.766  12.882
95215W        W60376  27.503  11.480   0.995
95216W        W60377  23.755  19.743   0.452
95217W        W60378  33.709  16.869   1.445
95218W        W60379  27.490   3.227   0.862
95219W        W60380  35.547  17.195   3.662
95220W        W60381  37.979  39.680   1.776
95221W        W60382  28.123  38.144   4.628
95222W        W60383  32.294  24.214  12.844
95223W        W60384  22.043  44.318  11.908
95224W        W60385  14.762  24.139  12.916
95225W        W60386  29.859  42.974  12.013
95226W        W60387  28.504  20.216  13.104
95227W        W60388  34.440  36.574   3.790
95228W        W60389  42.512  36.307  11.919
95229W        W60390  17.614  40.401   1.692
95230W        W60391  15.222  38.080   2.097
95231W        W60392  18.683   2.709   4.640
95232W        W60393  30.083  20.873   1.723
95233W        W60394   9.171  41.155  11.580
95234W        W60395  18.227   5.454   1.355
95235W        W60396   9.682  35.175  12.502
95236W        W60397  24.665  12.838   1.217
95237W        W60398  28.433  18.100  12.934
95238W        W60399  15.339   4.017   3.392
95239W        W60400  39.861  40.943  12.415
95240W        W60401  29.194  14.297  14.423
95241W        W60402  31.046   9.425   0.110
95242W        W60403  31.898  15.366   1.267
95243W        W60404   5.331   8.124   2.703
95244W        W60405  24.960  23.763   2.307
95245W        W60406  37.641  39.282  11.392
95246W        W60407  31.487  36.094   2.828
95247W        W60408  12.376  31.345   3.791
95248W        W60409  40.362  22.257  13.818
95249W        W60410  39.424  29.098   2.883
95250W        W60411  22.956  22.104  12.814
95251W        W60412   6.194  22.840   3.587
95252W        W60413  36.813  34.587   0.776
95253W        W60414   8.510  27.730   4.674
95254W        W60415   6.073  31.388   2.763
95255W        W60416   2.333  12.829   1.892
95256W        W60417  25.960  40.910   2.828
95257W        W60418  43.457   0.196   4.226
95258W        W60419  41.129  32.057   4.605
95259W        W60420  13.797  19.625   3.271
95260W        W60421  37.653  10.098  13.902
95261W        W60422   9.335  33.926   4.188
95262W        W60423  34.820  23.919  12.984
95263W        W60424   2.539  16.737   0.449
95264W        W60425   6.898  42.287  11.682
95265W        W60426  43.472   0.296  11.570
95266W        W60427  15.726  37.461   2.802
95267W        W60428   4.349   8.777   0.030
95268W        W60429  36.287   3.039   2.782
95269W        W60430   4.163  10.681   1.347
95270W        W60431   5.066  39.675  10.740
95271W        W60432  19.510  16.642   0.922
95272W        W60433  21.570   6.778  10.634
95273W        W60434  11.110   9.258  13.926
95274W        W60435   9.528  10.806  12.527
95275W        W60436   3.777  23.144   3.607
95276W        W60437  24.902   1.696  13.652
95277W        W60438  24.261  44.347   1.841
95278W        W60439  15.001   0.497  12.423
95279W        W60440   4.741   2.709  12.817
95280W        W60441  34.544  26.179   1.184
95281W        W60442  10.311  42.453   1.881
95282W        W60443  18.258  41.286   5.063
95283W        W60444   2.630   1.112  11.691
95284W        W60445  27.491  43.135   0.519
95285W        W60446  18.086  42.534  14.697
95286W        W60447   7.971  11.674  10.263
95287W        W60448  33.776  35.884   3.810
95288W        W60449  32.691  22.287   1.789
95289W        W60450  13.693  24.526   2.109
95290W        W60451  18.641   1.909   1.459
95291W        W60452  15.814  40.928   1.527
95292W        W60453  26.210  23.558  11.629
95293W        W60454   3.240  27.522  10.839
95294W        W60455   3.343   6.867   0.646
95295W        W60456  37.427  23.831   9.799
95296W        W60457  26.533  26.411   4.168
95297W        W60458  18.185  15.861   2.598
95298W        W60459  44.262  41.440  12.604
95299W        W60460  34.500  37.630  12.665
95300W        W60461  37.858  22.514   4.657
95301W        W60462  39.184  38.594  14.276
95302W        W60463  22.537  44.456   1.481
95303W        W60464  40.543  19.810  13.601
95304W        W60465   5.392  39.519   4.195
95305W        W60466  13.416  21.732   3.887
95306W        W60467  12.126   5.347   0.552
95307W        W60468  11.353  39.892  13.070
95308W        W60469  36.178   6.986   3.722
95309W        W60470   6.442  28.973  11.495
95310W        W60471  20.495   0.313   2.792
95311W        W60472  29.394  28.829  12.940
95312W        W60473  17.139  22.025  14.026
95313W        W60474   9.280  37.105  10.679
95314W        W60475  36.496   7.365   4.550
95315W        W60476  16.085  33.952   2.207
95316W        W60477  29.615  10.031   4.085
95317W        W60478   5.332  12.400  14.765
95318W        W60479  28.951   0.696  10.806
95319W        W60480  21.896  23.429   4.947
95320W        W60481  42.387  14.167  12.949
95321W        W60482  41.561  23.587   3.208
95322W        W60483  20.212  18.575   3.746
95323W        W60484   2.710  31.495   3.328
95324W        W60485  12.111  12.374   2.433
95325W        W60486  36.058  33.607  14.054
95326W        W60487  12.228   4.043  13.928
95327W        W60488  22.574  10.434   3.068
95328W        W60489  27.855  23.260   1.200
95329W        W60490  30.734  25.087   1.543
95330W        W60491   9.151  23.608   0.764
95331W        W60492   5.138   1.906  12.431
95332W        W60493  40.837  23.733   1.435
95333W        W60494  12.139  27.342   0.913
95334W        W60495  39.289  41.388  11.918
95335W        W60496  25.090   7.207   4.255
95336W        W60497  34.990  33.722   3.714
95337W        W60498  44.161  15.988   2.652
95338W        W60499  38.935   6.788  14.053
95339W        W60500  28.538   9.224   0.008
95340W        W60501  31.414  42.712   9.765
95341W        W60502  25.985  10.253   4.491
95342W        W60503  29.122  37.576  10.445
95343W        W60504  38.616  39.014   3.033
95344W        W60505  41.143  24.994  12.952
95345W        W60506   1.400  26.705   0.243
95346W        W60507  39.980  27.869   0.092
95347W        W60508  25.735   0.502   1.236
95348W        W60509   9.549   1.040   0.319
95349W        W60510  33.512   5.211  13.177
95350W        W60511  36.544  29.935   3.359
95351W        W60512  27.138  15.869   0.877
95352W        W60513  25.591  33.751  14.617
95353W        W60514  32.553   6.466  13.549
95354W        W60515   5.728   5.996   0.004
95355W        W60516  32.125   4.835   3.328
95356W        W60517   4.341  33.285   2.812
95357W        W60518  13.192   4.664   1.070
95358W        W60519  15.169  42.402  14.272
95359W        W60520  41.866  42.168  12.624
95360W        W60521  16.265  31.555   4.128
95361W        W60522  36.454  32.626   3.699
95362W        W60523  25.499   4.530  10.086
95363W        W60524   6.913  25.969   3.140
95364W        W60525  22.956  41.582  11.104
95365W        W60526  43.427   4.893  10.687
95366W        W60527  36.075   6.770  12.578
95367W        W60528  36.007  31.011   3.675
95368W        W60529   5.722  19.159  12.592
95369W        W60530  11.078  22.846  10.312
95370W        W60531  11.764  12.775  10.910
95371W        W60532   5.968   2.955  11.127
95372W        W60533  26.154  33.669   4.625
95373W        W60534  35.228   6.716   3.166
95374W        W60535  17.349   0.904   5.121
95375W        W60536  12.741  23.028   1.771
95376W        W60537   6.425  38.610   0.808
95377W        W60538  20.570   6.892   1.323
95378W        W60539  11.883  26.639  13.451
95379W        W60540  39.575  15.525  12.078
95380W        W60541  13.830  22.142  10.793
95381W        W60542  34.470  29.583  11.487
95382W        W60543  17.046   0.727   0.452
95383W        W60544  25.610  12.589  14.412
95384W        W60545  22.757  31.659   1.722
95385W        W60546  30.410  12.712  13.042
95386W        W60547  12.036   3.742   1.470
95387W        W60548  30.887  26.013   2.483
95388W        W60549  13.864  29.159   4.323
95389W        W60550  35.317   5.288   4.078
95390W        W60551  19.624  11.550   1.699
95391W        W60552  11.988  27.137   4.733
95392W        W60553   0.279   0.378  13.206
95393W        W60554  22.978   0.179  12.506
95394W        W60555  13.813  39.568   3.813
95395W        W60556   0.045  37.992  13.493
95396W        W60557  43.602  17.791   1.088
95397W        W60558  34.600   0.772   2.194
95398W        W60559  32.123  42.376  11.574
95399W        W60560  39.883  31.907  12.025
95400W        W60561  27.531  17.942   4.300
95401W        W60562  39.662  20.792  14.159
95402W        W60563  36.833   3.502  13.854
95403W        W60564  30.732   5.099   4.907
95404W        W60565  20.721  39.408  13.117
95405W        W60566  36.871  11.302   4.076
95406W        W60567  10.400  14.303  10.330
95407W        W60568  11.837  19.215  13.807
95408W        W60569  26.859  18.782  12.485
95409W        W60570   4.891  19.286  13.461
95410W        W60571  15.752  36.647   1.734
95411W        W60572   5.874  32.990  10.741
95412W        W60573  42.799  23.555   3.604
95413W        W60574  26.969  39.874  14.295
95414W        W60575  27.906  25.644   1.138
95415W        W60576  19.261  22.521   0.532
95416W        W60577  41.724  40.446   3.157
95417W        W60578  23.200   4.561  14.371
95418W        W60579  18.771   8.187  10.735
95419W        W60580  34.645   7.202   0.031
95420W        W60581  27.579  12.187  11.628
95421W        W60582  38.284  20.638  13.910
95422W        W60583   2.439  31.885   0.478
95423W        W60584   8.894   6.356  12.598
95424W        W60585  22.920  20.211  11.244
95425W        W60586  38.329  30.922  11.550
95426W        W60587  39.787  33.391   3.389
95427W        W60588  35.974   4.138   1.959
95428W        W60589  18.165  14.149   4.749
95429W        W60590   4.781  21.953   0.771
95430W        W60591  42.753   0.856  13.014
95431W        W60592  21.546  24.745   2.639
95432W        W60593   7.346  24.419   2.265
95433W        W60594   7.622  42.839   0.516
95434W        W60595  19.950   8.358   1.375
95435W        W60596  21.695  25.434  11.119
95436W        W60597   2.806  25.628  11.878
95437W        W60598   5.918  34.046  12.160
95438W        W60599  29.989   8.719   3.140
95439W        W60600   6.238   1.450   4.534
95440W        W60601  43.487  25.585   5.000
95441W        W60602  44.728  37.465  11.360
95442W        W60603  44.974  18.545  14.755
95443W        W60604   2.468  31.472  11.221
95444W        W60605  17.590   7.979  13.008
95445W        W60606  28.900  10.649   5.012
95446W        W60607  19.847  25.724  11.510
95447W        W60608  22.161  15.906   3.155
95448W        W60609  36.032  30.147   0.354
95449W        W60610  38.401  30.672  13.911
95450W        W60611   5.871  14.317   4.203
95451W        W60612  17.926  12.093  10.737
95452W        W60613  34.154  34.660   1.507
95453W        W60614  19.542  14.296  13.831
95454W        W60615   9.237  24.173   1.004
95455W        W60616  41.654  17.619  12.401
95456W        W60617  25.021  31.315   4.053
95457W        W60618   5.175  42.373   4.229
95458W        W60619  37.802   9.334  10.744
95459W        W60620  44.369  11.683   3.296
95460W        W60621  42.879  43.774  11.266
95461W        W60622  19.691  34.486  13.299
95462W        W60623  14.152  39.378   2.143
95463W        W60624  21.091  20.769  14.332
95464W        W60625  13.636  43.778  12.023
95465W        W60626  15.065  26.884   4.538
95466W        W60627  44.354   3.324   2.392
95467W        W60628   8.631  18.700  12.115
95468W        W60629  42.794  15.740  12.474
95469W        W60630  17.656  18.800   2.660
95470W        W60631  12.515   5.006  13.784
95471W        W60632   0.639  10.244   1.672
95472W        W60633  22.666  27.557   3.347
95473W        W60634  33.398  24.804   0.704
95474W        W60635   3.456   6.496  12.563
95475W        W60636   8.406  38.626   0.696
95476W        W60637   4.131  15.773   2.337
95477W        W60638  42.549  14.398  11.974
95478W        W60639  11.650  16.767   2.787
95479W        W60640  34.807  44.836   2.107
95480W        W60641  25.135  23.720  13.377
95481W        W60642   4.726  25.757  14.998
95482W        W60643   5.373  30.269   0.487
95483W        W60644  33.938  32.090  14.367
95484W        W60645  27.222   1.740  13.107
95485W        W60646  35.381  11.722  11.239
95486W        W60647  41.804  23.636  13.975
95487W        W60648   2.389  15.082   2.061
95488W        W60649  44.652  22.094  13.073
95489W        W60650   6.429  39.156   0.797
95490W        W60651  27.926  10.923   2.458
95491W        W60652  27.921  13.209   3.591
95492W        W60653  28.952  19.290  12.060
95493W        W60654  19.749  11.895   3.705
95494W        W60655   5.914  17.113  12.486
95495W        W60656  14.610   6.113   1.452
95496W        W60657  39.734  17.744   4.566
95497W        W60658  29.005  30.234  10.995
95498W        W60659  41.322  29.843   0.974
95499W        W60660  44.981  27.141   0.696
95500W        W60661  16.536  43.353  13.830
95501W        W60662  22.233   2.267  11.105
95502W        W60663   9.843  13.186  12.607
95503W        W60664   3.983  15.493   4.570
95504W        W60665  43.563   2.933  13.275
95505W        W60666  30.547   2.489   4.505
95506W        W60667  10.290  18.204   1.018
95507W        W60668  10.361  18.120  10.597
95508W        W60669   9.450   4.722  11.012
95509W        W60670  27.197  33.018  10.637
95510W        W60671  37.441   0.252  14.921
95511W        W60672   9.419   9.368   3.827
95512W        W60673  19.144  19.727   1.698
95513W        W60674   0.238  11.850   4.624
95514W        W60675  32.553  30.883   0.655
95515W        W60676   6.190  19.428  11.173
95516W        W60677  39.431  30.686   1.494
95517W        W60678  13.140  42.876   9.969
95518W        W60679  16.623  32.072   0.423
95519W        W60680  37.116  26.668   0.975
95520W        W60681  19.507  29.093   0.545
95521W        W60682   2.919  43.258   0.896
95522W        W60683  22.957  34.126   2.780
95523W        W60684  17.673  27.363  11.507
95524W        W60685  17.169  19.969  11.117
95525W        W60686  35.540  42.883  14.818
95526W        W60687   5.906  41.177  11.734
95527W        W60688  25.711   6.787   1.707
95528W        W60689   0.506   4.696   4.708
95529W        W60690  35.013  41.076   2.472
95530W        W60691  40.053  31.159  14.265
95531W        W60692  16.114  28.494   2.144
95532W        W60693  29.713   5.778   2.173
95533W        W60694  29.184  28.393   4.147
95534W        W60695   6.430  33.120   3.192
95535W        W60696   4.767  24.041   3.009
95536W        W60697   4.919   3.699  10.708
95537W        W60698   9.466  26.962  11.131
95538W        W60699  34.262  30.324  10.881
95539W        W60700  33.824   9.707  14.431
95540W        W60701  29.423  41.335   1.874
95541W        W60702  30.160   9.099  10.925
95542W        W60703  10.008   8.165  11.135
95543W        W60704  36.072  21.198   3.849
95544W        W60705  31.037  42.798  10.653
95545W        W60706  21.204  31.960  11.955
95546W        W60707   2.915   8.125  13.086
95547W        W60708   0.874   5.345   1.199
95548W        W60709  44.264  27.249  14.355
95549W        W60710  20.602  42.497  11.510
95550W        W60711  28.483  29.197  13.900
95551W        W60712  40.987  37.837  11.168
95552W        W60713  40.256  29.623   3.150
95553W        W60714  40.772  25.897  14.876
95554W        W60715  30.200   7.217   4.945
95555W        W60716  30.634  26.555   1.449
95556W        W60717  11.805   1.495   3.686
95557W        W60718  17.219   0.034  11.114
95558W        W60719  26.580  29.410   3.015
95559W        W60720  12.413  15.788   0.758
95560W        W60721  35.914  22.560   4.202
95561W        W60722  35.089   0.299   4.515
95562W        W60723  39.170   0.919   5.075
95563W        W60724  18.430  12.262  11.603
95564W        W60725   6.257  38.816  12.868
95565W        W60726  28.044   7.529   1.719
95566W        W60727  24.868  20.606   4.355
95567W        W60728  21.962  24.110  11.616
95568W        W60729  13.272  36.973  10.521
95569W        W60730  43.310  15.066   3.538
95570W        W60731  38.880  40.583  13.145
95571W        W60732  20.061  37.472   3.223
95572W        W60733  14.130  34.614  13.384
95573W        W60734  18.102   7.354  11.050
95574W        W60735  19.344   1.866  10.884
95575W        W60736  28.646  17.771  10.435
95576W        W60737  17.196  42.276  12.367
95577W        W60738  41.832  31.219  14.811
95578W        W60739  38.423  25.916  14.345
95579W        W60740   5.782   9.249  12.558
95580W        W60741   3.674  35.281   1.192
95581W        W60742  43.853  41.181  12.011
95582W        W60743  25.490  43.981  12.398
95583W        W60744  24.408  34.470   2.818
95584W        W60745  32.972  37.253  10.248
95585W        W60746  27.319  15.138   4.596
95586W        W60747  13.740  22.573  14.822
95587W        W60748  39.134  38.117   1.285
95588W        W60749   9.823   3.487   3.910
95589W        W60750   5.473  29.688  10.765
95590W        W60751  20.671  10.960  12.993
95591W        W60752  27.999  22.045   1.663
95592W        W60753   9.380  24.900   1.888
95593W        W60754   0.051  30.423  11.599
95594W        W60755  16.887  40.790   2.357
95595W        W60756   9.231   8.735   0.955
95596W        W60757  23.960  41.343  11.243
95597W        W60758  34.038  40.154   0.798
95598W        W60759   3.864  21.217  12.849
95599W        W60760   9.366  13.198  14.965
95600W        W60761  30.937  13.800  12.358
95601W        W60762  43.396  20.888  12.057
95602W        W60763  21.112  26.087  14.503
95603W        W60764  28.070  24.340   1.217
95604W        W60765   3.151  39.975  12.381
95605W        W60766  17.762   1.634   1.895
95606W        W60767  32.593   5.603  14.762
95607W        W60768   7.586  13.691   1.272
95608W        W60769  18.470  12.781  11.679
95609W        W60770  29.817  32.075   0.952
95610W        W60771   7.644  25.958  12.534
95611W        W60772  23.492  29.446   4.790
95612W        W60773  18.662   4.369  13.016
95613W        W60774  44.627  29.495  12.208
95614W        W60775  37.110  21.606   2.868
95615W        W60776  24.452  14.423   2.438
95616W        W60777  21.754  32.006   0.945
95617W        W60778  28.688  26.015   1.333
95618W        W60779  25.337  41.728  11.547
95619W        W60780   1.179  42.670   1.270
95620W        W60781  18.107   7.920   4.473
95621W        W60782   5.951  10.505  14.475
95622W        W60783  44.304   8.266   3.148
95623W        W60784  25.006  40.504  10.844
95624W        W60785  21.709  18.097  13.573
95625W        W60786  38.903  13.692   2.481
95626W        W60787  39.150   4.775  14.305
95627W        W60788  30.586  30.174  11.621
95628W        W60789  28.466  17.182  10.714
95629W        W60790  10.321  43.095   2.632
95630W        W60791  11.098   1.923  13.406
95631W        W60792   8.933   8.020   3.634
95632W        W60793  40.546  11.665   3.417
95633W        W60794  14.850  41.401   1.451
95634W        W60795  17.513  43.104  14.964
95635W        W60796   5.448   8.263  13.735
95636W        W60797  10.892  19.839  11.457
95637W        W60798  24.646  21.282   2.764
95638W        W60799  12.589  20.296   3.306
95639W        W60800  10.616  41.811   2.690
95640W        W60801  22.591  10.617  12.205
95641W        W60802  29.171  35.869   2.343
95642W        W60803  25.585   7.894   4.010
95643W        W60804  21.732   1.262  14.502
95644W        W60805  39.001  22.953  12.859
95645W        W60806   8.870   3.927  10.728
95646W        W60807  22.605   6.010   2.267
95647W        W60808  28.538  22.792   0.902
95648W        W60809  13.125   8.577  14.638
95649W        W60810  32.352  22.691   1.842
95650W        W60811  17.232   5.354  11.492
95651W        W60812  32.986  26.880  12.030
95652W        W60813  22.794   0.303   1.524
95653W        W60814  10.565   6.603  13.077
95654W        W60815   4.235  20.073   1.787
95655W        W60816  28.526  22.806  10.990
95656W        W60817  31.254   7.469  13.971
95657W        W60818  29.741  26.460   4.140
95658W        W60819  40.339  17.791  11.895
95659W        W60820  26.300  18.197   3.198
95660W        W60821  29.958   3.294   3.353
95661W        W60822  39.790  17.336   4.885
95662W        W60823  29.278  28.161   2.307
95663W        W60824  38.861   1.624  11.083
95664W        W60825  19.672   5.271  11.072
95665W        W60826  38.345   5.257  14.520
95666W        W60827  40.504   2.712   1.178
95667W        W60828  39.802  26.529  13.597
95668W        W60829  18.563  13.074   1.925
95669W        W60830  20.774  21.605  13.802
95670W        W60831  36.870  42.967  11.548
95671W        W60832  43.582  36.737   1.167
95672W        W60833  31.996  27.650   4.498
95673W        W60834  30.498  26.774   5.013
95674W        W60835  26.779   2.214  13.423
95675W        W60836  39.858  32.902  12.523
95676W        W60837  14.464   2.899  14.337
95677W        W60838  14.584  39.990   3.578
95678W        W60839  36.387  34.174  11.081
95679W        W60840  18.570   4.864  14.917
95680W        W60841   4.559  33.970   1.136
95681W        W60842   5.386  24.399  14.430
95682W        W60843   7.479  19.123   4.926
95683W        W60844  12.228  17.074  12.872
95684W        W60845  14.968   7.892  10.881
95685W        W60846  17.385   4.079  12.823
95686W        W60847   6.281  26.503   1.429
95687W        W60848   7.337  25.499   1.286
95688W        W60849  13.619  40.531   4.708
95689W        W60850   5.454   2.077   4.221
95690W        W60851  42.515  17.730  11.906
95691W        W60852  29.580  14.254   2.175
95692W        W60853  37.469  14.130  11.247
95693W        W60854  13.731  42.245  11.377
95694W        W60855   1.861  24.278   2.263
95695W        W60856  27.159  31.910  11.927
95696W        W60857  37.369   3.661   3.751
95697W        W60858  43.343  11.249  11.911
95698W        W60859  31.356   5.383  14.032
95699W        W60860  16.623  10.731   2.228
95700W        W60861   7.938  22.092  11.790
95701W        W60862  19.553  41.027  13.412
95702W        W60863   2.078  27.058  13.033
95703W        W60864  11.681   7.406  10.541
95704W        W60865   5.336  22.967  14.466
95705W        W60866  33.964  37.303   9.866
95706W        W60867   5.419  34.819  13.547
95707W        W60868  43.610  23.473  14.743
95708W        W60869  21.171  36.534   4.115
95709W        W60870   0.542  42.621   3.116
95710W        W60871  10.325  25.721  12.322
95711W        W60872  25.514  25.249   3.339
95712W        W60873  44.241  43.359  11.602
95713W        W60874  29.037   5.802  11.658
95714W        W60875  41.251  34.021   2.702
95715W        W60876  40.926  11.856  12.911
95716W        W60877  33.059  29.605  11.255
95717W        W60878   7.384  31.363  13.132
95718W        W60879  41.459  18.735   3.141
95719W        W60880  16.182  30.848  14.393
95720W        W60881  43.442  11.676   3.053
95721W        W60882  20.710  42.752  11.051
95722W        W60883   2.356  15.398   3.796
95723W        W60884  40.093  17.608  14.318
95724W        W60885  43.103  32.893   9.735
95725W        W60886  21.178  14.789  12.354
95726W        W60887  30.604  11.829   4.629
95727W        W60888  42.783  15.555   2.738
95728W        W60889   9.154  14.151   0.873
95729W        W60890  21.978  39.286  14.041
95730W        W60891  16.774  24.056  13.798
95731W        W60892  43.307  23.908   2.308
95732W        W60893   1.555   6.338   2.862
95733W        W60894  39.979  17.267   1.256
95734W        W60895   5.379   4.073  11.611
95735W        W60896   6.730   8.812  12.562
95736W        W60897  23.734  18.635  12.674
95737W        W60898  11.638  17.783  11.600
95738W        W60899  26.614  27.284   4.490
95739W        W60900  28.882   0.374   2.815
95740W        W60901  44.460  39.458  14.733
95741W        W60902  26.352  24.163  12.377
95742W        W60903  35.976  42.306   0.714
95743W        W60904  17.961  29.884   4.086
95744W        W60905   1.851   2.722  10.728
95745W        W60906   1.242  28.165  12.054
95746W        W60907   6.274   0.918   3.239
95747W        W60908  10.575  28.556   1.770
95748W        W60909  41.873  41.382   1.927
95749W        W60910  41.933  38.975   2.284
95750W        W60911  18.571  11.119   4.741
95751W        W60912  22.198  15.385  14.261
95752W        W60913  26.791  18.685   2.598
95753W        W60914  38.999  38.750   9.961
95754W        W60915  10.640   6.544  12.571
95755W        W60916   5.275  28.538   4.538
95756W        W60917  13.072  43.989  13.488
95757W        W60918  27.694  10.723   0.318
95758W        W60919  38.856  20.346   0.304
95759W        W60920  20.019  24.439   9.817
95760W        W60921  40.485  28.074  13.957
95761W        W60922  33.591  18.718   2.541
95762W        W60923   9.692  15.244  13.357
95763W        W60924  37.247  13.870  12.478
95764W        W60925  33.782  28.890   2.684
95765W        W60926  12.065  35.629   1.325
95766W        W60927  44.525  29.072  11.963
95767W        W60928   7.100  27.409   0.340
95768W        W60929  44.797  11.239  12.989
95769W        W60930  27.263  23.639  11.532
95770W        W60931  43.174  42.195  10.732
95771W        W60932  29.900  34.712  13.471
95772W        W60933   6.457   0.901   2.743
95773W        W60934  23.574   0.357  13.696
95774W        W60935  33.420  18.233   1.868
95775W        W60936  24.664  10.629  12.928
95776W        W60937  12.681  13.435   2.934
95777W        W60938  29.198  30.299   0.586
95778W        W60939   7.671  42.752  11.166
95779W        W60940  29.295   9.773   3.699
95780W        W60941  36.460  37.532   3.374
95781W        W60942  36.137  25.978   3.462
95782W        W60943  26.555  27.551   1.458
95783W        W60944  17.227  42.494   1.195
95784W        W60945  30.657  44.201  11.939
95785W        W60946  42.550  29.910  14.039
95786W        W60947  14.467  28.119  14.189
95787W        W60948  18.128  14.766   1.339
95788W        W60949  30.939  35.103  10.462
95789W        W60950  38.155  44.511  11.193
95790W        W60951  15.356   6.159  12.187
95791W        W60952   6.826  43.791   3.920
95792W        W60953  37.298  34.936  11.493
95793W        W60954  10.971  35.194  14.854
95794W        W60955   0.906  26.039   3.333
95795W        W60956   5.485  23.501  11.548
95796W        W60957  37.302  44.225  14.898
95797W        W60958   9.811  10.381  12.592
95798W        W60959  35.479  42.622  12.340
95799W        W60960  16.217   8.222  14.905
95800W        W60961   4.438  17.162  14.523
95801W        W60962   7.940  18.111  11.624
95802W        W60963  11.790  25.131   0.940
95803W        W60964  39.096   7.733  13.976
95804W        W60965  17.079  34.929  12.448
95805W        W60966  43.522  29.709   3.762
95806W        W60967  25.782  29.731   1.196
95807W        W60968  31.747  23.530   3.088
95808W        W60969  10.204  10.892  12.934
95809W        W60970   8.449  35.373   2.878
95810W        W60971  16.240  35.335   2.476
95811W        W60972  10.808  39.071   3.382
95812W        W60973   1.906  11.995   2.767
95813W        W60974  13.906  13.818  14.584
95814W        W60975  27.592  25.202   1.227
95815W        W60976  40.108  34.065  12.401
95816W        W60977  13.843  33.680  13.430
95817W        W60978   9.566  22.388   2.882
95818W        W60979  44.722  29.190   1.715
95819W        W60980   5.287  27.619   2.525
95820W        W60981  37.589  38.929   3.714
95821W        W60982  13.333   0.154   1.794
95822W        W60983  35.080  17.719   1.232
95823W        W60984  27.451  22.358  11.327
95824W        W60985  39.036   3.832   4.529
95825W        W60986  27.425  33.943   3.880
95826W        W60987   4.017  13.601   4.966
95827W        W60988  21.066  12.650   4.314
95828W        W60989  20.669  11.719   3.884
95829W        W60990   4.236  25.129   1.335
95830W        W60991  16.837  36.484  11.291
95831W        W60992  30.851   9.601  11.518
95832W        W60993  39.018  16.740  12.898
95833W        W60994   4.299  11.891   0.892
95834W        W60995  10.602  29.238   0.210
95835W        W60996  30.637  11.311   4.525
95836W        W60997  28.813  21.739  12.403
95837W        W60998   0.760   9.736   5.441
95838W        W60999  19.855  28.671  13.402
95839W        W61000  14.201  33.481  12.639
95840W        W61001  13.019  18.149  12.923
95841W        W61002  16.771  15.158  11.537
95842W        W61003  37.358   8.378  11.033
95843W        W61004  13.743  21.989   2.125
95844W        W61005  29.932  12.147   1.013
95845W        W61006  21.983  10.881  10.717
95846W        W61007  28.589  39.516   0.433
95847W        W61008  38.347  37.624   1.275
95848W        W61009   2.040   9.954   4.227
95849W        W61010  42.791  13.911   0.207
95850W        W61011  38.351  34.274  12.086
95851W        W61012  27.152   7.624   0.797
95852W        W61013  14.354   8.980   0.371
95853W        W61014   4.806  42.190  14.912
95854W        W61015  36.826  26.311  14.774
95855W        W61016   8.918   3.702   2.819
95856W        W61017  25.571   0.064  11.752
95857W        W61018  21.764  26.335  14.263
95858W        W61019  17.235   4.649  13.454
95859W        W61020  30.697  19.297   4.088
95860W        W61021   4.998  10.885  12.195
95861W        W61022  26.645  26.191   2.476
95862W        W61023   9.157  18.348   2.782
95863W        W61024   9.598  13.125  11.657
95864W        W61025   5.659  18.510   1.636
95865W        W61026  12.869  34.946   3.625
95866W        W61027  38.046  31.218  11.180
95867W        W61028   0.809  18.216  11.999
95868W        W61029  10.663  44.815  12.633
95869W        W61030   6.003  12.946   1.270
95870W        W61031  36.379  42.991  14.404
95871W        W61032   7.080  21.552  11.017
95872W        W61033   9.869  34.180  12.594
95873W        W61034  18.346   8.995  13.926
95874W        W61035  40.435  36.571   1.144
95875W        W61036  33.538   9.859  13.357
95876W        W61037  35.900  38.241   0.752
95877W        W61038  12.314   2.469   3.396
95878W        W61039  39.860  35.968   3.563
95879W        W61040   2.333  35.920  10.778
95880W        W61041  21.510   3.557   2.132
95881W        W61042  23.462  13.200   3.529
95882W        W61043  33.456  13.213   2.746
95883W        W61044  35.709  28.962  12.206
95884W        W61045  24.703  24.214   2.283
95885W        W61046  39.785   8.932   2.812
95886W        W61047  42.925  17.247   1.387
95887W        W61048   2.728   7.641   0.008
95888W        W61049  35.558  43.755  11.516
95889W        W61050  40.358   3.875  10.735
95890W        W61051  26.097  24.072  10.938
95891W        W61052   6.262  44.992  12.028
95892W        W61053   9.603  30.947   2.787
95893W        W61054  41.316  36.755   2.952
95894W        W61055  33.769  27.453   1.983
95895W        W61056  28.502  37.908   0.703
95896W        W61057  37.921   9.265   3.525
95897W        W61058   8.821  21.264   0.386
95898W        W61059  19.056  24.534   4.720
95899W        W61060  41.982  36.636  12.547
95900W        W61061  32.148  23.537  12.069
95901W        W61062   7.572  43.370  13.896
95902W        W61063  10.199   0.520  11.552
95903W        W61064  35.861  27.603  11.542
95904W        W61065  39.580  18.815  12.412
95905W        W61066  34.665   3.010  11.117
95906W        W61067  35.110  21.415   4.277
95907W        W61068  35.706  24.684  12.033
95908W        W61069  31.816  21.912   3.909
95909W        W61070  33.877   6.755  10.598
95910W        W61071  32.401  42.805  10.618
95911W        W61072  12.621  13.738   3.528
95912W        W61073  31.879  20.006   1.811
95913W        W61074  11.645   2.483  14.437
95914W        W61075   7.378  44.243  13.993
95915W        W61076  27.694  15.243  14.352
95916W        W61077  29.920   3.871  13.536
95917W        W61078  39.939  32.785  14.759
95918W        W61079  27.997  22.549  12.039
95919W        W61080  44.906  20.665   4.502
95920W        W61081  34.422   8.360   1.712
95921W        W61082  11.090  27.493  10.339
95922W        W61083  39.723  19.596   4.182
95923W        W61084  16.097  28.899   1.805
95924W        W61085  10.322  25.135  11.155
95925W        W61086  22.107  24.601  14.791
95926W        W61087   2.448  21.277   0.318
95927W        W61088   4.283   5.612  12.470
95928W        W61089  44.223  37.798   4.850
95929W        W61090  39.599  10.876  13.792
95930W        W61091   2.190  38.321  13.429
95931W        W61092  33.978  42.227  10.193
95932W        W61093  43.087  36.346   2.199
95933W        W61094   8.751  14.902   4.211
95934W        W61095   7.931  40.895   0.937
95935W        W61096  41.169   6.538   0.385
95936W        W61097   2.992  19.000   3.194
95937W        W61098  41.845  21.145   1.005
95938W        W61099  28.358  39.508  14.962
95939W        W61100  31.368  19.633   4.781
95940W        W61101  33.966  23.463   3.568
95941W        W61102   2.502  38.713   0.815
95942W        W61103  29.800  26.034  13.366
95943W        W61104  27.211  35.844   5.059
95944W        W61105  17.775  20.107  12.583
95945W        W61106  26.687  33.103  10.554
95946W        W61107  36.514  25.560   3.332
95947W        W61108  15.080  40.865   2.749
95948W        W61109  33.131  36.947  12.307
95949W        W61110  21.009  43.245  11.510
95950W        W61111   5.350  35.060  11.628
95951W        W61112  26.521  25.032  10.368
95952W        W61113  14.631   0.253   4.396
95953W        W61114  20.403  10.712  13.578
95954W        W61115  22.193  10.575  11.063
95955W        W61116  31.438  23.622   0.826
95956W        W61117  41.006  33.484  13.425
95957W        W61118  29.163  31.882   2.303
95958W        W61119  40.819  34.605   0.274
95959W        W61120  11.888  10.855  10.637
95960W        W61121  28.782  35.569  13.401
95961W        W61122  36.764   5.039   2.259
95962W        W61123   1.639  13.379   3.217
95963W        W61124  17.282   0.313   2.798
95964W        W61125  43.293  32.377  10.934
95965W        W61126  37.199  28.423   1.205
95966W        W61127  14.528  44.377  10.259
95967W        W61128  42.926   0.754   4.594
95968W        W61129   5.686  43.410  14.443
95969W        W61130   6.371  10.834  10.714
95970W        W61131  21.954   8.704  12.580
95971W        W61132   8.859   6.245   3.414
95972W        W61133  26.447  18.807  12.115
95973W        W61134  29.822  12.257   3.738
95974W        W61135  41.665   1.770   0.127
95975W        W61136   5.389  38.372   3.867
95976W        W61137  29.644  25.441   0.879
95977W        W61138  22.225  15.770  11.170
95978W        W61139  42.552  20.627  13.914
95979W        W61140   5.731   4.364  10.614
95980W        W61141  12.373  26.055   0.005
95981W        W61142  31.938  22.262  13.958
95982W        W61143  16.124  27.257  12.868
95983W        W61144  22.137  18.109  11.100
95984W        W61145   6.709  43.543   1.292
95985W        W61146   7.683  10.195  13.619
95986W        W61147  35.322   4.875   2.795
95987W        W61148  25.555  18.692   2.210
95988W        W61149  41.929  11.923  12.121
95989W        W61150  37.616  18.674  10.762
95990W        W61151  18.507  13.097   3.303
95991W        W61152   6.087  17.045   3.552
95992W        W61153  27.849   7.332   1.297
95993W        W61154  14.782  24.596   4.569
95994W        W61155   5.482   8.196   4.039
95995W        W61156   4.385  15.122  13.890
95996W        W61157   2.314  39.203  12.930
95997W        W61158  26.674   6.226   1.385
95998W        W61159  12.357  24.832   4.071
95999W        W61160  30.916  31.574  13.793
96000W        W61161  43.789   2.459  10.578
96001W        W61162   1.757  34.844   1.583
96002W        W61163  13.254  16.089   2.444
96003W        W61164  34.070   7.698  13.398
96004W        W61165  14.711  10.259   1.876
96005W        W61166   3.561  38.096   1.325
96006W        W61167  37.611  36.862  12.455
96007W        W61168  31.690  17.060   5.321
96008W        W61169  23.631  44.944  12.953
96009W        W61170  22.957  34.463  12.405
96010W        W61171   4.465   6.893  13.639
96011W        W61172  40.402  12.849  14.301
96012W        W61173  24.959  33.946  12.974
96013W        W61174  42.475   8.636  10.903
96014W        W61175  37.415  32.171  12.110
96015W        W61176   8.806  40.835  13.815
96016W        W61177  23.447  32.110  14.015
96017W        W61178  19.832  36.498   4.531
96018W        W61179   3.577  34.427   3.286
96019W        W61180   4.943   8.895   4.200
96020W        W61181  15.431  41.385  12.988
96021W        W61182  29.857  22.701  13.351
96022W        W61183   8.127  21.668   4.710
96023W        W61184  43.335  33.417   0.478
96024W        W61185  26.604   1.889  10.743
96025W        W61186   9.891  23.793   3.765
96026W        W61187  37.337  44.769  13.978
96027W        W61188   1.554  34.003   0.688
96028W        W61189   6.471  32.055  11.167
96029W        W61190  16.108  22.833   0.839
96030W        W61191  37.780  33.522  14.245
96031W        W61192   1.506  27.202   0.293
96032W        W61193  30.537  28.975  12.059
96033W        W61194  33.596  18.722  13.975
96034W        W61195  28.501  17.680  14.497
96035W        W61196  28.552   6.417   0.129
96036W        W61197   3.963   6.702   2.805
96037W        W61198   3.047   2.588   0.373
96038W        W61199  28.322  12.649   1.377
96039W        W61200  15.767   8.477   1.517
96040W        W61201  23.586  32.154   4.703
96041W        W61202  44.531  25.676  13.293
96042W        W61203  13.818   5.778   3.813
96043W        W61204  24.799  30.445  13.450
96044W        W61205  44.152  33.093   2.333
96045W        W61206  21.259  18.818  13.328
96046W        W61207   1.874  15.423  11.796
96047W        W61208  25.263  38.619  12.722
96048W        W61209  40.011   5.173  10.516
96049W        W61210  40.707  17.227   0.438
96050W        W61211  41.564  34.379   0.403
96051W        W61212  14.239  38.820  14.896
96052W        W61213  15.141  16.316   2.208
96053W        W61214  23.355  12.154   1.527
96054W        W61215  12.116  32.380  12.028
96055W        W61216   8.764   0.398   0.236
96056W        W61217  32.012  19.362  13.502
96057W        W61218  38.948  24.167   3.597
96058W        W61219  25.666   0.752   1.702
96059W        W61220  34.962  13.294  11.868
96060W        W61221   6.631  16.291  14.697
96061W        W61222  14.917   2.963   0.659
96062W        W61223  30.923  21.637   5.458
96063W        W61224  11.894  19.661  10.068
96064W        W61225  32.603  10.256  14.516
96065W        W61226  36.897  30.452   4.526
96066W        W61227  42.385  41.327   2.190
96067W        W61228  44.305   6.399  14.989
96068W        W61229   0.655   1.392   2.789
96069W        W61230  29.138  14.714   4.965
96070W        W61231  29.464  13.507  14.395
96071W        W61232  19.303  24.984   4.673
96072W        W61233   1.913   6.939  11.200
96073W        W61234   8.268  28.903  13.754
96074W        W61235  24.766  25.529  10.728
96075W        W61236  33.531  26.798   3.394
96076W        W61237  29.451  16.910   4.158
96077W        W61238  17.043  18.220   4.109
96078W        W61239  34.070  15.074   3.151
96079W        W61240   6.630  40.583  11.143
96080W        W61241  19.782   9.196  11.653
96081W        W61242  42.298  19.647  14.592
96082W        W61243  23.252  38.366  14.793
96083W        W61244   2.030   1.793  11.610
96084W        W61245  21.066  40.832   3.525
96085W        W61246  12.311  21.195   0.890
96086W        W61247  23.749  38.311  12.135
96087W        W61248  34.783   2.163   3.222
96088W        W61249  42.444  40.193  11.512
96089W        W61250  30.743  22.050   0.114
96090W        W61251  21.514  41.283   5.072
96091W        W61252   3.684   4.723  11.590
96092W        W61253  35.507  38.329  14.023
96093W        W61254  28.385   2.909   1.936
96094W        W61255  25.188  24.102  10.638
96095W        W61256  30.699  22.579  14.417
96096W        W61257  22.573  26.449   4.994
96097W        W61258  41.119  37.102  13.410
96098W        W61259  17.834  32.148   1.262
96099W        W61260  27.378  29.976  12.395
96100W        W61261  21.035  22.255  14.431
96101W        W61262  24.186  25.205   3.709
96102W        W61263  32.853  35.068  10.659
96103W        W61264   6.078  42.732   3.726
96104W        W61265  34.144  23.765   2.061
96105W        W61266   3.279  43.309  12.866
96106W        W61267  10.908  11.351  12.405
96107W        W61268  24.455   0.451  14.023
96108W        W61269   6.437   6.272   2.209
96109W        W61270  14.227  26.164  12.255
96110W        W61271  17.695   1.030   4.060
96111W        W61272  41.761  13.151   4.186
96112W        W61273  15.604  12.191  12.917
96113W        W61274  29.105  39.779  11.629
96114W        W61275  21.974   2.731   3.834
96115W        W61276  16.497  33.644  12.535
96116W        W61277  11.839  43.409  13.728
96117W        W61278   1.429  25.983  12.638
96118W        W61279   2.956   1.254   3.181
96119W        W61280  19.758   1.643  12.587
96120W        W61281  33.416  20.765   3.708
96121W        W61282   4.180  21.799   0.259
96122W        W61283  16.702  42.046   4.589
96123W        W61284  27.115  32.182   0.900
96124W        W61285   0.417  30.094  14.305
96125W        W61286   2.353  36.815   3.334
96126W        W61287  15.206  14.728  13.906
96127W        W61288   3.476   4.454   3.852
96128W        W61289   5.163  39.832  12.491
96129W        W61290  41.428  28.799  11.094
96130W        W61291  29.430  26.720  13.431
96131W        W61292   4.657  16.827   1.361
96132W        W61293  30.462  15.081   4.217
96133W        W61294  27.396  24.159  11.553
96134W        W61295  42.190  13.072  12.436
96135W        W61296  10.718  27.542   1.935
96136W        W61297   7.443  22.797   0.941
96137W        W61298  29.040  13.245  13.218
96138W        W61299  22.208  29.780  12.563
96139W        W61300  13.321  39.179   1.632
96140W        W61301  20.590  22.456  12.953
96141W        W61302  12.958  32.102  12.573
96142W        W61303  33.792   9.887  12.871
96143W        W61304  43.913   0.371   3.665
96144W        W61305  21.709  30.698   5.014
96145W        W61306  17.504  12.777   2.655
96146W        W61307  34.444  12.873   3.587
96147W        W61308  33.332  17.806   1.603
96148W        W61309  10.726  32.064   2.618
96149W        W61310  41.508  25.636  12.574
96150W        W61311  22.942  31.049  14.441
96151W        W61312  25.427  38.534  12.145
96152W        W61313  31.372  30.238  13.570
96153W        W61314  32.817  12.632  12.021
96154W        W61315  43.173  25.605  10.804
96155W        W61316  20.982   2.704  12.073
96156W        W61317   9.910   1.838  14.282
96157W        W61318  42.581   7.105   3.631
96158W        W61319   1.716  40.971   2.406
96159W        W61320  16.826  17.546   1.193
96160W        W61321  18.264   9.607  14.498
96161W        W61322   9.656  35.336  10.764
96162W        W61323  31.334   7.385  11.390
96163W        W61324  28.626  16.741   3.445
96164W        W61325   6.680  40.005   3.709
96165W        W61326  12.330   3.518  12.980
96166W        W61327  18.188   0.279  14.785
96167W        W61328  16.233   2.363   2.565
96168W        W61329   1.522  33.105   1.203
96169W        W61330  17.679   1.933  14.407
96170W        W61331  32.319  24.113   0.802
96171W        W61332  44.089  39.003  11.146
96172W        W61333  30.619   9.816  13.239
96173W        W61334  44.975   6.614   2.731
96174W        W61335   4.168   3.388   4.087
96175W        W61336  35.780  23.516  12.883
96176W        W61337   5.052  23.260  10.654
96177W        W61338  14.097  41.968  11.139
96178W        W61339  19.545  13.447  12.923
96179W        W61340  13.675   2.487   1.145
96180W        W61341  10.363  23.209  11.512
96181W        W61342  34.977  18.719   1.382
96182W        W61343  41.802  44.888  13.369
96183W        W61344  37.957   5.531   0.816
96184W        W61345  20.595  18.464   0.235
96185W        W61346  44.903  24.227  12.590
96186W        W61347  21.541  39.332  12.476
96187W        W61348   7.668  29.604   0.247
96188W        W61349   1.657   3.828   0.388
96189W        W61350  32.619  36.110  13.236
96190W        W61351  17.124  16.956   3.400
96191W        W61352  25.282  29.663   3.316
96192W        W61353  24.675   0.387  13.561
96193W        W61354  44.581  24.983   1.667
96194W        W61355  20.390  13.544  11.459
96195W        W61356   6.324  14.512  10.132
96196W        W61357  30.287   3.944  11.555
96197W        W61358   6.180  42.544  10.713
96198W        W61359  39.116  29.866  11.203
96199W        W61360   2.764  39.317   1.326
96200W        W61361  31.319  29.128  11.033
96201W        W61362   2.393   5.515   4.736
96202W        W61363   7.817   3.952  12.406
96203W        W61364  32.047  31.869  14.880
96204W        W61365  38.675   3.523   2.648
96205W        W61366  11.784  39.928  10.530
96206W        W61367   5.382  36.563  12.861
96207W        W61368  32.858  38.328   5.298
96208W        W61369  23.354   3.114   1.771
96209W        W61370  41.343  13.343  11.200
96210W        W61371   2.954  39.005   2.648
96211W        W61372  11.103  26.462   1.920
96212W        W61373   6.787  35.119   4.104
96213W        W61374  35.609  13.497  11.159
96214W        W61375  12.923  42.469  10.697
96215W        W61376  34.897  30.655   4.007
96216W        W61377  10.583  26.118  14.343
96217W        W61378  39.391   8.637  14.459
96218W        W61379  33.499  14.055  11.179
96219W        W61380  24.441  19.345   1.857
96220W        W61381  16.734  42.085  10.630
96221W        W61382  13.111   9.523   3.710
96222W        W61383   8.324  16.131  13.982
96223W        W61384   7.659   2.418   1.048
96224W        W61385  35.601  34.895   1.116
96225W        W61386   8.083  20.162  12.710
96226W        W61387  42.820   1.581  14.005
96227W        W61388   1.317  18.091  11.609
96228W        W61389  12.153  20.210   4.566
96229W        W61390  20.196  24.558  11.478
96230W        W61391  27.043  17.292  12.534
96231W        W61392  30.126  13.190  12.369
96232W        W61393   4.152  24.066  14.483
96233W        W61394   5.855   1.213  12.472
96234W        W61395   1.407   4.317   4.855
96235W        W61396   5.806   7.710  13.782
96236W        W61397  23.873  44.346  10.847
96237W        W61398  18.095  13.586  13.079
96238W        W61399  42.528  42.483   3.616
96239W        W61400   3.042  36.950   0.289
96240W        W61401  17.087  23.893   2.607
96241W        W61402  11.258   4.036  10.605
96242W        W61403  23.319   8.367   4.299
96243W        W61404  23.030  33.091   4.292
96244W        W61405  34.567  38.385   0.942
96245W        W61406  11.592  15.991  12.506
96246W        W61407  44.252  34.602   4.164
96247W        W61408  42.112  31.362   0.289
96248W        W61409  26.083   8.566   4.087
96249W        W61410  30.977   5.359  11.463
96250W        W61411   7.542  19.604   3.167
96251W        W61412  18.667  22.081  13.336
96252W        W61413  40.391  28.583  13.882
96253W        W61414   7.691  31.438  10.566
96254W        W61415  34.745   2.396   1.520
96255W        W61416  13.205  23.284   0.338
96256W        W61417  36.466   5.055  11.685
96257W        W61418  27.600  44.615  12.423
96258W        W61419  21.190   4.982  14.742
96259W        W61420   3.829  41.259   3.852
96260W        W61421   2.012  34.859   4.145
96261W        W61422  41.932   9.307   1.079
96262W        W61423   6.579  14.787  13.892
96263W        W61424  16.650  13.032   3.626
96264W        W61425  25.185   3.943  14.216
96265W        W61426  30.892  29.360   0.391
96266W        W61427  24.799  31.707  14.433
96267W        W61428   7.743  33.161  12.541
96268W        W61429   9.403   9.832   3.133
96269W        W61430  18.114  21.469   1.810
96270W        W61431   5.450  41.516   3.022
96271W        W61432  43.756   5.725   3.846
96272W        W61433  38.561  12.407  10.986
96273W        W61434  24.987  27.031  14.765
96274W        W61435  29.055  42.602   3.599
96275W        W61436   7.081  25.351   4.623
96276W        W61437   0.193  17.473  11.605
96277W        W61438  34.091  35.163   1.347
96278W        W61439  38.287  32.454  11.117
96279W        W61440  27.598  24.500  12.771
96280W        W61441  25.673  29.529   3.026
96281W        W61442  15.619  21.681   0.991
96282W        W61443  13.189   6.172   4.302
96283W        W61444  32.846  32.403   2.811
96284W        W61445  18.339  11.186  11.990
96285W        W61446  25.543  26.209   3.091
96286W        W61447  10.390   8.215  12.367
96287W        W61448  17.505  17.205  14.454
96288W        W61449   5.901  21.404  14.789
96289W        W61450  41.520  42.256  11.903
96290W        W61451  32.596  24.578  14.224
96291W        W61452  21.375  19.233   4.167
96292W        W61453   2.571   9.907   0.883
96293W        W61454   1.360   9.846   4.838
96294W        W61455   2.680   4.794  11.530
96295W        W61456  11.891  23.728   3.794
96296W        W61457   2.863  31.876   4.618
96297W        W61458   7.063  23.037   1.828
96298W        W61459   6.260   4.370  10.588
96299W        W61460   5.519   4.502  14.941
96300W        W61461   6.800   6.436  13.734
96301W        W61462  32.452  26.027   2.722
96302W        W61463  24.756  39.378  14.234
96303W        W61464   5.278  10.715   4.378
96304W        W61465  10.799  23.708  10.461
96305W        W61466  23.684   5.196  14.363
96306W        W61467  17.656  12.110  11.192
96307W        W61468  29.563  38.577  11.851
96308W        W61469  18.082  39.350  12.537
96309W        W61470   8.803  26.161   1.655
96310W        W61471  35.625  12.121  11.032
96311W        W61472  13.128  16.266  14.285
96312W        W61473  10.044  29.599   2.775
96313W        W61474  27.480  31.152  11.263
96314W        W61475  11.707  41.985  12.172
96315W        W61476  36.999  29.060   1.891
96316W        W61477  38.903   9.840   0.007
96317W        W61478  36.569   1.458  14.931
96318W        W61479  37.137  12.415  11.169
96319W        W61480  23.527  37.651   3.400
96320W        W61481  19.159  20.102   2.089
96321W        W61482  21.055   4.899   4.503
96322W        W61483  28.144   1.524   0.252
96323W        W61484  16.510   4.836  13.432
96324W        W61485  10.199  33.477   3.317
96325W        W61486  42.606  12.208   2.655
96326W        W61487  39.390  23.929   2.899
96327W        W61488   2.035  16.835   0.362
96328W        W61489   3.702   7.990   0.962
96329W        W61490   5.339  19.194  13.735
96330W        W61491  32.941  33.706  12.902
96331W        W61492  21.640  17.455  10.195
96332W        W61493  40.847   6.598   1.197
96333W        W61494  25.023   5.972  14.493
96334W        W61495  40.270  16.236   2.334
96335W        W61496  12.035  17.856   4.102
96336W        W61497  40.028  13.848   3.733
96337W        W61498  20.537  16.504   0.874
96338W        W61499  22.684  14.577  11.797
96339W        W61500  44.454  44.736  10.347
96340W        W61501   4.180  33.823  12.992
96341W        W61502  34.121  35.409  13.225
96342W        W61503   6.343  26.176   1.842
96343W        W61504   5.980  13.118  12.564
96344W        W61505  25.524  32.857  11.626
96345W        W61506   0.447  23.124   4.729
96346W        W61507   9.135  13.061  13.973
96347W        W61508  38.909  20.704   4.104
96348W        W61509  26.431  35.291   4.097
96349W        W61510  39.112  16.963   2.618
96350W        W61511   2.295  12.271  11.646
96351W        W61512  16.704   2.245   4.824
96352W        W61513  41.539  41.832   1.292
96353W        W61514   4.559  20.448   4.907
96354W        W61515   8.654  38.169   1.247
96355W        W61516  19.242  19.332   0.332
96356W        W61517  15.133   1.582  14.420
96357W        W61518  41.337  28.107   3.057
96358W        W61519  23.697  36.999   2.224
96359W        W61520   4.465  44.097  13.618
96360W        W61521   6.836  19.547  12.387
96361W        W61522  22.391   2.446  13.321
96362W        W61523  29.131   7.889   2.269
96363W        W61524  12.392  30.632   2.812
96364W        W61525  32.131   0.922  12.969
96365W        W61526  37.151   4.566   5.015
96366W        W61527  34.543  35.909   2.791
96367W        W61528   3.884  38.873  11.407
96368W        W61529  31.668  19.124  13.898
96369W        W61530  18.545   8.260  11.197
96370W        W61531  12.781  28.016  14.814
96371W        W61532  11.722   4.778  10.545
96372W        W61533   7.413  37.773  12.835
96373W        W61534   9.160  22.755   2.875
96374W        W61535  25.878  20.557  12.346
96375W        W61536  19.226  29.595   2.754
96376W        W61537  14.798  38.476   1.856
96377W        W61538  27.752  28.492  12.968
96378W        W61539  28.730  23.175   1.632
96379W        W61540  27.091  40.748  12.135
96380W        W61541   2.369  43.026   4.111
96381W        W61542  20.112   2.661   0.515
96382W        W61543  44.943  23.163   1.428
96383W        W61544   8.931   4.664  11.114
96384W        W61545  10.423  10.370   4.074
96385W        W61546  36.774  21.152  10.732
96386W        W61547   4.510   3.015   0.215
96387W        W61548   3.279  21.704  12.500
96388W        W61549   2.733   4.778  12.917
96389W        W61550  30.439  18.679   3.333
96390W        W61551  39.754  22.513   0.821
96391W        W61552   2.914  13.638   1.847
96392W        W61553   6.840  22.206  14.316
96393W        W61554  17.395   3.192   3.266
96394W        W61555  25.947  23.668  13.783
96395W        W61556  41.566  25.460  10.475
96396W        W61557  34.807   4.934   2.884
96397W        W61558  20.513  25.499  10.754
96398W        W61559  42.643   0.264   2.087
96399W        W61560  28.230  29.939  14.391
96400W        W61561   6.829  36.592  11.613
96401W        W61562  24.432  30.513  11.852
96402W        W61563   5.168  42.258   2.593
96403W        W61564  11.071  43.912  12.064
96404W        W61565  26.210  18.039   1.399
96405W        W61566  35.697   5.379   0.748
96406W        W61567   7.001  19.584   4.057
96407W        W61568  14.160  31.064   4.821
96408W        W61569   3.244   5.511   1.545
96409W        W61570  10.160  29.749  13.103
96410W        W61571  38.401  18.246  13.387
96411W        W61572  34.364  12.579   2.231
96412W        W61573  17.766  44.236   4.617
96413W        W61574  39.121  20.784   1.334
96414W        W61575  33.638   5.723  12.438
96415W        W61576  39.457  20.682  12.776
96416W        W61577   2.920  26.414   3.049
96417W        W61578   6.980   9.605  12.713
96418W        W61579   4.650   3.933  11.080
96419W        W61580   3.943  14.545   2.867
96420W        W61581  25.751   9.036  14.701
96421W        W61582   9.369   8.183   3.861
96422W        W61583  42.135  10.223  13.327
96423W        W61584   3.909  22.655   9.856
96424W        W61585   2.068  23.111   2.850
96425W        W61586  23.136  19.527  12.884
96426W        W61587  37.143   0.843   2.366
96427W        W61588   5.700  43.791   1.826
96428W        W61589  30.567  15.277   1.871
96429W        W61590  36.505  42.002   4.092
96430W        W61591  40.273  16.130   0.798
96431W        W61592  35.365  36.613   1.847
96432W        W61593  18.808   0.444   2.795
96433W        W61594  43.432  34.339  12.042
96434W        W61595   6.754  24.843  10.324
96435W        W61596  43.742  36.044  12.910
96436W        W61597  34.533  36.612  12.678
96437W        W61598  19.300  20.672   3.215
96438W        W61599  13.951  21.261   1.382
96439W        W61600  17.788   3.816   1.388
96440W        W61601  20.168  33.537   2.366
96441W        W61602  44.451  25.819   3.255
96442W        W61603   4.927   7.644   3.339
96443W        W61604  44.454  11.623  12.943
96444W        W61605  24.493  25.383   1.387
96445W        W61606   4.206  37.338   2.266
96446W        W61607  33.144  22.319  14.819
96447W        W61608   3.368  30.374   3.704
96448W        W61609  36.012  38.013  13.116
96449W        W61610  37.827   4.287  14.289
96450W        W61611  38.435   7.490   0.043
96451W        W61612  37.315  23.321  14.333
96452W        W61613  26.913  34.245  11.836
96453W        W61614  16.530   6.387   3.206
96454W        W61615  25.045  43.889   4.536
96455W        W61616   3.743  24.612  13.701
96456W        W61617  39.263  41.592  10.788
96457W        W61618   8.382  34.752   4.567
96458W        W61619  21.117  10.367   2.221
96459W        W61620  38.067  39.609   4.273
96460W        W61621  43.921   9.269   3.728
96461W        W61622  23.164  26.691  12.934
96462W        W61623  17.657  28.499   3.687
96463W        W61624   7.719  41.360   4.534
96464W        W61625  43.752  25.745  13.754
96465W        W61626   5.480   4.355  11.199
96466W        W61627  26.622  40.216   4.971
96467W        W61628  17.735  29.710  12.436
96468W        W61629  21.690  25.959  13.262
96469W        W61630   8.091  11.084  13.377
96470W        W61631   6.264  32.071   2.736
96471W        W61632  22.599  39.549  10.196
96472W        W61633   3.330  24.117  12.432
96473W        W61634   6.130  21.961   2.739
96474W        W61635   6.762  14.859   3.679
96475W        W61636  41.829  10.669   2.397
96476W        W61637   1.744  16.080  13.406
96477W        W61638  22.988  43.891  14.212
96478W        W61639  42.151  14.952   2.153
96479W        W61640  32.874  21.322  12.003
96480W        W61641   3.032  25.706  13.472
96481W        W61642  12.151  30.981  14.391
96482W        W61643  42.590  44.926  14.499
96483W        W61644  14.663  33.827   3.320
96484W        W61645  15.314  21.107  11.429
96485W        W61646  25.187   5.994  13.968
96486W        W61647  33.448  40.699  11.096
96487W        W61648  33.503   1.424   2.245
96488W        W61649  23.456  42.481  13.973
96489W        W61650  26.090  30.958   1.439
96490W        W61651  23.101   6.043   2.420
96491W        W61652  29.058  11.363   4.109
96492W        W61653  30.441   6.686  10.572
96493W        W61654  21.568   9.882   1.839
96494W        W61655  29.442  10.021  12.849
96495W        W61656  40.872  35.245   4.582
96496W        W61657   2.236  29.978  14.125
96497W        W61658  12.312  18.218   3.286
96498W        W61659  35.981  11.329   3.934
96499W        W61660  43.374  27.942   0.376
96500W        W61661  16.941   8.315   1.841
96501W        W61662  18.227   3.749  13.600
96502W        W61663  39.884   9.302   4.735
96503W        W61664   6.801  28.499  14.620
96504W        W61665   9.171   4.747   0.703
96505W        W61666  12.075  32.882  12.030
96506W        W61667  39.967  43.277  13.527
96507W        W61668   2.236  42.765   4.522
96508W        W61669  27.387  16.218   2.909
96509W        W61670  14.784  12.610  11.553
96510W        W61671  26.155  16.665   4.051
96511W        W61672  27.908  15.752  13.363
96512W        W61673  40.425  43.042   2.474
96513W        W61674  14.807  42.875   3.335
96514W        W61675  17.557  13.808  12.226
96515W        W61676  37.432  37.763   5.234
96516W        W61677  41.889   2.794   0.682
96517W        W61678  21.482  23.738   2.654
96518W        W61679  39.103  30.774  14.339
96519W        W61680  31.457  37.444  12.960
96520W        W61681   1.801   1.578   3.616
96521W        W61682  16.650  26.400   2.352
96522W        W61683  21.147  38.953   3.196
96523W        W61684  43.900   0.031  10.938
96524W        W61685   9.415  10.697   2.062
96525W        W61686   7.602  32.082   1.486
96526W        W61687  18.265  34.390   3.353
96527W        W61688  42.585  15.624  10.583
96528W        W61689  39.588  43.007  12.636
96529W        W61690  27.985  22.195   2.664
96530W        W61691  36.826  13.642  12.608
96531W        W61692  11.110  43.017  12.014
96532W        W61693  43.506  21.997   4.134
96533W        W61694   5.456  10.417   4.005
96534W        W61695  44.303  32.471   3.969
96535W        W61696  38.880  41.683   4.026
96536W        W61697  32.415  34.906   4.712
96537W        W61698  36.326  36.847   1.711
96538W        W61699  22.998  25.379  12.838
96539W        W61700  42.692   6.977   2.421
96540W        W61701  30.171  31.452   4.565
96541W        W61702  17.364   4.692   0.825
96542W        W61703   0.250  12.641  12.266
96543W        W61704   8.831  29.093   0.335
96544W        W61705  40.445  17.094  10.565
96545W        W61706  39.839   2.467  11.492
96546W        W61707  25.965  43.054  11.167
96547W        W61708   0.251  38.319   0.361
96548W        W61709  28.193   3.830  10.732
96549W        W61710  29.903  10.696  13.999
96550W        W61711   6.648  35.707   1.340
96551W        W61712  28.167   0.771   1.792
96552W        W61713  34.407   0.366  13.873
96553W        W61714  28.049  16.092   4.142
96554W        W61715  32.696  19.443   4.574
96555W        W61716  26.488  38.413  11.926
96556W        W61717  29.060  15.628   2.885
96557W        W61718  27.798  34.438  10.293
96558W        W61719  12.556  18.378  13.044
96559W        W61720  14.686  20.738   0.385
96560W        W61721  21.402  18.382   0.011
96561W        W61722  36.740  39.328   4.943
96562W        W61723  25.218  22.738  13.227
96563W        W61724  41.980  29.473   2.126
96564W        W61725  19.729  11.890  12.026
96565W        W61726  43.032  19.386   9.996
96566W        W61727  26.218  34.980  14.693
96567W        W61728   6.828  14.292   0.927
96568W        W61729   7.604  14.159   2.795
96569W        W61730  20.027   3.491   1.817
96570W        W61731  20.100   6.359   1.687
96571W        W61732  24.125  20.545  11.364
96572W        W61733  12.099  27.623  12.184
96573W        W61734  10.331  15.656  11.044
96574W        W61735  31.711  23.534   1.274
96575W        W61736  23.013  13.396   3.289
96576W        W61737  10.774  20.761   0.543
96577W        W61738  31.731  27.019   0.945
96578W        W61739  11.744   7.210  11.003
96579W        W61740  43.031  42.856   1.393
96580W        W61741  36.448  26.960  11.095
96581W        W61742  21.606  39.324   0.825
96582W        W61743  25.177  29.948   4.251
96583W        W61744  39.629  40.323  14.948
96584W        W61745  20.625  22.717   3.707
96585W        W61746  34.575  34.297   0.145
96586W        W61747  37.510  24.895  12.598
96587W        W61748  12.314  33.664   4.053
96588W        W61749  32.578  37.875   5.237
96589W        W61750  36.576  37.952  14.431
96590W        W61751  27.238  26.726   4.288
96591W        W61752  14.809   7.608   1.368
96592W        W61753  30.203  41.434   3.637
96593W        W61754  30.334   4.192   3.160
96594W        W61755  26.855  39.850   2.988
96595W        W61756  17.189  26.529  12.372
96596W        W61757  11.308  18.540  10.684
96597W        W61758  30.504   0.540   2.461
96598W        W61759  32.453  14.824   2.019
96599W        W61760  11.838   1.426   2.741
96600W        W61761  16.096  39.025   9.673
96601W        W61762   7.771  44.212  11.108
96602W        W61763  22.883   2.313  13.394
96603W        W61764  21.624  33.546  13.948
96604W        W61765   9.854   7.073  14.486
96605W        W61766  31.927  42.727  11.949
96606W        W61767   4.029   3.259   3.584
96607W        W61768  21.600  15.518   3.085
96608W        W61769  29.471  40.079   3.668
96609W        W61770  22.174  20.010   0.963
96610W        W61771  37.705  13.303   0.727
96611W        W61772   9.746   8.835   2.637
96612W        W61773  16.343  34.969   1.645
96613W        W61774   9.218  38.560  13.938
96614W        W61775  12.112  43.549  14.179
96615W        W61776  20.843  20.714   1.864
96616W        W61777  41.602   1.478  11.990
96617W        W61778  15.247   1.292  12.031
96618W        W61779   2.143  17.909  11.739
96619W        W61780  33.993   1.982  10.861
96620W        W61781   0.715  30.953  12.915
96621W        W61782  20.700  13.877   1.912
96622W        W61783  11.507   3.623   3.190
96623W        W61784  31.410  15.801   0.765
96624W        W61785  23.190  10.686  13.946
96625W        W61786   0.738  28.410  13.782
96626W        W61787  36.467  40.331   5.164
96627W        W61788   4.993   4.002   4.170
96628W        W61789  37.419   2.343   2.556
96629W        W61790  36.523   4.821   3.161
96630W        W61791  38.640  26.688   2.307
96631W        W61792  25.552   3.763  13.417
96632W        W61793   7.314  21.325  12.112
96633W        W61794  17.526  12.374  11.602
96634W        W61795  42.899  10.600   4.256
96635W        W61796  12.201   1.007   0.258
96636W        W61797   1.006  20.056   9.965
96637W        W61798  25.562  30.054   2.497
96638W        W61799  10.215  17.113   4.018
96639W        W61800  33.027  36.861   0.844
96640W        W61801  14.760  29.403   0.395
96641W        W61802  21.986  36.615  13.368
96642W        W61803   1.907  42.809  12.497
96643W        W61804  43.700  24.691   1.890
96644W        W61805   7.033  10.369  10.831
96645W        W61806  11.556  37.209   4.990
96646W        W61807  19.556  19.596   1.964
96647W        W61808  25.367  20.660  12.427
96648W        W61809  38.282  20.523  11.283
96649W        W61810  27.904  40.435  12.366
96650W        W61811  40.447   0.984   1.670
96651W        W61812  43.158  19.156   4.739
96652W        W61813  30.519  43.209  12.887
96653W        W61814  28.063   6.281   0.009
96654W        W61815   9.216  11.938  11.932
96655W        W61816  12.304  36.374   0.234
96656W        W61817   3.671  12.542   1.798
96657W        W61818  44.006  15.008  13.400
96658W        W61819  30.128  21.728  11.580
96659W        W61820  16.974  27.090   2.677
96660W        W61821  31.107  18.996  13.311
96661W        W61822  17.762  30.159  13.793
96662W        W61823  23.327  37.819  14.483
96663W        W61824  11.258  18.709  11.551
96664W        W61825   2.361  43.280   4.554
96665W        W61826   1.966  32.331   3.751
96666W        W61827  17.593  13.271   0.546
96667W        W61828  26.206  18.949   2.698
96668W        W61829  26.173  41.776   4.112
96669W        W61830   6.256  35.561  11.673
96670W        W61831  17.089  10.719   4.354
96671W        W61832  34.670  40.697   0.311
96672W        W61833  22.131  20.479  10.245
96673W        W61834  35.917  38.594  12.342
96674W        W61835   4.429   9.789   1.079
96675W        W61836  27.735   9.691  14.978
96676W        W61837  36.582  16.715   4.059
96677W        W61838  42.977  37.659  14.496
96678W        W61839  18.300  28.997  12.386
96679W        W61840  12.596  31.592   4.174
96680W        W61841  44.726  33.600  10.732
96681W        W61842  17.493  17.529  12.951
96682W        W61843  22.621  16.312  10.235
96683W        W61844  43.238  40.886   0.832
96684W        W61845  26.574  13.568   4.204
96685W        W61846  42.454  27.919   2.710
96686W        W61847   1.847  44.049   0.369
96687W        W61848  29.927  43.699   4.855
96688W        W61849  17.819   5.459   2.153
96689W        W61850  42.559  19.216  10.956
96690W        W61851  26.563  14.735   1.424
96691W        W61852  20.236  17.009   2.736
96692W        W61853  11.870  22.588   5.196
96693W        W61854  27.550   8.717  14.485
96694W        W61855  38.321  30.409  13.052
96695W        W61856   6.880  18.107  13.409
96696W        W61857   6.208   7.747  14.107
96697W        W61858  41.836  21.155  14.405
96698W        W61859  11.561  27.965  13.928
96699W        W61860  35.993  26.555   1.796
96700W        W61861  36.336  36.044  11.764
96701W        W61862  44.043  43.792  14.463
96702W        W61863  15.682  27.240  12.619
96703W        W61864   9.789  14.367  11.183
96704W        W61865  37.052   5.724   2.682
96705W        W61866  38.703   3.955  14.337
96706W        W61867  14.160   9.080  12.442
96707W        W61868  20.159  34.465   4.140
96708W        W61869  38.912  15.804   4.039
96709W        W61870   9.872   8.669  12.869
96710W        W61871   3.316  17.223   0.792
96711W        W61872   0.428  20.880   1.257
96712W        W61873  18.363   1.424   3.457
96713W        W61874   5.727  27.196  14.719
96714W        W61875  14.099  23.745   4.490
96715W        W61876  38.799  40.452  12.669
96716W        W61877   4.442  38.379  14.449
96717W        W61878  41.633  41.999  10.831
96718W        W61879  36.584  15.868  13.025
96719W        W61880  18.023   7.178   3.252
96720W        W61881  23.771  42.746  11.151
96721W        W61882  40.555  38.212   2.318
96722W        W61883  40.686  11.156  12.970
96723W        W61884  20.325  28.171   3.733
96724W        W61885  29.867  18.226  10.644
96725W        W61886  44.815   1.035   3.259
96726W        W61887  20.426  28.052  12.415
96727W        W61888  22.133  17.632  10.205
96728W        W61889  21.657   9.373   0.951
96729W        W61890  37.792  35.283   2.638
96730W        W61891  23.561   9.277  11.531
96731W        W61892   7.301   1.420  12.858
96732W        W61893  14.599  22.195  12.121
96733W        W61894  22.500  33.719  12.137
96734W        W61895  19.510  42.409  14.089
96735W        W61896   4.468  35.448   0.906
96736W        W61897  10.617   2.539  12.969
96737W        W61898  12.362   3.312   0.331
96738W        W61899   0.912  24.607  11.903
96739W        W61900  17.129   0.518  10.749
96740W        W61901  36.020   5.140   4.562
96741W        W61902  44.064  42.905   1.116
96742W        W61903  25.748  29.993   4.562
96743W        W61904  17.566   8.481  14.396
96744W        W61905   9.024  26.651  11.064
96745W        W61906  28.060  23.906   2.605
96746W        W61907   1.668  11.561   3.665
96747W        W61908  30.363  42.679   4.180
96748W        W61909  18.689  42.195  12.101
96749W        W61910  26.264  27.807  14.305
96750W        W61911  20.711  35.608  12.025
96751W        W61912  33.887   0.240   4.924
96752W        W61913  43.896  33.232   0.737
96753W        W61914  39.360   1.358  14.766
96754W        W61915  13.765   1.663  11.690
96755W        W61916  10.783  43.264   2.737
96756W        W61917  42.350  32.075   1.495
96757W        W61918  16.890  39.055  11.189
96758W        W61919  24.641  36.314   1.758
96759W        W61920  37.960  23.247  11.589
96760W        W61921  11.646  19.682   3.092
96761W        W61922   2.308   0.063  12.044
96762W        W61923   7.506  39.850  12.126
96763W        W61924  38.567  39.261  14.306
96764W        W61925   2.467  23.350  11.066
96765W        W61926  21.250  21.527  14.979
96766W        W61927  29.534  39.695   4.996
96767W        W61928   6.813   3.985   4.450
96768W        W61929  25.452   3.774  11.950
96769W        W61930  17.032  18.680  11.955
96770W        W61931   6.864  20.064  12.165
96771W        W61932  27.580  44.325  14.339
96772W        W61933  34.571  13.760  11.854
96773W        W61934  16.693  27.906  10.874
96774W        W61935   8.350  33.559   2.454
96775W        W61936  37.396   9.805  13.505
96776W        W61937  28.558   5.241   0.430
96777W        W61938  19.287  17.430   4.607
96778W        W61939  39.622   2.470   0.811
96779W        W61940  13.330  26.688  13.395
96780W        W61941  10.644  39.970   2.491
96781W        W61942  24.589  18.798   1.952
96782W        W61943  14.912  40.912   1.633
96783W        W61944  42.063   2.059   0.437
96784W        W61945  24.122  26.266   3.733
96785W        W61946   7.884  16.673   2.376
96786W        W61947  13.061  18.854  14.749
96787W        W61948   1.792   3.156  11.600
96788W        W61949   2.239   0.395  13.335
96789W        W61950  14.086  28.973   3.747
96790W        W61951  22.131  41.313  14.890
96791W        W61952  15.140  17.202  10.945
96792W        W61953  23.344  14.581   4.640
96793W        W61954  22.347   2.275   3.172
96794W        W61955  23.917  32.941  13.047
96795W        W61956  36.601  20.717  14.424
96796W        W61957  29.855  36.476  11.107
96797W        W61958   7.989  40.802  11.831
96798W        W61959  32.101  43.460   3.847
96799W        W61960  23.921  14.877  13.543
96800W        W61961  24.250  41.518   2.742
96801W        W61962  18.941  42.591   2.612
96802W        W61963  23.964  37.357   3.031
96803W        W61964  24.735  12.868   3.340
96804W        W61965   3.817   3.667   2.388
96805W        W61966  24.837  28.853   0.748
96806W        W61967  38.250   6.254  12.932
96807W        W61968  11.455  30.569  11.433
96808W        W61969   3.098  26.279   9.377
96809W        W61970  36.586   6.492   3.312
96810W        W61971  16.531  14.193  14.775
96811W        W61972  18.264  17.972   2.586
96812W        W61973  19.540  10.780  11.986
96813W        W61974  20.474  35.409  11.580
96814W        W61975  35.603   9.849   3.925
96815W        W61976  25.093  28.123   0.380
96816W        W61977  16.282  13.203   0.760
96817W        W61978  28.927   3.432  11.518
96818W        W61979  11.909   1.014  13.125
96819W        W61980  39.029  20.775   2.224
96820W        W61981  39.032   2.668  11.200
96821W        W61982   6.308   1.986  14.446
96822W        W61983  35.500  24.620   4.774
96823W        W61984  17.685   2.537   2.274
96824W        W61985   2.489   1.503   3.239
96825W        W61986  39.466  22.909   0.618
96826W        W61987  29.029  21.617   1.275
96827W        W61988  13.952  18.795   3.716
96828W        W61989  14.707  23.014  12.999
96829W        W61990  30.655  36.367  13.924
96830W        W61991  38.562  19.630  12.487
96831W        W61992  37.880   6.059   2.617
96832W        W61993   5.885   2.439   2.274
96833W        W61994  35.079  38.323  13.612
96834W        W61995   8.212  44.303  14.915
96835W        W61996  26.534  32.506  12.461
96836W        W61997   5.253   0.762   2.306
96837W        W61998  35.818  32.938   2.692
96838W        W61999  22.996   9.195  13.976
96839W        W62000  26.173  34.342  12.456
96840W        W62001  22.051  43.769   2.427
96841W        W62002  23.266  16.286   2.367
96842W        W62003  37.254  27.079  13.477
96843W        W62004   2.708   5.803  11.484
96844W        W62005   5.744   9.142  13.884
96845W        W62006   9.785  18.761  12.521
96846W        W62007  36.805  21.992   3.821
96847W        W62008  19.557  20.680  13.019
96848W        W62009  38.405  33.242   2.445
96849W        W62010   5.392  32.419   1.396
96850W        W62011  43.908  21.889   0.733
96851W        W62012  34.847  28.434  14.471
96852W        W62013   7.668   7.268  14.949
96853W        W62014   4.332  24.645   1.974
96854W        W62015  30.640  40.910  11.948
96855W        W62016  44.646  40.637  11.964
96856W        W62017  19.094  25.049  11.568
96857W        W62018  39.018  32.002   4.661
96858W        W62019  31.815  20.652   2.185
96859W        W62020  33.799  24.600   5.044
96860W        W62021   6.150  15.694  13.858
96861W        W62022  27.102  20.627  14.415
96862W        W62023  13.195  40.551   2.794
96863W        W62024  27.504  10.136   1.879
96864W        W62025  24.623  26.178   3.703
96865W        W62026  28.707  41.229  11.056
96866W        W62027  27.270  10.249   2.569
96867W        W62028  21.710   4.248   1.612
96868W        W62029  37.941  34.641   4.590
96869W        W62030   8.873  28.670   1.255
96870W        W62031  15.246  16.529   1.704
96871W        W62032  21.662  11.315   1.798
96872W        W62033  19.639  30.730  12.029
96873W        W62034  19.205  42.053   0.882
96874W        W62035  19.893  18.709  13.806
96875W        W62036  14.016  37.937  14.324
96876W        W62037  21.605   7.130   4.957
96877W        W62038  12.633   7.208   3.637
96878W        W62039  17.274  13.988  10.274
96879W        W62040  18.340  29.090  10.679
96880W        W62041  10.608  14.274   3.193
96881W        W62042  39.688  20.246  14.123
96882W        W62043  14.074  19.205   4.777
96883W        W62044   8.692   7.325  14.949
96884W        W62045  21.709  20.585   1.690
96885W        W62046  33.823  12.706   0.285
96886W        W62047  20.045  38.794   9.930
96887W        W62048  13.648  23.052   3.742
96888W        W62049   9.860  25.239   1.487
96889W        W62050   3.393  23.169   1.746
96890W        W62051  31.464  36.109   1.836
96891W        W62052   0.857  42.982  14.125
96892W        W62053  24.342   3.443  11.117
96893W        W62054  43.429  27.481   3.412
96894W        W62055  36.330  36.460   1.342
96895W        W62056  24.520   1.067   2.986
96896W        W62057  14.482   4.473  14.008
96897W        W62058  44.220  40.889   3.484
96898W        W62059  29.954   4.870   1.486
96899W        W62060  24.122  40.843  12.157
96900W        W62061  25.680  20.292  11.667
96901W        W62062  24.924  25.171   4.132
96902W        W62063  27.272  23.512   5.096
96903W        W62064  13.119  34.289   3.115
96904W        W62065  42.254  38.865  11.490
96905W        W62066  12.417  31.967   2.214
96906W        W62067  26.483  39.811   2.607
96907W        W62068  18.549  25.902  14.273
96908W        W62069  41.028  30.200   4.306
96909W        W62070  40.519   2.510  11.248
96910W        W62071   7.540   0.377   3.424
96911W        W62072   4.390  43.936   0.699
96912W        W62073  42.195  14.323   0.792
96913W        W62074   0.703  25.327   4.545
96914W        W62075  18.823  40.917  11.018
96915W        W62076  16.731  31.658   1.753
96916W        W62077  22.436  31.813  13.050
96917W        W62078  32.854  24.139   3.673
96918W        W62079  36.889   9.896   4.667
96919W        W62080   3.342  44.527   2.833
96920W        W62081  27.677  10.169  10.617
96921W        W62082  23.335   9.759   2.240
96922W        W62083   8.191  26.945   9.872
96923W        W62084  13.540  13.281  12.899
96924W        W62085  23.932  19.255  14.846
96925W        W62086  23.795  38.039   0.452
96926W        W62087   1.842  33.477   0.484
96927W        W62088   1.384  12.691   1.897
96928W        W62089  43.325  11.818  14.808
96929W        W62090  16.374   6.747   4.686
96930W        W62091  23.663   7.073  11.104
96931W        W62092  42.329  26.572  14.027
96932W        W62093  14.397   8.174  14.412
96933W        W62094  17.360  30.457  14.351
96934W        W62095  36.644  43.685  11.522
96935W        W62096  39.099  10.265   5.171
96936W        W62097  12.114  19.766  11.475
96937W        W62098   9.250  24.982   0.386
96938W        W62099   6.109   2.561   3.106
96939W        W62100  13.230  16.572  12.547
96940W        W62101  34.956   7.477  14.114
96941W        W62102  29.292   3.812   1.669
96942W        W62103  25.341  30.129  11.905
96943W        W62104  12.874  42.292  13.415
96944W        W62105   1.473  21.090  12.142
96945W        W62106  11.742  27.405   0.574
96946W        W62107  37.596  12.404   2.337
96947W        W62108  17.059  25.556  12.104
96948W        W62109  30.699   5.542   1.286
96949W        W62110  14.694  29.390   4.861
96950W        W62111  43.997  35.167   9.812
96951W        W62112   9.765  31.030  13.433
96952W        W62113  34.396  32.022  10.614
96953W        W62114  34.420  22.663   0.848
96954W        W62115   9.932   7.913  13.921
96955W        W62116   4.188  35.462   3.361
96956W        W62117   2.726  39.588   2.362
96957W        W62118  14.852  41.036  14.466
96958W        W62119  38.370   6.892   3.903
96959W        W62120   3.051  38.381  10.714
96960W        W62121  42.504  22.511  11.121
96961W        W62122  12.697   0.920   0.456
96962W        W62123  37.342  25.124  13.035
96963W        W62124  12.374  17.206   2.296
96964W        W62125  33.462  26.177   4.576
96965W        W62126  28.597  38.631  12.570
96966W        W62127  41.628  31.565   0.257
96967W        W62128  22.522  12.604  10.813
96968W        W62129  38.887  11.844  11.705
96969W        W62130   9.620   5.186   1.326
96970W        W62131  15.026   8.763   5.074
96971W        W62132  21.599  39.701  12.981
96972W        W62133  40.237   8.154  13.528
96973W        W62134  32.930  28.071   4.549
96974W        W62135  12.791  34.990  10.674
96975W        W62136  17.089  42.859   2.751
96976W        W62137  23.519  19.784  14.979
96977W        W62138  11.892  36.617   1.371
96978W        W62139   9.138  42.703   3.680
96979W        W62140  27.304  27.471  11.795
96980W        W62141  42.458   6.750   1.484
96981W        W62142   7.318  22.702  10.747
96982W        W62143  36.702   7.998  13.909
96983W        W62144  39.419  39.810   2.944
96984W        W62145  24.530  42.219  14.766
96985W        W62146  26.885   2.442   1.413
96986W        W62147  22.539   3.241  11.535
96987W        W62148   4.046  18.511  11.224
96988W        W62149   9.490  30.944  11.710
96989W        W62150  35.549  33.128  11.034
96990W        W62151  37.629   9.797   3.224
96991W        W62152  37.081  12.551   2.317
96992W        W62153  13.665  16.649   2.301
96993W        W62154  24.201   1.332  11.589
96994W        W62155  38.869  37.470  13.386
96995W        W62156  16.942  42.573  11.539
96996W        W62157   4.922  23.415  12.513
96997W        W62158  36.599   2.945  11.160
96998W        W62159  22.837  24.704  12.330
96999W        W62160  30.847  38.481   1.932
97000W        W62161  43.394  21.264   0.392
97001W        W62162  14.381  25.060   2.343
97002W        W62163  21.705  34.396  13.904
97003W        W62164  26.721  21.158  11.502
97004W        W62165  44.857  22.958   1.900
97005W        W62166  40.947  37.680   4.961
97006W        W62167  30.173  15.451  13.359
97007W        W62168  41.323  12.717  11.398
97008W        W62169   8.258  14.738  14.761
97009W        W62170  15.605  22.138   0.741
97010W        W62171  33.863  40.627   2.736
97011W        W62172  24.858   9.638  12.265
97012W        W62173  13.366   1.852  11.992
97013W        W62174  37.900  10.413  11.578
97014W        W62175   8.096  43.788  12.571
97015W        W62176  34.965  35.680  10.734
97016W        W62177   8.289  41.239  12.637
97017W        W62178  28.613  32.922  13.067
97018W        W62179  23.203  13.652   0.258
97019W        W62180  22.131  30.134  12.959
97020W        W62181  16.156  15.662  11.994
97021W        W62182  18.293  41.773  12.525
97022W        W62183  32.144  11.442  11.512
97023W        W62184  29.501  19.512  11.280
97024W        W62185  11.076  37.062   4.792
97025W        W62186   7.155  41.819   4.955
97026W        W62187  20.090   6.764   3.767
97027W        W62188  12.872  18.949  12.067
97028W        W62189  12.410  20.443  13.390
97029W        W62190  14.801  10.057  13.942
97030W        W62191   8.133   1.064   2.267
97031W        W62192   1.219  40.497  13.391
97032W        W62193   1.824  31.437  10.771
97033W        W62194  38.189  22.004  14.436
97034W        W62195  43.581   5.793   1.321
97035W        W62196  10.574  39.106   2.897
97036W        W62197  11.728  26.461   2.793
97037W        W62198  10.861  31.010   3.885
97038W        W62199  21.989  37.131   0.371
97039W        W62200   5.041  18.690   0.198
97040W        W62201  12.155  40.972   3.635
97041W        W62202  14.837  14.313   2.856
97042W        W62203   2.245  28.584   2.341
97043W        W62204  21.618  40.387   1.393
97044W        W62205   2.371   2.717  10.653
97045W        W62206  40.540  23.260  13.949
97046W        W62207  35.571  27.603   1.260
97047W        W62208  44.790  30.863  11.546
97048W        W62209  15.650  26.893   3.760
97049W        W62210   3.884  34.507   2.877
97050W        W62211  28.191  35.148   2.749
97051W        W62212   3.869   1.755  10.937
97052W        W62213  24.617  29.024  10.547
97053W        W62214  14.140  19.205  11.156
97054W        W62215  35.791  12.314  14.297
97055W        W62216   8.243  13.232   4.330
97056W        W62217  17.711   8.068   1.219
97057W        W62218   6.089  16.751   3.145
97058W        W62219   3.832   4.773  12.147
97059W        W62220  34.366  26.024   1.655
97060W        W62221  17.102   4.952   1.712
97061W        W62222  42.063  34.812   1.698
97062W        W62223  13.243  42.145  13.071
97063W        W62224  26.082  28.899   1.431
97064W        W62225  10.974   4.863  12.311
97065W        W62226   2.114  37.155  14.973
97066W        W62227   0.668  19.343   0.668
97067W        W62228  27.043  22.723  12.001
97068W        W62229  29.940  43.621   0.767
97069W        W62230   3.390   2.496   4.507
97070W        W62231  21.809  32.415   2.993
97071W        W62232   4.412  32.027   3.225
97072W        W62233  25.194  32.653   2.630
97073W        W62234  39.025  23.676  10.248
97074W        W62235  37.697  25.701   1.625
97075W        W62236   8.154  35.206   1.861
97076W        W62237  12.080  20.012  13.443
97077W        W62238  29.002  16.345   1.803
97078W        W62239  30.007  44.040   1.731
97079W        W62240  18.679  12.383   2.819
97080W        W62241  25.653  29.712  11.952
97081W        W62242  22.947  21.121  11.100
97082W        W62243  23.815   7.954   2.045
97083W        W62244   2.875  41.843   0.960
97084W        W62245  35.520  35.130   1.799
97085W        W62246  25.630  17.028  13.966
97086W        W62247  31.060  22.354   2.266
97087W        W62248  40.131   5.314   1.295
97088W        W62249  24.708  43.014  10.922
97089W        W62250   7.476  35.913  13.398
97090W        W62251  19.269  24.232  10.281
97091W        W62252   0.565  34.709  11.385
97092W        W62253  19.291  17.444  13.492
97093W        W62254   0.963   3.524  11.555
97094W        W62255   7.470  30.148   3.237
97095W        W62256  38.312  32.544  13.388
97096W        W62257  28.410   6.884   0.912
97097W        W62258   5.514  13.352  14.414
97098W        W62259  25.050  35.484   4.192
97099W        W62260  19.141  43.296  13.355
97100W        W62261   3.839  27.479   2.693
97101W        W62262  10.098  25.629  11.232
97102W        W62263   1.258  27.514   3.230
97103W        W62264  10.418   4.737  11.699
97104W        W62265  24.004  29.511  11.180
97105W        W62266  38.676  14.094  12.540
97106W        W62267  31.007  33.106   4.358
97107W        W62268  35.718   6.763  14.072
97108W        W62269  31.975  18.112   1.888
97109W        W62270   6.702   4.034   3.959
97110W        W62271   3.195  23.525   4.634
97111W        W62272  31.074  34.395   3.873
97112W        W62273  38.119   1.932   3.741
97113W        W62274  35.809  22.251  11.630
97114W        W62275  39.504  21.133  10.487
97115W        W62276   9.733   6.083   1.337
97116W        W62277  28.966  32.583   3.623
97117W        W62278   8.368  33.950   2.135
97118W        W62279  30.195   0.744  12.445
97119W        W62280  11.746  32.591   3.803
97120W        W62281  26.989  40.881  14.570
97121W        W62282  19.159  27.266   1.759
97122W        W62283  20.716   3.383  13.514
97123W        W62284  14.312  10.369  13.041
97124W        W62285  22.241   5.990  10.622
97125W        W62286  41.065   9.652   4.725
97126W        W62287  11.593  31.001  11.188
97127W        W62288  29.856  16.747   2.710
97128W        W62289  37.142  43.248  13.484
97129W        W62290  44.234  18.907  14.428
97130W        W62291  43.840  19.192  14.322
97131W        W62292   8.810   3.973   3.257
97132W        W62293   0.289   0.218  10.760
97133W        W62294  32.678  32.083   2.037
97134W        W62295  13.245   4.459  13.435
97135W        W62296  13.685  19.258  10.924
97136W        W62297   3.439  24.631  14.786
97137W        W62298  22.315  42.773  11.200
97138W        W62299   2.246  40.409  11.522
97139W        W62300   0.812  33.954   1.835
97140W        W62301  34.457  29.472  12.687
97141W        W62302  13.447  40.935  14.384
97142W        W62303  23.530  38.084  11.639
97143W        W62304   6.157  41.091   4.504
97144W        W62305   3.245  28.647   3.094
97145W        W62306  43.273  44.122  11.329
97146W        W62307   1.506  28.901   1.705
97147W        W62308  23.160  42.395  10.523
97148W        W62309  38.351  15.159  14.514
97149W        W62310   7.679  14.886   3.154
97150W        W62311  39.315  16.985   0.657
97151W        W62312  12.353  33.363   0.866
97152W        W62313  24.071   6.091   1.441
97153W        W62314   1.372  12.108  12.865
97154W        W62315  20.128  24.955   4.469
97155W        W62316  12.945  32.294  13.476
97156W        W62317  23.199  14.953  11.102
97157W        W62318  32.810  38.198  12.834
97158W        W62319  35.313  12.775  12.073
97159W        W62320  40.746  29.361  11.552
97160W        W62321  28.229  36.566  14.201
97161W        W62322  42.320  27.271  13.384
97162W        W62323   9.661  17.124   0.507
97163W        W62324  27.031  25.495   2.387
97164W        W62325   4.310   4.414   4.085
97165W        W62326  17.023   9.422   0.253
97166W        W62327  33.162  17.030  13.923
97167W        W62328   7.790  37.616   5.109
97168W        W62329  17.609  26.190  10.647
97169W        W62330  33.530  32.048   2.358
97170W        W62331  23.149  29.644   1.504
97171W        W62332  23.052   8.134   4.684
97172W        W62333  19.155  19.661   4.369
97173W        W62334  12.883  39.982   4.928
97174W        W62335  28.869  21.702   0.288
97175W        W62336   1.863  19.865   3.297
97176W        W62337  38.816  29.771   1.367
97177W        W62338  32.613  12.808  13.471
97178W        W62339  38.850  36.562   3.890
97179W        W62340  37.227  18.715  13.877
97180W        W62341  37.813  18.779  13.011
97181W        W62342  38.014  29.893   0.700
97182W        W62343  18.278  33.221   2.689
97183W        W62344  29.553  37.620   0.304
97184W        W62345  16.025  10.829   3.400
97185W        W62346  12.567  11.154   2.109
97186W        W62347   0.749  27.635   0.462
97187W        W62348   5.609  43.273   3.206
97188W        W62349  39.759  28.054  13.488
97189W        W62350  34.581  27.869   0.300
97190W        W62351   3.259  24.644  12.484
97191W        W62352   7.611  17.214   3.692
97192W        W62353  32.181  30.433  12.449
97193W        W62354  42.316  22.823   2.164
97194W        W62355  16.152  43.511   4.613
97195W        W62356  30.545  39.976  12.698
97196W        W62357  22.550  18.051   4.667
97197W        W62358  28.968   8.331  14.321
97198W        W62359   8.894   0.867   1.872
97199W        W62360  19.696  16.832  12.016
97200W        W62361  25.435  44.242  13.527
97201W        W62362   8.437  13.827   2.805
97202W        W62363   0.310  24.229   1.762
97203W        W62364  35.824   3.974  13.808
97204W        W62365  26.004  20.605   2.871
97205W        W62366  34.140  14.248   4.201
97206W        W62367  12.070  15.319  12.014
97207W        W62368  40.641  25.194   0.950
97208W        W62369  16.728  17.250   0.023
97209W        W62370   9.624  42.303  12.369
97210W        W62371  13.156  15.131   3.296
97211W        W62372   2.027  37.704  11.044
97212W        W62373   7.774   0.410  10.673
97213W        W62374  41.590  33.460   1.588
97214W        W62375  13.956  40.867   1.760
97215W        W62376  16.768  37.121   3.266
97216W        W62377  13.233  19.280  11.655
97217W        W62378   5.719  36.482  10.423
97218W        W62379  14.139   5.412   3.591
97219W        W62380  42.776  15.546  13.479
97220W        W62381   8.648   9.289   2.673
97221W        W62382  38.568  16.667   2.679
97222W        W62383  11.399  24.193  13.852
97223W        W62384  20.953  18.439  10.810
97224W        W62385  31.892  29.392  14.073
97225W        W62386  20.675  40.551   3.784
97226W        W62387   5.501  31.155  14.586
97227W        W62388  44.213  22.254  12.878
97228W        W62389  10.678  20.696  12.429
97229W        W62390  26.194  35.070   0.727
97230W        W62391   3.653   4.481   2.789
97231W        W62392  23.510  37.707   4.248
97232W        W62393  35.250  29.218   3.689
97233W        W62394   8.957  16.754   3.952
97234W        W62395  18.143  34.911   0.311
97235W        W62396  42.297   1.426   2.365
97236W        W62397  25.660  42.245   4.588
97237W        W62398   5.885  42.636  12.716
97238W        W62399   4.847  41.412   0.287
97239W        W62400  16.801  37.690   2.313
97240W        W62401  10.093  44.010  12.970
97241W        W62402  22.622  11.735  13.091
97242W        W62403  29.162  25.237  12.146
97243W        W62404  28.680   6.154  12.787
97244W        W62405  41.503  22.259   4.019
97245W        W62406  22.160  20.090   4.966
97246W        W62407  40.455  18.956   2.430
97247W        W62408   8.882   9.373   2.182
97248W        W62409  44.080  35.770  14.025
97249W        W62410  30.173  16.567  11.158
97250W        W62411  32.322   3.970   1.388
97251W        W62412   5.397  35.620  11.379
97252W        W62413  12.767  26.213  14.145
97253W        W62414  27.712   1.740   3.231
97254W        W62415   6.967  13.304   0.676
97255W        W62416  30.418   2.727   4.051
97256W        W62417  28.465   4.632  12.931
97257W        W62418  24.514   7.414   1.288
97258W        W62419  13.709  40.927  13.882
97259W        W62420  40.418  22.926   4.112
97260W        W62421  30.126  24.154   2.767
97261W        W62422   1.550   3.114   1.803
97262W        W62423  25.712  20.282   0.227
97263W        W62424  18.360  37.324   4.323
97264W        W62425  23.162  27.024   4.476
97265W        W62426  30.012  44.927  14.069
97266W        W62427  16.788   6.163  13.485
97267W        W62428  22.505   5.463   0.467
97268W        W62429  13.954  15.785   0.855
97269W        W62430  20.351  27.532   3.103
97270W        W62431  44.098  11.168   1.666
97271W        W62432  18.200   5.051   0.463
97272W        W62433  43.413  18.140   0.307
97273W        W62434  38.994  11.232   1.276
97274W        W62435  12.380  37.240  12.491
97275W        W62436   2.141  42.352  12.472
97276W        W62437  38.415   3.837   1.659
97277W        W62438  39.592  20.275  12.002
97278W        W62439  41.278   9.810   2.427
97279W        W62440  26.182  16.776  14.520
97280W        W62441  37.460  20.281   3.695
97281W        W62442  40.051  23.017  14.829
97282W        W62443  40.239  43.884   2.814
97283W        W62444  43.541   9.471  12.020
97284W        W62445  25.149  22.484  14.746
97285W        W62446  25.108   0.309   1.686
97286W        W62447  35.904  38.844  10.656
97287W        W62448   9.918  31.184   0.837
97288W        W62449   0.918  10.114  12.815
97289W        W62450  21.888  28.818  13.478
97290W        W62451  10.667  27.184   2.323
97291W        W62452  41.402  13.158   3.736
97292W        W62453  35.253  17.596  11.103
97293W        W62454  17.744  20.614   1.907
97294W        W62455  24.957   1.919   4.751
97295W        W62456  25.943  30.160   0.987
97296W        W62457  39.312  22.170  13.424
97297W        W62458  44.222   9.984  12.650
97298W        W62459  39.499   0.266  14.480
97299W        W62460   7.923  26.577  12.920
97300W        W62461  33.586  16.040  13.857
97301W        W62462  28.794  40.007   9.868
97302W        W62463  29.654  44.725   1.850
97303W        W62464  38.898  44.231  12.513
97304W        W62465   3.133  35.888   0.839
97305W        W62466  15.138  33.612   3.231
97306W        W62467   9.896   3.016   0.363
97307W        W62468  37.473  26.980   2.380
97308W        W62469   3.713  19.635   3.441
97309W        W62470  33.108  27.508   1.320
97310W        W62471  16.279  43.096  13.451
97311W        W62472  25.231  12.303  11.918
97312W        W62473   6.779   9.744   1.048
97313W        W62474  34.999  21.565   0.088
97314W        W62475  23.338   5.769  13.521
97315W        W62476  42.419  20.073   1.352
97316W        W62477   4.984   4.444  14.890
97317W        W62478  32.261  31.475   0.898
97318W        W62479  36.600  16.610   1.266
97319W        W62480   6.219  18.930   0.757
97320W        W62481  19.000  15.691  10.341
97321W        W62482  39.061  31.066   4.779
97322W        W62483   3.352  35.855  12.590
97323W        W62484   0.332   7.366  11.152
97324W        W62485  13.551  35.564   0.461
97325W        W62486  16.231  21.791   1.714
97326W        W62487  41.536  26.252  14.331
97327W        W62488  12.086   2.795  14.382
97328W        W62489  40.376  21.933  14.424
97329W        W62490  30.319  40.318  11.950
97330W        W62491  39.710   3.348   4.567
97331W        W62492  24.795   7.873  12.580
97332W        W62493  13.606   4.882   1.337
97333W        W62494  25.433   6.349   1.786
97334W        W62495   4.775  12.558  12.288
97335W        W62496  25.631  29.220   1.236
97336W        W62497  31.044  44.508   0.737
97337W        W62498  23.346  24.536  12.440
97338W        W62499  40.962  13.655  13.669
97339W        W62500  26.115  11.355   2.775
97340W        W62501  40.960  25.261   1.341
97341W        W62502  11.595  42.870  13.718
97342W        W62503  40.299  23.972  13.450
97343W        W62504  16.360   2.890   4.172
97344W        W62505  27.399  42.259   0.787
97345W        W62506  26.634  40.438   1.374
97346W        W62507  22.782   2.768  11.549
97347W        W62508   4.195  25.223  14.757
97348W        W62509  15.219  29.874   3.853
97349W        W62510   2.523  41.805   1.804
97350W        W62511  27.446  12.398   4.503
97351W        W62512  35.737  25.044   1.871
97352W        W62513  34.480  11.015  13.581
97353W        W62514  26.726  31.668   2.479
97354W        W62515  10.446  18.413   2.649
97355W        W62516  41.407   6.163  14.806
97356W        W62517  35.557  19.100   0.347
97357W        W62518   7.346  27.748   3.666
97358W        W62519  30.975   5.869   4.198
97359W        W62520   6.634  28.704  12.325
97360W        W62521  26.692  15.281   0.355
97361W        W62522   1.107  21.722  14.883
97362W        W62523  28.377  27.503   4.531
97363W        W62524  14.690  19.178   0.890
97364W        W62525  33.591  12.454   0.891
97365W        W62526  12.246  13.306  12.956
97366W        W62527  17.609  21.410   3.293
97367W        W62528   8.465  21.790  14.955
97368W        W62529  26.732   9.062   2.656
97369W        W62530  16.983   0.863  12.593
97370W        W62531  11.374   6.710  10.937
97371W        W62532  28.379  36.951  14.558
97372W        W62533   6.373  15.621  11.989
97373W        W62534  22.915  20.300   5.403
97374W        W62535  38.931   8.629   2.304
97375W        W62536  18.666  13.780  11.487
97376W        W62537  23.666  22.211   0.401
97377W        W62538  35.185   4.783   4.733
97378W        W62539   4.783  29.626  11.194
97379W        W62540   3.481  44.281   0.025
97380W        W62541  34.986  39.530  14.248
97381W        W62542  19.237  30.486  13.133
97382W        W62543  17.694  17.308   2.798
97383W        W62544  35.578  43.791  14.227
97384W        W62545  12.613  18.777  12.647
97385W        W62546   0.079   2.883  13.387
97386W        W62547  14.297  42.239   1.969
97387W        W62548  33.723   1.869  13.963
97388W        W62549  21.224  20.947   2.824
97389W        W62550  15.055   0.446   4.622
97390W        W62551   7.230  42.945   2.502
97391W        W62552  35.514  22.473   2.315
97392W        W62553  41.182  18.120  12.022
97393W        W62554  16.851  30.513   2.481
97394W        W62555   8.351  38.870   2.162
97395W        W62556  30.983  30.098  13.011
97396W        W62557  38.957  39.376   2.174
97397W        W62558  35.571   3.368   1.769
97398W        W62559  29.003  20.771   4.021
97399W        W62560  40.416  32.578  14.755
97400W        W62561  16.508  29.521   1.092
97401W        W62562  40.800  34.542  12.373
97402W        W62563  15.136  14.130   1.448
97403W        W62564  13.481   9.207   3.867
97404W        W62565  20.481  19.765  14.924
97405W        W62566  28.551   9.077   4.929
97406W        W62567  23.582  14.870  11.636
97407W        W62568   9.926   0.458  12.322
97408W        W62569  19.225  25.463  11.292
97409W        W62570  43.465  17.006  11.176
97410W        W62571  32.435  30.086   2.213
97411W        W62572  29.021  36.570   4.454
97412W        W62573  40.051  14.828  14.707
97413W        W62574  30.246   0.866  14.918
97414W        W62575   8.115  27.071  12.962
97415W        W62576  13.601  38.385   0.765
97416W        W62577  21.802   9.172  12.533
97417W        W62578   1.188  31.415   0.504
97418W        W62579  43.474  40.243  11.638
97419W        W62580  33.344  34.300  11.534
97420W        W62581   4.463  24.776  14.880
97421W        W62582  38.457   3.328  12.081
97422W        W62583  44.450   6.840   1.892
97423W        W62584   9.569  39.893  13.085
97424W        W62585  40.362  22.659   4.573
97425W        W62586  34.907  17.649  11.527
97426W        W62587  32.179  44.423  13.005
97427W        W62588  12.355  40.273   3.197
97428W        W62589  28.302  31.096   2.738
97429W        W62590  18.660   1.187   4.615
97430W        W62591  16.510  37.056  12.876
97431W        W62592  43.806   6.320   2.140
97432W        W62593  11.838  44.507  11.686
97433W        W62594  28.069  43.359  12.293
97434W        W62595  35.161   1.397  11.187
97435W        W62596  35.094  10.641  12.236
97436W        W62597   9.995  39.236   4.145
97437W        W62598  34.637  14.570  14.959
97438W        W62599  41.481  30.349  12.346
97439W        W62600  40.533  33.152   1.217
97440W        W62601   6.051  23.960   2.612
97441W        W62602   7.562  25.214   4.752
97442W        W62603  15.211  19.699  12.522
97443W        W62604   7.993  43.468   0.642
97444W        W62605  29.415  31.230   3.344
97445W        W62606  41.021  26.059  12.100
97446W        W62607   8.495   6.336  14.593
97447W        W62608  26.414   2.749   4.127
97448W        W62609  33.948  34.831   0.977
97449W        W62610  19.001  25.183   3.271
97450W        W62611  31.211   3.014   4.168
97451W        W62612  33.138   1.826  12.929
97452W        W62613  11.323   6.077  13.978
97453W        W62614  39.105  40.732   2.214
97454W        W62615  25.062   8.323   2.944
97455W        W62616  36.647  42.983  11.103
97456W        W62617  30.000  34.082   4.501
97457W        W62618   6.626   0.021   2.702
97458W        W62619   3.375   4.599  12.022
97459W        W62620  27.575   1.209   3.404
97460W        W62621  19.802  15.784  14.961
97461W        W62622  15.718  35.727   3.547
97462W        W62623  12.312  13.188  12.438
97463W        W62624  39.495  27.785  14.897
97464W        W62625  31.583  27.183   4.101
97465W        W62626  42.891  44.388   0.241
97466W        W62627  23.937   6.982   1.249
97467W        W62628   1.923  34.021  11.151
97468W        W62629  40.738  40.441   5.386
97469W        W62630   1.566   3.707   1.347
97470W        W62631   3.440  28.621  14.203
97471W        W62632  39.033  37.437   2.415
97472W        W62633  43.413  39.345  12.118
97473W        W62634  39.475   6.908  10.782
97474W        W62635   9.408  32.670  10.639
97475W        W62636  41.979  24.535   1.021
97476W        W62637   6.314  18.320  11.760
97477W        W62638  32.037  40.982   1.321
97478W        W62639  31.626  42.275   2.752
97479W        W62640   8.305  35.141  11.529
97480W        W62641  19.536  10.800  14.926
97481W        W62642  23.048  32.491   3.229
97482W        W62643   7.876   0.577   1.860
97483W        W62644  27.435   1.803  11.120
97484W        W62645  40.805  13.758  10.621
97485W        W62646  40.810   5.785  12.099
97486W        W62647  42.341  10.477  10.502
97487W        W62648  12.892  30.200   4.028
97488W        W62649  16.640  29.535  12.522
97489W        W62650  38.477  41.288   1.722
97490W        W62651   7.662   3.440  11.484
97491W        W62652  42.457  43.732   1.341
97492W        W62653  16.700  17.554   2.215
97493W        W62654  26.733  36.179   0.315
97494W        W62655   3.453  33.417   3.708
97495W        W62656   1.484  33.908   3.232
97496W        W62657  40.963  24.210  12.510
97497W        W62658   4.866  12.623  13.955
97498W        W62659  16.969  33.562   4.999
97499W        W62660  33.043  23.232  11.867
97500W        W62661   4.690  39.384  14.036
97501W        W62662  36.457  35.825   0.536
97502W        W62663  16.640   0.487   4.610
97503W        W62664  18.871   2.039  10.759
97504W        W62665  30.730  14.093  13.662
97505W        W62666  23.091  22.727  13.025
97506W        W62667   9.728   5.571   2.160
97507W        W62668  27.644   6.109   0.795
97508W        W62669  30.090  12.615   0.800
97509W        W62670   6.744  10.847   1.206
97510W        W62671  26.581   8.153   2.657
97511W        W62672  32.412  19.580   0.231
97512W        W62673  21.080   0.461  12.546
97513W        W62674  39.309  37.630   3.267
97514W        W62675  15.132  27.500   1.687
97515W        W62676   7.323  22.275  12.549
97516W        W62677  26.127  26.034  14.970
97517W        W62678  19.545  44.949   1.025
97518W        W62679   9.737  16.671  12.622
97519W        W62680  20.561  41.060   3.832
97520W        W62681  20.071  26.115  12.636
97521W        W62682  11.337  39.023   3.286
97522W        W62683  32.455  35.815  12.778
97523W        W62684  17.631   3.291  10.632
97524W        W62685  35.812  36.790   3.770
97525W        W62686   6.933  12.432  13.558
97526W        W62687  43.577   9.964   3.300
97527W        W62688  36.723  29.691  12.491
97528W        W62689  31.519  28.539   0.247
97529W        W62690  32.638   5.677  13.908
97530W        W62691  21.243  33.000   4.266
97531W        W62692   5.659  16.822  11.155
97532W        W62693   6.785  39.828  10.636
97533W        W62694  28.004  40.262  11.890
97534W        W62695  34.435  23.524  13.286
97535W        W62696  14.422  36.524  11.989
97536W        W62697  28.597   6.605  14.608
97537W        W62698  35.504   6.920   0.731
97538W        W62699  27.098  34.477  12.835
97539W        W62700   0.523  22.229   1.203
97540W        W62701  36.919   1.177   3.681
97541W        W62702  35.545  32.602  14.132
97542W        W62703  19.425  39.420  10.812
97543W        W62704  22.725  43.038   2.299
97544W        W62705   9.845   5.042  14.341
97545W        W62706  19.171   2.975   0.229
97546W        W62707  27.295  32.638   2.197
97547W        W62708   5.355  29.984   1.458
97548W        W62709  39.817   8.204  14.471
97549W        W62710  13.790  19.730   0.921
97550W        W62711  37.409  21.326   4.074
97551W        W62712  13.124  44.262  10.449
97552W        W62713  26.666  44.488   1.263
97553W        W62714  21.054   4.427   4.765
97554W        W62715  43.242   2.208   2.747
97555W        W62716  11.184  15.566  14.345
97556W        W62717  44.822  40.456   1.878
97557W        W62718   9.040  28.848   2.407
97558W        W62719  32.228   7.473  10.744
97559W        W62720  22.540   7.510   2.158
97560W        W62721   8.756  17.916  11.739
97561W        W62722   9.873  36.904  13.841
97562W        W62723  40.301   5.851  12.177
97563W        W62724  35.582  39.816  14.433
97564W        W62725  31.897  37.324  14.555
97565W        W62726  33.704  44.368   0.793
97566W        W62727  36.820  16.629  12.113
97567W        W62728  29.556   0.563  14.465
97568W        W62729  12.104  13.786   3.478
97569W        W62730  21.674  26.107   3.448
97570W        W62731  34.449  25.581  12.449
97571W        W62732   4.955  11.807   2.718
97572W        W62733  18.610   8.328   1.306
97573W        W62734  20.634  44.606  10.633
97574W        W62735   3.059  30.508   4.468
97575W        W62736  28.623   7.450   0.661
97576W        W62737  13.313  11.307  11.980
97577W        W62738  10.236  11.308  10.585
97578W        W62739  34.886  37.062  14.399
97579W        W62740  38.475   6.085   2.129
97580W        W62741  24.920   4.761  14.807
97581W        W62742   3.628   7.193   4.524
97582W        W62743  41.852  10.351  12.081
97583W        W62744   8.494   9.280   0.378
97584W        W62745  40.991  36.292  13.683
97585W        W62746  43.746  11.051   2.879
97586W        W62747  32.180  23.167   1.706
97587W        W62748  37.861   4.353   4.151
97588W        W62749  40.714  26.083   1.746
97589W        W62750  37.498   2.930  14.971
97590W        W62751  32.647  11.719  13.440
97591W        W62752   7.079  27.093   2.272
97592W        W62753   5.907  36.091  10.807
97593W        W62754  11.466  10.919  14.935
97594W        W62755  41.272  14.773   3.713
97595W        W62756   0.457   3.062   3.263
97596W        W62757   4.248   2.553   1.807
97597W        W62758  10.209  26.975   3.050
97598W        W62759  19.940  40.079  13.482
97599W        W62760   0.868  19.805  11.185
97600W        W62761  17.595  22.710   0.897
97601W        W62762  27.608   5.555  14.690
97602W        W62763  29.319   5.774  14.568
97603W        W62764  19.237   0.984   0.103
97604W        W62765  30.846  34.750  12.036
97605W        W62766  30.821  26.957   2.365
97606W        W62767  44.351   8.753   4.410
97607W        W62768  16.196   7.303   2.246
97608W        W62769  25.954  11.444  12.051
97609W        W62770  37.046  16.293  11.569
97610W        W62771  23.179  11.670   0.834
97611W        W62772  23.515   9.875   0.943
97612W        W62773  31.985  18.310   3.678
97613W        W62774   0.833  20.320  11.184
97614W        W62775  12.285  13.381   2.185
97615W        W62776   2.991  16.144   4.030
97616W        W62777  23.469  30.087   3.438
97617W        W62778  28.397   5.632   1.780
97618W        W62779  17.162   0.208   0.349
97619W        W62780  13.017  19.490  14.395
97620W        W62781  27.184   5.419  11.875
97621W        W62782  18.080  38.897  10.638
97622W        W62783  42.975  26.237  12.050
97623W        W62784  12.086   4.146  12.515
97624W        W62785  31.675  33.234  13.329
97625W        W62786  36.914  38.405   3.252
97626W        W62787  36.106  26.470   3.241
97627W        W62788  19.054  30.746   3.798
97628W        W62789  39.951  32.031   4.173
97629W        W62790  14.925  25.529   9.919
97630W        W62791  36.167  35.116  13.861
97631W        W62792   7.274  36.283  13.070
97632W        W62793  44.956   0.363  14.959
97633W        W62794  26.480  34.066   4.799
97634W        W62795  19.343  18.502  14.977
97635W        W62796  10.039  40.313  10.123
97636W        W62797  37.795  38.919  13.906
97637W        W62798  12.697  19.253  14.820
97638W        W62799   2.500  42.835   0.938
97639W        W62800  35.024  38.844  13.471
97640W        W62801   2.728  17.126   2.720
97641W        W62802  36.911   7.756  11.692
97642W        W62803  28.257  35.493  14.247
97643W        W62804   6.940   7.843  11.555
97644W        W62805  37.554   5.773  11.482
97645W        W62806  41.394  14.784  12.092
97646W        W62807  36.760  18.706  13.643
97647W        W62808   9.758  24.725  10.932
97648W        W62809  40.354   3.667  14.534
97649W        W62810  38.913  30.645  13.870
97650W        W62811  34.463   1.379  11.106
97651W        W62812  16.625  18.118   2.941
97652W        W62813  38.354  33.912  11.261
97653W        W62814  38.659  13.899   0.822
97654W        W62815  14.521   8.551   3.346
97655W        W62816  43.737  21.371  14.875
97656W        W62817  40.840  39.555   1.266
97657W        W62818  31.615  40.941   2.352
97658W        W62819  18.354  31.936   0.747
97659W        W62820  25.861   7.526   1.111
97660W        W62821  13.029  31.783  13.341
97661W        W62822  40.364  18.641  14.384
97662W        W62823  42.711   7.057  13.774
97663W        W62824  36.691  39.017  11.142
97664W        W62825  28.650   9.234   4.442
97665W        W62826  42.077   5.245  10.662
97666W        W62827  27.697   0.954   4.074
97667W        W62828  43.589   8.475   0.743
97668W        W62829  11.261  15.660  11.516
97669W        W62830  22.013  34.819  12.519
97670W        W62831  29.535  38.644  10.053
97671W        W62832  13.048   7.400   1.878
97672W        W62833  40.355  33.098  14.751
97673W        W62834  17.998   8.125  11.940
97674W        W62835  38.260  19.230  11.663
97675W        W62836  34.588  33.895  11.122
97676W        W62837  36.415  21.718   4.063
97677W        W62838   0.147  29.592   0.807
97678W        W62839  44.532  38.331   4.552
97679W        W62840  11.224   0.962  11.247
97680W        W62841  39.392   8.954   2.449
97681W        W62842  12.224  39.087  11.556
97682W        W62843   6.221  27.157   0.611
97683W        W62844  23.849  40.328  12.200
97684W        W62845  39.747  29.820   1.343
97685W        W62846  44.714  18.101  11.590
97686W        W62847  16.562  19.126   1.235
97687W        W62848  16.319  20.566   0.396
97688W        W62849  19.260  23.005  11.041
97689W        W62850  19.768  42.727  10.887
97690W        W62851  32.634  20.216   1.368
97691W        W62852  28.252   2.231   4.088
97692W        W62853  20.075   0.424  14.787
97693W        W62854  28.574  42.532  12.893
97694W        W62855  42.247  31.117   2.814
97695W        W62856  10.149  33.421  10.680
97696W        W62857  31.566  40.286   4.218
97697W        W62858   5.382  35.281  13.357
97698W        W62859  32.550  33.588  14.898
97699W        W62860  25.281  28.676   2.145
97700W        W62861   5.385   6.487   1.386
97701W        W62862  42.515  35.917   1.771
97702W        W62863  26.157  32.012   0.715
97703W        W62864   6.418  37.270   3.660
97704W        W62865  11.614  42.554   1.285
97705W        W62866  42.034   2.761   4.662
97706W        W62867  15.123  34.357   2.764
97707W        W62868  40.548  31.401   2.742
97708W        W62869  18.781   8.597   1.972
97709W        W62870  21.270   9.041   1.178
97710W        W62871  11.695  31.546  12.929
97711W        W62872  42.732  22.705   0.502
97712W        W62873  35.590  43.336   3.151
97713W        W62874  26.465  32.605  14.873
97714W        W62875  19.771  17.131  11.610
97715W        W62876  25.170   4.320   4.165
97716W        W62877  19.500  15.340  11.172
97717W        W62878  21.946   5.129  13.962
97718W        W62879   1.629  20.596  12.199
97719W        W62880  21.051  24.652  12.030
97720W        W62881   4.133   7.745  10.761
97721W        W62882   7.665  14.759  13.953
97722W        W62883  11.143  41.275   1.741
97723W        W62884  18.238  23.045  11.131
97724W        W62885  31.383  30.981  14.021
97725W        W62886  15.593  42.865   1.458
97726W        W62887   8.948  41.853  12.937
97727W        W62888  41.068  13.355  11.618
97728W        W62889  40.312  44.387  11.296
97729W        W62890  20.421  22.103   2.314
97730W        W62891  14.236  11.249  12.488
97731W        W62892  35.530   4.373   3.378
97732W        W62893  34.140   7.429   1.834
97733W        W62894  10.336  36.280  13.443
97734W        W62895  43.740  21.110   4.826
97735W        W62896  21.286  36.451  11.613
97736W        W62897  44.415  12.234  10.364
97737W        W62898  15.082  15.551   2.977
97738W        W62899  36.673  14.604   1.468
97739W        W62900   8.694   5.945   0.416
97740W        W62901  32.044  10.858  13.872
97741W        W62902   4.309  41.916   1.155
97742W        W62903  39.370   2.444   3.564
97743W        W62904   0.387  41.497  13.967
97744W        W62905   5.912  22.302  12.548
97745W        W62906  20.606  24.217   2.812
97746W        W62907   0.627   7.991  12.940
97747W        W62908  42.070  27.055  12.016
97748W        W62909  14.383  37.771   4.996
97749W        W62910   8.979  10.522  11.947
97750W        W62911  15.310  13.866   4.258
97751W        W62912  10.820  10.522  10.204
97752W        W62913  38.968  37.284  11.503
97753W        W62914  11.159  30.496   4.121
97754W        W62915  17.297  44.958  14.413
97755W        W62916  20.403  16.993  14.818
97756W        W62917  31.095  37.928   4.544
97757W        W62918  32.469  36.700   4.273
97758W        W62919  15.115  14.330  10.373
97759W        W62920  22.658  42.231  14.827
97760W        W62921   0.228  35.441   3.903
97761W        W62922  41.030  11.060  12.591
97762W        W62923  16.653  32.881  14.768
97763W        W62924   1.553  17.307   4.071
97764W        W62925   7.272   8.190   1.796
97765W        W62926  32.070  13.663   5.106
97766W        W62927   5.042  19.713  10.630
97767W        W62928  29.975  18.281   1.441
97768W        W62929  12.723  39.785   1.321
97769W        W62930  15.209  35.665  12.545
97770W        W62931  36.283  21.188   3.339
97771W        W62932  39.447  42.833   4.436
97772W        W62933   6.963  24.411   3.090
97773W        W62934  40.081   2.845   1.850
97774W        W62935   4.975  28.474   0.384
97775W        W62936  22.546   2.181   3.635
97776W        W62937   9.822  37.470   1.178
97777W        W62938  20.102  14.622   1.795
97778W        W62939  28.469  44.845   4.655
97779W        W62940  20.209  29.711  12.595
97780W        W62941  31.477   3.529   2.051
97781W        W62942  17.888  44.547   5.009
97782W        W62943  23.461   0.571  10.669
97783W        W62944  42.064   7.277   3.509
97784W        W62945   0.940  32.619  10.714
97785W        W62946   4.545   1.349  14.937
97786W        W62947  21.570  27.309  13.882
97787W        W62948  32.061  40.351  14.929
97788W        W62949  15.613  39.926   0.804
97789W        W62950   6.233   3.767  10.086
97790W        W62951  41.429   2.237   3.580
97791W        W62952  44.752   3.383  14.117
97792W        W62953  36.902  27.114  14.544
97793W        W62954   4.470   8.914  12.921
97794W        W62955   8.070  30.002  11.507
97795W        W62956   1.254  44.512   4.327
97796W        W62957  44.493  37.388  12.893
97797W        W62958   4.023   7.820   0.542
97798W        W62959  22.962  12.785  10.487
97799W        W62960  16.619  26.024  11.559
97800W        W62961  36.318   1.748  10.605
97801W        W62962  17.141  10.404   0.327
97802W        W62963  33.484  23.068  11.106
97803W        W62964  26.594  17.544  12.436
97804W        W62965  27.151  31.201   0.675
97805W        W62966  14.150  44.495  11.525
97806W        W62967  12.168  18.487  12.612
97807W        W62968  23.323  18.819  12.430
97808W        W62969   7.699  32.717  12.851
97809W        W62970  44.639  40.674  14.282
97810W        W62971   9.969  23.064   2.142
97811W        W62972  39.872  41.229   0.748
97812W        W62973  23.040  36.862   5.190
97813W        W62974  15.827  26.331   3.063
97814W        W62975   5.688   7.332   1.559
97815W        W62976   0.417  40.842  11.351
97816W        W62977   6.716  23.998  14.012
97817W        W62978  34.116   8.126  11.507
97818W        W62979  16.332  27.986   1.852
97819W        W62980  41.544  31.154  11.477
97820W        W62981   4.202  44.904  10.967
97821W        W62982  15.594  34.526  12.000
97822W        W62983  37.331  15.437   4.580
97823W        W62984  40.200  37.936   2.015
97824W        W62985  41.191  19.271   1.053
97825W        W62986  38.394   8.900  11.224
97826W        W62987  12.831   3.739  11.304
97827W        W62988  38.175  30.018   4.328
97828W        W62989  43.059  24.241   4.754
97829W        W62990  26.599  17.260  11.982
97830W        W62991  17.617  38.441  12.465
97831W        W62992  20.311  15.183  14.457
97832W        W62993  27.739  32.135   4.207
97833W        W62994   5.723  19.478   0.316
97834W        W62995  39.697  17.316  14.028
97835W        W62996  21.245  30.251   2.502
97836W        W62997  39.411  39.926   1.170
97837W        W62998  23.938  26.558  13.633
97838W        W62999   4.466   5.508  14.604
97839W        W63000  40.146  37.504   2.774
97840W        W63001  43.675  18.683   1.193
97841W        W63002  16.053  27.604   2.603
97842W        W63003  44.873  27.864  13.973
97843W        W63004  18.567  15.268   0.966
97844W        W63005  11.286  36.454  10.871
97845W        W63006  39.438  42.752   1.843
97846W        W63007  18.787  44.717  14.790
97847W        W63008  34.684  32.327  14.325
97848W        W63009  23.301  10.433  11.103
97849W        W63010  22.008  25.172   4.131
97850W        W63011  12.312  28.728  14.919
97851W        W63012   9.608  27.615  11.633
97852W        W63013  44.489  20.560  11.725
97853W        W63014  26.049  42.546  11.016
97854W        W63015   6.263   7.232   0.282
97855W        W63016  22.504  26.004   3.148
97856W        W63017  29.484  43.748   0.940
97857W        W63018  36.554   4.019   3.950
97858W        W63019  24.138  30.713   1.477
97859W        W63020  28.915  23.398   2.627
97860W        W63021   0.798   3.846   1.723
97861W        W63022  34.272  14.347  10.634
97862W        W63023  12.379  10.662  10.545
97863W        W63024  13.979  30.522   0.464
97864W        W63025  27.436  16.277   0.764
97865W        W63026  42.350  13.745   2.691
97866W        W63027   5.345  12.637  13.728
97867W        W63028  24.172   4.893   4.891
97868W        W63029  41.921   2.396  11.134
97869W        W63030  32.168  24.385   4.813
97870W        W63031  32.569  22.019  14.580
97871W        W63032  41.322  34.915  13.017
97872W        W63033  29.197  25.633   0.641
97873W        W63034   3.720  41.479   2.376
97874W        W63035  18.319   3.119  12.031
97875W        W63036  41.335  31.686   3.347
97876W        W63037  14.269  26.705  11.072
97877W        W63038   9.065  17.376   2.795
97878W        W63039  37.431  20.468   0.648
97879W        W63040  22.728   8.970  12.256
97880W        W63041  37.991   6.139   3.577
97881W        W63042  21.526  26.403  13.034
97882W        W63043  42.840  23.614  14.699
97883W        W63044  39.559   3.848   4.563
97884W        W63045  29.395  25.537  11.470
97885W        W63046  38.826  18.297  12.075
97886W        W63047  20.032  20.724   4.254
97887W        W63048  36.640  33.048   0.861
97888W        W63049  35.913  23.917  13.347
97889W        W63050  29.398  10.474   9.875
97890W        W63051  38.824  40.528   1.800
97891W        W63052   0.969  44.681  13.596
97892W        W63053  24.949  36.431  14.925
97893W        W63054  22.132   1.885  11.417
97894W        W63055  33.852   4.558  11.537
97895W        W63056  16.745   0.809  14.677
97896W        W63057  33.501  27.522   4.067
97897W        W63058  23.886   5.278  12.010
97898W        W63059  27.291  39.530   0.614
97899W        W63060   0.111  44.282   2.838
97900W        W63061   5.581  39.548  11.255
97901W        W63062  43.528  15.362   1.397
97902W        W63063  36.727  14.063  12.356
97903W        W63064  32.531  27.976   3.421
97904W        W63065  37.891   0.286   1.283
97905W        W63066   1.287  25.414  13.499
97906W        W63067  20.332  36.331   1.666
97907W        W63068  37.286  27.457  13.843
97908W        W63069  20.312  24.880   1.392
97909W        W63070  26.046  40.695   1.389
97910W        W63071  39.495  12.176  11.608
97911W        W63072  34.091  10.758   4.069
97912W        W63073  32.949  10.107  11.079
97913W        W63074  24.036  23.670   3.517
97914W        W63075  44.745  18.793   2.342
97915W        W63076   5.256  39.304   4.649
97916W        W63077  31.820  11.165   0.964
97917W        W63078  25.094   3.817   4.058
97918W        W63079  10.344  43.797  10.589
97919W        W63080  17.663  35.040   2.351
97920W        W63081   5.216  40.606   0.959
97921W        W63082   0.398   5.939   3.648
97922W        W63083  33.888  21.784  13.320
97923W        W63084  35.366  39.588   2.345
97924W        W63085  28.803  44.331   1.479
97925W        W63086  13.693   4.792  12.523
97926W        W63087   7.181  23.564  10.821
97927W        W63088  37.576  33.042  14.375
97928W        W63089  44.803  30.510  11.148
97929W        W63090  14.605  18.225   1.019
97930W        W63091   6.462  41.842   3.512
97931W        W63092  30.098  19.567  13.532
97932W        W63093  17.161  36.953  11.914
97933W        W63094   1.460   9.713   3.980
97934W        W63095  10.678  16.330  14.543
97935W        W63096  24.559  35.327   4.095
97936W        W63097  21.170  32.334  10.582
97937W        W63098  15.028   7.069   2.731
97938W        W63099   9.223  40.074   1.486
97939W        W63100   1.460  24.094  10.862
97940W        W63101  19.158   9.760  10.768
97941W        W63102  28.459  29.794  14.849
97942W        W63103  12.192  27.619  11.679
97943W        W63104  41.446   7.845   3.089
97944W        W63105  16.729   1.423   4.129
97945W        W63106   4.162  10.245   4.446
97946W        W63107   2.922  10.343   3.753
97947W        W63108  20.672  35.437   0.776
97948W        W63109  22.412  16.223   2.808
97949W        W63110  21.393   0.930  11.673
97950W        W63111  18.551  20.591   4.687
97951W        W63112  13.786   3.432   1.391
97952W        W63113  42.690  43.948   0.925
97953W        W63114   4.795   4.211  10.673
97954W        W63115  23.736  42.386   3.601
97955W        W63116   3.233  39.140   3.104
97956W        W63117  20.094  40.150   0.069
97957W        W63118  35.972  25.982  10.443
97958W        W63119  31.121  10.819  13.872
97959W        W63120  21.186  29.928   1.005
97960W        W63121  43.922  29.474   2.586
97961W        W63122  41.121  15.926  13.720
97962W        W63123  39.142  18.064  11.698
97963W        W63124   9.942  44.058   4.149
97964W        W63125  10.032   3.641   1.305
97965W        W63126  44.474   4.035  12.542
97966W        W63127   1.524   0.296   0.880
97967W        W63128  31.905  29.920   0.868
97968W        W63129  37.800   8.033  11.043
97969W        W63130  28.378  12.692  11.658
97970W        W63131  32.887  24.447  10.263
97971W        W63132  37.543  26.853  14.348
97972W        W63133   5.357  38.897   4.151
97973W        W63134   7.387  31.167  12.113
97974W        W63135  40.542  35.777  14.270
97975W        W63136   3.033  19.491   0.921
97976W        W63137   1.561  16.650  12.465
97977W        W63138   4.977  28.022   2.806
97978W        W63139  13.249  32.950   1.648
97979W        W63140   4.780  39.088  11.965
97980W        W63141   0.301   4.731   1.678
97981W        W63142  37.588  36.534   4.122
97982W        W63143  33.691   5.095   3.749
97983W        W63144  28.102  24.896   2.809
97984W        W63145  33.135  20.549   1.834
97985W        W63146  43.133  18.630   2.289
97986W        W63147  20.208   1.347  12.247
97987W        W63148  23.745  17.529  14.687
97988W        W63149  33.654  10.841   4.506
97989W        W63150  14.802  28.984  12.407
97990W        W63151  13.395   5.356   2.521
97991W        W63152  15.241  35.348   1.950
97992W        W63153   6.823  31.337   3.254
97993W        W63154  19.606  43.665   1.431
97994W        W63155   4.165  12.227  14.057
97995W        W63156  27.220  17.294   1.889
97996W        W63157  33.469  35.534  14.360
97997W        W63158  14.247  42.220  11.574
97998W        W63159  36.130   8.659  14.452
97999W        W63160  18.070  34.664   3.756
98000W        W63161  15.693  11.058   9.897
98001W        W63162  42.988  13.340   4.696
98002W        W63163  27.665  12.740   2.120
98003W        W63164  33.964  16.024   0.319
98004W        W63165  22.097  31.932  11.090
98005W        W63166  24.733   2.957  11.407
98006W        W63167  31.587  14.376   0.622
98007W        W63168  38.956  25.668   1.058
98008W        W63169   4.932  41.745   4.537
98009W        W63170  28.366  11.421   3.110
98010W        W63171  23.977   2.936  10.649
98011W        W63172  21.021  26.395  12.993
98012W        W63173  25.477  10.716   1.213
98013W        W63174  13.317  24.626   0.297
98014W        W63175  29.450  28.184  12.499
98015W        W63176  41.220  40.960   5.026
98016W        W63177  32.581  20.379  12.065
98017W        W63178   5.820  35.605   0.461
98018W        W63179  41.584  21.641   2.653
98019W        W63180   1.736  41.567  11.054
98020W        W63181  26.968   5.036  13.687
98021W        W63182  16.644  37.975  14.412
98022W        W63183  37.074  31.870  11.885
98023W        W63184  41.816   5.525  11.598
98024W        W63185  40.129  12.070  11.193
98025W        W63186  42.343  43.432  12.917
98026W        W63187  14.185  40.367   1.850
98027W        W63188  34.061  23.808   5.191
98028W        W63189   0.839  15.546  14.778
98029W        W63190  40.391   1.353   2.291
98030W        W63191   9.217  34.064   3.711
98031W        W63192   1.634   6.634  11.507
98032W        W63193   5.173  42.916   1.857
98033W        W63194  17.229  33.654   1.216
98034W        W63195  17.449  40.621  14.211
98035W        W63196  29.063  37.596   9.935
98036W        W63197  39.663  39.440  15.000
98037W        W63198  41.046  36.154   0.543
98038W        W63199  19.457  12.194   0.875
98039W        W63200   5.665  33.410   4.125
98040W        W63201  12.785  20.216  12.624
98041W        W63202  16.665   9.722   4.575
98042W        W63203  39.385  16.097  12.890
98043W        W63204   2.060  39.532  13.785
98044W        W63205  37.362  13.418   2.353
98045W        W63206  24.204  35.517  12.936
98046W        W63207  19.112  37.813   4.635
98047W        W63208  27.132  44.982  12.002
98048W        W63209  23.341  21.109  13.919
98049W        W63210   3.387  24.872  10.680
98050W        W63211  29.695  31.921   2.295
98051W        W63212  40.074  36.343  11.258
98052W        W63213  41.078   4.984  11.552
98053W        W63214  35.868  15.623   3.654
98054W        W63215   8.636  32.103   1.158
98055W        W63216  22.031  12.521   1.851
98056W        W63217   4.080   5.278  11.224
98057W        W63218   0.492   8.214   1.316
98058W        W63219  14.615  11.444   1.160
98059W        W63220  42.601  14.676  14.428
98060W        W63221   9.415   7.887  13.988
98061W        W63222  24.140  32.890  11.447
98062W        W63223  25.650  37.374  12.501
98063W        W63224  16.324  24.494   1.206
98064W        W63225  17.190  44.781   1.950
98065W        W63226   9.450  43.493   2.929
98066W        W63227  30.906   8.900  13.485
98067W        W63228  10.938   4.555   3.811
98068W        W63229  20.237  31.146   3.999
98069W        W63230  43.526  30.665  14.221
98070W        W63231  16.628  26.064   4.521
98071W        W63232  31.042  43.546   4.020
98072W        W63233  38.281  31.852  14.541
98073W        W63234  19.040   2.826   0.992
98074W        W63235  12.485  34.815   1.434
98075W        W63236  15.765  10.823   3.847
98076W        W63237  19.741   9.630  14.446
98077W        W63238  22.751   2.414   1.459
98078W        W63239  15.074   5.107  10.969
98079W        W63240  24.125  32.572   0.973
98080W        W63241  13.134  21.296   2.703
98081W        W63242  39.566  36.093  14.547
98082W        W63243   3.888  16.447  14.000
98083W        W63244   4.670  34.595  11.989
98084W        W63245  31.184  32.362  11.140
98085W        W63246  21.294   3.860   1.682
98086W        W63247   8.186  38.837  13.769
98087W        W63248  16.473  44.802   2.845
98088W        W63249  42.073   9.255  14.083
98089W        W63250  33.479  29.590  13.012
98090W        W63251   1.093  16.610   1.467
98091W        W63252  35.910  11.416  13.438
98092W        W63253  27.174   9.818   2.860
98093W        W63254  16.072  34.520  13.358
98094W        W63255  40.258  28.557   4.350
98095W        W63256  28.716   0.902   3.568
98096W        W63257   3.167  26.617  13.535
98097W        W63258  35.909  15.711  11.999
98098W        W63259  41.236  17.753   0.916
98099W        W63260  33.240  36.401  10.028
98100W        W63261   4.899  36.369  14.970
98101W        W63262  14.513  38.306   1.050
98102W        W63263  38.195   9.822   1.184
98103W        W63264  40.594  26.053  14.417
98104W        W63265   3.682  22.123   4.456
98105W        W63266  15.800  17.713   4.982
98106W        W63267  42.555  18.895   1.813
98107W        W63268   4.145  23.315   5.735
98108W        W63269  14.776  29.259  11.808
98109W        W63270  20.284  42.188  12.039
98110W        W63271  17.586   2.787  14.958
98111W        W63272  27.713  21.291  14.832
98112W        W63273  41.357   9.082  11.116
98113W        W63274  14.666  25.417  10.990
98114W        W63275  11.677   2.406   4.684
98115W        W63276  20.399  32.426  14.765
98116W        W63277  10.596  11.438   3.659
98117W        W63278  10.689  44.529   4.441
98118W        W63279  18.135  12.177   2.930
98119W        W63280   4.208  15.537   1.452
98120W        W63281   4.157   7.133   4.552
98121W        W63282  35.354  11.172   2.583
98122W        W63283  27.705  12.743   3.716
98123W        W63284  18.576  36.933  11.581
98124W        W63285  28.866  19.862  14.140
98125W        W63286  34.062  44.077  13.984
98126W        W63287   5.814  11.232   1.602
98127W        W63288  32.488  34.979   0.780
98128W        W63289  38.359   5.260  11.526
98129W        W63290   1.359  33.063  14.757
98130W        W63291  21.274   8.162  13.978
98131W        W63292  14.997  21.019   3.177
98132W        W63293  31.522  42.996   1.304
98133W        W63294  21.825  28.625  10.673
98134W        W63295   2.778  39.838   1.329
98135W        W63296  10.474   7.272  13.197
98136W        W63297  13.469  27.869   3.551
98137W        W63298  13.889  29.693   4.196
98138W        W63299   1.752  12.382   4.026
98139W        W63300  36.926  18.512   4.654
98140W        W63301  23.589   6.317  12.464
98141W        W63302  14.455  28.034   2.055
98142W        W63303  24.184  12.068  13.964
98143W        W63304  22.665   3.897  12.210
98144W        W63305  20.096  30.142   0.800
98145W        W63306  38.327  19.185  12.623
98146W        W63307  21.670  32.154  11.248
98147W        W63308  44.384  29.619  14.286
98148W        W63309  38.368  29.155  11.152
98149W        W63310  42.566  38.115   0.178
98150W        W63311   6.357  30.099   4.547
98151W        W63312   6.257   7.671   4.521
98152W        W63313   1.000  13.137   1.179
98153W        W63314   0.277  21.658  13.034
98154W        W63315  22.564  31.869   1.249
98155W        W63316  35.127  36.357  13.335
98156W        W63317  23.596  12.769   1.302
98157W        W63318  35.944  29.450  10.389
98158W        W63319  16.869  40.418  10.282
98159W        W63320  16.592  44.369  10.280
98160W        W63321  23.057   2.108   0.147
98161W        W63322   1.675  27.915  13.869
98162W        W63323  32.007  34.324   4.262
98163W        W63324  13.262  17.078  13.876
98164W        W63325   7.050  25.943   1.378
98165W        W63326  43.867  37.371  11.649
98166W        W63327  20.087  23.522  12.469
98167W        W63328  43.982  43.267   0.265
98168W        W63329  14.508   3.239   1.477
98169W        W63330   2.382  15.332  13.867
98170W        W63331  35.917  25.171  12.041
98171W        W63332  26.385  27.665   0.516
98172W        W63333  29.894  18.740  14.171
98173W        W63334   5.182   6.052   3.302
98174W        W63335  32.397  23.502  14.897
98175W        W63336  14.071  21.403   1.866
98176W        W63337  14.605   8.878  10.439
98177W        W63338  30.770  32.242  14.325
98178W        W63339  17.163  16.156   4.070
98179W        W63340  34.826  43.027  13.332
98180W        W63341  32.964   4.523   1.366
98181W        W63342  33.781  20.083  12.781
98182W        W63343  42.467  44.667  11.191
98183W        W63344  19.568   2.236   3.207
98184W        W63345  17.121  10.273   4.122
98185W        W63346  15.549  12.223   4.480
98186W        W63347  14.448  30.479  12.189
98187W        W63348   3.858  42.963  11.914
98188W        W63349  32.391  22.712   0.090
98189W        W63350   7.704  10.415  12.124
98190W        W63351  23.437  23.862  13.848
98191W        W63352   3.209   4.471  14.292
98192W        W63353  17.539  25.097  11.353
98193W        W63354   3.186  22.502  12.892
98194W        W63355  19.832  26.428   3.144
98195W        W63356  36.732  43.322   1.806
98196W        W63357  26.176  11.203   0.165
98197W        W63358  35.902   3.656   4.781
98198W        W63359  16.451  26.314  13.058
98199W        W63360  11.692  17.638   3.127
98200W        W63361  12.338   3.681  12.467
98201W        W63362   8.852  43.474   0.916
98202W        W63363  11.726  37.591   3.271
98203W        W63364  27.947  24.619   0.007
98204W        W63365  12.691  32.538  12.570
98205W        W63366   2.989  28.543   3.687
98206W        W63367  16.297  18.705   2.454
98207W        W63368   0.453  35.205  10.306
98208W        W63369  38.598   1.412  12.855
98209W        W63370  21.017  31.842  14.496
98210W        W63371  38.019   9.243  11.200
98211W        W63372  30.429   0.020  13.787
98212W        W63373  15.107  13.605   0.919
98213W        W63374  29.513   9.401   2.313
98214W        W63375   6.211  18.479  10.916
98215W        W63376  25.837   0.829   2.933
98216W        W63377  28.595   7.879  12.011
98217W        W63378  23.540  36.610   1.339
98218W        W63379  39.768  10.314  10.621
98219W        W63380   5.782   1.738  10.738
98220W        W63381   4.244  28.966  14.434
98221W        W63382  22.642   9.614   2.785
98222W        W63383  16.856  12.003  14.602
98223W        W63384  30.404   6.258   2.868
98224W        W63385   4.989  13.194  10.683
98225W        W63386  30.635   1.269   1.531
98226W        W63387  30.215   3.243  11.270
98227W        W63388   3.000  32.184  11.229
98228W        W63389  10.104  28.952  11.547
98229W        W63390   3.027  30.060   0.577
98230W        W63391  41.561  23.177  13.758
98231W        W63392  10.731  26.155   2.188
98232W        W63393  17.292  21.444  12.373
98233W        W63394   1.803   3.797  10.689
98234W        W63395  42.485   6.235   1.426
98235W        W63396  35.230  14.942   3.840
98236W        W63397   9.204   7.401  14.990
98237W        W63398  13.742   6.150  11.144
98238W        W63399  39.532  20.956   3.664
98239W        W63400  30.558  29.974   4.723
98240W        W63401  17.256  21.814  13.308
98241W        W63402  37.298   0.779  13.153
98242W        W63403  30.685  13.173   0.892
98243W        W63404  41.266  26.525   3.881
98244W        W63405  25.780   4.182   1.802
98245W        W63406  26.368  21.256  11.146
98246W        W63407  17.647  15.571   2.414
98247W        W63408  36.251  33.708   1.242
98248W        W63409  33.895  37.779   5.014
98249W        W63410   1.865  22.937   1.695
98250W        W63411  24.147  41.009  14.355
98251W        W63412   2.208  26.565  14.983
98252W        W63413  33.436  11.668  14.546
98253W        W63414  41.253  18.698  13.968
98254W        W63415   2.916   3.147   0.304
98255W        W63416  13.490  38.256   4.017
98256W        W63417  16.402   4.288   2.901
98257W        W63418  16.278  10.616  13.329
98258W        W63419   8.936  32.570   0.763
98259W        W63420  33.489  41.757  14.030
98260W        W63421  34.323  11.286   2.678
98261W        W63422   0.997  11.179   1.370
98262W        W63423  12.065  25.638  12.786
98263W        W63424  37.113  20.742   3.303
98264W        W63425   7.896  24.485  14.979
98265W        W63426  29.136  44.530   1.112
98266W        W63427  10.936  32.349   2.235
98267W        W63428   9.203  33.465   1.290
98268W        W63429   4.270   6.343  13.068
98269W        W63430  37.814  28.201  11.282
98270W        W63431  43.782  12.173   3.781
98271W        W63432  18.807  44.944  11.602
98272W        W63433  36.900  43.467  13.902
98273W        W63434  17.167   7.654   0.967
98274W        W63435  17.077  38.997  11.659
98275W        W63436  24.121  35.502  13.490
98276W        W63437   3.336  21.001  10.183
98277W        W63438  14.514  13.707  12.586
98278W        W63439  26.510  20.979   2.244
98279W        W63440  21.334  32.466   2.726
98280W        W63441  39.872  31.696  13.325
98281W        W63442  20.342   0.990  13.465
98282W        W63443  21.192  16.856   5.133
98283W        W63444  35.482  23.470  14.746
98284W        W63445  40.107  34.033   0.264
98285W        W63446   4.749  41.020  14.374
98286W        W63447   6.817  16.739  13.080
98287W        W63448  34.568  25.066   1.567
98288W        W63449  11.669   3.278  10.452
98289W        W63450  43.959   4.162   0.867
98290W        W63451  25.943  19.869  14.981
98291W        W63452   7.687   8.384  14.914
98292W        W63453  34.606  15.323   1.365
98293W        W63454  20.068  29.022  13.769
98294W        W63455   4.876  28.277   3.799
98295W        W63456   1.980   6.666  13.462
98296W        W63457  33.429  39.902  12.718
98297W        W63458  43.677  31.448  11.188
98298W        W63459  11.714  17.062   4.533
98299W        W63460  27.466  31.520  14.969
98300W        W63461  33.539  16.316   0.333
98301W        W63462  25.214  32.023  10.413
98302W        W63463  29.587  12.383   1.317
98303W        W63464  23.459  33.006  11.141
98304W        W63465  23.620  19.664  11.209
98305W        W63466  44.847   9.676  11.918
98306W        W63467  11.250  17.671  11.912
98307W        W63468   5.229  28.190   4.167
98308W        W63469  16.520  37.014  11.424
98309W        W63470  44.151  43.868  12.314
98310W        W63471  10.596   4.167   4.606
98311W        W63472   3.705  21.316   0.917
98312W        W63473  20.598  39.221   2.382
98313W        W63474  17.038  14.770   1.389
98314W        W63475  34.804  43.394   2.985
98315W        W63476  31.192  11.851  10.572
98316W        W63477  38.259   3.457  14.038
98317W        W63478  40.553  39.878   1.531
98318W        W63479  19.650   3.273  12.459
98319W        W63480  29.873  28.599  10.420
98320W        W63481  39.809  14.885   4.732
98321W        W63482  42.827   3.629   4.855
98322W        W63483  34.133  21.169  10.615
98323W        W63484  15.550   8.884   9.764
98324W        W63485  31.057  34.223   3.038
98325W        W63486   1.333  38.041   3.763
98326W        W63487  41.361  12.949  10.439
98327W        W63488   4.478  20.642  14.670
98328W        W63489  44.265  28.970   4.485
98329W        W63490   0.263   5.333   2.431
98330W        W63491  42.264  43.848  13.825
98331W        W63492  22.804   3.041  13.914
98332W        W63493  19.100  32.416  13.365
98333W        W63494   0.911  36.606   3.077
98334W        W63495  36.975  37.861   5.022
98335W        W63496  35.536  12.542  10.721
98336W        W63497  23.487  17.318   3.925
98337W        W63498   8.517   6.843  11.972
98338W        W63499  28.092  23.440   4.103
98339W        W63500  29.694  15.649   5.305
98340W        W63501   5.299  10.978  13.033
98341W        W63502  21.848  27.251  11.607
98342W        W63503  31.350  33.378   4.642
98343W        W63504  36.539   0.886  14.525
98344W        W63505   4.219  12.702   2.765
98345W        W63506   9.858  28.642  12.351
98346W        W63507  37.417  26.646   0.544
98347W        W63508  10.610  42.424   1.478
98348W        W63509  18.853  44.826  12.363
98349W        W63510  30.142  25.512   1.096
98350W        W63511  31.977  16.941  10.900
98351W        W63512  42.754  11.317   4.527
98352W        W63513  44.073   2.999   3.275
98353W        W63514   0.226  15.317  11.673
98354W        W63515   5.277  38.822   2.602
98355W        W63516   5.686   4.390  14.327
98356W        W63517  44.283  18.203  13.368
98357W        W63518  24.947   1.864   1.124
98358W        W63519   3.729  34.945   3.153
98359W        W63520  29.336   6.928   3.174
98360W        W63521  10.913  42.193   3.587
98361W        W63522  29.311  11.222  13.312
98362W        W63523  24.449  20.282   1.775
98363W        W63524   1.874  34.127   2.484
98364W        W63525   4.937  27.222   0.828
98365W        W63526  21.665  12.558  12.809
98366W        W63527   2.978  40.281  12.785
98367W        W63528  41.121   6.235  11.964
98368W        W63529  33.532  13.089  12.308
98369W        W63530  37.334  32.409   1.244
98370W        W63531  16.725  40.526  10.775
98371W        W63532  27.235  22.792  10.282
98372W        W63533  31.240  43.429  11.682
98373W        W63534  40.246  39.915  13.866
98374W        W63535  44.444  25.911   1.255
98375W        W63536   5.752   0.724   3.184
98376W        W63537  14.168  18.533   3.254
98377W        W63538  12.600  31.397  13.304
98378W        W63539   4.514  38.394   3.589
98379W        W63540  35.582  29.798  13.310
98380W        W63541  43.089   2.530   5.023
98381W        W63542  16.539   4.411   2.393
98382W        W63543  39.473   4.859  12.494
98383W        W63544  13.590  19.512  14.441
98384W        W63545  19.026  31.122   3.446
98385W        W63546  28.394   3.281   1.194
98386W        W63547  29.653  26.750  13.904
98387W        W63548   8.313  31.990   5.030
98388W        W63549  19.736  39.690   5.004
98389W        W63550  42.557  26.154   3.653
98390W        W63551   8.396   8.635  12.539
98391W        W63552  21.155  18.193   3.382
98392W        W63553  28.194  22.801   3.445
98393W        W63554   1.381  18.815   1.948
98394W        W63555  10.883  26.797   1.519
98395W        W63556  36.229  11.791   1.328
98396W        W63557  35.585  21.007   4.888
98397W        W63558   4.001  33.015  11.158
98398W        W63559  39.320   8.069  14.397
98399W        W63560   0.824  14.859   3.337
98400W        W63561  36.482  17.738  13.569
98401W        W63562  15.826  44.436  11.201
98402W        W63563   6.410  14.343  11.546
98403W        W63564  16.627  17.033   2.310
98404W        W63565  29.393   4.720  11.899
98405W        W63566   3.075   5.293  12.289
98406W        W63567  11.403  15.721  14.797
98407W        W63568  20.650  12.146   4.212
98408W        W63569  10.693  35.918  12.865
98409W        W63570   3.968   1.861  13.432
98410W        W63571  39.346  42.615  12.356
98411W        W63572  13.132  30.087  11.617
98412W        W63573  13.248   4.711   2.421
98413W        W63574  27.015  19.541   2.848
98414W        W63575  36.563   6.239   3.758
98415W        W63576  16.542  28.391  11.573
98416W        W63577  21.301   7.834  13.068
98417W        W63578  13.778  25.608   2.881
98418W        W63579  13.911  27.611   5.017
98419W        W63580  41.965  37.866   2.124
98420W        W63581   8.129  10.368  14.077
98421W        W63582  42.911  21.825   1.719
98422W        W63583  40.349  17.804  12.689
98423W        W63584  36.002   7.163  13.847
98424W        W63585  31.399  11.332  10.772
98425W        W63586  36.019   8.926   4.286
98426W        W63587  33.346   8.711  10.667
98427W        W63588  20.077  40.300   2.696
98428W        W63589  11.145  28.098   4.466
98429W        W63590   5.230  16.511  11.274
98430W        W63591  41.355  26.471  14.773
98431W        W63592   3.340  31.524   4.547
98432W        W63593  31.997  23.658   1.706
98433W        W63594   2.324  25.876  10.726
98434W        W63595  24.746  43.439  10.634
98435W        W63596  43.049  31.886   0.419
98436W        W63597  16.501  28.727   2.402
98437W        W63598  13.771  22.251  14.397
98438W        W63599  25.090  38.456   2.847
98439W        W63600   4.449  30.190  14.900
98440W        W63601  26.340  20.642   4.931
98441W        W63602  17.640  21.730  10.780
98442W        W63603   4.779  12.055  13.146
98443W        W63604  29.710  28.938  14.387
98444W        W63605  23.070  10.327   3.582
98445W        W63606  10.103  44.008   2.812
98446W        W63607  18.702  42.405  11.628
98447W        W63608  12.533  31.089  13.728
98448W        W63609   5.677   0.788   0.538
98449W        W63610  23.040  16.029   2.786
98450W        W63611  19.805  36.148   2.303
98451W        W63612   4.427  43.422   0.029
98452W        W63613  32.397   3.432  11.529
98453W        W63614   2.689  18.328  13.117
98454W        W63615   7.954  16.353   3.790
98455W        W63616  37.888  11.401   2.637
98456W        W63617  30.511   9.664  14.188
98457W        W63618  35.127  43.251   0.881
98458W        W63619  21.546  27.987  10.677
98459W        W63620  20.224  29.686   1.724
98460W        W63621  34.137  36.400  12.390
98461W        W63622  44.186  37.559   0.900
98462W        W63623   0.337  39.349  11.530
98463W        W63624  29.977  11.501   0.326
98464W        W63625  32.562  19.092  12.412
98465W        W63626  44.320  30.105  14.447
98466W        W63627  24.229  41.995  14.407
98467W        W63628   8.093  24.513  11.135
98468W        W63629  10.760  26.645  10.645
98469W        W63630  14.544  22.027   2.735
98470W        W63631   1.546  20.814   3.216
98471W        W63632  37.351   9.184   1.299
98472W        W63633  11.358  34.410   4.144
98473W        W63634  24.162   5.671   2.734
98474W        W63635  35.187  32.404  10.699
98475W        W63636  30.199  35.192  11.327
98476W        W63637  18.001  14.724   3.167
98477W        W63638  43.327  14.287   2.436
98478W        W63639  17.594  15.208  12.468
98479W        W63640  26.842   8.281   1.653
98480W        W63641  34.393  40.845  12.462
98481W        W63642  38.320   1.724  12.557
98482W        W63643   1.322  43.006  13.901
98483W        W63644  11.312  35.887  11.660
98484W        W63645  10.749  24.712   1.355
98485W        W63646  40.990   3.064   0.774
98486W        W63647  26.660  39.429  12.069
98487W        W63648  18.373  43.375  14.879
98488W        W63649  29.298  23.272   2.274
98489W        W63650  18.783  29.055   4.450
98490W        W63651   7.721  22.039   2.530
98491W        W63652  18.244   1.656   1.234
98492W        W63653   7.164   6.311  14.910
98493W        W63654  28.442  36.593  10.675
98494W        W63655  37.193  40.487  11.983
98495W        W63656  44.328   1.666   3.712
98496W        W63657  41.000  18.262   2.727
98497W        W63658  15.190   9.795   3.266
98498W        W63659  11.648   3.911   2.756
98499W        W63660  42.315  36.487   3.096
98500W        W63661   0.908  40.527  12.422
98501W        W63662  17.292  15.580  13.960
98502W        W63663  15.178   3.776   1.585
98503W        W63664  20.035   6.350   4.075
98504W        W63665   9.325  12.755   0.263
98505W        W63666  21.126   1.724   0.523
98506W        W63667  37.172  43.333   3.588
98507W        W63668  24.732  43.394   3.847
98508W        W63669  10.767  41.046  12.023
98509W        W63670  19.123   8.894  10.641
98510W        W63671  25.676  21.561   3.690
98511W        W63672   2.299   2.661  12.114
98512W        W63673  20.654  36.573  12.400
98513W        W63674  27.456  37.048   2.289
98514W        W63675  32.092   8.717   1.337
98515W        W63676  39.701  11.173   2.472
98516W        W63677  17.164  25.361  11.008
98517W        W63678  44.677  19.789  11.389
98518W        W63679  39.237  44.817   3.297
98519W        W63680  16.646  13.527   2.800
98520W        W63681  37.705  42.425   4.654
98521W        W63682  31.056  37.937  13.501
98522W        W63683  29.157  12.119   1.729
98523W        W63684  35.184  44.959  13.358
98524W        W63685  41.961  16.816   0.939
98525W        W63686  22.618  38.128  11.639
98526W        W63687   6.301  14.390  12.375
98527W        W63688  15.166  19.365   1.110
98528W        W63689   4.430  36.867   2.192
98529W        W63690  21.658  24.052  11.177
98530W        W63691  29.575  41.050  13.819
98531W        W63692  44.461  44.354  13.690
98532W        W63693  32.571  29.140  14.372
98533W        W63694  12.731   1.797  14.354
98534W        W63695  32.940   1.909   1.213
98535W        W63696  39.314  16.793   1.527
98536W        W63697   0.293  20.736   2.828
98537W        W63698  28.576  25.545   2.323
98538W        W63699  39.908  39.889  11.054
98539W        W63700  39.712  42.303  11.071
98540W        W63701  21.802  31.457  14.561
98541W        W63702  27.979  13.517  14.817
98542W        W63703  13.600  16.364  13.368
98543W        W63704  11.779  24.080   0.892
98544W        W63705   5.867   0.933  13.618
98545W        W63706  20.601   4.947   0.386
98546W        W63707  37.779  40.352   9.953
98547W        W63708  12.668   3.108  10.722
98548W        W63709  24.676  21.301  10.973
98549W        W63710  13.351   6.321   1.261
98550W        W63711  12.127  13.412   3.084
98551W        W63712  40.568  30.957   0.840
98552W        W63713  44.228  33.236  12.558
98553W        W63714  12.946   3.348   2.739
98554W        W63715  27.365  17.252   4.314
98555W        W63716  37.968  17.952   0.200
98556W        W63717  21.500   9.870   0.883
98557W        W63718  33.427   0.428  12.059
98558W        W63719  20.799  18.694  11.585
98559W        W63720  27.505  19.571  11.504
98560W        W63721   9.509  11.895  11.188
98561W        W63722   9.583   7.930   0.838
98562W        W63723  16.958  15.138   3.590
98563W        W63724   9.219  11.601   2.862
98564W        W63725   6.395  20.793   2.179
98565W        W63726  34.044  31.064  14.920
98566W        W63727  22.545  33.833   4.048
98567W        W63728   3.164  44.077  12.849
98568W        W63729  42.340  35.228   1.835
98569W        W63730   9.745  25.535   4.553
98570W        W63731  40.688  20.750   4.190
98571W        W63732  27.940  19.012  12.889
98572W        W63733  30.664  25.710   2.820
98573W        W63734  12.623  12.755  12.915
98574W        W63735   2.025   0.544   4.891
98575W        W63736  39.385  43.072   3.481
98576W        W63737  33.644  30.425  14.598
98577W        W63738  30.128   9.933  11.933
98578W        W63739  27.435  34.034   2.155
98579W        W63740  29.176  17.333   3.945
98580W        W63741  43.478  11.734  10.728
98581W        W63742   7.972  16.835   3.636
98582W        W63743  19.662  41.864  13.930
98583W        W63744   7.733  22.689   9.903
98584W        W63745   5.942   9.117  10.669
98585W        W63746  39.360  44.014   3.645
98586W        W63747  14.288  30.149   1.881
98587W        W63748  35.884  36.160   2.384
98588W        W63749  40.219  42.592  14.969
98589W        W63750  37.561   3.810   1.499
98590W        W63751  43.418  28.863   2.651
98591W        W63752  38.826   4.488   2.827
98592W        W63753  28.932  40.971   3.897
98593W        W63754  29.681  18.983  14.872
98594W        W63755  25.706  43.852  13.765
98595W        W63756   5.436  32.072   0.063
98596W        W63757  30.610  22.844   4.570
98597W        W63758   3.474  35.011  10.814
98598W        W63759  18.930  37.483   1.640
98599W        W63760  40.717  17.274   1.817
98600W        W63761  39.000  38.972   1.341
98601W        W63762  24.261  28.319   2.626
98602W        W63763  15.627  10.869  13.463
98603W        W63764  23.763   2.320   3.157
98604W        W63765   1.247  36.680  14.275
98605W        W63766  41.021  32.010  12.576
98606W        W63767  41.896  24.661  13.862
98607W        W63768   9.720  11.487   4.104
98608W        W63769   5.958  22.553   1.194
98609W        W63770  21.785  12.162   2.143
98610W        W63771  12.220  12.637  11.920
98611W        W63772  35.055  28.235   2.296
98612W        W63773  38.082  43.890   4.672
98613W        W63774  17.727  24.356   2.325
98614W        W63775  19.255  10.121   0.795
98615W        W63776   8.241  37.328  12.711
98616W        W63777  43.286  26.595  11.885
98617W        W63778  21.113   9.814   2.107
98618W        W63779  33.214  31.899   1.509
98619W        W63780  13.651   7.557  11.846
98620W        W63781  37.392  43.699  14.759
98621W        W63782   7.399  18.592  14.417
98622W        W63783   0.898  10.706   3.651
98623W        W63784   3.861  14.176  10.643
98624W        W63785  44.967  20.550  12.563
98625W        W63786  36.593  29.474   2.159
98626W        W63787  18.899  40.039   9.816
98627W        W63788  39.460  36.864  13.032
98628W        W63789  32.694   3.337  12.377
98629W        W63790  31.517  27.656   4.292
98630W        W63791  41.606   6.596   1.766
98631W        W63792   4.957  31.954   0.261
98632W        W63793  41.489   4.736   5.085
98633W        W63794  15.835  24.577  12.216
98634W        W63795  19.774  35.009   4.083
98635W        W63796  25.097  37.684   0.432
98636W        W63797   3.065  12.342   0.321
98637W        W63798   4.498  24.448  14.445
98638W        W63799  14.856  18.765  11.042
98639W        W63800  29.525  27.148  14.181
98640W        W63801  40.093   9.774  10.690
98641W        W63802  16.682  10.919  13.400
98642W        W63803   5.851   9.698   1.082
98643W        W63804  22.604  23.680   0.403
98644W        W63805  25.478  11.891   3.690
98645W        W63806   2.350  14.550   4.041
98646W        W63807  42.292   5.997  13.498
98647W        W63808  11.874  24.424  14.609
98648W        W63809  29.884  15.395   0.196
98649W        W63810  13.592  32.713  11.194
98650W        W63811  15.132  19.851   1.246
98651W        W63812  41.412  32.440   4.824
98652W        W63813  33.341  10.897  11.524
98653W        W63814  44.030  23.321  10.760
98654W        W63815   5.723  22.649  11.120
98655W        W63816  21.328  21.996  11.663
98656W        W63817  15.505  24.576  13.085
98657W        W63818  19.612  12.391   2.655
98658W        W63819   5.795  42.868  10.887
98659W        W63820   7.107  37.108   4.559
98660W        W63821  32.842  27.544   4.384
98661W        W63822  23.908  32.644  13.869
98662W        W63823  33.747  33.568   0.778
98663W        W63824   1.686  19.121  14.475
98664W        W63825  37.451  28.985   2.237
98665W        W63826  13.891  14.134   5.263
98666W        W63827  44.802  41.738  12.832
98667W        W63828  29.397   7.248   9.997
98668W        W63829  24.483  30.985  12.795
98669W        W63830  34.537  10.180   3.155
98670W        W63831  20.810  25.562   9.925
98671W        W63832   6.367  19.275   3.990
98672W        W63833  36.971  20.289   0.345
98673W        W63834  41.717  26.518  13.518
98674W        W63835  28.130  17.037  11.604
98675W        W63836  24.683  34.666   3.640
98676W        W63837  20.261  24.153  12.879
98677W        W63838  31.660  35.126  13.437
98678W        W63839  21.757  41.459  13.495
98679W        W63840  11.309  21.052  10.852
98680W        W63841  29.726  11.339   1.341
98681W        W63842  24.397  29.146  14.745
98682W        W63843  14.846   5.917   3.731
98683W        W63844  23.536  29.905   4.601
98684W        W63845  43.872   5.601  11.970
98685W        W63846  22.614  19.006   4.638
98686W        W63847  10.976  10.924   2.836
98687W        W63848   2.278   5.543  11.198
98688W        W63849  19.791   5.977  13.290
98689W        W63850  18.614  41.437   3.843
98690W        W63851  19.459  36.799   1.378
98691W        W63852  41.593  23.503   2.638
98692W        W63853  19.628  23.790  11.494
98693W        W63854  32.445  13.550   2.397
98694W        W63855   1.496  28.218  10.746
98695W        W63856  19.362  43.440  10.411
98696W        W63857  41.258  42.738  11.980
98697W        W63858   9.826  11.868  14.884
98698W        W63859  35.939  14.175   3.169
98699W        W63860  18.784  36.915   4.926
98700W        W63861  30.956  40.718  12.921
98701W        W63862  14.548  16.185  12.604
98702W        W63863  20.099  14.208   3.276
98703W        W63864  24.264  38.344  12.137
98704W        W63865   3.165  18.106   0.768
98705W        W63866  40.070  42.216   1.381
98706W        W63867  42.460  30.219   3.260
98707W        W63868  16.267  44.441  13.010
98708W        W63869  29.286   4.329  12.443
98709W        W63870  14.334  17.791   4.598
98710W        W63871  14.223  32.031  10.666
98711W        W63872   0.349  30.475  12.514
98712W        W63873  37.074   7.636  13.902
98713W        W63874  30.313  16.696   1.913
98714W        W63875   1.435  42.857  12.211
98715W        W63876  44.940   6.839  14.557
98716W        W63877  32.590  43.626   0.690
98717W        W63878  18.792   7.562   0.532
98718W        W63879  25.419  10.620  10.937
98719W        W63880  29.004  12.261  10.374
98720W        W63881  27.511  44.045  14.998
98721W        W63882  36.978  41.739   0.000
98722W        W63883  22.680  40.561  14.071
98723W        W63884  40.354  32.733  12.917
98724W        W63885  26.547  32.147   3.196
98725W        W63886  44.780  41.543   1.470
98726W        W63887  23.126   6.260  12.186
98727W        W63888  38.747  34.607   3.193
98728W        W63889  31.980  16.344   2.315
98729W        W63890   7.015   5.179   0.651
98730W        W63891  44.288   6.643  10.680
98731W        W63892  21.482   5.725  12.587
98732W        W63893  24.664  30.811  14.835
98733W        W63894  10.713   6.418   2.667
98734W        W63895   1.686  27.645   0.038
98735W        W63896  40.020  27.180  14.818
98736W        W63897  22.617  14.730  13.291
98737W        W63898  37.433  21.702   3.731
98738W        W63899  23.592  17.114   0.528
98739W        W63900  26.771  44.370  12.456
98740W        W63901  18.096  36.839  14.886
98741W        W63902  29.098  12.254  13.874
98742W        W63903  16.626   3.614   2.787
98743W        W63904  34.566   4.870  10.984
98744W        W63905  29.452  31.691  10.393
98745W        W63906  27.632  39.066  12.196
98746W        W63907  43.215  28.936  12.461
98747W        W63908  35.445  35.692  11.072
98748W        W63909  26.537  18.524   4.757
98749W        W63910  25.150  33.914   3.837
98750W        W63911   1.933   5.816   0.889
98751W        W63912  14.328  18.151   2.871
98752W        W63913  28.428   1.194   3.262
98753W        W63914  27.376  15.772   5.282
98754W        W63915  16.437   6.130  12.751
98755W        W63916   6.500  12.747   1.319
98756W        W63917  38.873   1.532   4.384
98757W        W63918  27.780  11.748   3.635
98758W        W63919  14.908  13.736   0.475
98759W        W63920  30.906  34.435  13.355
98760W        W63921  31.300  26.264  11.966
98761W        W63922  16.644   5.637   1.702
98762W        W63923  25.820  42.813   2.195
98763W        W63924  27.563  11.891   2.283
98764W        W63925   6.466  30.992   2.321
98765W        W63926  40.737   0.050  11.533
98766W        W63927  36.869  15.674   0.381
98767W        W63928  12.789  24.114   0.737
98768W        W63929  44.466  27.702  12.335
98769W        W63930  18.142  29.984  11.406
98770W        W63931   7.610  17.292   0.090
98771W        W63932  26.145   3.527   2.829
98772W        W63933  25.317  15.082  14.073
98773W        W63934  15.585   2.852   4.618
98774W        W63935  12.142  19.184   0.526
98775W        W63936  23.275  44.373  14.022
98776W        W63937  30.361  37.386  13.926
98777W        W63938  23.227  22.750  11.647
98778W        W63939  16.298  12.203   2.594
98779W        W63940   2.906  25.773  14.201
98780W        W63941  26.457   9.788  14.827
98781W        W63942  34.252  41.841  10.743
98782W        W63943  41.370  40.132  14.752
98783W        W63944  38.677  44.538   4.122
98784W        W63945  26.888  39.071  13.956
98785W        W63946  33.110  43.989   2.834
98786W        W63947  29.051  31.653   0.402
98787W        W63948  28.944   5.250   4.363
98788W        W63949  37.487   7.885   4.210
98789W        W63950  32.523  43.568   3.594
98790W        W63951  43.297  34.407   2.247
98791W        W63952  39.700  37.959   4.507
98792W        W63953  21.606  16.574  13.574
98793W        W63954  31.643  25.984  11.052
98794W        W63955  17.177  22.200  10.345
98795W        W63956  18.231  15.349  14.348
98796W        W63957  40.332  42.470   1.787
98797W        W63958  15.653  17.743   4.488
98798W        W63959  44.902   5.802   4.325
98799W        W63960  43.264   1.264   1.712
98800W        W63961  13.123  18.280   0.712
98801W        W63962   3.817  30.333   0.637
98802W        W63963  30.429  42.372   1.942
98803W        W63964  14.324  12.734   4.454
98804W        W63965  33.592  14.851   3.110
98805W        W63966  31.589  17.606  10.798
98806W        W63967  27.912  11.149   1.109
98807W        W63968  39.282  13.935   3.256
98808W        W63969  40.735  32.929   4.263
98809W        W63970  11.931  12.409  12.523
98810W        W63971  32.518  21.536  14.024
98811W        W63972   0.537  42.142   4.173
98812W        W63973   5.614  40.602  13.404
98813W        W63974  33.375  43.107   3.643
98814W        W63975  39.408   6.391   3.884
98815W        W63976  33.832   3.443  14.457
98816W        W63977  12.892  38.089   1.899
98817W        W63978  31.585   4.478  14.449
98818W        W63979  42.299  32.504  13.431
98819W        W63980   5.478  17.085   4.123
98820W        W63981  42.783  15.087  14.823
98821W        W63982  34.589  43.418   5.500
98822W        W63983  35.675  23.569   3.630
98823W        W63984  29.919  15.388  11.668
98824W        W63985   4.264  43.929  11.896
98825W        W63986  21.754  38.098  14.406
98826W        W63987  18.845   0.804  12.609
98827W        W63988  16.548  33.503   4.710
98828W        W63989  21.754  39.283  14.909
98829W        W63990  30.538  14.422   2.794
98830W        W63991   8.269  25.465  12.066
98831W        W63992  36.972  20.476   2.882
98832W        W63993   5.355  19.106   0.892
98833W        W63994  10.320  34.056  11.060
98834W        W63995  28.943   8.607  11.978
98835W        W63996  11.213   8.160   4.692
98836W        W63997  17.224   3.681  13.120
98837W        W63998  38.673  43.522  12.613
98838W        W63999   4.321  12.767  12.871
98839W        W64000   2.676  38.441   9.915
98840W        W64001  28.566  14.682   2.093
98841W        W64002  20.068  44.656  14.274
98842W        W64003  22.264   5.718   4.079
98843W        W64004  29.491  29.011  12.132
98844W        W64005  44.924  30.504   2.794
98845W        W64006  25.643  28.598  12.833
98846W        W64007  13.393  17.169  12.997
98847W        W64008  14.564  24.002   0.881
98848W        W64009  25.720  17.818   1.372
98849W        W64010   3.704  13.976  13.009
98850W        W64011  18.015   9.185  14.310
98851W        W64012  27.520  44.890  13.641
98852W        W64013  18.830  16.211   2.325
98853W        W64014  27.520   9.615   1.966
98854W        W64015  42.050   9.687   4.903
98855W        W64016  28.660  14.726  12.788
98856W        W64017   8.410  39.119   3.523
98857W        W64018  23.576   4.382   3.827
98858W        W64019  21.959  38.410  12.847
98859W        W64020  30.903   2.260   2.307
98860W        W64021  31.899  33.623  12.572
98861W        W64022  35.203   1.246  10.691
98862W        W64023  23.757  18.733   2.720
98863W        W64024  20.752  20.627  12.651
98864W        W64025  15.990  41.181   2.534
98865W        W64026   6.744  14.451  12.089
98866W        W64027  21.611  13.571  12.041
98867W        W64028  34.565  38.530   1.439
98868W        W64029  12.610  13.995   0.926
98869W        W64030  28.539  38.150   9.887
98870W        W64031  13.803  20.095  14.317
98871W        W64032  42.229  12.574  12.649
98872W        W64033  32.465  11.793  10.208
98873W        W64034   8.892  16.767   0.928
98874W        W64035  15.907  34.874  13.931
98875W        W64036  28.114  37.718   0.388
98876W        W64037  19.351  24.803   3.369
98877W        W64038  33.859   2.425   2.331
98878W        W64039  43.693  19.681  14.565
98879W        W64040   8.185  23.005  12.044
98880W        W64041  22.610   7.809  10.487
98881W        W64042  21.302   0.825   0.818
98882W        W64043  13.406  29.587  14.855
98883W        W64044  12.938  21.504  12.942
98884W        W64045  36.009  32.391  14.316
98885W        W64046  10.754  20.230  12.727
98886W        W64047   9.137   0.210  10.710
98887W        W64048  21.254   7.040   2.867
98888W        W64049  10.988  38.608   3.247
98889W        W64050  31.529  12.708   3.227
98890W        W64051  19.684  41.043   2.924
98891W        W64052  22.150   7.452   0.992
98892W        W64053   9.384  17.853   1.741
98893W        W64054  23.992   8.718   1.857
98894W        W64055   6.437  19.771  14.336
98895W        W64056  19.595   4.408  14.254
98896W        W64057  33.855   9.799   1.969
98897W        W64058  31.360   8.866   2.211
98898W        W64059   0.664  27.644  13.649
98899W        W64060  33.598  34.256  13.846
98900W        W64061  26.488  12.375  14.710
98901W        W64062  40.007  19.368   3.812
98902W        W64063  12.994   6.223   3.813
98903W        W64064   2.217  31.842  13.435
98904W        W64065  42.069   0.675   4.450
98905W        W64066   4.307  22.358  12.318
98906W        W64067   3.304  26.055   1.945
98907W        W64068  36.478  42.961   3.235
98908W        W64069   1.054  24.001  12.976
98909W        W64070  36.318  10.225  10.427
98910W        W64071   8.441  11.833  14.250
98911W        W64072  35.366  40.382   2.821
98912W        W64073  11.907   5.148   2.202
98913W        W64074  39.291  11.380  11.190
98914W        W64075  42.926  15.314   4.323
98915W        W64076  29.393  26.100  12.390
98916W        W64077  12.579  24.526  10.773
98917W        W64078  28.341  23.300   0.430
98918W        W64079  37.483   2.486   0.240
98919W        W64080  10.718  16.343  13.228
98920W        W64081  19.030  39.889   0.326
98921W        W64082  24.094  44.760  14.841
98922W        W64083  27.950  37.558  14.846
98923W        W64084  25.933  15.173  12.244
98924W        W64085  11.312  34.010  11.385
98925W        W64086  23.277  23.621   1.145
98926W        W64087  12.329  15.580   1.669
98927W        W64088  41.270  24.653  11.204
98928W        W64089  28.625  26.514   4.753
98929W        W64090   8.276   1.084  13.984
98930W        W64091  32.166  30.149   1.248
98931W        W64092  13.158  35.822  13.490
98932W        W64093   2.435  17.456   3.541
98933W        W64094  31.084  39.056  11.910
98934W        W64095  21.909   9.840  13.467
98935W        W64096  18.789  43.378  11.152
98936W        W64097  34.978  31.968  13.715
98937W        W64098  36.413   3.473  13.528
98938W        W64099  14.706  20.383  11.685
98939W        W64100   2.458  24.439   3.642
98940W        W64101  43.402  11.111   0.926
98941W        W64102  27.085   7.864  14.432
98942W        W64103  23.444  16.162   0.664
98943W        W64104  42.442   1.465   3.559
98944W        W64105  20.713  31.629  10.400
98945W        W64106  42.923  41.214   4.307
98946W        W64107   2.724  39.429   2.844
98947W        W64108  32.094  42.787   3.224
98948W        W64109  19.330  27.158  12.817
98949W        W64110  26.431  15.017   2.387
98950W        W64111   2.449  24.665   0.279
98951W        W64112   5.061   0.875  11.446
98952W        W64113  32.877   9.377  12.914
98953W        W64114  11.376   0.081  13.870
98954W        W64115  12.220   8.212  10.748
98955W        W64116  20.721  26.921   3.575
98956W        W64117  39.654  29.212   3.886
98957W        W64118  22.253   9.360  12.162
98958W        W64119  13.929  40.955   4.608
98959W        W64120  10.704  19.399  11.263
98960W        W64121   7.696  15.133  14.310
98961W        W64122  33.860  34.914  11.561
98962W        W64123  15.209  17.506  13.058
98963W        W64124  23.780  30.121  11.124
98964W        W64125  29.174  25.956  12.845
98965W        W64126  20.847  33.865  12.568
98966W        W64127  16.121  26.011   4.619
98967W        W64128  39.441  17.459  13.065
98968W        W64129  37.832  33.962   4.604
98969W        W64130   6.448  39.461   2.418
98970W        W64131  16.609  28.196  12.933
98971W        W64132   7.984  42.822   3.284
98972W        W64133  13.226  21.920   2.202
98973W        W64134  14.753  29.448   2.787
98974W        W64135  40.058  23.340   3.306
98975W        W64136  33.595  38.268   4.140
98976W        W64137  28.859   1.759   0.858
98977W        W64138  38.100  22.043   4.803
98978W        W64139  10.804  42.289   0.901
98979W        W64140   1.904  44.494   2.876
98980W        W64141   1.223  34.759   2.860
98981W        W64142   3.523   0.147  11.579
98982W        W64143  28.487  24.119   1.840
98983W        W64144  24.642  30.976   4.082
98984W        W64145   9.709  30.713   2.273
98985W        W64146  18.419  13.842   2.623
98986W        W64147  39.931  17.522  12.873
98987W        W64148  11.177  23.539   4.337
98988W        W64149  40.797  10.077  13.021
98989W        W64150  31.711   4.214   2.723
98990W        W64151  30.841  41.902  13.034
98991W        W64152  21.743  44.390  14.847
98992W        W64153  35.128  21.583  13.544
98993W        W64154  33.929  11.508  14.784
98994W        W64155  21.990  40.209  10.230
98995W        W64156  35.867  17.495  12.291
98996W        W64157  11.684  19.899   0.604
98997W        W64158  23.312  28.841   3.739
98998W        W64159  44.036  30.616  12.978
98999W        W64160  39.572  19.497  11.541
99000W        W64161  15.650  30.616   4.405
99001W        W64162  44.814  23.667  13.224
99002W        W64163  11.871   3.440   2.807
99003W        W64164   5.671   8.683  10.752
99004W        W64165   7.772  15.516  14.929
99005W        W64166  36.064  19.815  11.182
99006W        W64167  32.922  26.673   3.288
99007W        W64168  35.557  42.522   1.852
99008W        W64169  31.051  42.975   0.760
99009W        W64170  29.483  11.584  10.736
99010W        W64171  16.575  36.116   3.039
99011W        W64172   9.238  13.369  13.564
99012W        W64173   9.683  42.054   0.699
99013W        W64174   4.381  42.376   0.901
99014W        W64175  43.988   1.523   1.338
99015W        W64176  24.618  18.490  12.571
99016W        W64177  37.585   3.927  11.809
99017W        W64178  26.287  24.814  12.114
99018W        W64179   0.180   4.776  10.595
99019W        W64180   6.630  18.750  10.816
99020W        W64181  44.032  31.890   0.728
99021W        W64182   8.805  16.790  14.935
99022W        W64183   7.758  10.764   3.698
99023W        W64184   2.124  22.196   2.086
99024W        W64185  42.148   8.406  11.998
99025W        W64186  35.877  13.584  10.599
99026W        W64187  40.757  12.810   4.936
99027W        W64188  28.991  31.426  14.877
99028W        W64189  26.531  39.907   0.693
99029W        W64190  17.859  34.627   3.096
99030W        W64191  13.242  30.769  13.139
99031W        W64192  39.074   6.760   4.021
99032W        W64193  35.976   8.132   3.140
99033W        W64194   1.962  43.882   1.623
99034W        W64195  27.920  31.625   4.678
99035W        W64196  32.074  17.555  12.065
99036W        W64197  39.035  42.807  11.946
99037W        W64198  15.179  43.719  10.312
99038W        W64199  25.079  26.517   2.023
99039W        W64200  39.961  44.830   3.634
99040W        W64201  39.107  15.020   4.138
99041W        W64202  40.575   5.039   3.876
99042W        W64203  31.912  22.009   2.255
99043W        W64204  25.657  33.420   0.506
99044W        W64205   0.433   7.824  13.396
99045W        W64206  16.603  14.849   4.130
99046W        W64207  29.697  12.363   4.660
99047W        W64208   3.721  25.718  12.158
99048W        W64209  14.234  29.913  14.946
99049W        W64210   1.821  37.528   3.580
99050W        W64211  33.446  36.470   3.888
99051W        W64212   9.264  33.576   2.868
99052W        W64213   5.211  36.402   3.298
99053W        W64214  14.239  13.168   3.494
99054W        W64215  24.963  43.911  13.411
99055W        W64216  26.133  32.607   1.953
99056W        W64217   6.249  21.721   4.079
99057W        W64218  33.085  11.029  11.089
99058W        W64219  14.062  35.303  12.860
99059W        W64220  44.278  40.346  12.222
99060W        W64221  28.215  37.508   2.389
99061W        W64222  43.253   9.153  12.478
99062W        W64223  27.951  29.204  13.883
99063W        W64224  14.751  21.712  11.954
99064W        W64225  41.980   1.267   3.637
99065W        W64226   7.038   4.694  10.811
99066W        W64227  32.590   3.806   2.135
99067W        W64228  17.526  22.314  14.225
99068W        W64229  37.781  13.623  12.951
99069W        W64230  12.768  30.876  10.554
99070W        W64231  24.532   6.852   2.393
99071W        W64232  17.012  40.419  12.046
99072W        W64233  15.220  36.013   4.297
99073W        W64234   3.456  20.536  10.677
99074W        W64235  24.846  37.457  12.042
99075W        W64236  19.595  17.468  12.137
99076W        W64237  32.678  44.796  13.466
99077W        W64238  13.073  22.269   2.755
99078W        W64239  40.875  31.633   4.379
99079W        W64240   5.254  10.323   3.560
99080W        W64241   0.477  41.517   3.257
99081W        W64242  40.547  26.261   0.158
99082W        W64243  44.973  16.112   2.606
99083W        W64244  13.758  32.564   2.772
99084W        W64245  33.643  32.322  11.517
99085W        W64246  37.771  27.116  13.373
99086W        W64247  20.989  30.969   1.774
99087W        W64248  12.361  35.175  13.388
99088W        W64249  22.512  13.054   3.411
99089W        W64250  39.830   6.790  13.733
99090W        W64251  29.927  11.067   1.877
99091W        W64252  38.376   8.262  12.423
99092W        W64253   1.842  11.609   5.010
99093W        W64254  44.612  33.803  11.207
99094W        W64255   4.408  28.568   1.379
99095W        W64256   6.803  35.520  14.041
99096W        W64257   4.378  22.078   1.136
99097W        W64258  20.711   6.942  14.841
99098W        W64259  19.518  24.387  13.940
99099W        W64260   1.240   6.871  12.822
99100W        W64261  37.597   5.585  12.356
99101W        W64262  24.960   3.397   1.660
99102W        W64263   8.386  11.854   1.439
99103W        W64264  13.364  26.023  14.838
99104W        W64265  24.139  36.243   2.416
99105W        W64266  36.048  23.230   2.071
99106W        W64267  44.341  32.872  13.903
99107W        W64268  31.459  36.863   2.413
99108W        W64269  12.731  35.926   3.288
99109W        W64270  15.214   6.302  10.720
99110W        W64271  41.424  38.777  12.623
99111W        W64272  26.086  11.187  14.168
99112W        W64273   8.873  12.477   2.786
99113W        W64274  35.770   2.995   3.648
99114W        W64275   7.141   9.866   2.473
99115W        W64276  28.518  23.175  13.664
99116W        W64277   9.443  24.500   3.254
99117W        W64278  18.669  16.335  12.598
99118W        W64279  27.902  23.459   1.867
99119W        W64280  22.214   5.588  11.919
99120W        W64281  13.288  44.966   1.315
99121W        W64282   5.806  39.670   1.432
99122W        W64283   8.806  16.595  13.097
99123W        W64284  18.625  43.790   3.730
99124W        W64285  22.111  10.683  13.970
99125W        W64286  10.863  36.005   3.446
99126W        W64287  36.452  37.455  12.416
99127W        W64288  19.967  15.719   1.395
99128W        W64289   4.759  18.445   3.215
99129W        W64290  44.330  30.935   1.188
99130W        W64291   5.611  11.686   0.004
99131W        W64292  44.497  37.375   4.658
99132W        W64293  40.757  24.630   4.671
99133W        W64294  11.123  31.557  14.927
99134W        W64295   1.051  24.221   3.744
99135W        W64296  36.007  12.307   3.743
99136W        W64297  43.716  41.755   3.641
99137W        W64298  24.894  38.597   0.641
99138W        W64299  11.002  29.943   1.218
99139W        W64300  25.961  23.041   2.684
99140W        W64301   9.199  15.170   4.198
99141W        W64302  39.143  27.521   4.172
99142W        W64303  25.119   2.803   4.743
99143W        W64304  15.752   2.746  13.776
99144W        W64305  35.751  16.213  12.040
99145W        W64306   1.862  40.477   0.813
99146W        W64307   0.404  25.684   1.870
99147W        W64308  37.085  27.694   0.882
99148W        W64309  38.286  39.102   2.602
99149W        W64310  24.928  33.021  13.100
99150W        W64311  44.727  38.071   3.552
99151W        W64312  43.330  36.232  13.155
99152W        W64313  33.854  15.023   0.248
99153W        W64314  44.703  15.290   1.959
99154W        W64315  43.581  20.695  11.619
99155W        W64316  38.255  12.706  12.623
99156W        W64317   9.898  20.137   1.480
99157W        W64318  11.746  29.176  14.032
99158W        W64319  26.103   9.284   0.404
99159W        W64320  26.476  23.171   3.635
99160W        W64321  16.492  15.222  13.892
99161W        W64322   8.864  35.646   4.640
99162W        W64323  12.783  34.080   0.364
99163W        W64324  27.049  32.388   1.779
99164W        W64325  43.884  17.705   3.383
99165W        W64326  19.334  19.652  10.727
99166W        W64327  30.587  39.033  10.609
99167W        W64328  13.589  13.677   1.863
99168W        W64329   9.029  26.488   2.806
99169W        W64330  43.265  16.168   4.210
99170W        W64331  10.604   7.559   0.813
99171W        W64332  41.794  37.898  13.429
99172W        W64333  26.487  29.980   0.790
99173W        W64334  16.376  29.050  13.559
99174W        W64335  18.213   7.294  12.383
99175W        W64336  17.110  30.869   1.387
99176W        W64337  36.111  37.971   0.350
99177W        W64338  26.717  19.233  13.391
99178W        W64339  35.696  17.621   0.312
99179W        W64340  29.188  40.520   0.472
99180W        W64341  18.963   7.465   1.318
99181W        W64342   3.674  30.550   1.091
99182W        W64343  29.107  41.903  11.583
99183W        W64344  30.470  42.808  12.550
99184W        W64345  37.867   4.813   3.856
99185W        W64346  24.687  29.555   2.692
99186W        W64347  18.762  26.921   1.741
99187W        W64348  24.712  14.121  13.818
99188W        W64349  42.886   9.880  12.167
99189W        W64350  22.157   4.638  11.710
99190W        W64351  36.848   1.294  14.436
99191W        W64352  38.968  10.427   4.138
99192W        W64353  18.656  29.888  14.579
99193W        W64354   9.233  39.589  13.872
99194W        W64355   1.065  41.096   3.706
99195W        W64356  39.993  19.506   1.718
99196W        W64357  39.636  43.813   4.401
99197W        W64358   8.429   1.855  12.449
99198W        W64359  32.203   1.722   4.840
99199W        W64360   9.857   5.662   1.650
99200W        W64361  26.514  43.729   1.833
99201W        W64362  36.941  19.032   0.899
99202W        W64363  43.506  18.212   1.381
99203W        W64364  16.317  18.346   0.572
99204W        W64365   4.986  40.580   0.429
99205W        W64366  35.005  43.971  13.393
99206W        W64367  19.560  32.526  11.095
99207W        W64368  19.918  39.028  12.758
99208W        W64369  24.484  42.905  12.807
99209W        W64370   5.692  40.726  11.586
99210W        W64371   2.752  17.075  13.231
99211W        W64372  17.706  36.953   0.818
99212W        W64373  24.489  31.020   0.695
99213W        W64374  39.441   2.755  11.546
99214W        W64375  33.078   9.644  13.837
99215W        W64376   2.408  39.248  13.482
99216W        W64377  40.653  36.081   1.963
99217W        W64378  37.628  41.281  12.961
99218W        W64379  35.442   2.494  11.375
99219W        W64380  28.020  23.678  12.873
99220W        W64381   7.837  33.106   4.047
99221W        W64382  13.736  31.889  10.762
99222W        W64383   9.452  40.606   4.954
99223W        W64384  34.117   6.301   2.632
99224W        W64385   3.543   1.861  13.133
99225W        W64386  17.261  38.500   4.530
99226W        W64387  27.691   6.496   3.513
99227W        W64388  27.218   0.976   0.973
99228W        W64389  17.346  17.219   5.543
99229W        W64390  35.396   3.761   1.464
99230W        W64391  26.274  38.396   1.413
99231W        W64392  40.460  40.730  11.905
99232W        W64393  43.537  29.075  11.442
99233W        W64394  22.937  40.108  13.182
99234W        W64395   5.172  37.962   1.246
99235W        W64396   1.214  31.865  10.062
99236W        W64397  25.986   0.980  13.513
99237W        W64398  38.287  28.393  14.375
99238W        W64399  11.821  29.681  14.974
99239W        W64400  42.781  17.033   4.627
99240W        W64401   6.660  13.107   0.307
99241W        W64402  32.886  44.254  11.696
99242W        W64403  22.018  41.076   0.347
99243W        W64404  19.499  16.252  11.041
99244W        W64405   9.332  36.727   2.495
99245W        W64406  27.735  33.048  10.705
99246W        W64407  41.568  33.632  11.667
99247W        W64408  38.804  20.727  14.034
99248W        W64409  26.766  16.964   1.875
99249W        W64410  13.065  34.791  11.117
99250W        W64411  13.674   0.615  13.817
99251W        W64412  43.220  27.333  13.716
99252W        W64413  34.216  18.237   1.476
99253W        W64414   4.621  17.776  14.851
99254W        W64415  18.364  33.479  14.793
99255W        W64416  31.691  40.024  11.719
99256W        W64417  36.103  39.455  12.381
99257W        W64418   4.686   6.725   9.947
99258W        W64419  33.323  20.759   2.302
99259W        W64420  22.321  35.923  12.398
99260W        W64421  17.914   9.381  14.816
99261W        W64422  16.076  41.968   1.242
99262W        W64423  33.058  26.532   4.619
99263W        W64424  41.258  29.126   0.377
99264W        W64425  27.085  20.732  11.529
99265W        W64426  32.214  42.532   1.354
99266W        W64427  42.082   7.627   2.458
99267W        W64428  35.016  29.256  11.061
99268W        W64429   8.356  19.731  11.479
99269W        W64430  10.367   3.228   0.379
99270W        W64431  25.325  38.943   0.281
99271W        W64432  15.055  10.146   0.330
99272W        W64433  38.209  17.023   2.853
99273W        W64434   9.429  14.090  12.916
99274W        W64435  32.964  26.099   3.989
99275W        W64436   5.718  27.028  13.818
99276W        W64437  36.355   1.829   3.393
99277W        W64438  24.697   5.294  10.696
99278W        W64439  14.702  16.319   0.974
99279W        W64440  12.665  15.711   2.538
99280W        W64441  41.488  21.104  10.726
99281W        W64442  26.779  10.231  14.761
99282W        W64443  32.115   8.854  14.315
99283W        W64444  22.218  18.669   2.449
99284W        W64445  14.837   5.483  10.709
99285W        W64446  31.478  11.332   0.055
99286W        W64447  37.439  34.502   4.469
99287W        W64448  31.395   0.735   0.404
99288W        W64449  27.245   8.098   0.535
99289W        W64450   5.045   1.200   3.270
99290W        W64451   4.680  14.202  10.283
99291W        W64452  28.748  13.704   2.244
99292W        W64453  22.432  42.081  13.149
99293W        W64454  30.872  39.766   3.697
99294W        W64455  40.199  21.585   3.687
99295W        W64456   4.225   8.188   4.515
99296W        W64457  34.849   7.642  11.731
99297W        W64458  33.639  16.969  11.585
99298W        W64459  32.900   7.437   4.182
99299W        W64460  21.206  13.842  12.578
99300W        W64461  26.820  43.541  14.353
99301W        W64462   4.733  40.500   2.788
99302W        W64463  16.086  13.274   4.577
99303W        W64464   0.603  17.035   1.272
99304W        W64465  16.726  13.803   4.131
99305W        W64466  12.183  40.410   4.851
99306W        W64467   1.266  17.987  13.287
99307W        W64468  25.989  23.995  13.358
99308W        W64469  26.639  10.199  11.252
99309W        W64470  20.302  13.236   5.034
99310W        W64471  43.545   2.251  12.818
99311W        W64472   4.694  42.303   2.780
99312W        W64473  36.010   9.319   0.439
99313W        W64474  24.014   0.737   3.731
99314W        W64475  14.326  28.217  11.172
99315W        W64476  30.916   6.529  10.401
99316W        W64477  25.449   7.892   2.252
99317W        W64478   4.775   4.964  11.842
99318W        W64479  15.793  17.025  11.618
99319W        W64480  44.449  31.131  13.432
99320W        W64481  37.904  38.819  11.637
99321W        W64482   1.246  22.211  14.122
99322W        W64483  26.887  30.080  11.191
99323W        W64484  26.829  41.054   3.311
99324W        W64485  33.979  33.493   3.135
99325W        W64486   5.779   0.015  13.115
99326W        W64487  24.396  19.650   1.376
99327W        W64488  33.919  21.199   0.533
99328W        W64489  31.024  39.056  14.085
99329W        W64490  39.363  38.320  13.478
99330W        W64491   4.824   7.706   1.243
99331W        W64492  33.101  40.554  14.312
99332W        W64493  26.069  42.794  14.040
99333W        W64494  27.478  32.589  10.752
99334W        W64495  33.920   8.917   4.967
99335W        W64496   6.004   6.856  14.397
99336W        W64497  37.358  29.233  11.154
99337W        W64498  37.600  27.572   0.836
99338W        W64499  30.530  36.820   4.597
99339W        W64500  14.670  20.657   1.362
99340W        W64501  24.500  41.514   2.269
99341W        W64502  41.560  28.013  14.947
99342W        W64503   8.255  29.799   2.635
99343W        W64504  16.555   0.419   2.085
99344W        W64505   9.799   0.717  14.951
99345W        W64506  11.737  18.281  11.544
99346W        W64507   5.123  40.405  13.492
99347W        W64508  28.534  12.126  13.046
99348W        W64509   9.029  22.399  11.275
99349W        W64510  29.194  12.836  11.121
99350W        W64511  28.052   4.929  11.509
99351W        W64512  22.920  38.552  13.237
99352W        W64513  11.444  21.768  13.037
99353W        W64514  31.441  42.946   0.286
99354W        W64515  43.855  25.995  14.589
99355W        W64516   7.802   2.064   1.896
99356W        W64517  27.763  12.708  13.004
99357W        W64518  34.072  24.495  11.101
99358W        W64519   6.913  44.576   0.093
99359W        W64520  19.109  26.007   3.618
99360W        W64521   6.806  12.830  11.221
99361W        W64522   6.872  18.203   0.875
99362W        W64523  33.485  36.901  13.759
99363W        W64524  27.886  43.176  13.712
99364W        W64525  33.302  31.938   1.002
99365W        W64526  35.491   1.789  11.189
99366W        W64527  17.617  34.661   4.483
99367W        W64528  37.048  26.789   3.205
99368W        W64529   3.459  43.751  13.133
99369W        W64530  36.472  36.362   1.847
99370W        W64531  31.809  11.821  11.510
99371W        W64532  16.165  19.252  12.052
99372W        W64533  15.119   3.627   4.872
99373W        W64534  34.911  19.146   1.094
99374W        W64535   2.251  14.413  12.692
99375W        W64536  43.007  32.827   0.376
99376W        W64537  30.563  28.447  13.526
99377W        W64538   1.455  31.658   4.577
99378W        W64539  41.405   0.581  11.606
99379W        W64540  30.001  21.431   1.715
99380W        W64541  22.509   4.799   0.140
99381W        W64542  36.497  11.273  12.044
99382W        W64543  43.382  20.491  14.822
99383W        W64544  20.225  26.745   3.374
99384W        W64545  19.714  31.835  13.404
99385W        W64546  25.303  44.333  10.170
99386W        W64547   2.418  36.021   0.260
99387W        W64548  40.923   4.794  13.595
99388W        W64549  14.792  14.005   3.254
99389W        W64550  24.913   0.042   4.592
99390W        W64551  16.196  13.539  10.962
99391W        W64552  15.131  37.590   1.254
99392W        W64553  41.423  23.711  11.399
99393W        W64554  11.894  28.628   4.088
99394W        W64555   0.637  29.873  12.891
99395W        W64556  24.516  37.416  13.289
99396W        W64557  44.464  23.700   4.232
99397W        W64558  44.169  37.116  13.201
99398W        W64559  24.750   8.453   1.152
99399W        W64560  29.885  27.073   3.399
99400W        W64561   5.009  44.872  11.532
99401W        W64562   2.151  22.765   1.289
99402W        W64563   6.600   1.728  12.532
99403W        W64564  40.562  27.674   4.555
99404W        W64565  10.833  36.888   2.781
99405W        W64566  38.216  39.756   0.813
99406W        W64567  14.501   7.132   4.045
99407W        W64568  30.213  12.864   4.257
99408W        W64569  20.714  20.252   1.671
99409W        W64570  23.519  26.228  12.028
99410W        W64571  40.266  25.650   3.880
99411W        W64572  11.809  29.434   3.699
99412W        W64573  26.194  26.798   4.174
99413W        W64574  31.095   4.504  10.867
99414W        W64575  36.040  26.126   1.490
99415W        W64576  30.157   8.086  12.894
99416W        W64577  20.830  12.803  14.569
99417W        W64578  37.386  24.997  14.987
99418W        W64579  24.629  40.860  14.483
99419W        W64580  36.665   0.254  12.015
99420W        W64581  29.354  43.934  13.302
99421W        W64582  39.540  31.224  11.220
99422W        W64583  43.993  35.904  10.899
99423W        W64584  26.638  42.456  11.764
99424W        W64585  26.535  19.552  13.765
99425W        W64586  23.063  34.386   0.949
99426W        W64587   2.132   2.374   3.265
99427W        W64588  37.931  44.014   3.691
99428W        W64589  44.358  32.461  10.725
99429W        W64590   8.618   9.786   3.616
99430W        W64591   5.933  44.989  14.993
99431W        W64592  34.579  32.065   4.546
99432W        W64593  15.230  18.727  13.427
99433W        W64594  19.764  42.816  13.389
99434W        W64595  36.854  34.408  12.168
99435W        W64596  29.511  27.734   0.365
99436W        W64597  34.972  35.600  11.671
99437W        W64598  29.503  34.622  11.205
99438W        W64599  15.671   3.363  10.109
99439W        W64600  18.738  13.797  12.874
99440W        W64601  20.142  21.913   1.477
99441W        W64602   1.283   3.162   2.296
99442W        W64603  23.695   8.740   4.447
99443W        W64604  26.812  31.232  10.730
99444W        W64605  19.097   5.132   9.950
99445W        W64606   3.840   1.038  12.105
99446W        W64607  12.463  28.969  12.177
99447W        W64608  29.225  11.054   4.886
99448W        W64609  34.617  31.092   3.100
99449W        W64610  23.709  41.935   4.145
99450W        W64611  32.626  17.715   3.071
99451W        W64612   7.364   5.226  13.955
99452W        W64613  13.559  33.747  14.094
99453W        W64614  25.465   1.797  14.366
99454W        W64615  29.609  26.306   2.393
99455W        W64616  14.293  25.724   2.858
99456W        W64617  18.098  36.056  12.891
99457W        W64618  30.190   3.902  12.915
99458W        W64619  13.339  24.953   0.709
99459W        W64620  31.956  13.534   0.716
99460W        W64621  23.497  10.194   2.456
99461W        W64622  41.972  19.992  11.264
99462W        W64623   5.705  31.609   0.284
99463W        W64624   0.827   9.627  11.103
99464W        W64625  17.188  33.311  11.720
99465W        W64626  30.613  40.782  14.861
99466W        W64627  32.753  16.030  11.996
99467W        W64628  33.013  29.997   2.150
99468W        W64629  22.938  40.863   3.763
99469W        W64630  14.341   5.849   3.801
99470W        W64631   6.417   7.810  13.105
99471W        W64632  42.008  33.541  11.317
99472W        W64633  30.621  11.114   0.085
99473W        W64634  21.078  43.430   0.243
99474W        W64635  31.635   2.226   0.451
99475W        W64636  16.525  17.798  14.026
99476W        W64637  37.113  35.098   3.717
99477W        W64638   0.419  19.215  11.363
99478W        W64639  32.003  34.828   4.272
99479W        W64640   9.313  37.449   0.458
99480W        W64641  28.916  22.676  11.596
99481W        W64642   9.918   8.114   1.344
99482W        W64643  23.213  21.790  13.613
99483W        W64644  37.989  17.307   1.544
99484W        W64645  14.747  21.141   4.532
99485W        W64646   1.229  20.242  12.230
99486W        W64647  19.694   3.128   2.633
99487W        W64648  36.610  40.857  10.658
99488W        W64649   0.317  19.183  14.071
99489W        W64650  21.902  22.579   3.007
99490W        W64651   9.726  18.792   3.175
99491W        W64652  31.906  31.541  14.005
99492W        W64653  34.035  16.019   3.048
99493W        W64654   5.324  18.678  10.661
99494W        W64655  19.336  38.804   0.542
99495W        W64656  23.052   9.191   4.549
99496W        W64657  11.659  11.595  11.163
99497W        W64658  13.697  24.890  14.494
99498W        W64659  18.475  12.862  10.343
99499W        W64660  17.004   9.912   0.030
99500W        W64661  22.423   7.676  13.466
99501W        W64662  36.311  22.530  11.173
99502W        W64663  21.167  34.190  11.649
99503W        W64664  28.692  31.528   2.768
99504W        W64665   7.761  20.006   4.143
99505W        W64666  13.398  15.052   1.827
99506W        W64667   5.893  15.567  14.874
99507W        W64668  43.365  37.878   2.119
99508W        W64669  40.475  34.044   1.244
99509W        W64670   3.772  39.926   3.867
99510W        W64671   4.217  25.052  12.231
99511W        W64672  24.792  18.174  14.354
99512W        W64673   8.190  42.061  12.066
99513W        W64674  16.674  40.279  13.962
99514W        W64675  11.958  24.265  11.404
99515W        W64676  17.369  10.235   1.021
99516W        W64677  29.958   9.437  11.242
99517W        W64678   9.072  40.627   2.413
99518W        W64679  30.947  26.330   4.620
99519W        W64680   5.687  14.047   2.584
99520W        W64681   3.361  22.950  14.349
99521W        W64682  27.165   7.888  11.918
99522W        W64683  36.528  24.287  11.940
99523W        W64684   3.662   3.526   2.865
99524W        W64685  36.213  33.367   0.827
99525W        W64686  19.692   6.679  12.009
99526W        W64687  28.193  37.039   1.900
99527W        W64688  36.902  28.953  13.016
99528W        W64689  34.071  39.438   4.059
99529W        W64690  40.543  24.502   4.200
99530W        W64691  28.011  22.938  12.601
99531W        W64692   9.703  24.128  11.570
99532W        W64693  36.517  44.604  14.611
99533W        W64694  38.544   6.870   1.736
99534W        W64695   0.836  24.771   1.152
99535W        W64696   0.667  19.505  10.776
99536W        W64697   4.454  16.324   1.805
99537W        W64698  20.629   1.190  13.058
99538W        W64699  10.212  28.942   0.373
99539W        W64700  24.446  44.695   4.075
99540W        W64701  20.170  19.260  14.456
99541W        W64702  23.187   5.185   3.717
99542W        W64703  40.550  30.436   0.835
99543W        W64704   2.469  24.930  13.473
99544W        W64705  37.977  31.591   1.454
99545W        W64706  33.314   5.725   1.878
99546W        W64707   8.157   0.787  10.710
99547W        W64708  39.771   2.728  13.390
99548W        W64709   5.847   6.700  13.908
99549W        W64710  44.877  17.947  14.154
99550W        W64711   6.248  41.278   2.683
99551W        W64712   7.201   4.222  11.459
99552W        W64713  27.249  16.243   5.034
99553W        W64714  15.623  31.888  11.660
99554W        W64715   6.534  18.572  11.325
99555W        W64716  17.849  21.687   0.336
99556W        W64717   3.304  43.990   4.590
99557W        W64718  28.473  44.574  11.961
99558W        W64719  33.333  23.282   5.344
99559W        W64720  26.003  39.900  14.299
99560W        W64721  30.863   6.347   1.849
99561W        W64722  32.684   8.271   2.443
99562W        W64723   2.817  30.059   4.540
99563W        W64724  19.854  29.264  11.620
99564W        W64725   1.566  39.505  11.902
99565W        W64726  33.543   4.541  14.825
99566W        W64727  40.539  39.818   2.926
99567W        W64728   7.773  32.787  14.876
99568W        W64729  18.177   3.507   1.209
99569W        W64730  41.427  32.363   4.294
99570W        W64731   1.899   7.301  14.428
99571W        W64732  21.114   6.157   1.439
99572W        W64733  24.076   6.385   3.745
99573W        W64734  23.260  41.825  12.861
99574W        W64735  27.198  32.072   4.236
99575W        W64736   2.244  28.142   0.767
99576W        W64737  40.309  31.899   2.764
99577W        W64738  32.737  28.051  14.975
99578W        W64739   7.631  14.725   3.629
99579W        W64740  39.498  21.154  11.003
99580W        W64741  29.471  18.167   5.250
99581W        W64742   1.352  21.588  10.922
99582W        W64743   5.232  37.819  12.509
99583W        W64744  26.401   1.976  12.036
99584W        W64745  35.980   1.715  11.336
99585W        W64746  42.999  25.206  12.010
99586W        W64747  16.787  34.513  12.513
99587W        W64748  27.017  39.479   2.655
99588W        W64749  14.219   4.668  13.607
99589W        W64750   7.899  14.292   0.410
99590W        W64751  43.032  35.845  14.827
99591W        W64752  38.807  35.510   1.225
99592W        W64753  33.215  23.983  14.698
99593W        W64754  15.167   6.321   4.499
99594W        W64755   7.200   7.296  11.090
99595W        W64756  27.463  11.330  14.041
99596W        W64757  24.679  22.561  13.977
99597W        W64758  35.227  13.889   3.692
99598W        W64759  38.963  28.884   0.422
99599W        W64760  30.482  22.469   0.319
99600W        W64761  14.693  31.613   3.634
99601W        W64762   6.121  24.164   3.706
99602W        W64763  12.172  21.085   2.445
99603W        W64764   4.941   2.297  14.853
99604W        W64765  31.986   3.525  10.730
99605W        W64766  38.380  36.937  14.272
99606W        W64767   3.868   0.637   3.454
99607W        W64768  13.235  21.492  14.423
99608W        W64769  42.659  13.694   4.099
99609W        W64770   3.393  18.161   1.575
99610W        W64771  31.673  35.785   1.445
99611W        W64772   5.081  15.243  13.210
99612W        W64773  44.136  39.014   4.200
99613W        W64774   3.681  16.621  11.788
99614W        W64775  26.984  10.799  12.033
99615W        W64776   5.977  40.319   0.295
99616W        W64777   3.524   2.810   4.105
99617W        W64778   9.254  16.216  11.061
99618W        W64779  31.664  12.587   0.908
99619W        W64780   0.344  42.397  14.144
99620W        W64781  29.844  16.630  14.883
99621W        W64782  30.884  32.264   1.758
99622W        W64783  21.287  39.820  11.383
99623W        W64784  30.175   7.159  12.863
99624W        W64785   8.158  17.224  12.584
99625W        W64786   7.539  23.261   5.116
99626W        W64787  34.950   5.162  13.053
99627W        W64788  42.959  28.738   0.753
99628W        W64789  19.247   6.709  13.862
99629W        W64790   4.384   7.932  11.539
99630W        W64791  11.356   8.318  11.042
99631W        W64792  22.684  41.709   1.532
99632W        W64793   5.449  22.149   1.930
99633W        W64794  25.533  33.261  14.428
99634W        W64795  12.142  19.933   1.392
99635W        W64796  29.090  33.858  10.563
99636W        W64797  43.323  39.042  13.423
99637W        W64798  40.424  14.207  14.939
99638W        W64799   7.595   8.776   3.145
99639W        W64800   2.872  40.466   2.585
99640W        W64801  35.322  12.192  14.446
99641W        W64802  35.332   5.325  11.213
99642W        W64803   9.883  22.367  11.215
99643W        W64804   3.421   7.519  12.658
99644W        W64805  23.395  41.581   3.269
99645W        W64806   5.677   4.020  13.429
99646W        W64807  26.662  20.847  14.551
99647W        W64808  34.910  21.578   1.985
99648W        W64809  41.279   3.436   2.712
99649W        W64810  37.859  19.766   1.133
99650W        W64811  23.650  26.147   3.023
99651W        W64812  35.565  39.509   1.858
99652W        W64813  16.055  20.227   4.036
99653W        W64814  29.224  25.059   1.812
99654W        W64815  13.111  21.708  13.958
99655W        W64816  32.960  19.085  11.199
99656W        W64817  17.102  35.086   3.706
99657W        W64818  36.705  29.508  13.800
99658W        W64819  26.975   3.546  12.482
99659W        W64820  22.198  17.785  13.408
99660W        W64821   2.693  18.654   1.852
99661W        W64822  31.342  40.070   1.648
99662W        W64823  11.114   5.338   3.405
99663W        W64824   0.481   6.148   0.475
99664W        W64825  44.807  32.090   1.847
99665W        W64826  42.319  18.748  11.689
99666W        W64827  34.149  15.803  10.490
99667W        W64828   6.389   1.666   4.092
99668W        W64829  18.442  21.638  12.991
99669W        W64830  17.179   8.476   4.873
99670W        W64831  41.821  30.515   1.484
99671W        W64832  17.213  35.605  12.006
99672W        W64833  42.084   6.296   3.661
99673W        W64834  29.696  11.327  11.498
99674W        W64835   2.725   9.343   3.579
99675W        W64836   5.198  21.132   0.457
99676W        W64837   0.556  43.345   2.675
99677W        W64838  25.913  22.233  12.201
99678W        W64839  40.494  21.226   4.056
99679W        W64840  41.073  28.947  11.610
99680W        W64841  27.859  12.688  10.800
99681W        W64842  21.490  24.326  10.769
99682W        W64843  43.172  25.891  14.874
99683W        W64844  21.807  13.482   0.342
99684W        W64845   7.595  43.679  12.638
99685W        W64846  44.734   6.830   0.625
99686W        W64847  38.363  38.470   3.753
99687W        W64848  34.318  37.786   1.792
99688W        W64849  42.248  40.325   3.258
99689W        W64850  28.937  11.843   1.302
99690W        W64851  40.223  35.032  14.912
99691W        W64852   0.622   4.231   3.754
99692W        W64853  42.439  21.072  11.268
99693W        W64854   3.129   5.155  11.493
99694W        W64855   7.487  33.072  13.173
99695W        W64856  36.856  19.803  11.160
99696W        W64857  16.542  35.802   3.733
99697W        W64858   3.221  33.986   4.603
99698W        W64859   4.966  38.014   4.529
99699W        W64860  43.988   9.257   2.246
99700W        W64861  14.758  40.680   0.185
99701W        W64862   0.352  36.560   2.696
99702W        W64863  19.405   2.339   5.030
99703W        W64864  37.534  44.469  10.691
99704W        W64865  25.179  38.416  11.710
99705W        W64866  42.247  25.655  13.384
99706W        W64867  37.495   7.585  14.984
99707W        W64868  38.790  11.733   4.553
99708W        W64869  17.714  22.293   2.613
99709W        W64870  28.582   6.589  10.557
99710W        W64871  21.381  23.369   4.905
99711W        W64872   8.298  16.301   3.165
99712W        W64873   9.623  26.265  14.343
99713W        W64874  13.422  33.538   2.822
99714W        W64875   0.603  18.933   0.354
99715W        W64876  10.167  35.555   1.875
99716W        W64877  40.878  34.999   2.594
99717W        W64878  12.269  18.284   4.247
99718W        W64879  25.178  36.802   1.750
99719W        W64880   3.254  15.213  13.344
99720W        W64881  22.510   0.287   3.692
99721W        W64882  16.547  13.550  12.350
99722W        W64883  27.139  13.274   1.205
99723W        W64884  12.825  11.599  13.907
99724W        W64885  41.580   7.159  13.407
99725W        W64886  12.795  23.894  14.429
99726W        W64887   8.790  13.802  11.501
99727W        W64888  28.937  16.855   1.732
99728W        W64889   2.739  19.295   4.698
99729W        W64890  24.891  26.375   5.052
99730W        W64891  13.351  39.398  13.182
99731W        W64892   6.518  33.360  11.991
99732W        W64893  17.980   3.999   0.713
99733W        W64894   7.175  32.518   4.503
99734W        W64895  17.672   8.947  10.225
99735W        W64896   4.917  14.774   3.258
99736W        W64897  39.779  22.236  14.440
99737W        W64898  24.566   6.252   3.577
99738W        W64899  11.894  16.146   0.388
99739W        W64900   6.973  43.119   1.281
99740W        W64901  23.286  24.969   5.027
99741W        W64902  13.027  24.605  14.846
99742W        W64903  38.114  42.005   2.775
99743W        W64904  17.715   4.312  14.133
99744W        W64905  11.766  15.498  12.475
99745W        W64906  16.676  24.081  12.036
99746W        W64907  12.221  42.803  11.708
99747W        W64908   5.402  34.053   0.243
99748W        W64909  16.221   2.517  11.143
99749W        W64910  34.008   2.473  10.753
99750W        W64911  28.997   5.745   0.860
99751W        W64912  33.547   1.967  14.873
99752W        W64913  44.970  17.521   1.812
99753W        W64914  14.741  35.021  12.938
99754W        W64915  26.860  15.873   4.960
99755W        W64916  16.285  25.618  13.490
99756W        W64917  10.942  41.493   0.394
99757W        W64918   6.868  14.071  10.764
99758W        W64919  14.748   8.887   4.158
99759W        W64920  36.398  17.294  11.580
99760W        W64921  20.222   6.165   3.633
99761W        W64922  24.152  25.070   2.157
99762W        W64923  20.125  26.042   2.877
99763W        W64924  15.600  44.467  11.671
99764W        W64925  23.201  34.736  14.487
99765W        W64926   8.928  36.538  12.467
99766W        W64927  17.503  12.567  12.923
99767W        W64928  43.485  37.566   3.119
99768W        W64929   2.380   8.767  12.034
99769W        W64930  13.421   7.354  10.777
99770W        W64931   6.201  39.681   2.006
99771W        W64932  38.390  12.666  13.115
99772W        W64933  39.872  21.770   2.265
99773W        W64934  43.045  18.018  13.041
99774W        W64935  25.318   6.928  12.443
99775W        W64936  10.885  12.801   2.739
99776W        W64937  16.215  44.250   0.678
99777W        W64938  28.465  40.538   4.608
99778W        W64939   5.511  41.888   3.361
99779W        W64940  31.434  11.265   0.585
99780W        W64941  20.518  42.214  14.344
99781W        W64942  16.064  42.929   2.592
99782W        W64943  36.654  24.770  11.854
99783W        W64944  34.887  34.468  12.290
99784W        W64945  29.893  26.284  11.435
99785W        W64946  25.955  18.522  11.605
99786W        W64947  37.705  24.092   2.582
99787W        W64948  21.048  27.184   3.279
99788W        W64949  28.560  31.074  14.023
99789W        W64950   3.752  26.292   2.112
99790W        W64951  22.443   8.078   9.726
99791W        W64952  37.902  14.618  10.788
99792W        W64953  15.302   7.346  10.649
99793W        W64954   2.175  19.955   4.843
99794W        W64955   7.259   7.450   2.223
99795W        W64956  13.755  31.116   3.667
99796W        W64957  34.533   3.402   3.397
99797W        W64958  30.753  34.107   2.622
99798W        W64959  12.007  43.502   0.160
99799W        W64960  12.378  23.519   0.387
99800W        W64961  38.799  43.338   4.566
99801W        W64962  36.274  18.377   0.947
99802W        W64963  22.151  19.744  12.126
99803W        W64964  14.193   5.164   2.320
99804W        W64965  11.846  35.232  12.919
99805W        W64966  28.625  21.813  11.562
99806W        W64967  32.701   3.628  12.827
99807W        W64968  11.355  33.737  10.430
99808W        W64969  34.483  41.631   3.518
99809W        W64970  26.392  36.418  11.602
99810W        W64971  26.263  17.495  10.832
99811W        W64972  34.399  21.787   1.144
99812W        W64973  13.949  39.444  15.000
99813W        W64974  41.521  27.426  10.643
99814W        W64975  23.047  36.482   4.132
99815W        W64976  27.572  12.782  10.251
99816W        W64977  41.147  41.865  10.734
99817W        W64978  41.232  16.624  14.320
99818W        W64979  41.369  29.411   2.957
99819W        W64980  25.783  14.211   4.562
99820W        W64981  14.295  29.490  10.717
99821W        W64982  32.162   6.171  11.504
99822W        W64983  25.648  12.840   3.557
99823W        W64984  20.636  31.517  13.922
99824W        W64985   9.652  15.671   2.713
99825W        W64986  33.871   0.752  11.029
99826W        W64987  19.342  38.557   2.766
99827W        W64988  15.149  13.279  11.479
99828W        W64989  19.641  41.268  10.919
99829W        W64990  42.747  30.939  11.748
99830W        W64991  32.688   1.203  10.623
99831W        W64992  31.920  21.210   3.761
99832W        W64993  31.710  31.296  11.014
99833W        W64994   3.506  43.759  12.603
99834W        W64995  31.977  44.757   3.128
99835W        W64996  42.192  34.857  11.183
99836W        W64997  29.995   9.893  10.919
99837W        W64998  30.383   1.320  13.945
99838W        W64999  42.899  11.752  14.544
99839W        W65000  27.760  25.848   4.051
99840W        W65001  33.388  19.712  13.855
99841W        W65002   9.682  38.040  11.602
99842W        W65003  23.747   7.660   0.459
99843W        W65004  44.564  24.004   9.872
99844W        W65005   3.462  13.121   0.232
99845W        W65006  22.097  13.636   2.156
99846W        W65007  26.387  17.479   2.216
99847W        W65008  43.287  41.273  11.571
99848W        W65009  23.228  24.350  10.354
99849W        W65010  26.006  19.952   0.502
99850W        W65011  44.004   2.020  14.922
99851W        W65012   7.676  42.737   2.344
99852W        W65013  10.607   9.651   2.398
99853W        W65014  24.804  39.232  13.744
99854W        W65015  11.335  41.286   2.719
99855W        W65016  18.246  36.794  13.268
99856W        W65017  34.930  35.978   0.044
99857W        W65018  17.555  27.643   0.729
99858W        W65019  20.807  19.836   1.362
99859W        W65020   1.807  40.125  10.756
99860W        W65021  30.168  42.866   0.941
99861W        W65022  39.951  25.633  13.403
99862W        W65023  11.323  16.587  11.125
99863W        W65024   8.273  21.193   2.871
99864W        W65025  13.844  19.005   4.301
99865W        W65026  43.271  37.107   0.863
99866W        W65027  10.254  30.669   1.353
99867W        W65028  41.010  37.319  12.473
99868W        W65029  28.435  17.770   0.924
99869W        W65030  30.511  13.253   3.577
99870W        W65031  21.535  16.013   0.398
99871W        W65032  20.191   6.213   0.734
99872W        W65033  12.337  36.949  13.487
99873W        W65034  40.987  38.475  14.224
99874W        W65035  32.731  15.648  12.919
99875W        W65036  35.160  39.220   2.035
99876W        W65037  37.569  31.583   3.776
99877W        W65038  42.995  31.136   2.291
99878W        W65039  36.531  18.600   1.713
99879W        W65040  34.344  21.533   1.596
99880W        W65041  43.434  37.855   0.315
99881W        W65042  38.505  12.401   3.219
99882W        W65043  36.055   2.201  14.890
99883W        W65044  33.417   9.987   3.186
99884W        W65045  38.932  36.034   3.886
99885W        W65046   8.466  12.641  13.418
99886W        W65047  25.196   9.788   3.087
99887W        W65048  20.886  36.268  10.538
99888W        W65049  18.188  38.467   1.010
99889W        W65050  27.082  18.332  10.740
99890W        W65051  43.355  36.518   1.745
99891W        W65052  11.367  28.855  13.913
99892W        W65053   1.562  29.826   1.907
99893W        W65054  31.107  30.842   3.843
99894W        W65055  37.439   0.963   2.804
99895W        W65056  32.029   4.221  14.663
99896W        W65057  35.814  26.090   1.958
99897W        W65058   7.091  11.268  11.735
99898W        W65059   8.219   4.940   4.335
99899W        W65060   9.482  15.416  11.203
99900W        W65061  40.985  38.868   1.558
99901W        W65062  34.888  42.075   3.225
99902W        W65063   9.212   9.678  12.496
99903W        W65064   6.481  33.476   3.667
99904W        W65065  22.965  26.910   1.054
99905W        W65066   2.182  44.144  14.795
99906W        W65067  14.848  39.457   9.955
99907W        W65068  24.741   8.931   2.935
99908W        W65069  10.857   3.197  14.068
99909W        W65070   6.659   6.623   4.099
99910W        W65071  21.009  41.379  11.231
99911W        W65072  29.081  29.182   0.734
99912W        W65073  33.689  22.072   0.786
99913W        W65074  22.582  39.058  10.506
99914W        W65075   2.120  12.700   0.468
99915W        W65076  17.094  12.268   4.117
99916W        W65077  10.192  16.598   1.875
99917W        W65078   5.732   7.965  11.569
99918W        W65079  41.565  41.413  12.070
99919W        W65080  15.017  19.087  10.666
99920W        W65081  41.108  38.647   1.006
99921W        W65082   5.929  26.586  10.728
99922W        W65083  13.891  14.851  14.409
99923W        W65084   1.673  20.115  12.449
99924W        W65085  17.534  38.814  12.965
99925W        W65086  15.174  21.058  13.899
99926W        W65087  38.359  35.047   0.455
99927W        W65088  39.025  36.043   2.655
99928W        W65089  10.523  18.625  14.814
99929W        W65090   0.959  31.664  11.726
99930W        W65091  42.631  25.141  13.348
99931W        W65092  11.325   9.607   3.778
99932W        W65093  38.667   8.854   4.856
99933W        W65094  28.119  17.539   0.404
99934W        W65095   1.464  39.072   0.632
99935W        W65096   3.405  39.537  12.339
99936W        W65097  17.048  28.681   4.774
99937W        W65098  39.856  41.052  14.009
99938W        W65099  36.864   8.232   2.587
99939W        W65100   6.691  43.833   1.740
99940W        W65101  30.513  41.801   0.772
99941W        W65102  40.493  42.444  11.207
99942W        W65103   5.140  33.924   2.860
99943W        W65104  35.233  43.553   1.893
99944W        W65105  24.175  31.855  12.265
99945W        W65106  11.724  42.498  11.081
99946W        W65107  44.392  16.819  14.665
99947W        W65108  14.895  21.275  14.407
99948W        W65109  41.803  13.842   3.847
99949W        W65110  39.329   9.851  12.346
99950W        W65111  41.570   6.142  12.298
99951W        W65112  32.403  27.521  13.385
99952W        W65113  11.239  22.750  11.088
99953W        W65114  43.302  26.674  11.294
99954W        W65115   9.317   6.471   1.769
99955W        W65116  43.187  44.691   1.435
99956W        W65117   9.149  33.472   4.415
99957W        W65118  18.286  37.544  13.039
99958W        W65119  26.228  43.813   2.426
99959W        W65120   0.987   4.338  10.641
99960W        W65121  33.883  12.836  10.510
99961W        W65122   4.821   2.707  12.314
99962W        W65123  29.118  39.090  14.070
99963W        W65124  10.420  18.117  11.888
99964W        W65125  21.115  26.936  11.873
99965W        W65126  37.020   2.728   0.204
99966W        W65127  33.529  36.517  12.936
99967W        W65128  39.895   2.245  10.621
99968W        W65129   1.902  32.806  14.053
99969W        W65130  34.312   7.623  12.941
99970W        W65131  29.359  24.951   4.080
99971W        W65132  36.916  11.220  11.693
99972W        W65133  16.127  23.409  11.901
99973W        W65134  36.971  42.539   4.103
99974W        W65135  21.477  11.809   2.378
99975W        W65136   1.960  35.280   0.823
99976W        W65137  21.971  18.452   1.488
99977W        W65138  12.854  21.968   0.805
99978W        W65139   8.203  36.825  12.791
99979W        W65140   1.706  41.670   0.253
99980W        W65141  26.533   9.622  10.850
99981W        W65142  37.513   9.240  11.185
99982W        W65143  29.618  33.720   3.093
99983W        W65144  28.486  27.971   0.966
99984W        W65145  13.890   8.261  14.311
99985W        W65146   2.528   4.304  11.625
99986W        W65147  40.923  26.152   3.380
99987W        W65148  22.972  12.228  11.670
99988W        W65149  27.161   2.857   0.722
99989W        W65150  25.729  17.645  12.722
99990W        W65151   9.259  22.606  13.184
99991W        W65152  23.707   4.134  14.270
99992W        W65153  13.362   4.983  13.552
99993W        W65154  11.354  11.785   4.570
99994W        W65155  44.837  43.381   3.187
99995W        W65156  27.752  14.771  11.113
99996W        W65157  21.962  43.929  14.960
99997W        W65158   1.865   7.950  11.183
99998W        W65159   7.239   5.691  12.739
99999W        W65160  18.328  13.138   2.397
    0W        W65161  20.052  32.841  14.852
    1W        W65162  40.808  37.228  14.021
    2W        W65163  27.120  44.388  11.607
    3W        W65164  10.154  33.472  11.193
    4W        W65165  35.574  43.032   0.997
    5W        W65166  19.695  40.260  10.435
    6W        W65167  30.810  32.712   1.518
    7W        W65168  41.335   1.712   0.975
    8W        W65169  21.628  41.334  14.749
    9W        W65170  14.289  20.179   2.579
   10W        W65171  10.897  29.074  14.276
   11W        W65172  33.128  10.735  12.923
   12W        W65173  33.428  42.101   4.159
   13W        W65174   2.551  44.308   0.128
   14W        W65175  27.350  12.673  10.730
   15W        W65176  22.087   3.243   1.355
   16W        W65177  31.780  26.146  14.909
   17W        W65178   7.627  13.850  13.066
   18W        W65179   9.205  24.308  11.559
   19W        W65180   8.200  14.226   4.571
   20W        W65181  42.297  11.505   4.686
   21W        W65182  17.254  39.180  14.466
   22W        W65183  27.641  10.439  11.054
   23W        W65184   7.247  10.918  14.085
   24W        W65185  13.070   5.319   2.950
   25W        W65186  12.577  35.609   4.597
   26W        W65187  10.182  16.281   3.671
   27W        W65188  17.723  32.995   4.835
   28W        W65189  25.304  24.605  14.678
   29W        W65190  38.222   3.898   0.784
   30W        W65191  35.992  23.335  14.895
   31W        W65192  20.626  24.801   4.541
   32W        W65193  23.974  40.310  11.166
   33W        W65194  12.937  38.358   2.347
   34W        W65195  32.399  38.548  12.145
   35W        W65196  12.216  35.834  14.898
   36W        W65197  41.909  32.508   2.660
   37W        W65198  36.747  26.189   2.355
   38W        W65199  13.021  28.703  11.626
   39W        W65200   5.787  40.624   2.746
   40W        W65201  32.210  11.143   2.308
   41W        W65202  12.165  11.631  12.083
   42W        W65203  18.764  11.730   0.654
   43W        W65204  10.101  18.936   3.515
   44W        W65205  26.078   7.289  11.510
   45W        W65206  24.177  33.573   3.356
   46W        W65207  31.958   8.312   0.206
   47W        W65208   7.644  27.782  12.618
   48W        W65209  25.429  18.779   0.317
   49W        W65210  36.028  11.351   4.459
   50W        W65211  12.741  20.495   0.510
   51W        W65212  17.518  10.104  13.536
   52W        W65213  21.485  14.788   2.264
   53W        W65214  19.274  11.837  13.600
   54W        W65215  41.407   6.274  13.273
   55W        W65216  29.301  42.371  11.688
   56W        W65217  14.976  13.282   3.923
   57W        W65218  36.531  41.651   4.473
   58W        W65219  43.112  11.857  11.078
   59W        W65220  10.817  15.105  13.943
   60W        W65221  12.703  27.724  11.655
   61W        W65222  24.516   0.530   3.759
   62W        W65223  25.563  24.543   2.594
   63W        W65224  31.002  20.129   1.983
   64W        W65225  37.390  14.739   2.583
   65W        W65226  14.608  16.869  14.785
   66W        W65227  16.074  15.042  14.850
   67W        W65228  15.265  32.898   0.414
   68W        W65229  17.832  22.578   0.309
   69W        W65230  31.946  29.461   4.155
   70W        W65231  30.534  24.358  12.900
   71W        W65232   2.468  41.951  12.431
   72W        W65233  15.224  44.412   2.445
   73W        W65234  14.582  43.849  14.548
   74W        W65235   8.637  17.131   0.282
   75W        W65236  39.801  31.887   2.700
   76W        W65237  11.149  39.483   3.192
   77W        W65238  16.438  15.678   4.353
   78W        W65239   3.813  33.479  14.835
   79W        W65240  12.092   2.034  13.082
   80W        W65241  15.299   2.063   1.420
   81W        W65242   5.505  20.737   0.278
   82W        W65243  12.621  17.035   2.771
   83W        W65244   2.220  27.578   0.020
   84W        W65245  29.111  12.635   1.733
   85W        W65246   1.742  41.151  10.759
   86W        W65247  15.508  19.777   4.607
   87W        W65248  13.757  34.809   1.890
   88W        W65249  14.655  10.371  10.151
   89W        W65250  13.258  27.242  11.242
   90W        W65251  12.729  36.730   1.034
   91W        W65252   5.356  38.902  11.122
   92W        W65253  11.238  30.418   3.222
   93W        W65254  16.752  44.125   4.152
   94W        W65255  35.623  27.930   0.424
   95W        W65256  10.346   0.633  12.036
   96W        W65257  21.073  39.035  11.918
   97W        W65258  11.892  17.853   4.860
   98W        W65259   4.452  29.587  11.883
   99W        W65260  31.818  35.767   2.025
  100W        W65261  15.789  36.671   2.558
  101W        W65262  30.903  25.505  13.947
  102W        W65263  40.883  33.045  13.676
  103W        W65264   2.475  35.301   0.846
  104W        W65265  44.621  43.506  12.647
  105W        W65266  17.812  23.558   2.748
  106W        W65267  36.157  22.676  13.422
  107W        W65268   9.174  31.353  10.838
  108W        W65269  26.242  28.608   3.971
  109W        W65270  16.724  25.922  12.030
  110W        W65271  20.690  11.057   2.644
  111W        W65272  36.585  19.628  14.364
  112W        W65273  15.028   1.442   0.902
  113W        W65274  10.359  42.431  14.981
  114W        W65275  40.997  29.373   2.176
  115W        W65276   1.247  12.766  13.942
  116W        W65277   0.303  22.665  12.061
  117W        W65278  11.728  16.764  10.606
  118W        W65279   5.337  10.202   2.564
  119W        W65280  20.146  26.936  11.569
  120W        W65281  25.499  39.924  12.608
  121W        W65282  36.294  39.567  13.988
  122W        W65283  39.362  27.651   0.441
  123W        W65284  11.204  43.877  13.109
  124W        W65285  20.976   6.333   1.916
  125W        W65286  17.873   5.848  14.609
  126W        W65287  41.501   3.570  14.765
  127W        W65288  42.747  12.570  14.822
  128W        W65289  36.494   3.217   4.254
  129W        W65290  10.835  12.816  11.251
  130W        W65291   7.201  18.737  14.882
  131W        W65292   4.409   3.003  12.090
  132W        W65293  26.482  28.567  14.366
  133W        W65294  17.265  27.480   1.428
  134W        W65295   6.197  37.305  14.911
  135W        W65296  33.089  25.572   4.737
  136W        W65297  26.500  21.302  13.435
  137W        W65298   8.616  44.696   2.394
  138W        W65299  31.811  24.257   0.883
  139W        W65300  22.138  31.847  11.590
  140W        W65301  24.635   4.371   2.989
  141W        W65302  41.371  26.755   1.740
  142W        W65303  41.562   1.404   3.902
  143W        W65304   9.225   5.860   4.828
  144W        W65305  10.644   1.068  13.262
  145W        W65306  43.542  41.258   3.529
  146W        W65307  41.947   7.931  14.870
  147W        W65308  35.768   5.903  14.483
  148W        W65309   9.841  10.397  13.510
  149W        W65310  22.644  29.011   1.315
  150W        W65311  25.227  14.184  13.910
  151W        W65312  41.540  12.207   1.251
  152W        W65313   4.611   3.260   2.729
  153W        W65314  40.840  26.354   4.312
  154W        W65315   2.480   4.686  11.997
  155W        W65316   5.358  15.353  12.794
  156W        W65317  22.429  13.123   4.941
  157W        W65318   2.754  13.623   0.980
  158W        W65319  44.299  43.452   3.754
  159W        W65320  38.479  12.929   3.134
  160W        W65321  37.601   2.853   2.819
  161W        W65322  33.312  29.306  13.651
  162W        W65323  28.945  17.703  13.534
  163W        W65324  36.077  25.326  12.509
  164W        W65325   2.474  30.466   3.246
  165W        W65326  22.160  32.267   1.358
  166W        W65327   2.393  13.931  10.172
  167W        W65328  35.351   9.681   2.307
  168W        W65329  25.027  32.158  14.828
  169W        W65330  35.236  22.069   2.761
  170W        W65331   5.867  43.268   4.257
  171W        W65332  39.229   3.309   4.368
  172W        W65333  34.380   0.886   4.659
  173W        W65334  14.607   4.752  12.372
  174W        W65335  24.750  11.824   0.981
  175W        W65336  32.960  25.140   2.970
  176W        W65337  32.829  36.076   2.509
  177W        W65338  27.515  10.706   2.694
  178W        W65339  42.458  27.763  14.469
  179W        W65340   3.970  37.175   4.249
  180W        W65341  26.214  30.058  14.994
  181W        W65342  37.633   7.850  12.938
  182W        W65343   4.479   8.236  12.396
  183W        W65344  37.389  42.997  12.344
  184W        W65345  31.960   1.372  10.688
  185W        W65346  38.898  32.310  14.478
  186W        W65347  29.445  15.050   4.059
  187W        W65348  19.005  19.536   3.449
  188W        W65349  25.967   9.214  14.256
  189W        W65350   2.638  19.651  10.469
  190W        W65351  43.032  40.402  10.717
  191W        W65352  39.370  20.542   3.390
  192W        W65353  36.547  13.124   3.572
  193W        W65354  28.525  24.586   2.749
  194W        W65355  42.799   8.387   1.145
  195W        W65356  43.937  18.545   4.448
  196W        W65357  22.416  41.266  11.916
  197W        W65358  29.197   9.875  13.514
  198W        W65359  17.090  29.515  14.930
  199W        W65360   6.678  20.815  13.210
  200W        W65361  31.416  35.889   4.674
  201W        W65362  35.180   2.150   2.398
  202W        W65363  15.046  20.777  14.308
  203W        W65364  21.655   3.524   0.724
  204W        W65365  31.053  29.522  13.954
  205W        W65366  42.330   2.435   3.462
  206W        W65367   8.684  14.762   0.355
  207W        W65368  10.301  30.123  10.665
  208W        W65369  24.576  38.087  14.826
  209W        W65370  11.959   8.537   0.989
  210W        W65371  39.490   4.730   3.190
  211W        W65372  19.343  32.538   1.272
  212W        W65373  42.110  14.357  11.415
  213W        W65374   0.500  28.631   4.464
  214W        W65375  26.808  21.706  12.162
  215W        W65376   2.210  35.450  11.016
  216W        W65377  31.113  43.037   4.045
  217W        W65378  15.808  31.033  11.289
  218W        W65379  29.880  37.855  14.940
  219W        W65380  34.323   0.965   0.948
  220W        W65381  10.426  39.567   2.728
  221W        W65382   3.271  19.219   3.629
  222W        W65383  22.076  28.211  10.872
  223W        W65384  15.942  44.818   4.522
  224W        W65385   3.610   6.237   0.239
  225W        W65386  43.347  40.340  14.883
  226W        W65387   9.740   3.161  11.088
  227W        W65388  32.899   7.425   0.994
  228W        W65389   1.978  40.719  14.436
  229W        W65390  44.613  13.539  14.431
  230W        W65391   2.889   1.222  13.883
  231W        W65392  40.439   9.841  11.620
  232W        W65393  40.074  21.665  13.608
  233W        W65394  23.724  25.982  10.662
  234W        W65395  38.095  13.745  14.478
  235W        W65396  32.876  37.071  14.855
  236W        W65397  12.868  32.819  13.457
  237W        W65398  39.834  40.872   0.362
  238W        W65399  23.200  16.129   1.512
  239W        W65400  13.648  21.803  11.191
  240W        W65401   3.682  29.675   4.132
  241W        W65402  23.242  35.979   4.171
  242W        W65403   3.670  36.987   2.945
  243W        W65404  42.197  38.000  12.477
  244W        W65405  15.828  13.720   4.075
  245W        W65406  43.075  33.906   3.771
  246W        W65407  39.569   1.798   2.348
  247W        W65408   5.129  42.395  12.784
  248W        W65409  28.535  39.710  14.220
  249W        W65410  39.355   3.081  13.370
  250W        W65411  16.297  37.261   1.709
  251W        W65412  19.152   7.941   2.108
  252W        W65413  13.289  42.595  14.721
  253W        W65414   2.929  27.142  10.534
  254W        W65415  14.969  31.605  13.040
  255W        W65416  26.984  12.261  14.627
  256W        W65417   3.320  29.946  10.395
  257W        W65418  43.932  30.685   1.797
  258W        W65419  27.548  21.730  12.574
  259W        W65420  40.824  14.743   0.952
  260W        W65421  17.282  34.000  10.099
  261W        W65422   2.711  16.450  11.567
  262W        W65423  24.590  34.793  13.948
  263W        W65424   7.818  23.594   0.453
  264W        W65425  31.960   6.700   2.682
  265W        W65426   1.558  15.565   1.552
  266W        W65427  37.413  25.132   2.247
  267W        W65428  37.947  21.317   3.143
  268W        W65429  14.401  43.488   4.028
  269W        W65430  21.290  12.972  13.535
  270W        W65431  11.223  34.330   2.720
  271W        W65432  33.963  14.086   3.539
  272W        W65433  16.040  20.587   4.650
  273W        W65434   5.856  18.953  14.414
  274W        W65435   0.271  24.949   2.865
  275W        W65436  22.663  37.057  14.304
  276W        W65437  40.776   5.952  11.618
  277W        W65438  25.275  23.142   0.940
  278W        W65439  32.362  32.188   0.144
  279W        W65440  43.027   9.810   3.622
  280W        W65441  17.088  38.882  10.617
  281W        W65442  32.832  18.354   1.331
  282W        W65443   1.865  24.655  12.609
  283W        W65444  32.551  10.954   1.684
  284W        W65445  28.666  30.903   4.538
  285W        W65446  11.678  35.742  12.928
  286W        W65447  38.520  41.774   1.858
  287W        W65448  28.339  31.487  13.789
  288W        W65449   6.625  31.205   4.250
  289W        W65450  38.661  12.915  13.462
  290W        W65451  25.197  16.972  14.717
  291W        W65452  30.405  37.825   3.331
  292W        W65453  35.934  39.205  11.470
  293W        W65454  10.795  29.457  11.135
  294W        W65455  25.974  37.832  14.488
  295W        W65456  30.874  26.840   4.634
  296W        W65457  41.503  12.274   4.651
  297W        W65458  31.601   5.399  13.589
  298W        W65459  20.829   1.602   3.159
  299W        W65460  28.996  36.579  10.749
  300W        W65461  18.149  36.675   3.552
  301W        W65462  39.521  14.247   0.840
  302W        W65463  11.862  29.073  12.927
  303W        W65464   7.483  32.149   4.220
  304W        W65465   4.748  36.777   4.589
  305W        W65466  15.074  29.098  10.487
  306W        W65467   1.725  26.005   1.729
  307W        W65468   3.991   7.841   4.149
  308W        W65469  11.312  37.000   3.887
  309W        W65470  32.134  11.758   3.539
  310W        W65471   3.161  30.706   4.980
  311W        W65472  15.183  17.598   3.711
  312W        W65473  41.721   5.054   1.156
  313W        W65474  38.074  34.637   0.733
  314W        W65475  43.854  34.952  13.593
  315W        W65476  22.190   0.439   3.136
  316W        W65477  43.354  33.935  14.308
  317W        W65478  43.951   7.695   2.959
  318W        W65479  36.127  35.533  14.837
  319W        W65480  28.516  32.022  11.135
  320W        W65481  39.359   6.337   4.753
  321W        W65482  15.837  29.019  13.515
  322W        W65483  43.548  33.537  10.211
  323W        W65484  32.893  12.156   4.096
  324W        W65485   1.801   5.336   1.007
  325W        W65486  39.361  10.637   1.618
  326W        W65487  29.357   3.817  14.423
  327W        W65488   6.890  43.327  13.191
  328W        W65489  35.911  43.738   4.038
  329W        W65490  29.122   6.257  14.376
  330W        W65491  29.773  38.780  11.397
  331W        W65492  26.948  32.715  11.597
  332W        W65493  22.745   5.434  13.065
  333W        W65494  21.299   8.002  11.171
  334W        W65495  15.030  32.630  12.466
  335W        W65496  13.406  29.912   4.105
  336W        W65497  28.267  36.866   4.101
  337W        W65498  25.636  15.312  11.352
  338W        W65499   7.536   5.259   2.453
  339W        W65500   3.794   5.995  10.797
  340W        W65501  22.642  35.958  10.974
  341W        W65502  30.462   5.389   0.835
  342W        W65503  28.968  28.617  14.503
  343W        W65504  31.293  39.954   4.743
  344W        W65505  15.718  15.078   4.601
  345W        W65506   0.275  33.265  13.964
  346W        W65507  32.358   7.530   2.746
  347W        W65508  27.454  41.439   1.813
  348W        W65509  15.305  11.225  12.461
  349W        W65510  17.822   1.668   4.715
  350W        W65511   5.809   0.903  14.134
  351W        W65512  43.886  29.473  13.548
  352W        W65513  36.378  22.978  12.479
  353W        W65514  43.572  30.192  13.947
  354W        W65515  15.163  34.385  14.273
  355W        W65516  21.074  25.054  14.667
  356W        W65517  32.088   1.982  14.758
  357W        W65518   0.501  34.428   2.714
  358W        W65519   0.853  22.194  13.348
  359W        W65520   1.920   0.373   4.388
  360W        W65521  31.178  31.200  13.564
  361W        W65522  41.466  20.548   0.290
  362W        W65523  28.839  44.386  14.394
  363W        W65524  34.021  27.438   2.435
  364W        W65525  38.004   8.958   3.008
  365W        W65526  11.148  35.418  10.697
  366W        W65527   5.685   1.035   2.229
  367W        W65528  34.645  44.418  13.386
  368W        W65529  13.196   8.418  14.120
  369W        W65530  21.796   8.347  10.385
  370W        W65531  22.727  24.500  12.808
  371W        W65532  11.353  30.532   0.325
  372W        W65533  34.502   3.536   0.832
  373W        W65534   0.931  29.567  10.686
  374W        W65535  31.521  41.137   1.420
  375W        W65536   8.753  28.379  13.069
  376W        W65537  11.685  19.456  11.409
  377W        W65538  28.386   7.364  11.973
  378W        W65539  15.727  25.982   4.219
  379W        W65540  42.611  43.850  12.995
  380W        W65541  18.742   7.314  14.348
  381W        W65542  28.526  27.872   2.679
  382W        W65543  20.558  34.851  10.434
  383W        W65544  23.097   3.525   4.847
  384W        W65545  29.123  22.101   0.513
  385W        W65546  10.789  30.098  10.500
  386W        W65547  26.894  21.274   5.844
  387W        W65548  11.414  38.081  11.118
  388W        W65549  36.147  37.090   1.263
  389W        W65550  24.756  27.929  12.118
  390W        W65551  38.326   9.362   3.817
  391W        W65552  15.283  21.083  12.884
  392W        W65553  21.517  38.289   0.776
  393W        W65554  36.324  15.590   2.674
  394W        W65555   8.181  10.560  10.084
  395W        W65556  11.648  17.976   4.423
  396W        W65557  16.676  17.757  14.998
  397W        W65558   8.328  40.859   1.875
  398W        W65559   7.665  12.101  12.961
  399W        W65560  41.190   3.982   0.729
  400W        W65561  28.325  26.434  14.405
  401W        W65562   2.651   8.204   3.190
  402W        W65563  38.992  11.667   0.361
  403W        W65564  16.838   4.567   2.812
  404W        W65565  26.521  18.085   4.028
  405W        W65566  17.981  40.417  11.977
  406W        W65567  42.883   4.975  11.118
  407W        W65568  36.485  24.676   3.634
  408W        W65569  44.357  28.234   3.999
  409W        W65570  39.967  42.516  14.515
  410W        W65571  14.249  10.666  11.009
  411W        W65572  43.396   3.424   4.204
  412W        W65573  43.166  35.492  12.592
  413W        W65574   5.673  31.025  13.224
  414W        W65575  25.482  37.265   4.312
  415W        W65576  31.391  41.441   3.216
  416W        W65577  31.612   3.801  13.377
  417W        W65578  23.524  17.255   2.501
  418W        W65579  13.578  41.411  12.560
  419W        W65580   9.258  33.572  10.718
  420W        W65581  14.612   1.830   4.387
  421W        W65582  28.719   3.195  11.916
  422W        W65583   3.259   1.915  14.985
  423W        W65584  22.990  10.705   3.186
  424W        W65585   4.553  24.532   2.849
  425W        W65586   6.697  17.193  13.884
  426W        W65587  12.400  28.951  14.464
  427W        W65588  39.975   2.939   4.744
  428W        W65589  25.922   7.845  13.818
  429W        W65590   6.723   6.512   1.832
  430W        W65591  37.675  33.622  12.887
  431W        W65592   9.735  34.091   0.874
  432W        W65593  27.211  23.343  13.646
  433W        W65594   6.874  34.043   2.269
  434W        W65595  17.109  16.193   9.912
  435W        W65596  22.752  16.256  11.636
  436W        W65597  36.946  21.104  12.459
  437W        W65598  10.644  10.868   0.387
  438W        W65599  35.930  31.358   2.651
  439W        W65600  38.058  41.984   1.866
  440W        W65601  26.083   8.501  11.983
  441W        W65602  16.048  17.970   4.203
  442W        W65603   3.107  18.698   3.607
  443W        W65604   4.753  33.260   4.141
  444W        W65605  12.206  22.753  14.868
  445W        W65606  11.582  14.414   5.143
  446W        W65607  38.338  13.146  12.362
  447W        W65608  22.146  17.752   4.794
  448W        W65609  32.546  32.206   4.091
  449W        W65610  12.988  30.689  11.673
  450W        W65611   7.665  44.208   1.055
  451W        W65612   0.827  37.625  13.275
  452W        W65613  10.414  42.906   3.535
  453W        W65614  14.350  21.193  10.242
  454W        W65615  19.093  39.254  14.028
  455W        W65616  16.553  13.536   3.695
  456W        W65617  40.391  16.068  14.821
  457W        W65618   1.668  19.648  10.731
  458W        W65619  29.954  17.277  13.030
  459W        W65620  40.382  29.426   4.538
  460W        W65621  29.566  14.288   3.173
  461W        W65622   0.138   4.933   1.205
  462W        W65623  32.388   8.620   0.896
  463W        W65624  13.583  11.265   1.425
  464W        W65625  26.099  16.724   3.191
  465W        W65626  33.165  29.146   2.220
  466W        W65627   3.824  40.013   4.369
  467W        W65628  42.773  27.074   2.927
  468W        W65629  42.546  30.029  14.840
  469W        W65630   5.855  13.962  11.196
  470W        W65631  36.544   6.891  10.736
  471W        W65632   9.700  33.469  10.958
  472W        W65633  21.842  32.446  11.742
  473W        W65634  39.075  21.382  11.207
  474W        W65635  16.609  41.892  14.473
  475W        W65636  11.271  43.718  13.606
  476W        W65637  32.889  37.630  13.478
  477W        W65638  29.036  28.095   0.877
  478W        W65639  43.298  12.900  13.457
  479W        W65640   3.031   4.702   1.870
  480W        W65641  31.199  37.976  12.065
  481W        W65642  41.550  36.115   1.639
  482W        W65643  29.741  33.350  13.400
  483W        W65644  40.475  15.001   1.475
  484W        W65645  35.745  26.534   2.240
  485W        W65646  37.030   5.227  14.791
  486W        W65647  38.206  10.109  10.107
  487W        W65648  38.300  36.211   3.154
  488W        W65649   9.596   0.407   3.166
  489W        W65650  13.911  41.836  12.480
  490W        W65651  17.696  43.782  12.946
  491W        W65652  41.791   5.314   0.398
  492W        W65653  13.600  23.693   4.651
  493W        W65654  23.157  32.293   3.780
  494W        W65655  10.792  21.993  14.697
  495W        W65656  10.265  28.330  12.957
  496W        W65657   9.310   2.928  11.547
  497W        W65658  32.118  40.438  10.691
  498W        W65659  12.194  22.177   4.700
  499W        W65660  15.599  30.615   2.984
  500W        W65661  15.007  29.404   3.352
  501W        W65662  44.588  10.241   1.821
  502W        W65663  27.181   7.406  13.954
  503W        W65664   0.451   9.397   0.677
  504W        W65665  21.719   6.644   0.436
  505W        W65666   7.612  21.334  14.357
  506W        W65667  22.250  42.940   4.428
  507W        W65668  22.172  14.546  11.585
  508W        W65669  30.861  25.664  12.593
  509W        W65670  33.095  14.780   4.792
  510W        W65671  39.943  44.383  11.978
  511W        W65672  16.194  35.038  14.370
  512W        W65673  29.441  21.016  11.657
  513W        W65674  34.607  37.397  11.542
  514W        W65675  10.268   1.748  10.619
  515W        W65676   7.766  28.712   1.365
  516W        W65677  31.604  38.678  13.557
  517W        W65678  39.087   5.004   0.355
  518W        W65679   5.918   3.352  12.898
  519W        W65680  20.023  37.383  12.302
  520W        W65681   3.371  16.806   0.093
  521W        W65682  25.000  21.005   4.665
  522W        W65683  42.514  15.328  12.628
  523W        W65684  40.354  11.269   3.116
  524W        W65685  39.943   0.674   2.625
  525W        W65686  25.942  24.925   3.253
  526W        W65687  13.154   2.650  11.427
  527W        W65688  24.467  32.172   3.310
  528W        W65689  22.816   2.928  14.790
  529W        W65690  27.993  43.170  11.819
  530W        W65691  25.160  25.880  12.186
  531W        W65692  26.224   3.373  11.213
  532W        W65693  21.979  37.910  14.863
  533W        W65694  39.574  28.227   3.671
  534W        W65695  16.643  26.553   0.806
  535W        W65696  12.777   3.185  13.384
  536W        W65697   6.304  15.281   1.770
  537W        W65698   7.372   0.639  11.093
  538W        W65699   6.732  20.441  14.830
  539W        W65700  17.587  43.879   1.736
  540W        W65701  29.317  41.914  12.960
  541W        W65702  22.998  24.983  14.416
  542W        W65703  14.747  19.249  14.050
  543W        W65704   1.183  14.653   1.950
  544W        W65705  19.262  28.713  13.395
  545W        W65706   3.856   3.926   1.935
  546W        W65707  32.211   7.447  13.074
  547W        W65708  35.050  10.731  10.695
  548W        W65709  18.603  28.192  12.934
  549W        W65710  40.274  16.275  12.796
  550W        W65711  28.778  20.533  13.503
  551W        W65712   4.465  36.777  14.214
  552W        W65713   9.236  43.004   4.127
  553W        W65714  25.309  18.377  13.415
  554W        W65715  34.112  38.245   4.260
  555W        W65716  21.537  23.784  14.761
  556W        W65717  18.120   8.912  14.836
  557W        W65718  17.321  28.014   1.016
  558W        W65719   3.195  18.157  10.658
  559W        W65720  38.640  44.715  12.588
  560W        W65721  38.820  20.253  13.836
  561W        W65722  26.882  32.144   2.770
  562W        W65723   6.319  33.116  14.844
  563W        W65724  33.992  27.922  11.955
  564W        W65725   4.998   7.719  12.050
  565W        W65726  10.384  33.154  12.461
  566W        W65727  37.367  25.573   2.540
  567W        W65728  38.374  36.100  10.386
  568W        W65729  27.231   1.659  14.971
  569W        W65730   3.794  18.066  11.176
  570W        W65731  28.447  27.160  12.409
  571W        W65732  20.343  34.578   3.671
  572W        W65733  38.195  44.479   0.942
  573W        W65734   5.770  34.778  11.672
  574W        W65735   9.337  39.071  12.401
  575W        W65736  40.422  27.159   4.544
  576W        W65737  33.434  20.354  12.466
  577W        W65738  44.880  31.369  12.584
  578W        W65739  41.939   6.389  13.251
  579W        W65740  23.516   8.107   3.718
  580W        W65741   5.275  17.641  10.760
  581W        W65742  22.009  32.153  13.067
  582W        W65743  25.183   3.525   2.682
  583W        W65744  11.199   4.026   1.514
  584W        W65745  13.759  38.601  14.883
  585W        W65746   4.932  13.551  13.456
  586W        W65747  41.220  11.879  13.352
  587W        W65748  37.763   3.774   0.994
  588W        W65749  11.792  22.577   4.682
  589W        W65750  15.637   4.788  12.903
  590W        W65751   0.394  43.394  11.216
  591W        W65752  10.791   2.283   4.106
  592W        W65753   4.879  39.084   2.896
  593W        W65754  18.061  44.790   0.162
  594W        W65755  25.766  41.896   2.352
  595W        W65756   6.161   7.815   2.632
  596W        W65757  24.676  11.204   2.223
  597W        W65758  23.975  35.458   3.010
  598W        W65759  30.619  34.374  14.822
  599W        W65760   1.308  32.937   0.748
  600W        W65761   2.957  40.340  14.308
  601W        W65762  32.823   0.760   2.190
  602W        W65763  10.432  31.280   0.240
  603W        W65764  20.982  10.796   0.719
  604W        W65765  11.868  27.821  12.599
  605W        W65766  22.221  38.937   0.346
  606W        W65767   3.422  31.332   2.613
  607W        W65768  11.176   9.555  12.697
  608W        W65769  38.559  41.860  11.596
  609W        W65770  29.123  12.906   3.433
  610W        W65771   4.984  22.826   1.197
  611W        W65772  33.797  35.214   5.059
  612W        W65773  19.725  36.438  14.040
  613W        W65774  39.278  42.836  13.960
  614W        W65775  14.672  43.867  10.324
  615W        W65776  34.820  25.813  11.099
  616W        W65777  13.484  22.591   3.873
  617W        W65778  40.610   3.949   2.957
  618W        W65779  18.841  40.041   3.662
  619W        W65780   2.388  25.738  11.246
  620W        W65781  21.956  13.697  13.581
  621W        W65782   8.178  43.235  11.049
  622W        W65783   0.700  41.854   0.471
  623W        W65784  43.188  17.936  12.419
  624W        W65785  16.306  36.911  14.354
  625W        W65786  39.995  24.705  14.421
  626W        W65787  41.466  34.195  13.700
  627W        W65788  21.285  35.468  14.112
  628W        W65789  28.016  41.860   0.778
  629W        W65790  41.590  36.213   2.138
  630W        W65791  20.216  25.068  10.614
  631W        W65792  37.504   0.441  10.731
  632W        W65793  33.987  44.279   3.388
  633W        W65794  43.932   0.893   2.730
  634W        W65795   4.419  29.045   4.413
  635W        W65796   3.252  19.241   2.244
  636W        W65797  25.044  28.922  11.677
  637W        W65798  35.513  39.404  12.378
  638W        W65799  41.692  18.083  12.119
  639W        W65800  23.246   6.969   4.101
  640W        W65801  23.931  30.996  10.771
  641W        W65802  38.754  43.218   3.160
  642W        W65803  15.147  15.316  14.445
  643W        W65804  35.458  13.440  14.325
  644W        W65805  12.411  38.022  10.904
  645W        W65806  28.901  11.233  14.647
  646W        W65807   1.078  40.485   3.497
  647W        W65808  42.774  23.133  11.072
  648W        W65809  35.884   7.628  13.559
  649W        W65810  10.759  21.569   4.608
  650W        W65811  21.467  37.493  14.374
  651W        W65812  32.588  31.102  14.719
  652W        W65813  26.418  23.897   2.815
  653W        W65814   5.707  40.386  10.767
  654W        W65815  38.894  34.146  14.755
  655W        W65816  22.817  15.891   9.899
  656W        W65817  44.431   3.618  10.463
  657W        W65818  23.227  21.995  14.693
  658W        W65819  22.137  14.546  12.620
  659W        W65820  17.207  41.389  12.334
  660W        W65821   2.383  10.339  12.943
  661W        W65822  41.451  17.826   4.538
  662W        W65823  11.386  42.935  12.457
  663W        W65824  22.778  23.580  13.289
  664W        W65825  21.348  25.620  12.527
  665W        W65826   3.006   8.362  12.619
  666W        W65827  30.431  41.223   3.213
  667W        W65828   2.265  30.662   2.243
  668W        W65829  25.079  43.278   2.437
  669W        W65830  38.866  39.957  13.531
  670W        W65831  44.106   8.803  12.199
  671W        W65832  23.493  34.331   3.272
  672W        W65833  36.523  21.144   1.525
  673W        W65834   1.969  17.132  11.945
  674W        W65835  41.431  41.586   1.744
  675W        W65836  35.899   4.223   2.860
  676W        W65837  21.070  29.855  14.457
  677W        W65838  29.882  35.213   1.362
  678W        W65839  37.255  10.206  10.213
  679W        W65840  12.231  24.046  14.008
  680W        W65841  20.732  39.840  10.592
  681W        W65842   9.673  14.864   0.771
  682W        W65843  43.325   6.968   4.780
  683W        W65844  14.767  17.456   4.558
  684W        W65845   0.355   7.060   1.854
  685W        W65846  13.054  32.915  12.022
  686W        W65847   4.863  44.913  12.991
  687W        W65848  44.077  22.991  11.928
  688W        W65849  44.691  15.101   3.675
  689W        W65850  23.777  42.810  14.375
  690W        W65851   9.791  31.603   3.989
  691W        W65852   4.020  12.132   0.008
  692W        W65853  27.846  43.389  11.088
  693W        W65854  13.187   5.799   1.208
  694W        W65855  31.723  11.302   1.457
  695W        W65856  29.007  36.887   3.647
  696W        W65857  28.222  21.273  10.763
  697W        W65858  38.347  24.961  12.140
  698W        W65859  18.802  26.029   0.088
  699W        W65860  33.602  33.266  10.789
  700W        W65861  41.124  19.165  11.073
  701W        W65862  32.699  10.257   0.420
  702W        W65863  26.226  41.349  10.774
  703W        W65864  17.811  40.626  12.423
  704W        W65865   1.282  34.334  12.044
  705W        W65866  30.966  40.271   3.750
  706W        W65867  25.485   8.963   2.326
  707W        W65868  21.190  32.899  11.035
  708W        W65869  34.901  33.298   1.387
  709W        W65870  21.291  28.463   5.070
  710W        W65871   4.702  27.880   4.176
  711W        W65872  38.439  17.227  13.355
  712W        W65873  28.215  20.051  12.591
  713W        W65874   7.850   7.788   0.161
  714W        W65875  30.113  31.381  13.462
  715W        W65876  39.069  43.510   3.469
  716W        W65877   4.271   7.184   2.813
  717W        W65878   2.957  14.591   3.158
  718W        W65879  18.589   4.883   1.293
  719W        W65880  29.100   5.709  10.717
  720W        W65881  18.979   4.133  13.421
  721W        W65882  38.884  22.452  12.884
  722W        W65883  11.328  19.460  13.619
  723W        W65884   2.943  42.894  12.490
  724W        W65885  32.229   5.332   1.477
  725W        W65886  40.389  31.669   4.603
  726W        W65887   9.181  27.279  11.605
  727W        W65888  36.631   0.896   2.372
  728W        W65889  13.169   8.117  12.409
  729W        W65890  38.815  41.825  12.061
  730W        W65891  23.540  23.137   5.221
  731W        W65892  13.885   7.182  12.937
  732W        W65893   4.317  33.470  14.709
  733W        W65894  31.672  13.404  11.806
  734W        W65895  14.546  38.695  12.180
  735W        W65896  26.633  31.068  11.232
  736W        W65897  22.545  38.068  10.708
  737W        W65898  24.506  18.110  10.645
  738W        W65899  20.512   1.543   4.654
  739W        W65900  24.219  31.551  11.439
  740W        W65901  20.387  41.329  12.991
  741W        W65902  14.240  21.128   3.649
  742W        W65903  38.407   4.174   3.268
  743W        W65904  39.617  24.076  11.628
  744W        W65905  31.485   9.855   2.340
  745W        W65906   8.463  12.573  11.195
  746W        W65907   1.272  24.535  12.980
  747W        W65908  20.514  42.384   2.156
  748W        W65909  16.906  41.410  12.811
  749W        W65910  15.797  21.118   2.135
  750W        W65911   8.285   3.350  11.177
  751W        W65912  30.582  20.236  12.360
  752W        W65913  42.421   7.985   1.125
  753W        W65914  23.031  37.866  11.444
  754W        W65915   3.964  13.031  12.157
  755W        W65916  30.127  44.435  14.902
  756W        W65917   3.465   5.398  10.502
  757W        W65918  44.844   6.238   3.068
  758W        W65919  29.473   3.717   3.857
  759W        W65920  12.690  21.814   2.128
  760W        W65921   3.958  20.068  14.443
  761W        W65922  19.849  21.576  12.918
  762W        W65923  39.050   3.903  12.128
  763W        W65924   9.258  38.501   2.944
  764W        W65925  34.487  32.703   0.369
  765W        W65926   3.686  26.064   2.878
  766W        W65927   3.818  22.620  11.113
  767W        W65928  12.026   3.361   9.746
  768W        W65929  38.337  29.290  14.685
  769W        W65930  41.676  20.744   4.174
  770W        W65931  35.282  17.678  14.385
  771W        W65932   8.926  29.466  14.941
  772W        W65933   0.945  40.335   3.013
  773W        W65934  31.107  32.042   1.332
  774W        W65935  30.899  39.521   2.795
  775W        W65936  27.958  25.703  12.395
  776W        W65937  41.710   6.011  11.751
  777W        W65938  33.346  26.549  11.347
  778W        W65939   6.177   6.581  12.517
  779W        W65940  24.787  23.132   0.795
  780W        W65941   7.296  23.319   0.818
  781W        W65942   7.726  22.233   3.020
  782W        W65943   7.284  10.428  13.864
  783W        W65944  17.753  40.911  13.406
  784W        W65945  23.147  14.000   4.629
  785W        W65946  23.442  13.681   3.287
  786W        W65947   1.700  39.627  10.846
  787W        W65948  11.695  35.835  13.606
  788W        W65949  17.046  23.750  12.125
  789W        W65950   8.645  35.523  11.604
  790W        W65951  24.934   1.501   0.730
  791W        W65952  20.168   0.190  14.275
  792W        W65953  22.374  19.278  12.039
  793W        W65954  39.278  15.729  13.209
  794W        W65955  36.024  11.315   2.904
  795W        W65956  27.285  20.846  13.979
  796W        W65957   8.433  13.275  14.661
  797W        W65958   0.588  44.223   2.654
  798W        W65959   0.649  11.830  12.164
  799W        W65960   5.447   3.430   3.143
  800W        W65961  13.181  20.732  10.603
  801W        W65962  25.523  10.704  14.527
  802W        W65963  28.046  25.639   2.346
  803W        W65964  12.638  41.387  13.563
  804W        W65965  42.118  12.698  13.530
  805W        W65966  42.895  26.997  13.470
  806W        W65967  13.290  22.719  10.340
  807W        W65968  30.590  39.756   4.226
  808W        W65969  14.750  33.921  13.504
  809W        W65970  41.007  26.130   2.388
  810W        W65971  35.582   6.287  13.887
  811W        W65972   4.699   9.596  10.765
  812W        W65973  27.099   8.068  10.869
  813W        W65974  32.531   6.732   4.755
  814W        W65975  26.150  39.827  11.991
  815W        W65976  39.814  42.737   2.672
  816W        W65977  33.624  22.618   4.841
  817W        W65978  16.357   3.330   0.431
  818W        W65979  17.177   3.794   4.856
  819W        W65980  22.956   0.292   1.007
  820W        W65981  10.771  17.428  11.144
  821W        W65982  28.508   1.454   0.607
  822W        W65983  44.379  40.305   4.071
  823W        W65984  20.559  18.761  13.007
  824W        W65985  33.993  38.919   4.096
  825W        W65986  15.907   8.031   3.148
  826W        W65987  30.353  25.640  10.247
  827W        W65988  31.399  31.116   4.659
  828W        W65989  25.724   6.792  14.754
  829W        W65990   8.870  17.650   1.827
  830W        W65991  14.196  18.015  12.637
  831W        W65992  43.541  11.753  14.358
  832W        W65993  38.746  36.753   2.194
  833W        W65994  12.468  42.457   4.603
  834W        W65995  18.582  24.483  13.910
  835W        W65996  38.670  18.853  12.480
  836W        W65997   3.415  36.864  12.753
  837W        W65998   6.690  44.358   4.007
  838W        W65999  34.876  24.787  10.676
  839W        W66000   8.072  20.736  11.683
  840W        W66001   5.303  43.863  11.546
  841W        W66002   0.054  13.684   2.498
  842W        W66003   7.834  41.131  12.869
  843W        W66004  32.849  39.402   2.189
  844W        W66005  23.879  25.003   0.301
  845W        W66006  44.519   8.108   1.255
  846W        W66007   7.009  43.414   1.737
  847W        W66008  18.566  42.673  13.031
  848W        W66009  14.598  34.408   1.323
  849W        W66010  19.610  40.184   5.085
  850W        W66011  34.775  12.672  11.169
  851W        W66012  19.031  24.681   0.619
  852W        W66013  10.840  29.692   0.014
  853W        W66014   2.810  13.182   3.084
  854W        W66015  11.634  35.355  13.764
  855W        W66016  26.058   8.893  13.634
  856W        W66017  15.618  37.667   3.311
  857W        W66018   4.906  35.869   1.748
  858W        W66019  17.819  20.498   0.234
  859W        W66020  10.589  44.050  11.986
  860W        W66021   6.304   5.772  10.777
  861W        W66022   8.197  10.977   3.551
  862W        W66023  27.424  14.232   2.812
  863W        W66024  17.142   2.824  10.807
  864W        W66025   0.925  18.743   4.589
  865W        W66026  33.134  33.601   2.171
  866W        W66027  11.975  42.087  13.116
  867W        W66028  44.877   8.813   4.636
  868W        W66029   9.184   5.142  12.730
  869W        W66030   1.715  24.813  13.066
  870W        W66031  30.990  12.374  14.003
  871W        W66032  40.492   9.563   0.793
  872W        W66033   4.792   8.639  12.140
  873W        W66034  44.308  17.278  10.759
  874W        W66035  14.373  15.831  13.440
  875W        W66036  34.514  14.521  13.509
  876W        W66037  14.236   0.775   2.669
  877W        W66038  13.394  19.843  14.983
  878W        W66039  14.506  35.485  13.016
  879W        W66040  24.502   8.750   1.959
  880W        W66041   8.139   8.820  11.647
  881W        W66042   6.991  16.372  11.828
  882W        W66043  40.757   7.629  14.439
  883W        W66044  42.828  38.561  10.922
  884W        W66045  43.911   6.719   1.810
  885W        W66046   0.632  39.115   3.274
  886W        W66047   9.273  20.264   3.150
  887W        W66048   7.256  40.926   3.886
  888W        W66049  17.134  21.268  13.325
  889W        W66050  39.052  31.102  11.179
  890W        W66051   6.619  38.032  13.752
  891W        W66052   1.770  42.832   4.803
  892W        W66053  26.162  19.881   3.589
  893W        W66054  16.199   8.750  11.566
  894W        W66055  38.110   5.197   3.601
  895W        W66056   9.777  19.768   0.759
  896W        W66057  29.838  34.251  11.132
  897W        W66058   8.625  27.131  14.939
  898W        W66059  24.463  21.553   0.284
  899W        W66060  38.377   6.744  12.893
  900W        W66061  21.273  29.547  10.643
  901W        W66062  10.422  27.530  11.993
  902W        W66063   1.910   0.023  14.531
  903W        W66064  24.092  17.565   0.857
  904W        W66065  38.882  42.364  12.656
  905W        W66066  34.337  29.061   4.589
  906W        W66067  24.014  40.012  12.607
  907W        W66068  29.038  12.501  14.989
  908W        W66069  42.448  26.392   4.089
  909W        W66070  25.183  21.551   1.779
  910W        W66071  37.948  10.127   0.405
  911W        W66072  44.828  23.076   5.038
  912W        W66073  25.569   4.248   3.614
  913W        W66074   4.679  20.234  12.505
  914W        W66075  31.053  12.409   4.229
  915W        W66076   8.012  19.544   2.897
  916W        W66077  29.551   0.243  14.942
  917W        W66078  18.880  31.047  11.580
  918W        W66079  26.258  34.950   2.741
  919W        W66080  20.128   2.796   2.624
  920W        W66081  30.661  17.625  14.059
  921W        W66082  38.773  22.173  13.488
  922W        W66083  35.019   4.587   2.081
  923W        W66084  26.525   3.921   0.443
  924W        W66085  43.995  27.535   0.853
  925W        W66086   4.188  42.357  13.315
  926W        W66087  21.800   3.317   4.083
  927W        W66088  28.979   5.855  14.941
  928W        W66089  20.324  20.324   2.826
  929W        W66090  35.369  36.598   3.532
  930W        W66091  16.841   0.299  13.848
  931W        W66092  35.497  22.055   4.772
  932W        W66093  36.902   5.453   1.291
  933W        W66094  17.292  24.561  10.648
  934W        W66095  41.295  41.834  12.158
  935W        W66096  21.257  12.216   1.170
  936W        W66097  24.157  25.686  10.639
  937W        W66098  27.969  32.114   3.749
  938W        W66099  34.513  17.069   2.700
  939W        W66100   3.866  26.218   0.663
  940W        W66101  33.978  32.080  14.877
  941W        W66102  13.185  27.910  12.961
  942W        W66103  43.503   3.015   4.544
  943W        W66104  37.520  25.695   3.962
  944W        W66105   0.150   3.632   2.719
  945W        W66106   9.026  41.573   2.531
  946W        W66107  40.198   0.864  11.174
  947W        W66108  20.781  41.317  14.318
  948W        W66109  23.521   8.231   1.717
  949W        W66110  37.474  35.016   1.737
  950W        W66111  34.075   3.258   1.758
  951W        W66112  23.053  10.080   4.425
  952W        W66113  12.400  39.074   1.731
  953W        W66114   1.882  27.606   3.807
  954W        W66115   0.446  34.576   0.907
  955W        W66116   8.875  22.927  14.776
  956W        W66117   8.745  25.658   1.832
  957W        W66118   2.279  14.857   1.180
  958W        W66119  15.385  10.743  14.512
  959W        W66120  16.820  38.072  10.243
  960W        W66121  37.874  33.487   3.145
  961W        W66122  15.727  33.575  12.897
  962W        W66123   6.752  11.667  11.609
  963W        W66124  30.223  27.220  10.671
  964W        W66125  44.745  12.314   1.503
  965W        W66126  26.153  30.260   2.502
  966W        W66127   7.762   2.396   0.439
  967W        W66128  19.309  21.129  11.608
  968W        W66129   1.888   7.906   2.627
  969W        W66130   1.644  15.896   4.063
  970W        W66131  32.784  10.362  11.977
  971W        W66132  13.733  15.285   0.648
  972W        W66133  18.841   3.242   1.264
  973W        W66134   9.221  26.763  11.537
  974W        W66135  21.021  25.461  10.817
  975W        W66136  25.543  16.359   5.046
  976W        W66137  22.163  16.414  14.327
  977W        W66138   5.219  11.269   9.404
  978W        W66139  21.680  27.261   2.394
  979W        W66140  34.992  26.335   1.688
  980W        W66141  31.051   7.212  14.388
  981W        W66142  15.745  17.953  14.324
  982W        W66143  10.937   4.335  10.910
  983W        W66144   4.822   6.344   3.528
  984W        W66145  24.162  13.732   2.745
  985W        W66146   5.586  23.954  12.385
  986W        W66147  19.137  41.036  12.521
  987W        W66148  29.428  16.579   4.569
  988W        W66149  24.364  22.769   3.392
  989W        W66150  15.276  22.476  14.656
  990W        W66151   3.902   7.668  11.945
  991W        W66152  12.429  31.223  12.565
  992W        W66153  26.529   8.755   3.357
  993W        W66154  17.321  21.456   2.873
  994W        W66155  30.227   6.619  11.205
  995W        W66156   6.195  10.196  11.354
  996W        W66157   0.820  17.918  13.590
  997W        W66158  28.178   6.425   3.649
  998W        W66159  21.099  17.299  13.602
  999W        W66160  33.013  14.828   3.830
 1000W        W66161  16.645  13.037   1.647
 1001W        W66162  20.057  35.434  13.221
 1002W        W66163   8.894  10.838  13.402
 1003W        W66164   7.810  27.966  10.661
 1004W        W66165  44.293  41.448  12.093
 1005W        W66166  35.940  10.365  14.544
 1006W        W66167  41.640  42.440   0.213
 1007W        W66168  37.814  14.882  11.660
 1008W        W66169  21.180  42.010  12.951
 1009W        W66170  28.688  32.891  10.791
 1010W        W66171  44.568   1.940  11.993
 1011W        W66172  32.622  19.366  12.837
 1012W        W66173  11.660   1.838  10.684
 1013W        W66174   5.079  34.466  11.149
 1014W        W66175  16.856  33.534  13.873
 1015W        W66176  42.434   3.178   3.779
 1016W        W66177   7.028   3.445  14.796
 1017W        W66178   2.935   0.342   4.588
 1018W        W66179  12.829  35.490  10.798
 1019W        W66180   3.279  19.556   3.147
 1020W        W66181  23.497  15.323  11.358
 1021W        W66182   0.427   7.817  12.476
 1022W        W66183  32.049  16.034   4.468
 1023W        W66184  43.440  43.268  10.543
 1024W        W66185  40.482   6.286  10.988
 1025W        W66186  10.419  10.315   3.536
 1026W        W66187  11.816  40.541  11.150
 1027W        W66188  20.066  29.434   4.137
 1028W        W66189  43.572  11.147   1.462
 1029W        W66190  31.676   2.687  11.572
 1030W        W66191  41.390  26.520  13.921
 1031W        W66192  25.407  21.834   1.334
 1032W        W66193  30.875  38.419   0.866
 1033W        W66194  24.134  24.152   3.725
 1034W        W66195   7.703  14.425   0.888
 1035W        W66196   5.465   2.532  14.344
 1036W        W66197  30.477  25.912  11.985
 1037W        W66198   3.630  30.643  11.507
 1038W        W66199  40.253  28.281  13.480
 1039W        W66200  32.925  38.170  11.079
 1040W        W66201   1.833  31.765  14.959
 1041W        W66202  17.597  16.653   3.577
 1042W        W66203   9.431   8.372  14.486
 1043W        W66204  32.221  21.541  14.990
 1044W        W66205  42.599  20.769  11.652
 1045W        W66206   2.520  29.583   1.379
 1046W        W66207  22.618  29.033   3.276
 1047W        W66208  15.751  16.296   3.816
 1048W        W66209  40.181  40.344   0.281
 1049W        W66210  17.168  40.122   1.819
 1050W        W66211  28.436  11.115   1.304
 1051W        W66212  10.034  17.245  11.730
 1052W        W66213  20.719  34.903  14.798
 1053W        W66214  28.596  40.450  13.782
 1054W        W66215   7.205   7.252  14.686
 1055W        W66216  18.524  44.330   0.711
 1056W        W66217  41.962  37.498  13.106
 1057W        W66218  16.851   9.740  13.038
 1058W        W66219  43.480   0.912  10.924
 1059W        W66220  11.894  13.648  11.799
 1060W        W66221  32.223  33.492  11.176
 1061W        W66222   6.327   6.917  13.960
 1062W        W66223  38.370  18.124  14.247
 1063W        W66224  23.736  19.218   4.054
 1064W        W66225  14.196  44.247   0.911
 1065W        W66226  27.197  33.056   4.176
 1066W        W66227  41.303  35.374   2.813
 1067W        W66228  10.419  32.097  11.527
 1068W        W66229   5.694  10.208  10.683
 1069W        W66230  32.644   1.491   3.292
 1070W        W66231   1.758  14.720   2.550
 1071W        W66232   5.199  38.271   1.663
 1072W        W66233  20.863  23.277  10.328
 1073W        W66234  30.387  30.647   4.100
 1074W        W66235  41.711  43.762  13.461
 1075W        W66236  19.696  25.751  14.953
 1076W        W66237  31.686  30.575  11.509
 1077W        W66238   9.874  11.077   3.237
 1078W        W66239  22.958  27.188  12.841
 1079W        W66240  17.810  12.203  11.999
 1080W        W66241  14.116  34.839   0.659
 1081W        W66242  26.696  31.663   3.016
 1082W        W66243  29.689   7.930  13.516
 1083W        W66244  43.020  44.203   5.251
 1084W        W66245  22.570   5.942   3.716
 1085W        W66246  13.262   6.144   4.833
 1086W        W66247   3.285  23.738  10.608
 1087W        W66248  41.728  44.033   3.924
 1088W        W66249  19.506  20.465   1.906
 1089W        W66250   8.705   9.179   1.717
 1090W        W66251  11.923  20.233  13.891
 1091W        W66252  31.619   3.057   0.902
 1092W        W66253  37.366  31.656   4.236
 1093W        W66254   6.117  25.679   0.313
 1094W        W66255  16.536   9.191   2.923
 1095W        W66256  27.997  30.785  11.011
 1096W        W66257  29.916  13.585  13.631
 1097W        W66258   8.242  31.708   3.221
 1098W        W66259  23.324  39.931   3.583
 1099W        W66260  44.031  32.853   0.400
 1100W        W66261  11.389   4.416   3.565
 1101W        W66262  43.539  24.561   3.605
 1102W        W66263  42.087  33.419   1.709
 1103W        W66264  18.039   0.093   3.689
 1104W        W66265  39.865  14.693  12.900
 1105W        W66266  15.924   7.752   4.294
 1106W        W66267   1.182  42.924  10.317
 1107W        W66268  21.045  35.778   3.652
 1108W        W66269  22.256  36.826   0.039
 1109W        W66270  18.786  35.702   5.061
 1110W        W66271   4.939  16.003   1.653
 1111W        W66272  28.203   0.893  12.636
 1112W        W66273   4.438  40.886  11.776
 1113W        W66274  10.226  44.323   4.529
 1114W        W66275  14.662  43.413  11.149
 1115W        W66276  40.931  24.190   2.978
 1116W        W66277  14.657   4.214   1.781
 1117W        W66278  44.324  39.092  14.369
 1118W        W66279  39.637   4.223   3.239
 1119W        W66280  24.500   7.185   3.621
 1120W        W66281  44.182   1.481   4.159
 1121W        W66282   2.615  19.752   1.077
 1122W        W66283  41.981   7.811   0.744
 1123W        W66284  24.134  40.762   1.688
 1124W        W66285  15.694  16.537   2.274
 1125W        W66286  24.604  44.248  11.893
 1126W        W66287  39.462  38.986  11.138
 1127W        W66288  27.636  37.323   1.255
 1128W        W66289  33.107  16.228  11.609
 1129W        W66290  35.052  15.953  12.491
 1130W        W66291  14.051  28.479   3.570
 1131W        W66292  38.859   0.855   2.772
 1132W        W66293  17.052  17.659   4.813
 1133W        W66294  14.326  43.511  13.476
 1134W        W66295  14.630  16.285  13.527
 1135W        W66296  11.638  16.314  10.803
 1136W        W66297  41.471  40.047   1.858
 1137W        W66298  20.276   9.141  11.947
 1138W        W66299   6.771  24.171  12.078
 1139W        W66300  32.014   0.275   3.250
 1140W        W66301  15.739  19.810  13.085
 1141W        W66302   0.226  44.908   1.021
 1142W        W66303  34.584  22.446   4.506
 1143W        W66304  21.649  23.475   0.216
 1144W        W66305  15.086  36.348  13.407
 1145W        W66306  32.972  29.021   1.696
 1146W        W66307  41.327  16.248  12.928
 1147W        W66308   4.678  44.701  14.324
 1148W        W66309  31.014   2.226  11.602
 1149W        W66310  28.087  41.111  13.966
 1150W        W66311  18.979  34.964  14.895
 1151W        W66312  38.920  32.577  14.033
 1152W        W66313  29.980  40.796   3.070
 1153W        W66314   6.142   6.493   2.559
 1154W        W66315   2.698   0.415  13.583
 1155W        W66316   2.867  39.139   4.352
 1156W        W66317  42.941  17.577  12.145
 1157W        W66318  28.604  29.976   3.563
 1158W        W66319  16.425   6.523  13.202
 1159W        W66320  23.018  31.116  10.619
 1160W        W66321  42.489  16.974  13.111
 1161W        W66322   6.727  23.175  11.947
 1162W        W66323   7.292  29.560  11.900
 1163W        W66324   2.245  17.380   2.818
 1164W        W66325  26.817  15.093  13.080
 1165W        W66326  43.422   2.369   0.221
 1166W        W66327  10.596  24.281  14.497
 1167W        W66328  33.440   0.676  14.514
 1168W        W66329  14.360  35.141  13.374
 1169W        W66330  40.012  32.023  12.499
 1170W        W66331  16.828  33.359  12.998
 1171W        W66332  43.052  30.057  13.923
 1172W        W66333  10.278  25.874  12.996
 1173W        W66334   3.629  20.344  11.329
 1174W        W66335  10.735  13.832  14.241
 1175W        W66336  11.851  42.776  14.513
 1176W        W66337  38.357  29.099   1.788
 1177W        W66338  37.929  15.454   1.697
 1178W        W66339  22.256  35.475   3.749
 1179W        W66340   1.722   8.658   3.718
 1180W        W66341  12.778  44.396  13.306
 1181W        W66342  31.674  32.861   0.399
 1182W        W66343  20.137  32.118  13.578
 1183W        W66344   1.792   5.757  10.648
 1184W        W66345   2.119  43.300  12.474
 1185W        W66346  35.824  19.807  14.854
 1186W        W66347  44.921   7.959  12.507
 1187W        W66348  21.225  39.526   4.510
 1188W        W66349  13.371  10.409  10.780
 1189W        W66350  31.379  36.314  12.895
 1190W        W66351  11.128   2.230   3.729
 1191W        W66352  20.296  37.596  10.532
 1192W        W66353  25.175  23.571  10.602
 1193W        W66354  44.988  11.825   2.674
 1194W        W66355  35.916  23.700   2.261
 1195W        W66356  44.353  40.232   0.030
 1196W        W66357  33.325   4.293  13.646
 1197W        W66358  30.874   6.929  12.106
 1198W        W66359  17.529  24.184  13.372
 1199W        W66360   0.811  20.021  11.669
 1200W        W66361  27.484  33.794   4.887
 1201W        W66362  16.559   4.274   1.221
 1202W        W66363  39.040  30.524  12.438
 1203W        W66364  23.453  29.130   2.917
 1204W        W66365  34.349  15.989  11.212
 1205W        W66366  17.316   1.588   1.627
 1206W        W66367  20.489   4.448  13.964
 1207W        W66368   3.743  10.904   0.401
 1208W        W66369   8.210  44.954  14.516
 1209W        W66370  18.109   8.107  12.963
 1210W        W66371  42.996  37.143  14.442
 1211W        W66372  22.215   7.217   1.899
 1212W        W66373  27.786   7.343   3.945
 1213W        W66374  15.687   6.367   3.071
 1214W        W66375  29.767  31.700   2.765
 1215W        W66376  29.558  25.952   4.120
 1216W        W66377   9.616  15.196   2.508
 1217W        W66378  29.051  32.895  14.829
 1218W        W66379  42.571   7.456   0.282
 1219W        W66380  13.107  33.496   3.670
 1220W        W66381  27.248  28.441  13.875
 1221W        W66382  18.744   9.800  13.396
 1222W        W66383  37.787   1.336   0.222
 1223W        W66384   9.299  29.824  13.898
 1224W        W66385  22.112  44.799  14.979
 1225W        W66386  24.568  12.008  12.572
 1226W        W66387  35.499  42.083  12.487
 1227W        W66388  20.147   6.142  11.915
 1228W        W66389  16.053   6.036  14.154
 1229W        W66390  43.091  15.134   2.666
 1230W        W66391  23.117  35.484  12.806
 1231W        W66392   9.699  44.275  13.221
 1232W        W66393  38.971   8.643   3.235
 1233W        W66394  12.718  16.741   3.274
 1234W        W66395  12.371  33.158  11.442
 1235W        W66396  21.950  22.032  12.814
 1236W        W66397  31.229  11.418   1.634
 1237W        W66398  27.828  33.331  11.173
 1238W        W66399   0.317   5.836  13.391
 1239W        W66400  40.870  12.163  13.710
 1240W        W66401  26.002  10.187   3.206
 1241W        W66402  17.375  24.786  10.158
 1242W        W66403  13.808   5.686  11.980
 1243W        W66404  26.708   3.962   3.571
 1244W        W66405  10.344  23.227  14.920
 1245W        W66406  12.901  10.181   3.238
 1246W        W66407  37.593  14.668  11.211
 1247W        W66408  39.987  20.276   1.526
 1248W        W66409  36.891  42.312  11.978
 1249W        W66410   0.288  14.040   1.366
 1250W        W66411  13.155   6.277   0.437
 1251W        W66412  12.404   3.014  13.051
 1252W        W66413  10.097  11.849   4.045
 1253W        W66414  25.802  32.976   0.242
 1254W        W66415  37.791  18.023  12.007
 1255W        W66416   0.670  24.994  12.138
 1256W        W66417  16.119   7.158   4.900
 1257W        W66418   8.770  22.773   0.353
 1258W        W66419   7.685  37.528  12.087
 1259W        W66420   2.496   2.402  12.519
 1260W        W66421  20.335  35.843   3.208
 1261W        W66422   5.745  20.016   0.399
 1262W        W66423  30.109  31.969  12.854
 1263W        W66424  37.922   2.622  14.863
 1264W        W66425   2.682  27.544   4.986
 1265W        W66426  14.684  30.201  14.980
 1266W        W66427  27.583  42.851  11.962
 1267W        W66428  23.154  20.659   5.708
 1268W        W66429  10.118   4.315   3.738
 1269W        W66430  15.544  33.015  13.142
 1270W        W66431   5.912   4.397   4.327
 1271W        W66432   6.906  31.109   1.328
 1272W        W66433   4.037  22.539  11.927
 1273W        W66434   1.634  14.338   4.136
 1274W        W66435  32.831  15.719   1.417
 1275W        W66436   8.868  30.877  12.915
 1276W        W66437   0.506   0.746  14.314
 1277W        W66438  37.933   5.443  14.268
 1278W        W66439  25.400  43.524  12.649
 1279W        W66440   1.249  21.229  14.973
 1280W        W66441  37.661  41.478  14.254
 1281W        W66442  13.840  40.607  14.277
 1282W        W66443  18.457  19.265  11.578
 1283W        W66444  42.796  32.948   1.619
 1284W        W66445   9.641  20.082  11.894
 1285W        W66446  32.514   2.950   4.664
 1286W        W66447  39.747  41.819   1.387
 1287W        W66448   1.207   7.305  11.128
 1288W        W66449  17.750  37.603   0.138
 1289W        W66450   8.986  34.421  13.074
 1290W        W66451  20.978  11.572  13.853
 1291W        W66452  34.873  22.621   4.923
 1292W        W66453  39.454  41.003   3.641
 1293W        W66454   8.191  36.593   3.331
 1294W        W66455  19.542  10.773   4.950
 1295W        W66456  28.653  36.094  11.630
 1296W        W66457   5.158  23.513   4.587
 1297W        W66458  19.989  25.529  10.632
 1298W        W66459  24.245   5.227   4.092
 1299W        W66460  23.455  42.822   2.774
 1300W        W66461  33.631   2.029  12.615
 1301W        W66462  26.989  41.068  14.097
 1302W        W66463   7.913   8.422  12.040
 1303W        W66464  18.995  16.457   2.745
 1304W        W66465  14.462  13.313   3.932
 1305W        W66466  10.054   4.727  12.096
 1306W        W66467   2.794  38.772   1.244
 1307W        W66468  18.584  13.574   0.513
 1308W        W66469  29.598  35.579  12.916
 1309W        W66470  40.618  10.420   5.045
 1310W        W66471  44.867  43.303   2.221
 1311W        W66472  13.198  15.647   2.716
 1312W        W66473  24.030  24.761  10.487
 1313W        W66474  28.531  13.082   2.283
 1314W        W66475   5.656  33.770  11.205
 1315W        W66476  42.995   9.189   2.271
 1316W        W66477  40.324  31.970  13.430
 1317W        W66478  36.127   2.095  11.656
 1318W        W66479  21.090  33.117   3.213
 1319W        W66480  43.024  26.871  14.927
 1320W        W66481  17.069   6.680   2.164
 1321W        W66482  21.617  29.461   0.439
 1322W        W66483  28.583   5.482  13.418
 1323W        W66484  24.267   0.515   4.194
 1324W        W66485  27.252  32.708   2.780
 1325W        W66486  13.279  21.100  12.852
 1326W        W66487  35.798  44.509   4.499
 1327W        W66488  28.236  41.288   2.208
 1328W        W66489  32.139  39.163   1.713
 1329W        W66490   0.354  33.469   2.789
 1330W        W66491  20.781   0.833  12.327
 1331W        W66492  10.895  44.867   2.235
 1332W        W66493  43.386  24.704  11.689
 1333W        W66494  17.349  20.998  11.623
 1334W        W66495  29.377  41.122  10.594
 1335W        W66496  19.034   4.717   2.351
 1336W        W66497   2.571  26.461   0.861
 1337W        W66498  19.636  37.447  11.126
 1338W        W66499  18.637  13.315   5.019
 1339W        W66500   0.410  35.102   2.351
 1340W        W66501  43.477  26.588  10.475
 1341W        W66502  11.305  34.771   0.927
 1342W        W66503  32.267   2.223  10.996
 1343W        W66504   6.231  40.435  11.994
 1344W        W66505  22.637   9.416  14.795
 1345W        W66506  18.078  42.607  12.832
 1346W        W66507  38.906  19.718  12.126
 1347W        W66508  24.469  15.438  13.971
 1348W        W66509   4.370   5.019   0.852
 1349W        W66510  16.234  16.024  11.179
 1350W        W66511  15.681  28.192  11.508
 1351W        W66512   7.869   3.445  13.486
 1352W        W66513  32.068  28.347  14.022
 1353W        W66514  40.016  38.028   0.450
 1354W        W66515   5.692   7.462   1.074
 1355W        W66516  34.362   5.324  13.424
 1356W        W66517  27.103   0.270  13.777
 1357W        W66518   6.694  30.686  12.516
 1358W        W66519  11.828  39.058  14.234
 1359W        W66520  41.783  31.196   4.065
 1360W        W66521  24.107  20.760   1.866
 1361W        W66522  44.785  34.619   3.448
 1362W        W66523   2.452   2.003   3.070
 1363W        W66524   5.610  20.066  13.503
 1364W        W66525   3.286   7.091   1.153
 1365W        W66526   1.318   4.171  14.083
 1366W        W66527  41.891  33.445  10.822
 1367W        W66528   5.353  25.233   2.554
 1368W        W66529  20.946  41.635  14.767
 1369W        W66530  34.835  11.189   2.630
 1370W        W66531  20.788   9.346  11.912
 1371W        W66532   2.828  20.109  12.042
 1372W        W66533   1.431  34.587  11.623
 1373W        W66534  39.501  28.728   3.751
 1374W        W66535   6.892  18.724   1.127
 1375W        W66536  11.584  13.029   0.446
 1376W        W66537  39.502  19.723  12.879
 1377W        W66538   4.777   0.546   2.391
 1378W        W66539   6.843  23.508  12.393
 1379W        W66540  17.501  40.575  11.987
 1380W        W66541  42.727  30.137  10.566
 1381W        W66542  44.138  31.978  11.562
 1382W        W66543  39.417  13.862   0.277
 1383W        W66544  13.493  43.159  13.907
 1384W        W66545   7.230   8.681   2.760
 1385W        W66546  27.856  26.197   0.914
 1386W        W66547  42.872   5.328  11.504
 1387W        W66548  27.991  31.359   3.227
 1388W        W66549  43.182  23.886  10.715
 1389W        W66550  41.455  27.571  11.564
 1390W        W66551  15.443  34.420   0.899
 1391W        W66552  24.487  30.889   4.565
 1392W        W66553  10.744   9.230  13.016
 1393W        W66554   1.982  35.502  10.559
 1394W        W66555  35.753  30.133   1.740
 1395W        W66556  29.652  20.926  14.538
 1396W        W66557  23.251  16.066  10.143
 1397W        W66558   9.775  35.659   3.140
 1398W        W66559   0.862   7.604  12.649
 1399W        W66560   4.866  39.402  13.509
 1400W        W66561  19.711  20.616   4.655
 1401W        W66562  28.004  10.569  10.703
 1402W        W66563   6.138  42.326  13.027
 1403W        W66564  11.593  39.031   1.268
 1404W        W66565  33.477  10.854   0.130
 1405W        W66566  36.496  38.504  12.444
 1406W        W66567  39.094  10.694   0.936
 1407W        W66568  39.509  38.498   2.894
 1408W        W66569  44.502  14.759  13.921
 1409W        W66570  34.410   9.907   4.137
 1410W        W66571  22.179  29.910  13.475
 1411W        W66572  11.170  20.104   0.806
 1412W        W66573  28.024  43.958  12.984
 1413W        W66574  24.995  41.096   4.429
 1414W        W66575  10.159  36.380   2.518
 1415W        W66576  27.296  32.936  11.958
 1416W        W66577  16.315  44.968  10.684
 1417W        W66578  11.326   1.370   1.287
 1418W        W66579  24.039  30.642   4.410
 1419W        W66580  41.345  21.084   4.739
 1420W        W66581   8.466   1.930   4.523
 1421W        W66582  13.899  40.329  10.292
 1422W        W66583  39.733  28.899   1.520
 1423W        W66584  30.840  39.015  11.073
 1424W        W66585  33.140   1.445  10.737
 1425W        W66586  21.766   3.705   1.653
 1426W        W66587   5.346  41.746   1.312
 1427W        W66588  23.533  15.796  11.088
 1428W        W66589  27.375  30.037   2.773
 1429W        W66590  28.944  36.778  13.256
 1430W        W66591  19.304  10.613  11.154
 1431W        W66592  19.229  39.871   3.384
 1432W        W66593  14.864  22.115  13.923
 1433W        W66594  32.956  28.045   0.471
 1434W        W66595   5.260   2.813  10.631
 1435W        W66596  44.848  14.271   4.167
 1436W        W66597  37.042   3.456  10.489
 1437W        W66598  12.259   8.215  12.446
 1438W        W66599  30.653  21.314   3.157
 1439W        W66600  32.086   8.738  12.157
 1440W        W66601   9.884  37.460   1.708
 1441W        W66602  21.459  30.302  13.818
 1442W        W66603  38.894  19.144   1.828
 1443W        W66604  42.812  10.038   4.042
 1444W        W66605  26.838   0.886   2.768
 1445W        W66606  11.869  16.234  10.358
 1446W        W66607  28.049  10.622  13.992
 1447W        W66608  15.281  31.335  12.488
 1448W        W66609   4.477  32.710  13.390
 1449W        W66610  12.192  19.135   3.675
 1450W        W66611  40.943  27.927   1.441
 1451W        W66612  28.177  35.847  10.066
 1452W        W66613  24.511   2.835   2.877
 1453W        W66614  26.300   9.710   3.150
 1454W        W66615  24.143  31.369  13.577
 1455W        W66616  35.869   6.536   4.450
 1456W        W66617  10.740  20.653  11.911
 1457W        W66618  11.524  14.562   1.812
 1458W        W66619  32.207   1.225   3.298
 1459W        W66620   7.800   9.480   1.295
 1460W        W66621  12.211   8.511  13.593
 1461W        W66622  24.703  14.597   1.867
 1462W        W66623   9.346  33.948  14.425
 1463W        W66624  26.959   4.777   3.255
 1464W        W66625  44.342  39.260   4.617
 1465W        W66626   6.280  17.342  13.579
 1466W        W66627   8.101  43.037   0.359
 1467W        W66628   6.409  34.150  11.595
 1468W        W66629  29.490  22.020  14.237
 1469W        W66630  29.656  35.030   2.690
 1470W        W66631   4.868  11.733  12.741
 1471W        W66632  28.938  30.709   4.095
 1472W        W66633  28.560   5.544  14.888
 1473W        W66634   7.019  13.034  10.789
 1474W        W66635  31.541  41.879  13.493
 1475W        W66636   9.781  13.899   1.711
 1476W        W66637  35.517  29.099  10.929
 1477W        W66638  42.418   4.433  13.371
 1478W        W66639  15.779  39.966   2.440
 1479W        W66640  36.932   2.840  11.909
 1480W        W66641  42.742  35.448   2.633
 1481W        W66642  27.897  26.221  12.511
 1482W        W66643  16.141   8.385  11.934
 1483W        W66644  15.826  28.658   0.364
 1484W        W66645  20.743  31.725  11.495
 1485W        W66646   6.176  33.388   4.088
 1486W        W66647  24.388  14.693  13.263
 1487W        W66648  37.147   9.643   3.315
 1488W        W66649  39.204  36.117   3.168
 1489W        W66650   2.427  42.875  12.481
 1490W        W66651  16.681  43.463   0.951
 1491W        W66652  39.240  44.223  12.914
 1492W        W66653  23.613   7.351  14.229
 1493W        W66654  16.718  38.495   4.472
 1494W        W66655  42.521  17.374   2.849
 1495W        W66656  17.058  32.867  13.502
 1496W        W66657  38.537  20.978   2.264
 1497W        W66658  37.395  23.742  11.884
 1498W        W66659  12.676  18.799   4.681
 1499W        W66660  44.436   0.557  14.245
 1500W        W66661  10.227  30.921  12.344
 1501W        W66662   2.509  26.669  14.571
 1502W        W66663  42.151  42.034   4.323
 1503W        W66664  15.720   4.681  13.799
 1504W        W66665  36.851  19.009   3.937
 1505W        W66666   1.524  42.417   3.209
 1506W        W66667  33.185  16.738  12.436
 1507W        W66668  42.806  43.110  14.014
 1508W        W66669  44.335  26.547   3.811
 1509W        W66670  28.019  38.166   1.784
 1510W        W66671  40.926  26.429  10.732
 1511W        W66672  33.581  33.128   0.429
 1512W        W66673  32.387   8.654  12.574
 1513W        W66674  42.992   5.458   2.383
 1514W        W66675  36.506  31.354  13.088
 1515W        W66676  34.047  39.685   4.531
 1516W        W66677  29.581  15.768   0.416
 1517W        W66678  39.012   4.911   1.703
 1518W        W66679   7.642  11.866   3.614
 1519W        W66680  17.630  36.349   1.321
 1520W        W66681  26.975  26.050   3.300
 1521W        W66682   5.992   2.542  14.502
 1522W        W66683   8.866   0.321  12.557
 1523W        W66684   1.353  35.356   1.882
 1524W        W66685  13.705  38.254   0.271
 1525W        W66686   4.351  44.948   0.855
 1526W        W66687  39.431  30.200  11.937
 1527W        W66688  36.613  27.014   1.348
 1528W        W66689   9.663  37.837   0.376
 1529W        W66690   1.976  44.253  12.549
 1530W        W66691  21.087  44.310  10.827
 1531W        W66692  44.844  16.291   0.041
 1532W        W66693  36.930  15.518  13.838
 1533W        W66694  33.878  28.387   4.174
 1534W        W66695  16.319  16.362   3.118
 1535W        W66696  18.225  29.725   2.004
 1536W        W66697  28.961  19.141   0.487
 1537W        W66698  10.609  34.544   4.671
 1538W        W66699  12.684  34.113  11.875
 1539W        W66700  14.646  26.386  12.530
 1540W        W66701  42.860  33.217   2.135
 1541W        W66702   0.657   3.785  11.896
 1542W        W66703  19.143  28.210   0.434
 1543W        W66704  19.935  21.943   2.371
 1544W        W66705  31.537   0.499   3.383
 1545W        W66706  10.785  15.750   2.125
 1546W        W66707  43.409   7.368  14.008
 1547W        W66708  12.428  21.480   0.365
 1548W        W66709  26.063  34.051   3.328
 1549W        W66710  37.982  30.134   1.605
 1550W        W66711  24.650  15.315  11.412
 1551W        W66712   6.222  10.863  13.648
 1552W        W66713   7.847  25.709   0.494
 1553W        W66714  32.940  16.070   4.619
 1554W        W66715   7.394  22.688  11.537
 1555W        W66716  12.300  32.848   1.643
 1556W        W66717   1.535  23.474  13.614
 1557W        W66718  39.765   2.218   1.256
 1558W        W66719  24.912  43.719  12.542
 1559W        W66720  38.905   3.655  11.167
 1560W        W66721  10.929  21.001   2.850
 1561W        W66722  33.393  11.717  10.852
 1562W        W66723   8.499  43.803  10.264
 1563W        W66724  18.732  20.713   1.487
 1564W        W66725  40.071  23.519  14.914
 1565W        W66726  26.200  43.578   5.192
 1566W        W66727  31.624  29.145   0.359
 1567W        W66728  40.674   0.797   3.665
 1568W        W66729  23.653  21.695   1.326
 1569W        W66730  20.069  40.551  12.591
 1570W        W66731  25.702  41.574   4.191
 1571W        W66732  17.180   8.327  10.513
 1572W        W66733  24.887   6.191   0.010
 1573W        W66734  33.809   4.232   1.200
 1574W        W66735   7.645  23.648  12.056
 1575W        W66736  23.549  28.119   3.093
 1576W        W66737  26.183  32.575  12.828
 1577W        W66738  15.576  34.323  10.709
 1578W        W66739  12.767  18.108   4.378
 1579W        W66740  18.535   7.839  13.137
 1580W        W66741   2.974  36.532  10.987
 1581W        W66742  19.649   8.178   0.182
 1582W        W66743   9.313  31.235  13.621
 1583W        W66744  39.919  10.927  12.580
 1584W        W66745  31.981  20.861  14.241
 1585W        W66746   6.934  34.826   4.537
 1586W        W66747   4.818  39.794  12.864
 1587W        W66748  24.209  13.826  11.192
 1588W        W66749  40.229  19.202   3.339
 1589W        W66750  18.571   6.458   4.999
 1590W        W66751  38.827  29.471  11.628
 1591W        W66752   1.950  30.575  14.613
 1592W        W66753  33.641  14.306   2.398
 1593W        W66754  28.704  22.905   3.195
 1594W        W66755  15.750  21.553   3.889
 1595W        W66756  27.016  26.659  14.400
 1596W        W66757  43.559  39.547   9.102
 1597W        W66758  43.230  15.740  12.957
 1598W        W66759  12.145   5.004  10.326
 1599W        W66760  38.959  21.278   2.249
 1600W        W66761   1.516  15.588  14.372
 1601W        W66762  23.937  39.122   3.638
 1602W        W66763  20.970  17.597   4.049
 1603W        W66764  20.686   7.249   3.162
 1604W        W66765  24.941  35.066   4.477
 1605W        W66766  32.899   1.625  11.185
 1606W        W66767  12.122   1.474  13.901
 1607W        W66768  29.241  44.948  11.541
 1608W        W66769   5.801  30.630  11.093
 1609W        W66770  13.746  42.745   4.251
 1610W        W66771  17.171  21.222   0.801
 1611W        W66772  32.530   2.024   1.516
 1612W        W66773   3.461  41.958  10.752
 1613W        W66774  29.701  25.641   1.375
 1614W        W66775   2.393  30.346  12.526
 1615W        W66776  11.256  21.544  11.875
 1616W        W66777  38.884  28.607  14.949
 1617W        W66778   4.468  19.077  14.290
 1618W        W66779  43.265  21.275   4.595
 1619W        W66780  31.387  20.237  13.655
 1620W        W66781   2.287   4.209  12.096
 1621W        W66782  38.144  23.873  10.766
 1622W        W66783  27.501  35.559  11.631
 1623W        W66784  29.606  39.930  13.854
 1624W        W66785  11.182  17.057  13.010
 1625W        W66786   1.551  10.675  10.620
 1626W        W66787  18.936  42.879   0.776
 1627W        W66788   2.872  32.111   2.231
 1628W        W66789  11.750  22.565  11.024
 1629W        W66790  17.052  29.172   4.381
 1630W        W66791  17.582   7.928  11.660
 1631W        W66792  23.418  36.635   0.198
 1632W        W66793  23.506   7.715  11.058
 1633W        W66794  44.987  18.350   1.453
 1634W        W66795  44.863  32.468   4.492
 1635W        W66796  36.333  34.432   0.659
 1636W        W66797  37.608  29.449  10.749
 1637W        W66798  39.896  12.109   0.412
 1638W        W66799   7.341  43.560  12.177
 1639W        W66800   6.446  25.544   0.720
 1640W        W66801  27.452   7.743   2.490
 1641W        W66802  15.931  26.238  12.383
 1642W        W66803  29.102  18.761   1.913
 1643W        W66804  43.495  12.630  12.139
 1644W        W66805  31.690   3.197  12.709
 1645W        W66806  15.142   7.446  13.471
 1646W        W66807  25.379   2.953   4.289
 1647W        W66808  39.596  11.962   3.565
 1648W        W66809   1.135  35.520   3.812
 1649W        W66810  40.020  20.284   3.278
 1650W        W66811   3.891  35.917   3.183
 1651W        W66812  11.210  29.859  10.726
 1652W        W66813  17.834  18.124   0.231
 1653W        W66814  33.854  12.584   1.349
 1654W        W66815  23.606   9.068  12.010
 1655W        W66816  33.726  37.045   3.250
 1656W        W66817   5.249  29.014   1.216
 1657W        W66818   8.688  17.729   3.011
 1658W        W66819   8.542   5.241   4.686
 1659W        W66820  34.500  43.904  10.944
 1660W        W66821  30.869  17.800   1.332
 1661W        W66822  12.263   6.943  13.097
 1662W        W66823  36.579  13.066  13.752
 1663W        W66824  33.013  36.781   5.164
 1664W        W66825  37.036  33.933   2.812
 1665W        W66826   9.756  14.598   4.098
 1666W        W66827  14.636  28.424  14.555
 1667W        W66828  26.964  28.069  14.718
 1668W        W66829  25.496  32.331  11.650
 1669W        W66830   9.453  14.958  14.064
 1670W        W66831  31.176  14.882   0.209
 1671W        W66832   4.465  22.078  11.424
 1672W        W66833  42.742  24.993  13.952
 1673W        W66834  25.637  40.002  12.090
 1674W        W66835   2.773  43.642   1.227
 1675W        W66836  15.506  19.242  11.652
 1676W        W66837   6.992  22.210  12.942
 1677W        W66838  28.132  19.352   1.283
 1678W        W66839  32.085   9.756   4.394
 1679W        W66840   2.255   9.534   0.686
 1680W        W66841  14.384  26.953  11.656
 1681W        W66842   4.093  10.418  10.913
 1682W        W66843  17.461  41.526  13.851
 1683W        W66844   5.782  10.138   1.832
 1684W        W66845   4.480  18.689   5.030
 1685W        W66846  43.763   1.122   0.802
 1686W        W66847  23.213  43.434   1.855
 1687W        W66848   6.839   5.006  11.163
 1688W        W66849  11.040  20.582  14.893
 1689W        W66850  38.585  32.388   0.780
 1690W        W66851   9.453  19.235  13.757
 1691W        W66852  11.265  24.688  13.938
 1692W        W66853  18.188   4.842   3.712
 1693W        W66854  39.270  36.511  13.410
 1694W        W66855   6.467  23.203  11.523
 1695W        W66856   5.375   9.463  12.306
 1696W        W66857  27.799  29.034  12.477
 1697W        W66858  10.814  22.241   0.255
 1698W        W66859  35.434  17.168   1.466
 1699W        W66860   2.882  31.630   0.496
 1700W        W66861  40.570  21.211  13.916
 1701W        W66862  39.767  44.589  14.797
 1702W        W66863   4.277  39.373   0.004
 1703W        W66864  11.718  27.483  13.853
 1704W        W66865   8.239   1.909   1.668
 1705W        W66866  11.468  26.128   1.753
 1706W        W66867  33.833  17.283   0.554
 1707W        W66868   5.368  21.783  11.576
 1708W        W66869  40.550  13.056   0.661
 1709W        W66870  33.958  42.699  10.878
 1710W        W66871  44.180   4.775  14.477
 1711W        W66872  32.434  16.117   1.238
 1712W        W66873   2.354  15.208  11.994
 1713W        W66874   2.986  26.617   1.153
 1714W        W66875  10.433  38.386  14.359
 1715W        W66876  40.027  18.573  12.611
 1716W        W66877  40.090   7.933   3.346
 1717W        W66878  23.626  10.505   4.917
 1718W        W66879  10.297  14.630   4.382
 1719W        W66880   0.914  37.865  12.825
 1720W        W66881  10.321  12.427  11.949
 1721W        W66882   6.224   0.431   3.401
 1722W        W66883  20.289   3.625  14.413
 1723W        W66884   3.025  14.532   0.779
 1724W        W66885  29.608   0.506  13.043
 1725W        W66886  32.484  35.779  13.659
 1726W        W66887   4.760  18.993   4.160
 1727W        W66888   0.195  34.574  13.527
 1728W        W66889   0.103  15.236  14.393
 1729W        W66890  32.580  14.452  14.449
 1730W        W66891   2.266  16.567  14.216
 1731W        W66892   9.253  33.463  11.719
 1732W        W66893   6.379  37.299  11.083
 1733W        W66894  26.922  21.577   1.430
 1734W        W66895  26.378  20.180  13.454
 1735W        W66896  25.725  32.935   1.419
 1736W        W66897  24.420   3.617   4.616
 1737W        W66898   3.684  19.104  14.115
 1738W        W66899  37.498  31.885  10.733
 1739W        W66900   3.204  13.525  11.669
 1740W        W66901  11.365   6.836  14.834
 1741W        W66902  27.169   5.220  11.012
 1742W        W66903  43.953  39.496   4.166
 1743W        W66904   3.863  37.385  13.479
 1744W        W66905  39.903  43.069   2.257
 1745W        W66906  40.726  36.838  14.374
 1746W        W66907   8.631  41.863   1.161
 1747W        W66908  37.940  18.023  11.149
 1748W        W66909  44.975  21.477   4.120
 1749W        W66910  34.516   9.821   0.253
 1750W        W66911  39.360  41.770   0.952
 1751W        W66912   5.269  43.084  12.520
 1752W        W66913  13.483  43.516   4.499
 1753W        W66914  36.130  23.964   4.144
 1754W        W66915  23.351  44.987  13.416
 1755W        W66916  36.588  14.911   4.001
 1756W        W66917  17.061  22.224   2.320
 1757W        W66918  15.235  38.333   1.630
 1758W        W66919  30.743  16.668  14.443
 1759W        W66920   5.311   9.879  10.542
 1760W        W66921   5.483  31.779  10.570
 1761W        W66922  10.603  31.438  13.571
 1762W        W66923  33.110  26.318   2.678
 1763W        W66924  24.056  10.440   4.465
 1764W        W66925  10.835  24.452  13.080
 1765W        W66926  22.514  19.294   1.514
 1766W        W66927  36.834  21.686  14.530
 1767W        W66928  22.155  16.659  12.954
 1768W        W66929  42.772  21.200  12.475
 1769W        W66930  33.827   0.177   2.859
 1770W        W66931   3.753  41.396  13.411
 1771W        W66932  42.515   1.732   4.041
 1772W        W66933  20.593  39.714   4.001
 1773W        W66934  25.998  23.799   4.107
 1774W        W66935  35.470   9.848  13.434
 1775W        W66936  44.971  32.267  10.237
 1776W        W66937   0.234  28.371  11.867
 1777W        W66938  20.134  28.389   4.162
 1778W        W66939  17.354   0.082  10.593
 1779W        W66940  37.537  35.965  10.476
 1780W        W66941   8.266  28.327  12.870
 1781W        W66942  27.555  31.636   3.339
 1782W        W66943  17.953   2.194  11.087
 1783W        W66944   2.409   6.348   4.106
 1784W        W66945  44.436  33.331   3.606
 1785W        W66946   2.418  39.003   3.552
 1786W        W66947  16.117  25.989  12.808
 1787W        W66948  34.238  10.662   3.178
 1788W        W66949  32.499  26.775   2.187
 1789W        W66950  14.344  27.716  11.161
 1790W        W66951  17.787  33.351  12.987
 1791W        W66952   5.679  41.472   0.877
 1792W        W66953  20.478  26.068  11.202
 1793W        W66954  18.111  18.150  11.579
 1794W        W66955  35.089  32.024   5.376
 1795W        W66956  37.822  20.663   1.367
 1796W        W66957  38.088  41.909  11.348
 1797W        W66958  28.114  23.262  10.694
 1798W        W66959   9.920  33.898  10.751
 1799W        W66960  28.213  40.932   1.813
 1800W        W66961  20.487  36.540  13.337
 1801W        W66962  40.946  36.396  14.194
 1802W        W66963   5.787  28.374   5.544
 1803W        W66964  37.555  13.096  11.464
 1804W        W66965  24.172   5.983   0.961
 1805W        W66966   2.499  34.477   1.971
 1806W        W66967  29.323  44.428  11.556
 1807W        W66968  39.969  28.707  13.518
 1808W        W66969  22.168  29.031  13.957
 1809W        W66970   5.396  39.636  14.362
 1810W        W66971  15.065  14.179  11.912
 1811W        W66972  13.643  16.197   0.662
 1812W        W66973  29.285  33.504  13.574
 1813W        W66974  32.411   5.350   0.998
 1814W        W66975  30.061  32.446  12.645
 1815W        W66976   6.986   4.457  14.901
 1816W        W66977   8.810   2.236   1.711
 1817W        W66978   0.297  32.391  11.986
 1818W        W66979  24.019  30.257   2.606
 1819W        W66980  15.574  42.919   2.361
 1820W        W66981  37.955  35.682  14.479
 1821W        W66982  20.783  14.061   2.413
 1822W        W66983  31.091   4.681   3.150
 1823W        W66984   0.147   6.778  13.718
 1824W        W66985  40.356  25.307  11.934
 1825W        W66986   6.863  12.012   1.380
 1826W        W66987  12.302   6.150  11.521
 1827W        W66988   8.202  37.007  10.816
 1828W        W66989   2.293  17.216  10.129
 1829W        W66990  20.135  29.665  13.096
 1830W        W66991  34.693  15.241  10.833
 1831W        W66992  37.633  35.627  13.841
 1832W        W66993  42.757  33.862   1.575
 1833W        W66994  17.525  31.933   2.726
 1834W        W66995   4.474  31.632   0.870
 1835W        W66996  44.459  13.848  11.588
 1836W        W66997  18.605  14.268  10.749
 1837W        W66998  11.759  13.851  12.864
 1838W        W66999  25.991   5.174   3.574
 1839W        W67000  20.018  11.352   3.374
 1840W        W67001   4.303  29.893  14.485
 1841W        W67002  41.230  24.198  13.121
 1842W        W67003  38.991  40.630   4.473
 1843W        W67004  33.848  40.820  14.213
 1844W        W67005  27.139  19.204   2.151
 1845W        W67006   6.812  35.776   3.700
 1846W        W67007  26.929  22.120   4.288
 1847W        W67008  12.603  23.192   3.598
 1848W        W67009  30.435  39.026   3.679
 1849W        W67010  25.617  34.316   2.264
 1850W        W67011   8.785   0.032   2.860
 1851W        W67012  26.589  44.375  14.865
 1852W        W67013  35.126   7.240   4.589
 1853W        W67014  32.512  18.782  12.016
 1854W        W67015  32.787  41.011   0.829
 1855W        W67016   6.246  17.591  10.404
 1856W        W67017  28.185  12.324  13.369
 1857W        W67018  30.985   3.395  10.778
 1858W        W67019   9.981  20.314  13.962
 1859W        W67020  23.197   2.574   4.566
 1860W        W67021  12.118  26.740  10.592
 1861W        W67022   8.898   1.443  10.854
 1862W        W67023  15.302  28.661   1.022
 1863W        W67024  24.036  38.882  13.836
 1864W        W67025   2.005  28.740  14.219
 1865W        W67026  28.920  13.788   0.856
 1866W        W67027  17.572  38.897   4.654
 1867W        W67028  30.571  28.526   2.338
 1868W        W67029   7.679  24.580  14.288
 1869W        W67030   5.177  22.015  12.152
 1870W        W67031  30.792  43.201   2.223
 1871W        W67032   2.961  19.983   3.292
 1872W        W67033   5.335   1.758   2.380
 1873W        W67034  38.628  28.861  14.567
 1874W        W67035  13.814  32.387   4.860
 1875W        W67036  43.172  19.768  13.382
 1876W        W67037   5.905  42.597   1.528
 1877W        W67038  34.454  42.448  14.633
 1878W        W67039  41.362  43.984   1.705
 1879W        W67040  34.005  36.754   4.998
 1880W        W67041  10.841  21.106  11.681
 1881W        W67042  16.815  12.752  13.463
 1882W        W67043  24.799  40.514   2.781
 1883W        W67044   6.549   4.798  10.685
 1884W        W67045   1.436  21.743  13.991
 1885W        W67046  39.973   3.272   3.173
 1886W        W67047   1.385  16.647  12.988
 1887W        W67048  13.730  20.905   3.707
 1888W        W67049  12.800  33.246  11.072
 1889W        W67050  31.312  34.866  12.686
 1890W        W67051  35.442  37.981  11.945
 1891W        W67052  25.641  26.905  13.028
 1892W        W67053  22.867  15.388   4.493
 1893W        W67054  11.250  15.033  14.281
 1894W        W67055  14.585   4.638   1.407
 1895W        W67056  14.091   8.724  14.420
 1896W        W67057  33.435  17.259   0.224
 1897W        W67058  34.546   8.942  11.846
 1898W        W67059  18.771  14.814  11.641
 1899W        W67060  20.280   8.739  14.752
 1900W        W67061  26.365  15.196  10.729
 1901W        W67062  31.531  12.184  12.846
 1902W        W67063  28.555   6.356   2.855
 1903W        W67064  34.313  24.699   4.095
 1904W        W67065   8.311   0.176  11.456
 1905W        W67066  15.640  34.165   3.830
 1906W        W67067  26.120   9.039   5.023
 1907W        W67068  12.986  18.649   1.068
 1908W        W67069  27.620  21.759   1.868
 1909W        W67070  16.130   5.852  10.871
 1910W        W67071   8.682  33.975   4.930
 1911W        W67072  28.711  37.603   2.229
 1912W        W67073  35.537  35.276   3.074
 1913W        W67074  32.096  35.470  12.582
 1914W        W67075   9.987  32.453   2.565
 1915W        W67076  23.530  10.806   9.965
 1916W        W67077  29.427   8.657  10.531
 1917W        W67078  36.930   8.180  12.530
 1918W        W67079  38.129  11.626   1.336
 1919W        W67080  14.703   7.633  13.789
 1920W        W67081  18.813  32.504   1.367
 1921W        W67082   9.777   6.265  14.920
 1922W        W67083  43.296  30.488   0.702
 1923W        W67084  17.107  36.727  14.199
 1924W        W67085  24.521  12.520  12.493
 1925W        W67086   0.060  30.110   1.969
 1926W        W67087  35.337  22.568  14.671
 1927W        W67088  40.321  22.247  12.056
 1928W        W67089  44.164  22.867   0.411
 1929W        W67090  12.828   9.671   4.154
 1930W        W67091  35.292  11.928  13.493
 1931W        W67092   5.167  31.656  12.009
 1932W        W67093   0.562  30.162   2.875
 1933W        W67094  24.175   9.605   2.417
 1934W        W67095  10.077  28.729   1.950
 1935W        W67096  12.497  25.562   4.480
 1936W        W67097  15.207  26.554   2.162
 1937W        W67098  30.315  19.640   3.885
 1938W        W67099  34.923   2.314  13.177
 1939W        W67100  33.908   0.921  14.293
 1940W        W67101  31.257  30.541  13.127
 1941W        W67102  13.354  24.996  12.631
 1942W        W67103  18.450  22.337  14.854
 1943W        W67104  39.061  19.521  13.110
 1944W        W67105   2.892  41.890   2.792
 1945W        W67106  21.122  40.786  10.438
 1946W        W67107  20.296  19.656   3.723
 1947W        W67108  15.086  34.123   3.238
 1948W        W67109  37.622  31.941  13.980
 1949W        W67110   1.966  20.538   1.324
 1950W        W67111  43.370  23.612   0.945
 1951W        W67112   2.078  37.762   3.191
 1952W        W67113  11.804  22.076  11.249
 1953W        W67114  18.508  15.439   2.654
 1954W        W67115  22.570   5.882  10.140
 1955W        W67116  26.311  39.542   0.969
 1956W        W67117  44.870  24.294   3.520
 1957W        W67118  41.324  29.422   4.841
 1958W        W67119   4.536  23.215  14.791
 1959W        W67120  43.055  29.382  14.745
 1960W        W67121   8.304  27.407  12.009
 1961W        W67122  15.766  13.652  11.962
 1962W        W67123   3.012  29.598  12.884
 1963W        W67124  18.590  24.686   0.365
 1964W        W67125  17.260  12.010  14.268
 1965W        W67126  43.508  35.056  14.820
 1966W        W67127   4.268   7.645   4.565
 1967W        W67128  21.533  43.739  13.023
 1968W        W67129   9.755  30.172   3.611
 1969W        W67130  39.851  40.932   1.937
 1970W        W67131  34.953   0.629   2.699
 1971W        W67132  22.418  16.196  13.055
 1972W        W67133  31.105  17.370   9.543
 1973W        W67134  27.892  44.813  14.609
 1974W        W67135  40.692  32.929   0.096
 1975W        W67136  10.727  41.129  14.340
 1976W        W67137  22.848  24.731   1.095
 1977W        W67138  41.702  27.450  12.163
 1978W        W67139  34.596  34.785  12.768
 1979W        W67140  43.030  14.837  14.147
 1980W        W67141  26.302  13.810  11.211
 1981W        W67142  41.046  29.131  11.144
 1982W        W67143  32.775  42.013  12.902
 1983W        W67144  32.051   8.384  13.098
 1984W        W67145   8.021   5.999  14.063
 1985W        W67146  30.599  29.512  12.511
 1986W        W67147   4.672  25.035   3.951
 1987W        W67148  38.411   8.654   1.578
 1988W        W67149   8.316  33.125   4.278
 1989W        W67150  27.661  38.992  13.196
 1990W        W67151  18.557  13.374   2.798
 1991W        W67152  42.734  28.102   4.530
 1992W        W67153  34.121  12.536  14.875
 1993W        W67154  26.091  18.360   0.399
 1994W        W67155  20.256   0.692  14.332
 1995W        W67156  10.259  44.942  12.957
 1996W        W67157  44.073  20.544   3.552
 1997W        W67158  36.313  43.804  11.882
 1998W        W67159  40.448  28.414   3.897
 1999W        W67160  18.871  32.396   2.861
 2000W        W67161   8.439  18.293   0.787
 2001W        W67162   8.893  20.769  12.822
 2002W        W67163   1.674  22.518  14.313
 2003W        W67164  12.215  44.865   3.230
 2004W        W67165   2.476  44.252  12.357
 2005W        W67166  44.927  36.574  12.566
 2006W        W67167   6.196  38.289   4.633
 2007W        W67168   5.297  41.153   0.968
 2008W        W67169  13.602  38.762   0.373
 2009W        W67170  19.423   1.102  11.999
 2010W        W67171  15.188  21.503   1.917
 2011W        W67172  37.988  24.804  14.885
 2012W        W67173   4.429  42.783  12.574
 2013W        W67174  26.498  32.914  14.429
 2014W        W67175  34.903  20.137  11.442
 2015W        W67176   3.688  18.024   4.088
 2016W        W67177  30.917  17.884  12.600
 2017W        W67178  42.605   8.212   0.703
 2018W        W67179   0.159  40.750   0.022
 2019W        W67180   7.568  12.601   4.295
 2020W        W67181   4.055  38.358  10.869
 2021W        W67182  37.930  36.679  12.042
 2022W        W67183  32.126  25.576   1.357
 2023W        W67184  34.861   1.648   3.149
 2024W        W67185  38.344  27.471   0.391
 2025W        W67186   3.305  36.319   2.204
 2026W        W67187   5.834  18.022   4.525
 2027W        W67188  28.444   5.584  11.383
 2028W        W67189  23.995  23.459  11.937
 2029W        W67190  34.922  18.073  12.607
 2030W        W67191  33.803  28.713  11.154
 2031W        W67192  34.312   6.879   3.029
 2032W        W67193  16.721  23.870   3.872
 2033W        W67194  42.752  26.733  12.949
 2034W        W67195  36.430  32.825   1.297
 2035W        W67196  27.600   3.317  14.106
 2036W        W67197  40.932  39.106   1.080
 2037W        W67198   8.152   1.650   5.032
 2038W        W67199  10.372   7.354   2.383
 2039W        W67200  35.895  26.056   2.464
 2040W        W67201  16.157  16.030   0.500
 2041W        W67202  22.912  16.065  13.037
 2042W        W67203   8.108  36.490   1.651
 2043W        W67204  14.196  31.211  13.409
 2044W        W67205  42.458  30.395   2.184
 2045W        W67206  34.600  28.172   1.636
 2046W        W67207   2.168  18.064   9.929
 2047W        W67208  20.290   8.423   0.453
 2048W        W67209   2.568  36.840   5.115
 2049W        W67210  22.521  14.570  10.629
 2050W        W67211   4.596  36.486   4.181
 2051W        W67212  12.263   9.349   3.413
 2052W        W67213   0.032  43.835  11.925
 2053W        W67214  25.622  35.117   1.400
 2054W        W67215  17.163  43.341  10.412
 2055W        W67216  30.955  39.693  12.904
 2056W        W67217   0.331  24.577  11.239
 2057W        W67218  24.974  17.752  14.056
 2058W        W67219  17.192  16.129   0.775
 2059W        W67220  17.645  15.491   3.733
 2060W        W67221  19.620  33.763   4.660
 2061W        W67222  12.039   7.493   4.046
 2062W        W67223  42.431  31.363   4.675
 2063W        W67224  10.847  35.982  11.393
 2064W        W67225  22.782   8.682  11.812
 2065W        W67226  15.097  18.480  13.887
 2066W        W67227  34.279   9.681   3.701
 2067W        W67228  44.395   9.392  11.021
 2068W        W67229  26.191  23.593   3.657
 2069W        W67230  19.494  37.963  13.882
 2070W        W67231  39.855  27.940   0.590
 2071W        W67232  19.298   4.785   1.811
 2072W        W67233  38.420  24.728   1.220
 2073W        W67234  42.872  44.268  12.839
 2074W        W67235  38.482   9.789  10.479
 2075W        W67236   6.918  22.999  12.382
 2076W        W67237  17.142  11.761   0.701
 2077W        W67238  26.966   0.906  10.891
 2078W        W67239  28.193  36.825  12.504
 2079W        W67240   7.687  32.016   0.434
 2080W        W67241  20.172  32.647  13.532
 2081W        W67242  27.693  34.328   4.185
 2082W        W67243  39.078  34.249  10.773
 2083W        W67244   7.321  32.184  12.224
 2084W        W67245  28.343  24.249   3.953
 2085W        W67246  29.089  10.678   1.778
 2086W        W67247   1.960   4.386   1.282
 2087W        W67248  34.164  23.443  12.031
 2088W        W67249   5.415   2.627   1.312
 2089W        W67250   1.798  37.130   0.394
 2090W        W67251  19.956  20.103   1.340
 2091W        W67252  20.183  27.129  13.823
 2092W        W67253  12.774  17.585  10.639
 2093W        W67254  40.830  37.503  13.554
 2094W        W67255  16.822  33.700   2.654
 2095W        W67256  12.112  31.139  13.433
 2096W        W67257   3.893  40.366  13.892
 2097W        W67258  43.774  28.148   1.708
 2098W        W67259  16.126   3.898  12.919
 2099W        W67260  11.841  16.618   3.268
 2100W        W67261  42.225  42.810  13.487
 2101W        W67262  16.069  20.605  13.983
 2102W        W67263  18.498   8.933  13.362
 2103W        W67264  10.634   4.251  12.579
 2104W        W67265  37.226   3.835  14.048
 2105W        W67266  32.406  31.541   3.749
 2106W        W67267  38.413  11.765  14.577
 2107W        W67268  23.003  36.176   3.681
 2108W        W67269  23.632   7.795  13.464
 2109W        W67270  35.380  12.104  14.980
 2110W        W67271   9.170  43.030   1.344
 2111W        W67272   6.747  31.700   2.405
 2112W        W67273  40.417  12.259  14.459
 2113W        W67274   7.350  33.513   4.991
 2114W        W67275   5.946   0.576   4.562
 2115W        W67276  15.899  20.645   2.324
 2116W        W67277  13.727  44.831   4.071
 2117W        W67278  22.762  37.469  14.928
 2118W        W67279   5.015  40.400  11.112
 2119W        W67280  39.825  12.776  12.840
 2120W        W67281   6.718  24.718   2.185
 2121W        W67282  32.412  44.148  10.045
 2122W        W67283   3.844  16.878  13.744
 2123W        W67284   4.872  36.503  14.433
 2124W        W67285   7.798   5.806   3.026
 2125W        W67286  34.742  16.967  10.212
 2126W        W67287   4.453  32.077   2.238
 2127W        W67288  16.515  32.664  10.752
 2128W        W67289  17.069  29.974   4.148
 2129W        W67290  24.315   9.842   0.518
 2130W        W67291  43.259  18.708  12.590
 2131W        W67292  33.532   9.298   4.315
 2132W        W67293   6.828   4.506  11.251
 2133W        W67294   2.845  23.226  13.103
 2134W        W67295  40.106  37.772  14.334
 2135W        W67296  30.658  35.073   2.808
 2136W        W67297   1.797  28.433   0.137
 2137W        W67298  32.206  20.209   3.858
 2138W        W67299  33.007   3.856   3.858
 2139W        W67300  24.979  22.261  12.150
 2140W        W67301  22.510  40.080  13.926
 2141W        W67302  27.960  20.763   0.331
 2142W        W67303  21.760   4.776   1.493
 2143W        W67304  39.013  22.824   2.230
 2144W        W67305  10.409   7.176   0.496
 2145W        W67306   0.705  41.295   4.501
 2146W        W67307  38.797   9.351  13.340
 2147W        W67308  30.413   6.800  13.175
 2148W        W67309  26.993  11.640   2.697
 2149W        W67310  16.122   2.022  11.158
 2150W        W67311  31.390  28.992   0.810
 2151W        W67312  24.420  23.151  11.938
 2152W        W67313  15.977   3.852  14.337
 2153W        W67314  16.334  27.137  14.227
 2154W        W67315   5.124  12.743  10.414
 2155W        W67316  29.022  32.184   0.409
 2156W        W67317  43.938  19.019   4.233
 2157W        W67318  41.814  21.651   1.480
 2158W        W67319  43.199  36.344   1.268
 2159W        W67320  13.327  10.179  11.247
 2160W        W67321  11.125   3.431  14.964
 2161W        W67322  22.037  30.445  11.333
 2162W        W67323  43.576  38.261  11.968
 2163W        W67324  21.204  37.423  13.183
 2164W        W67325   2.402   5.841   3.952
 2165W        W67326  34.370   6.234  13.445
 2166W        W67327  33.717  18.127   1.430
 2167W        W67328  32.946  35.985  12.735
 2168W        W67329  19.676  26.947  11.170
 2169W        W67330  33.703  19.486  13.451
 2170W        W67331  43.030  37.607   3.408
 2171W        W67332  33.026   3.532  12.018
 2172W        W67333  41.444  11.107  11.162
 2173W        W67334   0.525  17.058  11.537
 2174W        W67335   6.244  36.305   4.562
 2175W        W67336  31.958  27.061  12.162
 2176W        W67337  26.136  28.200  13.354
 2177W        W67338  32.469   9.354  14.389
 2178W        W67339  12.148  17.539  13.087
 2179W        W67340  35.845  34.171  11.681
 2180W        W67341  33.353  44.944  14.881
 2181W        W67342   3.461  13.368   2.685
 2182W        W67343  37.762  44.359   1.279
 2183W        W67344  19.718  40.636  10.075
 2184W        W67345  24.110  32.863   1.972
 2185W        W67346   1.456  41.876  14.826
 2186W        W67347  15.114  15.699   4.333
 2187W        W67348  22.155  38.334   4.580
 2188W        W67349  19.501  33.359  11.273
 2189W        W67350   2.422   0.542   0.039
 2190W        W67351   0.068  33.096  10.279
 2191W        W67352  38.243  36.665  13.428
 2192W        W67353   6.177  11.906   4.543
 2193W        W67354  42.075  41.904  13.935
 2194W        W67355  20.676   5.011  12.517
 2195W        W67356   4.503  23.423   2.245
 2196W        W67357   3.009  35.209  13.044
 2197W        W67358  28.787  30.563   1.302
 2198W        W67359  18.792  30.409  14.653
 2199W        W67360   1.808  15.344   0.487
 2200W        W67361   4.449  36.590   2.863
 2201W        W67362  33.575  20.115  14.153
 2202W        W67363  32.959  34.474   4.619
 2203W        W67364  32.307  22.025   4.090
 2204W        W67365  10.395  40.131  12.806
 2205W        W67366   8.088   2.868  13.562
 2206W        W67367  24.566   9.268   0.349
 2207W        W67368  20.580  34.898  12.406
 2208W        W67369  21.286   2.009   1.383
 2209W        W67370  10.895  14.084  13.837
 2210W        W67371  35.972  18.848  14.115
 2211W        W67372  36.698  13.985  13.485
 2212W        W67373  16.639  21.173  13.520
 2213W        W67374  40.053  23.762   1.521
 2214W        W67375  25.355  37.805   5.483
 2215W        W67376  13.628  38.931   4.652
 2216W        W67377  10.727  21.665  13.891
 2217W        W67378  42.930  30.394  14.859
 2218W        W67379   5.856  21.160  11.180
 2219W        W67380  31.693  12.173   3.316
 2220W        W67381   2.277  10.098  14.246
 2221W        W67382  19.318  15.633  14.044
 2222W        W67383  10.617  35.165  12.583
 2223W        W67384  44.663   7.574   4.855
 2224W        W67385  12.756  42.211   0.744
 2225W        W67386  13.585  12.895   2.264
 2226W        W67387   1.655  13.174   0.885
 2227W        W67388  14.839   2.993   1.167
 2228W        W67389  31.715  35.066   2.818
 2229W        W67390   1.183  32.310  11.103
 2230W        W67391  12.434  43.370  13.771
 2231W        W67392   8.532  12.882   4.100
 2232W        W67393  44.116  30.970   9.894
 2233W        W67394  32.548  28.233   4.224
 2234W        W67395   0.615  37.377  13.676
 2235W        W67396  28.922  20.072   1.290
 2236W        W67397  12.146  18.245   0.339
 2237W        W67398  30.431  42.264   2.883
 2238W        W67399  35.980   6.711   0.086
 2239W        W67400  23.016   0.256  10.717
 2240W        W67401   6.748  27.701   1.268
 2241W        W67402  33.502  18.256  13.754
 2242W        W67403  40.362   5.808  13.530
 2243W        W67404  21.717   7.421   4.043
 2244W        W67405   6.744  39.260  10.516
 2245W        W67406  35.859  21.022  14.054
 2246W        W67407   0.355  10.708   1.821
 2247W        W67408  30.229   2.303   0.889
 2248W        W67409  19.221  13.407   0.446
 2249W        W67410   1.413   0.978   4.520
 2250W        W67411   6.166  29.702  10.262
 2251W        W67412  11.656   0.900   2.835
 2252W        W67413  38.893   6.378   4.326
 2253W        W67414   0.550   1.850   4.201
 2254W        W67415  12.716   2.802   1.863
 2255W        W67416  13.296  30.767   2.787
 2256W        W67417  13.386  43.510  13.126
 2257W        W67418  13.030  14.333  14.831
 2258W        W67419   6.122   1.833   1.934
 2259W        W67420  32.654  31.031  14.216
 2260W        W67421  44.514   7.181   4.077
 2261W        W67422  17.816  32.483  12.769
 2262W        W67423   2.885  32.530  11.586
 2263W        W67424  33.525  24.131  13.484
 2264W        W67425  33.199  17.755  12.877
 2265W        W67426   5.331  16.540  13.410
 2266W        W67427  34.282   9.900  14.290
 2267W        W67428  44.946  11.234  11.143
 2268W        W67429   6.657  11.169  11.414
 2269W        W67430   7.398   1.719  11.238
 2270W        W67431  33.323   7.576  11.528
 2271W        W67432  21.486  28.095  11.561
 2272W        W67433  41.928  21.086   1.532
 2273W        W67434  25.921  27.756   4.098
 2274W        W67435  22.482  44.251  11.581
 2275W        W67436  27.735   6.222  13.006
 2276W        W67437  10.753  12.309  14.045
 2277W        W67438  30.621  20.252   1.670
 2278W        W67439  40.062  21.558   2.733
 2279W        W67440  39.858   1.614  11.353
 2280W        W67441   0.464  18.908  12.302
 2281W        W67442   9.661  11.126   1.877
 2282W        W67443  16.565  20.195  13.984
 2283W        W67444  28.206  10.655  12.468
 2284W        W67445  13.675  34.147   3.197
 2285W        W67446   0.334  26.494   1.251
 2286W        W67447  44.953  28.036  13.477
 2287W        W67448  21.487  38.201  10.163
 2288W        W67449  10.796   4.978  10.923
 2289W        W67450   9.754  28.760   0.260
 2290W        W67451  12.762  17.198  13.900
 2291W        W67452  15.246  16.751   4.317
 2292W        W67453  24.138  18.616  13.275
 2293W        W67454   0.251   6.628   3.167
 2294W        W67455  37.261  11.930   1.436
 2295W        W67456  41.469  27.047  13.092
 2296W        W67457  41.868  41.745   2.290
 2297W        W67458  22.099  13.502   4.089
 2298W        W67459  15.761  25.503  12.758
 2299W        W67460  23.426  30.096  10.686
 2300W        W67461   3.353  11.569  12.147
 2301W        W67462  43.471  21.186   2.434
 2302W        W67463   1.032  16.162   1.194
 2303W        W67464  35.491  25.469  10.378
 2304W        W67465  37.746  44.451   3.892
 2305W        W67466  30.416   0.218   2.836
 2306W        W67467  44.521  43.023  14.003
 2307W        W67468  19.643  22.919   2.226
 2308W        W67469   0.823   3.076   1.057
 2309W        W67470  29.384   4.367   2.126
 2310W        W67471  27.480  20.594   2.433
 2311W        W67472  33.086  38.937  11.815
 2312W        W67473  15.084  42.460   3.496
 2313W        W67474  37.113  18.181   1.119
 2314W        W67475   9.989  18.603   4.071
 2315W        W67476  22.154  11.534  10.115
 2316W        W67477   4.097  10.843  12.594
 2317W        W67478  12.159  12.778  10.588
 2318W        W67479  19.357  14.188  12.061
 2319W        W67480  10.026  42.315  14.581
 2320W        W67481  14.812  16.681   3.356
 2321W        W67482  21.611  31.126  14.959
 2322W        W67483  44.975  10.212   4.493
 2323W        W67484  34.042  28.544   3.699
 2324W        W67485   7.878  22.514  11.495
 2325W        W67486  42.174  18.587   2.467
 2326W        W67487  38.439  22.506  13.736
 2327W        W67488   3.831  38.563   2.263
 2328W        W67489   1.091  11.592  11.563
 2329W        W67490  18.762  26.933  12.041
 2330W        W67491  29.583  33.741  12.314
 2331W        W67492  16.941  31.477  11.974
 2332W        W67493  36.520  11.563   4.339
 2333W        W67494  39.504  15.829   4.656
 2334W        W67495  41.353  15.314   0.447
 2335W        W67496  43.245  35.179   5.593
 2336W        W67497   5.144   8.869   3.545
 2337W        W67498  16.612   2.220  14.951
 2338W        W67499  17.581  36.988   2.243
 2339W        W67500  39.593  38.851   4.595
 2340W        W67501  40.970  34.330  14.310
 2341W        W67502  25.622  21.047  10.723
 2342W        W67503   8.645  37.117   2.276
 2343W        W67504  14.868  28.201   4.025
 2344W        W67505  29.531  32.119   0.398
 2345W        W67506  12.709  17.626   0.223
 2346W        W67507  41.483  36.586   2.498
 2347W        W67508  19.339   0.351   2.725
 2348W        W67509  40.979  24.039   4.237
 2349W        W67510  21.546  38.525  11.416
 2350W        W67511   0.838  10.073  13.652
 2351W        W67512  13.659  34.120   4.112
 2352W        W67513  11.125  15.373   3.304
 2353W        W67514  38.941  37.608  12.527
 2354W        W67515   4.487  15.138   1.621
 2355W        W67516  43.681  25.792  10.790
 2356W        W67517  30.112  25.108   2.287
 2357W        W67518  36.592  22.701   0.261
 2358W        W67519  21.135   4.747  12.507
 2359W        W67520   5.103   2.336   3.327
 2360W        W67521  21.268  30.536   4.122
 2361W        W67522  37.235  43.504  14.301
 2362W        W67523  34.943  13.672   0.990
 2363W        W67524  36.384  31.129  13.536
 2364W        W67525  16.615   3.471   0.858
 2365W        W67526  37.903   1.767  13.998
 2366W        W67527  11.730  20.157   2.112
 2367W        W67528  23.991  13.269   3.685
 2368W        W67529   8.594  28.126   1.324
 2369W        W67530  25.748  40.471   4.570
 2370W        W67531  38.160  14.285  12.468
 2371W        W67532  24.038  16.738   2.401
 2372W        W67533  15.643  36.183   4.006
 2373W        W67534  17.972   2.455  13.546
 2374W        W67535   9.911  38.843   2.416
 2375W        W67536  17.462   9.353   3.669
 2376W        W67537  16.515  40.063   2.767
 2377W        W67538  32.468  14.778   0.019
 2378W        W67539  30.424   0.013  10.365
 2379W        W67540  41.286  37.832   3.763
 2380W        W67541   0.694  26.634   4.201
 2381W        W67542   3.870  25.597   2.988
 2382W        W67543  41.517  41.373  14.456
 2383W        W67544  20.178  36.014  11.496
 2384W        W67545  41.290  21.575   2.224
 2385W        W67546  24.951  32.060  14.034
 2386W        W67547  43.787  31.918   1.225
 2387W        W67548  39.042   2.551   4.659
 2388W        W67549  16.266  10.634   1.762
 2389W        W67550  38.114  18.026  12.991
 2390W        W67551  37.096  19.811  12.491
 2391W        W67552  12.964  42.342   4.533
 2392W        W67553  39.847  40.617   4.321
 2393W        W67554  37.492  21.661  11.177
 2394W        W67555   3.494  21.546  12.980
 2395W        W67556   2.850  32.672   0.252
 2396W        W67557   5.100  44.229   1.414
 2397W        W67558  29.237  12.627  14.466
 2398W        W67559   8.729  39.751  13.284
 2399W        W67560   3.083  40.844  11.100
 2400W        W67561  37.981  36.177  12.167
 2401W        W67562  41.681  32.105   0.223
 2402W        W67563  15.924   0.454  14.818
 2403W        W67564  18.058  21.272   4.990
 2404W        W67565  28.689  12.421   0.435
 2405W        W67566   1.623  19.692  13.872
 2406W        W67567  44.450  37.363   3.133
 2407W        W67568  15.137   4.276  10.566
 2408W        W67569  41.282  35.147   1.335
 2409W        W67570  23.275  25.300   4.649
 2410W        W67571  12.416  26.976  13.858
 2411W        W67572  25.064  23.619  11.560
 2412W        W67573   8.556   7.745   4.535
 2413W        W67574  42.738   3.023  13.844
 2414W        W67575  32.467   7.239   3.165
 2415W        W67576  32.556  28.409   4.722
 2416W        W67577  17.664  12.715  11.993
 2417W        W67578  14.780  31.566  14.809
 2418W        W67579  32.946  34.649   4.133
 2419W        W67580  43.775  34.355   3.373
 2420W        W67581  17.786  17.517   1.086
 2421W        W67582   2.254  29.017   1.236
 2422W        W67583   7.013  34.553  11.588
 2423W        W67584   9.688  22.007  11.566
 2424W        W67585   8.146  23.916   2.777
 2425W        W67586  26.189  16.549  10.368
 2426W        W67587  27.033  29.799  12.011
 2427W        W67588  13.091  12.179  12.195
 2428W        W67589  34.003  24.076  10.163
 2429W        W67590  15.338  12.667   4.691
 2430W        W67591  26.191  44.469  10.780
 2431W        W67592   1.384  16.788   2.274
 2432W        W67593  15.495   8.889   2.155
 2433W        W67594  42.982  11.072   0.088
 2434W        W67595  32.371  11.548   3.135
 2435W        W67596  13.185  40.144   2.503
 2436W        W67597  20.807  32.956  14.000
 2437W        W67598  42.875  11.667  13.788
 2438W        W67599  29.659  27.370   0.712
 2439W        W67600  44.913   2.583  14.788
 2440W        W67601  14.459  31.438  12.917
 2441W        W67602  25.167  21.461   4.468
 2442W        W67603   9.555  24.615   0.924
 2443W        W67604   2.147  30.015   4.636
 2444W        W67605  44.241  20.723   1.857
 2445W        W67606  31.606  21.789  12.425
 2446W        W67607  25.587  20.017   0.819
 2447W        W67608  25.097   4.910   0.759
 2448W        W67609   1.199  38.482   4.022
 2449W        W67610  26.042  29.064  13.488
 2450W        W67611  18.507   9.032   3.483
 2451W        W67612  34.880  44.360  12.493
 2452W        W67613   8.792  20.643  14.340
 2453W        W67614   7.960   8.330   4.382
 2454W        W67615   9.355  40.983  12.486
 2455W        W67616  24.978  36.654  11.391
 2456W        W67617   2.365  11.561  11.125
 2457W        W67618   5.238  32.093   3.693
 2458W        W67619  41.843  33.037   3.907
 2459W        W67620  13.740   6.745  13.182
 2460W        W67621  19.685  42.849  14.346
 2461W        W67622  31.393  20.430  14.499
 2462W        W67623  14.829  38.262  12.057
 2463W        W67624  33.742  26.091   5.020
 2464W        W67625  13.336  15.746  11.455
 2465W        W67626  18.313  26.025   2.769
 2466W        W67627  37.362  19.135   2.779
 2467W        W67628  24.421  35.778   5.387
 2468W        W67629  30.635  27.807  11.171
 2469W        W67630  18.732  15.433   3.167
 2470W        W67631   8.849  39.429   0.484
 2471W        W67632  26.571  29.032   3.373
 2472W        W67633  17.138  13.210   3.614
 2473W        W67634  18.531  33.372   0.513
 2474W        W67635  20.723  11.720   3.347
 2475W        W67636  19.699  12.389  11.966
 2476W        W67637  14.287   8.423   2.172
 2477W        W67638  34.047  27.439  14.302
 2478W        W67639  33.405  24.339  14.375
 2479W        W67640  31.470  41.445   4.087
 2480W        W67641  42.041  14.748  14.466
 2481W        W67642   9.258  17.140   0.864
 2482W        W67643  14.935  24.123  11.009
 2483W        W67644   7.794  13.894   0.808
 2484W        W67645  38.553  23.549  14.805
 2485W        W67646  19.677  18.201  13.848
 2486W        W67647  42.194  15.620   0.372
 2487W        W67648   3.223   7.480  12.170
 2488W        W67649   5.717  15.877  11.727
 2489W        W67650  35.997  43.296   0.771
 2490W        W67651  44.487  29.974   1.445
 2491W        W67652  15.110  35.045  12.570
 2492W        W67653  25.275   2.160   1.357
 2493W        W67654  39.950  10.190  13.937
 2494W        W67655  34.303   4.422  13.369
 2495W        W67656  16.339  27.733  12.977
 2496W        W67657   9.568  10.358  11.765
 2497W        W67658  33.791  13.112  11.465
 2498W        W67659  44.770  37.072  12.575
 2499W        W67660  36.633   9.042  11.992
 2500W        W67661  26.140   9.681  14.433
 2501W        W67662  40.952  22.678  13.698
 2502W        W67663   9.030  27.004   1.112
 2503W        W67664  29.297  34.553   0.469
 2504W        W67665  39.286  33.488   4.871
 2505W        W67666  29.961  27.047   4.940
 2506W        W67667  13.188   4.584  12.206
 2507W        W67668  44.326  22.660  12.594
 2508W        W67669  38.865  42.724  10.693
 2509W        W67670  15.752  34.939   3.167
 2510W        W67671  37.784  10.065   4.712
 2511W        W67672   9.201   6.272   2.623
 2512W        W67673  37.577  40.580  11.179
 2513W        W67674   8.366  28.897  11.192
 2514W        W67675  17.553  38.867   1.003
 2515W        W67676  39.347  36.345   3.626
 2516W        W67677  43.053  38.390  11.989
 2517W        W67678  29.432   5.531  11.447
 2518W        W67679  22.651  10.751  14.992
 2519W        W67680  43.293  36.999  12.638
 2520W        W67681  22.243  26.530  14.429
 2521W        W67682  20.625  29.187   2.913
 2522W        W67683  39.204   4.567  12.845
 2523W        W67684  43.281  17.203   4.460
 2524W        W67685  43.889  34.737  12.607
 2525W        W67686   1.033   2.511  11.776
 2526W        W67687  42.380  36.460   0.921
 2527W        W67688   3.755  29.470  14.042
 2528W        W67689  35.634   0.610  14.477
 2529W        W67690  36.447  40.883  11.691
 2530W        W67691  21.363  33.581   3.628
 2531W        W67692  30.087  24.405  14.452
 2532W        W67693  23.199  41.372  10.706
 2533W        W67694  39.232  19.446   4.287
 2534W        W67695  29.686  15.303   1.443
 2535W        W67696  36.137  24.594  14.557
 2536W        W67697  33.219  41.956   4.617
 2537W        W67698  43.731  14.581   0.935
 2538W        W67699  24.517  15.211   1.789
 2539W        W67700  19.389  13.028   2.289
 2540W        W67701  10.799   5.017  13.205
 2541W        W67702  37.845  18.327  11.579
 2542W        W67703   2.455  30.889   0.235
 2543W        W67704   6.951   7.949  13.135
 2544W        W67705  25.671  18.820   2.707
 2545W        W67706  10.316  14.895   2.295
 2546W        W67707  23.019  16.707  11.611
 2547W        W67708  42.435  40.479   4.507
 2548W        W67709  19.550   5.251   0.950
 2549W        W67710   9.790   2.023   0.187
 2550W        W67711  34.455   1.414   3.371
 2551W        W67712  23.330  28.139  11.938
 2552W        W67713  41.421  43.661   3.205
 2553W        W67714  16.095  14.326   3.703
 2554W        W67715  30.008  43.513   1.627
 2555W        W67716  28.007   0.935   3.564
 2556W        W67717   7.940  18.345   0.960
 2557W        W67718  18.536   8.263   2.752
 2558W        W67719  24.930  29.077   2.872
 2559W        W67720  25.492  26.158  13.206
 2560W        W67721  36.462  15.229  14.311
 2561W        W67722  40.041  26.754  12.726
 2562W        W67723   4.688   1.979   2.953
 2563W        W67724  41.784  26.461   3.926
 2564W        W67725  37.479  19.204  13.036
 2565W        W67726   9.431   0.247   0.786
 2566W        W67727  14.709  14.622  13.956
 2567W        W67728  20.612  30.653   1.285
 2568W        W67729   5.782  20.870  14.062
 2569W        W67730  21.660  17.784   2.329
 2570W        W67731  18.033  23.474  14.749
 2571W        W67732   0.622  38.098   3.217
 2572W        W67733  33.959  31.177  14.387
 2573W        W67734   5.462  17.418  10.260
 2574W        W67735  21.724  31.125   3.561
 2575W        W67736  43.218   4.386   3.245
 2576W        W67737  12.201  40.306  14.704
 2577W        W67738  13.884  10.379  10.731
 2578W        W67739  39.583  26.269   3.251
 2579W        W67740  35.503  32.072   2.920
 2580W        W67741  21.474  33.450  13.022
 2581W        W67742   7.547  29.836   5.169
 2582W        W67743  10.534  23.172  13.194
 2583W        W67744  27.454  26.158  14.367
 2584W        W67745  25.069  14.928  14.502
 2585W        W67746  40.855  42.360   1.820
 2586W        W67747   5.469   2.290  11.297
 2587W        W67748  11.557  35.738  14.121
 2588W        W67749   8.673  25.162   2.246
 2589W        W67750  35.426  26.120  11.968
 2590W        W67751  38.820  26.694  14.871
 2591W        W67752  24.042  40.119   2.436
 2592W        W67753   1.297   5.368   3.646
 2593W        W67754  34.519   0.111   1.740
 2594W        W67755  42.917   4.739   0.889
 2595W        W67756  34.058  37.462  13.120
 2596W        W67757  11.816  36.303   0.074
 2597W        W67758  18.341  40.033   1.270
 2598W        W67759  32.718  13.290   3.250
 2599W        W67760  37.037  16.423   4.045
 2600W        W67761   4.972  14.355  11.616
 2601W        W67762   1.352  26.743   1.704
 2602W        W67763   4.558  34.545  12.708
 2603W        W67764   8.805  41.354  13.919
 2604W        W67765  14.785   2.825  13.471
 2605W        W67766  20.743  23.283  11.136
 2606W        W67767  44.291  17.635   4.141
 2607W        W67768   7.286   5.137   3.397
 2608W        W67769  23.012   4.670  13.322
 2609W        W67770  40.098  12.357  14.996
 2610W        W67771  25.432  43.856   4.950
 2611W        W67772  43.254  29.783   3.291
 2612W        W67773  22.826  13.789  11.497
 2613W        W67774  37.980  35.429   0.465
 2614W        W67775   9.522  13.886  11.176
 2615W        W67776  27.610  23.039   0.732
 2616W        W67777  11.326   1.455  11.590
 2617W        W67778   8.663  10.232   3.329
 2618W        W67779  32.005  42.970  12.930
 2619W        W67780  29.538  19.683   4.949
 2620W        W67781  26.473   3.051   0.383
 2621W        W67782  36.417  42.052  14.431
 2622W        W67783  32.976   2.795   3.930
 2623W        W67784  17.356  23.979   4.666
 2624W        W67785  23.145  38.310   1.145
 2625W        W67786  31.652  18.038   0.976
 2626W        W67787   5.940  17.179  11.429
 2627W        W67788  35.790  12.094   3.304
 2628W        W67789  34.946  25.413   1.500
 2629W        W67790  34.383   9.157  12.580
 2630W        W67791  13.249  14.823  11.131
 2631W        W67792  28.657   4.076  10.854
 2632W        W67793   7.361  28.892   4.005
 2633W        W67794  19.575  19.649  11.207
 2634W        W67795  39.233  10.744  14.993
 2635W        W67796  19.578  43.540   2.250
 2636W        W67797   6.750   8.648   2.978
 2637W        W67798  36.361   2.332  11.242
 2638W        W67799  25.562  12.762  12.517
 2639W        W67800  44.337  16.207   1.777
 2640W        W67801  18.990  21.056  12.546
 2641W        W67802  37.123   7.675  12.172
 2642W        W67803  23.161  23.259   0.763
 2643W        W67804   7.511  41.434  13.961
 2644W        W67805   5.176  16.104   4.067
 2645W        W67806  42.293  35.202   4.567
 2646W        W67807  29.113   4.224   0.721
 2647W        W67808  12.212  31.709  14.441
 2648W        W67809  37.134  33.386   1.478
 2649W        W67810  14.591  34.747   4.404
 2650W        W67811  26.961  16.010   1.721
 2651W        W67812  30.404  10.758  14.729
 2652W        W67813  10.403   7.833   4.274
 2653W        W67814  29.956  42.414   0.814
 2654W        W67815  40.415  16.636   4.883
 2655W        W67816   5.326   7.925   3.185
 2656W        W67817  40.947   0.423  11.786
 2657W        W67818  33.287  26.578  12.341
 2658W        W67819  10.309  17.276  12.913
 2659W        W67820   1.031  34.484   3.609
 2660W        W67821  36.711   1.784   1.181
 2661W        W67822  32.023  24.666   2.793
 2662W        W67823   3.818   7.329  10.648
 2663W        W67824   1.233   0.178  10.424
 2664W        W67825  41.606  25.280   5.061
 2665W        W67826  11.770  40.283   3.983
 2666W        W67827  33.141  44.190  11.222
 2667W        W67828  37.454  42.687   0.855
 2668W        W67829  27.240  32.131  10.655
 2669W        W67830  19.353  32.473   3.612
 2670W        W67831  36.894  36.607  10.656
 2671W        W67832  15.662   1.257  11.406
 2672W        W67833   6.776  15.029   3.116
 2673W        W67834  30.366   7.863  14.902
 2674W        W67835   3.946  16.258  11.562
 2675W        W67836  14.657   5.879   0.978
 2676W        W67837  38.676  24.413  11.682
 2677W        W67838  41.904  37.002   1.657
 2678W        W67839  13.305  42.061   2.447
 2679W        W67840  28.396  21.181   1.917
 2680W        W67841  29.123   3.944  10.622
 2681W        W67842  26.821  24.198   2.616
 2682W        W67843  33.677  27.553   1.462
 2683W        W67844  18.362   5.357   0.015
 2684W        W67845   8.872   8.232   0.346
 2685W        W67846  18.827  17.290  12.805
 2686W        W67847  16.063  31.320   1.906
 2687W        W67848  29.137  26.189  11.927
 2688W        W67849  20.144  28.207  14.755
 2689W        W67850  33.676  21.716   2.481
 2690W        W67851  29.491  41.956   2.989
 2691W        W67852  23.155  37.418  13.906
 2692W        W67853  19.292   3.826   0.394
 2693W        W67854  12.065  15.226   1.378
 2694W        W67855  15.080   4.418  14.932
 2695W        W67856   9.753  26.963   3.310
 2696W        W67857  22.570   0.490  12.427
 2697W        W67858  36.469  13.978  11.153
 2698W        W67859  10.260  13.112  13.412
 2699W        W67860  43.027  38.937  11.231
 2700W        W67861  23.370  18.851   4.015
 2701W        W67862  19.346  30.240  11.010
 2702W        W67863   4.458  23.180   1.756
 2703W        W67864  39.811  37.186   0.410
 2704W        W67865  25.069   6.817   4.593
 2705W        W67866   2.466  40.825  14.302
 2706W        W67867  12.282  22.647   4.870
 2707W        W67868  23.517  37.591   2.887
 2708W        W67869  27.368  18.401  12.071
 2709W        W67870  42.388  44.329   3.473
 2710W        W67871  34.080  35.909   4.639
 2711W        W67872  31.371  13.549  12.497
 2712W        W67873  44.990  36.408  14.456
 2713W        W67874  18.032  40.564  14.111
 2714W        W67875  14.349  12.493  11.779
 2715W        W67876   4.878  33.506   3.704
 2716W        W67877   6.727  25.524  12.323
 2717W        W67878  15.021  12.162  11.190
 2718W        W67879  17.852   9.814  10.657
 2719W        W67880   0.275  10.928   0.823
 2720W        W67881   9.583   8.892   0.373
 2721W        W67882  27.093   4.324  14.931
 2722W        W67883  22.279  22.266   2.754
 2723W        W67884  31.668  31.237  14.377
 2724W        W67885  17.328  18.159  14.014
 2725W        W67886  13.102   7.786  11.602
 2726W        W67887  30.346  38.510  12.959
 2727W        W67888   9.733  22.233   2.407
 2728W        W67889  13.640  24.787   1.658
 2729W        W67890  10.778  13.221  12.545
 2730W        W67891  37.290   9.240   2.228
 2731W        W67892  32.041  38.408  14.466
 2732W        W67893  14.232  33.644   3.103
 2733W        W67894  17.066  14.970  13.350
 2734W        W67895  42.353   9.352  13.326
 2735W        W67896   0.637   9.144  11.560
 2736W        W67897  33.651  31.967  11.143
 2737W        W67898  23.915  10.115   4.085
 2738W        W67899  25.544  37.290   0.945
 2739W        W67900  12.232   1.986   1.873
 2740W        W67901  25.995  39.793   0.452
 2741W        W67902  29.073   2.783  10.640
 2742W        W67903  12.082   8.143   3.628
 2743W        W67904  12.096  11.975   1.214
 2744W        W67905   7.772  22.182  14.019
 2745W        W67906  39.902  43.225   4.556
 2746W        W67907  11.475   9.149  13.347
 2747W        W67908  22.198  30.941   4.921
 2748W        W67909  25.802  39.536   0.847
 2749W        W67910   1.732  11.648  14.956
 2750W        W67911  12.903  28.495   4.502
 2751W        W67912  22.025  13.002   4.173
 2752W        W67913  41.963  22.536   1.334
 2753W        W67914  38.667  12.175  14.842
 2754W        W67915  24.976  18.599   1.185
 2755W        W67916  31.071   4.205   0.908
 2756W        W67917  17.239  22.120   2.804
 2757W        W67918   3.627  15.650   2.267
 2758W        W67919  12.345   1.190   3.666
 2759W        W67920   9.126  38.953   2.718
 2760W        W67921  22.357  34.043   0.022
 2761W        W67922   6.327  33.523   1.392
 2762W        W67923  31.763  30.149   2.083
 2763W        W67924  41.595  23.502  11.832
 2764W        W67925  37.551  37.307   0.119
 2765W        W67926  38.635   8.096   0.977
 2766W        W67927  25.631   3.779  12.895
 2767W        W67928  21.516  38.416   4.596
 2768W        W67929  28.719  43.485   4.148
 2769W        W67930  24.012  26.346  12.035
 2770W        W67931   9.494  27.954  13.682
 2771W        W67932  31.659  40.449  14.313
 2772W        W67933  37.940  35.277  13.581
 2773W        W67934   9.097  31.358  12.502
 2774W        W67935  10.815  27.969   4.028
 2775W        W67936  27.186  28.447  12.948
 2776W        W67937   2.691  26.930   2.434
 2777W        W67938  23.026  32.099   4.320
 2778W        W67939  14.796  11.807   2.093
 2779W        W67940  27.618  20.227  12.243
 2780W        W67941   5.127  22.627  12.728
 2781W        W67942  40.479   3.592   1.408
 2782W        W67943  41.148  25.043  14.946
 2783W        W67944  13.946  10.218  11.703
 2784W        W67945  21.350   0.231  11.203
 2785W        W67946  39.889   8.370   0.481
 2786W        W67947  21.369  25.049  12.151
 2787W        W67948  16.644  20.688   2.818
 2788W        W67949   5.481   6.024  11.589
 2789W        W67950   4.339  24.547   0.430
 2790W        W67951   1.420   1.900   3.524
 2791W        W67952  14.989  37.332   1.681
 2792W        W67953   2.365  31.681   4.739
 2793W        W67954   7.561  23.151   0.391
 2794W        W67955  34.892   7.328   0.465
 2795W        W67956  25.019  23.382   3.647
 2796W        W67957  18.272  18.254  12.974
 2797W        W67958  27.038  16.170  14.927
 2798W        W67959  29.071   8.100  12.081
 2799W        W67960  36.996   5.713  13.860
 2800W        W67961  22.313   2.964  14.876
 2801W        W67962  42.687  27.626   1.159
 2802W        W67963  31.590   8.907   1.341
 2803W        W67964   2.709  14.537  12.443
 2804W        W67965  30.910  19.505  13.878
 2805W        W67966  14.792  25.455   3.200
 2806W        W67967  27.998   7.821   1.152
 2807W        W67968  22.825   3.868  14.025
 2808W        W67969   4.300   4.564   0.623
 2809W        W67970  25.958  27.254   4.109
 2810W        W67971  17.334   2.292  14.253
 2811W        W67972  34.047  10.541  12.492
 2812W        W67973   5.347  43.818   1.200
 2813W        W67974  39.947  37.004  13.162
 2814W        W67975  30.995  34.994   0.430
 2815W        W67976  19.629  29.394   3.756
 2816W        W67977  29.576   7.649   1.242
 2817W        W67978   1.988   8.307   1.226
 2818W        W67979  44.351  35.373  12.034
 2819W        W67980  33.846  37.803   4.131
 2820W        W67981  36.616  10.770   2.892
 2821W        W67982   7.756  28.083  12.236
 2822W        W67983   5.385  18.566   2.708
 2823W        W67984  15.616  18.513   1.351
 2824W        W67985   1.461   2.510   0.952
 2825W        W67986  16.401   6.873   3.029
 2826W        W67987  17.930  19.142   3.640
 2827W        W67988   5.469  27.173  14.255
 2828W        W67989  39.115   9.495   4.238
 2829W        W67990   9.496  17.572   2.631
 2830W        W67991  30.596  10.410   0.675
 2831W        W67992   7.463  10.644  10.645
 2832W        W67993  23.468  17.120  14.498
 2833W        W67994  15.180  31.827  12.603
 2834W        W67995  25.099  23.735  12.379
 2835W        W67996   3.265  22.928  10.960
 2836W        W67997   6.270  36.813  13.998
 2837W        W67998  32.147  41.974   3.590
 2838W        W67999   4.714  22.969   4.009
 2839W        W68000  17.845  30.457   2.319
 2840W        W68001  27.424  41.809  14.096
 2841W        W68002  44.268  43.374   1.227
 2842W        W68003  10.736  20.082   4.580
 2843W        W68004  40.451   2.187   4.729
 2844W        W68005  34.777  15.692  12.941
 2845W        W68006  22.321  26.673   0.782
 2846W        W68007  11.363  25.150  14.749
 2847W        W68008  39.027  28.808  11.109
 2848W        W68009  44.924  12.286   5.469
 2849W        W68010  37.105  24.608  13.564
 2850W        W68011  12.266  32.925   4.495
 2851W        W68012   5.346   3.995  10.638
 2852W        W68013  30.449  30.142   4.233
 2853W        W68014  43.007  37.872   1.479
 2854W        W68015  35.258  30.802   1.150
 2855W        W68016  17.187   3.812   2.230
 2856W        W68017  38.740  27.950   3.068
 2857W        W68018  32.159  30.425  11.634
 2858W        W68019  39.890  14.690  11.138
 2859W        W68020  40.720  23.710   2.827
 2860W        W68021  13.232  24.557   2.360
 2861W        W68022   5.480  32.181  12.034
 2862W        W68023  17.709  26.645  12.617
 2863W        W68024  23.414   4.904  14.055
 2864W        W68025  40.741  37.388   1.643
 2865W        W68026   1.449  23.099   4.492
 2866W        W68027  28.850  24.196   2.185
 2867W        W68028  29.477  10.262   3.650
 2868W        W68029  44.356  13.112  11.960
 2869W        W68030  10.635  37.230   5.013
 2870W        W68031  35.026   6.324   2.874
 2871W        W68032  15.591  20.530   1.368
 2872W        W68033  26.412  19.327   0.886
 2873W        W68034  33.111   8.720  14.621
 2874W        W68035  26.611  14.292  11.096
 2875W        W68036  29.587  14.200  13.630
 2876W        W68037  17.740  17.073  14.918
 2877W        W68038  21.651  21.735   3.384
 2878W        W68039  25.647  10.035   5.709
 2879W        W68040   9.738  19.314   3.613
 2880W        W68041  15.261  17.212   4.580
 2881W        W68042  34.203  16.417  14.517
 2882W        W68043  43.524  26.013  14.161
 2883W        W68044  39.640  38.461  10.591
 2884W        W68045  13.670  29.719   3.271
 2885W        W68046  23.725  15.018   3.339
 2886W        W68047  39.802  30.975  13.837
 2887W        W68048  34.738  33.523   2.367
 2888W        W68049  28.954  25.331   0.290
 2889W        W68050  40.801  27.516   3.670
 2890W        W68051  21.179  29.010   3.143
 2891W        W68052   9.716  37.959  12.542
 2892W        W68053  43.084  22.382   2.762
 2893W        W68054  15.920   3.723  11.408
 2894W        W68055  33.843  41.791   4.124
 2895W        W68056   9.371  23.791  14.409
 2896W        W68057  38.188  23.078  11.166
 2897W        W68058  29.045  12.600  13.476
 2898W        W68059  17.598  33.470   0.919
 2899W        W68060  34.844  19.174   2.236
 2900W        W68061  20.442   8.562  11.189
 2901W        W68062  27.786  39.883   3.185
 2902W        W68063  14.768   2.875  14.762
 2903W        W68064  14.397   1.764  14.355
 2904W        W68065  25.965  15.817   1.704
 2905W        W68066  19.173  21.660   3.389
 2906W        W68067  20.626  30.688  14.502
 2907W        W68068  43.532  28.533  13.181
 2908W        W68069  31.800  32.852   4.308
 2909W        W68070  38.378  37.983   5.183
 2910W        W68071   4.696   0.258   3.895
 2911W        W68072   6.970   8.141  11.128
 2912W        W68073   2.809  19.479  11.931
 2913W        W68074  21.238  16.016   2.144
 2914W        W68075  44.783  18.990   3.222
 2915W        W68076   1.407  30.458   0.815
 2916W        W68077  35.834  44.759  14.343
 2917W        W68078  35.925  15.607  12.500
 2918W        W68079  25.624  11.272   2.656
 2919W        W68080  25.518  13.828   0.393
 2920W        W68081  33.562  44.144   2.582
 2921W        W68082  44.930  19.283   2.246
 2922W        W68083  17.755   9.668   4.127
 2923W        W68084   7.895  12.788  14.418
 2924W        W68085   8.789  38.381   3.133
 2925W        W68086  38.567  39.533  11.572
 2926W        W68087  44.193  21.253  12.024
 2927W        W68088  24.277   7.501   4.609
 2928W        W68089  19.469  21.525  13.719
 2929W        W68090   3.048  43.886   0.833
 2930W        W68091  16.166  30.002  14.593
 2931W        W68092   4.821  20.507   2.249
 2932W        W68093  15.172  16.319  13.551
 2933W        W68094  13.285   6.945   1.708
 2934W        W68095  19.078   8.708  11.462
 2935W        W68096  35.799  22.130  14.214
 2936W        W68097  13.529   7.971  12.098
 2937W        W68098  32.457   5.783   1.279
 2938W        W68099  35.633  41.515  13.948
 2939W        W68100  10.622  31.867   4.077
 2940W        W68101  25.089  41.227   1.384
 2941W        W68102   5.317  35.483  12.889
 2942W        W68103  33.659  25.138   1.495
 2943W        W68104  40.609  14.852   4.215
 2944W        W68105  27.402  36.473   4.156
 2945W        W68106  42.475  29.496   0.689
 2946W        W68107  13.069  13.791  14.932
 2947W        W68108  12.278   2.029  12.156
 2948W        W68109  13.338  37.809  14.890
 2949W        W68110   2.467  10.149   2.795
 2950W        W68111  25.147  30.075   2.170
 2951W        W68112  12.420   7.219  11.587
 2952W        W68113  36.492   1.228  14.003
 2953W        W68114  36.455  29.037   1.877
 2954W        W68115  23.041   8.249  12.980
 2955W        W68116   2.937   9.274   0.025
 2956W        W68117  20.491  42.509  12.388
 2957W        W68118  18.825  35.116   0.787
 2958W        W68119  33.405   3.244   0.328
 2959W        W68120   3.024  42.958  11.609
 2960W        W68121  20.096   4.456  12.696
 2961W        W68122  18.847   9.238   0.903
 2962W        W68123   1.683  27.512  12.686
 2963W        W68124  19.822   6.805   1.905
 2964W        W68125  29.955  11.758   2.237
 2965W        W68126   2.780  25.501   4.569
 2966W        W68127  20.535  31.706  14.408
 2967W        W68128  21.216  15.118   3.095
 2968W        W68129  18.856  17.764  13.347
 2969W        W68130   6.871  21.699   0.452
 2970W        W68131  10.427   4.830   0.812
 2971W        W68132  28.981  34.778  12.843
 2972W        W68133  29.729  11.934   3.083
 2973W        W68134  31.066  27.708  11.433
 2974W        W68135  27.721  12.657  14.673
 2975W        W68136   6.611  12.635  13.917
 2976W        W68137  33.979  39.659  11.607
 2977W        W68138   6.358  14.144   4.203
 2978W        W68139  19.666  29.145   4.211
 2979W        W68140   4.673  15.105  12.919
 2980W        W68141  32.426  22.128   1.327
 2981W        W68142  11.729  34.491  13.490
 2982W        W68143  19.719  35.559   0.924
 2983W        W68144  22.654  11.717   0.877
 2984W        W68145  19.056  10.603  12.064
 2985W        W68146  21.093  34.912   3.895
 2986W        W68147  42.564  18.816   2.736
 2987W        W68148   3.715  16.572   2.917
 2988W        W68149  24.902  26.231   2.696
 2989W        W68150  40.229  28.632  14.774
 2990W        W68151  33.500   9.047  11.985
 2991W        W68152   6.483  33.812   4.078
 2992W        W68153  36.779  10.912  13.696
 2993W        W68154   0.219   1.821  12.685
 2994W        W68155  24.945  38.537  12.340
 2995W        W68156   3.897   2.760  12.863
 2996W        W68157  44.599  23.029  11.836
 2997W        W68158  32.908   5.434  11.100
 2998W        W68159  16.792  26.963   4.565
 2999W        W68160  35.842   8.553   2.848
 3000W        W68161   9.430  37.583   1.505
 3001W        W68162  20.198  18.768   2.782
 3002W        W68163  38.897  25.646  11.393
 3003W        W68164  34.574  10.572   0.796
 3004W        W68165  20.666  33.501   2.174
 3005W        W68166   7.367  19.578   3.673
 3006W        W68167  15.871  26.856  13.356
 3007W        W68168  24.005  37.443   4.014
 3008W        W68169   4.449  27.996   3.701
 3009W        W68170  40.935  31.031  13.457
 3010W        W68171  24.925   6.214   1.778
 3011W        W68172  16.157  15.980  14.966
 3012W        W68173  12.313  25.086   0.951
 3013W        W68174   4.822  41.537  10.606
 3014W        W68175  25.090  14.805   1.311
 3015W        W68176   6.642  14.266   4.649
 3016W        W68177   1.470   8.656   4.154
 3017W        W68178  16.035  39.056  11.690
 3018W        W68179  16.789  24.150  11.098
 3019W        W68180   9.878  18.125  11.889
 3020W        W68181  25.688   9.264   2.742
 3021W        W68182  36.844  20.252  12.274
 3022W        W68183  16.884   6.356  13.000
 3023W        W68184   8.567   1.878  14.369
 3024W        W68185  29.114  37.426   1.974
 3025W        W68186  23.303  13.364  14.834
 3026W        W68187  14.076  39.900   2.049
 3027W        W68188  27.657  20.517  11.005
 3028W        W68189  41.487  17.123  14.921
 3029W        W68190  34.950  17.175   1.280
 3030W        W68191  18.204   6.696   3.213
 3031W        W68192  33.597   0.519   2.528
 3032W        W68193  24.255  34.952  11.527
 3033W        W68194  10.772  41.929  11.468
 3034W        W68195  25.618   8.320   1.472
 3035W        W68196  38.037  32.834   4.581
 3036W        W68197  10.137  43.207  12.293
 3037W        W68198   2.709  40.862   1.262
 3038W        W68199   7.791  41.889   4.658
 3039W        W68200  42.853  34.457  13.172
 3040W        W68201  35.617   7.604   4.281
 3041W        W68202  23.704   7.595   4.206
 3042W        W68203   0.937  28.997  10.640
 3043W        W68204  38.548  31.639  12.001
 3044W        W68205  38.928  27.553  10.085
 3045W        W68206  14.055  23.218   0.244
 3046W        W68207   9.226  28.092  10.518
 3047W        W68208   7.419  41.963   0.432
 3048W        W68209  42.544  25.453  12.042
 3049W        W68210  14.086  26.136   0.428
 3050W        W68211  44.952  15.179   1.035
 3051W        W68212  19.236   0.320  10.391
 3052W        W68213  25.803   9.722   4.464
 3053W        W68214  20.571  23.944   2.354
 3054W        W68215  18.356  30.482  12.032
 3055W        W68216  23.237  29.642   2.814
 3056W        W68217  16.293   7.656   1.389
 3057W        W68218  22.293  42.777   2.283
 3058W        W68219  22.082  41.071   4.670
 3059W        W68220  18.661  41.866   2.561
 3060W        W68221  44.028  16.610   9.794
 3061W        W68222  15.223   8.623   2.632
 3062W        W68223  31.171  32.939   3.551
 3063W        W68224  28.946   5.822  13.125
 3064W        W68225  26.427  24.472   1.780
 3065W        W68226   8.363  14.778  11.695
 3066W        W68227  41.205  34.549   5.110
 3067W        W68228  19.076  12.607   2.180
 3068W        W68229  28.073  12.097   1.211
 3069W        W68230  18.674  20.269  12.979
 3070W        W68231   0.773  39.867   2.920
 3071W        W68232  18.125  18.217   2.098
 3072W        W68233  10.600  31.356   4.181
 3073W        W68234  22.652  27.319   2.779
 3074W        W68235  42.182   3.310   5.086
 3075W        W68236  27.571  12.110   1.316
 3076W        W68237  38.892   6.777  12.489
 3077W        W68238  42.924  23.952  11.487
 3078W        W68239  33.518   2.542  12.699
 3079W        W68240   7.421  36.759   0.281
 3080W        W68241   5.795  25.435  11.686
 3081W        W68242  40.501  21.930  13.446
 3082W        W68243  23.954  11.961  12.491
 3083W        W68244  16.116   1.995  13.841
 3084W        W68245   5.076   1.466  12.138
 3085W        W68246  36.018  10.211  14.062
 3086W        W68247   5.742  31.088  11.372
 3087W        W68248  28.678  22.576   2.392
 3088W        W68249   2.558  25.239  12.875
 3089W        W68250  35.009  30.620  14.931
 3090W        W68251  21.696  25.239   2.625
 3091W        W68252   2.307  42.783   0.211
 3092W        W68253  34.547  43.529  14.408
 3093W        W68254  24.155  21.303   4.394
 3094W        W68255   2.218  11.609   2.052
 3095W        W68256   6.680  21.050  11.690
 3096W        W68257   0.826  22.478   0.841
 3097W        W68258   9.221  44.323  12.992
 3098W        W68259  18.731  24.120   4.668
 3099W        W68260   6.070  39.995  10.712
 3100W        W68261  37.589  36.056   1.904
 3101W        W68262  41.026  25.165   3.706
 3102W        W68263  20.124  44.533   2.657
 3103W        W68264  36.764  22.817   1.360
 3104W        W68265  42.977  43.441   3.343
 3105W        W68266   8.922  17.821  13.992
 3106W        W68267  29.561  31.213  12.969
 3107W        W68268  17.552  11.064   0.291
 3108W        W68269   1.009   7.658   1.417
 3109W        W68270  28.353  34.506  14.493
 3110W        W68271  30.613  12.824  14.432
 3111W        W68272  13.755  15.103   4.710
 3112W        W68273  35.983  16.033   4.328
 3113W        W68274  41.957   1.560   0.503
 3114W        W68275  31.383  38.593   3.297
 3115W        W68276  30.346  35.372   3.738
 3116W        W68277  22.775  26.155   4.119
 3117W        W68278  31.854  42.304   3.249
 3118W        W68279  21.528  43.745   1.231
 3119W        W68280   0.574  42.719  10.486
 3120W        W68281  24.139   8.703   2.353
 3121W        W68282  25.481  20.205  13.095
 3122W        W68283  13.817   4.798   1.832
 3123W        W68284  43.576  37.355   0.446
 3124W        W68285  41.098  13.148  12.958
 3125W        W68286  25.966   0.436   4.642
 3126W        W68287   7.135  13.257   3.756
 3127W        W68288  37.615  13.769   0.921
 3128W        W68289  27.221  16.790  11.649
 3129W        W68290  11.813   3.154  13.829
 3130W        W68291   5.418  23.068  13.461
 3131W        W68292  37.225  18.884  13.396
 3132W        W68293  19.764  10.850  11.084
 3133W        W68294  26.626  31.661   1.478
 3134W        W68295  35.616  24.925  11.597
 3135W        W68296  33.854  41.309  12.976
 3136W        W68297  21.622  26.552  12.120
 3137W        W68298  25.043  17.632   1.348
 3138W        W68299   2.737  22.842  14.785
 3139W        W68300  39.300  27.837  13.424
 3140W        W68301   8.411  36.996  14.571
 3141W        W68302  27.475  26.048   1.843
 3142W        W68303  42.903   4.983   1.386
 3143W        W68304   5.218   1.319  11.654
 3144W        W68305   5.203  35.172  13.860
 3145W        W68306   1.595  23.319  11.393
 3146W        W68307  41.404  32.022   2.083
 3147W        W68308  26.699  19.298   1.492
 3148W        W68309  37.203  16.086   3.672
 3149W        W68310  35.557  26.652  12.075
 3150W        W68311   2.375  27.934  13.842
 3151W        W68312  24.015  20.999  14.313
 3152W        W68313  27.722  34.345  11.181
 3153W        W68314   8.809  38.579   0.336
 3154W        W68315  35.484   8.707  12.626
 3155W        W68316  37.189  13.219   0.678
 3156W        W68317  43.513  35.025   3.039
 3157W        W68318  34.411  29.957   0.967
 3158W        W68319  13.804  29.189   2.391
 3159W        W68320  32.053   1.004  12.136
 3160W        W68321   3.814  21.282   4.213
 3161W        W68322  25.293  19.090   4.948
 3162W        W68323  13.685  38.556  10.422
 3163W        W68324   8.885  37.215  14.412
 3164W        W68325  31.176   4.905  13.912
 3165W        W68326   7.634  35.746   4.157
 3166W        W68327  28.081  30.704  11.886
 3167W        W68328  38.965  31.911  10.736
 3168W        W68329  20.564  38.321   1.868
 3169W        W68330  33.227  42.479  12.718
 3170W        W68331   2.493  41.833  11.624
 3171W        W68332  24.490  30.057   2.728
 3172W        W68333  13.277  31.699  14.867
 3173W        W68334  18.015  20.627   2.828
 3174W        W68335  40.855  16.820   4.599
 3175W        W68336  23.637  25.715   4.350
 3176W        W68337  21.449  14.821   3.670
 3177W        W68338  10.221  32.882   0.960
 3178W        W68339  36.925  30.072   2.238
 3179W        W68340  12.830   4.333  14.765
 3180W        W68341   6.319  35.449   1.669
 3181W        W68342  38.355  24.014  14.511
 3182W        W68343  28.181  33.591   2.379
 3183W        W68344  36.619  42.039  13.018
 3184W        W68345   6.672  22.697  14.420
 3185W        W68346   6.651  39.088  13.057
 3186W        W68347  39.089   1.244  10.856
 3187W        W68348  42.390  24.415  13.671
 3188W        W68349  42.877  18.744  13.886
 3189W        W68350  13.847   1.809   1.804
 3190W        W68351  21.482  11.763   2.886
 3191W        W68352   1.320  23.222   0.932
 3192W        W68353   4.602  28.028  11.162
 3193W        W68354   5.584  43.604   3.635
 3194W        W68355  35.512  43.794  14.754
 3195W        W68356  40.104  19.537  11.572
 3196W        W68357  19.818  32.392  14.831
 3197W        W68358  43.022   7.291  10.287
 3198W        W68359   2.739  17.970   3.193
 3199W        W68360  39.534  22.088  13.961
 3200W        W68361  14.097  20.315  14.684
 3201W        W68362   3.663   9.648  11.593
 3202W        W68363   5.147   6.644   3.233
 3203W        W68364  33.392  11.691  12.174
 3204W        W68365  28.233  21.147  13.911
 3205W        W68366  22.515  26.306  12.931
 3206W        W68367  33.521   0.959  14.937
 3207W        W68368   9.108   4.347  13.470
 3208W        W68369   0.980  35.582  12.424
 3209W        W68370  10.314   9.165  11.423
 3210W        W68371  10.791   7.138   0.168
 3211W        W68372   1.359  34.003   1.745
 3212W        W68373  19.668  43.135   4.946
 3213W        W68374  29.565   7.868   4.489
 3214W        W68375  14.396   9.854  13.589
 3215W        W68376  24.101   0.205   2.893
 3216W        W68377   1.130   3.364   4.584
 3217W        W68378  42.373  23.478  11.149
 3218W        W68379  41.117   6.468  10.929
 3219W        W68380  30.499  31.464  10.728
 3220W        W68381  40.487  22.219  10.589
 3221W        W68382  27.005  12.496  11.162
 3222W        W68383  36.687  42.025  11.208
 3223W        W68384  30.979  37.599  14.392
 3224W        W68385  12.049  30.021   3.051
 3225W        W68386  10.046  42.679   3.883
 3226W        W68387   1.168  32.782  13.450
 3227W        W68388  43.438   9.830  11.655
 3228W        W68389  28.075  14.792  11.599
 3229W        W68390  36.121  34.794  13.448
 3230W        W68391   2.706   9.586  12.889
 3231W        W68392  35.813  16.656  13.021
 3232W        W68393  35.918   3.269  11.169
 3233W        W68394  29.130  29.622   4.095
 3234W        W68395   2.359  16.066   2.302
 3235W        W68396  24.983   6.963   3.756
 3236W        W68397   3.219  32.028   3.850
 3237W        W68398   2.027  22.213  14.545
 3238W        W68399  22.172  17.211   3.647
 3239W        W68400   4.015  16.021   1.870
 3240W        W68401  28.953  18.613  12.424
 3241W        W68402   3.646   7.278  13.070
 3242W        W68403   2.021   1.574   1.883
 3243W        W68404  28.382   6.859   2.774
 3244W        W68405   0.208  42.287   3.775
 3245W        W68406   3.162  12.177  10.962
 3246W        W68407  26.062  17.857  14.963
 3247W        W68408  10.302  15.315  10.635
 3248W        W68409   2.769  32.419  12.086
 3249W        W68410   7.693  39.670  13.244
 3250W        W68411   6.569  15.543  14.477
 3251W        W68412  14.313  27.676  13.383
 3252W        W68413  26.139   6.155   2.184
 3253W        W68414   6.253  19.285  14.458
 3254W        W68415   3.383  21.966   0.724
 3255W        W68416  38.452   7.193  14.611
 3256W        W68417  13.149  41.590   3.266
 3257W        W68418  40.073  33.189  13.494
 3258W        W68419  27.666  15.267  13.413
 3259W        W68420  26.462   1.353  14.707
 3260W        W68421  36.984  13.059   2.293
 3261W        W68422  10.927   6.701   1.020
 3262W        W68423  41.976   6.926   4.850
 3263W        W68424   7.215  25.629   3.632
 3264W        W68425   0.372   1.882   2.155
 3265W        W68426  36.952   3.856  11.135
 3266W        W68427  42.921  31.842   5.095
 3267W        W68428  15.733  30.672   0.982
 3268W        W68429  32.003   9.710  10.936
 3269W        W68430   1.547  12.274  11.110
 3270W        W68431  20.829  44.447   3.750
 3271W        W68432  37.796  34.907  10.594
 3272W        W68433  33.142  42.871   3.152
 3273W        W68434  35.404  23.640   2.352
 3274W        W68435  44.294  35.106   4.138
 3275W        W68436  22.655  24.292  11.105
 3276W        W68437  44.730   8.785  13.101
 3277W        W68438   0.380  11.387  12.319
 3278W        W68439  28.261  30.641  14.042
 3279W        W68440  16.810  22.591   0.331
 3280W        W68441  14.572  14.363  14.515
 3281W        W68442  14.294  26.033  11.247
 3282W        W68443  36.630  36.537   3.709
 3283W        W68444  39.519  40.440   1.343
 3284W        W68445  29.533  42.703   0.795
 3285W        W68446   0.879  19.048  11.587
 3286W        W68447  42.905  20.089   3.119
 3287W        W68448  29.378  32.896  12.568
 3288W        W68449  30.345  34.316  11.079
 3289W        W68450  19.603  22.712   2.701
 3290W        W68451  10.662   5.300  14.835
 3291W        W68452   5.992  23.413  11.527
 3292W        W68453   9.308   0.272   2.697
 3293W        W68454  17.688   7.078  11.204
 3294W        W68455  13.837  20.164  10.997
 3295W        W68456  44.905  20.052  12.601
 3296W        W68457  23.038  32.622   2.378
 3297W        W68458  33.547  20.084  10.712
 3298W        W68459  16.927  22.362  12.460
 3299W        W68460  40.342  28.138   0.359
 3300W        W68461  41.817  13.127  13.543
 3301W        W68462  22.691  35.421  13.091
 3302W        W68463  23.835  27.428  14.160
 3303W        W68464  39.284  19.618   3.317
 3304W        W68465   3.745  32.961   4.141
 3305W        W68466  27.508  22.471  13.157
 3306W        W68467  17.798  41.386  14.257
 3307W        W68468  19.664  10.614  11.526
 3308W        W68469  39.939   7.645   3.753
 3309W        W68470   3.353  34.509   1.761
 3310W        W68471  24.611  20.775   3.598
 3311W        W68472   1.509  16.830   1.704
 3312W        W68473  34.645  40.277  12.974
 3313W        W68474   9.386   2.893   0.976
 3314W        W68475  22.036   2.189   3.820
 3315W        W68476  44.235  10.211  12.166
 3316W        W68477  26.176  31.797  10.779
 3317W        W68478   6.393   6.486  12.025
 3318W        W68479  36.654  23.979   4.118
 3319W        W68480  16.241  30.756   0.901
 3320W        W68481  34.203  26.548   2.282
 3321W        W68482   4.392  43.813  14.698
 3322W        W68483  20.800   4.480   1.685
 3323W        W68484  40.374  29.895  14.203
 3324W        W68485  25.469  36.981   5.615
 3325W        W68486   5.447  31.448   3.579
 3326W        W68487  41.720   5.393  13.803
 3327W        W68488  13.204  43.289  12.168
 3328W        W68489   0.401  19.488   2.384
 3329W        W68490   6.183   1.370  10.681
 3330W        W68491  10.564  25.594   2.889
 3331W        W68492   5.295  31.072  13.585
 3332W        W68493  40.549  16.717  12.955
 3333W        W68494  26.604  34.506  12.671
 3334W        W68495  39.776  41.856  12.396
 3335W        W68496  25.693  24.381  12.875
 3336W        W68497   3.793   6.795   4.224
 3337W        W68498  27.673   5.403  11.028
 3338W        W68499  33.673   7.166   1.729
 3339W        W68500   3.256  21.886   2.661
 3340W        W68501  43.309  22.057   1.484
 3341W        W68502  32.575  21.098   3.182
 3342W        W68503  12.695  23.497   4.456
 3343W        W68504  15.195  27.433   3.688
 3344W        W68505  23.646   6.608  12.929
 3345W        W68506   1.434  22.759   3.241
 3346W        W68507  41.637  25.298  12.193
 3347W        W68508  36.880  40.460   1.883
 3348W        W68509  27.657  34.059   1.188
 3349W        W68510   7.352   2.141   2.205
 3350W        W68511  32.551  40.608   0.507
 3351W        W68512  44.315   8.197  14.249
 3352W        W68513  42.603  26.564   0.029
 3353W        W68514  23.715   6.654   3.474
 3354W        W68515   7.729   0.696   3.833
 3355W        W68516  32.297   8.368  11.256
 3356W        W68517  21.961   5.917  14.836
 3357W        W68518  24.026   0.681  10.797
 3358W        W68519  30.179  20.719   0.111
 3359W        W68520  11.902  29.783   2.474
 3360W        W68521  32.156  26.538  14.758
 3361W        W68522  29.665  41.373   4.522
 3362W        W68523  25.869  11.086  12.842
 3363W        W68524  30.549  28.028  12.528
 3364W        W68525  10.254  29.528  12.376
 3365W        W68526   1.341   3.406  12.322
 3366W        W68527   0.287   1.370  12.425
 3367W        W68528  26.164  23.074   2.206
 3368W        W68529  23.226  44.682   3.765
 3369W        W68530  32.126   1.482   0.490
 3370W        W68531  40.595  29.862   4.355
 3371W        W68532   9.119  30.792   2.762
 3372W        W68533  38.855  21.032  14.959
 3373W        W68534  15.501  10.593   3.001
 3374W        W68535  34.314  32.934  14.898
 3375W        W68536   7.395  31.601  11.789
 3376W        W68537   1.356  10.791  13.008
 3377W        W68538  23.050  10.287  13.053
 3378W        W68539   3.322   3.461   0.001
 3379W        W68540  14.042   7.790   4.363
 3380W        W68541  36.201  15.153   2.963
 3381W        W68542  31.470  26.741   3.280
 3382W        W68543  44.833   5.432  10.470
 3383W        W68544   8.360  18.268   2.279
 3384W        W68545  19.787  13.391   2.746
 3385W        W68546  33.037  14.241  11.382
 3386W        W68547  12.390   9.272  12.858
 3387W        W68548  11.810  22.083  13.278
 3388W        W68549  23.380   3.301  14.745
 3389W        W68550  14.030  43.571   4.416
 3390W        W68551  10.548   7.785   1.712
 3391W        W68552  10.222  29.564  14.385
 3392W        W68553  44.788  16.671  10.479
 3393W        W68554  20.854   7.713  11.204
 3394W        W68555  36.263  23.430  10.337
 3395W        W68556  30.022  30.079  12.868
 3396W        W68557   2.619  39.952  14.377
 3397W        W68558  18.153  38.409   0.488
 3398W        W68559  31.327  37.181  12.540
 3399W        W68560  40.911  26.717  13.847
 3400W        W68561   6.176   8.601  13.492
 3401W        W68562  14.168  11.820   0.326
 3402W        W68563   9.420  41.750  12.154
 3403W        W68564  19.452  12.818  14.437
 3404W        W68565  29.675  21.469  11.579
 3405W        W68566  33.031  24.677   4.671
 3406W        W68567  10.275  22.618   4.121
 3407W        W68568  27.090  39.947   5.046
 3408W        W68569  39.272  28.508  11.495
 3409W        W68570   1.045   0.322  12.182
 3410W        W68571   1.388  44.777  10.717
 3411W        W68572  15.912  30.656   0.488
 3412W        W68573  11.192   2.540  11.668
 3413W        W68574  39.067  20.981  11.548
 3414W        W68575  19.822  12.653  11.543
 3415W        W68576  35.426  21.503  14.832
 3416W        W68577  42.071  19.524  12.500
 3417W        W68578   0.868   0.462   0.011
 3418W        W68579  19.036  27.421  13.531
 3419W        W68580  24.921  13.360   4.674
 3420W        W68581  21.806  42.409   4.237
 3421W        W68582  22.150  20.386  11.268
 3422W        W68583  28.855   3.335   1.426
 3423W        W68584   2.549  24.514   1.857
 3424W        W68585  12.715   8.413  14.336
 3425W        W68586  20.949  32.410   0.721
 3426W        W68587  29.160  27.169   0.555
 3427W        W68588  27.205  20.006   1.129
 3428W        W68589   0.994   9.701  12.344
 3429W        W68590  31.300  19.710  13.560
 3430W        W68591  33.640  27.096  13.893
 3431W        W68592  18.273   0.960   4.185
 3432W        W68593  16.671  24.723   2.182
 3433W        W68594   3.766  37.148  14.553
 3434W        W68595  44.275  15.267  14.850
 3435W        W68596   4.643  30.305  12.819
 3436W        W68597  38.082  24.572  13.835
 3437W        W68598  29.563  33.869   1.044
 3438W        W68599  35.430  20.185   3.690
 3439W        W68600   0.406  11.502   4.275
 3440W        W68601  27.881  26.790  11.122
 3441W        W68602   6.279  38.975   5.196
 3442W        W68603  28.664   0.428  11.165
 3443W        W68604  17.474  28.464   2.355
 3444W        W68605  30.070  43.902   4.303
 3445W        W68606  17.485   8.747   2.364
 3446W        W68607  42.743  31.004   2.735
 3447W        W68608  10.424  28.580  14.855
 3448W        W68609  14.416   4.302   3.126
 3449W        W68610   5.440   0.083   4.048
 3450W        W68611  13.230  15.981   0.413
 3451W        W68612  30.193  22.160   4.581
 3452W        W68613  18.017  28.734  11.562
 3453W        W68614  44.757  31.652   0.922
 3454W        W68615  43.297  16.313  11.478
 3455W        W68616  17.985  20.726  14.779
 3456W        W68617  19.009   9.205   2.765
 3457W        W68618  13.220  26.066   2.275
 3458W        W68619  26.783  43.856   1.246
 3459W        W68620  43.496  38.767   0.530
 3460W        W68621   6.237   2.938  12.553
 3461W        W68622  17.871   0.682   4.428
 3462W        W68623  11.258   7.079  13.110
 3463W        W68624  23.029  44.029  13.715
 3464W        W68625   7.911  10.043  11.204
 3465W        W68626   5.682  23.167  13.897
 3466W        W68627   9.793  44.835  11.142
 3467W        W68628   9.803  21.129   4.514
 3468W        W68629   0.498  19.491   3.275
 3469W        W68630  17.523  20.717  13.942
 3470W        W68631  33.484  26.987   2.848
 3471W        W68632  22.679  39.072   9.999
 3472W        W68633  25.725  16.704  13.189
 3473W        W68634  39.406  21.516  14.375
 3474W        W68635   1.493  13.298  14.012
 3475W        W68636  30.937   0.761  10.988
 3476W        W68637   4.979  32.851   0.249
 3477W        W68638  27.503   3.962   3.093
 3478W        W68639   5.206  10.577  11.341
 3479W        W68640  25.638   5.378   1.775
 3480W        W68641  44.664  22.719   3.826
 3481W        W68642  41.355  38.380   3.753
 3482W        W68643  18.174  24.516   4.064
 3483W        W68644   7.869  17.661   2.570
 3484W        W68645   4.705  11.216  11.939
 3485W        W68646   4.476  32.376   4.073
 3486W        W68647  35.985  15.349   0.791
 3487W        W68648   2.547  26.400  11.601
 3488W        W68649   6.190  24.176   0.757
 3489W        W68650   8.443  33.191   3.230
 3490W        W68651  37.545  13.446  12.532
 3491W        W68652  32.255  32.334  14.288
 3492W        W68653  10.865  31.474  12.087
 3493W        W68654  26.213   7.351  14.791
 3494W        W68655  40.367   3.972   0.474
 3495W        W68656  27.759  35.370  11.191
 3496W        W68657  29.227  43.989   2.229
 3497W        W68658  27.987  13.148  13.798
 3498W        W68659  28.533  43.227  14.697
 3499W        W68660  18.117  28.722   3.645
 3500W        W68661  29.884  21.711   0.336
 3501W        W68662  30.632  43.140   3.336
 3502W        W68663   6.891  11.135  13.777
 3503W        W68664  22.648  27.141  13.480
 3504W        W68665  37.484  44.458   2.199
 3505W        W68666  16.306  29.139  11.045
 3506W        W68667  31.241  29.091   3.883
 3507W        W68668  35.928  14.313   0.917
 3508W        W68669  27.975  12.311  14.289
 3509W        W68670  16.945  16.351  11.884
 3510W        W68671  21.054  40.427  10.061
 3511W        W68672  31.996   1.763  11.099
 3512W        W68673  33.327  24.666   4.251
 3513W        W68674   7.126   3.842   0.167
 3514W        W68675  35.803  28.658  10.832
 3515W        W68676  42.983   3.280   4.494
 3516W        W68677  39.370  38.760  13.808
 3517W        W68678  19.499   1.215   0.731
 3518W        W68679  33.917  43.259  13.596
 3519W        W68680   8.715  12.404   4.133
 3520W        W68681  44.766  26.133   2.987
 3521W        W68682  26.616  16.994   4.583
 3522W        W68683  34.674  40.780   3.359
 3523W        W68684  40.057   7.329  11.203
 3524W        W68685  37.470  10.570   0.459
 3525W        W68686  22.880   7.366   0.489
 3526W        W68687  21.559  15.168  10.706
 3527W        W68688   8.932   9.197  11.636
 3528W        W68689  24.000   5.765   4.995
 3529W        W68690   8.924   1.989   4.297
 3530W        W68691  20.111  39.374  13.938
 3531W        W68692   7.235  12.714   2.468
 3532W        W68693  39.490  37.967   0.311
 3533W        W68694  40.811  39.204  11.144
 3534W        W68695   6.033  19.918   4.065
 3535W        W68696  35.348  25.245  14.479
 3536W        W68697  37.439  11.204   3.384
 3537W        W68698  43.559  25.047   3.783
 3538W        W68699  30.088  29.036  10.563
 3539W        W68700  33.628  44.695   2.705
 3540W        W68701   9.656   9.214  14.982
 3541W        W68702  40.120  38.245  14.554
 3542W        W68703  40.324  39.476  14.489
 3543W        W68704  35.320   9.358  11.758
 3544W        W68705  26.007  30.965  14.854
 3545W        W68706  31.010  39.014   4.998
 3546W        W68707  22.621  35.726  14.007
 3547W        W68708  37.275  14.509   3.598
 3548W        W68709   0.268  23.096  11.258
 3549W        W68710  22.717  20.781  13.570
 3550W        W68711  36.455  20.407   4.603
 3551W        W68712  31.827  24.774  12.453
 3552W        W68713  42.864  32.964  13.424
 3553W        W68714  33.635  13.789  14.844
 3554W        W68715  21.754  22.307  14.957
 3555W        W68716  13.793  26.137   0.851
 3556W        W68717  11.205  43.792   4.694
 3557W        W68718  36.950  12.720  12.933
 3558W        W68719  33.477  14.162  14.516
 3559W        W68720   0.059  29.890   0.037
 3560W        W68721  27.611   6.016  14.935
 3561W        W68722  41.527  34.881   1.758
 3562W        W68723  38.389   1.732   4.250
 3563W        W68724  35.477  31.641  14.408
 3564W        W68725   2.556  34.089   0.315
 3565W        W68726  41.559  19.044  12.120
 3566W        W68727  17.317  33.893   1.668
 3567W        W68728  34.061  41.361   2.194
 3568W        W68729   2.903  20.777  14.001
 3569W        W68730  23.543   7.805  10.529
 3570W        W68731  22.407  36.183   2.266
 3571W        W68732  44.553   5.411  11.163
 3572W        W68733  36.883  44.380   4.509
 3573W        W68734  36.768  39.550   9.595
 3574W        W68735  43.986  17.598  10.521
 3575W        W68736  44.924  22.581  13.301
 3576W        W68737   4.475  15.501   3.402
 3577W        W68738  24.040  26.931  14.958
 3578W        W68739  35.575   7.927  12.045
 3579W        W68740  38.491  33.596   0.382
 3580W        W68741  20.593   6.410  11.110
 3581W        W68742  37.366  32.611  11.847
 3582W        W68743   9.804  18.761  13.517
 3583W        W68744  28.696   6.545   0.602
 3584W        W68745  27.355  34.467  11.605
 3585W        W68746   2.340   8.159  11.250
 3586W        W68747  39.518  20.666  10.768
 3587W        W68748   1.045   5.851   1.084
 3588W        W68749  23.277  29.927  11.175
 3589W        W68750  37.155  22.052   3.137
 3590W        W68751  10.274  34.827  12.733
 3591W        W68752  36.361  30.870  13.084
 3592W        W68753  24.661  27.720   4.367
 3593W        W68754  33.996  14.588   3.339
 3594W        W68755  20.740  14.832  11.196
 3595W        W68756   1.515  36.975  12.352
 3596W        W68757  25.148  37.024  14.182
 3597W        W68758  19.641  18.675  11.140
 3598W        W68759  29.617  21.223  14.995
 3599W        W68760   6.354  12.534  11.190
 3600W        W68761  32.095  32.021  13.910
 3601W        W68762   8.302  11.630   2.879
 3602W        W68763   3.356  26.431  14.003
 3603W        W68764  11.369  44.286  12.817
 3604W        W68765  36.125  36.927   3.314
 3605W        W68766   9.604  26.105  10.664
 3606W        W68767  18.128   7.195   4.161
 3607W        W68768   3.343   9.143  14.310
 3608W        W68769  23.195  24.788   0.722
 3609W        W68770  40.545  25.454  14.766
 3610W        W68771  36.453   3.157  14.108
 3611W        W68772  14.794   9.096  12.906
 3612W        W68773  12.066  16.198  13.442
 3613W        W68774  24.420  17.259  14.330
 3614W        W68775  41.156  38.254  12.460
 3615W        W68776  21.440  44.397   3.291
 3616W        W68777  40.085  24.169   4.845
 3617W        W68778  27.299   5.304   4.072
 3618W        W68779  19.071  21.659   1.531
 3619W        W68780  34.534  42.291   4.800
 3620W        W68781  12.403  26.217  12.045
 3621W        W68782  22.217  39.494   4.253
 3622W        W68783  24.033  19.696   4.404
 3623W        W68784  36.070  30.571   0.033
 3624W        W68785  18.260  20.781   0.208
 3625W        W68786  32.544  34.444   4.942
 3626W        W68787  18.201   6.353   0.857
 3627W        W68788  25.155   8.387  13.918
 3628W        W68789  23.510  23.468   2.026
 3629W        W68790  26.527   2.742  12.406
 3630W        W68791  19.838  31.479  14.936
 3631W        W68792  22.643  40.880   2.609
 3632W        W68793  11.668  29.397   1.942
 3633W        W68794  20.374   4.530   2.008
 3634W        W68795  38.527   1.998  11.776
 3635W        W68796  38.612   8.776  12.557
 3636W        W68797  10.289  30.289  11.674
 3637W        W68798   7.720  20.710  12.084
 3638W        W68799  33.946  38.481   3.823
 3639W        W68800  26.751  29.851   0.327
 3640W        W68801  11.912  27.219  10.482
 3641W        W68802  43.967  13.114  10.600
 3642W        W68803  38.094  10.042  14.740
 3643W        W68804  27.336  43.891  12.211
 3644W        W68805  40.045  34.861  12.403
 3645W        W68806  43.557  15.171   0.468
 3646W        W68807  23.150  31.484  13.459
 3647W        W68808  21.351  15.980  10.605
 3648W        W68809   9.574  42.426  14.330
 3649W        W68810  35.024  29.950  14.341
 3650W        W68811  20.976  35.645   3.135
 3651W        W68812   9.728  12.136   1.256
 3652W        W68813  12.343  14.236   1.942
 3653W        W68814  38.417  19.531   3.161
 3654W        W68815  42.297  29.965  13.188
 3655W        W68816  44.400  42.555   2.460
 3656W        W68817   1.402  19.890  13.398
 3657W        W68818   3.348  13.032  12.766
 3658W        W68819  14.802  12.279   1.616
 3659W        W68820  20.439  22.487   4.159
 3660W        W68821  28.816   4.427  13.824
 3661W        W68822   7.582   3.931  12.878
 3662W        W68823  39.608  34.157  10.791
 3663W        W68824  32.848  44.035  10.813
 3664W        W68825   3.344  44.411  10.030
 3665W        W68826  31.835  19.793  10.824
 3666W        W68827   9.113  42.122  11.970
 3667W        W68828  16.119  27.565   4.103
 3668W        W68829  37.390  14.145  14.768
 3669W        W68830  25.903  35.084   4.225
 3670W        W68831  29.642   5.252   1.688
 3671W        W68832  16.280  12.713   3.426
 3672W        W68833  33.557  42.024  11.094
 3673W        W68834  17.962  11.265  13.101
 3674W        W68835  12.194  15.713   0.259
 3675W        W68836  31.435   7.825   1.349
 3676W        W68837  38.957  23.158  13.370
 3677W        W68838  18.612  31.864   1.600
 3678W        W68839  36.277  35.208   5.167
 3679W        W68840  29.448   9.528  12.662
 3680W        W68841  12.852  22.511   0.857
 3681W        W68842   4.337  16.567  13.749
 3682W        W68843  33.564  33.311   1.615
 3683W        W68844  22.640  13.108  10.728
 3684W        W68845  13.285   6.617   2.148
 3685W        W68846  40.018   4.213   3.560
 3686W        W68847   7.607  41.747  13.514
 3687W        W68848  35.951  17.802  11.832
 3688W        W68849   7.210  36.908   2.229
 3689W        W68850  36.512  12.469   0.770
 3690W        W68851   8.479  29.426   1.714
 3691W        W68852  23.523  31.354  10.714
 3692W        W68853  44.284  40.352   1.825
 3693W        W68854  43.136  12.106  12.418
 3694W        W68855   9.083  36.416  11.805
 3695W        W68856  41.354  13.766  14.014
 3696W        W68857   0.274  18.239   0.985
 3697W        W68858   2.409  17.745   3.963
 3698W        W68859   5.693   9.302   0.774
 3699W        W68860   6.641   4.787   3.047
 3700W        W68861  12.557  20.717  12.503
 3701W        W68862  10.160  18.522  12.126
 3702W        W68863  34.055  17.260  12.300
 3703W        W68864  26.710  34.959   0.825
 3704W        W68865   8.650  35.311   1.877
 3705W        W68866  39.545  13.717   0.773
 3706W        W68867  25.490  40.122   2.417
 3707W        W68868  21.830  40.837  14.794
 3708W        W68869  26.754  43.744   3.673
 3709W        W68870   4.630   2.252  13.612
 3710W        W68871  41.497  15.306  14.961
 3711W        W68872  20.597  39.035   4.742
 3712W        W68873  10.420  21.833  10.268
 3713W        W68874  29.768  29.016   3.852
 3714W        W68875  27.748  26.691   4.378
 3715W        W68876  27.006  19.190  14.762
 3716W        W68877  36.563  15.605  10.323
 3717W        W68878  25.087  43.782   0.861
 3718W        W68879  40.781  36.795   3.731
 3719W        W68880  11.648  19.147  12.517
 3720W        W68881  28.135   9.098   4.489
 3721W        W68882   1.649  14.331  11.188
 3722W        W68883  13.232  16.671   4.190
 3723W        W68884  38.271  33.818  13.524
 3724W        W68885   7.203   3.687  11.477
 3725W        W68886  23.606  11.679  13.782
 3726W        W68887  17.059   9.717  11.594
 3727W        W68888  17.800  18.305   4.610
 3728W        W68889   7.110   2.280  11.236
 3729W        W68890  20.319  17.064  13.004
 3730W        W68891  28.184  28.093   2.274
 3731W        W68892   5.766   8.916  13.432
 3732W        W68893   0.241  18.562   0.376
 3733W        W68894  42.675  43.938  12.487
 3734W        W68895  31.927  23.909   2.355
 3735W        W68896   1.057  14.563  12.070
 3736W        W68897  26.652  34.823   3.234
 3737W        W68898  19.444  25.004  11.167
 3738W        W68899   2.868  41.505  11.714
 3739W        W68900  22.230  36.904   3.218
 3740W        W68901  20.140  38.847  11.244
 3741W        W68902  15.793  29.492  14.026
 3742W        W68903  12.850  17.312  12.360
 3743W        W68904  44.713  12.283   2.022
 3744W        W68905  27.680  26.654   0.731
 3745W        W68906  18.069  26.665  14.926
 3746W        W68907  43.390   4.984   0.740
 3747W        W68908  26.009  41.309   4.740
 3748W        W68909  24.666  13.823   4.202
 3749W        W68910   8.964  24.136  13.481
 3750W        W68911  43.359  10.626   0.736
 3751W        W68912  44.460  11.742   4.765
 3752W        W68913  28.584  31.532   1.283
 3753W        W68914  22.518  29.427  13.274
 3754W        W68915   3.609   5.929   4.778
 3755W        W68916   5.359  36.892   2.775
 3756W        W68917   2.786  31.583  10.801
 3757W        W68918   0.383  14.866   4.530
 3758W        W68919  22.518   6.168  13.447
 3759W        W68920   4.913   1.736   1.669
 3760W        W68921  21.156  43.075   0.930
 3761W        W68922  10.269   3.383  11.886
 3762W        W68923  23.188   5.437  12.793
 3763W        W68924  32.994  18.089   4.557
 3764W        W68925  44.283  11.066   0.368
 3765W        W68926  44.786   6.818  11.543
 3766W        W68927  20.103  33.850  14.845
 3767W        W68928  40.834  15.643   0.473
 3768W        W68929   6.770  23.486   2.706
 3769W        W68930  19.530  44.838   2.001
 3770W        W68931  33.113  40.124  14.032
 3771W        W68932  34.844   4.645  12.992
 3772W        W68933  10.254  24.667  14.380
 3773W        W68934  40.532  15.325  12.449
 3774W        W68935  32.421  28.013  10.530
 3775W        W68936  30.609   8.634   1.431
 3776W        W68937  34.581  29.807  13.462
 3777W        W68938  38.002  26.204  14.446
 3778W        W68939  29.949  37.414   4.502
 3779W        W68940  24.650  11.495  14.926
 3780W        W68941  22.802  42.496   1.358
 3781W        W68942  37.067   3.939   4.111
 3782W        W68943  30.410  32.704   1.907
 3783W        W68944  29.393  17.048   1.587
 3784W        W68945  44.503   4.727   5.014
 3785W        W68946   8.900  37.123   4.539
 3786W        W68947  24.193  28.749  10.716
 3787W        W68948   3.893  37.432  14.002
 3788W        W68949  23.888  11.313  12.180
 3789W        W68950  36.359  25.050  14.646
 3790W        W68951  23.222  43.986   1.217
 3791W        W68952  34.047  15.764   2.132
 3792W        W68953  37.880  29.649  14.802
 3793W        W68954  44.276   7.784  12.083
 3794W        W68955   5.329   9.684  11.022
 3795W        W68956  24.891  19.421  11.013
 3796W        W68957  19.162   6.529  14.873
 3797W        W68958  10.813   1.457   2.833
 3798W        W68959  30.405  43.492  11.336
 3799W        W68960  17.085  33.379  14.296
 3800W        W68961  14.549  33.886  11.864
 3801W        W68962  16.857  36.568   0.850
 3802W        W68963  33.463  31.887  12.135
 3803W        W68964  20.155  40.937  14.832
 3804W        W68965  43.792  19.254  13.819
 3805W        W68966  21.024   7.696   0.386
 3806W        W68967   8.303  11.377   3.894
 3807W        W68968  20.653  21.024  14.397
 3808W        W68969   2.256  40.091   0.373
 3809W        W68970  27.618  44.952   4.257
 3810W        W68971   6.659  29.736   5.398
 3811W        W68972  18.715  23.460   2.397
 3812W        W68973  28.136  23.770  10.574
 3813W        W68974   0.328  44.073   2.229
 3814W        W68975  36.073   7.260  14.866
 3815W        W68976  27.051   4.261   1.395
 3816W        W68977  43.777  44.300   4.767
 3817W        W68978   3.533  25.605   1.746
 3818W        W68979  18.544  24.037  11.011
 3819W        W68980  41.745  40.547   2.122
 3820W        W68981  22.612  39.049  12.063
 3821W        W68982  36.480  17.000   3.622
 3822W        W68983   2.714  13.809  14.004
 3823W        W68984  25.567  22.772   1.169
 3824W        W68985   4.602  35.649  13.398
 3825W        W68986  38.472   4.851   3.693
 3826W        W68987  13.838  13.892  11.017
 3827W        W68988   4.879   6.656  13.917
 3828W        W68989  43.391   7.802   3.695
 3829W        W68990   1.771   0.130   3.415
 3830W        W68991  23.570   9.432   0.295
 3831W        W68992   4.754  12.114   9.661
 3832W        W68993   9.334  40.518   1.232
 3833W        W68994   3.446   7.018  12.590
 3834W        W68995  43.444  39.262  10.672
 3835W        W68996  41.883  19.441   3.608
 3836W        W68997  32.328   8.905  10.718
 3837W        W68998  32.488  21.142   4.183
 3838W        W68999   6.347  42.336  11.635
 3839W        W69000  21.279  41.307  10.703
 3840W        W69001  26.735   8.310   0.611
 3841W        W69002  33.860   5.373   0.861
 3842W        W69003  42.113   1.473  11.963
 3843W        W69004  38.495  11.021   4.277
 3844W        W69005  16.169   6.442   2.868
 3845W        W69006  24.641  32.757  14.456
 3846W        W69007  43.457   2.488  11.503
 3847W        W69008  42.206  17.290  11.194
 3848W        W69009   0.349  37.874   2.422
 3849W        W69010   7.621  20.476  12.945
 3850W        W69011   7.332  20.093  14.129
 3851W        W69012  12.604  33.932  12.336
 3852W        W69013  41.982  34.643  13.983
 3853W        W69014  30.887   7.260  11.106
 3854W        W69015  24.205   6.863   1.904
 3855W        W69016  40.937  18.247  12.444
 3856W        W69017  32.465  39.080   2.411
 3857W        W69018  21.809  41.733  11.526
 3858W        W69019   4.868  30.658   3.287
 3859W        W69020   8.869  21.290   2.277
 3860W        W69021  29.066  43.979  11.498
 3861W        W69022  36.123  34.350   2.904
 3862W        W69023  34.227  36.254  10.835
 3863W        W69024  10.697  15.775   1.277
 3864W        W69025  15.166  16.136   0.822
 3865W        W69026  42.244  41.223  10.631
 3866W        W69027  31.910  31.134  12.877
 3867W        W69028  43.497  32.051   3.872
 3868W        W69029  33.983  28.244  13.375
 3869W        W69030  44.484   4.189  14.023
 3870W        W69031  39.557   1.867   4.553
 3871W        W69032  15.046  37.415  11.178
 3872W        W69033  43.109  23.610   3.168
 3873W        W69034  22.265  36.585  12.106
 3874W        W69035  26.604  44.344  11.445
 3875W        W69036  36.752  33.746  12.702
 3876W        W69037  16.145   9.933   0.073
 3877W        W69038  10.362  34.025  10.528
 3878W        W69039  30.012  34.556   3.282
 3879W        W69040  11.641  44.410  10.385
 3880W        W69041  24.588  20.881  10.685
 3881W        W69042  30.942  42.814   0.294
 3882W        W69043  42.972  28.614  10.623
 3883W        W69044  40.034  25.065   4.789
 3884W        W69045  21.096  22.326  12.931
 3885W        W69046   9.675   2.190   1.324
 3886W        W69047   3.232  19.573  14.300
 3887W        W69048  24.864   6.604   1.434
 3888W        W69049  24.142  28.409  11.118
 3889W        W69050   7.321  37.221  11.907
 3890W        W69051   4.016   2.085   0.179
 3891W        W69052  13.646  11.159  14.437
 3892W        W69053  35.619  18.710   3.285
 3893W        W69054  43.869  20.052   2.350
 3894W        W69055   4.587   2.264  14.460
 3895W        W69056  10.846   5.139   2.228
 3896W        W69057  32.148  36.547  12.467
 3897W        W69058  24.234  35.446  10.864
 3898W        W69059  20.763  40.768  14.884
 3899W        W69060  31.854  10.271  12.092
 3900W        W69061  23.078  28.801  10.728
 3901W        W69062  29.577  29.792  12.951
 3902W        W69063  24.680   6.736   3.401
 3903W        W69064  11.910  15.375  10.766
 3904W        W69065  19.725  27.994  11.157
 3905W        W69066  31.625  20.881   3.013
 3906W        W69067  20.848  27.543   0.263
 3907W        W69068  10.858  24.660   4.660
 3908W        W69069  44.167  42.485   3.461
 3909W        W69070  43.487  23.300   4.938
 3910W        W69071  44.782  12.712   3.143
 3911W        W69072  25.736  17.629  12.200
 3912W        W69073  18.698  21.511   1.192
 3913W        W69074  35.631  36.799   4.264
 3914W        W69075  16.250   3.896   2.071
 3915W        W69076   0.305  14.534  11.331
 3916W        W69077  22.119  37.495   0.770
 3917W        W69078  11.194  27.486   1.766
 3918W        W69079  37.024   7.741   2.734
 3919W        W69080  26.024   4.403  11.039
 3920W        W69081  22.065   9.189  12.990
 3921W        W69082   3.864  37.438  11.245
 3922W        W69083  40.004  16.767   2.182
 3923W        W69084  35.544  30.976   3.423
 3924W        W69085  15.425  11.720  14.834
 3925W        W69086  27.086  21.971  12.529
 3926W        W69087  29.102  23.213  12.501
 3927W        W69088  36.479  26.144   1.169
 3928W        W69089  21.129  37.529   1.895
 3929W        W69090  43.637  32.987   3.313
 3930W        W69091  41.926  26.392   0.829
 3931W        W69092   2.339  19.159  13.382
 3932W        W69093  14.465  38.553   4.130
 3933W        W69094  25.161   6.961  13.897
 3934W        W69095   7.392   3.368  11.922
 3935W        W69096  22.642  36.982  10.798
 3936W        W69097  21.494  20.785   0.744
 3937W        W69098  18.283  44.397   2.648
 3938W        W69099  38.844  28.433   3.283
 3939W        W69100  28.924  23.006   1.174
 3940W        W69101   8.208  39.120  11.733
 3941W        W69102  33.355  36.849  14.979
 3942W        W69103  31.186  25.747  13.503
 3943W        W69104   8.062  16.710   2.959
 3944W        W69105  18.862  12.301  12.927
 3945W        W69106  30.410  21.670   0.301
 3946W        W69107  24.574  44.919  12.942
 3947W        W69108  36.602   5.715  11.989
 3948W        W69109   5.523  41.058   4.127
 3949W        W69110  24.233   5.990   2.338
 3950W        W69111  41.490  42.426  12.890
 3951W        W69112  29.373  35.052  14.022
 3952W        W69113  29.129   9.303   0.839
 3953W        W69114  25.145  36.273  11.100
 3954W        W69115  32.805  24.213  12.858
 3955W        W69116  11.423  25.987   4.218
 3956W        W69117  41.661  32.833   4.360
 3957W        W69118   7.952   7.379  12.325
 3958W        W69119  37.521  11.767  12.024
 3959W        W69120  11.556  33.560  13.115
 3960W        W69121  33.635  19.261   3.218
 3961W        W69122  20.305  21.119   4.003
 3962W        W69123  42.936  24.077   1.481
 3963W        W69124  21.898  23.547  14.436
 3964W        W69125  18.566   0.535  10.715
 3965W        W69126  37.019  34.549  14.449
 3966W        W69127   5.343   6.006  12.525
 3967W        W69128  30.052   9.655  14.904
 3968W        W69129   5.183   3.904  11.134
 3969W        W69130  28.466  20.456  14.498
 3970W        W69131  42.116  20.506  11.263
 3971W        W69132  26.072  21.594   5.472
 3972W        W69133  14.377   4.726  10.654
 3973W        W69134  33.188  19.429  12.463
 3974W        W69135   8.844  22.241  13.633
 3975W        W69136  38.447  16.019  12.974
 3976W        W69137  21.139  28.083  14.762
 3977W        W69138  25.996  13.857  13.664
 3978W        W69139  41.720  18.812   2.337
 3979W        W69140  29.953  37.853   1.126
 3980W        W69141   1.483  43.887   1.830
 3981W        W69142  19.537  37.470  12.425
 3982W        W69143  11.465   6.251   0.875
 3983W        W69144  31.419  20.212   1.698
 3984W        W69145  38.015  22.740  13.948
 3985W        W69146   6.503  13.552   3.145
 3986W        W69147  37.079  17.778   0.252
 3987W        W69148   9.902  19.278   3.120
 3988W        W69149  17.164  18.657   1.863
 3989W        W69150  27.585  24.608   4.496
 3990W        W69151  35.978   1.827   2.306
 3991W        W69152   1.792  21.122   4.560
 3992W        W69153   9.577  36.559  13.053
 3993W        W69154  16.399  11.866   2.074
 3994W        W69155  37.038  10.201  11.547
 3995W        W69156   0.813   2.400  12.792
 3996W        W69157  41.778   3.820   3.865
 3997W        W69158  25.626  39.888   1.982
 3998W        W69159  27.617   0.283   1.363
 3999W        W69160  11.955  38.632  14.513
 4000W        W69161  28.169   8.145   4.055
 4001W        W69162  39.059  26.714  14.363
 4002W        W69163  31.219  13.619   0.218
 4003W        W69164  26.759  18.009   3.199
 4004W        W69165  25.540  22.598  13.981
 4005W        W69166  28.692  29.035   2.198
 4006W        W69167  23.768  29.017   4.823
 4007W        W69168   9.718  21.027   1.686
 4008W        W69169  33.525  39.925   1.009
 4009W        W69170  29.213  24.800   2.279
 4010W        W69171  41.041  41.596   1.344
 4011W        W69172  13.127  25.531  14.819
 4012W        W69173  35.589   4.231   1.600
 4013W        W69174  43.592  43.474   1.777
 4014W        W69175  43.349  27.572  13.138
 4015W        W69176  37.629  41.064   2.997
 4016W        W69177  32.059  11.784   2.194
 4017W        W69178  21.491  40.495  12.533
 4018W        W69179   6.254   5.268  10.035
 4019W        W69180  16.708   1.988   3.297
 4020W        W69181  36.382  13.650  12.354
 4021W        W69182  22.137  44.728   1.010
 4022W        W69183   6.979  40.320  11.534
 4023W        W69184  36.602  18.209   1.310
 4024W        W69185  15.250  12.127  10.742
 4025W        W69186  32.211  32.855   1.629
 4026W        W69187  32.796  15.203  10.971
 4027W        W69188  38.097  43.013   5.124
 4028W        W69189  23.491  20.991  10.229
 4029W        W69190  26.592   5.727  13.558
 4030W        W69191  21.481  34.322  13.437
 4031W        W69192  10.910  31.942  12.268
 4032W        W69193   2.163  20.992  10.582
 4033W        W69194  44.857  40.975  11.121
 4034W        W69195  13.462  17.562   0.888
 4035W        W69196   7.804  16.068   0.311
 4036W        W69197  42.069   0.262   2.365
 4037W        W69198  34.678  19.575   2.783
 4038W        W69199  42.829  19.941  11.226
 4039W        W69200  37.150  29.146   4.127
 4040W        W69201   4.354  35.277  13.117
 4041W        W69202  29.637  39.495   0.370
 4042W        W69203   7.690   3.323   2.827
 4043W        W69204  43.878   9.877  11.966
 4044W        W69205   1.267  41.258  11.152
 4045W        W69206  28.098   6.746  10.644
 4046W        W69207  43.114  13.575  11.626
 4047W        W69208   9.825   5.925   0.786
 4048W        W69209  27.451   0.170  12.415
 4049W        W69210  44.778  22.852  11.353
 4050W        W69211   8.363  40.451   0.407
 4051W        W69212  42.779  33.995   4.199
 4052W        W69213  42.242  28.717  13.309
 4053W        W69214  22.984  15.640  12.049
 4054W        W69215  21.439  35.388   0.294
 4055W        W69216  28.638  37.529   3.625
 4056W        W69217  17.328  23.770  10.384
 4057W        W69218  24.218   2.911  13.825
 4058W        W69219  43.946  14.129   0.721
 4059W        W69220  29.452  21.496   0.975
 4060W        W69221  43.899  25.276  11.475
 4061W        W69222  39.985  36.369   0.940
 4062W        W69223  32.376  43.439   3.131
 4063W        W69224  20.582  26.287   4.936
 4064W        W69225  38.979  18.098   1.885
 4065W        W69226  12.273  40.815   3.106
 4066W        W69227   2.456  28.920  14.006
 4067W        W69228  43.695  18.702  14.428
 4068W        W69229  14.745   9.626  12.065
 4069W        W69230  40.266   9.161  12.530
 4070W        W69231  41.065  17.242   2.775
 4071W        W69232  19.693  18.122   0.219
 4072W        W69233  36.794  29.919  14.740
 4073W        W69234  16.558  14.175  11.696
 4074W        W69235  14.906  11.787   2.993
 4075W        W69236  44.776  36.917  11.247
 4076W        W69237   5.280   3.843  12.560
 4077W        W69238   6.336  37.800   4.520
 4078W        W69239  29.528  36.874   3.482
 4079W        W69240   0.197  29.111   2.470
 4080W        W69241   0.789   8.757   2.826
 4081W        W69242  39.022  32.664   3.902
 4082W        W69243  44.043  34.135   3.782
 4083W        W69244  44.911  30.475   4.824
 4084W        W69245  36.551  44.617   1.864
 4085W        W69246  11.652   7.648   3.090
 4086W        W69247  13.662  32.400  13.085
 4087W        W69248  16.294   6.848   3.861
 4088W        W69249   9.236  30.991  12.151
 4089W        W69250  42.967  25.170  12.919
 4090W        W69251  12.797  36.835  14.356
 4091W        W69252  20.572  39.821   3.267
 4092W        W69253  24.485  31.393  13.980
 4093W        W69254  42.495  10.591  10.973
 4094W        W69255   3.336   9.590   1.263
 4095W        W69256  14.151  11.101   4.587
 4096W        W69257   7.141   1.805  11.669
 4097W        W69258  34.934   3.807  14.027
 4098W        W69259   6.862   5.589  12.000
 4099W        W69260  39.597  10.367  14.942
 4100W        W69261  12.288  29.030  10.645
 4101W        W69262  14.266  11.592  13.928
 4102W        W69263   5.439  12.599   1.611
 4103W        W69264  33.924  21.178  11.081
 4104W        W69265  27.133  25.393   4.536
 4105W        W69266   5.434  17.127  11.614
 4106W        W69267  35.991  20.360   0.587
 4107W        W69268  42.328  33.866  12.468
 4108W        W69269  24.696  12.487   0.273
 4109W        W69270   7.680  42.847   2.860
 4110W        W69271  23.049  11.662  13.922
 4111W        W69272  33.078  44.732   2.303
 4112W        W69273   6.669  12.142  11.416
 4113W        W69274  18.240  14.889   3.608
 4114W        W69275  32.589  26.184  13.286
 4115W        W69276  24.025  15.664  14.022
 4116W        W69277  24.476   4.658   2.081
 4117W        W69278  14.777  29.209   4.351
 4118W        W69279   6.704  44.087  11.746
 4119W        W69280  29.969  23.954  13.502
 4120W        W69281  11.811   6.201   2.273
 4121W        W69282  38.122  24.688   3.826
 4122W        W69283   3.206  36.078  10.968
 4123W        W69284  31.644  17.839  12.173
 4124W        W69285  14.894  23.659   3.836
 4125W        W69286  32.544  12.096  14.901
 4126W        W69287  40.425  36.307  14.270
 4127W        W69288  44.458   2.236  11.593
 4128W        W69289  24.038   3.236  10.232
 4129W        W69290  24.174  33.752   0.403
 4130W        W69291  31.224  15.840   5.076
 4131W        W69292   4.900  21.679  14.809
 4132W        W69293  43.821  38.066   2.284
 4133W        W69294  13.220  13.185  12.487
 4134W        W69295  33.928  32.983   1.434
 4135W        W69296  25.583  42.051  12.245
 4136W        W69297  22.560  27.908   5.057
 4137W        W69298  31.620  26.018  12.897
 4138W        W69299  42.441  15.122   4.059
 4139W        W69300  44.395  21.721  10.598
 4140W        W69301   1.664  43.396  10.748
 4141W        W69302  19.840  39.268   4.000
 4142W        W69303  15.114  21.727   1.027
 4143W        W69304  26.389  42.605  12.741
 4144W        W69305   6.526   4.660  13.505
 4145W        W69306  25.411  24.978   1.280
 4146W        W69307   7.256   7.664  12.829
 4147W        W69308  16.724  20.567  14.345
 4148W        W69309  21.312   0.534   2.628
 4149W        W69310  25.525   5.451   4.413
 4150W        W69311   0.153   3.949   3.142
 4151W        W69312   0.310  11.276  12.818
 4152W        W69313  16.060  35.946   3.239
 4153W        W69314   5.677  37.798  11.024
 4154W        W69315  35.371  28.636   1.585
 4155W        W69316  24.117  34.946  14.133
 4156W        W69317  14.089   3.357  11.085
 4157W        W69318  26.435  34.512   4.552
 4158W        W69319  16.629  23.674   0.659
 4159W        W69320  27.870  44.796   2.014
 4160W        W69321  23.726  23.871  11.789
 4161W        W69322   0.220  14.273  10.888
 4162W        W69323  31.176  39.480  12.241
 4163W        W69324   0.578   3.456   0.768
 4164W        W69325   3.124  14.326   3.825
 4165W        W69326   6.778  33.203   1.390
 4166W        W69327  29.922  27.384  14.449
 4167W        W69328  18.244   9.805   2.870
 4168W        W69329  20.201   3.670  13.038
 4169W        W69330   1.239  34.073  12.497
 4170W        W69331  21.660   2.313   0.704
 4171W        W69332  35.973  23.408  13.358
 4172W        W69333  23.654  32.493  13.055
 4173W        W69334   1.481  16.909   4.383
 4174W        W69335  12.114   7.187   3.625
 4175W        W69336   3.656  28.630   4.281
 4176W        W69337  20.176  43.090   9.588
 4177W        W69338  21.599  39.187  13.005
 4178W        W69339  28.243  18.635   0.832
 4179W        W69340   6.112  36.445   1.778
 4180W        W69341  20.182   9.766   1.384
 4181W        W69342  31.673   4.018   3.561
 4182W        W69343  11.670   5.219   0.019
 4183W        W69344  20.212  30.440  12.550
 4184W        W69345  14.421  41.759  12.347
 4185W        W69346  17.371  15.524   2.844
 4186W        W69347  37.701   4.329   2.742
 4187W        W69348   3.333   3.025   4.561
 4188W        W69349  43.445  42.958  10.949
 4189W        W69350  24.172  28.886   3.868
 4190W        W69351  18.146  10.374  11.725
 4191W        W69352   2.765  30.070   1.411
 4192W        W69353  23.643   0.334  14.196
 4193W        W69354  30.010   9.196   2.333
 4194W        W69355  20.242  28.227  11.149
 4195W        W69356  37.540   9.595  13.958
 4196W        W69357  32.428  21.576   1.271
 4197W        W69358   9.698  22.878  12.762
 4198W        W69359  30.694  43.093  14.980
 4199W        W69360  26.170   1.773  11.633
 4200W        W69361   6.250  21.757   2.291
 4201W        W69362  19.140  12.186   2.751
 4202W        W69363   3.878  27.738   2.163
 4203W        W69364  24.100  24.691   4.613
 4204W        W69365  30.713  10.639   1.833
 4205W        W69366  21.677   3.518   3.614
 4206W        W69367   3.319  28.466  11.620
 4207W        W69368  28.966  10.647  13.897
 4208W        W69369  33.679   7.804  13.766
 4209W        W69370  29.899   1.257  14.079
 4210W        W69371  13.210  16.496   0.323
 4211W        W69372  38.209   9.869  13.026
 4212W        W69373   1.172   2.596   2.389
 4213W        W69374  36.446  25.185   1.242
 4214W        W69375   4.888  12.229   3.734
 4215W        W69376   3.956  43.622   0.934
 4216W        W69377  29.768   3.188   1.738
 4217W        W69378   5.374  32.448  11.143
 4218W        W69379  14.504  10.713   2.825
 4219W        W69380  32.989  28.320   3.898
 4220W        W69381  25.254  44.323   4.350
 4221W        W69382  19.540  31.227  11.981
 4222W        W69383  40.962  30.653   4.057
 4223W        W69384  36.439  16.764   2.295
 4224W        W69385   8.073  23.144  10.635
 4225W        W69386  22.853  41.713  12.338
 4226W        W69387  26.526   6.483   2.313
 4227W        W69388  22.997  37.407  14.448
 4228W        W69389  12.076  19.685   0.330
 4229W        W69390  37.075  10.733  14.536
 4230W        W69391   1.353  10.532   4.338
 4231W        W69392  28.353  11.224   0.810
 4232W        W69393  23.792  34.035   4.274
 4233W        W69394  43.949  30.986   0.810
 4234W        W69395   9.335  24.701  11.890
 4235W        W69396   8.620   8.042   0.767
 4236W        W69397   1.740   7.197   0.865
 4237W        W69398  43.790  18.268  14.118
 4238W        W69399  32.746  16.187  12.938
 4239W        W69400  27.485  22.872   2.854
 4240W        W69401   6.227  41.967  13.939
 4241W        W69402  34.829  25.754  13.646
 4242W        W69403   9.001  28.591   0.260
 4243W        W69404   9.428  43.385  11.403
 4244W        W69405  35.451  12.749   4.637
 4245W        W69406  22.618   5.336   4.055
 4246W        W69407  21.089   4.562  14.468
 4247W        W69408  31.243   6.919  11.221
 4248W        W69409  24.296  25.466   4.998
 4249W        W69410  20.666   0.600   3.415
 4250W        W69411  41.061  25.657  14.178
 4251W        W69412   5.831  12.134  10.505
 4252W        W69413  43.499  42.930  12.955
 4253W        W69414  16.941  20.193  13.153
 4254W        W69415   4.890  23.463   1.805
 4255W        W69416  37.759  33.165  10.938
 4256W        W69417  44.644  18.367  14.399
 4257W        W69418  30.680  19.863   1.327
 4258W        W69419   9.693  40.884   1.337
 4259W        W69420  37.898  31.212   4.664
 4260W        W69421  20.685  35.836  10.721
 4261W        W69422  39.493   7.849   1.219
 4262W        W69423  19.632  26.717   1.385
 4263W        W69424   4.363  33.454  13.337
 4264W        W69425  18.465  25.186   1.682
 4265W        W69426   2.779  24.581   1.368
 4266W        W69427  21.983   1.390  13.621
 4267W        W69428  38.225  13.238  11.870
 4268W        W69429  19.360  42.085  11.704
 4269W        W69430   3.770  32.661   4.552
 4270W        W69431  39.111   6.592   9.827
 4271W        W69432  34.193  24.421   3.238
 4272W        W69433  26.899   3.695   4.072
 4273W        W69434   6.879   5.732   3.393
 4274W        W69435   3.464  39.460   2.236
 4275W        W69436  23.557  20.547   0.862
 4276W        W69437  41.527   8.160   1.738
 4277W        W69438  22.800  25.150   4.518
 4278W        W69439  38.966  33.140  14.781
 4279W        W69440   5.548  12.388   2.931
 4280W        W69441   7.576  23.083   4.613
 4281W        W69442   1.952  12.825  10.922
 4282W        W69443  14.587  21.507  14.780
 4283W        W69444  36.371  38.980  13.905
 4284W        W69445  23.522  44.537  10.518
 4285W        W69446  18.705  34.004   1.325
 4286W        W69447  19.074  32.959   1.386
 4287W        W69448  34.138  42.309  14.225
 4288W        W69449  25.818  43.736   0.316
 4289W        W69450  31.419  37.302  14.349
 4290W        W69451  32.926   9.258   3.524
 4291W        W69452  24.970   9.485   5.369
 4292W        W69453  38.551  25.256  12.512
 4293W        W69454  17.092  25.093  11.912
 4294W        W69455  29.347   3.493   1.258
 4295W        W69456  23.579  22.970  11.349
 4296W        W69457   8.333  12.285  12.442
 4297W        W69458  17.037  39.106   1.793
 4298W        W69459   8.770   1.356  13.316
 4299W        W69460  32.639  21.055  13.852
 4300W        W69461  38.517  30.599   3.799
 4301W        W69462  42.097  34.889  12.563
 4302W        W69463  43.356   4.759  14.853
 4303W        W69464  41.265  11.602  11.085
 4304W        W69465  38.208  37.845   4.246
 4305W        W69466   8.158  34.887   0.417
 4306W        W69467  41.025  35.561  10.738
 4307W        W69468  15.786   0.872  14.547
 4308W        W69469   4.822  23.244  11.127
 4309W        W69470  37.392  29.152  12.936
 4310W        W69471   6.376  30.978   1.291
 4311W        W69472  41.856  18.626  11.421
 4312W        W69473  29.403  37.247  13.105
 4313W        W69474  24.161  26.732  10.755
 4314W        W69475  30.007  18.128   0.881
 4315W        W69476  40.654  10.361  11.478
 4316W        W69477   6.799  19.472   0.086
 4317W        W69478  12.442  20.245   4.148
 4318W        W69479  31.435  17.281   3.373
 4319W        W69480  24.533   0.367   2.387
 4320W        W69481  33.910  17.134   1.874
 4321W        W69482  11.233  26.646   2.899
 4322W        W69483  25.717   6.969  12.839
 4323W        W69484   9.185  10.286   2.422
 4324W        W69485  11.398  28.440  11.154
 4325W        W69486  24.412   6.426   1.694
 4326W        W69487   6.473  41.795   1.683
 4327W        W69488  11.542   3.832   0.563
 4328W        W69489  44.376  29.206   3.681
 4329W        W69490  16.581   6.669  12.451
 4330W        W69491  32.206  25.860   0.805
 4331W        W69492   4.660  21.843  14.361
 4332W        W69493  42.784  22.097   4.452
 4333W        W69494   4.463  18.155  11.251
 4334W        W69495   6.525  28.856   0.941
 4335W        W69496   4.772  20.726   2.765
 4336W        W69497  38.635  40.436  13.898
 4337W        W69498  23.016  26.913   2.281
 4338W        W69499  43.346  28.433   0.987
 4339W        W69500  16.523  19.523   2.366
 4340W        W69501   3.224  21.668   3.220
 4341W        W69502   7.711  43.272   3.370
 4342W        W69503  13.447  10.811  12.011
 4343W        W69504   8.992  27.656  10.282
 4344W        W69505  37.420  37.643   0.973
 4345W        W69506  38.927   7.848   4.079
 4346W        W69507  44.181  23.651  11.136
 4347W        W69508  31.118  12.882  11.382
 4348W        W69509  10.285  19.873  10.344
 4349W        W69510  37.434  35.366   3.414
 4350W        W69511  15.076   2.816   3.389
 4351W        W69512  34.187  40.792   3.142
 4352W        W69513  29.666  41.582  13.651
 4353W        W69514  36.593  38.046   4.715
 4354W        W69515  32.832   4.174  13.847
 4355W        W69516  37.292  16.115  11.982
 4356W        W69517  32.641  39.014  13.117
 4357W        W69518  44.557  14.170  10.754
 4358W        W69519  27.592  10.329   0.683
 4359W        W69520  10.110  21.069   2.434
 4360W        W69521  33.767  37.531  10.286
 4361W        W69522  37.952   6.100   2.111
 4362W        W69523  44.304   3.589   4.252
 4363W        W69524  34.070  41.428   0.363
 4364W        W69525  44.896  34.570   5.200
 4365W        W69526  27.275  11.181   2.630
 4366W        W69527  25.159  40.544  10.327
 4367W        W69528  16.809  21.287   2.756
 4368W        W69529  24.253   2.174   4.054
 4369W        W69530  22.885  13.412  12.559
 4370W        W69531  43.928  21.169  12.647
 4371W        W69532   5.608   1.741   3.839
 4372W        W69533  17.766   5.410  13.161
 4373W        W69534  33.503  25.709  10.439
 4374W        W69535   3.729  37.513  13.006
 4375W        W69536  29.870  17.218   1.253
 4376W        W69537  31.506  36.585   3.737
 4377W        W69538  40.575  32.800   5.073
 4378W        W69539  30.063  25.735   3.461
 4379W        W69540  26.606  22.152  11.486
 4380W        W69541  22.215  41.656  13.366
 4381W        W69542  28.058  23.723   0.338
 4382W        W69543  43.574  34.303   0.369
 4383W        W69544  29.019  36.837   0.734
 4384W        W69545  34.915  29.614   3.769
 4385W        W69546  44.010   9.386   4.734
 4386W        W69547  34.681  10.732   4.565
 4387W        W69548  22.296  23.731  13.097
 4388W        W69549  28.483  28.262  13.912
 4389W        W69550  35.285  16.229  10.961
 4390W        W69551  40.332   5.828   3.385
 4391W        W69552  41.672  32.165   3.803
 4392W        W69553  34.966  25.640  12.622
 4393W        W69554   2.455   9.313  13.281
 4394W        W69555   3.907  41.049  14.735
 4395W        W69556  44.490  26.004  11.024
 4396W        W69557  30.560   0.520   0.809
 4397W        W69558   1.633   2.303   3.291
 4398W        W69559   1.843  14.717  12.609
 4399W        W69560  22.776  30.958   1.201
 4400W        W69561   1.792  21.624  12.430
 4401W        W69562  23.082  28.192   0.450
 4402W        W69563  28.184  37.415   3.403
 4403W        W69564  30.593  25.994  12.968
 4404W        W69565  30.678  22.251   9.811
 4405W        W69566  40.514  38.150   1.141
 4406W        W69567  18.532   9.619   3.581
 4407W        W69568  28.230  11.853   3.366
 4408W        W69569  11.331  30.607   2.754
 4409W        W69570  36.012  22.360   2.499
 4410W        W69571  20.774  13.304  14.434
 4411W        W69572   9.396  31.497  12.106
 4412W        W69573   4.329  29.428  11.410
 4413W        W69574  38.606   5.356   3.696
 4414W        W69575  10.268   8.137   4.719
 4415W        W69576  36.410   9.940  14.296
 4416W        W69577  25.034  32.896   4.617
 4417W        W69578  37.297  37.622  11.534
 4418W        W69579  17.559  19.288  14.050
 4419W        W69580  16.569  33.469   0.609
 4420W        W69581   1.207  35.328   0.472
 4421W        W69582  39.766  15.937   1.479
 4422W        W69583   3.987  24.592  14.666
 4423W        W69584  35.454   5.743   2.892
 4424W        W69585   3.918  33.628  14.349
 4425W        W69586  44.447   2.318  14.895
 4426W        W69587  12.817  12.426  12.555
 4427W        W69588  22.758  20.698   2.182
 4428W        W69589  43.024  12.391  11.147
 4429W        W69590  21.899   4.285  13.864
 4430W        W69591   9.567  14.179  11.605
 4431W        W69592  35.975  39.535   0.402
 4432W        W69593  40.235  15.382  10.412
 4433W        W69594  44.537  44.212   4.244
 4434W        W69595  35.867  29.469  12.315
 4435W        W69596  42.332  19.045   2.268
 4436W        W69597  19.000  16.580  14.990
 4437W        W69598   8.284   1.256   0.357
 4438W        W69599  18.766  22.228   0.470
 4439W        W69600   1.744  29.654   0.772
 4440W        W69601  27.574  16.402   3.359
 4441W        W69602   3.043   3.553  14.316
 4442W        W69603  17.803   0.963   3.191
 4443W        W69604   1.226  26.388  11.095
 4444W        W69605  31.705  25.912   4.577
 4445W        W69606  35.925  18.809   1.830
 4446W        W69607  27.208  42.531  14.463
 4447W        W69608  14.823  41.977  14.276
 4448W        W69609   5.427  10.816   3.655
 4449W        W69610  39.392   0.525  14.945
 4450W        W69611  25.698  38.396  11.593
 4451W        W69612   1.877  10.422  12.892
 4452W        W69613  19.578  41.733   3.988
 4453W        W69614  24.894  38.801   1.141
 4454W        W69615   3.826  10.409   1.631
 4455W        W69616  30.687  37.141  12.027
 4456W        W69617  19.013   7.190   1.746
 4457W        W69618  26.615  30.213  13.043
 4458W        W69619  39.304  24.645   4.850
 4459W        W69620  37.542  24.539   4.622
 4460W        W69621  20.111  34.504   0.444
 4461W        W69622  42.541  10.063   2.797
 4462W        W69623  11.204  42.511   2.844
 4463W        W69624   6.960  31.628  12.720
 4464W        W69625   8.333  16.147   0.320
 4465W        W69626   3.109  41.405   2.882
 4466W        W69627  39.841  13.254  12.512
 4467W        W69628   7.940  13.915  11.142
 4468W        W69629  17.722  32.581   3.602
 4469W        W69630   7.954  19.127   1.982
 4470W        W69631   5.740  44.961  12.068
 4471W        W69632  18.618  17.536   3.448
 4472W        W69633  29.507  20.563  14.097
 4473W        W69634  13.546  43.161  10.117
 4474W        W69635  43.303  43.894   4.486
 4475W        W69636  38.994  35.973  10.778
 4476W        W69637   4.399  31.634   4.612
 4477W        W69638   8.285  41.386  10.710
 4478W        W69639  34.819   3.539   2.619
 4479W        W69640  34.515  24.199  13.976
 4480W        W69641  19.101  37.594   0.081
 4481W        W69642   1.635  31.699  12.898
 4482W        W69643  28.234  40.369   2.342
 4483W        W69644  29.487  38.764  14.632
 4484W        W69645  31.398   1.465  14.966
 4485W        W69646  28.153  21.691   2.620
 4486W        W69647   3.407  11.224   3.360
 4487W        W69648   6.480  25.245  14.730
 4488W        W69649  15.317  37.947   4.174
 4489W        W69650  35.555  12.162  13.076
 4490W        W69651   7.608  12.694  14.896
 4491W        W69652  27.208  22.229   3.868
 4492W        W69653  15.295  23.986  14.550
 4493W        W69654  18.827  27.234  12.932
 4494W        W69655  20.845  19.143   3.097
 4495W        W69656  25.710  43.648   4.060
 4496W        W69657  31.943   5.180  12.480
 4497W        W69658  35.635   1.337  11.391
 4498W        W69659   0.032  17.676   4.907
 4499W        W69660  18.726  36.957   4.302
 4500W        W69661  38.125   8.497  12.063
 4501W        W69662  37.450  25.058   4.611
 4502W        W69663  19.568  36.308   1.394
 4503W        W69664  42.134   0.897  13.402
 4504W        W69665   2.325  39.519   3.510
 4505W        W69666  34.351   7.508   4.755
 4506W        W69667   9.869  18.070   1.727
 4507W        W69668  28.887  11.920   5.095
 4508W        W69669   8.027   4.803   1.683
 4509W        W69670  34.812   5.419  11.395
 4510W        W69671  19.583   8.431   3.533
 4511W        W69672  31.701   1.351  13.459
 4512W        W69673  21.216  11.578  11.156
 4513W        W69674  37.732  19.017  13.488
 4514W        W69675   3.933   0.707  14.072
 4515W        W69676  22.232  26.158  14.059
 4516W        W69677  35.266  42.981  14.381
 4517W        W69678  19.142  39.772  13.804
 4518W        W69679  30.734   2.473   3.685
 4519W        W69680   1.962  37.351   0.879
 4520W        W69681  36.838  13.746   0.357
 4521W        W69682  40.977   9.364   1.789
 4522W        W69683   9.039   6.373  11.536
 4523W        W69684  16.332   0.166   2.491
 4524W        W69685  15.073  18.044   3.957
 4525W        W69686  28.749  39.046  11.588
 4526W        W69687  25.983  32.938   2.338
 4527W        W69688   5.175  20.737  11.886
 4528W        W69689  26.217  20.726   0.776
 4529W        W69690  38.485  17.532   1.331
 4530W        W69691  15.689  18.501  13.466
 4531W        W69692  16.546   5.321  10.949
 4532W        W69693  16.886  21.590   1.249
 4533W        W69694  37.469  41.070   0.283
 4534W        W69695  37.025  18.017  14.751
 4535W        W69696   0.949  15.774   3.716
 4536W        W69697  36.639  43.762   2.831
 4537W        W69698  15.782  27.259   3.365
 4538W        W69699  16.232  38.955   0.425
 4539W        W69700  10.292  24.754  11.928
 4540W        W69701  11.316  24.483   3.411
 4541W        W69702  11.720  39.743  11.643
 4542W        W69703  20.716   9.027   2.308
 4543W        W69704  10.346  29.356  11.366
 4544W        W69705   2.699  18.379   4.498
 4545W        W69706  44.325  23.562  10.062
 4546W        W69707  26.688  40.519  11.774
 4547W        W69708  20.097  13.633  12.102
 4548W        W69709  36.860   9.806   1.847
 4549W        W69710   7.826  19.085   4.132
 4550W        W69711  22.899  34.900   0.300
 4551W        W69712   9.454  10.180   3.794
 4552W        W69713   6.333  11.341   2.288
 4553W        W69714  43.697  27.509  13.529
 4554W        W69715  25.876   3.227   1.448
 4555W        W69716   3.211  36.450   1.583
 4556W        W69717  16.776  24.350   0.396
 4557W        W69718   0.169  34.693  11.052
 4558W        W69719  36.514  27.864   1.487
 4559W        W69720  29.448   2.022  14.003
 4560W        W69721   1.325   3.683  14.984
 4561W        W69722   5.396  24.501  11.411
 4562W        W69723   8.200  29.290  10.923
 4563W        W69724   3.237   8.949   2.704
 4564W        W69725  33.564   5.687  13.417
 4565W        W69726  31.969   9.899   2.940
 4566W        W69727  29.963  18.482   4.086
 4567W        W69728   8.790  18.908  11.655
 4568W        W69729  35.688  32.889  13.271
 4569W        W69730  36.819  23.386  13.087
 4570W        W69731  22.485  31.977  14.418
 4571W        W69732  14.346  35.163  11.551
 4572W        W69733  11.223   4.546  10.508
 4573W        W69734   4.850   2.720  11.796
 4574W        W69735  43.206  20.651   3.827
 4575W        W69736  31.095   0.928   4.701
 4576W        W69737  39.342  20.528   3.896
 4577W        W69738  39.130  15.825  11.141
 4578W        W69739  10.760  30.417  11.412
 4579W        W69740  44.857  44.464  10.670
 4580W        W69741  38.774  12.682  12.753
 4581W        W69742  34.987   8.875  11.074
 4582W        W69743  29.220   8.245  11.147
 4583W        W69744  44.692  41.463   4.723
 4584W        W69745   0.342  35.777   3.069
 4585W        W69746  13.847  16.509  12.053
 4586W        W69747   6.123  19.420   1.629
 4587W        W69748   9.343   4.112   1.488
 4588W        W69749  40.242  17.820  14.837
 4589W        W69750  29.535  16.730   5.073
 4590W        W69751  15.328  30.925   3.290
 4591W        W69752  35.427   3.464   4.719
 4592W        W69753  23.766  29.359  11.677
 4593W        W69754  39.352  11.214   3.332
 4594W        W69755   8.211  12.342   4.066
 4595W        W69756  37.933  35.436  13.096
 4596W        W69757   4.761  27.107  13.003
 4597W        W69758   4.744  43.215  14.652
 4598W        W69759  12.290   0.008  13.834
 4599W        W69760  11.609  25.133   0.215
 4600W        W69761  16.975  13.860  11.522
 4601W        W69762  17.900  32.408  13.979
 4602W        W69763  41.639  36.315  11.729
 4603W        W69764   3.806  13.862   5.356
 4604W        W69765  29.815  16.223  13.030
 4605W        W69766  33.051   6.484   2.124
 4606W        W69767  18.640  23.821  14.748
 4607W        W69768  24.573  13.616   1.944
 4608W        W69769  18.485   2.994  14.609
 4609W        W69770   1.021   6.181  10.392
 4610W        W69771  33.505   0.020   2.289
 4611W        W69772  32.916  15.650  10.705
 4612W        W69773  20.232   4.374  11.721
 4613W        W69774  26.868  12.917   3.154
 4614W        W69775  43.503  36.460  11.766
 4615W        W69776  11.135  22.074   0.794
 4616W        W69777  42.019  30.200   0.448
 4617W        W69778  15.177  12.446  12.835
 4618W        W69779  26.634   8.128   4.972
 4619W        W69780  38.539  21.927  14.887
 4620W        W69781  31.662  14.781  11.601
 4621W        W69782  21.601  39.626  13.942
 4622W        W69783  20.500  43.858   1.422
 4623W        W69784   8.502   4.594  11.652
 4624W        W69785  20.131  19.133  13.939
 4625W        W69786  25.104  21.360  11.749
 4626W        W69787  30.457  32.999   0.027
 4627W        W69788  25.032   5.261   4.529
 4628W        W69789   8.983  23.314  12.444
 4629W        W69790  14.126  37.296  13.068
 4630W        W69791  21.682  43.085  10.754
 4631W        W69792  18.472  15.812   0.936
 4632W        W69793  27.505   8.571   4.962
 4633W        W69794  40.486  41.201  10.294
 4634W        W69795  12.268  17.560  10.804
 4635W        W69796  18.480  26.694  10.914
 4636W        W69797  31.627  13.937   0.892
 4637W        W69798  16.914   7.876  11.670
 4638W        W69799   6.746  20.351   3.627
 4639W        W69800  26.562   4.266  10.828
 4640W        W69801  31.895  42.282  12.500
 4641W        W69802  31.465  17.995  14.341
 4642W        W69803  39.087  23.427   4.246
 4643W        W69804  33.121  11.780  10.395
 4644W        W69805  40.249   6.494   0.022
 4645W        W69806  36.776  20.142  11.534
 4646W        W69807  28.070  34.579  13.988
 4647W        W69808  32.932  23.710  11.661
 4648W        W69809  13.759  16.943  11.027
 4649W        W69810  29.595  21.760  14.852
 4650W        W69811  24.776  12.722  14.155
 4651W        W69812   3.809  23.578  13.283
 4652W        W69813  18.485  28.992   4.021
 4653W        W69814  27.343  26.963   1.821
 4654W        W69815  19.766  21.357  14.100
 4655W        W69816  22.580  20.404   5.014
 4656W        W69817   7.728  27.776   1.166
 4657W        W69818  21.275  21.712   2.125
 4658W        W69819  42.498  38.454   2.706
 4659W        W69820  26.671  27.985   2.246
 4660W        W69821  31.036  42.074  13.491
 4661W        W69822  25.815  19.920   4.938
 4662W        W69823  27.452  29.600   2.485
 4663W        W69824  41.907  24.969   2.871
 4664W        W69825  37.613  27.035  13.870
 4665W        W69826   3.055  44.484   0.294
 4666W        W69827  43.893  32.044  12.027
 4667W        W69828  30.971  21.232  12.985
 4668W        W69829   1.919  10.841   4.228
 4669W        W69830  15.228  35.600   2.411
 4670W        W69831  11.022  41.023  10.730
 4671W        W69832  43.514  12.172   2.931
 4672W        W69833  38.002  27.900  10.898
 4673W        W69834   2.512   8.315   1.348
 4674W        W69835  39.431   4.982   3.653
 4675W        W69836  37.954  42.848   3.193
 4676W        W69837  25.802  18.150   3.251
 4677W        W69838  15.082  20.180   2.305
 4678W        W69839   9.447  33.075   4.311
 4679W        W69840  13.350  31.860  11.097
 4680W        W69841  12.726  21.672   1.221
 4681W        W69842  42.041  32.957   2.904
 4682W        W69843  42.257  44.876  10.747
 4683W        W69844  18.423  16.291   1.704
 4684W        W69845   6.794   7.480  13.006
 4685W        W69846   3.569  11.715   2.609
 4686W        W69847  30.968  17.732   4.864
 4687W        W69848   4.140   8.326   0.321
 4688W        W69849  10.363  15.629   0.910
 4689W        W69850  36.405  36.129  14.503
 4690W        W69851   2.779  30.393  10.565
 4691W        W69852  37.192   8.850   5.073
 4692W        W69853  28.994  14.769  11.545
 4693W        W69854  33.399  19.538   1.075
 4694W        W69855  20.513  37.009  13.094
 4695W        W69856   0.486  30.579   3.200
 4696W        W69857  27.234  19.834   1.899
 4697W        W69858   4.351   2.711  10.684
 4698W        W69859  19.054  33.466  11.544
 4699W        W69860  22.954  13.037   2.400
 4700W        W69861  14.629  35.130  13.825
 4701W        W69862   5.671  10.769  11.528
 4702W        W69863  24.250  27.482   0.830
 4703W        W69864  35.717  29.151   0.200
 4704W        W69865  19.074  22.346  13.594
 4705W        W69866  11.460  32.511  10.640
 4706W        W69867  25.715  14.858  13.445
 4707W        W69868  18.764  44.573  10.510
 4708W        W69869  39.464   3.429   2.211
 4709W        W69870  43.811  31.187   1.797
 4710W        W69871  21.704   7.684   0.872
 4711W        W69872  24.606  44.533  13.631
 4712W        W69873  41.853  32.180  12.771
 4713W        W69874  22.035  17.228  12.112
 4714W        W69875  41.995   8.429   2.741
 4715W        W69876   5.817   2.722  10.673
 4716W        W69877  33.641  28.558   4.640
 4717W        W69878  35.918  38.942  13.483
 4718W        W69879  28.201   9.629  13.997
 4719W        W69880  21.087   5.624   3.508
 4720W        W69881  30.568  38.325  12.505
 4721W        W69882  21.690  16.540  14.487
 4722W        W69883  24.670  24.088  13.847
 4723W        W69884   2.401  21.271  10.193
 4724W        W69885  27.870  27.249   2.620
 4725W        W69886  39.822  28.170   2.651
 4726W        W69887  24.150  20.738   0.034
 4727W        W69888   3.973  38.381  13.065
 4728W        W69889  35.077  22.063  12.122
 4729W        W69890  23.957  18.038  10.657
 4730W        W69891   0.368  13.153   2.682
 4731W        W69892  26.983  25.644   1.406
 4732W        W69893  43.902  39.579  12.964
 4733W        W69894  16.191  20.008  11.497
 4734W        W69895  36.319  14.770  14.065
 4735W        W69896  11.252  30.193  11.129
 4736W        W69897  10.435  39.780  11.295
 4737W        W69898  10.156   8.171   1.804
 4738W        W69899  12.281  22.182   2.162
 4739W        W69900  13.323  17.559  12.385
 4740W        W69901   4.754  20.088  10.854
 4741W        W69902  34.874  41.102  12.414
 4742W        W69903  18.613  18.233  13.395
 4743W        W69904  31.883   3.769  12.341
 4744W        W69905  18.147  23.232   1.433
 4745W        W69906  25.900  36.652  11.500
 4746W        W69907  10.661  11.436  14.558
 4747W        W69908  38.918  34.093  13.812
 4748W        W69909   3.368  22.949  11.915
 4749W        W69910  22.843  33.985  14.855
 4750W        W69911  31.949  18.389   1.262
 4751W        W69912  13.477  30.557   0.535
 4752W        W69913  29.148  32.177  11.984
 4753W        W69914  39.645   4.376  11.627
 4754W        W69915  33.784  43.329  14.898
 4755W        W69916  27.569  32.639   3.627
 4756W        W69917  22.476  40.534   0.850
 4757W        W69918  15.858  28.912  14.924
 4758W        W69919  43.452  27.663  14.922
 4759W        W69920  30.929  36.380  13.341
 4760W        W69921   8.387  36.175  13.512
 4761W        W69922   5.541  41.518  13.076
 4762W        W69923   8.686   2.756  12.367
 4763W        W69924  40.376   9.845   4.172
 4764W        W69925  36.997  43.085   4.461
 4765W        W69926  41.974  14.413  14.989
 4766W        W69927  24.545  15.618   4.891
 4767W        W69928   5.269   4.729   3.384
 4768W        W69929  24.565  37.091   2.330
 4769W        W69930  37.430  25.531   3.037
 4770W        W69931  24.028  33.185   1.553
 4771W        W69932  31.122  18.704   2.053
 4772W        W69933  19.118  18.239  12.677
 4773W        W69934  16.995  17.135   4.930
 4774W        W69935   4.420   0.144   4.355
 4775W        W69936   7.816  25.532   1.508
 4776W        W69937  20.720  44.317   1.419
 4777W        W69938  34.155  12.836   4.060
 4778W        W69939  42.357  43.301   1.606
 4779W        W69940  37.433   9.684   1.400
 4780W        W69941  12.162  17.377   4.016
 4781W        W69942  21.203  32.346  14.624
 4782W        W69943  14.592  39.351   5.594
 4783W        W69944  12.196  22.431   3.866
 4784W        W69945  22.186  23.601   1.284
 4785W        W69946  27.368  24.122  12.429
 4786W        W69947  40.506  19.765   2.686
 4787W        W69948   1.838  43.027   4.318
 4788W        W69949  42.453  36.072  13.527
 4789W        W69950  34.844  39.529   2.316
 4790W        W69951  11.239  38.878  11.587
 4791W        W69952  15.715  35.863   4.879
 4792W        W69953   5.889  39.089  12.647
 4793W        W69954  21.980  27.064   0.802
 4794W        W69955   1.422  25.486   0.209
 4795W        W69956  13.823  39.479  14.481
 4796W        W69957  31.415  17.451  14.388
 4797W        W69958  32.582  38.223  14.498
 4798W        W69959  37.323  20.080   2.888
 4799W        W69960  28.514  22.662   1.390
 4800W        W69961  41.910  43.207   1.859
 4801W        W69962  27.591  40.990   2.753
 4802W        W69963  11.581  22.222   1.007
 4803W        W69964  40.293   5.450   4.133
 4804W        W69965  28.981  41.996   0.336
 4805W        W69966  22.312   5.810   0.866
 4806W        W69967  27.257  23.495  14.719
 4807W        W69968  25.277  42.455  13.872
 4808W        W69969  15.648  11.677   1.469
 4809W        W69970   7.586  29.051  14.499
 4810W        W69971  10.317  28.255   4.189
 4811W        W69972   8.362  43.377  11.522
 4812W        W69973  34.436  13.762   2.354
 4813W        W69974   5.302   5.636   2.478
 4814W        W69975  35.803  19.405   4.772
 4815W        W69976  20.057  25.238  12.608
 4816W        W69977  42.881   4.959  14.818
 4817W        W69978  40.508  21.771   0.809
 4818W        W69979  40.842  34.367  14.816
 4819W        W69980  24.474  10.931   2.660
 4820W        W69981   1.662  29.724  11.643
 4821W        W69982  11.262   1.926  13.882
 4822W        W69983  43.322  27.035  10.865
 4823W        W69984  29.594  24.506  14.369
 4824W        W69985  23.423   6.368  11.437
 4825W        W69986  21.308   0.314   3.101
 4826W        W69987  39.367  33.025   2.721
 4827W        W69988  16.721  42.846  12.938
 4828W        W69989   3.708   6.451   0.905
 4829W        W69990   3.020   4.123  11.588
 4830W        W69991  35.648  35.297  13.901
 4831W        W69992  35.610  16.272   0.347
 4832W        W69993   4.346  10.776   3.252
 4833W        W69994   4.545  27.423   9.810
 4834W        W69995  37.811  38.763  13.051
 4835W        W69996   1.434  14.281   3.658
 4836W        W69997  17.562  26.046  13.435
 4837W        W69998  19.019  11.472   1.393
 4838W        W69999  36.663   5.283   3.709
 4839W        W70000  29.165  38.860   0.898
 4840W        W70001  32.730  20.743   0.917
 4841W        W70002  13.643  10.657   2.697
 4842W        W70003  18.001  26.700   3.668
 4843W        W70004  24.416  32.895  13.153
 4844W        W70005  18.033  42.975   4.356
 4845W        W70006  30.458  28.770  13.959
 4846W        W70007   7.652   4.337   1.858
 4847W        W70008  18.252  32.946  12.813
 4848W        W70009  22.615  32.694  12.064
 4849W        W70010  35.680  10.785  14.709
 4850W        W70011  27.221   5.076  10.319
 4851W        W70012  26.842  40.396  14.439
 4852W        W70013  11.918   5.985   4.125
 4853W        W70014  23.422   9.955   4.057
 4854W        W70015  16.110   6.846  13.508
 4855W        W70016  20.814  15.696   4.658
 4856W        W70017  25.600  12.911  14.970
 4857W        W70018  34.443   1.649  10.653
 4858W        W70019   9.812  13.462  14.991
 4859W        W70020  16.271  20.584  12.011
 4860W        W70021  28.160  30.119   4.518
 4861W        W70022  40.972   5.500   4.883
 4862W        W70023  16.040  28.964  10.616
 4863W        W70024   0.392   5.742   1.418
 4864W        W70025  24.767   0.292  10.722
 4865W        W70026  39.967   3.499   1.310
 4866W        W70027  32.305  34.445  10.883
 4867W        W70028   7.456  36.060   0.946
 4868W        W70029   2.224  12.748  12.067
 4869W        W70030  14.714  32.050   3.356
 4870W        W70031  32.192  32.926  10.753
 4871W        W70032  19.569  42.791   4.026
 4872W        W70033  16.596   0.039   5.328
 4873W        W70034  36.852  19.067   1.505
 4874W        W70035  44.976   0.586  12.044
 4875W        W70036  13.957   9.294  12.017
 4876W        W70037  38.960   4.274   3.295
 4877W        W70038  38.319  20.584   1.450
 4878W        W70039  44.370   9.896  14.482
 4879W        W70040  36.877  44.827   2.264
 4880W        W70041  31.485  37.271   3.259
 4881W        W70042  43.503   3.910  10.536
 4882W        W70043  44.913   9.929  10.493
 4883W        W70044  32.513  28.759  13.942
 4884W        W70045   7.896  18.062   3.250
 4885W        W70046   1.929  11.075   1.835
 4886W        W70047  41.823  13.651   2.481
 4887W        W70048  27.209  27.109  14.180
 4888W        W70049  10.968  12.535   3.180
 4889W        W70050   3.489  30.902  12.890
 4890W        W70051  40.830   4.941   3.040
 4891W        W70052  18.299  13.523   1.786
 4892W        W70053   5.291   6.728  11.198
 4893W        W70054   5.185  31.117   0.712
 4894W        W70055  17.399  41.743  14.973
 4895W        W70056   5.711  33.918  13.139
 4896W        W70057  35.045  27.547   0.809
 4897W        W70058  43.922  22.445  10.767
 4898W        W70059  18.424  31.329  13.351
 4899W        W70060  21.663  19.184   1.913
 4900W        W70061   1.463  32.014   2.645
 4901W        W70062   8.886  11.911  14.501
 4902W        W70063   4.240   4.338   0.158
 4903W        W70064   3.621   8.205   0.483
 4904W        W70065  31.403  42.059   4.104
 4905W        W70066   8.767   0.018   3.786
 4906W        W70067  44.475  34.976   3.237
 4907W        W70068   5.364   5.955  10.765
 4908W        W70069   0.224  16.628  14.425
 4909W        W70070  30.413  23.863  12.898
 4910W        W70071  15.677  41.783   1.516
 4911W        W70072  30.463  13.618  13.021
 4912W        W70073  41.213  10.821  13.807
 4913W        W70074  32.040  35.299  12.079
 4914W        W70075   8.365  11.534  13.402
 4915W        W70076  29.338  36.587  11.150
 4916W        W70077   0.810  25.297   3.656
 4917W        W70078  13.311  35.452   2.153
 4918W        W70079  34.429   9.230  13.112
 4919W        W70080   7.431  41.190  11.708
 4920W        W70081   2.024  15.994  10.569
 4921W        W70082  28.238  10.153  12.550
 4922W        W70083  29.585  29.515   3.699
 4923W        W70084  22.879  41.457  14.504
 4924W        W70085  26.918  22.180  10.570
 4925W        W70086  27.068  19.387  10.639
 4926W        W70087  43.344  14.744  13.281
 4927W        W70088  33.994  40.754  10.754
 4928W        W70089  22.807  22.416   2.921
 4929W        W70090  10.211   0.822   3.063
 4930W        W70091  10.088  26.994  14.990
 4931W        W70092  22.333  33.486  13.868
 4932W        W70093  40.952  11.714   3.078
 4933W        W70094  41.847  30.077  11.951
 4934W        W70095  26.248  30.758   2.014
 4935W        W70096  37.733  11.929  13.609
 4936W        W70097  39.570   6.106  11.102
 4937W        W70098   8.322  23.020  13.937
 4938W        W70099  27.148  28.472   3.574
 4939W        W70100  19.203   6.955   3.569
 4940W        W70101  33.470  14.827   3.599
 4941W        W70102  36.587  25.258  12.628
 4942W        W70103  35.310  15.712   4.568
 4943W        W70104  16.988  22.698   3.642
 4944W        W70105  16.121  33.930   1.209
 4945W        W70106  33.930   2.896   1.413
 4946W        W70107   5.284  21.126  13.030
 4947W        W70108  16.181  18.085   5.015
 4948W        W70109  37.382  26.540   2.839
 4949W        W70110  28.197   0.756   3.111
 4950W        W70111   5.761  31.524  13.936
 4951W        W70112  18.042  35.426   1.503
 4952W        W70113  31.213  32.175   2.143
 4953W        W70114  36.568  41.282   3.660
 4954W        W70115  32.254  27.459   0.185
 4955W        W70116  28.024   4.918   2.803
 4956W        W70117  41.470  20.754  13.755
 4957W        W70118   3.183  18.717  11.912
 4958W        W70119   7.708   9.148  10.897
 4959W        W70120   1.230   2.485  13.080
 4960W        W70121   4.642  21.619   2.041
 4961W        W70122  17.568  29.689  11.521
 4962W        W70123  26.402  32.278  13.666
 4963W        W70124  42.479  32.152   4.217
 4964W        W70125  24.976  34.506  11.689
 4965W        W70126  35.538   0.664  13.571
 4966W        W70127  26.794  42.745   1.910
 4967W        W70128   0.382  17.050   2.841
 4968W        W70129   4.880  28.812  13.945
 4969W        W70130  36.110  38.953  14.357
 4970W        W70131   5.381   5.777   0.353
 4971W        W70132  13.451  44.911   4.519
 4972W        W70133  29.389   5.158   3.596
 4973W        W70134   8.821  27.246  13.397
 4974W        W70135  33.073  30.869  13.500
 4975W        W70136  38.584  21.274   2.693
 4976W        W70137  36.831  15.774   2.640
 4977W        W70138  14.391  29.634   1.887
 4978W        W70139  30.428   7.258  14.366
 4979W        W70140  11.666  31.841  13.370
 4980W        W70141  34.087  40.886   1.418
 4981W        W70142  40.025  33.032   3.741
 4982W        W70143  35.484  21.423  12.583
 4983W        W70144  18.774   7.705   2.857
 4984W        W70145   0.173  29.187  11.121
 4985W        W70146  31.030  18.219   2.249
 4986W        W70147   4.672  19.214   4.645
 4987W        W70148   5.573  20.544   3.770
 4988W        W70149   0.733   8.172   3.654
 4989W        W70150  35.572  20.187  12.027
 4990W        W70151  13.859   9.847   4.121
 4991W        W70152  31.079  20.179  12.114
 4992W        W70153  17.689  32.267   4.097
 4993W        W70154  14.479  20.543  14.932
 4994W        W70155  29.242  41.544   0.324
 4995W        W70156   1.591  37.420  10.388
 4996W        W70157   6.844   5.761   3.923
 4997W        W70158  10.865  14.207  11.235
 4998W        W70159  11.918   6.251  10.688
 4999W        W70160  10.176  22.054  13.303
 5000W        W70161  24.073   5.807  14.743
 5001W        W70162  26.961  15.319   0.821
 5002W        W70163  31.857   7.903  14.918
 5003W        W70164  20.320  36.077   2.232
 5004W        W70165  17.643  42.915   4.709
 5005W        W70166  38.954  15.714   3.184
 5006W        W70167  10.635  12.182   0.967
 5007W        W70168  41.023  39.394  11.574
 5008W        W70169   4.012  26.178  13.502
 5009W        W70170  39.337  40.716   0.086
 5010W        W70171  35.065  13.112  14.332
 5011W        W70172  39.453   1.510  13.913
 5012W        W70173  34.022   2.725   0.870
 5013W        W70174   3.268  41.000  12.442
 5014W        W70175  20.309  13.279  12.582
 5015W        W70176   4.630  16.236  10.351
 5016W        W70177  18.139  26.000   0.266
 5017W        W70178  22.169  14.121  13.810
 5018W        W70179  44.993  25.450   4.255
 5019W        W70180   0.501  10.403  12.015
 5020W        W70181  27.507   5.554   4.471
 5021W        W70182   8.128   6.273  11.479
 5022W        W70183  32.914  37.117  11.834
 5023W        W70184  43.509  32.101  10.154
 5024W        W70185  26.738  22.158   4.792
 5025W        W70186   4.631  30.466   2.349
 5026W        W70187  10.232  27.204   2.591
 5027W        W70188  18.753  19.533  13.498
 5028W        W70189  28.743   9.641  14.696
 5029W        W70190  38.710  27.577   1.381
 5030W        W70191  44.867  43.076  12.637
 5031W        W70192   2.366  43.867  14.367
 5032W        W70193   8.317  25.579  14.262
 5033W        W70194   5.321  36.991  11.708
 5034W        W70195  39.905  27.987   1.649
 5035W        W70196  11.184  30.871  13.275
 5036W        W70197  17.521  20.763   2.757
 5037W        W70198  34.905  40.125  12.511
 5038W        W70199  42.068   2.774  13.421
 5039W        W70200  26.059  15.249  13.537
 5040W        W70201  28.437   6.747   1.892
 5041W        W70202  18.869  26.418   1.774
 5042W        W70203  14.725  34.200   3.681
 5043W        W70204  40.081  28.252   3.557
 5044W        W70205  12.718  36.103   4.731
 5045W        W70206  43.769  39.899  13.377
 5046W        W70207   6.477  32.163   2.284
 5047W        W70208  44.293  29.569  11.093
 5048W        W70209  28.876  41.599  12.921
 5049W        W70210  16.857  25.177   0.810
 5050W        W70211  12.150   3.133  14.886
 5051W        W70212   9.718   1.404   1.765
 5052W        W70213  16.904   2.984  14.307
 5053W        W70214  12.784  35.114  14.346
 5054W        W70215  35.555  28.389   2.475
 5055W        W70216  30.330  34.321  11.946
 5056W        W70217   0.411  29.444  10.706
 5057W        W70218  34.299  10.161   2.208
 5058W        W70219   0.796  21.049   4.484
 5059W        W70220   9.626  32.425   3.322
 5060W        W70221  23.029  17.525  12.980
 5061W        W70222  40.451  42.235   2.575
 5062W        W70223   9.869  37.529  14.659
 5063W        W70224  31.839   4.696  11.551
 5064W        W70225  14.335  16.807   2.189
 5065W        W70226  36.499  27.153  14.891
 5066W        W70227   0.719  23.719   4.593
 5067W        W70228  10.120   2.139   2.958
 5068W        W70229  12.767  31.186   0.203
 5069W        W70230  24.465  13.733   0.905
 5070W        W70231  28.954  36.404  13.636
 5071W        W70232  40.367   0.939  12.971
 5072W        W70233   1.165   6.646   1.427
 5073W        W70234   0.280  43.096  12.958
 5074W        W70235  24.363  14.905   0.932
 5075W        W70236  11.011  25.882   3.739
 5076W        W70237   4.466  37.102  12.011
 5077W        W70238  11.097  19.291   3.642
 5078W        W70239  44.403  42.843  10.892
 5079W        W70240  18.372  24.127   5.068
 5080W        W70241  21.802  19.404   3.431
 5081W        W70242  36.803   1.555   3.329
 5082W        W70243  10.242  19.596  11.138
 5083W        W70244   1.734  19.993  11.548
 5084W        W70245  22.649  10.152  13.336
 5085W        W70246  23.625  16.427   2.740
 5086W        W70247  19.559  23.539   5.527
 5087W        W70248  41.202  14.600  11.658
 5088W        W70249  24.528  17.268  12.092
 5089W        W70250   4.737  35.210   1.745
 5090W        W70251  31.410  18.167   0.535
 5091W        W70252  31.891  11.443  13.863
 5092W        W70253  19.817   0.897   9.928
 5093W        W70254  24.683  28.967  14.353
 5094W        W70255  23.999  12.760   1.609
 5095W        W70256  26.678  22.318   1.962
 5096W        W70257  16.103  13.127   3.145
 5097W        W70258   3.002  41.400   1.880
 5098W        W70259  23.199  28.745   2.666
 5099W        W70260  16.833  29.223  13.781
 5100W        W70261  15.566  18.737  11.709
 5101W        W70262  28.271   6.829   4.604
 5102W        W70263  20.249   7.419  14.517
 5103W        W70264  16.837  23.356   0.028
 5104W        W70265  26.266  40.913  11.093
 5105W        W70266  20.106  27.707  12.221
 5106W        W70267  25.130  11.783  11.762
 5107W        W70268  37.971  27.598  13.500
 5108W        W70269  17.321   5.405  12.413
 5109W        W70270  14.177  28.124  14.628
 5110W        W70271  37.487  17.483   3.067
 5111W        W70272  32.012  12.227   3.742
 5112W        W70273  18.728  18.637   4.291
 5113W        W70274   0.040  35.464   2.364
 5114W        W70275  43.060  44.056   2.275
 5115W        W70276  35.826   0.457   4.314
 5116W        W70277  40.940  16.096   1.529
 5117W        W70278   4.322  35.162  11.137
 5118W        W70279   9.297  25.702  10.552
 5119W        W70280  29.649  18.387  14.562
 5120W        W70281  18.287  29.984  14.969
 5121W        W70282  31.052  29.123  12.086
 5122W        W70283  26.070  26.174  13.084
 5123W        W70284  17.105   4.998   3.228
 5124W        W70285  11.270  31.231   3.609
 5125W        W70286  29.227  11.971   5.487
 5126W        W70287   7.226  41.921  12.392
 5127W        W70288  26.393  36.143  12.033
 5128W        W70289  16.353  31.449  13.302
 5129W        W70290  29.684  43.868   3.097
 5130W        W70291  38.574   8.726  11.671
 5131W        W70292   4.326  13.142   4.754
 5132W        W70293  13.091  12.555   2.270
 5133W        W70294  33.356  33.477   3.594
 5134W        W70295  24.133  17.674   1.944
 5135W        W70296  14.366  24.045  12.578
 5136W        W70297  18.550  32.574   2.311
 5137W        W70298  19.162  38.940   3.435
 5138W        W70299  25.631   0.780  14.433
 5139W        W70300  29.499   8.124   1.451
 5140W        W70301  14.230  19.655  10.834
 5141W        W70302  34.558  10.380   0.303
 5142W        W70303  13.094  24.924   4.504
 5143W        W70304   5.633   9.113   5.044
 5144W        W70305  25.740   5.448   1.281
 5145W        W70306  36.018  24.170  11.993
 5146W        W70307  33.930  35.644  14.932
 5147W        W70308  36.778  31.651   0.940
 5148W        W70309  31.063  21.288   9.884
 5149W        W70310  31.174   5.297   0.340
 5150W        W70311  23.553   9.876  12.373
 5151W        W70312   9.337  22.231   4.048
 5152W        W70313  12.326  24.411   2.361
 5153W        W70314  15.316   1.309   4.024
 5154W        W70315  38.653   9.726  11.655
 5155W        W70316  39.843  12.855   2.737
 5156W        W70317  30.552  22.987   0.330
 5157W        W70318  44.855  43.029   1.786
 5158W        W70319  40.912   1.370  14.520
 5159W        W70320  15.548  36.506   0.427
 5160W        W70321  26.921  14.188   2.828
 5161W        W70322  40.081  17.946  13.920
 5162W        W70323   5.232  15.177  12.318
 5163W        W70324  31.480  31.045  13.135
 5164W        W70325  30.981  18.029   1.773
 5165W        W70326  30.689  37.026   4.159
 5166W        W70327  44.819  33.104   1.771
 5167W        W70328  25.519  18.727  13.052
 5168W        W70329  10.773  17.337  14.520
 5169W        W70330  23.246  10.916   4.996
 5170W        W70331  12.127   1.762   1.410
 5171W        W70332   8.453  25.751   4.868
 5172W        W70333  40.725  17.557  10.410
 5173W        W70334  10.279  40.581  13.012
 5174W        W70335  13.381  17.308  11.014
 5175W        W70336  15.814  19.649  12.096
 5176W        W70337  28.084  28.974  11.606
 5177W        W70338  22.541  24.655   2.716
 5178W        W70339  25.018   7.604   1.233
 5179W        W70340  10.136   6.735   1.325
 5180W        W70341  11.576  37.600  11.040
 5181W        W70342  12.883  38.717  12.127
 5182W        W70343  27.043  19.153  13.781
 5183W        W70344  24.413  35.770  14.074
 5184W        W70345  28.005  40.730  10.624
 5185W        W70346  26.231  14.539   2.381
 5186W        W70347  14.383  23.668  13.585
 5187W        W70348  14.275  25.935   3.333
 5188W        W70349   1.441  33.638   3.673
 5189W        W70350  37.810  14.591   4.504
 5190W        W70351  20.456  30.259   5.052
 5191W        W70352  26.949  36.583  13.087
 5192W        W70353  16.380  42.190   4.220
 5193W        W70354  23.000   3.655  12.548
 5194W        W70355  42.254   7.944  14.386
 5195W        W70356   0.867  18.058  14.970
 5196W        W70357  37.501  33.656   1.798
 5197W        W70358  37.702  25.516   4.844
 5198W        W70359  33.825  29.488   1.825
 5199W        W70360  26.380   9.949  12.563
 5200W        W70361  35.046  14.198  14.526
 5201W        W70362  19.246  13.864  13.783
 5202W        W70363   5.475   4.902  13.966
 5203W        W70364  29.453  10.041  12.326
 5204W        W70365  29.249  38.783  11.518
 5205W        W70366  20.254  15.834  11.812
 5206W        W70367  20.579  36.099  14.755
 5207W        W70368  26.465  24.529   9.814
 5208W        W70369  31.030  44.790  12.516
 5209W        W70370   5.060  25.213   1.760
 5210W        W70371  25.769   0.967   0.212
 5211W        W70372  33.078  24.088  10.624
 5212W        W70373  44.966  25.689   1.407
 5213W        W70374  21.507   6.787   4.550
 5214W        W70375  41.992  27.480   4.659
 5215W        W70376  16.260  27.172  14.751
 5216W        W70377  41.884  24.443  14.354
 5217W        W70378   3.014  29.845   1.826
 5218W        W70379   0.221   3.537  13.930
 5219W        W70380  18.318  34.208   0.939
 5220W        W70381   6.723  36.551  14.023
 5221W        W70382  19.536  20.992  12.054
 5222W        W70383  44.565   3.810  14.375
 5223W        W70384  17.031  43.906   2.798
 5224W        W70385  39.950  43.791  13.381
 5225W        W70386  42.517  24.333   2.213
 5226W        W70387  24.010   8.216   1.606
 5227W        W70388  30.510   3.531  13.037
 5228W        W70389  19.740  32.903  13.395
 5229W        W70390  29.173  18.480   4.620
 5230W        W70391  16.852  18.546  12.410
 5231W        W70392  34.446   6.737   1.003
 5232W        W70393  31.620  44.543   1.904
 5233W        W70394  27.492  31.340   3.777
 5234W        W70395   0.539  17.101  13.447
 5235W        W70396  32.685  19.547  11.635
 5236W        W70397  32.676   6.252   3.078
 5237W        W70398   6.688  16.335  14.185
 5238W        W70399  12.641  43.769   4.269
 5239W        W70400  21.680  23.728   0.742
 5240W        W70401  28.582  27.284  10.687
 5241W        W70402  15.488  13.191  11.099
 5242W        W70403  29.122  37.913   0.888
 5243W        W70404  12.544  24.701  14.984
 5244W        W70405   4.391  37.480   4.180
 5245W        W70406   6.163  37.867  13.913
 5246W        W70407  24.431   3.188  10.626
 5247W        W70408  29.916  22.461   1.075
 5248W        W70409  32.222  22.400   5.317
 5249W        W70410  38.820  23.338   2.860
 5250W        W70411  17.706  10.431   2.852
 5251W        W70412   8.286  14.706   2.342
 5252W        W70413  14.819   9.293  11.631
 5253W        W70414  40.113  12.896   1.889
 5254W        W70415  36.948  38.490   0.174
 5255W        W70416  14.582  43.978   3.776
 5256W        W70417  10.555   7.343   4.139
 5257W        W70418   3.904  41.203   1.961
 5258W        W70419  41.853   3.871  14.974
 5259W        W70420   2.202  24.213  14.576
 5260W        W70421  30.502  21.045   4.408
 5261W        W70422  17.156  21.897   1.912
 5262W        W70423  32.840   8.752  10.487
 5263W        W70424  20.158  23.984   2.657
 5264W        W70425  16.781  26.222  14.986
 5265W        W70426  24.101  44.890  12.040
 5266W        W70427  30.023  31.776  13.842
 5267W        W70428   3.695   2.865   3.136
 5268W        W70429  20.973  35.749   1.037
 5269W        W70430  44.305  16.152  13.974
 5270W        W70431  42.788   5.728   2.805
 5271W        W70432  34.338  16.551  12.063
 5272W        W70433  44.001  21.216  11.188
 5273W        W70434  16.137   4.052  13.855
 5274W        W70435  37.267  35.725   2.130
 5275W        W70436   1.842   8.791  10.404
 5276W        W70437   0.317  19.674  14.314
 5277W        W70438  33.268  14.292   1.037
 5278W        W70439   7.243  30.690   1.773
 5279W        W70440  29.458  42.815  12.873
 5280W        W70441   5.677  36.972  11.148
 5281W        W70442  42.720  18.931  11.346
 5282W        W70443   2.866  29.260  14.024
 5283W        W70444   5.933  16.786  12.930
 5284W        W70445   0.249  41.762  14.774
 5285W        W70446  32.948  31.574   0.333
 5286W        W70447   7.765   6.435  13.437
 5287W        W70448  41.947  35.721   4.125
 5288W        W70449  28.629  12.986  10.432
 5289W        W70450  11.368  15.374   1.947
 5290W        W70451  24.632  23.629   0.917
 5291W        W70452   6.426   9.303  11.443
 5292W        W70453  36.406  19.108   4.231
 5293W        W70454   9.253   7.375  14.058
 5294W        W70455  20.587  22.127   3.754
 5295W        W70456  31.177   3.188  13.487
 5296W        W70457   6.342  17.097  12.211
 5297W        W70458  30.542  34.834   4.840
 5298W        W70459  25.707   5.260   0.781
 5299W        W70460  44.659   4.757  14.230
 5300W        W70461  35.495  34.106  14.305
 5301W        W70462  29.147  27.543  12.415
 5302W        W70463  31.987   8.843   4.897
 5303W        W70464  20.729  14.889   2.986
 5304W        W70465   5.005   5.318   4.563
 5305W        W70466  15.400  33.519  13.977
 5306W        W70467  32.608  25.688  14.872
 5307W        W70468   8.910  27.813  14.344
 5308W        W70469  18.559  42.695  12.114
 5309W        W70470  16.597  25.063  11.723
 5310W        W70471  14.576  18.187   3.817
 5311W        W70472  24.139  12.744  13.408
 5312W        W70473   4.411  20.731   3.141
 5313W        W70474  19.689   4.926  14.152
 5314W        W70475   0.983   5.499   2.966
 5315W        W70476  33.561  15.917   2.137
 5316W        W70477  39.264   7.395  10.787
 5317W        W70478  27.534  30.633  12.959
 5318W        W70479  31.633  12.174  11.862
 5319W        W70480   6.697   1.682  10.766
 5320W        W70481  10.226  31.162  14.769
 5321W        W70482   0.447  38.689  12.557
 5322W        W70483  28.397  33.409   4.759
 5323W        W70484  13.388  44.511  14.226
 5324W        W70485   9.371   1.416  10.423
 5325W        W70486  27.688  42.101   3.564
 5326W        W70487  15.853   3.768   0.246
 5327W        W70488  42.573  44.516   0.884
 5328W        W70489  22.359   8.787  11.506
 5329W        W70490  24.716  21.439   2.269
 5330W        W70491   2.190  38.451  14.451
 5331W        W70492  14.367  18.350  10.556
 5332W        W70493  15.145  38.027   3.292
 5333W        W70494  10.772   2.235  12.565
 5334W        W70495  21.771   8.287   1.293
 5335W        W70496  33.054   6.901  13.494
 5336W        W70497  25.978  43.010   4.596
 5337W        W70498  29.683  20.461  13.623
 5338W        W70499  41.762  38.258   0.440
 5339W        W70500   0.323  37.009  14.700
 5340W        W70501  21.177   7.687  12.490
 5341W        W70502  28.562   2.372  12.593
 5342W        W70503  21.677  23.029   2.218
 5343W        W70504  43.451  42.421  13.167
 5344W        W70505  12.838  38.349  12.972
 5345W        W70506  41.932  11.267   1.700
 5346W        W70507   3.342  26.221   3.257
 5347W        W70508  20.786  17.600  10.679
 5348W        W70509   6.926  38.631  14.900
 5349W        W70510  30.234   6.746  14.552
 5350W        W70511  39.225  16.518  13.396
 5351W        W70512  30.568  23.530   0.308
 5352W        W70513  28.147   5.735   3.247
 5353W        W70514   8.787  26.197  10.171
 5354W        W70515  37.946  10.808   1.777
 5355W        W70516  19.833  13.485   3.259
 5356W        W70517  41.072  16.119  12.493
 5357W        W70518  25.726  17.657   4.777
 5358W        W70519   6.993  26.824  10.180
 5359W        W70520  28.158  22.064  12.027
 5360W        W70521  26.012  33.475  11.028
 5361W        W70522   7.124  17.482   3.754
 5362W        W70523   1.514   3.005   3.703
 5363W        W70524  40.684  21.763   3.601
 5364W        W70525  42.994  38.378  13.373
 5365W        W70526  38.458  24.895  11.660
 5366W        W70527  12.236  14.714  11.763
 5367W        W70528  36.633  18.670  14.853
 5368W        W70529   3.658  38.511   2.768
 5369W        W70530  33.192  44.320   0.810
 5370W        W70531  12.512  14.845  14.213
 5371W        W70532  27.288  37.488   4.394
 5372W        W70533  25.988  29.182   1.873
 5373W        W70534  41.766   1.418   0.975
 5374W        W70535  17.571   9.251  13.979
 5375W        W70536   2.224  35.289  12.160
 5376W        W70537  27.933   7.286   5.429
 5377W        W70538   9.846  33.267   4.051
 5378W        W70539   0.709  26.147   1.851
 5379W        W70540  25.089   9.279  13.905
 5380W        W70541  23.142  14.041  14.306
 5381W        W70542  16.787  18.256  14.089
 5382W        W70543  25.533  42.279  10.853
 5383W        W70544  35.499  42.836  13.916
 5384W        W70545   5.403  34.370   2.816
 5385W        W70546   4.202  23.201   0.190
 5386W        W70547   5.208  28.467  12.547
 5387W        W70548  17.739  42.678   4.044
 5388W        W70549  30.005   8.173   2.188
 5389W        W70550  39.755  10.192   0.466
 5390W        W70551  28.675   9.806  13.772
 5391W        W70552  19.900  36.866  12.029
 5392W        W70553   4.386  36.486  11.588
 5393W        W70554  22.614   7.397  13.866
 5394W        W70555  37.837  23.258  14.917
 5395W        W70556  24.693  25.799  12.964
 5396W        W70557  27.573  19.136  13.950
 5397W        W70558  19.190  20.761  14.924
 5398W        W70559   8.435   6.425  12.288
 5399W        W70560  44.818   0.328  10.525
 5400W        W70561  27.468  21.141   2.355
 5401W        W70562  25.531  33.466  10.805
 5402W        W70563  36.538  28.522   3.658
 5403W        W70564  29.446  36.100  12.810
 5404W        W70565  28.660  24.555   3.692
 5405W        W70566   9.492  14.883  12.120
 5406W        W70567   1.169  30.829   3.171
 5407W        W70568   8.735  42.735   1.475
 5408W        W70569  10.109  32.082   0.797
 5409W        W70570  35.132  30.531  13.948
 5410W        W70571  18.621  23.545   3.217
 5411W        W70572   2.564   9.642  14.294
 5412W        W70573  26.084  17.553  11.303
 5413W        W70574  42.354  21.131  10.510
 5414W        W70575  34.632  30.222   3.256
 5415W        W70576  22.593  19.564   2.782
 5416W        W70577  14.086  14.429  13.528
 5417W        W70578  25.008  26.497   1.505
 5418W        W70579  32.033   7.691  12.564
 5419W        W70580  19.533  27.050   0.087
 5420W        W70581  18.696   2.654   2.800
 5421W        W70582  43.895  25.168  11.987
 5422W        W70583  27.999  27.755   2.595
 5423W        W70584   2.684  38.969   9.901
 5424W        W70585   4.455  32.056   0.447
 5425W        W70586  16.653  34.185  14.490
 5426W        W70587  13.049  39.416  10.685
 5427W        W70588  37.593  38.402   2.921
 5428W        W70589  31.518  37.948   4.123
 5429W        W70590  12.887  30.435   2.850
 5430W        W70591  22.572   2.885   1.583
 5431W        W70592  42.206  39.605   1.308
 5432W        W70593  25.968  38.782   3.499
 5433W        W70594   6.628  29.842   1.757
 5434W        W70595  19.717   1.350  10.618
 5435W        W70596  30.827  23.265   0.673
 5436W        W70597  33.052  30.052  14.340
 5437W        W70598  12.227  16.254   2.311
 5438W        W70599  36.124  36.496  11.190
 5439W        W70600  23.034  22.740   2.162
 5440W        W70601  42.110  19.659   1.086
 5441W        W70602  31.640  41.781   2.882
 5442W        W70603  11.717  36.774   3.623
 5443W        W70604   2.318   7.439  13.466
 5444W        W70605   2.900   7.916  12.018
 5445W        W70606  20.813  37.197  11.196
 5446W        W70607   8.366  23.746  11.766
 5447W        W70608   3.736  14.848  13.386
 5448W        W70609  28.672   4.455  12.484
 5449W        W70610  20.226  13.675  10.995
 5450W        W70611  27.505  37.881   3.359
 5451W        W70612   4.459  20.686  13.362
 5452W        W70613  35.300  16.753   3.741
 5453W        W70614  11.912  32.547   4.700
 5454W        W70615  10.921  11.881   3.591
 5455W        W70616   6.617  38.739   2.766
 5456W        W70617  15.739  40.060  12.942
 5457W        W70618  24.408  35.101   2.292
 5458W        W70619  11.313  18.538   2.973
 5459W        W70620  11.153  17.790   4.329
 5460W        W70621  25.429  20.697   0.373
 5461W        W70622  13.984  20.269   1.431
 5462W        W70623  27.627   0.270   4.657
 5463W        W70624  15.278  15.169   4.370
 5464W        W70625  29.050  35.349  14.956
 5465W        W70626  35.899  24.592  10.603
 5466W        W70627  11.892  27.279  12.534
 5467W        W70628  36.040  10.860  14.322
 5468W        W70629  13.155  30.521  14.128
 5469W        W70630  27.131  41.745  11.936
 5470W        W70631   5.569  30.119   3.561
 5471W        W70632  35.877  12.612   3.325
 5472W        W70633  44.291  34.479   3.313
 5473W        W70634  16.559   9.752  11.706
 5474W        W70635   5.983  17.133   0.838
 5475W        W70636  29.999  41.123  12.735
 5476W        W70637  16.590  21.518  12.097
 5477W        W70638   9.881  17.602  12.999
 5478W        W70639  44.946  11.645  12.406
 5479W        W70640   4.175  36.685  12.021
 5480W        W70641   0.659  28.518  11.614
 5481W        W70642  28.558  13.702   3.969
 5482W        W70643  33.028  30.419  13.798
 5483W        W70644   3.380  44.030   1.945
 5484W        W70645  26.498  31.140   2.339
 5485W        W70646  43.119  16.341   3.114
 5486W        W70647  17.187  23.562  12.580
 5487W        W70648   4.631  34.050   4.606
 5488W        W70649  27.456   2.362   2.062
 5489W        W70650  43.552  24.672   3.101
 5490W        W70651  32.923  34.562  11.457
 5491W        W70652  42.864   1.411   3.840
 5492W        W70653  18.392  35.672  14.062
 5493W        W70654  28.644   2.504  10.771
 5494W        W70655  35.076  34.544  12.734
 5495W        W70656  11.132  39.969   0.392
 5496W        W70657  39.324   1.407  13.395
 5497W        W70658   0.046  39.149  11.136
 5498W        W70659  18.471   0.388   3.468
 5499W        W70660  34.115  42.518   3.594
 5500W        W70661  22.637  32.854   4.025
 5501W        W70662   4.904  34.122  13.489
 5502W        W70663   5.419  33.409   0.485
 5503W        W70664  38.004  19.046   1.737
 5504W        W70665  14.875  33.859   2.830
 5505W        W70666  31.733  40.239   5.078
 5506W        W70667   9.205  10.586   1.123
 5507W        W70668  36.115  32.555   4.099
 5508W        W70669   1.916  26.941   2.039
 5509W        W70670  11.635  37.530   2.314
 5510W        W70671  27.127  44.264  13.984
 5511W        W70672  15.772  30.041   1.639
 5512W        W70673  26.155  30.923   4.702
 5513W        W70674   7.448  34.500   2.587
 5514W        W70675  13.799  21.627   1.057
 5515W        W70676  39.945  41.509   2.169
 5516W        W70677  30.467  22.207  12.397
 5517W        W70678  16.060  26.054  13.324
 5518W        W70679   4.495  24.082  13.541
 5519W        W70680  44.998   8.921  12.587
 5520W        W70681  28.326  14.203  10.106
 5521W        W70682   8.312  41.308  11.211
 5522W        W70683   0.935  38.512   0.797
 5523W        W70684  20.432  31.791   3.205
 5524W        W70685  38.420   4.367   0.935
 5525W        W70686  33.452   1.190  14.452
 5526W        W70687  21.261  37.825  11.380
 5527W        W70688  38.853  36.795  11.652
 5528W        W70689  19.475  38.643   1.028
 5529W        W70690  35.354  39.634   3.470
 5530W        W70691  18.177  31.810   2.299
 5531W        W70692  16.277  27.175   3.308
 5532W        W70693  24.942  24.061   2.743
 5533W        W70694  21.663  19.936   0.792
 5534W        W70695  42.768  13.808   4.618
 5535W        W70696  25.148  14.205   3.111
 5536W        W70697   7.325  32.168   3.045
 5537W        W70698  23.930  12.488   4.382
 5538W        W70699  15.254  21.045   2.684
 5539W        W70700  19.701  23.493  10.590
 5540W        W70701  23.567  36.574  12.555
 5541W        W70702  40.024   6.301   3.145
 5542W        W70703  11.870  30.208   4.191
 5543W        W70704  13.386  32.167   1.204
 5544W        W70705  12.547  41.046  12.508
 5545W        W70706   2.852   2.075  14.201
 5546W        W70707  42.394  41.844   2.218
 5547W        W70708  20.524   7.544  12.419
 5548W        W70709  18.470  22.174  10.955
 5549W        W70710  18.146   1.048  14.336
 5550W        W70711  26.816   3.903   0.891
 5551W        W70712   6.646  15.746  13.980
 5552W        W70713   9.092   1.756  13.455
 5553W        W70714  17.283  21.109  10.302
 5554W        W70715   1.390   2.374   3.751
 5555W        W70716  24.650  31.368  14.837
 5556W        W70717  33.352  40.749   2.664
 5557W        W70718  40.477  12.666  14.769
 5558W        W70719  26.286  22.561   2.903
 5559W        W70720  13.246  40.856  10.822
 5560W        W70721  11.877  17.008  12.504
 5561W        W70722   4.140  33.898  11.100
 5562W        W70723  42.852  37.510  13.100
 5563W        W70724  10.115  23.064  13.841
 5564W        W70725  37.261  23.842  14.374
 5565W        W70726  10.348  28.162  11.162
 5566W        W70727  21.706  15.527  13.538
 5567W        W70728  21.299   5.912   0.976
 5568W        W70729  20.524  28.378  10.737
 5569W        W70730  25.017   7.708  10.722
 5570W        W70731  41.284  38.913   4.383
 5571W        W70732  38.596   4.873  11.834
 5572W        W70733   4.603   0.641   4.242
 5573W        W70734  10.681  41.174   0.707
 5574W        W70735  18.167  44.201  13.940
 5575W        W70736   9.813   1.135  13.544
 5576W        W70737  41.708   7.257   2.551
 5577W        W70738  16.293  42.882   3.060
 5578W        W70739  36.305  43.916   0.481
 5579W        W70740  29.938  18.550  13.391
 5580W        W70741  29.684  20.650  14.976
 5581W        W70742   2.659  20.128   4.764
 5582W        W70743   8.804  19.050   3.181
 5583W        W70744  36.438  19.162  11.603
 5584W        W70745  22.690  23.061  12.990
 5585W        W70746  40.334  17.358  10.113
 5586W        W70747   3.745  39.408   2.702
 5587W        W70748   0.437  40.575  14.052
 5588W        W70749  15.295  38.719   2.862
 5589W        W70750  21.746  18.020   1.731
 5590W        W70751  24.178  37.371  12.785
 5591W        W70752   8.141   7.940   1.033
 5592W        W70753  41.828  31.513   1.701
 5593W        W70754   8.416  43.031  12.172
 5594W        W70755  23.573   7.276  11.595
 5595W        W70756   2.957  22.146  12.551
 5596W        W70757  37.223  35.811  13.240
 5597W        W70758   8.639   4.192   3.715
 5598W        W70759  24.284  41.048   2.124
 5599W        W70760  20.085  32.191  14.433
 5600W        W70761   2.835  23.647  10.356
 5601W        W70762  36.402  16.323   0.011
 5602W        W70763   2.577   6.721   1.677
 5603W        W70764   3.828  25.557  14.928
 5604W        W70765  33.054  20.135  12.021
 5605W        W70766  21.704  21.210   0.936
 5606W        W70767  42.364   8.065   3.918
 5607W        W70768  19.663  19.927   3.202
 5608W        W70769   7.340  25.043   4.269
 5609W        W70770  28.703   2.791  11.567
 5610W        W70771  38.729  19.034  11.507
 5611W        W70772  17.355  15.206   3.276
 5612W        W70773  44.561  14.828  14.852
 5613W        W70774   7.794  30.713  13.695
 5614W        W70775  42.823   4.451  11.194
 5615W        W70776  18.010   8.758  10.730
 5616W        W70777  24.764   6.315   3.109
 5617W        W70778  38.315   5.923   0.844
 5618W        W70779  14.188  22.745   3.340
 5619W        W70780  31.646   7.444  11.793
 5620W        W70781   9.805   3.511  14.422
 5621W        W70782  21.015   5.476   0.934
 5622W        W70783  23.563  15.237  13.814
 5623W        W70784  38.307  14.373  10.522
 5624W        W70785  39.071  16.121   0.080
 5625W        W70786  33.833  16.779  13.853
 5626W        W70787  25.711  20.152   3.530
 5627W        W70788  40.492   9.463   3.838
 5628W        W70789  36.742   8.032   2.112
 5629W        W70790  37.523  19.510  12.477
 5630W        W70791  11.722  21.747  10.350
 5631W        W70792  11.234  35.944  12.718
 5632W        W70793  26.574  31.215   4.821
 5633W        W70794   1.542  42.800   3.565
 5634W        W70795  28.540  42.868  12.496
 5635W        W70796  41.883  38.475  13.109
 5636W        W70797  28.463   7.668  12.939
 5637W        W70798   3.573  20.031   2.179
 5638W        W70799   7.970   3.432   1.927
 5639W        W70800   7.706   6.359  10.723
 5640W        W70801  27.604   0.759   2.231
 5641W        W70802  23.891  25.663  11.077
 5642W        W70803  20.515   1.721  14.281
 5643W        W70804  32.980  17.533   1.858
 5644W        W70805  44.939  12.098  14.530
 5645W        W70806  32.756  27.591   0.216
 5646W        W70807  23.585  22.563  13.158
 5647W        W70808   8.306  31.412   2.719
 5648W        W70809  42.088   7.427   4.988
 5649W        W70810  21.830  32.656   0.316
 5650W        W70811  42.591   7.601  11.658
 5651W        W70812  38.903   1.926   3.190
 5652W        W70813   7.552  17.780   1.611
 5653W        W70814  17.075  43.317   0.648
 5654W        W70815  27.029  14.761  11.752
 5655W        W70816  30.183   5.761  11.611
 5656W        W70817  14.755  29.200   1.442
 5657W        W70818  43.824  28.911   1.260
 5658W        W70819   8.803  37.514  13.341
 5659W        W70820  44.910  16.304  12.579
 5660W        W70821  25.441  28.271   3.340
 5661W        W70822   4.095   3.007  10.348
 5662W        W70823  21.500  38.182  12.979
 5663W        W70824   7.185  41.506  12.053
 5664W        W70825   7.769  35.851   2.892
 5665W        W70826  19.126  14.812   1.732
 5666W        W70827   0.400  43.910  11.169
 5667W        W70828  26.717  12.352  13.752
 5668W        W70829   3.320  15.798   2.707
 5669W        W70830  16.340  38.277  10.310
 5670W        W70831  14.111  16.571  10.810
 5671W        W70832   2.222  33.166  11.141
 5672W        W70833   0.777  43.682  13.432
 5673W        W70834  43.192  40.758   3.592
 5674W        W70835  16.058  16.135   1.543
 5675W        W70836  40.297  11.639   3.909
 5676W        W70837  18.801   0.341   0.455
 5677W        W70838   6.171  39.064  11.391
 5678W        W70839   6.878  15.386  11.124
 5679W        W70840  41.530  13.950  14.487
 5680W        W70841  33.891   7.373  14.524
 5681W        W70842  32.008  25.462   3.239
 5682W        W70843  19.237   6.978  11.935
 5683W        W70844  36.603  10.139   1.458
 5684W        W70845   4.810  25.771   0.886
 5685W        W70846  44.024   4.365  14.797
 5686W        W70847  39.350   7.010   2.668
 5687W        W70848  27.950  16.744  12.575
 5688W        W70849  37.766  21.667   4.596
 5689W        W70850  40.992   7.425   1.593
 5690W        W70851   6.275  40.343   2.006
 5691W        W70852  36.883  20.656  10.619
 5692W        W70853  33.567   9.349   1.805
 5693W        W70854  38.108  42.426   1.349
 5694W        W70855  41.439  44.833  14.326
 5695W        W70856   6.992   7.678  14.882
 5696W        W70857   5.699  13.249   3.667
 5697W        W70858  16.896   3.562  12.321
 5698W        W70859  10.423  11.654  12.557
 5699W        W70860   9.626  28.165   1.423
 5700W        W70861   7.301  32.352   0.352
 5701W        W70862  26.508   2.811  11.885
 5702W        W70863  37.442   2.280   4.035
 5703W        W70864  33.345  14.181   0.021
 5704W        W70865  11.078   4.842   1.444
 5705W        W70866  31.753  26.443  13.398
 5706W        W70867  30.404  23.608  12.444
 5707W        W70868  40.775  40.929   3.152
 5708W        W70869  26.113  21.028   4.303
 5709W        W70870   9.153  35.158   3.597
 5710W        W70871   3.667  43.387   1.320
 5711W        W70872  41.932  21.673  14.423
 5712W        W70873  10.347  11.896  11.307
 5713W        W70874  36.722  21.224   0.124
 5714W        W70875  29.714  12.778  11.170
 5715W        W70876  13.554   5.405  12.704
 5716W        W70877  20.533  29.645  11.127
 5717W        W70878  23.574  31.603   4.874
 5718W        W70879   1.881  16.301   2.247
 5719W        W70880  39.555   4.112  12.095
 5720W        W70881  19.768  24.477   3.338
 5721W        W70882  35.284   4.281  10.868
 5722W        W70883   2.455  38.901   2.694
 5723W        W70884   6.925   1.773   0.436
 5724W        W70885  19.773  26.706   2.700
 5725W        W70886  29.005  32.175  11.108
 5726W        W70887  40.000  16.264   0.383
 5727W        W70888  12.328  14.807  13.633
 5728W        W70889   7.994  16.000   4.154
 5729W        W70890  35.450   5.295   2.337
 5730W        W70891  14.007  44.946  13.749
 5731W        W70892   7.191  34.337  14.430
 5732W        W70893  24.580  43.848  14.889
 5733W        W70894  13.028  35.612   4.278
 5734W        W70895  42.300  32.492   4.852
 5735W        W70896   2.167  14.151   0.687
 5736W        W70897  24.286  21.265   1.753
 5737W        W70898   8.462  11.349  11.526
 5738W        W70899  33.058  42.985  14.756
 5739W        W70900  34.217  36.615   1.251
 5740W        W70901  37.411  26.145  13.130
 5741W        W70902  29.099   4.247  11.065
 5742W        W70903  14.591   5.732  11.806
 5743W        W70904  20.895   3.978  11.997
 5744W        W70905  31.229  16.315   4.877
 5745W        W70906   7.000  34.033   1.755
 5746W        W70907  21.596  23.111  10.793
 5747W        W70908  30.526  36.174  12.046
 5748W        W70909  21.705   0.847  11.033
 5749W        W70910   9.240  24.552   9.814
 5750W        W70911  38.145  27.537   4.688
 5751W        W70912  34.548  43.412  13.549
 5752W        W70913  22.082  44.091  12.374
 5753W        W70914   0.353  32.345   2.596
 5754W        W70915  41.368   0.166   3.180
 5755W        W70916  16.831  34.640  10.982
 5756W        W70917  23.294  35.983  12.707
 5757W        W70918  10.268  41.026  12.753
 5758W        W70919  44.351  27.869   4.989
 5759W        W70920   3.232  16.168  13.350
 5760W        W70921  16.234  26.139   4.139
 5761W        W70922   3.743   0.010   2.340
 5762W        W70923  31.531  21.405   3.153
 5763W        W70924  11.678  31.685  12.447
 5764W        W70925   3.742  25.036  14.925
 5765W        W70926  23.088   3.156  10.814
 5766W        W70927  40.517  16.773   1.898
 5767W        W70928  20.499  34.396  11.157
 5768W        W70929   3.084  26.623  10.141
 5769W        W70930  14.677   3.820   4.647
 5770W        W70931  19.001  21.453  14.473
 5771W        W70932  24.881   8.567   1.650
 5772W        W70933  10.842  22.515   0.723
 5773W        W70934  14.940  39.269   0.276
 5774W        W70935  44.036   5.943  13.283
 5775W        W70936  35.818  21.241  10.981
 5776W        W70937  23.547  36.313   1.757
 5777W        W70938  22.872   8.853   3.739
 5778W        W70939  27.130  12.646  13.824
 5779W        W70940  19.795  15.258   0.333
 5780W        W70941  25.148   2.922   0.734
 5781W        W70942  33.578  19.626  14.336
 5782W        W70943  38.228  16.308   0.857
 5783W        W70944  44.790  30.642  14.969
 5784W        W70945  20.994  40.284   2.800
 5785W        W70946  34.134  39.860   1.210
 5786W        W70947   8.092  32.247  12.162
 5787W        W70948  13.213   8.612  12.464
 5788W        W70949  37.267   6.649   2.618
 5789W        W70950  39.561  31.163   1.211
 5790W        W70951  33.955  24.138   4.750
 5791W        W70952  43.453  37.952   2.704
 5792W        W70953  20.803  15.115   0.384
 5793W        W70954  43.554  29.685   2.292
 5794W        W70955  32.602   4.404  11.675
 5795W        W70956  24.095  27.368  11.912
 5796W        W70957  34.598   7.226   2.743
 5797W        W70958  13.787  19.335   2.410
 5798W        W70959   0.459  32.023  12.364
 5799W        W70960   2.910  20.987   3.582
 5800W        W70961  42.965   3.978   3.424
 5801W        W70962  42.522   0.012  13.544
 5802W        W70963  19.790  39.792  14.849
 5803W        W70964  23.590  23.217  14.446
 5804W        W70965   7.257  18.814  13.419
 5805W        W70966   7.672   5.353  12.573
 5806W        W70967  24.525  16.170   1.455
 5807W        W70968  24.667  35.549   2.149
 5808W        W70969  29.728  19.413   2.121
 5809W        W70970  35.347   3.809   0.938
 5810W        W70971   1.093   5.241  14.671
 5811W        W70972   5.480  11.635  11.093
 5812W        W70973  23.146  10.439   2.748
 5813W        W70974  39.862  11.343  11.726
 5814W        W70975   0.631  32.602   3.191
 5815W        W70976  18.797  40.326   0.435
 5816W        W70977   2.184  24.360   0.570
 5817W        W70978  31.601  26.146   4.127
 5818W        W70979   3.785  21.931   3.578
 5819W        W70980  27.375  39.831  13.014
 5820W        W70981   8.721  26.636   5.039
 5821W        W70982  22.064  32.872   3.075
 5822W        W70983  11.537  38.564   3.248
 5823W        W70984   0.466  26.297   0.389
 5824W        W70985  32.842   6.035   3.566
 5825W        W70986  36.059  13.313   4.667
 5826W        W70987   2.812  16.732  12.004
 5827W        W70988  20.231  42.729  13.146
 5828W        W70989  15.551  18.696   0.664
 5829W        W70990  17.602  42.758  13.064
 5830W        W70991  13.232  22.181   4.125
 5831W        W70992  25.659  39.405  13.986
 5832W        W70993  31.149   4.266   4.044
 5833W        W70994  24.506   5.340  12.919
 5834W        W70995   4.227   5.471   0.615
 5835W        W70996  10.564  32.177  11.026
 5836W        W70997  32.456  31.671   0.444
 5837W        W70998  28.802   1.515   1.878
 5838W        W70999   1.501  35.628  12.355
 5839W        W71000  22.488  37.904  11.200
 5840W        W71001  18.785  24.977   4.627
 5841W        W71002  29.881   7.772   2.850
 5842W        W71003  12.235  38.790   2.173
 5843W        W71004  27.959   5.428  11.453
 5844W        W71005  36.676   9.803   3.745
 5845W        W71006   7.492  27.035  10.223
 5846W        W71007  35.344  34.886  10.603
 5847W        W71008  20.080  19.227   0.385
 5848W        W71009  13.744  26.624  10.847
 5849W        W71010   8.312  31.536  14.720
 5850W        W71011  37.553  34.541   0.493
 5851W        W71012  21.873   2.293  13.287
 5852W        W71013  14.409   5.255  11.564
 5853W        W71014  14.362  14.058   4.976
 5854W        W71015  12.082   8.164  11.584
 5855W        W71016  18.534  17.290   0.319
 5856W        W71017  36.819  27.483   3.931
 5857W        W71018  12.042  15.730  12.872
 5858W        W71019  32.075  35.143  10.788
 5859W        W71020  34.867  43.835  12.610
 5860W        W71021  16.319  17.921  12.328
 5861W        W71022  35.446  22.796   4.348
 5862W        W71023   7.213  40.112  10.736
 5863W        W71024   9.948   8.189   2.278
 5864W        W71025  19.547   6.630  12.519
 5865W        W71026  22.960   0.764   1.254
 5866W        W71027  38.585   5.747  14.888
 5867W        W71028  40.055  24.168  12.574
 5868W        W71029  19.163  30.393  14.075
 5869W        W71030  43.020   9.399  11.159
 5870W        W71031  35.572   8.647   4.156
 5871W        W71032  15.771   5.353   3.368
 5872W        W71033   8.286  23.700  12.658
 5873W        W71034  41.627  14.514   3.217
 5874W        W71035  17.796  41.012   2.752
 5875W        W71036  34.055  10.020  12.433
 5876W        W71037  24.217  35.978  14.815
 5877W        W71038  25.588   3.796  13.942
 5878W        W71039  33.647  35.272   1.717
 5879W        W71040  39.769  12.602   1.332
 5880W        W71041  30.684  14.775  11.228
 5881W        W71042  35.820  27.342   1.784
 5882W        W71043  41.759  17.237   5.053
 5883W        W71044  10.870  29.160  12.945
 5884W        W71045  29.920   1.388  14.566
 5885W        W71046  44.452   5.120  13.923
 5886W        W71047   7.722   5.907  10.431
 5887W        W71048  20.159  12.416  14.526
 5888W        W71049  41.885  39.818  13.880
 5889W        W71050   5.433  17.779   1.040
 5890W        W71051  21.502   1.134  12.136
 5891W        W71052  34.417  31.509  12.682
 5892W        W71053  28.709  17.227  11.707
 5893W        W71054  22.758   8.351   2.179
 5894W        W71055  17.861  29.952   0.708
 5895W        W71056  16.129   5.804  10.353
 5896W        W71057  28.562  28.744  11.618
 5897W        W71058  25.124  13.175  13.814
 5898W        W71059  25.568   7.645  13.473
 5899W        W71060  11.719  43.539   0.840
 5900W        W71061  42.781  37.339   0.793
 5901W        W71062   4.299  12.411   0.961
 5902W        W71063  31.472   3.555   3.461
 5903W        W71064  36.117   4.633   4.614
 5904W        W71065  30.156  27.915   4.987
 5905W        W71066   2.060  40.652   3.651
 5906W        W71067  12.841  22.018  12.881
 5907W        W71068   3.186  20.289  11.054
 5908W        W71069  24.060  33.395   2.033
 5909W        W71070  39.799  36.342   3.903
 5910W        W71071   6.453  40.931  12.032
 5911W        W71072   7.212  19.579   4.943
 5912W        W71073  22.398  29.571  13.790
 5913W        W71074   5.889  25.924   1.905
 5914W        W71075  21.737  27.443  13.269
 5915W        W71076   5.502   6.745  14.420
 5916W        W71077  28.577   7.158  14.720
 5917W        W71078  31.705   2.968   4.335
 5918W        W71079  14.357  28.931   1.673
 5919W        W71080  18.717  36.588   3.708
 5920W        W71081  19.119  22.707  10.305
 5921W        W71082  40.953  30.754  10.443
 5922W        W71083  13.903  17.145  12.989
 5923W        W71084   3.961  29.678   3.715
 5924W        W71085  22.044   9.593   1.752
 5925W        W71086  35.025  11.596   2.338
 5926W        W71087  31.014   7.657  13.432
 5927W        W71088  27.214  19.261  13.306
 5928W        W71089   8.705  14.278  13.501
 5929W        W71090  35.444  24.144  13.505
 5930W        W71091  31.586  35.872  10.555
 5931W        W71092   6.792  35.548  14.567
 5932W        W71093   4.176  42.117  13.773
 5933W        W71094   0.472  24.132  10.479
 5934W        W71095  29.032  21.661   2.955
 5935W        W71096  21.238  14.636   1.758
 5936W        W71097  16.202   9.623  13.439
 5937W        W71098  28.133   4.714   3.283
 5938W        W71099  43.922   3.076  11.982
 5939W        W71100   0.706  27.450  14.972
 5940W        W71101  28.228  11.955   3.863
 5941W        W71102  21.521  15.284   0.834
 5942W        W71103  21.076  24.844   1.489
 5943W        W71104  20.714  13.832   4.332
 5944W        W71105   4.597  28.765   3.928
 5945W        W71106  33.417   8.449  13.207
 5946W        W71107  35.385  35.968  14.709
 5947W        W71108  30.529  44.401   1.208
 5948W        W71109  20.827  14.613   0.784
 5949W        W71110  21.104   6.357  11.149
 5950W        W71111  44.393  35.675  12.438
 5951W        W71112  44.790  30.971   1.471
 5952W        W71113  33.053  42.827   1.307
 5953W        W71114  33.046  27.338   2.754
 5954W        W71115  34.163  10.881  12.122
 5955W        W71116  14.716  18.332   1.519
 5956W        W71117   1.596  30.524   4.043
 5957W        W71118  28.073  43.370   1.846
 5958W        W71119  31.886  28.895   1.613
 5959W        W71120  25.141  37.743  11.733
 5960W        W71121  26.171  36.885   4.272
 5961W        W71122  20.960  25.030   0.166
 5962W        W71123  17.486  40.038  13.573
 5963W        W71124   6.188  14.689  12.816
 5964W        W71125  42.480  17.056  12.596
 5965W        W71126   8.472  36.160   3.319
 5966W        W71127  29.620  41.242   0.974
 5967W        W71128  27.642   5.519   2.357
 5968W        W71129  32.219  26.904   0.833
 5969W        W71130   8.260  31.631  12.982
 5970W        W71131  40.912  29.041   3.634
 5971W        W71132  37.828  13.203  12.180
 5972W        W71133  36.098  43.932  13.133
 5973W        W71134   3.963  41.802   4.766
 5974W        W71135  20.100  43.341  12.529
 5975W        W71136  25.663  26.770   3.258
 5976W        W71137  40.427  36.307   4.808
 5977W        W71138  19.290  12.176   4.821
 5978W        W71139  15.800  17.780  14.813
 5979W        W71140  44.273  21.763  12.932
 5980W        W71141   4.443   3.003   3.827
 5981W        W71142  20.315  35.888   4.148
 5982W        W71143   3.286   9.756   3.411
 5983W        W71144  16.515  33.458   3.006
 5984W        W71145  14.310   7.107  11.704
 5985W        W71146  16.688   2.755  11.078
 5986W        W71147  34.272  20.980   2.702
 5987W        W71148  30.548  33.145   1.446
 5988W        W71149  26.551   4.359   0.129
 5989W        W71150  41.596  22.462  14.481
 5990W        W71151  14.768  32.619   4.035
 5991W        W71152  35.608  18.853  11.626
 5992W        W71153  14.661  19.568   3.685
 5993W        W71154  11.511  11.879   2.810
 5994W        W71155  15.305   5.648   1.238
 5995W        W71156   4.496  23.392   0.985
 5996W        W71157   4.167  43.003   1.783
 5997W        W71158   6.128   2.723   1.019
 5998W        W71159  37.789  24.133  13.895
 5999W        W71160  29.638  34.878  14.451
 6000W        W71161  33.673  23.553   9.654
 6001W        W71162   0.133   5.108  10.180
 6002W        W71163  15.124   9.408  12.653
 6003W        W71164   7.751  30.034   1.883
 6004W        W71165  26.446  23.738  11.153
 6005W        W71166  15.530  12.115  11.202
 6006W        W71167   7.315  20.442   1.309
 6007W        W71168   8.593  40.760   4.567
 6008W        W71169  13.214   1.685  10.473
 6009W        W71170  22.472  12.848   2.401
 6010W        W71171   8.357  41.775   1.853
 6011W        W71172   9.344  42.469   2.680
 6012W        W71173  18.446  29.036   2.599
 6013W        W71174  41.335  25.652   0.568
 6014W        W71175   2.282  17.216  14.590
 6015W        W71176  28.618  39.430  13.810
 6016W        W71177   5.460   3.306  11.995
 6017W        W71178  12.847   6.180   5.143
 6018W        W71179  24.983   3.697   1.205
 6019W        W71180   5.413   7.381  13.845
 6020W        W71181  20.911  36.086  12.005
 6021W        W71182   6.419  42.878   3.298
 6022W        W71183  40.897  18.804   3.780
 6023W        W71184   5.025  36.981  12.591
 6024W        W71185  20.345   7.164   4.005
 6025W        W71186   6.974   9.260  11.456
 6026W        W71187   3.869  16.200  14.460
 6027W        W71188  14.567  39.998   1.901
 6028W        W71189  42.405  31.409   0.740
 6029W        W71190  41.310  18.992   2.062
 6030W        W71191   6.505  32.836  13.322
 6031W        W71192  10.575   8.654  12.160
 6032W        W71193  12.253  21.090   2.977
 6033W        W71194   8.772  16.460   2.427
 6034W        W71195  18.683   5.433  13.135
 6035W        W71196  36.171  33.098  13.348
 6036W        W71197   1.399  19.316  10.433
 6037W        W71198  12.236   1.792  14.556
 6038W        W71199   1.979  33.844  14.176
 6039W        W71200  11.598   4.245   0.290
 6040W        W71201  40.451  35.930  12.448
 6041W        W71202  31.624  25.434  13.610
 6042W        W71203  28.083  35.881  13.413
 6043W        W71204   0.902  19.307   2.598
 6044W        W71205   5.765   8.190  14.751
 6045W        W71206   1.779  23.735  10.676
 6046W        W71207  44.509  20.637   3.858
 6047W        W71208  39.356   6.914   3.575
 6048W        W71209  38.872  44.999   4.322
 6049W        W71210  39.708   5.940   1.977
 6050W        W71211  31.645  26.485  11.181
 6051W        W71212  40.201  16.569  11.620
 6052W        W71213  12.089  18.685  13.089
 6053W        W71214  22.165   5.985   1.383
 6054W        W71215  29.085   9.695  13.024
 6055W        W71216  27.388  15.060  12.992
 6056W        W71217  37.674   8.081   1.744
 6057W        W71218  32.449  33.175   3.131
 6058W        W71219   8.631  38.466  13.340
 6059W        W71220  37.876  29.643   2.145
 6060W        W71221  43.035   5.930   1.447
 6061W        W71222  33.414   5.837   0.511
 6062W        W71223   3.268  33.004   0.303
 6063W        W71224  14.186  18.969   1.217
 6064W        W71225   0.934  38.319   4.488
 6065W        W71226   4.173  36.052  13.804
 6066W        W71227  32.457  25.247   2.157
 6067W        W71228   0.807  34.814   2.521
 6068W        W71229  41.290   0.312   1.907
 6069W        W71230  12.173  42.559  14.139
 6070W        W71231  22.535  19.174   0.243
 6071W        W71232  38.238  22.074  13.506
 6072W        W71233  27.614  27.866  11.984
 6073W        W71234  25.716  26.434  12.806
 6074W        W71235  19.159  34.374  12.042
 6075W        W71236  30.005   0.413  14.252
 6076W        W71237  20.679  32.228  14.377
 6077W        W71238  12.082  33.379  12.010
 6078W        W71239  18.322   0.851   3.245
 6079W        W71240  23.981   7.686  10.848
 6080W        W71241  14.643  36.270   1.542
 6081W        W71242  32.443  27.292   2.237
 6082W        W71243   1.296  30.664   3.646
 6083W        W71244  35.025  27.910   1.871
 6084W        W71245  19.687  22.142  14.379
 6085W        W71246   0.971  32.897   4.350
 6086W        W71247  27.022   2.670  13.546
 6087W        W71248   1.601  21.950   0.442
 6088W        W71249  41.014  30.670   0.809
 6089W        W71250  21.788  16.386  11.767
 6090W        W71251   1.184  36.069  12.488
 6091W        W71252  32.930  10.517  10.716
 6092W        W71253  19.480  26.517   3.522
 6093W        W71254  10.541  11.127  12.061
 6094W        W71255   6.310  36.853   2.688
 6095W        W71256  33.469  43.964  12.464
 6096W        W71257  29.919  25.045   0.377
 6097W        W71258  23.128  37.437   2.585
 6098W        W71259  16.743  30.894   2.168
 6099W        W71260  30.915  38.510   4.791
 6100W        W71261  38.358   2.362   3.527
 6101W        W71262  18.710   9.699  11.851
 6102W        W71263  18.345  43.403   3.583
 6103W        W71264  23.659  15.217  13.258
 6104W        W71265  10.204  17.381   2.184
 6105W        W71266  44.870  18.558   4.352
 6106W        W71267  18.979  18.433  14.137
 6107W        W71268  10.812  23.024  11.696
 6108W        W71269   8.481  29.255  10.491
 6109W        W71270  11.851  36.729   2.701
 6110W        W71271  17.340   1.130   9.937
 6111W        W71272  27.074   7.623  10.604
 6112W        W71273  34.882  12.297  11.503
 6113W        W71274   6.179  33.069   0.786
 6114W        W71275   6.792  34.648  10.770
 6115W        W71276   9.803   9.746   1.360
 6116W        W71277  24.206  13.267   1.666
 6117W        W71278  37.866  31.165   3.842
 6118W        W71279   9.715  11.829  13.105
 6119W        W71280  10.659   5.435   2.612
 6120W        W71281  21.016   2.024   1.835
 6121W        W71282  36.333   7.448   3.223
 6122W        W71283  31.417  44.921   0.607
 6123W        W71284  18.469  11.053   1.939
 6124W        W71285  34.513  34.053   4.472
 6125W        W71286  25.282  43.281   0.947
 6126W        W71287   7.157   6.768   4.044
 6127W        W71288  27.855   8.395   3.631
 6128W        W71289  41.771  30.038  12.998
 6129W        W71290   7.757  37.458  11.230
 6130W        W71291  33.538  10.847  14.234
 6131W        W71292  44.832  32.634  11.959
 6132W        W71293  16.924  29.278   4.869
 6133W        W71294  41.363   9.721   1.079
 6134W        W71295  39.632  23.271  11.244
 6135W        W71296  37.083  18.895  14.966
 6136W        W71297  19.422   4.761   4.352
 6137W        W71298  31.010  20.879   0.768
 6138W        W71299  19.861  43.523   3.550
 6139W        W71300  38.085   5.260   2.609
 6140W        W71301   1.899  12.239  12.872
 6141W        W71302  39.526   7.202  12.091
 6142W        W71303   5.870  12.439  10.949
 6143W        W71304  32.021  11.228  12.544
 6144W        W71305   4.857  20.044  12.984
 6145W        W71306  16.090  43.850  11.560
 6146W        W71307  38.505  40.423  14.799
 6147W        W71308  36.306  17.555   0.535
 6148W        W71309  31.492   8.241   4.896
 6149W        W71310  12.912  19.627   3.473
 6150W        W71311  11.167  19.838   3.716
 6151W        W71312  20.883   6.358  12.510
 6152W        W71313  34.231  29.455   0.859
 6153W        W71314  21.736  42.804  12.855
 6154W        W71315  43.444  14.832  13.805
 6155W        W71316  11.143  44.743   4.681
 6156W        W71317  37.045  28.651  13.802
 6157W        W71318  12.319   3.352   4.324
 6158W        W71319  43.520  14.721  11.905
 6159W        W71320   5.704  29.456   2.198
 6160W        W71321  15.044   7.821   0.262
 6161W        W71322  38.815  18.597  12.901
 6162W        W71323  29.324   6.622   4.570
 6163W        W71324  39.862  36.680   4.304
 6164W        W71325   1.356  43.262   2.181
 6165W        W71326  16.010   7.392   0.242
 6166W        W71327  34.982  31.589  13.361
 6167W        W71328  21.738  28.410   2.164
 6168W        W71329   1.994   8.022  13.116
 6169W        W71330  24.582  18.553  11.146
 6170W        W71331  36.864  44.223   1.555
 6171W        W71332  41.189   6.370   2.703
 6172W        W71333  30.546  23.102  12.420
 6173W        W71334  14.948  18.622   2.832
 6174W        W71335  27.002  42.966   4.472
 6175W        W71336  14.640  30.687  14.864
 6176W        W71337  39.664  10.144  11.526
 6177W        W71338  14.931  35.632   4.106
 6178W        W71339   6.860  17.130  10.495
 6179W        W71340  43.516  29.705  14.706
 6180W        W71341  39.876  36.427  14.320
 6181W        W71342  38.893  43.948   1.916
 6182W        W71343   6.920   3.726   1.629
 6183W        W71344  21.955  27.611   1.750
 6184W        W71345  25.658  40.833  12.529
 6185W        W71346  28.593  40.702  14.309
 6186W        W71347   4.213  31.972   1.796
 6187W        W71348  23.401  43.950  12.071
 6188W        W71349  34.068  26.979  12.685
 6189W        W71350  10.107  21.020   1.249
 6190W        W71351   6.479   6.203  11.600
 6191W        W71352   3.124   3.762  11.138
 6192W        W71353  32.005  37.902   1.290
 6193W        W71354   7.376  36.816  13.156
 6194W        W71355   6.004  28.516   0.975
 6195W        W71356  16.978  40.493  14.334
 6196W        W71357  12.207  30.092   4.559
 6197W        W71358  13.081  16.241  10.819
 6198W        W71359  38.118   1.317   5.004
 6199W        W71360  10.903  39.927   3.446
 6200W        W71361  13.714  14.632   3.483
 6201W        W71362  28.729  39.649  13.360
 6202W        W71363  21.762  35.541   4.613
 6203W        W71364  26.795  24.285  14.333
 6204W        W71365   9.313   4.744   2.290
 6205W        W71366  12.161  21.621  14.912
 6206W        W71367   7.117  30.939   3.401
 6207W        W71368   4.390  30.369   1.431
 6208W        W71369   7.782  31.982   3.266
 6209W        W71370   0.013  43.051  14.315
 6210W        W71371  32.020  26.742   4.855
 6211W        W71372   3.880  24.575   0.164
 6212W        W71373  18.982  26.026  14.558
 6213W        W71374  15.780   5.213   1.830
 6214W        W71375   0.870  23.472   4.132
 6215W        W71376   4.956  23.405   3.759
 6216W        W71377  34.605  21.472  13.455
 6217W        W71378  30.057   0.335  14.743
 6218W        W71379  10.264  43.322  13.934
 6219W        W71380  14.815  31.653   0.767
 6220W        W71381  13.607  16.221   0.144
 6221W        W71382  43.400  11.308  10.441
 6222W        W71383  23.503  34.882   4.258
 6223W        W71384  12.632  42.874   0.028
 6224W        W71385  31.154  41.807   3.733
 6225W        W71386  27.615  10.422  13.773
 6226W        W71387  30.815  13.763  10.913
 6227W        W71388  11.269  31.290  12.986
 6228W        W71389   9.734  21.244  13.339
 6229W        W71390  22.099  27.769  14.656
 6230W        W71391  31.531  41.941  12.417
 6231W        W71392   3.809  22.089  12.165
 6232W        W71393  43.844  16.873  11.901
 6233W        W71394  35.369  40.898   2.148
 6234W        W71395  24.824   9.690   0.521
 6235W        W71396   7.795  41.011  13.789
 6236W        W71397  40.890  14.665  12.082
 6237W        W71398  34.626   5.585  14.718
 6238W        W71399  25.228  16.118  13.240
 6239W        W71400  26.050  34.517   3.576
 6240W        W71401   3.006  10.221  13.555
 6241W        W71402  19.239  18.334   2.675
 6242W        W71403  30.189  23.232  14.984
 6243W        W71404  30.464  33.877  11.706
 6244W        W71405  28.171  37.260   4.411
 6245W        W71406  23.816   7.603  12.961
 6246W        W71407  29.009  36.154   0.556
 6247W        W71408  27.436  23.464  11.995
 6248W        W71409  40.842  18.138  13.488
 6249W        W71410  14.745  37.490  14.824
 6250W        W71411  41.832  28.329  12.657
 6251W        W71412   0.185   9.059  14.209
 6252W        W71413   3.141  17.136  12.838
 6253W        W71414  23.038   9.943  14.485
 6254W        W71415  31.211  31.940   5.001
 6255W        W71416  15.352   1.184   0.286
 6256W        W71417  13.576  18.291  11.073
 6257W        W71418  43.304  39.794   0.694
 6258W        W71419   3.413  28.645  14.738
 6259W        W71420   3.394  40.121  10.165
 6260W        W71421  42.278  31.634  14.352
 6261W        W71422  30.876  29.595  12.940
 6262W        W71423  27.851   6.951   2.787
 6263W        W71424  38.432  28.092  13.095
 6264W        W71425  13.916  20.114   0.176
 6265W        W71426  28.239  38.475   2.203
 6266W        W71427  10.707  11.517   2.323
 6267W        W71428   9.644  32.515   2.045
 6268W        W71429  35.456  23.650   0.992
 6269W        W71430  19.705   2.363   4.179
 6270W        W71431  19.769  24.804   2.938
 6271W        W71432  28.643  14.431  13.783
 6272W        W71433  28.952  18.710  11.564
 6273W        W71434  17.395  35.591  14.384
 6274W        W71435  29.938  39.297   3.390
 6275W        W71436   8.541  16.324  14.855
 6276W        W71437  16.643  18.973  12.230
 6277W        W71438   6.680   4.687  14.403
 6278W        W71439  29.155   5.847   4.889
 6279W        W71440  38.849   1.611  12.462
 6280W        W71441  25.105  15.426  14.402
 6281W        W71442  35.861  13.650   3.181
 6282W        W71443  30.126  39.814  10.549
 6283W        W71444  27.448   4.833  13.868
 6284W        W71445   2.542  14.173   4.347
 6285W        W71446   7.683  31.133  10.991
 6286W        W71447   7.893   9.160   2.208
 6287W        W71448  36.708   4.138   2.649
 6288W        W71449  27.101  19.860   2.424
 6289W        W71450  23.803  39.011   0.482
 6290W        W71451  37.563  20.762   3.571
 6291W        W71452  42.623  12.640  14.157
 6292W        W71453  25.428  36.925  11.526
 6293W        W71454  29.604  18.688   2.643
 6294W        W71455  16.458  32.442  13.857
 6295W        W71456   0.027  44.869  14.838
 6296W        W71457   2.319   5.598  14.201
 6297W        W71458  39.262   6.950  11.725
 6298W        W71459  39.595  42.065  11.542
 6299W        W71460  27.007  23.439   4.513
 6300W        W71461  39.444  33.344  12.913
 6301W        W71462   7.307  39.916  11.662
 6302W        W71463  21.459  12.228   3.111
 6303W        W71464  15.550  25.623   0.892
 6304W        W71465  37.186   1.981   1.277
 6305W        W71466   2.697  15.581  14.855
 6306W        W71467  20.135   3.221   0.466
 6307W        W71468  30.297  40.994   5.601
 6308W        W71469  18.230  17.801   1.128
 6309W        W71470  25.002  37.287   1.735
 6310W        W71471   7.283   2.308   0.202
 6311W        W71472  41.948  27.729  14.315
 6312W        W71473  40.966   8.912   2.061
 6313W        W71474  15.116   1.745  11.132
 6314W        W71475  22.640  13.934   0.921
 6315W        W71476  27.041   9.240  12.447
 6316W        W71477  24.087  14.064  14.800
 6317W        W71478   2.128  32.171   4.976
 6318W        W71479   6.694   9.854  10.687
 6319W        W71480   1.251  28.247  13.939
 6320W        W71481  35.343  17.085   2.346
 6321W        W71482   8.348  10.358  10.534
 6322W        W71483   3.282  15.295   0.457
 6323W        W71484  41.347  22.990   2.211
 6324W        W71485   7.722  27.091   1.809
 6325W        W71486  29.624  15.659  10.454
 6326W        W71487  32.514  24.977   1.703
 6327W        W71488  14.870  36.124   1.975
 6328W        W71489   7.218   1.946  14.785
 6329W        W71490  42.307  25.788   2.206
 6330W        W71491  15.038   9.193  12.125
 6331W        W71492  40.085  20.616  13.388
 6332W        W71493   7.068   0.648  13.515
 6333W        W71494  10.615  37.825   0.426
 6334W        W71495  27.022   8.804   1.694
 6335W        W71496  23.613  44.384  13.397
 6336W        W71497  21.939  30.200  14.449
 6337W        W71498  35.423  17.272  12.486
 6338W        W71499   1.937  30.948  14.236
 6339W        W71500  43.883  23.420  13.399
 6340W        W71501  32.031  14.546   0.845
 6341W        W71502  22.307   8.268   1.278
 6342W        W71503  29.866  36.004  10.891
 6343W        W71504  37.777  23.296   4.036
 6344W        W71505  19.298  32.894  11.706
 6345W        W71506  41.897   5.326  12.424
 6346W        W71507  21.061  23.235   1.080
 6347W        W71508  43.296  19.860  14.256
 6348W        W71509   2.763  16.148  13.507
 6349W        W71510  41.275  16.298  12.060
 6350W        W71511  20.543  17.913   0.320
 6351W        W71512   7.572   1.966  13.501
 6352W        W71513  19.509  29.472   0.967
 6353W        W71514  44.889  20.209   4.752
 6354W        W71515  44.288  38.342   3.102
 6355W        W71516   3.355  30.702   4.093
 6356W        W71517  25.801  17.867  10.840
 6357W        W71518  28.841  37.858  14.839
 6358W        W71519  41.974  40.333   3.687
 6359W        W71520  14.642  12.051  12.948
 6360W        W71521  29.226   9.759  14.436
 6361W        W71522   0.797  19.272  12.077
 6362W        W71523  23.541  22.090   3.094
 6363W        W71524   9.898  30.931   3.206
 6364W        W71525   8.377  13.233   2.283
 6365W        W71526  28.059  29.227  12.049
 6366W        W71527  18.675  36.082  11.636
 6367W        W71528  13.159  13.665  13.192
 6368W        W71529  30.909  25.462  14.490
 6369W        W71530  35.788   1.275   3.024
 6370W        W71531  15.148   0.996  12.448
 6371W        W71532  10.134  24.993  10.687
 6372W        W71533   3.477  27.300  11.248
 6373W        W71534   5.074   7.790   1.686
 6374W        W71535  29.466  19.261  12.114
 6375W        W71536  29.345  44.174  11.110
 6376W        W71537   2.147  32.658  11.166
 6377W        W71538  35.061   3.474   4.060
 6378W        W71539  42.030  42.141   0.021
 6379W        W71540  12.911  28.051  12.040
 6380W        W71541  30.867  18.397   4.998
 6381W        W71542  29.537  43.312  12.610
 6382W        W71543  19.817  38.829  12.064
 6383W        W71544   3.456  36.141  13.021
 6384W        W71545   9.979  18.765  14.830
 6385W        W71546  29.941  21.532   0.823
 6386W        W71547   9.683  14.752  13.619
 6387W        W71548  43.602  44.030   3.522
 6388W        W71549  10.840  30.834   1.105
 6389W        W71550   2.624  32.764   2.220
 6390W        W71551  38.131  23.090   2.225
 6391W        W71552  24.913  29.969  14.362
 6392W        W71553  38.917  30.939   2.374
 6393W        W71554  30.930   2.857  14.748
 6394W        W71555  22.258  31.380   0.530
 6395W        W71556  28.952   7.183  11.460
 6396W        W71557  42.039  12.628  11.174
 6397W        W71558  22.166  40.184   5.079
 6398W        W71559  14.845  22.740  11.731
 6399W        W71560   4.672  13.391   4.441
 6400W        W71561  30.813  42.250   3.277
 6401W        W71562  25.609  41.799  12.676
 6402W        W71563  28.714  33.608   3.304
 6403W        W71564  33.612  21.866   3.441
 6404W        W71565  17.209  21.116  13.838
 6405W        W71566  26.627  11.393  14.988
 6406W        W71567   1.290  13.720  12.180
 6407W        W71568  17.633   3.831  11.819
 6408W        W71569  22.656  32.173  13.447
 6409W        W71570  44.503  36.408   4.189
 6410W        W71571  11.442  28.229  11.630
 6411W        W71572  38.268  10.791  13.857
 6412W        W71573   1.027  21.531  13.656
 6413W        W71574  43.729  41.958  12.398
 6414W        W71575   5.240  34.460   4.136
 6415W        W71576  38.397   0.744   3.906
 6416W        W71577  30.503  20.590  11.937
 6417W        W71578  40.765  23.399  13.160
 6418W        W71579  33.414  44.943  12.246
 6419W        W71580  18.090  44.100  12.523
 6420W        W71581  19.740  44.128  11.554
 6421W        W71582  18.567   8.270  14.401
 6422W        W71583   9.990  36.042   3.392
 6423W        W71584  31.438   9.321   4.961
 6424W        W71585  35.150  29.699  11.999
 6425W        W71586  40.789  27.434   1.302
 6426W        W71587  28.137  12.851  13.373
 6427W        W71588  15.597  27.545   2.944
 6428W        W71589   5.286  14.219  12.365
 6429W        W71590  34.774  22.350  12.482
 6430W        W71591  23.795  14.436  14.548
 6431W        W71592   0.057  14.390  12.172
 6432W        W71593  22.276  38.658  11.905
 6433W        W71594  39.459  44.349  11.304
 6434W        W71595  28.880  23.167  10.927
 6435W        W71596  15.155  26.689  10.954
 6436W        W71597  26.664  12.722   1.931
 6437W        W71598  23.098  25.785   3.776
 6438W        W71599  16.104  34.913   1.176
 6439W        W71600  20.290   5.873  13.449
 6440W        W71601  22.233  33.925  14.297
 6441W        W71602  12.592   1.154   4.126
 6442W        W71603  36.344   5.004   2.605
 6443W        W71604  10.697  16.836  14.527
 6444W        W71605   4.236  13.534  10.713
 6445W        W71606   7.970   6.310  14.493
 6446W        W71607  26.810  12.115  13.238
 6447W        W71608   9.948  27.084  12.465
 6448W        W71609  30.010  21.940  13.064
 6449W        W71610  12.360  12.188   4.190
 6450W        W71611  24.321  10.337  10.331
 6451W        W71612  24.406  28.717  13.979
 6452W        W71613  22.506  27.153   0.863
 6453W        W71614   4.712   7.985   2.011
 6454W        W71615  41.315   3.933  12.921
 6455W        W71616  17.523  37.899   1.120
 6456W        W71617  33.957   4.458   2.852
 6457W        W71618  41.293   3.453   0.931
 6458W        W71619  18.686  18.072  13.907
 6459W        W71620  36.590  44.734  13.424
 6460W        W71621  24.815  22.199   2.633
 6461W        W71622   3.597   9.101   2.383
 6462W        W71623  10.476  11.699   0.831
 6463W        W71624  20.470   7.781  13.777
 6464W        W71625  28.646   7.898  14.352
 6465W        W71626  24.226  33.585  12.508
 6466W        W71627  38.542   4.924   1.949
 6467W        W71628  30.996   9.334   1.648
 6468W        W71629   7.890  26.958   2.687
 6469W        W71630  13.594   9.851   4.591
 6470W        W71631  29.847  35.498   2.815
 6471W        W71632  26.678  20.061   0.252
 6472W        W71633  19.490  29.887  12.561
 6473W        W71634  16.968  42.035  10.156
 6474W        W71635  40.798   4.159  11.877
 6475W        W71636  20.598   7.273  11.101
 6476W        W71637  24.694  10.675   2.267
 6477W        W71638   3.346   9.129   4.676
 6478W        W71639  20.203  35.033   0.439
 6479W        W71640  10.809  11.338   1.010
 6480W        W71641  17.539   2.285   3.093
 6481W        W71642  35.989  10.735  11.701
 6482W        W71643  11.324  23.220  12.827
 6483W        W71644   8.618   2.970   3.749
 6484W        W71645   3.063  14.467  13.057
 6485W        W71646  13.177   1.997   4.221
 6486W        W71647   3.668   8.895  14.937
 6487W        W71648  14.473  18.840  14.902
 6488W        W71649  17.328   5.720   3.909
 6489W        W71650   1.473  29.633   2.792
 6490W        W71651  24.326  44.986  13.483
 6491W        W71652   4.175  31.400   0.502
 6492W        W71653  42.973  32.085  13.025
 6493W        W71654  23.378  27.297  10.793
 6494W        W71655  38.021  43.583  11.358
 6495W        W71656  43.445  34.885   3.574
 6496W        W71657   3.865  15.225   0.919
 6497W        W71658   1.120  37.700  11.201
 6498W        W71659  34.387  25.650   0.283
 6499W        W71660   2.214  27.238   2.382
 6500W        W71661  26.059  12.779   0.798
 6501W        W71662   9.427  44.175  14.499
 6502W        W71663  34.057  36.736  14.570
 6503W        W71664   3.242  23.620  12.623
 6504W        W71665  14.372  24.196   2.007
 6505W        W71666  12.131  43.825  12.907
 6506W        W71667  14.415   5.300  13.073
 6507W        W71668   1.661  26.780  14.807
 6508W        W71669  27.528  35.438   4.928
 6509W        W71670   0.413  34.109  12.242
 6510W        W71671  41.715  19.480  13.469
 6511W        W71672   2.842  19.324  14.066
 6512W        W71673  10.708  24.683   4.170
 6513W        W71674  37.470  19.727  14.463
 6514W        W71675  10.121  31.520  10.739
 6515W        W71676  38.115  34.495   1.237
 6516W        W71677  21.320  14.554  12.816
 6517W        W71678  36.938   6.433  11.584
 6518W        W71679   8.111  11.846  13.046
 6519W        W71680  31.821  37.495   0.566
 6520W        W71681   0.320   6.365  10.674
 6521W        W71682   5.411  24.404  13.910
 6522W        W71683  40.214  44.574   4.858
 6523W        W71684   9.760   7.033  10.487
 6524W        W71685  11.096  30.129   2.699
 6525W        W71686  16.442  11.275   0.902
 6526W        W71687  41.601  27.125  11.347
 6527W        W71688  41.448  16.744   1.143
 6528W        W71689  14.580  29.959  14.524
 6529W        W71690  17.027  32.399   4.745
 6530W        W71691  13.115  12.276  13.659
 6531W        W71692   4.826  36.539   2.312
 6532W        W71693  33.556   9.871   0.319
 6533W        W71694  32.817  35.983   4.166
 6534W        W71695  10.398  13.170  12.903
 6535W        W71696  34.635  35.017  11.114
 6536W        W71697  35.096  28.613  13.954
 6537W        W71698  20.995  30.360   0.437
 6538W        W71699  17.067  26.590   3.707
 6539W        W71700  30.167  38.936   4.651
 6540W        W71701  29.343  26.668  14.333
 6541W        W71702  40.443   1.156  10.818
 6542W        W71703  36.906  14.044   4.563
 6543W        W71704  23.593  39.244   4.685
 6544W        W71705  14.569  21.045  13.513
 6545W        W71706  15.758   9.807   0.856
 6546W        W71707  23.716   6.872  13.942
 6547W        W71708  43.710   2.416  13.299
 6548W        W71709  34.948  10.543   3.837
 6549W        W71710  39.401  33.829  13.083
 6550W        W71711   4.233  23.444  10.945
 6551W        W71712  28.495   9.349   3.500
 6552W        W71713  22.220  24.659   2.280
 6553W        W71714  44.684  39.092  10.263
 6554W        W71715  34.427   3.710  14.270
 6555W        W71716  11.101  36.011   2.371
 6556W        W71717   7.486  41.683  11.665
 6557W        W71718  13.972   6.689  14.149
 6558W        W71719  14.677  43.470   0.313
 6559W        W71720  37.719   0.394   1.769
 6560W        W71721  12.366   4.260  12.059
 6561W        W71722  24.253  12.267  12.914
 6562W        W71723  13.171  35.894   0.355
 6563W        W71724  18.193  23.693   1.184
 6564W        W71725  39.614  34.517   1.511
 6565W        W71726  37.417  22.471  12.499
 6566W        W71727  42.032   8.222   3.562
 6567W        W71728  12.931   2.132   2.303
 6568W        W71729  19.615  21.941   1.929
 6569W        W71730   2.384  32.389  11.536
 6570W        W71731   8.536  26.823  11.194
 6571W        W71732   0.938  44.549  11.594
 6572W        W71733  13.071  16.936   4.618
 6573W        W71734   8.437  35.510   4.904
 6574W        W71735  38.028  25.188  12.467
 6575W        W71736  13.661  40.713  13.099
 6576W        W71737  33.470  20.174  11.528
 6577W        W71738  21.460  38.580   0.321
 6578W        W71739  13.660  28.147  12.925
 6579W        W71740   8.867   6.900  13.745
 6580W        W71741  12.505  26.647  14.248
 6581W        W71742  44.238  34.408   1.729
 6582W        W71743   4.736  29.102  11.241
 6583W        W71744  39.633  41.744  12.983
 6584W        W71745  26.532  35.344   2.416
 6585W        W71746  26.895   5.866  14.366
 6586W        W71747  21.172  34.472  13.911
 6587W        W71748  24.541   1.169   0.862
 6588W        W71749  27.675  17.137   3.856
 6589W        W71750   0.143  21.115   0.820
 6590W        W71751  27.574  32.162   3.390
 6591W        W71752  38.301  37.987  13.405
 6592W        W71753  31.955  43.103  11.024
 6593W        W71754  32.719  33.048   1.689
 6594W        W71755  42.714  15.708  12.987
 6595W        W71756  39.512  27.361  13.332
 6596W        W71757  31.562  26.233   3.224
 6597W        W71758  21.575  41.972  11.928
 6598W        W71759  42.035  39.858  11.454
 6599W        W71760  26.383  20.599  12.197
 6600W        W71761  18.782  21.686  11.596
 6601W        W71762  39.615  22.675  11.434
 6602W        W71763  13.309  12.074   4.879
 6603W        W71764  11.781  28.161   3.225
 6604W        W71765  38.502   3.887  13.842
 6605W        W71766  27.281   7.449   2.106
 6606W        W71767  25.268  31.197   1.376
 6607W        W71768  17.968  11.596  10.551
 6608W        W71769   7.228  44.864   0.395
 6609W        W71770  36.637  42.541  14.370
 6610W        W71771  25.437  44.524   2.578
 6611W        W71772  11.548  18.767  13.812
 6612W        W71773   0.807  14.291   0.213
 6613W        W71774  28.483  33.907   4.628
 6614W        W71775  37.804  30.458  12.956
 6615W        W71776   3.176  13.956  13.071
 6616W        W71777  30.079  29.126  13.951
 6617W        W71778  34.286  43.407  14.871
 6618W        W71779  15.319  34.847   2.866
 6619W        W71780   8.755  38.324  13.900
 6620W        W71781  34.084   1.645  11.365
 6621W        W71782  38.945   0.780  13.854
 6622W        W71783  43.960  33.536   3.782
 6623W        W71784  35.058  31.943  14.238
 6624W        W71785  25.785  40.352  12.433
 6625W        W71786   1.291   7.910   1.052
 6626W        W71787  12.106  18.108   0.861
 6627W        W71788   7.278  32.186  10.336
 6628W        W71789   5.806  15.279   0.869
 6629W        W71790  22.722  26.580  10.732
 6630W        W71791  13.062  35.944  12.422
 6631W        W71792  34.548   1.506  11.968
 6632W        W71793  43.121   9.401  14.527
 6633W        W71794  24.944  33.670   2.554
 6634W        W71795  13.730  36.479   1.521
 6635W        W71796  13.264   9.141  11.612
 6636W        W71797  19.917  28.154  12.463
 6637W        W71798   5.350  44.490   2.736
 6638W        W71799  13.632  31.376  10.645
 6639W        W71800  19.042  12.826   1.290
 6640W        W71801  10.767  32.668   1.335
 6641W        W71802  30.726   7.361  14.801
 6642W        W71803  32.377  19.766   1.352
 6643W        W71804  38.053  37.124  12.482
 6644W        W71805  38.931  28.548   4.199
 6645W        W71806   8.364  19.628  13.382
 6646W        W71807   0.105  19.070   0.472
 6647W        W71808  36.486  20.602   5.103
 6648W        W71809  25.755   1.463   0.394
 6649W        W71810  10.841   7.857   3.944
 6650W        W71811  19.702  24.460   2.335
 6651W        W71812  35.611  34.409   2.856
 6652W        W71813  36.275  30.040  10.713
 6653W        W71814  32.694  43.534   1.764
 6654W        W71815   1.767  13.077  12.502
 6655W        W71816  16.024  35.849  11.401
 6656W        W71817  32.183   4.523  11.915
 6657W        W71818  35.522  26.145   1.298
 6658W        W71819  36.534  22.306   2.688
 6659W        W71820   7.162  38.970   1.243
 6660W        W71821  26.950  20.713   1.336
 6661W        W71822  12.986   8.192  13.330
 6662W        W71823  34.492  43.739   2.771
 6663W        W71824   4.690  19.070   2.448
 6664W        W71825   2.407   0.876  13.125
 6665W        W71826  38.796  17.219  14.873
 6666W        W71827  16.970   4.674   1.262
 6667W        W71828  40.404  16.596  14.723
 6668W        W71829   0.285   1.316   0.799
 6669W        W71830   5.490  26.332  12.625
 6670W        W71831  32.050  16.601  13.273
 6671W        W71832   0.419  36.914  13.759
 6672W        W71833  12.628  20.433   1.052
 6673W        W71834  41.096   4.323  10.711
 6674W        W71835  36.989  25.277   1.313
 6675W        W71836  42.797   3.113  14.450
 6676W        W71837   6.590   1.316  14.936
 6677W        W71838  16.217   2.513  14.771
 6678W        W71839  20.754  36.378  13.776
 6679W        W71840  23.440  20.010   3.203
 6680W        W71841  40.977  21.092   1.038
 6681W        W71842  28.592  15.825  14.912
 6682W        W71843  31.009  30.721   1.692
 6683W        W71844  44.443  20.823  12.167
 6684W        W71845  28.073   2.956  10.693
 6685W        W71846  31.993  33.953  13.914
 6686W        W71847   3.481  29.444   3.695
 6687W        W71848  14.198  21.191  12.395
 6688W        W71849  40.774  19.562   4.238
 6689W        W71850  14.118  11.873  14.407
 6690W        W71851   1.407  11.570  10.308
 6691W        W71852  13.576  40.790   4.247
 6692W        W71853  26.641   3.215  14.257
 6693W        W71854  36.639  36.017  10.807
 6694W        W71855  39.503  25.491  14.832
 6695W        W71856  43.089  15.080  11.084
 6696W        W71857  38.545  43.821  13.404
 6697W        W71858  28.663  13.126   0.936
 6698W        W71859   0.415  13.819   0.918
 6699W        W71860  11.117   2.924  11.345
 6700W        W71861  41.467   1.967   0.540
 6701W        W71862  36.320   1.755  14.158
 6702W        W71863   8.635  31.222   3.921
 6703W        W71864  27.751   6.350  10.659
 6704W        W71865  18.276  27.758  13.029
 6705W        W71866  11.624  25.345   1.536
 6706W        W71867  44.362  38.621   2.628
 6707W        W71868   6.688  29.706   4.144
 6708W        W71869  34.126  22.101  13.937
 6709W        W71870  10.703  23.582  13.536
 6710W        W71871  43.878  12.128   2.588
 6711W        W71872  16.823  24.618  11.350
 6712W        W71873  14.105   5.302   4.098
 6713W        W71874   1.299  10.763  12.021
 6714W        W71875  14.876  24.074   1.288
 6715W        W71876  15.546   9.949   2.378
 6716W        W71877  31.564  23.983  13.508
 6717W        W71878  26.547  13.371   1.302
 6718W        W71879  28.852  42.256  11.908
 6719W        W71880  16.456  28.887  11.472
 6720W        W71881  38.627  20.299  10.997
 6721W        W71882  16.827   8.889   2.602
 6722W        W71883  31.003  33.612  10.622
 6723W        W71884  30.856  33.128   1.846
 6724W        W71885  37.515  29.938   4.582
 6725W        W71886  31.969  37.366   3.435
 6726W        W71887  42.362  19.658   3.589
 6727W        W71888  39.210  39.374  10.360
 6728W        W71889  31.500  15.321   0.946
 6729W        W71890  31.124  38.560  11.120
 6730W        W71891   4.100  22.059  13.484
 6731W        W71892  43.419  24.953  12.129
 6732W        W71893   0.986   1.977  14.799
 6733W        W71894  36.013  40.138   3.923
 6734W        W71895  21.739  26.423  13.495
 6735W        W71896  32.940  22.251   4.629
 6736W        W71897   9.307   3.602  12.251
 6737W        W71898  17.793  24.055  12.954
 6738W        W71899  23.524  41.296   2.364
 6739W        W71900  23.731   7.302  12.180
 6740W        W71901  35.272   6.504  10.812
 6741W        W71902  39.339  13.582  14.234
 6742W        W71903  27.418  15.162  14.807
 6743W        W71904   1.606  17.698  14.064
 6744W        W71905  19.983  39.604  11.500
 6745W        W71906  35.297  34.524   2.421
 6746W        W71907  11.949  24.413   4.196
 6747W        W71908   6.864  16.544   3.802
 6748W        W71909  33.507  30.997  11.648
 6749W        W71910  16.099  17.118  12.389
 6750W        W71911  42.222  35.666   5.568
 6751W        W71912  29.316   5.814   0.464
 6752W        W71913  30.763   2.757   1.336
 6753W        W71914   6.947   1.260  11.581
 6754W        W71915  13.712  14.619  14.888
 6755W        W71916  42.427  12.480   1.689
 6756W        W71917  30.646  24.655   4.849
 6757W        W71918  21.188  17.078   0.363
 6758W        W71919  37.123  17.688  12.487
 6759W        W71920  28.589  41.495  10.174
 6760W        W71921  26.510  11.132   3.287
 6761W        W71922  25.530  33.621  13.619
 6762W        W71923  15.219  11.355  13.827
 6763W        W71924  11.283  10.037  12.851
 6764W        W71925  34.072  18.167  10.647
 6765W        W71926  11.835  24.873  14.354
 6766W        W71927  30.117  42.962  13.541
 6767W        W71928  38.815  12.672   0.296
 6768W        W71929  14.712  30.728   1.266
 6769W        W71930  37.290  35.910   4.733
 6770W        W71931  24.217  10.847   0.392
 6771W        W71932   1.311  25.522  10.543
 6772W        W71933  24.261  32.424  11.951
 6773W        W71934  15.754  31.138   1.158
 6774W        W71935  39.488   0.487   2.824
 6775W        W71936   0.420   9.773  10.636
 6776W        W71937  24.242  34.108  13.554
 6777W        W71938  29.530  25.138   4.534
 6778W        W71939  23.513   9.592  11.937
 6779W        W71940   7.299  22.694   0.448
 6780W        W71941  29.095  25.581  13.863
 6781W        W71942   7.899  18.641   0.354
 6782W        W71943  41.608  20.366  11.144
 6783W        W71944  22.199   3.173  11.138
 6784W        W71945  23.565  14.265   0.878
 6785W        W71946  12.741  41.307  13.070
 6786W        W71947  19.631  14.255   1.153
 6787W        W71948  40.871   7.712   3.787
 6788W        W71949  22.047  10.195   4.521
 6789W        W71950  30.098  28.433   0.291
 6790W        W71951  20.512  33.743   1.193
 6791W        W71952  17.570  29.182   0.339
 6792W        W71953  18.746   8.125   4.111
 6793W        W71954  15.266  40.640   0.335
 6794W        W71955  12.141  20.591  10.604
 6795W        W71956  21.026  20.998  13.888
 6796W        W71957  20.128  35.360   1.790
 6797W        W71958  40.890   4.624   2.000
 6798W        W71959   0.411  41.040  13.741
 6799W        W71960   6.166  35.791  13.878
 6800W        W71961  30.579  33.410   3.434
 6801W        W71962  32.568   0.412  12.495
 6802W        W71963  40.038  21.143  13.434
 6803W        W71964  24.173  42.905   0.442
 6804W        W71965   8.426  39.636   4.337
 6805W        W71966  18.863  32.799   0.921
 6806W        W71967  18.826   7.461  11.754
 6807W        W71968  10.239  20.847   4.617
 6808W        W71969  20.983  33.566   1.299
 6809W        W71970  43.611  41.235   1.905
 6810W        W71971  32.294  16.163  12.699
 6811W        W71972  40.744  10.409   2.855
 6812W        W71973   7.488   0.244   1.814
 6813W        W71974  27.447  16.815  12.478
 6814W        W71975   1.950  12.577   3.578
 6815W        W71976   6.697  43.586   0.376
 6816W        W71977  37.603  38.127  10.560
 6817W        W71978   8.391  40.933   4.114
 6818W        W71979  39.510  40.302  11.088
 6819W        W71980   7.810   1.082   0.208
 6820W        W71981  11.244  36.517   3.734
 6821W        W71982  39.571  16.133   2.730
 6822W        W71983  27.614  11.854  13.530
 6823W        W71984  23.870  13.255   4.465
 6824W        W71985  41.930  32.948  10.659
 6825W        W71986   7.778  44.098  14.714
 6826W        W71987   0.142  31.421   2.244
 6827W        W71988  26.664  18.494   4.268
 6828W        W71989  23.554  12.205   3.918
 6829W        W71990   2.422  33.453   4.522
 6830W        W71991  21.842  35.419  11.257
 6831W        W71992   2.763   1.284  12.162
 6832W        W71993   5.269  40.346  14.757
 6833W        W71994  31.484   8.497  10.956
 6834W        W71995   7.210  16.238  14.051
 6835W        W71996  13.777  26.880  12.580
 6836W        W71997  30.969  36.550  10.810
 6837W        W71998  10.646  33.477   4.074
 6838W        W71999  28.494  20.977  14.408
 6839W        W72000  29.073  15.850   1.893
 6840W        W72001   3.372  21.008  14.708
 6841W        W72002  37.394  44.448  12.041
 6842W        W72003  36.890  12.805   4.372
 6843W        W72004   3.579  18.445  12.095
 6844W        W72005  28.417  20.798  10.727
 6845W        W72006  41.774  36.678  10.538
 6846W        W72007  23.806  37.500  14.803
 6847W        W72008  36.987  23.035   0.071
 6848W        W72009  23.063  18.142  11.210
 6849W        W72010  19.261  11.857   0.438
 6850W        W72011   3.659  30.507  13.892
 6851W        W72012  33.130   8.838   1.380
 6852W        W72013  17.605  32.591   1.063
 6853W        W72014  31.023  39.827  10.620
 6854W        W72015  31.148   4.625   2.222
 6855W        W72016  22.934  37.997   5.040
 6856W        W72017  44.772  40.006   3.792
 6857W        W72018  10.645  44.655  14.808
 6858W        W72019  42.800   1.889   2.727
 6859W        W72020   3.777  16.195   4.603
 6860W        W72021   3.126   8.340  13.936
 6861W        W72022  38.100  37.012  11.132
 6862W        W72023   5.918   7.652  12.916
 6863W        W72024  36.352  39.767   1.270
 6864W        W72025  21.127  42.886  13.988
 6865W        W72026  13.021  21.223   3.233
 6866W        W72027   9.439  13.712  12.467
 6867W        W72028  26.658  34.886  14.960
 6868W        W72029  35.760  26.517  13.379
 6869W        W72030  19.063   7.605  13.939
 6870W        W72031  39.556  31.842  14.976
 6871W        W72032  16.353  10.794   3.795
 6872W        W72033  42.496  36.859  14.135
 6873W        W72034  14.236   8.651   0.780
 6874W        W72035  23.207   3.528  13.114
 6875W        W72036  32.155  18.957   1.264
 6876W        W72037  13.645  42.334   5.288
 6877W        W72038   7.694  21.140   3.696
 6878W        W72039  25.130  19.292  12.360
 6879W        W72040  33.958  26.964   1.317
 6880W        W72041  42.719  22.582   4.185
 6881W        W72042   1.915  20.209   0.800
 6882W        W72043   5.830  18.818   2.875
 6883W        W72044  31.026  23.275   2.302
 6884W        W72045  34.524  12.435  14.569
 6885W        W72046  18.610  20.729   3.648
 6886W        W72047   9.317   1.281   2.760
 6887W        W72048  34.583  10.655  12.458
 6888W        W72049  34.250  36.987  10.657
 6889W        W72050   0.758  27.486   3.251
 6890W        W72051  38.811  13.032   1.989
 6891W        W72052  44.028  22.099  14.635
 6892W        W72053   8.424  27.038  12.539
 6893W        W72054  26.885   8.863  13.934
 6894W        W72055   1.522  24.608  10.940
 6895W        W72056  40.324   5.559   0.873
 6896W        W72057  30.478  16.589   1.425
 6897W        W72058  17.276   0.038   9.643
 6898W        W72059  35.911   5.984  10.776
 6899W        W72060  12.627  19.322  10.790
 6900W        W72061  30.734  28.275  12.005
 6901W        W72062  19.747  35.077   0.676
 6902W        W72063  26.229   9.660  12.962
 6903W        W72064  44.064   7.288   3.249
 6904W        W72065  27.514   9.226  13.723
 6905W        W72066  18.314  40.235   2.778
 6906W        W72067  18.350  42.858   0.043
 6907W        W72068  11.703  31.009   1.728
 6908W        W72069  35.552   6.940  10.916
 6909W        W72070  14.658  30.501   1.798
 6910W        W72071  13.210  19.663  10.681
 6911W        W72072   5.214  21.281   3.332
 6912W        W72073  36.846   2.135  11.190
 6913W        W72074  40.507  14.079   1.892
 6914W        W72075  17.296   8.963   2.818
 6915W        W72076  33.723  39.186  12.609
 6916W        W72077  34.086   1.762   1.936
 6917W        W72078   1.480  25.265  13.035
 6918W        W72079  38.373  28.504  14.867
 6919W        W72080  13.192   0.191  10.724
 6920W        W72081  23.917  11.526   1.260
 6921W        W72082  20.821   0.589   4.749
 6922W        W72083   5.899  43.411   2.745
 6923W        W72084  23.946  26.660  12.430
 6924W        W72085   7.936   0.055   1.995
 6925W        W72086   8.267  19.319   4.306
 6926W        W72087  40.857   9.547  11.661
 6927W        W72088  36.955  31.092  11.567
 6928W        W72089  26.043  29.993  13.509
 6929W        W72090  28.395  30.899   1.185
 6930W        W72091   6.527   5.407  11.058
 6931W        W72092  14.682   4.880  12.865
 6932W        W72093   0.825  11.915  10.317
 6933W        W72094  27.019   6.309   2.397
 6934W        W72095  33.680   0.394  10.238
 6935W        W72096  41.349  12.807   4.716
 6936W        W72097  35.555  15.584   3.249
 6937W        W72098  43.753  43.836   0.801
 6938W        W72099  33.066   0.763   3.573
 6939W        W72100  27.638  41.073   3.654
 6940W        W72101  35.868  44.933   4.088
 6941W        W72102  19.746   9.248   0.620
 6942W        W72103  23.947  29.633  12.088
 6943W        W72104  44.081  28.581   1.662
 6944W        W72105  13.046  43.314   3.209
 6945W        W72106  12.154  26.186   2.751
 6946W        W72107  21.176   6.653  14.770
 6947W        W72108  26.701  14.657   4.097
 6948W        W72109  27.592  25.437   0.714
 6949W        W72110  40.309  13.722  13.986
 6950W        W72111  23.695  33.313   0.700
 6951W        W72112  32.187  17.593  11.526
 6952W        W72113  35.405  15.470  13.557
 6953W        W72114   8.303   7.275   4.536
 6954W        W72115  19.753  30.878   4.691
 6955W        W72116  21.148  31.139  13.846
 6956W        W72117   1.354  12.407  14.456
 6957W        W72118  31.872   8.780  13.425
 6958W        W72119  41.386  17.285  10.534
 6959W        W72120  21.029  37.850   3.099
 6960W        W72121   0.319   3.353  13.399
 6961W        W72122  13.759  24.656  10.647
 6962W        W72123  24.020   9.294   4.448
 6963W        W72124  24.484   3.483   3.300
 6964W        W72125   5.968  22.084   1.891
 6965W        W72126   9.321  12.643  10.784
 6966W        W72127  20.147  11.869  12.342
 6967W        W72128   7.459   3.455   1.821
 6968W        W72129   7.937  19.750  11.183
 6969W        W72130   0.304   8.513   4.753
 6970W        W72131  35.901  18.059   3.235
 6971W        W72132   9.898  26.020   4.688
 6972W        W72133  10.634  15.971  12.865
 6973W        W72134  26.801  33.384   1.701
 6974W        W72135  11.373   6.884   4.131
 6975W        W72136   4.754   1.070   2.255
 6976W        W72137   6.025  33.554  11.992
 6977W        W72138   1.503   6.198  10.608
 6978W        W72139  25.007   8.568  14.478
 6979W        W72140  28.300  44.914   3.301
 6980W        W72141  14.265   5.886  13.040
 6981W        W72142  23.640   6.636   3.983
 6982W        W72143  35.339  43.955  12.421
 6983W        W72144  22.423  13.823  13.259
 6984W        W72145  15.870   2.792  10.892
 6985W        W72146   2.276  19.772   0.237
 6986W        W72147  40.983  23.831   2.388
 6987W        W72148  23.259  19.951   2.322
 6988W        W72149  43.575  40.808   9.638
 6989W        W72150  30.962  13.383   3.309
 6990W        W72151  26.003  10.254  11.420
 6991W        W72152   5.960   4.670  14.007
 6992W        W72153  36.567  41.282  11.424
 6993W        W72154  31.295  22.177  12.496
 6994W        W72155  16.319  22.228  13.504
 6995W        W72156   1.548  12.578  10.680
 6996W        W72157  25.273  41.553  13.708
 6997W        W72158  28.818   9.872   3.558
 6998W        W72159  16.120  25.230   4.160
 6999W        W72160  18.251   8.286   4.123
 7000W        W72161  15.096  11.383   3.290
 7001W        W72162   8.274  39.600  13.488
 7002W        W72163  12.828  14.880   2.237
 7003W        W72164  43.912  29.909  11.139
 7004W        W72165  38.146   0.642   3.229
 7005W        W72166  41.003  31.023  14.435
 7006W        W72167  22.548  16.281  13.995
 7007W        W72168   1.727  22.143   2.702
 7008W        W72169  38.473   2.844   3.303
 7009W        W72170  40.063   6.342  12.019
 7010W        W72171  22.723  34.009   1.254
 7011W        W72172  27.111  43.945  10.842
 7012W        W72173  39.960   3.811  11.943
 7013W        W72174  36.938  28.486   0.428
 7014W        W72175   9.444  37.014   4.430
 7015W        W72176   8.580  20.321  12.760
 7016W        W72177  34.954  40.740   1.807
 7017W        W72178  39.498  18.385   1.838
 7018W        W72179  41.370  29.194   1.226
 7019W        W72180   9.920   3.672  11.628
 7020W        W72181  29.395   3.289   3.138
 7021W        W72182  24.003  31.029   1.859
 7022W        W72183  40.982   0.378  12.298
 7023W        W72184  18.403  37.018  12.071
 7024W        W72185  43.672  23.716  10.856
 7025W        W72186  11.425  42.301  11.498
 7026W        W72187   4.756  10.165   0.869
 7027W        W72188  44.852  43.908  10.541
 7028W        W72189   5.287  15.848  12.952
 7029W        W72190  36.827  25.170  14.346
 7030W        W72191   6.236   1.308   3.661
 7031W        W72192  32.658  11.869   2.848
 7032W        W72193  40.427  22.814   2.710
 7033W        W72194   9.080  21.414  12.094
 7034W        W72195  11.207  29.453   0.314
 7035W        W72196  10.066  10.389  11.570
 7036W        W72197  37.913   5.036  14.904
 7037W        W72198  36.689  38.535   4.601
 7038W        W72199  20.599  42.911   9.825
 7039W        W72200  38.035  37.942   2.948
 7040W        W72201  20.575  14.013  11.592
 7041W        W72202  16.070  42.318  12.987
 7042W        W72203   3.706  31.035   4.263
 7043W        W72204  34.641  32.701  13.921
 7044W        W72205  20.474   5.384  13.534
 7045W        W72206  23.239  38.601   5.118
 7046W        W72207  42.365   8.213  14.811
 7047W        W72208  13.125  35.964   2.142
 7048W        W72209  15.535  37.160   3.174
 7049W        W72210  27.162  38.869  13.128
 7050W        W72211  32.281  30.244   4.267
 7051W        W72212   7.505   1.141  11.167
 7052W        W72213  21.095  13.598  12.103
 7053W        W72214   9.580   0.350   2.248
 7054W        W72215  18.723  16.103   1.325
 7055W        W72216   4.556  42.393  10.324
 7056W        W72217   3.296   0.018   3.696
 7057W        W72218   9.013  43.472   4.151
 7058W        W72219  34.123  34.114  11.160
 7059W        W72220  37.765  35.714   4.600
 7060W        W72221  13.159  36.708   2.936
 7061W        W72222  27.014  16.807  10.479
 7062W        W72223  18.101  15.833   0.521
 7063W        W72224  21.874  26.467  12.593
 7064W        W72225  18.632   5.227   3.896
 7065W        W72226  40.990   3.732   4.973
 7066W        W72227  35.082  24.432   0.272
 7067W        W72228  17.177   2.417   2.137
 7068W        W72229  24.571  20.316  11.922
 7069W        W72230   5.223   5.217   4.097
 7070W        W72231  14.064  32.655  12.430
 7071W        W72232  22.207  35.086  14.359
 7072W        W72233  24.271   0.348   0.992
 7073W        W72234  33.034  39.962  13.545
 7074W        W72235  37.855  26.780   3.549
 7075W        W72236  41.846  32.809   1.347
 7076W        W72237  29.292   1.408  11.058
 7077W        W72238  36.123  14.213  11.687
 7078W        W72239  14.657  19.086  11.881
 7079W        W72240   8.417  35.573  12.051
 7080W        W72241  17.147   5.815  14.432
 7081W        W72242   1.539  22.955  11.050
 7082W        W72243  26.561  17.705  14.946
 7083W        W72244  31.912  12.217   2.455
 7084W        W72245  23.313   5.715   1.010
 7085W        W72246  11.751  17.237  12.064
 7086W        W72247  20.517  10.547  14.031
 7087W        W72248   5.749  36.528   0.521
 7088W        W72249  23.821   1.358   0.461
 7089W        W72250  15.641  40.575   3.068
 7090W        W72251  12.389  33.033  13.327
 7091W        W72252  26.962  36.041  14.391
 7092W        W72253  12.893   0.006  11.104
 7093W        W72254   3.501  41.727   4.008
 7094W        W72255  42.368  23.663  14.470
 7095W        W72256  23.943  17.821  11.252
 7096W        W72257  43.257  44.663   2.280
 7097W        W72258  11.733   9.657   5.112
 7098W        W72259   3.830  35.369  11.167
 7099W        W72260  41.342   3.710   4.133
 7100W        W72261  30.933  13.884   3.164
 7101W        W72262  26.917   1.467  10.675
 7102W        W72263  44.415  29.680   3.411
 7103W        W72264  24.763  19.466  13.489
 7104W        W72265  16.999  20.898   1.500
 7105W        W72266  23.592  15.254   0.670
 7106W        W72267  36.059   7.192  12.871
 7107W        W72268  28.968  19.494  12.733
 7108W        W72269  25.570   6.904  10.428
 7109W        W72270  41.480  42.463   2.610
 7110W        W72271  36.820  23.744  12.644
 7111W        W72272  40.106  40.030   1.334
 7112W        W72273   4.243  16.076   0.866
 7113W        W72274  41.426  33.396  12.495
 7114W        W72275  41.967  38.933  14.353
 7115W        W72276  21.277  35.936   4.117
 7116W        W72277  44.047  42.596   1.734
 7117W        W72278   9.380  33.651  14.842
 7118W        W72279  22.334   5.496   1.448
 7119W        W72280  19.538  12.816   1.165
 7120W        W72281  38.906  30.678   1.538
 7121W        W72282   6.015  38.207  11.090
 7122W        W72283  15.622  20.771  10.151
 7123W        W72284   3.358   0.047   4.626
 7124W        W72285   6.554  41.755  13.004
 7125W        W72286  40.209  41.939  13.270
 7126W        W72287  41.445  36.267  10.316
 7127W        W72288  27.644   4.473   3.092
 7128W        W72289  18.762  13.736   4.129
 7129W        W72290  30.871   8.151   3.141
 7130W        W72291   2.329   7.686  11.023
 7131W        W72292   1.504  34.710  14.306
 7132W        W72293  35.733   3.725  14.253
 7133W        W72294  31.618  18.355   4.705
 7134W        W72295  21.253  11.354   0.889
 7135W        W72296  12.115  14.394  14.364
 7136W        W72297  34.871  24.258  14.796
 7137W        W72298  41.503  37.458  13.361
 7138W        W72299   5.296  41.853  11.337
 7139W        W72300  32.141   1.038   0.212
 7140W        W72301  27.589  29.969  13.362
 7141W        W72302  41.984  10.892   4.118
 7142W        W72303  43.787  18.163  10.627
 7143W        W72304  35.147  38.853   1.667
 7144W        W72305  32.106  38.373  13.513
 7145W        W72306  42.475   2.310   0.629
 7146W        W72307   3.371  36.950   4.013
 7147W        W72308  11.918   8.754  13.959
 7148W        W72309  40.465  26.899   2.826
 7149W        W72310  44.159  15.308   2.788
 7150W        W72311  18.981   7.286  11.295
 7151W        W72312  28.389  15.173  13.126
 7152W        W72313  10.694  29.047   1.903
 7153W        W72314  22.006   2.741  14.511
 7154W        W72315  38.584  43.395   3.731
 7155W        W72316   4.744  33.027   4.603
 7156W        W72317  21.385  39.515  10.176
 7157W        W72318  40.409   6.636   3.077
 7158W        W72319  14.728  30.222   1.332
 7159W        W72320  29.563  35.130  11.996
 7160W        W72321  34.730   8.508  12.011
 7161W        W72322  26.405  12.110  12.864
 7162W        W72323  36.586  10.152   0.309
 7163W        W72324  24.230  13.797   1.564
 7164W        W72325  26.785  22.452   0.635
 7165W        W72326  23.661  29.044   0.482
 7166W        W72327  43.075  28.552   3.283
 7167W        W72328   9.835  41.901  11.469
 7168W        W72329  29.998  10.822  10.875
 7169W        W72330   6.720   1.277   4.748
 7170W        W72331  30.674  41.480   0.261
 7171W        W72332   7.230  29.134  11.102
 7172W        W72333  37.426  10.969  12.456
 7173W        W72334   0.669   7.114   0.867
 7174W        W72335  33.394  40.644  13.151
 7175W        W72336  28.647  19.744  14.946
 7176W        W72337  35.958  31.096   3.134
 7177W        W72338   7.218  27.214   1.774
 7178W        W72339  12.571  37.780  14.330
 7179W        W72340  26.946  25.694  14.907
 7180W        W72341  32.882  12.328   2.698
 7181W        W72342   7.622   5.603   1.169
 7182W        W72343  34.294  24.478   4.953
 7183W        W72344  44.318  20.008   1.018
 7184W        W72345  44.754  25.097  12.352
 7185W        W72346  33.118  36.245  13.149
 7186W        W72347  20.521  40.851  13.487
 7187W        W72348  40.443  21.235  12.826
 7188W        W72349  19.834  36.128   4.142
 7189W        W72350   3.298  13.298  13.750
 7190W        W72351  35.790  13.691  13.080
 7191W        W72352   2.378  15.878   3.656
 7192W        W72353  39.356  13.698   2.781
 7193W        W72354  22.643   7.818   2.935
 7194W        W72355  38.420  14.263  11.000
 7195W        W72356   1.434  28.448  11.196
 7196W        W72357  39.267  22.157  11.957
 7197W        W72358  17.124  20.418   1.267
 7198W        W72359  23.292  20.306   2.811
 7199W        W72360   3.049  19.838   4.952
 7200W        W72361   3.753  23.754   1.197
 7201W        W72362  24.673   6.821  11.162
 7202W        W72363  33.822  44.103  10.159
 7203W        W72364  10.807  12.821   4.741
 7204W        W72365  28.062  30.798  12.419
 7205W        W72366  36.449  41.364  11.928
 7206W        W72367  12.311  16.608   3.566
 7207W        W72368  39.641  12.762  12.338
 7208W        W72369   5.750  10.126   2.874
 7209W        W72370  20.232  14.153  11.236
 7210W        W72371  23.390   3.909  13.898
 7211W        W72372   7.081  21.051   2.221
 7212W        W72373  25.174  12.732  12.865
 7213W        W72374  37.076  38.023   1.757
 7214W        W72375  27.728  39.435   2.387
 7215W        W72376  29.216  30.371  12.950
 7216W        W72377  13.272  26.049   4.252
 7217W        W72378   3.170  38.019  13.545
 7218W        W72379   1.781  25.470   1.702
 7219W        W72380   3.865  27.819  13.926
 7220W        W72381  32.146   2.355  13.332
 7221W        W72382  42.450  36.610  13.447
 7222W        W72383  20.571  35.995   3.656
 7223W        W72384   6.186  25.294  12.500
 7224W        W72385  44.304   2.778  12.944
 7225W        W72386  37.074   9.362   5.103
 7226W        W72387   6.271  12.166   4.102
 7227W        W72388  35.512  29.038  14.318
 7228W        W72389  29.571   0.249   0.841
 7229W        W72390  32.879  38.039  13.770
 7230W        W72391   3.395   0.365   0.320
 7231W        W72392   7.816  36.128  14.778
 7232W        W72393  12.282  36.812  14.465
 7233W        W72394   7.642  37.940  12.386
 7234W        W72395  16.568   0.306   1.566
 7235W        W72396   5.877  13.264  13.976
 7236W        W72397  37.350  39.488  13.336
 7237W        W72398  19.224  38.978   3.960
 7238W        W72399  11.479  33.531   0.057
 7239W        W72400   6.021  34.444   3.647
 7240W        W72401  30.101   6.787   2.284
 7241W        W72402  14.751  41.899   4.555
 7242W        W72403   6.912  27.045   2.851
 7243W        W72404  25.450  13.782   2.212
 7244W        W72405  25.488  13.716  10.815
 7245W        W72406   2.713  15.234   2.423
 7246W        W72407  15.108  41.490   3.221
 7247W        W72408  42.974   1.692  12.468
 7248W        W72409   3.235  39.776   3.094
 7249W        W72410  19.246  25.251   2.208
 7250W        W72411  21.259   7.191   2.378
 7251W        W72412  12.202  26.565   0.200
 7252W        W72413  10.868  21.214  10.652
 7253W        W72414  44.388   4.623   2.100
 7254W        W72415  41.378   2.406   2.221
 7255W        W72416  25.007  14.653  14.037
 7256W        W72417  28.921  39.775   2.356
 7257W        W72418  11.183  20.317   4.453
 7258W        W72419  29.082  20.317  13.906
 7259W        W72420  28.520  34.814  13.088
 7260W        W72421  38.542  29.267  12.553
 7261W        W72422   0.040  38.006  12.228
 7262W        W72423  40.564   6.897  12.904
 7263W        W72424  41.343  21.554   0.342
 7264W        W72425  39.506  30.138  13.818
 7265W        W72426   0.070  32.035  14.532
 7266W        W72427  29.280  36.876   4.096
 7267W        W72428  43.473   4.153  13.385
 7268W        W72429  42.521  29.712  12.583
 7269W        W72430  42.455  39.749  12.130
 7270W        W72431  44.108   3.395   9.785
 7271W        W72432  21.468  36.302   0.193
 7272W        W72433  36.118  31.628   2.212
 7273W        W72434  35.157  28.174   4.149
 7274W        W72435  43.965  19.221  11.597
 7275W        W72436  28.882   0.962  14.685
 7276W        W72437  19.440  35.656  11.435
 7277W        W72438   3.570  42.571  11.566
 7278W        W72439  18.446   4.814   3.242
 7279W        W72440   4.459  31.477   1.785
 7280W        W72441  29.796  39.918   4.567
 7281W        W72442   3.840  17.805  13.414
 7282W        W72443  32.028   4.240  10.622
 7283W        W72444   4.461  11.052   1.137
 7284W        W72445  11.799  34.148  13.108
 7285W        W72446  44.281  10.635   0.062
 7286W        W72447  21.750  38.445   2.665
 7287W        W72448  12.688  20.792   1.426
 7288W        W72449  35.840  39.278  14.911
 7289W        W72450  12.821  14.816  13.792
 7290W        W72451  12.899  34.328  12.506
 7291W        W72452  27.815  10.705  12.002
 7292W        W72453  21.562   3.000  14.495
 7293W        W72454   9.487  37.981   3.265
 7294W        W72455   4.548  30.775  13.032
 7295W        W72456  25.474   5.626  12.965
 7296W        W72457   3.290  11.570   4.636
 7297W        W72458  30.944  14.668   1.849
 7298W        W72459  37.937  12.355   0.321
 7299W        W72460  18.724  37.485  13.732
 7300W        W72461   6.666   3.258   2.786
 7301W        W72462  18.628   2.947   4.144
 7302W        W72463  42.931  10.578  11.503
 7303W        W72464   3.760  21.554   0.447
 7304W        W72465   7.414  44.546  12.404
 7305W        W72466  20.519   1.471  13.478
 7306W        W72467  42.854  25.447   3.250
 7307W        W72468  19.160  18.414  12.201
 7308W        W72469   5.661  10.371  14.910
 7309W        W72470  37.981  30.622   2.320
 7310W        W72471  43.422  22.205   3.662
 7311W        W72472  41.227  22.878   0.799
 7312W        W72473   5.824  36.657   3.772
 7313W        W72474  25.311  31.531   1.786
 7314W        W72475  24.354  17.531   4.621
 7315W        W72476  39.696   6.313  13.903
 7316W        W72477  23.232  24.514   1.372
 7317W        W72478  25.490  30.614  12.030
 7318W        W72479   8.756  17.257   0.783
 7319W        W72480  35.140  27.608  10.714
 7320W        W72481  31.377  40.061  13.367
 7321W        W72482  20.767  34.396  14.830
 7322W        W72483  25.381  20.254  13.602
 7323W        W72484  22.569  40.089  10.621
 7324W        W72485  19.175  12.729   2.666
 7325W        W72486  11.077  18.804  13.002
 7326W        W72487  24.998   5.275   0.328
 7327W        W72488  43.318  31.607  11.553
 7328W        W72489  21.672  43.484   1.708
 7329W        W72490  42.943  34.942   0.371
 7330W        W72491  10.746   8.435  14.798
 7331W        W72492  24.149  44.392  12.167
 7332W        W72493  43.579  10.133   0.285
 7333W        W72494  21.699  35.912  13.240
 7334W        W72495  30.061  20.998   2.616
 7335W        W72496  25.863   3.672  14.766
 7336W        W72497  13.567  20.061   3.114
 7337W        W72498   5.736  23.552  11.985
 7338W        W72499   8.787  44.365  13.415
 7339W        W72500  19.368  40.128   9.583
 7340W        W72501  41.163  12.100  11.097
 7341W        W72502   7.495   1.415  12.379
 7342W        W72503  17.786  11.639   4.107
 7343W        W72504  25.579  32.010   3.183
 7344W        W72505  43.748  34.898  13.086
 7345W        W72506  28.131   6.826   2.312
 7346W        W72507  38.199  24.991   2.780
 7347W        W72508  33.995  41.990   0.229
 7348W        W72509   6.232   6.008  12.073
 7349W        W72510  38.056  37.556  13.818
 7350W        W72511  23.037  11.920  12.493
 7351W        W72512  40.554  28.968   4.411
 7352W        W72513  17.651   7.047   0.962
 7353W        W72514  10.267  19.120   2.204
 7354W        W72515  30.364  42.910   2.229
 7355W        W72516  32.322  40.439  10.210
 7356W        W72517  36.623  30.715  11.705
 7357W        W72518  43.714  40.070  11.206
 7358W        W72519  34.874   3.269  14.007
 7359W        W72520  14.047  41.461  12.850
 7360W        W72521  43.331  28.966  14.366
 7361W        W72522  20.358   5.873   1.664
 7362W        W72523   2.417  35.101   3.396
 7363W        W72524  11.000  18.035  11.114
 7364W        W72525  33.887  15.717  11.956
 7365W        W72526  16.950   7.709   0.513
 7366W        W72527  25.321  31.242   0.858
 7367W        W72528   2.234   7.407   0.911
 7368W        W72529  16.249  20.997  12.906
 7369W        W72530  11.287   2.736   4.617
 7370W        W72531   6.386   8.440  11.956
 7371W        W72532  23.199  24.264   3.640
 7372W        W72533   4.773   1.049   0.284
 7373W        W72534  12.891  38.500  10.371
 7374W        W72535  29.492  34.370  13.506
 7375W        W72536  14.447  41.024   4.663
 7376W        W72537  12.787  20.951  12.108
 7377W        W72538  12.593  26.307  14.627
 7378W        W72539  30.605  33.849  11.173
 7379W        W72540  23.911  10.146  11.567
 7380W        W72541  17.751   6.366  14.552
 7381W        W72542  32.357   6.008   2.708
 7382W        W72543  14.820  25.655   4.510
 7383W        W72544  22.233  17.441  12.575
 7384W        W72545  23.053  14.245  13.367
 7385W        W72546  20.630  30.083   1.362
 7386W        W72547  40.311  11.276  12.554
 7387W        W72548  28.712  13.331   1.863
 7388W        W72549   0.971  38.069   0.078
 7389W        W72550  29.549  23.702   0.350
 7390W        W72551  17.707  23.479   1.276
 7391W        W72552  10.933  25.059   2.260
 7392W        W72553  32.567  31.945  14.121
 7393W        W72554   9.280  16.169   0.565
 7394W        W72555  17.188   9.709  12.561
 7395W        W72556  20.222   9.363  11.460
 7396W        W72557  25.594  40.425   1.269
 7397W        W72558  27.715  35.086   0.995
 7398W        W72559  12.384  42.093  13.443
 7399W        W72560   5.130  28.372   5.004
 7400W        W72561  16.747   3.397  11.205
 7401W        W72562   9.422   0.291  12.460
 7402W        W72563  44.148   7.455   4.985
 7403W        W72564  41.443  32.444  11.141
 7404W        W72565  44.920  26.480   4.652
 7405W        W72566   7.537  27.716  11.372
 7406W        W72567  25.530  44.951   0.379
 7407W        W72568  39.112  34.519   1.453
 7408W        W72569  22.142   3.883  12.363
 7409W        W72570  30.893  15.685   1.690
 7410W        W72571  41.545  43.563   1.938
 7411W        W72572  33.566  30.530  12.731
 7412W        W72573  25.536  28.033  14.109
 7413W        W72574  37.889  26.046  13.972
 7414W        W72575  36.032  33.619  10.504
 7415W        W72576  44.999   1.667  14.922
 7416W        W72577   4.831  22.712  10.964
 7417W        W72578  32.235  23.500   2.179
 7418W        W72579  25.294   8.835  14.131
 7419W        W72580   1.920  21.721  13.795
 7420W        W72581  28.661  37.093  12.441
 7421W        W72582  23.373  43.970  12.613
 7422W        W72583  22.143   7.285   3.450
 7423W        W72584  32.661  39.912   1.389
 7424W        W72585  32.039  10.884   2.893
 7425W        W72586  32.635   8.840  14.324
 7426W        W72587  38.434  13.044   1.209
 7427W        W72588  21.294   5.213   3.743
 7428W        W72589  10.307  16.007  11.459
 7429W        W72590  13.384  13.691  14.522
 7430W        W72591   6.548  34.339   3.640
 7431W        W72592  37.880  24.904   2.375
 7432W        W72593  18.414  36.194   3.569
 7433W        W72594   2.326   6.170  14.040
 7434W        W72595  16.189   0.351   3.334
 7435W        W72596   6.906  22.946  11.502
 7436W        W72597  30.046  17.149   2.387
 7437W        W72598  21.123  31.540   4.293
 7438W        W72599  16.139  35.781   1.758
 7439W        W72600  27.773  29.891   0.230
 7440W        W72601  20.528  11.031   0.537
 7441W        W72602  37.265  24.057  13.869
 7442W        W72603  38.570  28.092   0.224
 7443W        W72604  42.910  26.088  13.786
 7444W        W72605  11.653  31.022   0.679
 7445W        W72606  10.816  43.960  14.407
 7446W        W72607   3.462  24.811  12.049
 7447W        W72608  14.196  35.042   4.580
 7448W        W72609  35.486  38.488   1.801
 7449W        W72610  38.588  35.161  10.683
 7450W        W72611  36.050  43.290   2.299
 7451W        W72612  18.484  13.756   1.337
 7452W        W72613  27.222   3.382   5.056
 7453W        W72614  20.816  17.797   1.868
 7454W        W72615  18.976   6.268  13.074
 7455W        W72616  29.061   6.702  12.672
 7456W        W72617   4.258  37.828   0.868
 7457W        W72618  35.975  33.909  14.474
 7458W        W72619  42.903   0.340  10.847
 7459W        W72620  23.648   5.823   2.692
 7460W        W72621  40.871   8.800  13.859
 7461W        W72622  27.551   3.567   0.424
 7462W        W72623  12.600  13.096   0.381
 7463W        W72624  21.161  19.589  12.436
 7464W        W72625  38.825  40.005   1.915
 7465W        W72626  27.475  21.752   3.843
 7466W        W72627   4.987   3.115  12.998
 7467W        W72628  39.531   4.823   1.783
 7468W        W72629  20.089  35.587   1.323
 7469W        W72630  16.147  11.952  14.426
 7470W        W72631  35.575  38.118  14.533
 7471W        W72632  29.993  24.134   1.423
 7472W        W72633  44.540  22.701   2.239
 7473W        W72634  29.637  20.652   4.708
 7474W        W72635  38.053  13.529  12.509
 7475W        W72636  33.482   6.657  14.494
 7476W        W72637  40.599  28.939  11.801
 7477W        W72638  10.391   7.440   3.256
 7478W        W72639  11.324  40.137  12.289
 7479W        W72640  10.775  36.033  14.952
 7480W        W72641   5.906   1.257   3.131
 7481W        W72642  34.473  12.242   2.684
 7482W        W72643  20.997   9.458   4.631
 7483W        W72644  12.153  12.879   2.250
 7484W        W72645  41.267  32.511   2.898
 7485W        W72646  31.453  40.875  13.665
 7486W        W72647  37.989  28.138  13.404
 7487W        W72648   1.980   3.028   3.935
 7488W        W72649  39.502  22.283   1.882
 7489W        W72650  25.698   8.655  12.302
 7490W        W72651  31.668  11.670   0.839
 7491W        W72652  20.712  35.130   4.195
 7492W        W72653  18.129  44.057  14.426
 7493W        W72654  33.274  22.641  10.670
 7494W        W72655  31.722  18.634  14.038
 7495W        W72656  29.091  10.591   4.533
 7496W        W72657  25.324  16.526  13.525
 7497W        W72658  27.037  22.739  13.455
 7498W        W72659  22.194  31.914  13.492
 7499W        W72660  11.231  30.925   3.181
 7500W        W72661  17.602  39.540  13.482
 7501W        W72662  30.174   7.172   2.635
 7502W        W72663  26.154  21.011   3.165
 7503W        W72664  28.002   7.863  12.744
 7504W        W72665  14.132  24.674  14.280
 7505W        W72666   2.587   0.250  14.104
 7506W        W72667   2.333  39.764  13.403
 7507W        W72668   7.248  23.098   1.317
 7508W        W72669  34.340  33.757   1.429
 7509W        W72670  34.030  31.397   3.891
 7510W        W72671  23.614  27.274  12.062
 7511W        W72672  18.809  34.388  14.802
 7512W        W72673  11.394  35.810   1.829
 7513W        W72674   0.414  17.119  14.425
 7514W        W72675  25.519   9.582  13.930
 7515W        W72676  31.817   7.898   1.750
 7516W        W72677  24.204   9.372  14.857
 7517W        W72678  40.032   4.916   0.250
 7518W        W72679  42.794  40.130  14.210
 7519W        W72680   6.999   2.022   2.922
 7520W        W72681  14.303  42.969  13.466
 7521W        W72682  12.979  17.109  10.742
 7522W        W72683  20.639  33.410   3.250
 7523W        W72684  41.799  37.970  14.417
 7524W        W72685  41.503   1.692  10.698
 7525W        W72686   7.337  13.396   2.249
 7526W        W72687  22.276   8.076  12.452
 7527W        W72688  26.337   7.899  11.027
 7528W        W72689   9.495  22.028   3.240
 7529W        W72690  36.824  31.612  11.518
 7530W        W72691   4.732  10.142   2.353
 7531W        W72692  38.489  11.056  14.652
 7532W        W72693  24.377  34.476  11.220
 7533W        W72694  23.226  40.587  14.895
 7534W        W72695  34.170   5.842  14.760
 7535W        W72696   4.302   2.040   4.670
 7536W        W72697  12.776  41.197  11.792
 7537W        W72698  20.202  11.884  10.579
 7538W        W72699  28.181  26.617   0.898
 7539W        W72700   8.197  32.136   0.330
 7540W        W72701  37.106  26.124  14.367
 7541W        W72702  33.421  12.296  13.915
 7542W        W72703  42.509  43.168  11.975
 7543W        W72704  16.286   6.787   1.440
 7544W        W72705  19.627  34.493   4.070
 7545W        W72706  28.705  18.538  12.888
 7546W        W72707  11.830   7.907   0.025
 7547W        W72708  18.649   1.913  10.310
 7548W        W72709  27.607  19.106  14.481
 7549W        W72710   2.302  11.581  14.373
 7550W        W72711  39.368  12.093   2.769
 7551W        W72712   2.620  16.816  14.501
 7552W        W72713  24.521  40.428   0.286
 7553W        W72714  18.117  14.002   1.812
 7554W        W72715  34.427  14.641   2.632
 7555W        W72716  15.219  35.355   2.865
 7556W        W72717  24.453  39.533   0.701
 7557W        W72718  33.382   5.469   3.991
 7558W        W72719  23.078   9.696  14.952
 7559W        W72720  43.910  29.085   0.759
 7560W        W72721  15.291  41.737  13.545
 7561W        W72722  26.042   7.391  12.916
 7562W        W72723  36.316   4.485   2.651
 7563W        W72724  40.959  32.537   4.524
 7564W        W72725  14.888  23.219   4.210
 7565W        W72726  39.912  32.524   3.962
 7566W        W72727  21.235  44.382  13.858
 7567W        W72728  26.531  37.492  14.333
 7568W        W72729   6.745  18.130  11.523
 7569W        W72730   9.534  10.604  13.898
 7570W        W72731  23.172  16.255   3.245
 7571W        W72732  13.720  43.748   3.168
 7572W        W72733   0.058   3.306  10.535
 7573W        W72734  33.651  18.548   4.008
 7574W        W72735  25.965  15.035   0.813
 7575W        W72736  28.844   7.410   4.176
 7576W        W72737   5.665  31.100   0.465
 7577W        W72738  16.844  35.983  11.126
 7578W        W72739  44.411  33.768   3.872
 7579W        W72740  10.420   0.784  12.920
 7580W        W72741  41.640  43.859   0.706
 7581W        W72742  31.989  14.760  13.745
 7582W        W72743  18.309  29.142   1.203
 7583W        W72744  20.987  14.808   2.161
 7584W        W72745  18.484  37.000  13.898
 7585W        W72746  35.877  16.125   1.385
 7586W        W72747   4.254  39.830  14.730
 7587W        W72748  15.880  10.303   1.690
 7588W        W72749  29.548  34.635  10.320
 7589W        W72750  34.944   1.884   0.345
 7590W        W72751  10.181  22.044  12.458
 7591W        W72752  11.315  20.458  13.525
 7592W        W72753  20.059  34.484   2.795
 7593W        W72754  26.010  42.954  14.502
 7594W        W72755  43.836  25.686   0.206
 7595W        W72756  12.785   7.460   4.493
 7596W        W72757  31.486  43.033  10.655
 7597W        W72758  14.567  36.861   3.408
 7598W        W72759  18.488  14.776  13.388
 7599W        W72760  26.728   8.183  11.226
 7600W        W72761  28.079   3.193  10.189
 7601W        W72762  38.867   3.244   0.316
 7602W        W72763  31.908  22.069  10.552
 7603W        W72764   9.817  20.533   4.480
 7604W        W72765  39.887  23.510  10.848
 7605W        W72766  18.002  11.983  11.560
 7606W        W72767   1.282   1.255  12.416
 7607W        W72768  30.766  39.111  12.863
 7608W        W72769  17.713  23.009  11.178
 7609W        W72770  41.651  27.625  11.103
 7610W        W72771  40.023  42.811   3.255
 7611W        W72772  42.624  17.679   1.143
 7612W        W72773  12.280  24.079   2.883
 7613W        W72774   1.308  36.623  13.744
 7614W        W72775  13.624  36.988   3.170
 7615W        W72776  19.593  20.577   0.344
 7616W        W72777  22.887  11.647   0.406
 7617W        W72778   7.679   7.421   0.932
 7618W        W72779  23.660  38.129  13.786
 7619W        W72780  41.404   4.974  13.765
 7620W        W72781  25.130   2.065  13.332
 7621W        W72782   6.201  41.369  14.518
 7622W        W72783  15.054  10.815  11.526
 7623W        W72784  14.313  18.056  13.576
 7624W        W72785  28.725  26.714  12.396
 7625W        W72786  27.176   0.248   4.395
 7626W        W72787   2.504  14.595   0.779
 7627W        W72788  27.112  24.966   1.465
 7628W        W72789  33.007  11.211   3.602
 7629W        W72790  32.801  19.734   3.085
 7630W        W72791   4.488  16.996  10.768
 7631W        W72792  11.559  36.204  14.367
 7632W        W72793  17.829   4.940   0.840
 7633W        W72794   1.271  35.044  10.738
 7634W        W72795  34.123  27.220  14.765
 7635W        W72796  32.030  14.269  13.921
 7636W        W72797   3.818  38.463   4.855
 7637W        W72798  31.424  31.008   2.334
 7638W        W72799  25.476  25.325  12.974
 7639W        W72800  19.297   8.350  10.762
 7640W        W72801  11.553  31.737   3.282
 7641W        W72802   2.119  10.530   2.773
 7642W        W72803   3.402  36.400   4.701
 7643W        W72804  23.188  15.135   2.112
 7644W        W72805   0.245  33.114  11.243
 7645W        W72806  11.914   2.893   3.780
 7646W        W72807  40.973   3.424   1.326
 7647W        W72808   8.188   7.809  12.837
 7648W        W72809   0.805  35.559  11.121
 7649W        W72810  12.652  14.846  13.228
 7650W        W72811  15.060  12.866   1.319
 7651W        W72812  21.992  30.086   4.047
 7652W        W72813  31.071   5.408  12.981
 7653W        W72814  16.565   0.447  13.444
 7654W        W72815  32.244   8.671  11.678
 7655W        W72816  23.181   8.358   2.927
 7656W        W72817  20.839   7.673  12.892
 7657W        W72818  27.974  42.908  11.182
 7658W        W72819  36.357  43.800  10.783
 7659W        W72820  33.184  20.658  14.912
 7660W        W72821  36.919   5.030  12.998
 7661W        W72822  28.985   9.693  12.464
 7662W        W72823  25.037  38.042   0.058
 7663W        W72824  34.004  13.879  10.645
 7664W        W72825  28.738  44.387   4.463
 7665W        W72826   3.316   0.911  13.961
 7666W        W72827  31.129  31.718   2.379
 7667W        W72828   8.926  31.707  12.001
 7668W        W72829  10.350  20.161   2.875
 7669W        W72830  38.806  30.085   2.193
 7670W        W72831   8.168  32.918  11.989
 7671W        W72832  22.116  33.361   3.344
 7672W        W72833   2.459  21.780   0.468
 7673W        W72834  40.088   8.469   3.888
 7674W        W72835  31.881  20.746   4.696
 7675W        W72836  26.881  17.256   2.298
 7676W        W72837  22.090  31.620   2.677
 7677W        W72838   3.733  16.165   2.287
 7678W        W72839  30.258  24.996  12.581
 7679W        W72840  41.717   8.284   3.155
 7680W        W72841  37.321  13.641   3.784
 7681W        W72842   5.336   3.223  11.163
 7682W        W72843  44.017   2.913  13.993
 7683W        W72844  28.990  28.789   1.624
 7684W        W72845   8.431  23.950   0.301
 7685W        W72846  21.175  12.673  14.945
 7686W        W72847  10.437  39.521  10.480
 7687W        W72848  38.726  12.639  14.410
 7688W        W72849  16.818  43.718  10.486
 7689W        W72850  16.716  36.575   3.266
 7690W        W72851  33.978   6.620   2.201
 7691W        W72852  33.439  42.439   3.232
 7692W        W72853  16.290  43.299   3.751
 7693W        W72854  26.195  24.595  10.796
 7694W        W72855  26.655  22.229  12.629
 7695W        W72856  23.081  36.884   1.406
 7696W        W72857  35.797  15.667   4.643
 7697W        W72858  30.895  39.255   3.701
 7698W        W72859  22.507  41.342   1.852
 7699W        W72860  35.180   1.952   2.875
 7700W        W72861  12.127  10.482  12.487
 7701W        W72862  15.681  35.530   1.726
 7702W        W72863  10.384  17.687   0.876
 7703W        W72864  12.639  23.045  11.610
 7704W        W72865   6.285  41.060   0.281
 7705W        W72866  24.522  31.329  12.382
 7706W        W72867   7.296  18.228  14.778
 7707W        W72868  37.864  27.593  14.496
 7708W        W72869  39.548   9.081  12.049
 7709W        W72870  20.854  35.661   4.881
 7710W        W72871  38.105  25.162  14.512
 7711W        W72872  15.006  26.482   0.753
 7712W        W72873  24.127  42.704  12.045
 7713W        W72874  42.385  30.894  10.937
 7714W        W72875  41.268  39.281  14.312
 7715W        W72876  38.649  34.627  10.738
 7716W        W72877  27.571  13.127  12.050
 7717W        W72878  11.054   8.838  14.770
 7718W        W72879  24.099  22.700   2.391
 7719W        W72880  43.537  14.241   4.733
 7720W        W72881  19.815   9.652   0.306
 7721W        W72882  35.609  11.181   0.058
 7722W        W72883   7.971   6.899  13.264
 7723W        W72884  36.998  36.551   0.936
 7724W        W72885  15.535  38.460   0.603
 7725W        W72886  17.317   6.284  10.686
 7726W        W72887  18.277  20.471  14.318
 7727W        W72888   4.289  34.921  12.444
 7728W        W72889   0.166  28.130  14.858
 7729W        W72890   1.378   5.866  10.979
 7730W        W72891  26.019  33.973  14.237
 7731W        W72892  16.239  35.944  14.801
 7732W        W72893  23.975  35.604  12.466
 7733W        W72894  17.293  12.996  12.732
 7734W        W72895   7.645  40.022   2.654
 7735W        W72896  35.871  24.137  13.813
 7736W        W72897  39.159  14.750   1.998
 7737W        W72898  40.491  25.202   3.686
 7738W        W72899  41.465  20.595   4.612
 7739W        W72900  22.470  20.100  14.448
 7740W        W72901  39.450  38.571   3.404
 7741W        W72902  42.202  14.741   0.374
 7742W        W72903  32.890  27.538  12.633
 7743W        W72904  10.161  36.246   5.014
 7744W        W72905  38.600  23.073   3.647
 7745W        W72906  37.858  34.744  13.572
 7746W        W72907  24.048  30.934   3.331
 7747W        W72908  31.323  22.649   0.915
 7748W        W72909   4.072  17.773   2.790
 7749W        W72910   3.749   4.438  14.995
 7750W        W72911  29.937  42.278   1.691
 7751W        W72912  16.829   5.411   0.498
 7752W        W72913  27.846  19.024   3.468
 7753W        W72914   2.870  14.715   4.082
 7754W        W72915  42.859  17.994   0.314
 7755W        W72916  11.350  44.600   0.307
 7756W        W72917  23.698  17.191  13.424
 7757W        W72918   3.147  30.454  11.487
 7758W        W72919  10.179  16.747  11.826
 7759W        W72920   2.441  38.606   3.861
 7760W        W72921  26.509  32.753   0.799
 7761W        W72922  26.963  15.135  12.592
 7762W        W72923  29.634  40.304   2.378
 7763W        W72924  11.569  14.315  12.713
 7764W        W72925  35.104  10.288  14.976
 7765W        W72926  16.450  15.594  11.544
 7766W        W72927  44.423   8.793   0.497
 7767W        W72928   0.893   6.521   5.159
 7768W        W72929  32.510  35.480  14.442
 7769W        W72930  33.364   4.091   2.781
 7770W        W72931   1.952  10.190  14.654
 7771W        W72932  18.784  39.152  11.464
 7772W        W72933  14.362  10.888   1.247
 7773W        W72934  26.941  23.741  11.080
 7774W        W72935  16.366  17.329   0.855
 7775W        W72936   0.519   8.836   3.278
 7776W        W72937  18.059  11.328  14.446
 7777W        W72938  29.294  16.673   0.713
 7778W        W72939  36.422  37.151  13.351
 7779W        W72940   5.470  13.462   4.194
 7780W        W72941  29.025  22.037  14.476
 7781W        W72942  21.936  38.514   0.521
 7782W        W72943   3.021  19.991   0.791
 7783W        W72944  28.052   2.210  13.163
 7784W        W72945  43.875  18.329  11.178
 7785W        W72946   4.437  20.199   3.212
 7786W        W72947  35.015  14.714  14.403
 7787W        W72948  29.689  16.471  12.594
 7788W        W72949   0.346  34.611  12.090
 7789W        W72950  34.535   3.556  13.787
 7790W        W72951  10.695   9.435  12.500
 7791W        W72952  18.474  21.105  12.613
 7792W        W72953  39.009  38.957  12.083
 7793W        W72954  35.829  43.921   1.406
 7794W        W72955  30.761  10.238  12.976
 7795W        W72956   7.193  16.778  10.708
 7796W        W72957  44.130  26.193  12.410
 7797W        W72958  23.399   4.238   0.252
 7798W        W72959  33.663  13.223   0.190
 7799W        W72960  13.305  11.907  11.339
 7800W        W72961   0.114  41.666  11.501
 7801W        W72962   9.719  11.250  10.587
 7802W        W72963   0.786  41.292  13.475
 7803W        W72964   6.218  34.458   3.155
 7804W        W72965  28.240  43.632   0.432
 7805W        W72966  29.054  23.008   3.563
 7806W        W72967  21.107  40.575  12.882
 7807W        W72968  18.008   1.227  11.200
 7808W        W72969  33.373  32.594   2.119
 7809W        W72970  34.422  30.679   3.336
 7810W        W72971  12.076   9.208  12.404
 7811W        W72972   7.324   8.187  12.879
 7812W        W72973  22.345  37.059  13.432
 7813W        W72974   0.250   7.432   0.951
 7814W        W72975  26.477  12.895   1.473
 7815W        W72976   0.245  13.764  14.723
 7816W        W72977  13.280  43.963  11.631
 7817W        W72978  25.225  13.106  11.542
 7818W        W72979  40.706  31.968   3.667
 7819W        W72980   0.427  24.009  11.914
 7820W        W72981  20.749  11.064   0.049
 7821W        W72982   3.552  44.747  12.303
 7822W        W72983   7.672   6.108   1.241
 7823W        W72984  30.017  34.496  12.994
 7824W        W72985  17.049  44.574   9.715
 7825W        W72986   0.805   7.585  11.277
 7826W        W72987   2.450  35.238  14.369
 7827W        W72988   9.696   8.428   1.707
 7828W        W72989  22.560  13.406   3.816
 7829W        W72990  22.002  11.244   1.424
 7830W        W72991  13.168  24.162   0.101
 7831W        W72992  25.045  10.348   2.992
 7832W        W72993  42.286  10.801   0.950
 7833W        W72994  32.147  34.398   0.020
 7834W        W72995  32.866  29.531   1.978
 7835W        W72996   6.236   0.826  10.716
 7836W        W72997  38.372  41.994   1.278
 7837W        W72998  43.852   7.982  10.690
 7838W        W72999  38.551  24.993   0.754
 7839W        W73000   1.285  20.577   2.785
 7840W        W73001  30.950  37.381   3.830
 7841W        W73002   6.178  28.620   2.814
 7842W        W73003  12.085  23.782  12.637
 7843W        W73004   4.671   6.234   0.788
 7844W        W73005  15.628  28.733   4.206
 7845W        W73006   4.301   5.981  13.854
 7846W        W73007  14.243   8.360   0.321
 7847W        W73008   6.571  27.068   2.441
 7848W        W73009  34.539  18.727   2.146
 7849W        W73010  33.442   2.722   3.222
 7850W        W73011  44.410  11.387  11.049
 7851W        W73012   7.617  36.451   1.783
 7852W        W73013  33.438  22.674   3.992
 7853W        W73014  21.751  19.629  11.084
 7854W        W73015  34.114  29.417   4.141
 7855W        W73016  17.999  13.413   3.786
 7856W        W73017  25.390  17.718  13.109
 7857W        W73018  14.213  20.655   3.828
 7858W        W73019  39.901   3.849  11.076
 7859W        W73020   2.103   9.679  14.026
 7860W        W73021  41.613  41.721  12.574
 7861W        W73022  38.622  34.316  11.624
 7862W        W73023   8.442  28.038   3.277
 7863W        W73024  14.673  37.932   0.727
 7864W        W73025  42.399   3.755  13.774
 7865W        W73026  40.431  20.923  14.331
 7866W        W73027  43.398  44.288   3.126
 7867W        W73028  23.687   8.549   3.961
 7868W        W73029  43.122   5.145  13.553
 7869W        W73030  24.336  38.828  13.057
 7870W        W73031  29.938  31.912   4.485
 7871W        W73032   6.945  20.030  10.782
 7872W        W73033  17.663  27.947  12.965
 7873W        W73034  14.462  15.247  11.846
 7874W        W73035  31.013  41.632   0.861
 7875W        W73036   9.856  15.095   0.341
 7876W        W73037   6.069  17.763  14.883
 7877W        W73038  34.525   1.637   2.255
 7878W        W73039  38.445   2.477  14.004
 7879W        W73040  21.508  34.279  12.089
 7880W        W73041  21.110  34.574   0.359
 7881W        W73042  37.560  35.422  10.666
 7882W        W73043  20.212  32.064   1.039
 7883W        W73044   1.023  43.362   4.051
 7884W        W73045  16.184  41.942   3.834
 7885W        W73046  17.523  44.520  14.593
 7886W        W73047  41.911   9.681  14.321
 7887W        W73048  22.807  33.407   9.893
 7888W        W73049  26.561  37.663  11.195
 7889W        W73050  33.001  42.556   2.609
 7890W        W73051  16.470  43.292   4.229
 7891W        W73052   3.741  36.145  12.450
 7892W        W73053   1.931  38.817  12.047
 7893W        W73054  35.437  42.286   1.325
 7894W        W73055  31.534   5.893   1.995
 7895W        W73056  15.136  33.339   0.778
 7896W        W73057  39.773   5.700   0.720
 7897W        W73058  42.981   8.609   3.031
 7898W        W73059  23.366   8.412  11.709
 7899W        W73060   8.441  15.091  14.030
 7900W        W73061  27.337  17.390  13.813
 7901W        W73062  30.189  19.096   2.704
 7902W        W73063  43.236   7.084  14.384
 7903W        W73064  26.608   9.244   4.137
 7904W        W73065  11.896  39.403  12.921
 7905W        W73066  30.068  37.860   4.229
 7906W        W73067   3.982  12.303   4.748
 7907W        W73068  22.663  44.228  14.462
 7908W        W73069  21.741  30.902  10.527
 7909W        W73070  24.317  10.362  11.174
 7910W        W73071  44.809  23.660   3.684
 7911W        W73072  20.166   8.940   3.920
 7912W        W73073   8.644   0.221  10.829
 7913W        W73074  42.449  42.431  11.226
 7914W        W73075  36.784   7.689  14.329
 7915W        W73076  14.749  11.916   3.540
 7916W        W73077   0.381  14.788   2.198
 7917W        W73078  35.925  18.153  10.853
 7918W        W73079  38.231   4.713   0.243
 7919W        W73080   5.080  28.690   4.052
 7920W        W73081  42.068  34.643  14.516
 7921W        W73082  28.815  10.348   0.538
 7922W        W73083  19.504  38.534  11.747
 7923W        W73084   0.786  35.650  10.283
 7924W        W73085   7.803  21.055   1.090
 7925W        W73086   8.276  24.283  12.573
 7926W        W73087  44.746  15.139  11.635
 7927W        W73088   3.396   0.050   1.949
 7928W        W73089  37.834  30.298   5.059
 7929W        W73090   0.817  15.687   0.750
 7930W        W73091  14.279  20.889   1.075
 7931W        W73092   9.583  42.370   1.663
 7932W        W73093  31.060   6.703  11.644
 7933W        W73094  25.507  10.049   4.698
 7934W        W73095   9.756  23.666   4.986
 7935W        W73096   1.671  22.832  13.880
 7936W        W73097  25.152   7.732   4.197
 7937W        W73098  20.856   8.883  11.136
 7938W        W73099  28.754  23.756  11.665
 7939W        W73100  32.225  22.017   3.583
 7940W        W73101  27.778   8.177   0.634
 7941W        W73102   6.021  16.674   1.882
 7942W        W73103  39.858  42.073  13.845
 7943W        W73104  38.755   7.329  10.883
 7944W        W73105  42.627  25.094   1.731
 7945W        W73106  33.910  35.409  11.346
 7946W        W73107  37.402   8.841   0.905
 7947W        W73108   5.311  36.036  13.581
 7948W        W73109  19.059  26.522   0.826
 7949W        W73110  32.087   0.673  12.520
 7950W        W73111   9.363   8.370  12.267
 7951W        W73112  32.630  12.059   4.528
 7952W        W73113   7.193   2.288  11.939
 7953W        W73114  20.186  29.863   1.232
 7954W        W73115  44.462   0.360  14.786
 7955W        W73116   0.374  42.305   1.689
 7956W        W73117  31.624  28.016  13.100
 7957W        W73118   2.526   7.973  13.985
 7958W        W73119   8.630  38.752  14.869
 7959W        W73120  23.027   6.354  14.070
 7960W        W73121   0.296  41.499  13.447
 7961W        W73122  40.606  35.991   2.834
 7962W        W73123   7.803  23.095  13.866
 7963W        W73124  39.958  25.934   0.769
 7964W        W73125  21.611   5.455   4.193
 7965W        W73126  31.009   9.576  14.477
 7966W        W73127  44.137  27.078   3.736
 7967W        W73128  23.610   7.844  14.494
 7968W        W73129   6.249  39.877   0.337
 7969W        W73130  43.394  31.772   4.845
 7970W        W73131  31.523  34.602   0.934
 7971W        W73132  21.645  38.988   1.261
 7972W        W73133  23.934  42.997   4.584
 7973W        W73134  31.365  17.662   1.205
 7974W        W73135  10.181  41.104   1.359
 7975W        W73136   8.883  29.605   1.978
 7976W        W73137  43.501   1.792   4.585
 7977W        W73138  26.234   3.228   0.992
 7978W        W73139  22.040  43.635   3.790
 7979W        W73140  43.282   2.310  11.944
 7980W        W73141  19.825  13.317   2.219
 7981W        W73142  41.089   7.287  11.211
 7982W        W73143  29.100  22.900   2.649
 7983W        W73144  44.756   3.625   4.968
 7984W        W73145  27.405  19.259  11.952
 7985W        W73146  23.876  26.698   3.661
 7986W        W73147  27.922   4.506  11.251
 7987W        W73148  39.093  12.042   3.247
 7988W        W73149  41.895  19.096   0.427
 7989W        W73150  25.877  23.186  14.911
 7990W        W73151  20.692   9.295   0.362
 7991W        W73152   1.119   4.255   3.590
 7992W        W73153  24.622  26.705   4.121
 7993W        W73154  26.702  28.651   3.751
 7994W        W73155   0.479   0.234  14.244
 7995W        W73156  28.858  10.261  13.587
 7996W        W73157  36.689  33.565   0.819
 7997W        W73158  12.856  19.754  12.378
 7998W        W73159   4.333  36.690   3.750
 7999W        W73160   3.869  28.559   0.524
 8000W        W73161  13.721  21.793   3.301
 8001W        W73162  13.874  35.886  10.665
 8002W        W73163  32.472  29.207  11.992
 8003W        W73164   6.696  31.865   0.991
 8004W        W73165  43.343   8.732   0.306
 8005W        W73166  32.429  20.680  11.671
 8006W        W73167   5.367  43.068   4.397
 8007W        W73168  13.764  13.626  14.102
 8008W        W73169  19.254  32.393  12.375
 8009W        W73170  14.148   2.974   3.402
 8010W        W73171  29.078   3.309  10.694
 8011W        W73172  16.623  30.900  12.626
 8012W        W73173  19.152  21.558   3.895
 8013W        W73174  34.497   5.988  11.867
 8014W        W73175  29.944   6.247   2.646
 8015W        W73176   3.773  19.783   1.707
 8016W        W73177  12.706   8.475  12.384
 8017W        W73178  18.255   5.251  11.866
 8018W        W73179   8.280  38.115  11.604
 8019W        W73180  12.779  37.415   4.564
 8020W        W73181  14.387  42.516  10.310
 8021W        W73182  28.942  20.047   4.661
 8022W        W73183  14.709  29.687  14.940
 8023W        W73184  33.194  36.985   3.277
 8024W        W73185  43.053  39.875   0.212
 8025W        W73186  10.859  15.282   1.914
 8026W        W73187  20.186  37.453  13.815
 8027W        W73188   6.339  24.304  12.307
 8028W        W73189  16.261  37.658  12.467
 8029W        W73190  15.240  18.216   2.657
 8030W        W73191  16.406  30.143  11.083
 8031W        W73192  11.681   5.755   0.822
 8032W        W73193  11.383  37.019   4.391
 8033W        W73194  21.082   4.412  13.465
 8034W        W73195   0.041  43.767   1.345
 8035W        W73196  21.203  26.426  10.103
 8036W        W73197   1.758   2.206  10.715
 8037W        W73198  43.516  17.710  10.703
 8038W        W73199  39.000  15.267  11.988
 8039W        W73200  23.496   4.418  12.608
 8040W        W73201   3.492  42.052   1.775
 8041W        W73202  21.791  11.248   0.885
 8042W        W73203  12.773  24.273   1.215
 8043W        W73204   6.103   0.476   0.045
 8044W        W73205  34.011  13.752   4.266
 8045W        W73206   1.371  34.488  14.852
 8046W        W73207  14.056  40.347   9.807
 8047W        W73208   5.204  38.411   4.768
 8048W        W73209  35.101  28.139  10.625
 8049W        W73210  24.910  34.638  13.511
 8050W        W73211  33.535  43.100  14.495
 8051W        W73212   8.330  44.491  14.297
 8052W        W73213  32.199  19.695  11.699
 8053W        W73214  20.538  28.675  14.853
 8054W        W73215  35.511   9.332   2.630
 8055W        W73216  18.815  37.054  14.302
 8056W        W73217  28.582  23.656  12.472
 8057W        W73218  17.784  37.497  14.609
 8058W        W73219  11.194  44.850  12.870
 8059W        W73220  43.397  34.856  12.127
 8060W        W73221  16.557  11.922  12.402
 8061W        W73222  15.718  35.583   0.367
 8062W        W73223  17.475  42.800   5.191
 8063W        W73224  27.544   7.239   2.499
 8064W        W73225  33.039  26.434  13.834
 8065W        W73226  39.580  30.949   4.214
 8066W        W73227  22.150  19.329   2.594
 8067W        W73228   5.941  31.541  10.641
 8068W        W73229  14.416  34.954   2.636
 8069W        W73230  35.308  37.839  11.112
 8070W        W73231  32.886  31.457   3.201
 8071W        W73232  26.105  11.648  14.906
 8072W        W73233  10.156   5.521   3.344
 8073W        W73234  31.415   7.736  13.115
 8074W        W73235  31.998  42.896   4.669
 8075W        W73236  19.782  20.051   2.083
 8076W        W73237  12.162  31.563  14.945
 8077W        W73238  26.748  23.192  13.415
 8078W        W73239  12.707   8.713  12.896
 8079W        W73240  44.208  43.152   4.155
 8080W        W73241   1.532  32.176  14.853
 8081W        W73242  32.368  41.446  12.052
 8082W        W73243  38.960  13.395   5.042
 8083W        W73244  16.781   7.467   4.319
 8084W        W73245  40.786  30.139   4.764
 8085W        W73246  35.355  34.881  12.990
 8086W        W73247  13.590   0.448  12.103
 8087W        W73248  41.324  25.568   3.110
 8088W        W73249   6.038  18.953   4.646
 8089W        W73250  27.033   2.686   3.303
 8090W        W73251  10.855  11.849  13.846
 8091W        W73252  35.852  36.691   1.465
 8092W        W73253  31.442  36.810   1.440
 8093W        W73254  26.245   2.745   0.736
 8094W        W73255  26.659  27.904  10.838
 8095W        W73256  31.673  34.492   1.413
 8096W        W73257  27.955  30.513   2.297
 8097W        W73258   1.699  29.562  13.298
 8098W        W73259  28.579  18.501  13.715
 8099W        W73260   0.332  33.642  12.481
 8100W        W73261  13.193  27.655   1.417
 8101W        W73262  13.343  14.175   2.064
 8102W        W73263   8.446   2.487  13.647
 8103W        W73264  10.340  14.136   0.993
 8104W        W73265  37.669  16.786  10.842
 8105W        W73266  28.781   8.364   0.475
 8106W        W73267   0.823   4.230  13.521
 8107W        W73268  30.949  35.870   3.671
 8108W        W73269  40.276  10.894   4.586
 8109W        W73270  34.966  18.064   1.632
 8110W        W73271  17.580  12.133   2.158
 8111W        W73272  13.318  26.181  13.443
 8112W        W73273   0.623   9.316  14.323
 8113W        W73274  22.151   3.709  11.355
 8114W        W73275  40.804  35.946   3.319
 8115W        W73276  20.366   4.623  13.095
 8116W        W73277  41.346  12.416  14.486
 8117W        W73278  34.431  41.806   4.913
 8118W        W73279  19.063  32.872  12.160
 8119W        W73280   7.877   2.508   4.201
 8120W        W73281  36.498   2.971   4.711
 8121W        W73282  42.559   2.866   2.759
 8122W        W73283  15.177  24.413   2.648
 8123W        W73284  11.167   3.430   3.715
 8124W        W73285  16.112  15.669  12.884
 8125W        W73286   2.778  28.683   2.373
 8126W        W73287  30.376  15.518  10.764
 8127W        W73288  35.414   4.472  14.454
 8128W        W73289  34.941  10.083   0.438
 8129W        W73290   8.339  20.626   2.123
 8130W        W73291  24.407  12.619  14.499
 8131W        W73292   4.733   7.356   3.713
 8132W        W73293   5.362  15.857  14.763
 8133W        W73294  40.058   1.404  12.945
 8134W        W73295  19.230  18.947   5.442
 8135W        W73296  41.152  31.592  12.836
 8136W        W73297  18.873  43.349   3.575
 8137W        W73298  20.267  43.039  11.044
 8138W        W73299  43.820   3.875  14.953
 8139W        W73300  26.957  35.744  10.385
 8140W        W73301  42.873  22.412  10.679
 8141W        W73302  22.719   6.848  12.073
 8142W        W73303  21.731  33.884   1.707
 8143W        W73304  31.520   1.902  11.155
 8144W        W73305   6.980  25.390   3.220
 8145W        W73306  35.033   6.254  11.194
 8146W        W73307  22.035  37.854   3.278
 8147W        W73308   8.186  27.581   2.375
 8148W        W73309  31.651   0.739   1.588
 8149W        W73310  13.514   1.504  12.862
 8150W        W73311  19.125  37.894   0.657
 8151W        W73312   6.516  18.979   3.591
 8152W        W73313  41.408   8.860   2.341
 8153W        W73314  15.712  33.527   4.642
 8154W        W73315  36.053  41.494   3.364
 8155W        W73316   8.126  38.718   1.630
 8156W        W73317  17.646   9.002   3.258
 8157W        W73318   6.296  33.444   0.264
 8158W        W73319  12.202   6.433  12.884
 8159W        W73320   1.451  17.612  13.588
 8160W        W73321   0.444  36.875   1.730
 8161W        W73322   8.280  33.612  12.580
 8162W        W73323  34.932  32.056   1.699
 8163W        W73324  14.292  36.988   4.388
 8164W        W73325  44.870  17.811   1.419
 8165W        W73326  31.372  17.153   3.858
 8166W        W73327   8.391   5.832  11.629
 8167W        W73328  10.255   3.765  14.535
 8168W        W73329  11.569  35.713   1.211
 8169W        W73330  44.277  22.213   0.904
 8170W        W73331  17.192  27.727   4.375
 8171W        W73332  27.996   7.315  11.417
 8172W        W73333  25.620   2.802   1.647
 8173W        W73334  38.426  31.170   2.946
 8174W        W73335  37.125  19.220   0.426
 8175W        W73336  22.971   5.443  11.089
 8176W        W73337  36.119   4.836  13.354
 8177W        W73338  13.627  13.331   4.697
 8178W        W73339  15.527  39.839   1.656
 8179W        W73340  13.025  20.125   0.955
 8180W        W73341  41.089  15.305   2.852
 8181W        W73342   2.826   5.155   4.100
 8182W        W73343  39.538  32.125   0.409
 8183W        W73344  25.770  41.160  13.328
 8184W        W73345  33.592  20.408  11.090
 8185W        W73346  29.424   7.874   0.795
 8186W        W73347  32.024  15.635  11.045
 8187W        W73348   2.356  12.242   3.623
 8188W        W73349  25.978  28.644   0.253
 8189W        W73350  22.083   5.214   4.068
 8190W        W73351  30.111  39.269  14.938
 8191W        W73352  18.053  41.076  12.553
 8192W        W73353   5.385  41.890   4.372
 8193W        W73354  17.133  29.925  11.727
 8194W        W73355  18.422  31.066   0.937
 8195W        W73356  12.155  10.651   2.168
 8196W        W73357   6.547  38.301  11.208
 8197W        W73358   0.062  34.930  14.739
 8198W        W73359   3.616  10.190  10.959
 8199W        W73360  30.044  22.220  13.488
 8200W        W73361   7.241  23.609   1.285
 8201W        W73362   5.290  38.287   2.887
 8202W        W73363  25.355  21.162  14.803
 8203W        W73364  27.636  22.077   1.276
 8204W        W73365  13.991   5.883  13.476
 8205W        W73366  24.319  23.468  12.345
 8206W        W73367  20.158  18.822  11.201
 8207W        W73368   4.484  17.634   0.957
 8208W        W73369  38.327   2.874  12.293
 8209W        W73370  26.192  27.178   1.511
 8210W        W73371  31.266  21.995   3.995
 8211W        W73372  14.136   0.473  11.052
 8212W        W73373  43.562  10.149  10.215
 8213W        W73374  40.311  16.070  11.384
 8214W        W73375  28.960   6.864   3.497
 8215W        W73376  32.696   4.929  10.970
 8216W        W73377  32.081  29.511  11.280
 8217W        W73378  22.427   6.863  14.732
 8218W        W73379  35.496  10.314   4.153
 8219W        W73380  33.634   4.778  10.907
 8220W        W73381  27.591   9.187  14.760
 8221W        W73382  13.757  41.486   0.467
 8222W        W73383   2.454  19.239  11.426
 8223W        W73384   0.887  43.447  12.905
 8224W        W73385  20.055  28.980  14.277
 8225W        W73386  35.758  37.572   0.377
 8226W        W73387  37.918  31.905  12.885
 8227W        W73388  42.287  44.313  14.060
 8228W        W73389  14.609   2.305   1.389
 8229W        W73390  33.913  10.620   3.579
 8230W        W73391   7.848   1.377   4.647
 8231W        W73392   7.867  23.166  14.784
 8232W        W73393  39.956  38.501   0.273
 8233W        W73394  13.690  42.361   3.296
 8234W        W73395  18.215  33.403   2.204
 8235W        W73396   6.991  24.057   1.390
 8236W        W73397   8.743  36.353   2.770
 8237W        W73398  14.822  31.225   0.473
 8238W        W73399  35.908  34.417  12.168
 8239W        W73400  37.663   1.327  10.491
 8240W        W73401   5.187   8.668   1.251
 8241W        W73402   2.877  37.806   9.878
 8242W        W73403  20.216  44.576  11.023
 8243W        W73404  36.484   6.936  13.830
 8244W        W73405  39.805  26.134  13.248
 8245W        W73406   9.652  14.680  11.670
 8246W        W73407   3.816  10.374   1.114
 8247W        W73408  39.975  31.986   4.703
 8248W        W73409  31.726   7.546  10.570
 8249W        W73410  20.021  40.978   0.408
 8250W        W73411  25.478  36.094  12.013
 8251W        W73412  13.614  41.283  13.122
 8252W        W73413  33.550  27.065  12.856
 8253W        W73414  17.173   8.750   1.307
 8254W        W73415  41.941  11.399  12.086
 8255W        W73416   1.001  27.042   4.122
 8256W        W73417  22.106  18.250  12.089
 8257W        W73418  34.242  23.147   3.870
 8258W        W73419  19.788  23.435   1.486
 8259W        W73420   4.449  11.656   0.441
 8260W        W73421   3.329  42.091  14.355
 8261W        W73422  21.820  32.816   0.824
 8262W        W73423  29.101  29.354   0.213
 8263W        W73424  16.156  12.041  12.063
 8264W        W73425  11.180  40.367   1.804
 8265W        W73426  17.536  44.755  12.842
 8266W        W73427   5.016  17.222   5.061
 8267W        W73428  32.036  36.308  13.367
 8268W        W73429  39.875  11.923   1.793
 8269W        W73430  11.004   9.711  14.549
 8270W        W73431  27.166  41.574  12.438
 8271W        W73432  44.062  41.820   2.325
 8272W        W73433  15.724  18.537   3.244
 8273W        W73434  27.234  38.251   3.078
 8274W        W73435  34.257  25.935  14.866
 8275W        W73436  25.209  14.900  13.576
 8276W        W73437  17.316  23.789   1.490
 8277W        W73438  14.243   7.129   4.942
 8278W        W73439  37.359  40.380   0.841
 8279W        W73440  28.215  33.345   1.289
 8280W        W73441  26.113  29.472  12.008
 8281W        W73442  35.495  21.624   0.896
 8282W        W73443  20.852  32.213  11.687
 8283W        W73444  22.593  25.383  11.600
 8284W        W73445  23.437  30.613   3.672
 8285W        W73446  12.380  29.704   3.873
 8286W        W73447  26.354   8.155  14.596
 8287W        W73448  38.116   0.517  12.891
 8288W        W73449  28.540  29.997  12.073
 8289W        W73450  32.526   0.946  12.631
 8290W        W73451  22.698  18.867  13.787
 8291W        W73452  24.478   6.411  12.832
 8292W        W73453  10.662  31.935   0.775
 8293W        W73454  18.426   0.274   1.410
 8294W        W73455  20.584  38.242   3.351
 8295W        W73456   3.911  35.547   2.446
 8296W        W73457  21.705   5.206   2.830
 8297W        W73458  34.288  30.971   1.353
 8298W        W73459  14.674  23.557  14.645
 8299W        W73460   1.662  29.090   3.554
 8300W        W73461  11.108  11.387   3.659
 8301W        W73462  14.239   4.271  13.265
 8302W        W73463  38.986   3.319  12.041
 8303W        W73464   5.893  20.079   2.251
 8304W        W73465  42.799  21.771  14.992
 8305W        W73466   6.295  22.809   4.951
 8306W        W73467  19.799  18.841  11.610
 8307W        W73468  33.949  43.756  12.531
 8308W        W73469  43.913  24.126   1.420
 8309W        W73470  18.820   0.955   4.182
 8310W        W73471  13.252   5.579   0.722
 8311W        W73472  13.836   3.425   2.265
 8312W        W73473  38.913  38.493  14.712
 8313W        W73474  34.657  15.067  14.075
 8314W        W73475  44.642   1.432  11.059
 8315W        W73476   2.975   7.700   2.777
 8316W        W73477   0.729  41.681  10.549
 8317W        W73478  42.924  10.854  11.063
 8318W        W73479  19.313  42.545   1.725
 8319W        W73480  27.568   9.820   0.482
 8320W        W73481   3.344  12.734   2.667
 8321W        W73482  42.905  29.502  11.732
 8322W        W73483   8.546  44.234   2.171
 8323W        W73484  13.710   5.817  13.942
 8324W        W73485  30.455  20.956  10.108
 8325W        W73486   2.516   0.063  12.613
 8326W        W73487  33.606   9.612  13.868
 8327W        W73488  37.222  38.862  10.218
 8328W        W73489  17.470   5.715   1.141
 8329W        W73490  13.280  12.783   1.843
 8330W        W73491  12.968  21.598  11.548
 8331W        W73492  21.562  22.254  13.153
 8332W        W73493  24.983  21.774  12.011
 8333W        W73494  26.534   8.289   0.118
 8334W        W73495  18.198  13.439  11.200
 8335W        W73496  33.530  14.212  13.652
 8336W        W73497  33.422  13.392  11.787
 8337W        W73498  15.383  34.349   0.018
 8338W        W73499  35.095  16.296   0.313
 8339W        W73500  21.220  14.418  13.802
 8340W        W73501  27.625  43.579  10.674
 8341W        W73502  42.134  11.813  10.745
 8342W        W73503  42.886  23.869   4.439
 8343W        W73504  12.161   2.011   4.515
 8344W        W73505  15.840  16.544  13.789
 8345W        W73506   9.651  37.799   3.721
 8346W        W73507  22.834  21.867   0.536
 8347W        W73508  36.080  25.332   0.909
 8348W        W73509  34.490  17.762  12.657
 8349W        W73510  40.490  13.612   3.769
 8350W        W73511  38.860  37.293  10.361
 8351W        W73512  44.027  43.580  13.968
 8352W        W73513   8.079  19.169   2.463
 8353W        W73514  17.271   9.566   1.957
 8354W        W73515   4.034  33.632   4.654
 8355W        W73516  30.473  40.516   3.716
 8356W        W73517  24.926  41.515  13.317
 8357W        W73518  26.740  31.448   2.003
 8358W        W73519  24.247  26.420  11.579
 8359W        W73520  44.320   3.809   3.786
 8360W        W73521   6.957   2.509   4.071
 8361W        W73522  44.433  35.561  11.186
 8362W        W73523   8.090  38.964  12.916
 8363W        W73524  29.959  18.385  11.966
 8364W        W73525  25.719   5.193   3.100
 8365W        W73526  26.991  21.621   4.024
 8366W        W73527   2.502  38.052   4.653
 8367W        W73528  22.098   9.261  11.690
 8368W        W73529  16.187  11.162  12.145
 8369W        W73530  22.319  13.683   0.045
 8370W        W73531   6.696   3.683  10.968
 8371W        W73532  33.890   8.270  12.437
 8372W        W73533  40.309   1.251   4.478
 8373W        W73534  18.946  38.033  12.784
 8374W        W73535  36.560  43.898  12.856
 8375W        W73536  15.804   6.521  14.187
 8376W        W73537  37.442   6.229  12.414
 8377W        W73538   4.309  10.713   0.288
 8378W        W73539   8.747   6.778  11.489
 8379W        W73540  22.453  35.840  12.899
 8380W        W73541   0.316  16.183  11.122
 8381W        W73542  30.955  30.636   4.974
 8382W        W73543  28.651  15.550   1.749
 8383W        W73544  30.335  43.924  14.874
 8384W        W73545  20.968  19.704   0.024
 8385W        W73546   8.575  34.335   1.199
 8386W        W73547  36.115  21.203  14.469
 8387W        W73548  29.615  39.096  11.771
 8388W        W73549  30.650   1.983   0.949
 8389W        W73550  11.169  36.027   4.730
 8390W        W73551   4.931  22.951   1.677
 8391W        W73552   5.219   9.186   1.388
 8392W        W73553   0.231  26.498  12.530
 8393W        W73554  42.807   5.599   3.748
 8394W        W73555  19.929  23.722   0.609
 8395W        W73556  35.831  12.625  13.902
 8396W        W73557  16.384  12.422  12.371
 8397W        W73558  16.317  19.721   3.272
 8398W        W73559  29.794  32.706   3.279
 8399W        W73560  26.702   0.880  14.851
 8400W        W73561   7.134   8.233   1.102
 8401W        W73562  32.929   4.609   0.440
 8402W        W73563  31.766  27.220  10.761
 8403W        W73564  12.923   7.288  11.672
 8404W        W73565  21.704  10.184   0.521
 8405W        W73566  14.628  24.202  13.447
 8406W        W73567   2.028  33.143  12.976
 8407W        W73568  10.426  40.772   4.196
 8408W        W73569  29.667  44.028  12.879
 8409W        W73570  34.580  28.578   2.663
 8410W        W73571  30.100  17.090  14.853
 8411W        W73572  32.878  11.060  12.571
 8412W        W73573  17.118  33.404  10.787
 8413W        W73574  36.367  38.465   0.916
 8414W        W73575   3.285  16.258  10.937
 8415W        W73576  30.987  21.788  10.656
 8416W        W73577  14.738   7.076   1.367
 8417W        W73578  27.391   6.223  12.640
 8418W        W73579  33.178  41.437  11.625
 8419W        W73580   6.314  12.266   0.185
 8420W        W73581   0.771  35.993   2.889
 8421W        W73582   9.934  41.947   1.396
 8422W        W73583  29.966  38.097   3.279
 8423W        W73584  44.496   2.808   2.791
 8424W        W73585  34.548  22.263  10.995
 8425W        W73586  19.015  28.946  14.327
 8426W        W73587   1.797  34.026  13.229
 8427W        W73588  25.756  41.750   4.678
 8428W        W73589  20.236  22.811  11.047
 8429W        W73590  42.172   9.478  11.102
 8430W        W73591   0.008  42.093  12.471
 8431W        W73592  17.629   0.489  10.477
 8432W        W73593   6.234  31.473  14.111
 8433W        W73594  31.655  19.314  10.959
 8434W        W73595  38.847  33.312  12.454
 8435W        W73596  11.735  17.386   1.854
 8436W        W73597  30.390  11.922  11.120
 8437W        W73598  40.743  29.430   0.307
 8438W        W73599  12.247  14.464   4.577
 8439W        W73600   1.920  26.140  12.521
 8440W        W73601  33.859  44.329  10.680
 8441W        W73602  25.411  40.849  10.648
 8442W        W73603  23.500   5.798   4.104
 8443W        W73604  40.238  38.400   0.763
 8444W        W73605  26.176  21.797  10.517
 8445W        W73606   4.264  42.286   3.136
 8446W        W73607   0.350  30.230  12.007
 8447W        W73608  43.223  13.423  13.401
 8448W        W73609  24.565  32.648  11.615
 8449W        W73610   6.765  27.519   2.270
 8450W        W73611  38.335  21.712  10.883
 8451W        W73612  39.215  32.907   5.056
 8452W        W73613  13.737   3.773   3.340
 8453W        W73614  22.909   6.519   4.143
 8454W        W73615   8.648  14.760  14.424
 8455W        W73616  40.725   9.213   2.996
 8456W        W73617   9.766   5.929  12.841
 8457W        W73618   9.692  14.132   3.860
 8458W        W73619   4.057  18.933   0.447
 8459W        W73620   2.333  38.271   4.213
 8460W        W73621  25.852  19.242  10.820
 8461W        W73622   8.620  36.534  12.030
 8462W        W73623  25.510  32.370  14.717
 8463W        W73624  33.756  41.018  14.698
 8464W        W73625  15.779  33.013   0.565
 8465W        W73626  38.069  22.529  13.182
 8466W        W73627  26.411  17.258  14.294
 8467W        W73628  16.033  20.009  12.719
 8468W        W73629  35.693   2.774   4.134
 8469W        W73630   3.970   3.326  12.155
 8470W        W73631  25.505  40.027   0.898
 8471W        W73632  13.054  16.994   0.380
 8472W        W73633  13.253  36.455  14.800
 8473W        W73634  21.215  44.949   0.415
 8474W        W73635   9.927  12.054   3.608
 8475W        W73636  44.886  14.441  14.095
 8476W        W73637  15.813  22.287  10.692
 8477W        W73638   1.904   7.454  11.221
 8478W        W73639  42.576  37.611   1.294
 8479W        W73640  18.280  24.702  13.487
 8480W        W73641  13.959  44.289   1.800
 8481W        W73642  28.015  17.048   1.457
 8482W        W73643   2.191  19.183   1.351
 8483W        W73644  34.611  34.701  11.920
 8484W        W73645  27.994  13.141  11.603
 8485W        W73646   8.662  39.274   2.246
 8486W        W73647  16.887  10.705  11.708
 8487W        W73648  28.453  39.601   9.857
 8488W        W73649   1.006   1.334   4.601
 8489W        W73650  28.265   0.018  14.277
 8490W        W73651  36.948  33.608  10.470
 8491W        W73652   8.090  39.005  10.518
 8492W        W73653  29.486  35.509   0.224
 8493W        W73654  39.145  18.236   5.092
 8494W        W73655  11.197  28.874   3.229
 8495W        W73656  38.221  10.245   3.759
 8496W        W73657  39.837  33.761  11.018
 8497W        W73658  41.228  24.987  12.016
 8498W        W73659  24.547  19.839  11.234
 8499W        W73660  27.626  44.328   2.135
 8500W        W73661   3.659  30.815   5.069
 8501W        W73662  38.427  15.203   4.543
 8502W        W73663  16.802   5.148  11.353
 8503W        W73664  27.717  19.204  13.338
 8504W        W73665  15.069  36.637  14.862
 8505W        W73666   7.314   4.809   2.228
 8506W        W73667  32.080  19.301   0.780
 8507W        W73668  17.810  43.301  11.145
 8508W        W73669  26.382  21.214   0.847
 8509W        W73670  38.889   5.139   0.836
 8510W        W73671   1.926  37.315  12.994
 8511W        W73672  15.671  28.753   2.273
 8512W        W73673   4.952   9.277   3.842
 8513W        W73674   1.345  31.160   1.497
 8514W        W73675  25.483  12.193   3.266
 8515W        W73676  23.503  38.215   4.147
 8516W        W73677  35.187  26.004   3.220
 8517W        W73678  10.800   1.706  13.957
 8518W        W73679  11.460  12.621  13.761
 8519W        W73680   1.736   5.678   3.691
 8520W        W73681  40.914  21.043  13.001
 8521W        W73682  44.563  13.652   2.638
 8522W        W73683  14.822  34.961   3.593
 8523W        W73684   5.387  15.136  11.305
 8524W        W73685   3.383   1.814  12.179
 8525W        W73686  33.152  15.511  12.635
 8526W        W73687  37.391  23.680  12.407
 8527W        W73688  19.185   9.004   4.082
 8528W        W73689  37.056  41.588   2.331
 8529W        W73690  33.025  28.143  13.449
 8530W        W73691  25.315  40.622   2.779
 8531W        W73692  38.378   4.234  13.392
 8532W        W73693  13.357  44.052  14.533
 8533W        W73694  23.754  40.946  13.976
 8534W        W73695  39.210  24.362   0.979
 8535W        W73696  33.299  41.984  12.803
 8536W        W73697   3.792  12.995   2.809
 8537W        W73698   2.197  16.637   0.823
 8538W        W73699  12.650  27.158  12.170
 8539W        W73700  32.909  10.331   2.210
 8540W        W73701   5.483   6.381  14.771
 8541W        W73702  36.451  22.002  11.466
 8542W        W73703  22.825  24.024  11.889
 8543W        W73704  35.107  32.986  10.795
 8544W        W73705  38.267  30.291   0.930
 8545W        W73706  26.362  11.644   0.367
 8546W        W73707   9.854  40.461   2.733
 8547W        W73708  12.538  23.900   4.158
 8548W        W73709  14.921  43.361  11.608
 8549W        W73710  34.979  38.404   5.628
 8550W        W73711   3.077   8.028   4.080
 8551W        W73712  37.550  21.424  13.564
 8552W        W73713  38.976   1.171  11.356
 8553W        W73714  34.538  20.100  12.521
 8554W        W73715  14.463  26.979   0.366
 8555W        W73716  15.307  10.619   0.922
 8556W        W73717  14.237  32.749   2.626
 8557W        W73718  43.229   1.864  11.170
 8558W        W73719   2.453  15.278   5.016
 8559W        W73720   2.047  39.313  11.988
 8560W        W73721  20.506  27.654   4.554
 8561W        W73722  19.179   2.444   1.485
 8562W        W73723  24.551  10.154  10.758
 8563W        W73724  38.818  37.509   0.019
 8564W        W73725  33.696  41.303   3.937
 8565W        W73726  37.209  33.663  11.267
 8566W        W73727  42.940  16.566   2.683
 8567W        W73728   6.323   4.348   1.315
 8568W        W73729  31.148  21.743  12.172
 8569W        W73730   5.901  27.749  12.357
 8570W        W73731  42.824  25.601  14.523
 8571W        W73732  11.253  44.365   0.788
 8572W        W73733  39.410  38.471   2.403
 8573W        W73734  18.036  31.506   0.874
 8574W        W73735  25.553  37.251   4.812
 8575W        W73736  23.519  20.780  12.477
 8576W        W73737   3.058  11.629   2.632
 8577W        W73738  11.902   2.788   3.296
 8578W        W73739   4.296   1.258  11.680
 8579W        W73740  24.400  44.408   0.906
 8580W        W73741  20.663  16.961  11.961
 8581W        W73742  11.910  21.265  12.260
 8582W        W73743  26.755  31.873  13.510
 8583W        W73744  15.413   4.625   5.019
 8584W        W73745   5.652  39.402   3.260
 8585W        W73746  24.466  34.935   4.794
 8586W        W73747   4.290  39.088  11.184
 8587W        W73748  26.069  34.869   1.320
 8588W        W73749  15.282  17.703   4.849
 8589W        W73750  17.242  13.503  12.880
 8590W        W73751  30.455  35.830  12.926
 8591W        W73752  20.428  43.974  11.112
 8592W        W73753  11.665   4.762  14.744
 8593W        W73754  11.747  10.783   4.067
 8594W        W73755  21.507  10.065   2.327
 8595W        W73756  29.662  39.383   2.338
 8596W        W73757   9.382  34.672   0.871
 8597W        W73758  16.911  23.652   4.740
 8598W        W73759  35.566   5.774   4.903
 8599W        W73760  22.124  12.778  11.541
 8600W        W73761  18.926  44.877  14.324
 8601W        W73762  33.499  37.091   0.896
 8602W        W73763  41.412  38.971   1.258
 8603W        W73764  13.146  23.683  14.894
 8604W        W73765   7.267  16.981  12.679
 8605W        W73766  20.814  26.090   1.750
 8606W        W73767  23.186  19.451  11.441
 8607W        W73768  31.632  40.512  11.554
 8608W        W73769  11.048   6.301   1.790
 8609W        W73770  34.436   2.428  12.987
 8610W        W73771   4.638  20.690  11.981
 8611W        W73772  14.332   1.274   2.806
 8612W        W73773  22.424  10.330   1.658
 8613W        W73774   1.728  25.105  13.514
 8614W        W73775  18.089  22.323  10.656
 8615W        W73776  35.083  34.794  11.045
 8616W        W73777  18.997  11.150   1.784
 8617W        W73778   3.842   2.050   2.994
 8618W        W73779   3.712  11.190  14.268
 8619W        W73780  12.410  21.256  12.416
 8620W        W73781  27.471  35.148   2.381
 8621W        W73782  43.247  21.124   2.897
 8622W        W73783   9.940  15.122   4.064
 8623W        W73784  10.533  29.237   3.947
 8624W        W73785  11.691   7.268  14.272
 8625W        W73786  19.791   5.232  12.132
 8626W        W73787  33.408  40.550  12.003
 8627W        W73788  31.435  13.792   3.240
 8628W        W73789  40.772  44.380   3.297
 8629W        W73790  16.745  14.530  13.962
 8630W        W73791  24.579   0.658   0.700
 8631W        W73792  40.842  35.834   0.895
 8632W        W73793  13.726  42.513   0.478
 8633W        W73794  16.214  33.127  14.821
 8634W        W73795  41.453  18.203  12.584
 8635W        W73796   7.854  28.310   1.007
 8636W        W73797  13.789   2.843   2.772
 8637W        W73798  10.763  12.156  12.023
 8638W        W73799   6.210  26.165  13.843
 8639W        W73800  15.623   9.342  13.925
 8640W        W73801  35.253   0.500  13.089
 8641W        W73802   8.185   8.389   0.807
 8642W        W73803  26.035  20.718  10.591
 8643W        W73804  37.646   9.552   2.445
 8644W        W73805  25.357  36.043  12.526
 8645W        W73806  33.043   6.567   4.813
 8646W        W73807  35.379  33.593  14.404
 8647W        W73808  20.192  33.271   1.882
 8648W        W73809  23.192  19.703  14.208
 8649W        W73810  35.030  20.773   0.985
 8650W        W73811  40.432   0.392  13.676
 8651W        W73812  19.234  41.565  10.971
 8652W        W73813  17.303   7.296   5.089
 8653W        W73814  12.260  15.615  12.429
 8654W        W73815  23.477  35.178   2.363
 8655W        W73816  22.201  10.065  12.566
 8656W        W73817   8.664  17.977  12.621
 8657W        W73818  25.455   1.884   0.391
 8658W        W73819  20.063  32.653   4.976
 8659W        W73820  16.665  12.387  11.588
 8660W        W73821  15.013  23.706   2.317
 8661W        W73822  15.529   0.828  14.078
 8662W        W73823  33.634  11.760  13.511
 8663W        W73824  41.502  24.200  11.239
 8664W        W73825  14.676  17.174   0.746
 8665W        W73826  31.784  25.670  14.348
 8666W        W73827   5.313  22.701   4.210
 8667W        W73828  19.623   6.294   1.866
 8668W        W73829  23.730  25.747  12.005
 8669W        W73830  12.242   8.721  10.749
 8670W        W73831  29.177  13.439   2.132
 8671W        W73832  36.552  26.707  14.556
 8672W        W73833  44.842  11.798   2.165
 8673W        W73834   0.364  39.567   0.671
 8674W        W73835  35.028  26.431   1.178
 8675W        W73836  41.898   0.711  11.585
 8676W        W73837  34.783  39.701   9.796
 8677W        W73838  14.408   9.295   2.961
 8678W        W73839  13.276   0.351  11.685
 8679W        W73840  29.621   9.366   0.949
 8680W        W73841  23.726   3.263  13.281
 8681W        W73842  13.688  37.968  11.279
 8682W        W73843  42.879  35.562   0.240
 8683W        W73844  25.264  33.001   3.651
 8684W        W73845  31.903   1.260   1.767
 8685W        W73846  31.166  39.990   3.340
 8686W        W73847  17.086  19.123  11.605
 8687W        W73848  21.227  11.070  11.146
 8688W        W73849  22.019  34.587  14.273
 8689W        W73850  33.184  10.944   0.824
 8690W        W73851  30.606   2.512   0.334
 8691W        W73852  25.199   6.155   4.198
 8692W        W73853  16.152   8.250   4.562
 8693W        W73854  26.200  22.488  12.822
 8694W        W73855  37.935  21.045  12.550
 8695W        W73856   3.782  26.979   3.455
 8696W        W73857  25.226   6.187   3.248
 8697W        W73858  37.765  32.737   4.115
 8698W        W73859  42.577  11.643  12.862
 8699W        W73860  17.332  40.736   2.639
 8700W        W73861  34.402  23.731   3.742
 8701W        W73862  37.129  38.580   9.778
 8702W        W73863  11.664  42.905  12.029
 8703W        W73864  24.475  24.563   1.759
 8704W        W73865   5.184  44.104   0.230
 8705W        W73866  27.117  18.774   3.048
 8706W        W73867  30.130   9.213   2.860
 8707W        W73868  27.179  20.094   0.177
 8708W        W73869   3.973  43.965  13.874
 8709W        W73870  44.505  13.715   3.144
 8710W        W73871  35.647  25.039   0.935
 8711W        W73872  43.911  19.976   1.327
 8712W        W73873  31.394   3.987  14.394
 8713W        W73874  40.884  35.370  14.210
 8714W        W73875   9.295  33.128   4.819
 8715W        W73876  13.111  20.600  13.908
 8716W        W73877  25.670  31.836  11.586
 8717W        W73878  34.754  42.460  10.428
 8718W        W73879  35.155  44.465  13.502
 8719W        W73880  21.547   6.398   3.694
 8720W        W73881  43.774  11.684  13.472
 8721W        W73882   0.925  13.818   2.956
 8722W        W73883  33.867   7.014   3.259
 8723W        W73884  19.626  34.180  12.874
 8724W        W73885   3.261   5.926   1.850
 8725W        W73886  14.171  23.131  10.716
 8726W        W73887  42.503  15.822  13.821
 8727W        W73888   0.777  13.303  12.613
 8728W        W73889   6.186  35.388  10.730
 8729W        W73890  36.864  39.377  13.459
 8730W        W73891  40.576  36.423   0.668
 8731W        W73892   6.953  41.252   4.169
 8732W        W73893  36.889  12.303  13.603
 8733W        W73894  22.640  23.056   2.242
 8734W        W73895   2.193  32.513   4.194
 8735W        W73896  43.295   5.137  14.495
 8736W        W73897  10.403  38.901  13.565
 8737W        W73898  44.294  27.752   0.136
 8738W        W73899  25.820  18.817  11.203
 8739W        W73900  31.962  35.888  13.699
 8740W        W73901   8.518  34.954   0.801
 8741W        W73902  32.094  39.992  10.383
 8742W        W73903  22.271  17.831   2.781
 8743W        W73904  24.436   2.663  10.660
 8744W        W73905  37.875  24.501   1.210
 8745W        W73906  13.165   4.347  11.732
 8746W        W73907  38.266  40.286   3.202
 8747W        W73908   4.762   8.553  10.711
 8748W        W73909  20.535  43.782  13.039
 8749W        W73910  31.095  15.769   0.313
 8750W        W73911   2.297  23.707  14.569
 8751W        W73912   8.478  28.542  14.452
 8752W        W73913   7.005  20.798   3.788
 8753W        W73914  40.753  41.501  10.683
 8754W        W73915  41.498   0.680   3.263
 8755W        W73916   6.360  24.211  11.592
 8756W        W73917   9.959   4.821   3.609
 8757W        W73918   2.603  37.017   4.646
 8758W        W73919  34.642  12.846   1.877
 8759W        W73920  25.652   3.716   2.655
 8760W        W73921  39.024   9.877   3.884
 8761W        W73922  17.227  12.742   3.879
 8762W        W73923   4.667  38.424   4.591
 8763W        W73924  32.039  11.005   4.672
 8764W        W73925  16.131  25.127  11.513
 8765W        W73926  37.143  44.010   1.156
 8766W        W73927  28.050   6.203  13.404
 8767W        W73928  37.264  36.227   2.257
 8768W        W73929  44.257  32.675  13.421
 8769W        W73930  28.332   2.369   0.630
 8770W        W73931  25.716  41.949   0.405
 8771W        W73932   7.302   4.408  11.920
 8772W        W73933  38.472   3.416   0.037
 8773W        W73934  34.508  15.080   4.532
 8774W        W73935  23.650   4.897   3.110
 8775W        W73936  12.023  29.133  13.413
 8776W        W73937  23.509  17.167  13.939
 8777W        W73938  25.067  20.541   3.375
 8778W        W73939  32.399  16.115   2.087
 8779W        W73940  34.905  33.132  12.619
 8780W        W73941  23.307  16.115  10.686
 8781W        W73942  37.872   7.763  11.526
 8782W        W73943   5.199  40.167   0.659
 8783W        W73944  44.991  33.649  11.989
 8784W        W73945  32.884  44.779   4.242
 8785W        W73946  26.452   4.845   1.908
 8786W        W73947  39.958  41.553   0.322
 8787W        W73948  24.813  41.995   1.411
 8788W        W73949   6.034   8.781   5.102
 8789W        W73950  33.041   2.765  12.557
 8790W        W73951  10.803  32.394  13.393
 8791W        W73952  32.532   1.820   0.511
 8792W        W73953  35.481  42.887   3.628
 8793W        W73954  37.499  38.577  13.609
 8794W        W73955  36.071  11.229   0.328
 8795W        W73956  15.109   7.399  12.422
 8796W        W73957   0.264  10.829  12.216
 8797W        W73958  29.398  25.909   1.025
 8798W        W73959   7.346   0.574  12.149
 8799W        W73960   6.653  37.574   4.044
 8800W        W73961  43.674  21.696   2.345
 8801W        W73962  41.797  29.179   0.378
 8802W        W73963   4.360   4.837   2.343
 8803W        W73964  38.098   9.995   3.057
 8804W        W73965  44.728  14.373   0.070
 8805W        W73966  35.419  28.389   0.595
 8806W        W73967   8.485   6.250  14.054
 8807W        W73968  25.234  16.216   5.426
 8808W        W73969  42.522  29.471   2.289
 8809W        W73970   6.975  39.272   4.209
 8810W        W73971  14.651  19.895   2.332
 8811W        W73972  18.266  20.642  12.507
 8812W        W73973   3.636   5.081  14.465
 8813W        W73974   2.181  24.626   4.074
 8814W        W73975  40.399  21.641  11.275
 8815W        W73976  41.335  40.379   2.788
 8816W        W73977  15.822  19.474  14.953
 8817W        W73978  12.796  12.925  12.467
 8818W        W73979  26.176  23.068   4.539
 8819W        W73980  16.449  28.260  12.062
 8820W        W73981  29.463  13.632   1.747
 8821W        W73982  36.063  13.073  13.832
 8822W        W73983  19.107   5.437   3.679
 8823W        W73984  25.555  21.297  12.605
 8824W        W73985  12.636   6.164  13.111
 8825W        W73986  22.229  13.241  12.019
 8826W        W73987  42.870  18.293  12.647
 8827W        W73988  24.746   3.677  14.146
 8828W        W73989   5.184  14.503  13.717
 8829W        W73990  19.771  14.317   0.190
 8830W        W73991  44.436  10.141   4.518
 8831W        W73992   8.237  32.561  14.966
 8832W        W73993  23.249  38.460  10.037
 8833W        W73994   5.367  35.358  14.650
 8834W        W73995  30.516  36.878   3.698
 8835W        W73996   3.436  37.874   1.823
 8836W        W73997  36.732  30.504  13.058
 8837W        W73998   7.340  29.074   1.798
 8838W        W73999  11.560  24.132   3.104
 8839W        W74000   3.554  31.636  13.451
 8840W        W74001  44.792  38.867  14.618
 8841W        W74002  29.638  11.231   2.795
 8842W        W74003   1.492  20.280   3.205
 8843W        W74004  33.923  28.931   4.017
 8844W        W74005  30.354   1.704   4.037
 8845W        W74006  43.563  41.724   2.182
 8846W        W74007  39.850  21.702   1.311
 8847W        W74008  26.544   4.994   0.914
 8848W        W74009  41.453  43.719  12.096
 8849W        W74010  42.714   7.641  10.577
 8850W        W74011  35.459  44.736  14.002
 8851W        W74012  40.266  17.636   1.992
 8852W        W74013  26.724  34.931  13.858
 8853W        W74014  15.118   3.941  14.737
 8854W        W74015  26.652  31.380   3.829
 8855W        W74016  13.236  40.501  14.216
 8856W        W74017  34.084  30.248   0.279
 8857W        W74018  10.582  16.163   1.875
 8858W        W74019  24.804  29.479   3.231
 8859W        W74020  36.620  26.448  13.042
 8860W        W74021  12.574  16.289  13.399
 8861W        W74022  19.157  43.494  14.979
 8862W        W74023   2.430  10.556  14.426
 8863W        W74024  36.934  35.297   2.648
 8864W        W74025  30.128  37.015   2.651
 8865W        W74026  16.781  44.981  14.666
 8866W        W74027  30.411  31.170   0.175
 8867W        W74028  16.290   6.205   0.190
 8868W        W74029  44.373  16.440  13.334
 8869W        W74030  18.767  42.558  14.913
 8870W        W74031   3.020  10.155   0.034
 8871W        W74032  30.111   3.344   0.944
 8872W        W74033  15.017  20.700  12.583
 8873W        W74034  13.925  32.453  14.459
 8874W        W74035  32.159  44.953   1.219
 8875W        W74036  39.927  21.010  10.759
 8876W        W74037   2.801  21.515   4.605
 8877W        W74038  13.792   8.912   4.139
 8878W        W74039  40.874   0.317   3.702
 8879W        W74040   2.676  42.015  11.181
 8880W        W74041   1.130   3.817  12.060
 8881W        W74042  19.743   7.945   3.287
 8882W        W74043  21.527  14.056  12.946
 8883W        W74044  18.250  36.053   4.076
 8884W        W74045  20.714  43.372  14.801
 8885W        W74046  32.859  37.964  11.553
 8886W        W74047  37.539   0.175   0.893
 8887W        W74048  21.787   3.718  10.452
 8888W        W74049   5.605  24.098  11.872
 8889W        W74050  28.125  29.333   3.059
 8890W        W74051  31.541  33.381  14.420
 8891W        W74052  36.634  12.467   3.125
 8892W        W74053  20.976  31.364  14.305
 8893W        W74054  36.430  35.553  11.553
 8894W        W74055  21.973  34.941   0.294
 8895W        W74056  41.056  19.808   2.320
 8896W        W74057  21.494  18.271   1.340
 8897W        W74058  21.824  42.642  11.141
 8898W        W74059   6.740  40.956  13.837
 8899W        W74060  28.441  31.616   3.257
 8900W        W74061  13.094  28.539  10.699
 8901W        W74062  14.228  34.551   4.730
 8902W        W74063  10.412  19.219   3.227
 8903W        W74064  18.759  36.610   0.957
 8904W        W74065   1.771  10.760   2.370
 8905W        W74066  15.291  26.056   0.832
 8906W        W74067  11.208  28.633   3.719
 8907W        W74068   4.189  11.165  12.008
 8908W        W74069  35.374   6.938  13.098
 8909W        W74070   8.107  37.460  14.930
 8910W        W74071  24.910  34.667  14.499
 8911W        W74072   9.935  43.379  11.431
 8912W        W74073   0.788  40.569   0.896
 8913W        W74074   3.645  33.674  12.577
 8914W        W74075   7.219   0.416  10.654
 8915W        W74076  41.344  39.443   2.757
 8916W        W74077  31.366  16.759   0.906
 8917W        W74078  30.961  19.701  10.388
 8918W        W74079   2.448   4.154  10.741
 8919W        W74080  32.976   6.154  12.861
 8920W        W74081  16.582  43.288  11.090
 8921W        W74082  40.881  36.483   3.210
 8922W        W74083  13.393  26.947   3.224
 8923W        W74084  11.539  33.376   2.695
 8924W        W74085   7.963   4.595  11.164
 8925W        W74086  38.588  26.618  10.944
 8926W        W74087  16.153  28.634   4.566
 8927W        W74088  17.552  30.051  12.045
 8928W        W74089  37.047  23.779   3.714
 8929W        W74090  34.137  12.889  13.481
 8930W        W74091  13.180  40.648   4.953
 8931W        W74092  31.670  14.426  13.552
 8932W        W74093  14.984  20.493   0.037
 8933W        W74094  22.762  25.162  13.945
 8934W        W74095  32.863  30.514   1.603
 8935W        W74096  22.131  16.576  13.820
 8936W        W74097  28.673  17.551  13.938
 8937W        W74098  32.924  11.396   2.635
 8938W        W74099   6.413  20.358   3.170
 8939W        W74100   9.230  10.242   1.921
 8940W        W74101  17.534  13.102   1.855
 8941W        W74102  37.073  31.701   0.532
 8942W        W74103  13.230  44.799  12.414
 8943W        W74104  41.537  17.903   4.022
 8944W        W74105   6.844  19.019   3.192
 8945W        W74106  23.387  26.748   3.844
 8946W        W74107  30.011   0.890   0.413
 8947W        W74108   4.414  41.889  13.334
 8948W        W74109  44.531   9.630   0.843
 8949W        W74110   7.799   1.494  13.485
 8950W        W74111  24.108  35.326   4.693
 8951W        W74112  41.930  33.030   3.403
 8952W        W74113  28.618   6.146  14.263
 8953W        W74114  30.430   4.910   0.592
 8954W        W74115  14.639   5.390   1.851
 8955W        W74116  43.445  20.722   2.193
 8956W        W74117  34.528  27.663   3.100
 8957W        W74118  10.752  35.332   4.081
 8958W        W74119  22.701  23.484   4.460
 8959W        W74120  12.671   4.437   0.701
 8960W        W74121  22.535  34.413  11.051
 8961W        W74122   9.055  43.505   3.250
 8962W        W74123   5.390   9.771   0.822
 8963W        W74124   2.923  31.174  11.187
 8964W        W74125  33.158  22.228  13.877
 8965W        W74126   1.448  29.149   2.563
 8966W        W74127  18.716  37.543  12.717
 8967W        W74128  31.420  38.081  11.617
 8968W        W74129  25.003  19.793  14.051
 8969W        W74130  36.888  43.419  13.007
 8970W        W74131  29.890  10.177  12.630
 8971W        W74132  29.775   8.348  12.630
 8972W        W74133   6.232  23.194   3.222
 8973W        W74134  16.317   1.873   1.179
 8974W        W74135   5.791  28.911   2.179
 8975W        W74136  37.170   7.121   0.067
 8976W        W74137  40.464   7.640   0.782
 8977W        W74138   6.432  26.626  10.577
 8978W        W74139  13.729  14.155  11.461
 8979W        W74140  42.814  14.368   2.306
 8980W        W74141  26.192   4.203  14.307
 8981W        W74142   0.569   5.557   1.910
 8982W        W74143  32.625   9.329   3.969
 8983W        W74144  13.803   7.316   4.297
 8984W        W74145  12.136  41.803  10.653
 8985W        W74146  17.954  18.762   3.104
 8986W        W74147   1.759  39.039   2.374
 8987W        W74148  33.648  31.075   4.631
 8988W        W74149   3.818  32.172   2.775
 8989W        W74150  32.933  36.562   2.623
 8990W        W74151  20.979  40.353   5.627
 8991W        W74152   1.270   9.049   0.462
 8992W        W74153  23.028  17.016  13.796
 8993W        W74154  16.597   9.941  13.471
 8994W        W74155  18.839  12.270  10.674
 8995W        W74156  12.771  41.024  10.750
 8996W        W74157  14.941   5.324  12.982
 8997W        W74158  40.421   4.137   4.272
 8998W        W74159  14.800  30.279  11.394
 8999W        W74160   6.093  37.805  10.714
 9000W        W74161  30.961   5.901  12.078
 9001W        W74162  34.013   5.343  12.460
 9002W        W74163  10.233   2.478  13.955
 9003W        W74164  20.825  27.861  12.644
 9004W        W74165  24.337  30.609  13.589
 9005W        W74166   9.767   8.370   3.574
 9006W        W74167  43.792   2.227   2.663
 9007W        W74168  25.612   6.172  12.685
 9008W        W74169   1.391   5.265   4.524
 9009W        W74170  31.440  42.476  10.687
 9010W        W74171  40.968   3.363   2.293
 9011W        W74172   7.442  31.877  12.625
 9012W        W74173  42.882  17.119  14.971
 9013W        W74174  37.483  33.652   2.771
 9014W        W74175  40.154  28.881  13.046
 9015W        W74176  24.293  15.809   4.023
 9016W        W74177   6.921  30.161   2.506
 9017W        W74178  21.861  40.816   2.797
 9018W        W74179   5.410  37.013   2.262
 9019W        W74180   5.230  33.973   1.715
 9020W        W74181   7.939   2.487   1.545
 9021W        W74182  32.923   7.370   2.948
 9022W        W74183  13.398  10.755  12.845
 9023W        W74184  44.058  43.450   4.590
 9024W        W74185  13.765   2.346  13.870
 9025W        W74186  11.248  39.578   2.240
 9026W        W74187  39.218  28.289  12.557
 9027W        W74188   1.755  43.088  11.172
 9028W        W74189   7.278  27.967   4.136
 9029W        W74190   8.178  11.983   3.239
 9030W        W74191  36.593  31.611  13.550
 9031W        W74192  32.430  39.123  14.857
 9032W        W74193  29.641  21.484   5.122
 9033W        W74194   3.205  37.240  11.457
 9034W        W74195  29.139  15.564  14.286
 9035W        W74196   6.634  16.380  11.009
 9036W        W74197  42.112  18.232  11.610
 9037W        W74198   6.696  37.925  11.558
 9038W        W74199  44.676  20.593   0.150
 9039W        W74200   4.268   1.488  11.198
 9040W        W74201  27.657  37.898   4.377
 9041W        W74202  39.921   3.364  12.938
 9042W        W74203  13.044  38.124  11.445
 9043W        W74204   3.222   2.900   0.739
 9044W        W74205  28.524  22.269   0.925
 9045W        W74206   6.436  41.990   0.372
 9046W        W74207  39.790  17.298   3.353
 9047W        W74208  29.322  31.380  11.535
 9048W        W74209  30.890   0.849  13.378
 9049W        W74210  29.586  18.606  13.790
 9050W        W74211  16.558  25.218  13.640
 9051W        W74212  40.392  43.271  10.497
 9052W        W74213  19.803  21.855  13.963
 9053W        W74214  44.928   9.659   1.921
 9054W        W74215  15.387   5.694  11.542
 9055W        W74216  39.072  10.181  13.813
 9056W        W74217  41.353  18.784   4.163
 9057W        W74218  19.892  29.115  10.631
 9058W        W74219  33.895  21.557  12.859
 9059W        W74220   9.288  11.593  13.262
 9060W        W74221  30.183  16.592  12.432
 9061W        W74222  22.565  10.727   1.928
 9062W        W74223   0.539  21.019  14.445
 9063W        W74224  33.547  42.336  13.110
 9064W        W74225  22.014  23.254   0.886
 9065W        W74226   3.266  44.514  10.554
 9066W        W74227   6.272  42.280  13.516
 9067W        W74228  44.449   5.720   4.052
 9068W        W74229  23.400  33.885  11.140
 9069W        W74230  39.971  17.645   0.235
 9070W        W74231   4.730   9.359  12.952
 9071W        W74232   5.723  28.495   1.858
 9072W        W74233  20.067  16.214   1.203
 9073W        W74234  15.541  42.561   1.882
 9074W        W74235   1.541   8.128   2.152
 9075W        W74236   0.725  23.785   3.735
 9076W        W74237  28.094   0.776  13.132
 9077W        W74238  39.993   7.744  10.502
 9078W        W74239  18.547  24.104  11.561
 9079W        W74240   6.659  34.960  13.000
 9080W        W74241  36.461  32.849   0.420
 9081W        W74242   3.991   5.426   4.599
 9082W        W74243  10.367   0.908   0.719
 9083W        W74244  32.705  30.463  12.497
 9084W        W74245   0.904  42.088   0.888
 9085W        W74246   1.663  33.426   3.226
 9086W        W74247  39.117  41.967   0.530
 9087W        W74248  11.628  28.314  12.679
 9088W        W74249  32.046  21.129   3.264
 9089W        W74250  32.970  16.596   3.684
 9090W        W74251  44.352  40.474   0.516
 9091W        W74252  20.051  33.195   3.782
 9092W        W74253  36.866  32.659  13.323
 9093W        W74254  12.109   0.974  11.669
 9094W        W74255  26.015   5.759   0.973
 9095W        W74256  22.868   0.097  14.349
 9096W        W74257   8.840  18.862   2.016
 9097W        W74258  29.900  33.351   2.267
 9098W        W74259  19.129  14.108   4.776
 9099W        W74260  42.841  18.686  11.793
 9100W        W74261  43.357  13.155  12.969
 9101W        W74262  12.657  21.785  10.629
 9102W        W74263  31.206  41.910   1.949
 9103W        W74264  44.395  14.703   4.464
 9104W        W74265  20.865  32.485  14.985
 9105W        W74266   8.094  32.588   2.668
 9106W        W74267  42.902  26.484  13.387
 9107W        W74268   4.088  26.441  12.206
 9108W        W74269  10.876  12.446   0.585
 9109W        W74270   5.360   2.967   4.333
 9110W        W74271  34.117  35.578   0.405
 9111W        W74272   3.203   7.838   0.734
 9112W        W74273  44.001  11.855  14.545
 9113W        W74274  10.659  11.253   0.036
 9114W        W74275  30.034   7.739   4.259
 9115W        W74276  37.226  37.950  11.931
 9116W        W74277  30.449  37.107   1.306
 9117W        W74278  22.025   0.693  13.867
 9118W        W74279  27.998  24.299  14.577
 9119W        W74280  15.681  21.127  13.778
 9120W        W74281  24.408  19.095   2.320
 9121W        W74282  42.839   5.482  14.803
 9122W        W74283   6.697  14.291   1.420
 9123W        W74284  24.234   4.491  13.454
 9124W        W74285  41.249  35.419   3.715
 9125W        W74286  11.055  23.077   0.999
 9126W        W74287   7.803  13.222  13.852
 9127W        W74288  20.958  35.539  13.726
 9128W        W74289  20.117  38.596  11.715
 9129W        W74290  25.855  10.315  10.941
 9130W        W74291  15.925   9.892  14.590
 9131W        W74292  20.845   4.831  10.566
 9132W        W74293  27.530   3.911   1.301
 9133W        W74294  24.533  33.007  14.919
 9134W        W74295   5.922   6.956   2.824
 9135W        W74296  29.155   4.270  14.811
 9136W        W74297  22.535  13.569   3.292
 9137W        W74298   7.677  24.255   1.876
 9138W        W74299   9.160  23.223   4.332
 9139W        W74300  24.500  29.591   0.877
 9140W        W74301  35.060  43.459  13.495
 9141W        W74302   7.537  27.040   0.029
 9142W        W74303  39.292  32.478  10.854
 9143W        W74304  35.007  42.626  11.601
 9144W        W74305  12.306  31.889  13.942
 9145W        W74306  43.271  34.841  14.389
 9146W        W74307  37.205  44.323   4.059
 9147W        W74308  17.624  44.753  10.927
 9148W        W74309  19.227   1.858  12.589
 9149W        W74310   7.815  16.258  13.876
 9150W        W74311   1.402  24.484   2.508
 9151W        W74312  32.829  24.766   4.204
 9152W        W74313  43.336  40.750  11.617
 9153W        W74314   1.880  39.138  13.499
 9154W        W74315   4.749   6.040   4.263
 9155W        W74316  29.906  39.062   0.375
 9156W        W74317   2.685  43.116   1.337
 9157W        W74318  40.103  39.489   3.672
 9158W        W74319  18.646  26.185   4.344
 9159W        W74320  35.768   0.075   2.680
 9160W        W74321  40.283  29.394   2.687
 9161W        W74322  31.471  25.147   0.812
 9162W        W74323  14.596  40.110  14.925
 9163W        W74324   8.228   2.022  12.930
 9164W        W74325  21.695  35.867  11.068
 9165W        W74326  11.276  20.107  10.410
 9166W        W74327   6.192   1.032   1.373
 9167W        W74328  23.549  32.528   3.199
 9168W        W74329  44.921  30.661  12.030
 9169W        W74330   0.793  35.019  13.087
 9170W        W74331  44.994   1.062   4.207
 9171W        W74332  19.643  43.124   1.254
 9172W        W74333   5.663  19.945   2.783
 9173W        W74334  37.496   1.170   0.996
 9174W        W74335  14.194  19.197  12.113
 9175W        W74336  43.030  28.999   3.557
 9176W        W74337   5.910  38.675   0.057
 9177W        W74338   6.680  44.331  10.757
 9178W        W74339  16.159   1.399  10.706
 9179W        W74340  35.364   9.764   2.866
 9180W        W74341   9.622  31.434   3.123
 9181W        W74342  31.925   2.410  13.988
 9182W        W74343   2.767  42.363   4.690
 9183W        W74344  26.432  27.230  12.388
 9184W        W74345   0.862  36.431   2.612
 9185W        W74346   6.225  27.083  11.839
 9186W        W74347  44.003  42.826  11.664
 9187W        W74348  24.132  20.944  10.373
 9188W        W74349  26.361   2.159   0.262
 9189W        W74350  21.292  41.291   1.204
 9190W        W74351   2.729  28.617   0.340
 9191W        W74352  32.841  36.912   2.251
 9192W        W74353   2.017  18.428   0.404
 9193W        W74354  11.103  23.200  14.090
 9194W        W74355  18.890  36.532  11.670
 9195W        W74356   0.979  11.848   0.483
 9196W        W74357  15.816  39.437   0.826
 9197W        W74358  41.253  17.582   1.762
 9198W        W74359  25.577  32.969   4.065
 9199W        W74360   3.330  44.890  13.268
 9200W        W74361  33.735  35.902   2.669
 9201W        W74362  27.462  16.029  12.924
 9202W        W74363  25.329  40.605  12.200
 9203W        W74364   6.158   9.943   3.634
 9204W        W74365  10.452  23.194  10.959
 9205W        W74366  11.230  19.853  12.204
 9206W        W74367  31.098   4.743  12.608
 9207W        W74368  27.498   2.959   3.250
 9208W        W74369  28.053  34.918  12.011
 9209W        W74370  31.739   4.698  14.895
 9210W        W74371  19.309  36.678  12.596
 9211W        W74372  25.651  41.222   3.779
 9212W        W74373  24.080   8.231   2.556
 9213W        W74374  13.705  41.807   4.566
 9214W        W74375  16.587  18.346   0.078
 9215W        W74376  40.826   0.039   3.262
 9216W        W74377   4.935  28.252  14.883
 9217W        W74378  24.131   0.460  11.295
 9218W        W74379  28.686  16.305  13.245
 9219W        W74380  33.447  26.033  13.105
 9220W        W74381  26.083  25.148   0.731
 9221W        W74382  30.041  34.756  11.065
 9222W        W74383  13.153  43.453  11.676
 9223W        W74384   9.046  25.047  13.123
 9224W        W74385  39.130  40.998   2.802
 9225W        W74386  16.589  28.601   1.466
 9226W        W74387  15.626  15.623  11.930
 9227W        W74388  33.334  40.122  13.164
 9228W        W74389  10.869  31.367   4.646
 9229W        W74390  36.724  31.484   3.252
 9230W        W74391  34.378  25.262  12.006
 9231W        W74392  13.269  26.631   0.200
 9232W        W74393  32.354  43.933   1.774
 9233W        W74394  10.283   9.725  13.404
 9234W        W74395  24.488  14.355   0.004
 9235W        W74396  14.979  20.675   4.590
 9236W        W74397   4.062  23.697   9.781
 9237W        W74398  26.496  39.473  12.907
 9238W        W74399   6.684  26.731   1.210
 9239W        W74400  14.039   8.911  12.952
 9240W        W74401  13.876  35.502  11.522
 9241W        W74402  43.600  17.241   2.233
 9242W        W74403  44.351  14.234  12.874
 9243W        W74404   9.016  15.740  14.359
 9244W        W74405  16.244  13.079   0.250
 9245W        W74406  15.799  20.829  13.144
 9246W        W74407  32.057  34.606  14.154
 9247W        W74408  40.924  29.335   3.212
 9248W        W74409   4.852  42.881  10.317
 9249W        W74410  12.824  12.113   2.222
 9250W        W74411  20.264  34.963   4.004
 9251W        W74412  22.412   1.991   4.123
 9252W        W74413  25.256  35.462   4.664
 9253W        W74414  39.957  26.924  13.914
 9254W        W74415  26.729  31.902  12.292
 9255W        W74416   2.781  35.062  12.588
 9256W        W74417  29.451   0.500  12.558
 9257W        W74418   4.993  35.268   4.600
 9258W        W74419  14.421   6.889  13.002
 9259W        W74420  16.097  34.403  11.911
 9260W        W74421   2.526  32.035  13.951
 9261W        W74422  18.154   1.225  13.128
 9262W        W74423  20.454  29.228  14.068
 9263W        W74424  13.622   4.439  11.961
 9264W        W74425  44.759  21.975   0.079
 9265W        W74426   5.923  11.008   3.644
 9266W        W74427   7.606  13.117   0.238
 9267W        W74428  29.492  44.763  11.951
 9268W        W74429  41.967  38.498  14.093
 9269W        W74430  29.197  10.110   4.359
 9270W        W74431  13.656  44.182   2.226
 9271W        W74432  44.908   5.907  14.741
 9272W        W74433   9.874  44.185   1.772
 9273W        W74434  38.040  39.013  12.095
 9274W        W74435   0.742   5.454  12.061
 9275W        W74436  41.050  12.402   1.103
 9276W        W74437  18.205  21.946  12.099
 9277W        W74438  44.323  43.793  13.561
 9278W        W74439   2.286  10.612   0.304
 9279W        W74440   0.132  40.504  10.212
 9280W        W74441  28.227  35.963   4.662
 9281W        W74442  30.451  18.195  11.888
 9282W        W74443  15.146  41.494  14.384
 9283W        W74444  44.887  44.713  12.187
 9284W        W74445  38.658  38.587   0.152
 9285W        W74446  41.273  41.678   3.106
 9286W        W74447   6.160  44.884  13.846
 9287W        W74448  35.615   7.774  10.747
 9288W        W74449  29.487   1.997  13.009
 9289W        W74450  19.779  26.026   2.138
 9290W        W74451  31.111  10.573   4.960
 9291W        W74452  11.303  22.804   2.207
 9292W        W74453  34.725  21.092  10.322
 9293W        W74454  43.904  40.425   0.260
 9294W        W74455  16.176  38.528  13.979
 9295W        W74456   1.340   5.546   1.668
 9296W        W74457  14.636   4.013  11.102
 9297W        W74458   3.844  30.589  12.455
 9298W        W74459  36.643   5.308  12.561
 9299W        W74460  38.811  24.650   4.496
 9300W        W74461   4.271  10.275   0.917
 9301W        W74462   2.862   6.238  13.427
 9302W        W74463   3.936  16.000   0.329
 9303W        W74464  37.545  11.666  12.841
 9304W        W74465  25.731  10.782  14.054
 9305W        W74466   2.156   4.832   2.331
 9306W        W74467  32.224  20.739  13.790
 9307W        W74468  28.032  19.221  14.744
 9308W        W74469  36.606  22.585   3.616
 9309W        W74470  28.383  16.303   0.036
 9310W        W74471  39.323  28.921   4.179
 9311W        W74472  15.270  20.529  12.150
 9312W        W74473  21.314  31.442  14.678
 9313W        W74474  41.342  15.077  14.521
 9314W        W74475  21.051   7.799   2.522
 9315W        W74476   2.842   5.912  10.530
 9316W        W74477  28.690  19.468   1.896
 9317W        W74478  16.799  15.814   4.009
 9318W        W74479  25.427  27.401  10.243
 9319W        W74480  17.695   3.727   0.352
 9320W        W74481  21.061   2.835   2.709
 9321W        W74482  29.985  35.596   4.711
 9322W        W74483   2.845  10.088  13.018
 9323W        W74484  12.485  40.805   4.974
 9324W        W74485  40.909  28.654  12.415
 9325W        W74486  23.130  17.752   2.929
 9326W        W74487  20.725  25.609  11.227
 9327W        W74488  13.277  11.657  12.836
 9328W        W74489  34.118  27.273  10.774
 9329W        W74490  12.896  35.282  12.409
 9330W        W74491  19.073  25.143  12.090
 9331W        W74492   8.809  32.235  12.528
 9332W        W74493   4.265  29.707  12.376
 9333W        W74494  22.800   2.333   2.932
 9334W        W74495   4.950  39.241   4.214
 9335W        W74496  38.418   4.221  10.693
 9336W        W74497  31.943  44.427  10.602
 9337W        W74498  34.716  14.278   0.426
 9338W        W74499  21.601  30.177  12.114
 9339W        W74500  21.233  32.356  11.087
 9340W        W74501  23.009  18.805   0.725
 9341W        W74502  36.747  11.705  11.573
 9342W        W74503  20.145  40.415  11.188
 9343W        W74504  12.346  40.726  10.632
 9344W        W74505  33.404  15.623  12.121
 9345W        W74506   4.150   3.227   1.471
 9346W        W74507  12.969  21.980   3.730
 9347W        W74508  44.476   5.965   3.612
 9348W        W74509   7.472  18.636  11.118
 9349W        W74510  31.147   8.361   1.331
 9350W        W74511   5.769   6.899  12.415
 9351W        W74512  29.952  29.204   0.730
 9352W        W74513   0.126  16.930   4.605
 9353W        W74514  42.017   4.871  14.916
 9354W        W74515   8.318  27.557  12.893
 9355W        W74516  30.484   2.701  12.089
 9356W        W74517  13.977  12.383  13.481
 9357W        W74518  26.812  27.439  10.655
 9358W        W74519  40.073  33.378   1.357
 9359W        W74520  10.304  13.361   3.378
 9360W        W74521  10.064  44.422   1.295
 9361W        W74522  12.865  20.628   1.870
 9362W        W74523  32.938  31.459  11.195
 9363W        W74524   0.281  34.305  13.996
 9364W        W74525  17.550  38.814   3.289
 9365W        W74526  43.033  23.556  12.850
 9366W        W74527  31.380  10.861   2.304
 9367W        W74528  20.517   5.932  13.920
 9368W        W74529  33.675  18.221   0.928
 9369W        W74530  23.932  19.497  12.715
 9370W        W74531  38.828   4.021   1.897
 9371W        W74532  22.295  10.405   4.072
 9372W        W74533  16.525  35.763  13.081
 9373W        W74534  34.030  34.946  13.020
 9374W        W74535  27.671  15.607   3.717
 9375W        W74536   4.425  17.872   1.968
 9376W        W74537  16.207   9.123  13.421
 9377W        W74538  18.077  24.019   3.923
 9378W        W74539  40.482  38.376   4.846
 9379W        W74540  21.929  15.634   1.672
 9380W        W74541  44.303  25.800  14.372
 9381W        W74542  41.596  36.471   5.413
 9382W        W74543  15.368   6.346   0.776
 9383W        W74544  30.918  44.836  10.477
 9384W        W74545   7.179  19.329   2.921
 9385W        W74546   1.439   9.193   1.349
 9386W        W74547  42.926  32.410   2.719
 9387W        W74548  16.348  23.725   1.851
 9388W        W74549  30.378  29.171   0.388
 9389W        W74550   4.626  39.279   3.325
 9390W        W74551  16.110  18.280  13.306
 9391W        W74552  39.563  21.732  13.563
 9392W        W74553  30.495  42.606  13.678
 9393W        W74554   2.211  43.044   4.977
 9394W        W74555  17.172  40.102  14.004
 9395W        W74556  33.991  19.367   2.327
 9396W        W74557  17.541  31.337   4.042
 9397W        W74558  35.164  20.677  14.523
 9398W        W74559  42.408   8.901  14.291
 9399W        W74560  12.804  39.939   1.815
 9400W        W74561  23.211  31.413   3.182
 9401W        W74562  22.276  26.039   4.050
 9402W        W74563   9.914  17.470  13.992
 9403W        W74564  29.174  30.890  12.870
 9404W        W74565  38.745  35.350   4.482
 9405W        W74566  20.178  11.397   4.003
 9406W        W74567   7.212   6.811   2.263
 9407W        W74568   1.385  11.386   3.245
 9408W        W74569  29.221  34.734   4.003
 9409W        W74570  23.730  41.923  14.541
 9410W        W74571   8.750  38.012   1.890
 9411W        W74572  14.833  34.282  12.126
 9412W        W74573  16.613   8.677   1.234
 9413W        W74574  30.814  25.834  10.357
 9414W        W74575  25.259  38.360   4.345
 9415W        W74576   3.522   5.452  12.528
 9416W        W74577   4.782  13.661  14.783
 9417W        W74578  33.783  39.480   1.167
 9418W        W74579  21.540   4.209   4.847
 9419W        W74580   9.212  41.767  14.927
 9420W        W74581  28.881  32.870   2.911
 9421W        W74582  21.545  23.555  12.836
 9422W        W74583  42.375  11.159   1.307
 9423W        W74584  15.062  39.364   1.423
 9424W        W74585  44.890  26.622  13.545
 9425W        W74586  38.314  41.040  12.474
 9426W        W74587   4.403   2.714  14.282
 9427W        W74588  26.232  28.968  10.363
 9428W        W74589   9.080  24.867  10.219
 9429W        W74590   6.438  16.783  14.100
 9430W        W74591  16.557  13.538   4.549
 9431W        W74592  36.340  24.453   4.156
 9432W        W74593   6.904  31.173  13.039
 9433W        W74594   3.276   0.043  11.995
 9434W        W74595   1.928  43.512  14.398
 9435W        W74596  12.784  25.493   0.261
 9436W        W74597  30.448   3.236   3.162
 9437W        W74598  33.047  11.424   2.143
 9438W        W74599  31.206  11.249  11.561
 9439W        W74600  36.148  31.869   0.567
 9440W        W74601  34.834  22.603  13.010
 9441W        W74602  43.032  22.820  13.393
 9442W        W74603  17.399  21.970  12.403
 9443W        W74604  43.699  16.299   3.944
 9444W        W74605  12.595   2.320   1.989
 9445W        W74606  38.860  43.853   2.450
 9446W        W74607  22.049  11.638   1.933
 9447W        W74608  27.722  44.077  12.504
 9448W        W74609  31.239  42.915  11.508
 9449W        W74610  21.800   4.012   3.611
 9450W        W74611  11.620  27.117  14.328
 9451W        W74612  28.768  11.019   2.719
 9452W        W74613   5.990   8.206  13.772
 9453W        W74614  14.225  44.742   1.844
 9454W        W74615   7.249  37.757  11.970
 9455W        W74616  38.820  19.848   3.135
 9456W        W74617  17.140  29.171  10.809
 9457W        W74618  11.595  25.618   1.050
 9458W        W74619  37.755  40.681   5.422
 9459W        W74620  12.274  10.237  12.917
 9460W        W74621  10.480  40.374  11.079
 9461W        W74622   2.959  33.480  10.612
 9462W        W74623  41.103  26.029   2.904
 9463W        W74624  43.657  22.588  14.040
 9464W        W74625   4.228  26.578  14.465
 9465W        W74626  33.187  13.666   1.860
 9466W        W74627   2.153   4.364  12.610
 9467W        W74628  23.132  19.079  13.970
 9468W        W74629   0.376  10.404   9.820
 9469W        W74630  22.661  21.532  11.151
 9470W        W74631   4.837  38.626  10.562
 9471W        W74632   6.941  40.501  14.026
 9472W        W74633  21.686   6.758   2.899
 9473W        W74634  38.790  38.167  12.638
 9474W        W74635  24.454   6.632   0.731
 9475W        W74636  38.539   2.645   2.694
 9476W        W74637  44.927  40.359  13.296
 9477W        W74638   7.277  27.699  12.264
 9478W        W74639  21.827  14.761   0.855
 9479W        W74640  10.117  33.797   2.286
 9480W        W74641  15.361  23.298   2.164
 9481W        W74642  31.647   4.233   4.016
 9482W        W74643   8.947  18.118   5.132
 9483W        W74644  30.579   3.849  14.781
 9484W        W74645   8.334  42.756  14.874
 9485W        W74646  23.953   7.934  11.300
 9486W        W74647  44.737  34.069  14.812
 9487W        W74648  29.702  35.414  11.608
 9488W        W74649  37.624  34.933   4.285
 9489W        W74650  20.260   0.520   1.168
 9490W        W74651  38.824  21.577  10.764
 9491W        W74652  16.111  42.891   1.223
 9492W        W74653  40.516   0.251  14.520
 9493W        W74654  13.659  16.341  14.256
 9494W        W74655  11.398  12.938  12.045
 9495W        W74656  40.475  30.866  14.395
 9496W        W74657  31.845  10.775  14.369
 9497W        W74658  21.320   0.542  10.263
 9498W        W74659  44.729  31.880  13.485
 9499W        W74660   9.198  14.668   0.901
 9500W        W74661  25.653  38.438  14.388
 9501W        W74662  24.767  32.065   1.129
 9502W        W74663  33.083   5.383  12.468
 9503W        W74664   5.006   9.872   3.354
 9504W        W74665   8.885  25.551  14.891
 9505W        W74666  12.983  31.855   5.002
 9506W        W74667  24.248   6.054  12.535
 9507W        W74668  10.438  35.422   4.483
 9508W        W74669  42.035  42.403   0.549
 9509W        W74670  15.369  16.301   5.023
 9510W        W74671  44.960  29.637   1.291
 9511W        W74672  17.386  27.890   4.831
 9512W        W74673  18.032  13.493   2.705
 9513W        W74674  24.566   5.694  14.531
 9514W        W74675  19.820  26.247   1.251
 9515W        W74676  13.808  39.347  12.936
 9516W        W74677  38.828  35.846  10.303
 9517W        W74678  18.188  32.501  13.131
 9518W        W74679  24.639   0.769  12.868
 9519W        W74680  36.777  17.325   0.215
 9520W        W74681  24.171  13.929   4.044
 9521W        W74682  34.294  12.884   0.450
 9522W        W74683  12.371  12.138  12.528
 9523W        W74684  19.734  27.866   4.749
 9524W        W74685  28.466  41.380   1.696
 9525W        W74686  25.710   7.473  10.301
 9526W        W74687  18.195   7.942   0.035
 9527W        W74688  14.904   6.454  14.905
 9528W        W74689  20.638  20.660  14.029
 9529W        W74690  28.062  25.269  12.946
 9530W        W74691  43.747   9.467   3.247
 9531W        W74692  33.684  41.677   0.902
 9532W        W74693  32.024  38.766  11.406
 9533W        W74694  37.076   3.402   3.342
 9534W        W74695  35.957  21.765  11.544
 9535W        W74696  26.170  12.322  10.564
 9536W        W74697  19.552  10.141   1.670
 9537W        W74698  13.278  35.798  11.441
 9538W        W74699  34.101  21.499   3.694
 9539W        W74700  40.776  19.118  14.411
 9540W        W74701  28.510  43.547  10.442
 9541W        W74702  10.689  40.598  14.844
 9542W        W74703  12.504  38.326   3.136
 9543W        W74704  40.846  21.819   0.300
 9544W        W74705  35.185  31.965  12.071
 9545W        W74706  23.623  32.880   0.991
 9546W        W74707  33.142   7.728  13.864
 9547W        W74708  11.339  21.331   2.073
 9548W        W74709  44.752  11.856   5.203
 9549W        W74710   9.617  38.361  12.202
 9550W        W74711  40.535  43.223   4.641
 9551W        W74712  35.852  39.006   4.224
 9552W        W74713   3.018  31.643   4.153
 9553W        W74714  26.108  22.264   3.763
 9554W        W74715  21.815  18.215  14.080
 9555W        W74716  41.410  17.586  13.409
 9556W        W74717  32.346   0.469  12.955
 9557W        W74718  34.882  10.348  14.453
 9558W        W74719   1.675  15.991   1.851
 9559W        W74720  40.185  17.261   0.494
 9560W        W74721  30.408  19.944  13.360
 9561W        W74722  33.815  16.216  10.525
 9562W        W74723   8.677  31.096   2.879
 9563W        W74724   6.643  19.189  11.087
 9564W        W74725  30.075  16.772   0.369
 9565W        W74726  29.213  36.951   0.117
 9566W        W74727  28.509  26.772  10.597
 9567W        W74728  25.661  17.576   3.888
 9568W        W74729   4.642  15.798   1.287
 9569W        W74730   2.018  39.038  10.740
 9570W        W74731  33.290  18.547  12.457
 9571W        W74732   6.851  35.517   1.798
 9572W        W74733   0.388  30.466  10.740
 9573W        W74734  13.784  28.932  11.575
 9574W        W74735  31.246   0.950  14.943
 9575W        W74736   2.356  36.320  11.730
 9576W        W74737  12.377  40.491  12.031
 9577W        W74738  11.777   9.906  10.845
 9578W        W74739  18.146   6.183  13.360
 9579W        W74740   3.747  19.021   0.012
 9580W        W74741  19.080  42.701   3.121
 9581W        W74742  19.196  10.837   4.121
 9582W        W74743  37.071  16.851  13.541
 9583W        W74744  26.620  16.714  14.818
 9584W        W74745  40.317  38.022  12.491
 9585W        W74746  37.080   0.953   0.759
 9586W        W74747  14.882  35.589   0.518
 9587W        W74748  27.135  21.974   3.088
 9588W        W74749  17.012  31.477   2.205
 9589W        W74750   9.247  23.465   2.333
 9590W        W74751  41.719  24.297  14.823
 9591W        W74752  27.246  35.292  12.479
 9592W        W74753   1.478   7.308   3.182
 9593W        W74754  10.359  36.815   3.161
 9594W        W74755   8.124  40.498  12.219
 9595W        W74756  39.593   7.090   0.287
 9596W        W74757  30.485  26.098  10.028
 9597W        W74758  12.094   3.230  12.603
 9598W        W74759  29.209   9.861   3.199
 9599W        W74760   5.708  14.469   1.198
 9600W        W74761  38.519  11.747   2.444
 9601W        W74762   2.260  43.641  11.549
 9602W        W74763  18.363  43.505   2.664
 9603W        W74764  36.130  27.236  11.792
 9604W        W74765  36.881  30.009  13.849
 9605W        W74766   9.418  42.493  11.537
 9606W        W74767   2.390  33.035   4.942
 9607W        W74768  28.649  27.209   3.654
 9608W        W74769  11.168  23.696   4.833
 9609W        W74770   5.741   3.947   2.053
 9610W        W74771  39.870  31.003   0.262
 9611W        W74772   1.705  29.978  14.067
 9612W        W74773  30.360  21.731  11.125
 9613W        W74774   9.855  41.877  12.500
 9614W        W74775  10.306  26.788  12.716
 9615W        W74776  40.735  30.020  14.549
 9616W        W74777  38.289  41.015  10.349
 9617W        W74778  17.611  13.774  13.222
 9618W        W74779  12.781   9.305   3.257
 9619W        W74780  33.393  28.714   2.392
 9620W        W74781  36.864   2.565  11.471
 9621W        W74782  24.370  39.091  13.502
 9622W        W74783   5.264  25.932  11.134
 9623W        W74784  33.195  21.614   0.752
 9624W        W74785  32.419   2.758  14.480
 9625W        W74786  28.549  13.187  13.065
 9626W        W74787  34.202  26.216  14.442
 9627W        W74788  16.679  12.832  12.560
 9628W        W74789  17.099  29.612  13.441
 9629W        W74790  24.488  27.601   3.657
 9630W        W74791  38.922  19.087  10.611
 9631W        W74792   6.410  30.524  13.819
 9632W        W74793  15.532  12.319   3.619
 9633W        W74794   7.880  13.634  10.693
 9634W        W74795  32.015  28.651   3.664
 9635W        W74796  42.998  21.184   5.036
 9636W        W74797   6.995  35.506   2.297
 9637W        W74798  29.614  37.920   0.753
 9638W        W74799  38.599   5.506  13.547
 9639W        W74800  32.217   9.707   4.909
 9640W        W74801  18.551  16.191  12.095
 9641W        W74802  37.075   5.313   4.643
 9642W        W74803  34.557  18.496  10.534
 9643W        W74804  10.694  43.768  12.457
 9644W        W74805  28.741  10.260   1.029
 9645W        W74806   8.731   1.131  14.207
 9646W        W74807   8.339   8.390  14.495
 9647W        W74808  25.221  35.575  14.496
 9648W        W74809   3.685  39.941   1.406
 9649W        W74810  34.210   6.109   0.540
 9650W        W74811  35.005  26.869   1.715
 9651W        W74812  14.838  33.818   1.464
 9652W        W74813  29.025  28.703   4.579
 9653W        W74814   6.542  28.156  13.307
 9654W        W74815   0.735  23.944   1.924
 9655W        W74816  40.032  24.697  12.540
 9656W        W74817  25.673  10.234  10.006
 9657W        W74818   9.283   6.019  14.926
 9658W        W74819  43.389  37.790  12.864
 9659W        W74820  13.111  23.593  12.452
 9660W        W74821   1.870   4.707   2.745
 9661W        W74822  33.941  41.019  13.741
 9662W        W74823  23.446  36.517  13.385
 9663W        W74824  35.591   8.372   3.731
 9664W        W74825  21.936  11.114   0.382
 9665W        W74826  18.056  16.456   2.664
 9666W        W74827  31.056  29.878  12.545
 9667W        W74828  39.962  11.076  13.465
 9668W        W74829  39.747  10.555   3.307
 9669W        W74830  40.905  29.847  11.509
 9670W        W74831  34.476   2.962   1.601
 9671W        W74832   8.272   6.466  13.267
 9672W        W74833  24.128   4.821   0.235
 9673W        W74834  22.399  27.593  13.414
 9674W        W74835  31.654  40.153   3.345
 9675W        W74836  42.050  38.475   0.063
 9676W        W74837  32.840  13.370  14.791
 9677W        W74838  43.224  18.829  11.482
 9678W        W74839  10.321  37.715   1.927
 9679W        W74840  20.610  21.363  10.335
 9680W        W74841  40.370  11.927   0.470
 9681W        W74842   1.687  12.136  14.162
 9682W        W74843  25.030   6.754  14.947
 9683W        W74844  13.729   9.347  12.508
 9684W        W74845  20.322  29.230  10.858
 9685W        W74846   9.637  18.629  10.823
 9686W        W74847  40.241   4.286  11.062
 9687W        W74848   5.246  10.766  14.793
 9688W        W74849   8.649  12.729   3.224
 9689W        W74850  11.475  33.442  14.012
 9690W        W74851  17.082  14.839  11.822
 9691W        W74852  20.503   5.744   2.229
 9692W        W74853  18.664  41.160  12.108
 9693W        W74854   5.805   2.190  12.383
 9694W        W74855  13.917  23.763   0.290
 9695W        W74856  21.182   6.544   2.738
 9696W        W74857  24.978  28.656   2.567
 9697W        W74858  23.782  30.551   1.865
 9698W        W74859   5.846  36.700   2.201
 9699W        W74860  39.524   7.598   0.767
 9700W        W74861   9.861  41.385   3.167
 9701W        W74862  30.139   4.657  12.447
 9702W        W74863  16.596  38.884  10.831
 9703W        W74864  17.275  26.618  10.565
 9704W        W74865  18.056  43.397   4.039
 9705W        W74866  27.124  35.660   3.103
 9706W        W74867  26.650  21.754  10.314
 9707W        W74868  18.044  16.279  11.998
 9708W        W74869  25.996  29.793  12.381
 9709W        W74870  22.682  26.749  13.153
 9710W        W74871  41.255  24.616   4.595
 9711W        W74872   3.957  44.075  12.571
 9712W        W74873   0.813  40.775  13.546
 9713W        W74874  41.859  42.955   4.086
 9714W        W74875  31.437  24.162   2.357
 9715W        W74876   0.959  29.613   4.728
 9716W        W74877   6.510  44.821  10.713
 9717W        W74878  29.581   0.966  12.819
 9718W        W74879   8.777   6.916   0.774
 9719W        W74880   1.931  41.083   4.459
 9720W        W74881  43.507  20.551   3.419
 9721W        W74882   1.313   8.341  11.136
 9722W        W74883  23.126  41.877  10.609
 9723W        W74884  20.113  22.956  14.559
 9724W        W74885  25.918  24.418   0.340
 9725W        W74886  10.158  24.375  11.521
 9726W        W74887  17.042   8.939   3.732
 9727W        W74888  38.496  30.036  12.759
 9728W        W74889  34.460  44.044  12.349
 9729W        W74890  39.443  38.000   4.034
 9730W        W74891  19.120   4.465   4.681
 9731W        W74892  10.818  20.703  12.936
 9732W        W74893  20.433  43.279  14.348
 9733W        W74894  31.615  17.234  11.141
 9734W        W74895  30.372  17.060   1.165
 9735W        W74896  40.410  32.583   4.629
 9736W        W74897  19.960  12.824  11.998
 9737W        W74898  29.004  19.551  11.432
 9738W        W74899  14.241  18.566  13.506
 9739W        W74900  38.951  14.825  10.306
 9740W        W74901  15.150  40.244   1.689
 9741W        W74902  11.538  38.984   0.411
 9742W        W74903  34.811  32.636  12.543
 9743W        W74904  36.500  34.697  14.456
 9744W        W74905  24.938   1.042  12.124
 9745W        W74906  28.844  12.019   3.614
 9746W        W74907  27.169  28.982   3.292
 9747W        W74908  10.778  32.346   0.430
 9748W        W74909   5.989  16.443   3.664
 9749W        W74910  40.599  37.573  14.392
 9750W        W74911  39.111  12.751   1.662
 9751W        W74912  21.808   8.303  13.920
 9752W        W74913   9.033  22.804   4.610
 9753W        W74914  42.969  11.157  10.663
 9754W        W74915   3.457  41.658   3.126
 9755W        W74916   1.357  15.072   0.294
 9756W        W74917   2.112  24.462   1.059
 9757W        W74918  12.392  31.370  11.198
 9758W        W74919  17.571  31.663   0.397
 9759W        W74920  15.594   5.576   0.541
 9760W        W74921   2.438  33.136   0.696
 9761W        W74922  30.850  44.774  11.911
 9762W        W74923  17.352  24.690   3.400
 9763W        W74924  14.249  26.994   2.279
 9764W        W74925  35.018  20.644   4.582
 9765W        W74926  44.909   6.683   3.797
 9766W        W74927  30.147   7.203  13.359
 9767W        W74928  26.070  23.132  12.173
 9768W        W74929  39.034  10.235  12.505
 9769W        W74930  26.975  30.336   4.998
 9770W        W74931  29.122  28.432  14.054
 9771W        W74932   9.311   4.476   2.754
 9772W        W74933  38.495   5.882  13.897
 9773W        W74934  12.227  26.144   1.420
 9774W        W74935  24.312  16.728   4.294
 9775W        W74936  30.849  10.238  10.013
 9776W        W74937   7.155   4.445   1.730
 9777W        W74938  32.936  42.937  13.402
 9778W        W74939  26.301  44.435  13.548
 9779W        W74940   2.824  31.383   4.736
 9780W        W74941  13.762   9.463   0.822
 9781W        W74942  18.043  43.046   2.480
 9782W        W74943  31.543  12.667  14.557
 9783W        W74944  10.782   2.739  13.814
 9784W        W74945  31.946  14.089  10.676
 9785W        W74946  20.351  19.999  11.006
 9786W        W74947  36.414   7.776  12.486
 9787W        W74948  44.377  11.255  12.097
 9788W        W74949  30.533  28.193   0.396
 9789W        W74950  35.136  18.523   4.261
 9790W        W74951  17.297  24.635   1.493
 9791W        W74952  42.256  41.309  12.853
 9792W        W74953  22.221   8.852  14.052
 9793W        W74954   0.805  21.521   0.262
 9794W        W74955  26.095  14.225   4.989
 9795W        W74956  43.273  21.249  12.436
 9796W        W74957  18.049   0.910  12.731
 9797W        W74958  13.662  18.589   3.318
 9798W        W74959  41.424  26.034  10.865
 9799W        W74960  28.196  33.357   1.913
 9800W        W74961  19.019   3.079  14.748
 9801W        W74962  21.130  38.200   0.278
 9802W        W74963  30.179  17.247   3.948
 9803W        W74964   1.189   8.403   3.728
 9804W        W74965  43.925  31.804   0.201
 9805W        W74966  25.467  35.011   4.493
 9806W        W74967  36.584  30.664  13.526
 9807W        W74968  27.549   1.258   2.352
 9808W        W74969  29.122  29.782   0.511
 9809W        W74970  33.602  26.161  11.622
 9810W        W74971  41.839  35.933   3.302
 9811W        W74972   1.594   5.277  12.484
 9812W        W74973  34.803  15.296   0.368
 9813W        W74974   0.162  31.862  10.514
 9814W        W74975  34.928  19.324  13.018
 9815W        W74976  30.500  23.166   2.255
 9816W        W74977  33.487  31.639   2.680
 9817W        W74978  33.089   3.015   3.457
 9818W        W74979   1.002  28.726   1.686
 9819W        W74980  33.184  39.944   1.434
 9820W        W74981  29.674  15.777   2.324
 9821W        W74982  39.289  11.210   2.822
 9822W        W74983  30.195   2.867  10.602
 9823W        W74984  37.582  25.929  14.435
 9824W        W74985  22.460  27.666  13.983
 9825W        W74986   3.262  38.659  12.644
 9826W        W74987  41.759  35.132  14.516
 9827W        W74988  27.979  16.117   1.847
 9828W        W74989  12.816  28.193   4.054
 9829W        W74990  40.810  27.861   0.963
 9830W        W74991  35.160  23.524  11.164
 9831W        W74992  21.174  17.423  12.576
 9832W        W74993  37.860  21.971  12.042
 9833W        W74994  33.108   5.013   1.358
 9834W        W74995  42.958  11.097   3.434
 9835W        W74996  24.973  27.046   2.011
 9836W        W74997  20.195   2.356   2.910
 9837W        W74998  38.271  41.780  12.024
 9838W        W74999  12.853  33.473  14.400
 9839W        W75000  26.214  39.549   2.253
 9840W        W75001  32.431  34.014   3.657
 9841W        W75002  33.984  13.213   2.740
 9842W        W75003  31.932   3.323  14.451
 9843W        W75004  29.213  42.469   1.379
 9844W        W75005  16.640  28.904   4.578
 9845W        W75006  43.743  40.297   1.769
 9846W        W75007   6.741  30.831   5.478
 9847W        W75008   5.926  37.451  11.282
 9848W        W75009   8.209  34.148  12.461
 9849W        W75010  29.234   1.046  13.849
 9850W        W75011   4.309  13.427   1.190
 9851W        W75012  17.669  15.176  14.990
 9852W        W75013  18.070  44.248   0.330
 9853W        W75014  25.628  40.048   4.790
 9854W        W75015  35.581  33.402   1.952
 9855W        W75016   7.280  15.454  11.465
 9856W        W75017  15.385  41.347   2.718
 9857W        W75018  17.731  16.930   1.966
 9858W        W75019  41.773   8.664   4.179
 9859W        W75020  39.953  12.426   1.797
 9860W        W75021  32.162  39.253  11.303
 9861W        W75022  39.967  33.829   4.432
 9862W        W75023   8.896   8.846   2.741
 9863W        W75024  21.696  15.443  12.589
 9864W        W75025  22.129   8.979  10.498
 9865W        W75026   8.118  27.552   0.271
 9866W        W75027  42.336  25.928   4.259
 9867W        W75028  27.739  32.993   2.759
 9868W        W75029   5.533  10.418   0.851
 9869W        W75030   1.876  32.102   3.279
 9870W        W75031  22.107  42.148  11.213
 9871W        W75032  11.608  21.997   3.307
 9872W        W75033   5.783  18.253   2.068
 9873W        W75034  17.144  36.076  12.795
 9874W        W75035  39.541  27.472   1.811
 9875W        W75036   6.784  34.386  14.998
 9876W        W75037   3.983  15.754  11.458
 9877W        W75038  17.627  28.880  11.897
 9878W        W75039   1.788  40.604  11.682
 9879W        W75040  29.297   5.341   2.698
 9880W        W75041   7.958  33.225   2.295
 9881W        W75042  44.674   7.042   1.462
 9882W        W75043  31.188  34.947   3.726
 9883W        W75044  44.591  44.846   3.764
 9884W        W75045  11.695  35.205   4.999
 9885W        W75046  18.328  15.061  12.960
 9886W        W75047  34.325  35.899  13.420
 9887W        W75048  19.772  24.565  11.171
 9888W        W75049  43.245  22.096  10.809
 9889W        W75050  42.406  39.514   2.776
 9890W        W75051  24.769   1.186   0.312
 9891W        W75052  13.306  17.761   2.742
 9892W        W75053  32.539  20.634   4.050
 9893W        W75054   2.052  16.967   1.706
 9894W        W75055  31.630  23.917   2.786
 9895W        W75056  12.088   8.141  14.542
 9896W        W75057  34.072  22.079  10.624
 9897W        W75058  39.651  32.821  11.106
 9898W        W75059  33.558  39.517   4.039
 9899W        W75060  12.857  25.994  12.052
 9900W        W75061  16.476  27.020   0.942
 9901W        W75062  34.225  19.324   4.061
 9902W        W75063   0.670  12.754  11.982
 9903W        W75064  17.983   5.786  13.675
 9904W        W75065  23.150  17.658   0.404
 9905W        W75066   3.832   5.340   0.288
 9906W        W75067  24.032   3.256  14.551
 9907W        W75068   3.385  23.127  11.423
 9908W        W75069  38.548  31.336  13.303
 9909W        W75070   4.146  37.790  13.171
 9910W        W75071  20.046  22.109  12.047
 9911W        W75072  22.247   8.602   1.904
 9912W        W75073  33.846  35.339   0.831
 9913W        W75074  44.230  40.013   2.411
 9914W        W75075  27.118   6.444  13.118
 9915W        W75076  11.193   8.800  11.103
 9916W        W75077  43.864  40.862  11.577
 9917W        W75078   8.375  17.753   2.098
 9918W        W75079   8.838   2.253   4.744
 9919W        W75080   6.839   2.890  10.646
 9920W        W75081   0.876  39.927  11.117
 9921W        W75082  30.941  18.792  10.687
 9922W        W75083  30.942  22.422   3.921
 9923W        W75084  17.765   6.431  13.114
 9924W        W75085  36.379  17.291  13.311
 9925W        W75086   3.960  20.633  14.839
 9926W        W75087  20.211  23.772   4.514
 9927W        W75088  21.615  20.525  12.453
 9928W        W75089  30.716   2.898  10.616
 9929W        W75090   4.615  17.461  13.949
 9930W        W75091  31.608  32.234  13.518
 9931W        W75092   6.680  32.862  12.025
 9932W        W75093  10.716  14.647  10.986
 9933W        W75094  15.655  31.503   3.706
 9934W        W75095  41.307  35.960   4.714
 9935W        W75096   9.755  39.890  14.975
 9936W        W75097  41.922  13.293   2.864
 9937W        W75098  41.778  36.872   0.327
 9938W        W75099  15.967  20.115   4.934
 9939W        W75100  26.033  32.820  12.391
 9940W        W75101  22.049  27.502  12.023
 9941W        W75102  10.223  33.041  11.503
 9942W        W75103  34.883   3.543  14.467
 9943W        W75104   6.712  32.992  12.745
 9944W        W75105  35.838  35.381   0.975
 9945W        W75106  41.140  36.367  13.058
 9946W        W75107  42.014  37.501  14.522
 9947W        W75108   6.399  38.345  12.007
 9948W        W75109  41.297   9.409  10.696
 9949W        W75110  23.673  15.413  12.389
 9950W        W75111  35.580  26.403  11.230
 9951W        W75112   5.226  13.325   2.321
 9952W        W75113  33.307  15.372  10.909
 9953W        W75114  34.899  15.031  14.798
 9954W        W75115  29.191  42.833   1.735
 9955W        W75116  13.635  28.451   2.715
 9956W        W75117  18.985   3.258   1.823
 9957W        W75118  38.854  25.766  11.913
 9958W        W75119   2.537  32.472   1.297
 9959W        W75120   8.464  16.237   4.611
 9960W        W75121  20.427  22.206   0.118
 9961W        W75122  40.788  41.960   3.805
 9962W        W75123   8.434  24.088   1.119
 9963W        W75124  25.049   3.328  14.500
 9964W        W75125  41.107  24.614   0.364
 9965W        W75126  29.542  18.568   1.690
 9966W        W75127  21.067  43.229   4.675
 9967W        W75128   4.825  34.912  11.619
 9968W        W75129  16.785  33.478   0.089
 9969W        W75130  33.581  19.091  11.582
 9970W        W75131   7.539  22.184   1.778
 9971W        W75132   2.354  27.716   2.176
 9972W        W75133   9.545   5.399   0.273
 9973W        W75134  25.677  38.365   3.522
 9974W        W75135   4.332  40.891   0.746
 9975W        W75136  23.363  32.609   1.992
 9976W        W75137  10.271  12.254  13.309
 9977W        W75138  32.081  17.135  12.391
 9978W        W75139  41.883  26.251  13.934
 9979W        W75140   4.754  23.939   0.288
 9980W        W75141   0.543  27.946   1.352
 9981W        W75142  18.275  35.361  14.453
 9982W        W75143   0.011  39.395  11.981
 9983W        W75144  13.742   2.021   0.950
 9984W        W75145  18.088  34.547   4.250
 9985W        W75146  29.151  22.430   3.586
 9986W        W75147  40.900   2.498  11.572
 9987W        W75148   5.973   4.711  12.509
 9988W        W75149   0.033   2.223  12.997
 9989W        W75150  42.915   1.248   4.776
 9990W        W75151  22.173  22.500   0.207
 9991W        W75152  35.172  20.276   2.308
 9992W        W75153  15.062  33.851  11.933
 9993W        W75154  18.990  30.171   3.221
 9994W        W75155  21.075   8.449  13.509
 9995W        W75156  13.666  13.404  12.408
 9996W        W75157  33.139  35.118   2.489
 9997W        W75158   9.428  44.514   4.082
 9998W        W75159  11.918  25.705   3.278
 9999W        W75160  21.552  25.873  14.295
10000W        W75161   8.228  18.743  14.880
10001W        W75162  34.542  29.764   4.113
10002W        W75163  32.019  26.974  14.050
10003W        W75164  42.338  29.401  10.630
10004W        W75165  19.989  15.155   0.818
10005W        W75166  23.671  30.528  13.242
10006W        W75167  26.534  19.178  11.572
10007W        W75168  35.853  43.847  12.142
10008W        W75169  35.989  22.177  13.361
10009W        W75170  29.696  30.999   4.678
10010W        W75171  37.138  22.103  14.826
10011W        W75172  12.273   3.255  13.498
10012W        W75173  15.554  44.101  10.279
10013W        W75174   5.788  15.830  11.229
10014W        W75175  40.921  38.492   0.234
10015W        W75176   9.024  16.867   2.680
10016W        W75177  34.623   0.293  11.754
10017W        W75178  34.231  41.802  13.512
10018W        W75179  21.674  15.038   1.277
10019W        W75180  10.991  23.084  10.783
10020W        W75181   6.698   4.719   1.354
10021W        W75182  41.916  24.218   4.179
10022W        W75183  38.927  44.981   1.776
10023W        W75184  14.229   5.512   1.052
10024W        W75185  11.270  29.417  10.445
10025W        W75186  16.828  27.990  14.458
10026W        W75187  11.892  12.608   3.580
10027W        W75188   2.949  42.658   2.278
10028W        W75189  17.199  20.221   0.772
10029W        W75190   0.861  25.535  14.416
10030W        W75191  22.172  11.907  13.771
10031W        W75192  19.147  35.507  10.675
10032W        W75193  33.268   3.099   4.267
10033W        W75194  20.271  33.951   4.272
10034W        W75195  13.361  44.976  12.960
10035W        W75196  43.639  35.383  10.759
10036W        W75197  30.088  33.030  11.401
10037W        W75198  28.466  31.520  11.055
10038W        W75199  42.205   4.381  14.296
10039W        W75200  21.968  41.346  10.016
10040W        W75201  15.402  13.707  11.599
10041W        W75202  27.896   0.527   5.378
10042W        W75203  23.840  19.057  11.939
10043W        W75204  32.583  25.540  12.519
10044W        W75205  44.738  15.130   2.815
10045W        W75206  33.417   5.380   4.557
10046W        W75207  37.805  28.583  11.614
10047W        W75208  32.864  40.495  11.852
10048W        W75209  16.123  28.998  14.480
10049W        W75210  29.325  42.895   2.660
10050W        W75211   8.406   7.361   0.411
10051W        W75212   0.938  40.893  12.052
10052W        W75213   9.268  43.636  11.853
10053W        W75214  31.969   1.696   0.959
10054W        W75215  40.016  36.852   0.773
10055W        W75216  25.778  13.202   0.848
10056W        W75217  39.281  34.422   1.935
10057W        W75218  43.732  17.215   4.738
10058W        W75219  32.508   2.464   4.465
10059W        W75220  14.864   9.693  14.420
10060W        W75221  44.911  32.628   2.731
10061W        W75222   5.281  41.991  14.884
10062W        W75223  42.501   8.100  10.815
10063W        W75224  31.610  37.958   0.693
10064W        W75225  18.837   8.139   1.738
10065W        W75226  40.464  38.880   0.895
10066W        W75227  25.628  25.681  12.058
10067W        W75228   7.714  42.786  13.497
10068W        W75229  43.441  34.471  12.532
10069W        W75230  26.887  18.100  12.879
10070W        W75231  22.050  41.976   4.403
10071W        W75232   2.200  23.849   4.531
10072W        W75233  20.326  10.068   0.966
10073W        W75234  41.863  38.950  12.840
10074W        W75235   8.451   7.796  13.266
10075W        W75236  11.431  40.415   1.339
10076W        W75237  21.480   1.979  14.077
10077W        W75238  24.885  20.293  13.469
10078W        W75239   6.363   7.754   1.019
10079W        W75240  14.881   9.167   4.774
10080W        W75241   3.276  33.454  14.942
10081W        W75242  30.107  17.994   4.710
10082W        W75243  24.199  27.204  10.553
10083W        W75244  39.147  21.216   0.779
10084W        W75245   6.670  29.192   4.144
10085W        W75246  23.549  33.914   1.986
10086W        W75247  10.829  18.195   4.129
10087W        W75248  34.415   0.839  14.736
10088W        W75249  13.173  13.737   3.629
10089W        W75250   0.259  33.777  14.004
10090W        W75251  16.470  30.682   3.360
10091W        W75252  36.404  25.746  12.417
10092W        W75253  29.960  17.896  11.611
10093W        W75254  19.133  43.876   1.434
10094W        W75255  14.339  35.778   0.772
10095W        W75256   2.434  20.821  13.813
10096W        W75257  44.096   5.836   1.401
10097W        W75258  13.277   3.923  10.754
10098W        W75259  36.094   7.497   3.688
10099W        W75260  15.053  42.100   0.274
10100W        W75261  24.040  36.570  11.513
10101W        W75262   9.777  32.897   0.270
10102W        W75263  21.834  13.735  14.893
10103W        W75264  32.370   9.176   1.226
10104W        W75265  36.980  29.683   1.882
10105W        W75266   4.778   6.317   2.543
10106W        W75267  28.080   4.442   1.870
10107W        W75268  31.975  33.989   3.878
10108W        W75269   2.500  16.710  13.768
10109W        W75270  40.329  37.441   1.940
10110W        W75271   5.161   5.855  13.445
10111W        W75272  39.783  42.559  11.508
10112W        W75273  30.954  13.991   4.544
10113W        W75274  30.373  19.468   3.398
10114W        W75275  21.610  12.677  11.442
10115W        W75276  35.817   5.325   4.134
10116W        W75277  32.572   1.708   4.060
10117W        W75278  12.654  39.515   0.864
10118W        W75279  38.331  43.415  10.751
10119W        W75280   0.442  11.951   5.475
10120W        W75281  19.013  38.277   4.228
10121W        W75282   6.303  22.453   3.941
10122W        W75283   9.553  14.319   3.209
10123W        W75284  35.883  29.983   3.745
10124W        W75285  27.948  40.888  11.459
10125W        W75286   1.843  39.356  12.840
10126W        W75287   5.428  29.498  11.579
10127W        W75288   8.378  12.315   2.699
10128W        W75289  41.347  43.392   0.820
10129W        W75290  12.556  31.741  12.929
10130W        W75291  28.632  41.030   0.301
10131W        W75292   8.128   9.708   0.711
10132W        W75293   5.469  37.953   4.710
10133W        W75294  24.633  21.065   0.304
10134W        W75295  39.125  14.334   0.125
10135W        W75296   8.420  34.111  11.586
10136W        W75297  28.752  20.818   1.843
10137W        W75298  38.769  15.705   1.368
10138W        W75299  25.925  24.834   4.155
10139W        W75300  38.559  23.585   4.198
10140W        W75301  31.493  18.268  13.352
10141W        W75302  17.185  42.200  14.885
10142W        W75303   6.405  21.068  14.008
10143W        W75304  25.288  25.880   2.774
10144W        W75305  10.806  11.157   1.980
10145W        W75306  16.894  26.505   1.788
10146W        W75307  11.587  39.949   4.461
10147W        W75308  41.899  41.012   5.172
10148W        W75309  14.021  25.588   0.901
10149W        W75310  27.245  38.727  12.250
10150W        W75311  23.544  41.897  10.930
10151W        W75312  17.000  32.550  13.921
10152W        W75313  39.873   7.746  13.433
10153W        W75314   6.891  20.311   4.560
10154W        W75315  23.443  30.847  10.764
10155W        W75316  38.887  23.647   2.101
10156W        W75317  28.352  22.351  13.954
10157W        W75318  36.129  16.039   2.890
10158W        W75319   7.290  36.007   3.817
10159W        W75320  22.137   9.561  12.632
10160W        W75321  14.691  31.096   3.622
10161W        W75322  24.532  19.334   2.743
10162W        W75323  11.263   8.384  13.912
10163W        W75324   5.843  14.670   4.742
10164W        W75325  24.151  14.358  12.931
10165W        W75326   7.380  11.219   4.228
10166W        W75327  17.010   4.829   4.091
10167W        W75328  24.042  20.015  12.092
10168W        W75329  43.147  39.046   4.429
10169W        W75330  17.675  23.182   3.170
10170W        W75331  10.721   4.485  14.436
10171W        W75332  39.421  37.256   1.813
10172W        W75333  11.365  25.072   2.579
10173W        W75334   6.624  20.711  13.706
10174W        W75335  16.800  43.492  13.394
10175W        W75336  20.655  19.208  13.918
10176W        W75337  13.048   2.412   2.795
10177W        W75338  24.130  41.052   3.512
10178W        W75339  40.393   7.722  12.653
10179W        W75340   8.403  34.393   1.878
10180W        W75341  24.558   6.724   4.420
10181W        W75342  40.198   3.235   4.229
10182W        W75343  16.614   8.339  13.560
10183W        W75344  23.995  29.483   4.653
10184W        W75345  27.528  18.675  10.581
10185W        W75346   0.705  12.742  13.065
10186W        W75347  29.748  15.638   3.682
10187W        W75348  21.003  25.523   0.000
10188W        W75349  28.436   8.776   1.028
10189W        W75350  44.790  17.178  13.007
10190W        W75351  30.867  42.475  14.834
10191W        W75352   7.186  30.578  10.490
10192W        W75353  25.802  31.440  10.729
10193W        W75354  18.719  11.355   0.996
10194W        W75355   5.903  28.632   3.677
10195W        W75356  27.004   8.773   3.625
10196W        W75357  16.845  20.797  11.721
10197W        W75358  23.868   5.881  13.388
10198W        W75359  19.204   3.535  12.699
10199W        W75360   4.204  28.867   0.251
10200W        W75361  16.050  42.894  12.337
10201W        W75362  29.139  30.803   0.725
10202W        W75363  35.495   9.157   4.169
10203W        W75364  34.497  25.406  11.226
10204W        W75365  22.702  43.484   1.888
10205W        W75366  13.114  26.069  12.543
10206W        W75367  30.908   6.405  11.999
10207W        W75368  20.528  27.653  14.876
10208W        W75369  27.074  31.700   0.743
10209W        W75370  40.995  26.927  11.959
10210W        W75371  20.700  34.340  11.604
10211W        W75372  25.105  15.678  12.025
10212W        W75373  37.320  43.260   0.007
10213W        W75374  28.648  10.440  12.311
10214W        W75375  29.057   6.402   2.660
10215W        W75376  43.723  23.006  13.111
10216W        W75377  10.164  40.477  11.470
10217W        W75378  15.244  29.516   4.227
10218W        W75379  33.533  21.704  11.549
10219W        W75380  17.126  21.031   1.984
10220W        W75381  37.803  40.020  13.925
10221W        W75382   4.773  39.225  14.973
10222W        W75383   3.407  38.788  11.634
10223W        W75384  32.902  15.399  13.435
10224W        W75385   2.880  11.865   1.210
10225W        W75386   9.952  23.210   3.639
10226W        W75387  26.124   4.927   2.791
10227W        W75388  19.242  36.440   3.693
10228W        W75389  27.449  26.605   2.546
10229W        W75390  17.286  40.587  13.353
10230W        W75391  22.955  15.522   2.871
10231W        W75392   6.829  36.892   1.899
10232W        W75393   7.221   5.384   1.451
10233W        W75394  27.564  24.304   4.897
10234W        W75395  12.110  21.580  13.992
10235W        W75396  10.069  41.445  11.596
10236W        W75397   5.359  41.415   3.541
10237W        W75398  35.230  14.291   0.368
10238W        W75399  16.547  19.315   4.053
10239W        W75400   6.933  43.698  14.868
10240W        W75401   9.920  42.432  11.574
10241W        W75402   7.980  37.926  11.196
10242W        W75403  40.051   4.067   4.924
10243W        W75404  38.958  42.180   1.493
10244W        W75405   0.764  11.834   4.007
10245W        W75406  42.315  34.589   3.101
10246W        W75407  44.384  23.943   2.768
10247W        W75408  23.183  40.332   0.359
10248W        W75409  44.288  18.837  10.685
10249W        W75410  26.616  33.568  12.622
10250W        W75411   4.596  43.334   5.075
10251W        W75412  25.004  22.724  12.368
10252W        W75413   6.551   6.171   4.353
10253W        W75414  17.538   5.208   1.799
10254W        W75415  26.673  37.608   2.824
10255W        W75416  23.373  23.051   2.752
10256W        W75417   6.855  36.592  12.515
10257W        W75418   6.192  24.733   2.159
10258W        W75419   8.770  17.618   3.858
10259W        W75420  40.449   1.804   1.031
10260W        W75421  35.181  42.708   3.997
10261W        W75422  30.846  41.166  14.206
10262W        W75423  34.552  35.553  10.418
10263W        W75424  28.392  24.653   1.808
10264W        W75425   0.311  29.508   0.316
10265W        W75426  14.693  38.512  13.061
10266W        W75427  29.481   3.338  14.297
10267W        W75428   3.788   6.812   4.850
10268W        W75429  14.132  32.204   0.764
10269W        W75430   7.430   1.667   3.710
10270W        W75431  23.252  44.171   3.906
10271W        W75432  15.474   8.967   4.599
10272W        W75433  16.371  42.808   2.192
10273W        W75434  39.551  23.646   4.169
10274W        W75435  41.952  11.853  14.836
10275W        W75436  18.402  38.319  14.773
10276W        W75437  38.243  33.893  11.761
10277W        W75438  40.134  14.576  14.250
10278W        W75439  42.667   8.965  12.867
10279W        W75440   6.655  11.754  12.514
10280W        W75441  27.712   3.724   2.673
10281W        W75442   7.708   2.027   3.467
10282W        W75443  43.812  33.902  13.568
10283W        W75444  17.748  40.374  13.278
10284W        W75445  37.610   7.377   4.223
10285W        W75446  15.082  30.808  13.381
10286W        W75447   9.725  10.765   1.460
10287W        W75448  32.855   4.121  12.911
10288W        W75449  41.846  39.146   0.947
10289W        W75450  38.275  18.475  13.877
10290W        W75451  17.693  34.613   1.099
10291W        W75452  44.256  22.109  13.412
10292W        W75453  28.550   1.357  14.647
10293W        W75454   5.700  44.554   4.442
10294W        W75455  27.441  39.516  12.501
10295W        W75456  25.137  26.171   3.707
10296W        W75457  22.268  33.538   4.668
10297W        W75458  40.921  36.838  12.271
10298W        W75459  22.416   3.680   4.949
10299W        W75460  37.330   4.581  12.465
10300W        W75461  10.626  24.182  11.623
10301W        W75462  15.625   5.745  12.012
10302W        W75463   1.266   5.748  11.518
10303W        W75464  42.267  30.332  11.599
10304W        W75465  21.760  39.864   5.112
10305W        W75466  21.772   3.862   2.742
10306W        W75467  23.959  26.248  12.749
10307W        W75468  18.532  13.873  14.358
10308W        W75469   1.505  27.191  12.113
10309W        W75470  25.495   1.700  12.407
10310W        W75471  17.185  15.474  13.403
10311W        W75472   8.448   3.331   5.003
10312W        W75473  31.511   6.999  14.293
10313W        W75474   9.927  39.631   2.859
10314W        W75475  22.712   5.591  14.357
10315W        W75476   2.269  10.090   0.493
10316W        W75477  11.238  10.324   4.546
10317W        W75478  33.097  44.923  14.415
10318W        W75479  14.379  12.146  12.469
10319W        W75480  40.822  13.363   4.125
10320W        W75481  38.893  14.905   4.809
10321W        W75482  19.820   7.729  12.868
10322W        W75483  35.019  18.242   0.322
10323W        W75484   0.213  38.232  12.694
10324W        W75485  44.343  41.982  12.789
10325W        W75486  22.921   5.159   0.079
10326W        W75487  32.716  27.350  13.894
10327W        W75488  23.968  15.299   3.702
10328W        W75489  30.554  18.086  13.775
10329W        W75490  44.551   4.283   3.766
10330W        W75491  15.771  42.905   3.014
10331W        W75492  33.190  22.468   2.102
10332W        W75493  11.351  22.370   4.860
10333W        W75494  42.904   1.085   3.262
10334W        W75495  36.688  21.539  13.293
10335W        W75496   5.893   1.208   1.779
10336W        W75497  29.614  27.538   3.284
10337W        W75498  21.580  26.771   2.262
10338W        W75499   2.325  28.058   3.566
10339W        W75500  21.002   9.371  13.565
10340W        W75501   2.786   5.693   1.822
10341W        W75502  38.873   3.740  14.819
10342W        W75503   8.340  39.497   1.353
10343W        W75504  29.988   9.234   3.366
10344W        W75505  39.808  44.492  14.293
10345W        W75506   8.538  39.009  14.398
10346W        W75507  35.971  26.374   3.763
10347W        W75508   7.899   5.817  11.455
10348W        W75509  32.080  14.319  14.447
10349W        W75510  18.802  20.667  10.786
10350W        W75511  36.992   8.257   3.600
10351W        W75512  42.904  24.947  12.441
10352W        W75513  33.999  21.600  11.346
10353W        W75514  29.579  43.908  11.507
10354W        W75515  28.517   4.594  12.015
10355W        W75516  17.524  31.742   1.057
10356W        W75517  38.032  14.714  13.366
10357W        W75518  37.514  39.895   9.947
10358W        W75519  40.081  26.317   3.381
10359W        W75520  12.650  44.164  10.276
10360W        W75521  15.694   4.864  11.531
10361W        W75522  13.419  28.528   1.341
10362W        W75523  44.840  38.985  12.598
10363W        W75524  18.272  28.036  11.548
10364W        W75525  39.748  18.408  13.033
10365W        W75526  20.229  39.459   4.269
10366W        W75527  30.541  34.988  10.775
10367W        W75528  21.484   1.284   2.517
10368W        W75529  25.235  11.252  12.502
10369W        W75530  26.131   0.991   2.457
10370W        W75531  17.275  15.830   0.327
10371W        W75532  41.265   7.345   3.794
10372W        W75533  25.236   9.797  13.257
10373W        W75534  14.123  40.665   4.975
10374W        W75535  39.476  27.294   3.531
10375W        W75536  43.856   9.662   4.079
10376W        W75537  15.788  37.398  10.359
10377W        W75538  38.934  18.330   3.311
10378W        W75539  38.975   0.082  14.463
10379W        W75540  11.361  31.989  13.779
10380W        W75541  23.664  32.437   1.253
10381W        W75542  30.704  32.300   1.133
10382W        W75543  29.341   5.442  13.815
10383W        W75544  30.912   3.820   3.979
10384W        W75545  17.626  33.618  13.435
10385W        W75546  31.226  27.400  12.904
10386W        W75547  11.389  34.393  13.883
10387W        W75548   9.186  14.139  10.422
10388W        W75549  20.881   5.957   3.184
10389W        W75550  20.354  44.429   0.659
10390W        W75551  36.111  27.934  13.425
10391W        W75552  36.865   4.924   0.196
10392W        W75553  15.726   5.923   1.383
10393W        W75554  24.412  34.610  13.472
10394W        W75555  30.241  31.917   2.304
10395W        W75556   0.404  42.672   1.307
10396W        W75557  30.611  11.659  12.395
10397W        W75558  33.827  26.034  11.155
10398W        W75559   0.115  26.800  12.951
10399W        W75560  10.310  37.379  12.462
10400W        W75561  25.652   8.917   3.364
10401W        W75562  12.479  17.252   3.615
10402W        W75563   8.663  28.205  13.585
10403W        W75564   3.755  15.718   4.130
10404W        W75565  44.756   8.538   3.685
10405W        W75566  15.215  32.599  13.026
10406W        W75567   5.273  37.453   1.321
10407W        W75568  18.310  43.817   4.175
10408W        W75569   4.205  32.917   3.913
10409W        W75570   0.616  39.870   1.021
10410W        W75571  14.685  11.071  13.161
10411W        W75572   1.724   7.753  12.748
10412W        W75573   5.354  44.814  12.868
10413W        W75574   3.821  33.526   1.681
10414W        W75575  12.283  36.537   4.634
10415W        W75576   9.100  39.843  12.908
10416W        W75577  30.244  42.499   1.303
10417W        W75578  24.084  35.911  10.698
10418W        W75579  35.313  21.674  13.020
10419W        W75580  15.254  18.761   3.378
10420W        W75581  42.478  18.556   0.586
10421W        W75582   1.160  44.489  12.424
10422W        W75583  22.105   1.919  11.934
10423W        W75584  29.979  38.229   1.941
10424W        W75585  34.864  29.138  12.668
10425W        W75586  15.154  15.567   1.404
10426W        W75587   8.414  19.693   3.701
10427W        W75588   6.962  22.931   0.792
10428W        W75589   3.768  38.812  12.907
10429W        W75590   4.933  41.451  13.940
10430W        W75591  13.310  20.691  14.854
10431W        W75592  25.575  39.216  14.904
10432W        W75593   6.775  15.785  14.896
10433W        W75594  31.331  10.830  11.001
10434W        W75595   9.126   8.434  14.925
10435W        W75596   8.974  43.324   2.778
10436W        W75597  12.889  11.087  11.025
10437W        W75598  33.495  17.744   2.107
10438W        W75599  27.527  22.574   1.485
10439W        W75600  26.040  39.904  13.369
10440W        W75601  41.925  39.812   0.325
10441W        W75602  32.895  37.573   3.892
10442W        W75603  15.396   9.673   1.924
10443W        W75604   5.497   9.174   2.701
10444W        W75605  14.602  16.663  10.899
10445W        W75606  16.550  39.067  11.624
10446W        W75607  44.846  22.579  11.785
10447W        W75608  32.592  24.310   0.235
10448W        W75609  18.296  19.503   1.788
10449W        W75610  12.766   0.449  10.909
10450W        W75611  16.286  17.064   4.091
10451W        W75612  18.501  27.976   1.654
10452W        W75613   6.287  43.963  13.128
10453W        W75614  24.475  16.469  13.862
10454W        W75615  15.967  15.626   4.184
10455W        W75616  39.331  17.130   3.566
10456W        W75617  15.544  37.385  13.042
10457W        W75618  37.887  11.343   1.751
10458W        W75619  25.359  36.818   0.917
10459W        W75620  17.484  40.980   0.401
10460W        W75621   6.986   5.446  14.758
10461W        W75622  42.611  23.302  12.579
10462W        W75623   6.656  40.095  14.186
10463W        W75624  30.250   2.822   0.809
10464W        W75625  16.611  41.524   0.736
10465W        W75626  39.109  26.593  12.980
10466W        W75627  28.464  34.469  12.194
10467W        W75628  14.103  28.714   2.737
10468W        W75629  14.289  18.770  13.031
10469W        W75630  19.003  40.470   2.083
10470W        W75631  44.837   1.682  12.345
10471W        W75632  23.034   0.211   4.771
10472W        W75633   1.294  33.295  13.436
10473W        W75634   9.300  24.654  14.173
10474W        W75635  25.325  15.048   4.025
10475W        W75636  10.327  21.295   3.315
10476W        W75637  10.360  39.216  14.976
10477W        W75638  11.814  25.765  11.505
10478W        W75639   7.394  42.170  11.427
10479W        W75640  31.516  26.398   0.293
10480W        W75641  33.120   3.746  13.963
10481W        W75642  42.870  17.840   3.957
10482W        W75643  15.600  18.628   5.040
10483W        W75644  12.090   9.545   2.387
10484W        W75645  37.548  38.287   0.367
10485W        W75646  11.458  40.728  11.481
10486W        W75647  38.379  37.312  14.797
10487W        W75648   8.765  24.560   2.486
10488W        W75649  28.534  13.959  12.521
10489W        W75650   9.969   7.309   4.927
10490W        W75651  28.027   3.341   0.408
10491W        W75652  23.241  21.779  13.105
10492W        W75653  11.340   0.556   0.173
10493W        W75654   3.580  17.813  11.593
10494W        W75655  28.836   6.840   0.063
10495W        W75656  24.528  18.647  10.632
10496W        W75657  17.851  39.225   3.301
10497W        W75658  25.174  14.424  14.480
10498W        W75659  32.965  13.698  11.649
10499W        W75660  21.262  17.886  14.852
10500W        W75661  34.238   9.455   3.216
10501W        W75662  40.470   2.885   4.516
10502W        W75663  38.504  30.729   0.344
10503W        W75664  13.715  13.147  11.474
10504W        W75665  33.028   5.938   2.258
10505W        W75666  32.053  34.031   2.527
10506W        W75667  35.477  16.747   1.978
10507W        W75668  32.929  30.364  10.587
10508W        W75669  27.899   0.953  12.205
10509W        W75670   1.346  23.218  12.380
10510W        W75671  18.078  25.427  11.097
10511W        W75672   8.980  36.168   0.243
10512W        W75673   2.110  19.629  11.571
10513W        W75674  22.806  16.244  10.737
10514W        W75675  28.399  17.303   1.211
10515W        W75676  27.393  29.522  13.472
10516W        W75677   2.934  27.333   2.675
10517W        W75678  42.936  39.498  13.033
10518W        W75679   3.897   7.312  12.584
10519W        W75680   1.794   3.754   2.427
10520W        W75681  25.693  41.272  13.832
10521W        W75682   0.699  38.596   4.088
10522W        W75683  14.805  44.824  10.711
10523W        W75684   0.304  28.417   1.892
10524W        W75685   2.839  24.287   2.282
10525W        W75686  23.615  33.460   1.734
10526W        W75687  32.596  36.246  12.451
10527W        W75688  40.693  17.796  12.289
10528W        W75689  34.905  24.975   3.315
10529W        W75690   3.325   8.109   4.538
10530W        W75691  38.789  26.288  14.497
10531W        W75692  44.160  40.008  13.055
10532W        W75693  39.360  18.969   1.916
10533W        W75694   5.721  14.489  12.091
10534W        W75695  11.724  34.894   0.263
10535W        W75696   3.761  12.336  11.553
10536W        W75697  15.503  34.424   3.100
10537W        W75698  27.611  35.598  13.409
10538W        W75699  33.783  14.069   0.277
10539W        W75700  43.989   0.646   0.871
10540W        W75701  32.187  31.405  12.530
10541W        W75702   1.141  37.583  14.794
10542W        W75703  29.327  26.736   2.221
10543W        W75704   6.916   8.466   1.551
10544W        W75705  10.314   9.420  11.887
10545W        W75706   5.784  30.592   2.192
10546W        W75707  32.850  42.789   4.180
10547W        W75708  44.349   0.217  12.629
10548W        W75709   0.439  15.125  11.241
10549W        W75710  35.287  29.173   2.847
10550W        W75711  10.291   5.655  14.074
10551W        W75712  31.186   0.445  14.226
10552W        W75713   1.710  34.611  13.826
10553W        W75714  22.278  28.375   3.071
10554W        W75715   7.669   7.020   3.185
10555W        W75716  15.376  42.677  13.448
10556W        W75717   0.914  22.939   1.736
10557W        W75718  19.918  32.501  10.696
10558W        W75719  35.970  40.706  11.684
10559W        W75720   9.794  29.962  13.909
10560W        W75721  26.703   1.068  13.918
10561W        W75722  20.136  15.103   3.645
10562W        W75723  12.542  35.048   3.214
10563W        W75724  34.903  28.640   1.332
10564W        W75725  26.099  12.100   0.384
10565W        W75726  37.316  14.543   4.374
10566W        W75727  32.586  28.008  13.215
10567W        W75728   1.942  22.728   3.181
10568W        W75729  18.329  19.717  10.531
10569W        W75730  14.614  33.208  14.630
10570W        W75731  23.933  31.935  11.251
10571W        W75732   5.802  19.526  14.479
10572W        W75733  28.021   0.997  11.219
10573W        W75734   3.406  41.900   2.655
10574W        W75735  11.139  44.749  11.576
10575W        W75736  38.565  40.807  13.517
10576W        W75737  30.001   8.147  14.667
10577W        W75738  41.825  40.396  12.568
10578W        W75739  25.964  13.610  12.063
10579W        W75740  22.638  19.272  10.725
10580W        W75741   8.862   8.275   4.078
10581W        W75742  32.377  43.321  10.707
10582W        W75743  14.660  31.730  12.550
10583W        W75744  25.972   7.858   2.289
10584W        W75745   1.968  26.601  12.277
10585W        W75746  23.057   8.648  14.881
10586W        W75747   8.943  12.128   3.703
10587W        W75748   3.410  16.678  12.666
10588W        W75749  39.494  29.088   3.387
10589W        W75750   6.041   8.177   2.208
10590W        W75751  35.922  37.884  13.632
10591W        W75752  40.302  20.753  12.911
10592W        W75753  32.955  29.423  12.941
10593W        W75754   6.255  33.860  10.731
10594W        W75755  13.365   7.155  13.868
10595W        W75756  27.702  26.211   3.694
10596W        W75757  27.935  16.487   0.273
10597W        W75758  36.077  16.650  14.445
10598W        W75759  41.442  40.212  14.235
10599W        W75760  29.975  41.314  14.041
10600W        W75761  21.146   2.943   3.730
10601W        W75762  23.174   7.469   3.999
10602W        W75763  42.598  25.939   4.985
10603W        W75764   8.395  20.717   3.587
10604W        W75765  12.140   0.450  14.428
10605W        W75766  11.007   1.025  10.761
10606W        W75767  20.853  21.797   4.107
10607W        W75768  17.949  11.841  14.525
10608W        W75769   6.844  41.252   0.233
10609W        W75770  37.274  38.405   1.408
10610W        W75771  36.444  19.276   3.733
10611W        W75772   1.764  11.659  10.666
10612W        W75773  33.888  34.359   3.214
10613W        W75774  42.444   7.618   3.663
10614W        W75775   3.462   5.711  12.973
10615W        W75776  36.960  29.854   2.795
10616W        W75777   9.282  14.542  11.360
10617W        W75778   0.854  39.871   1.511
10618W        W75779  33.147   9.825  12.901
10619W        W75780  18.295   1.447   4.962
10620W        W75781   9.379  39.295   3.609
10621W        W75782  44.174  16.720  12.967
10622W        W75783   2.186  39.606   0.532
10623W        W75784   3.443   9.559  13.388
10624W        W75785  23.492  20.584  12.996
10625W        W75786  12.657  19.813   3.050
10626W        W75787  34.339  29.090  14.981
10627W        W75788  32.961   4.481  10.981
10628W        W75789  12.536  14.587  14.658
10629W        W75790  37.859  26.262   3.620
10630W        W75791   4.811  36.631  13.815
10631W        W75792  10.269  19.678   3.083
10632W        W75793   1.654  10.261   2.160
10633W        W75794  21.253   9.117   3.141
10634W        W75795   6.107  40.031  12.372
10635W        W75796  22.081  24.303   0.267
10636W        W75797  15.173  42.667  12.614
10637W        W75798  38.949   7.108  12.096
10638W        W75799   0.861  27.695  14.499
10639W        W75800   7.982  19.585   3.424
10640W        W75801  24.180  36.999  13.134
10641W        W75802  12.630  28.048   4.514
10642W        W75803  11.574  20.003  13.468
10643W        W75804  26.077  26.657  10.378
10644W        W75805   2.572  13.281  12.845
10645W        W75806  18.724  26.849   5.093
10646W        W75807   6.694  42.747  10.875
10647W        W75808  13.649  25.284   1.361
10648W        W75809  19.730  21.949   4.161
10649W        W75810  27.070   2.258  13.856
10650W        W75811   1.175  26.974   3.249
10651W        W75812  35.842   8.732  14.033
10652W        W75813  44.403  25.041  13.098
10653W        W75814  34.838  33.741   4.208
10654W        W75815  31.020  32.432   3.587
10655W        W75816  30.085  40.885  13.611
10656W        W75817  22.208  34.411  13.809
10657W        W75818   4.445  17.978  13.921
10658W        W75819   6.436  33.494   0.888
10659W        W75820   7.327  19.125   3.365
10660W        W75821  32.047  37.958   4.206
10661W        W75822  35.507  29.091   1.842
10662W        W75823  14.951  22.749  13.375
10663W        W75824  24.156   6.501   2.320
10664W        W75825  24.077  20.039   2.578
10665W        W75826  34.296  20.053  13.666
10666W        W75827  37.900  23.928   1.199
10667W        W75828  14.484  28.406   0.033
10668W        W75829  20.296  10.559   0.699
10669W        W75830   6.542  11.237  13.386
10670W        W75831  20.860  39.338   1.366
10671W        W75832  33.550  31.096  13.473
10672W        W75833  13.051  11.338   0.243
10673W        W75834  26.546  34.587   3.694
10674W        W75835  13.488  14.600  13.056
10675W        W75836  12.045  44.975  10.805
10676W        W75837  42.638  11.567  11.518
10677W        W75838  15.658  17.029   4.271
10678W        W75839  33.093  40.432  10.821
10679W        W75840  36.942  35.415  13.390
10680W        W75841   6.447  41.489  13.825
10681W        W75842  41.650  43.517  11.221
10682W        W75843  24.947  18.035  12.920
10683W        W75844  30.256  17.671  13.101
10684W        W75845  23.603  38.060   2.604
10685W        W75846   4.662  13.705  10.469
10686W        W75847  32.515  34.023  13.943
10687W        W75848  23.507   6.287   2.836
10688W        W75849  32.393  20.100  12.458
10689W        W75850  35.592  14.379  11.183
10690W        W75851  25.043  26.822   1.111
10691W        W75852  17.141  19.721  10.675
10692W        W75853  18.106  30.695   3.656
10693W        W75854  19.261  41.454  14.943
10694W        W75855  27.059  22.182  11.978
10695W        W75856  20.977  33.871   4.789
10696W        W75857  38.995   5.701  11.608
10697W        W75858  42.770   2.467   2.008
10698W        W75859  32.594  26.673   4.884
10699W        W75860  32.013  39.287   4.124
10700W        W75861  18.692  11.856   1.176
10701W        W75862  17.219  33.028   3.130
10702W        W75863  26.797  12.404   0.142
10703W        W75864  39.980  19.151   0.755
10704W        W75865  12.553  25.141  13.073
10705W        W75866   4.438   3.511  12.048
10706W        W75867  26.575  15.894   0.502
10707W        W75868  15.468   3.046   4.144
10708W        W75869  18.042  36.921   0.407
10709W        W75870  35.661   8.918   3.339
10710W        W75871  19.208  13.841   1.876
10711W        W75872   8.080  15.638   0.367
10712W        W75873   5.306  20.742   0.791
10713W        W75874  21.654  44.475  13.544
10714W        W75875  21.126   8.700  12.976
10715W        W75876  15.466  39.348   0.226
10716W        W75877  20.755  14.611  13.072
10717W        W75878  21.219  16.698   1.798
10718W        W75879  22.497  12.652  10.285
10719W        W75880  19.738   3.187   0.806
10720W        W75881  19.689  37.322  11.926
10721W        W75882  35.860   7.636   3.254
10722W        W75883  23.671  30.446   0.356
10723W        W75884  32.598   1.526   1.396
10724W        W75885   8.297  38.333  11.106
10725W        W75886   1.466  12.098   0.446
10726W        W75887  15.505  36.566   1.275
10727W        W75888  33.856  38.560  12.961
10728W        W75889   0.683   7.628   4.548
10729W        W75890  23.962  26.690   0.415
10730W        W75891   6.758  40.367  10.685
10731W        W75892  13.671  30.546   0.044
10732W        W75893  18.121  31.889  14.411
10733W        W75894  23.548  38.443  14.192
10734W        W75895  21.272   6.222   4.568
10735W        W75896  17.551  18.376   4.166
10736W        W75897  21.182  14.886   1.303
10737W        W75898  39.513  11.121  14.774
10738W        W75899  34.257  12.918  11.251
10739W        W75900   0.299  40.966   0.882
10740W        W75901  36.013   6.350  14.354
10741W        W75902   6.273  37.279   0.437
10742W        W75903  18.781  13.100   0.575
10743W        W75904  34.667   1.641   3.823
10744W        W75905  42.087  28.708  14.467
10745W        W75906   8.224  13.215   3.797
10746W        W75907  44.826  37.604   2.167
10747W        W75908   7.902  18.093   4.118
10748W        W75909   8.899   4.166  11.173
10749W        W75910  14.723  22.616   0.616
10750W        W75911  16.814  24.039  14.324
10751W        W75912   0.241  34.658   0.442
10752W        W75913  18.262  33.091  13.810
10753W        W75914  24.101  25.733   2.808
10754W        W75915   4.843  22.558  12.277
10755W        W75916   4.814   6.035   5.047
10756W        W75917   0.494  41.319  12.506
10757W        W75918  28.943  22.792   9.761
10758W        W75919  35.646   5.395  11.632
10759W        W75920  44.076  32.009  12.631
10760W        W75921  27.959   7.798   3.754
10761W        W75922  15.837  31.964   1.298
10762W        W75923  26.150   3.741  12.760
10763W        W75924  26.155  36.632  12.026
10764W        W75925  36.526  44.566   3.237
10765W        W75926   0.245  30.183  12.917
10766W        W75927  15.253  33.124   3.182
10767W        W75928  11.236  19.581  14.927
10768W        W75929  27.503  17.707   0.997
10769W        W75930  24.889  33.682   1.232
10770W        W75931  22.714  17.843  13.896
10771W        W75932  23.074  11.907   4.151
10772W        W75933   6.883  43.198  12.203
10773W        W75934  24.248  43.158  10.733
10774W        W75935  40.006  12.892  14.965
10775W        W75936  37.397  26.790   3.816
10776W        W75937   2.746   9.824  12.002
10777W        W75938  27.553  13.960   3.240
10778W        W75939  13.702  37.506   4.925
10779W        W75940   1.074  28.664  12.094
10780W        W75941  31.006  30.167  10.616
10781W        W75942  31.936  11.232   3.283
10782W        W75943   6.556   9.661   2.291
10783W        W75944   3.845   2.886  14.426
10784W        W75945   9.521  26.921   9.693
10785W        W75946  43.396  26.388   0.459
10786W        W75947  20.282  37.409  12.751
10787W        W75948  25.695   2.705  14.895
10788W        W75949  28.270   7.044  13.424
10789W        W75950  38.741  19.303  13.425
10790W        W75951  31.940  14.267  12.254
10791W        W75952  33.482  12.695  11.265
10792W        W75953  40.986  44.146   0.363
10793W        W75954  38.873   1.953  10.596
10794W        W75955  27.036   6.071   1.052
10795W        W75956  13.446  12.727   0.574
10796W        W75957   2.248  30.040   1.397
10797W        W75958  27.351  26.497   1.532
10798W        W75959  31.628  12.651  11.099
10799W        W75960  13.801  14.948   3.074
10800W        W75961  23.598  24.046   2.193
10801W        W75962  34.524  43.771  11.892
10802W        W75963  13.619   9.941  10.644
10803W        W75964   5.390  15.000   4.127
10804W        W75965  29.900  28.031  11.259
10805W        W75966  33.741  22.036  10.212
10806W        W75967  40.918  44.783  14.376
10807W        W75968  32.967  22.233   1.301
10808W        W75969  41.880  15.206   0.384
10809W        W75970  11.413  44.233  11.800
10810W        W75971  41.962  10.970  11.242
10811W        W75972   0.822  21.949  13.883
10812W        W75973  44.394  22.275  10.622
10813W        W75974  13.079  22.033   1.342
10814W        W75975  10.529  17.879  11.267
10815W        W75976   6.380  29.356   0.823
10816W        W75977   3.795  43.342  12.965
10817W        W75978  17.810  29.061  10.641
10818W        W75979  44.885   2.148  10.655
10819W        W75980  14.830  34.172  13.963
10820W        W75981   6.356  21.290  12.078
10821W        W75982  35.006  12.272  13.784
10822W        W75983  10.491   5.503  12.493
10823W        W75984  40.183  37.817   3.196
10824W        W75985  10.372  38.893  14.517
10825W        W75986  22.668  30.467   0.347
10826W        W75987  44.340  10.035   1.338
10827W        W75988  11.833  13.246   1.408
10828W        W75989   8.201   2.683   0.338
10829W        W75990  33.926  23.912  12.066
10830W        W75991  23.026  10.184   2.273
10831W        W75992  33.889  33.528   0.284
10832W        W75993  38.105  27.490  14.937
10833W        W75994   0.197  26.642   3.301
10834W        W75995  28.426  39.884   2.619
10835W        W75996  41.531  29.023  14.888
10836W        W75997  25.424  32.160  13.039
10837W        W75998   4.881  42.520   0.958
10838W        W75999  10.923   6.816   1.846
10839W        W76000   6.576  17.528  12.085
10840W        W76001  29.900  30.990   3.246
10841W        W76002   4.117   3.188  12.625
10842W        W76003  18.007  36.942   4.333
10843W        W76004   4.917  30.568   4.064
10844W        W76005  16.151  19.080  10.146
10845W        W76006  24.650  14.611  14.540
10846W        W76007   0.570   3.231  11.662
10847W        W76008  37.083  30.674   3.522
10848W        W76009  30.942  20.460   3.738
10849W        W76010   4.351  10.412  14.814
10850W        W76011  43.922  37.600   3.388
10851W        W76012  15.860  12.627   0.436
10852W        W76013  12.044  18.038   2.226
10853W        W76014  42.986  23.399  10.675
10854W        W76015   4.261   7.148   3.701
10855W        W76016   0.102  27.521  11.798
10856W        W76017  37.333  30.249  13.668
10857W        W76018  38.590  13.933  14.368
10858W        W76019  18.933  16.884   2.398
10859W        W76020  20.574  26.197   0.733
10860W        W76021  20.294  34.318  14.975
10861W        W76022  22.519  25.907   5.004
10862W        W76023  40.353  32.481   0.971
10863W        W76024   5.336  32.697   1.823
10864W        W76025  38.728  33.636   2.226
10865W        W76026  39.302   5.778   3.370
10866W        W76027  37.115  43.815   3.765
10867W        W76028   1.157  14.635  12.990
10868W        W76029  22.476  32.468  13.051
10869W        W76030  41.608  19.505   0.177
10870W        W76031   8.153  12.746  13.940
10871W        W76032  42.100  34.033   3.719
10872W        W76033  10.360  26.585   3.376
10873W        W76034  30.311  21.714   3.168
10874W        W76035  32.676  22.325  13.692
10875W        W76036  40.315   6.562   1.678
10876W        W76037  20.080  36.349   0.836
10877W        W76038  27.219  16.522  12.093
10878W        W76039  20.734  23.961  12.840
10879W        W76040  36.852  27.284  11.229
10880W        W76041  37.862  27.359  12.004
10881W        W76042   8.705  34.689  14.323
10882W        W76043  37.075  21.318  11.122
10883W        W76044  16.768   9.412   1.770
10884W        W76045  36.656  40.987  12.923
10885W        W76046  16.681  42.009  13.367
10886W        W76047  34.494  20.382  13.336
10887W        W76048  13.163  42.907   0.913
10888W        W76049   2.256  34.017   2.821
10889W        W76050  19.124  13.191  11.260
10890W        W76051  41.977   1.965   5.124
10891W        W76052  32.018  11.412  13.013
10892W        W76053  18.803  36.802  12.495
10893W        W76054  31.505  18.225  11.868
10894W        W76055  16.754  41.062  11.593
10895W        W76056  32.532  28.749   1.747
10896W        W76057  40.494  40.005  10.837
10897W        W76058   2.389  27.556   3.724
10898W        W76059  30.634   0.949  11.843
10899W        W76060  16.891  35.601  14.441
10900W        W76061  31.240  36.622  12.476
10901W        W76062   6.983  29.637   3.739
10902W        W76063   5.548  38.669  13.568
10903W        W76064  21.071  39.088  11.059
10904W        W76065   9.611  31.630  10.782
10905W        W76066  44.493  43.946   3.797
10906W        W76067   4.935  10.175  12.552
10907W        W76068  26.168   6.647  14.465
10908W        W76069  38.880  29.663  10.769
10909W        W76070  25.991  27.992  13.882
10910W        W76071  19.595  26.565   0.885
10911W        W76072  15.845  12.942   1.950
10912W        W76073   6.154   1.867  13.393
10913W        W76074  28.260  25.273  12.439
10914W        W76075  32.876  27.590  11.196
10915W        W76076  37.828  30.243   3.615
10916W        W76077   4.814   7.024   4.108
10917W        W76078  41.465  11.463  13.533
10918W        W76079  31.031  40.433   1.850
10919W        W76080  13.663  26.618  13.003
10920W        W76081  39.351  27.030   1.021
10921W        W76082  18.979  18.346   1.756
10922W        W76083  43.396  11.334  13.492
10923W        W76084  43.912  16.386   2.848
10924W        W76085  16.543  20.763  11.125
10925W        W76086  20.599  43.347   1.517
10926W        W76087   5.219  30.079   3.996
10927W        W76088  25.969   8.875  11.643
10928W        W76089  34.875  14.119  11.234
10929W        W76090   2.423   4.790   2.781
10930W        W76091  24.573  20.189  12.423
10931W        W76092  11.298  11.063   3.284
10932W        W76093  21.167  32.164  14.132
10933W        W76094  42.968  11.673   0.998
10934W        W76095  25.580  16.146   3.553
10935W        W76096  34.177  42.286   1.440
10936W        W76097  12.678  30.281  11.697
10937W        W76098  36.617   3.434   2.827
10938W        W76099   4.897  40.281  13.947
10939W        W76100  24.637  14.805   3.301
10940W        W76101  19.497  32.910   4.484
10941W        W76102  27.911  13.555   3.148
10942W        W76103  23.031  28.484  11.163
10943W        W76104  24.979   8.304   4.999
10944W        W76105  13.108  41.746   3.809
10945W        W76106  33.848  26.983  14.387
10946W        W76107  13.745  25.835   2.123
10947W        W76108  27.557  34.266  12.969
10948W        W76109  21.772   7.823  11.212
10949W        W76110  11.404  21.634   1.029
10950W        W76111   0.446   0.926   1.611
10951W        W76112  34.286   6.602  10.871
10952W        W76113   1.900  15.953   1.382
10953W        W76114  19.900  30.701  11.597
10954W        W76115  20.109  21.720   9.712
10955W        W76116  44.739  38.059   3.031
10956W        W76117   0.667  29.340   3.347
10957W        W76118  17.876   0.028  10.572
10958W        W76119  34.655  44.770   4.563
10959W        W76120   0.328   2.545   3.388
10960W        W76121  23.928  12.518   3.220
10961W        W76122  37.384  21.934  11.619
10962W        W76123  14.145  43.730   0.872
10963W        W76124  11.930  44.756  11.247
10964W        W76125  35.653   1.786   4.102
10965W        W76126  37.875  15.812   1.331
10966W        W76127  23.932   2.436  13.556
10967W        W76128  24.953   5.108  13.048
10968W        W76129  35.052  42.620  14.101
10969W        W76130   1.492  29.607  10.705
10970W        W76131  25.771  18.307  11.103
10971W        W76132  25.675  19.156   1.318
10972W        W76133  17.647   0.943  14.091
10973W        W76134  39.056  33.632   4.088
10974W        W76135  24.835   9.308   0.871
10975W        W76136  37.827  13.787   3.799
10976W        W76137   9.660  40.463  11.533
10977W        W76138   8.333  16.521   2.120
10978W        W76139  21.692  44.176   0.364
10979W        W76140   2.554  38.317  10.574
10980W        W76141   4.718   9.429  11.994
10981W        W76142   9.840  35.943   1.807
10982W        W76143  42.089  44.610   0.695
10983W        W76144  14.301  29.081   4.704
10984W        W76145  41.569   8.205   0.861
10985W        W76146  20.828  31.487   1.772
10986W        W76147  32.093  14.493  11.053
10987W        W76148  19.160   1.258  11.244
10988W        W76149  35.118  25.260   2.855
10989W        W76150  43.885  41.867   4.604
10990W        W76151  43.797  26.498  14.346
10991W        W76152  38.356  41.975  13.890
10992W        W76153   7.144   9.999  12.431
10993W        W76154  12.590  14.150  14.385
10994W        W76155  22.932  12.429   5.037
10995W        W76156  21.280  27.234   0.213
10996W        W76157   7.339  35.462  13.949
10997W        W76158   4.747  18.203   1.163
10998W        W76159   1.834  43.510   1.972
10999W        W76160  19.265   4.197  10.613
11000W        W76161  22.644  16.178   0.046
11001W        W76162  22.777   9.194   4.127
11002W        W76163  33.028  43.387   0.887
11003W        W76164  24.198  39.970   0.391
11004W        W76165   8.289  33.296  10.684
11005W        W76166  15.608  13.074   4.537
11006W        W76167  36.559  33.111   3.608
11007W        W76168  23.230  14.109  12.884
11008W        W76169   5.893  37.048  12.247
11009W        W76170  40.978   0.028   1.225
11010W        W76171   1.750  15.341  12.654
11011W        W76172  30.662  32.888   3.385
11012W        W76173  17.508  33.959   3.660
11013W        W76174  24.866  29.235  10.962
11014W        W76175  27.909  16.108  12.001
11015W        W76176  13.529  22.084   2.590
11016W        W76177  22.410  18.178   0.405
11017W        W76178  32.961  43.231  12.504
11018W        W76179  10.361  27.457   3.274
11019W        W76180  29.439  20.231  13.055
11020W        W76181   2.814  25.939  14.887
11021W        W76182  27.865  24.461   4.068
11022W        W76183  26.919   0.549   0.824
11023W        W76184  16.042  25.619  11.139
11024W        W76185  43.461  39.892   3.567
11025W        W76186  10.376  13.611  13.291
11026W        W76187   2.425  12.612  12.540
11027W        W76188   3.677  23.766  14.308
11028W        W76189  44.844  23.314  12.369
11029W        W76190  38.118  26.603  12.585
11030W        W76191  34.604  44.003   3.209
11031W        W76192  26.654  41.839   2.331
11032W        W76193  44.217  18.689  11.174
11033W        W76194   4.962  44.862   4.082
11034W        W76195  19.131   9.889  14.688
11035W        W76196  43.553  26.087   2.854
11036W        W76197  31.139  42.966  10.141
11037W        W76198  22.596  24.565  13.899
11038W        W76199  35.822   5.732  11.270
11039W        W76200  36.004  39.056   2.371
11040W        W76201  13.718   9.848  12.653
11041W        W76202   7.225  33.090  12.408
11042W        W76203   4.885  32.246   1.388
11043W        W76204  30.040  14.119  13.864
11044W        W76205  28.263  38.280   1.191
11045W        W76206  32.152   2.712  11.143
11046W        W76207  13.622  14.589   1.836
11047W        W76208  16.696  42.633   4.092
11048W        W76209   5.854  38.642  11.328
11049W        W76210   2.687  40.589  11.327
11050W        W76211  36.818  28.958  12.052
11051W        W76212  10.889  39.837   0.842
11052W        W76213  17.538  20.098   1.160
11053W        W76214  41.026  31.986  12.058
11054W        W76215  26.570  24.055  14.900
11055W        W76216   0.794  16.863  11.126
11056W        W76217   1.999  42.283   2.452
11057W        W76218  17.124  38.199  12.421
11058W        W76219  40.013  14.663   1.483
11059W        W76220   3.343  15.703  12.621
11060W        W76221   4.384  24.189   3.309
11061W        W76222  16.872  18.074   1.308
11062W        W76223  37.129   1.243  14.017
11063W        W76224   7.419   0.302   0.077
11064W        W76225  30.615  29.508   4.473
11065W        W76226   6.790  14.528   3.298
11066W        W76227  33.540  24.304   0.578
11067W        W76228  44.775  34.320   2.136
11068W        W76229   2.337  39.033   1.167
11069W        W76230  18.047  37.556   1.903
11070W        W76231  44.755  33.610  13.986
11071W        W76232  37.721  43.288  12.608
11072W        W76233  33.191  29.691   2.962
11073W        W76234  39.827  43.966  14.103
11074W        W76235  13.628  22.033  12.158
11075W        W76236  24.125  37.731   0.197
11076W        W76237  15.666  28.422   2.678
11077W        W76238  38.709  14.201  10.247
11078W        W76239  43.273  11.849  13.448
11079W        W76240  40.200  29.167  11.574
11080W        W76241  42.852  13.372  11.214
11081W        W76242  30.809  16.219   0.359
11082W        W76243  38.925  17.811   2.343
11083W        W76244  35.428  32.808   1.301
11084W        W76245  10.826   5.601  12.857
11085W        W76246  37.005  10.815   1.801
11086W        W76247  38.745  43.375   0.798
11087W        W76248  41.210  19.578  12.925
11088W        W76249   1.435  11.639  12.546
11089W        W76250  44.914  30.068   4.500
11090W        W76251   5.501  44.303  13.450
11091W        W76252  31.966  22.681  14.770
11092W        W76253   5.625   3.022   3.389
11093W        W76254  17.219  31.436   4.785
11094W        W76255  36.777  30.126  10.786
11095W        W76256  11.394  20.147  11.408
11096W        W76257  42.131  34.835   3.732
11097W        W76258  21.212   4.727   3.582
11098W        W76259  15.352  32.831   3.628
11099W        W76260  32.917  29.900  13.850
11100W        W76261   0.859   9.447   0.340
11101W        W76262  11.269  30.251  14.904
11102W        W76263  33.093  15.055  10.573
11103W        W76264  41.223  30.991  12.986
11104W        W76265  10.123  33.502   2.812
11105W        W76266  22.320  31.820   3.392
11106W        W76267  13.749   3.723   1.842
11107W        W76268  42.017  13.250  11.599
11108W        W76269  15.812  18.296  11.630
11109W        W76270   6.138  13.262   3.369
11110W        W76271   3.214  16.761   0.985
11111W        W76272   6.299   5.399   1.223
11112W        W76273  16.230  26.025   1.794
11113W        W76274   6.822  30.640  14.638
11114W        W76275   1.336  13.530   1.206
11115W        W76276  40.834  43.065  13.256
11116W        W76277   2.983   0.513   1.724
11117W        W76278   0.920  39.357   1.412
11118W        W76279  22.221  26.801  14.929
11119W        W76280   5.887  32.921  13.947
11120W        W76281   5.002  23.984   1.637
11121W        W76282   8.250  34.404  12.015
11122W        W76283  38.856  37.933   3.312
11123W        W76284  19.092  27.539  12.548
11124W        W76285   4.242  26.920   1.250
11125W        W76286  20.134  33.497  13.844
11126W        W76287  17.030   0.494   3.232
11127W        W76288  29.093  19.045   1.493
11128W        W76289   5.438  38.864   0.258
11129W        W76290   3.496  28.649  12.065
11130W        W76291  27.195  39.696   3.735
11131W        W76292  14.641  23.486   0.968
11132W        W76293  34.026  33.547  10.581
11133W        W76294  13.216  21.664   3.420
11134W        W76295  38.418  34.087  13.946
11135W        W76296  32.437  17.094  10.735
11136W        W76297  44.419  20.838   4.345
11137W        W76298  29.427  36.084  11.172
11138W        W76299   3.204  15.681   4.132
11139W        W76300   7.949  27.556   4.640
11140W        W76301  12.128  26.294  14.396
11141W        W76302  19.714  42.359  11.257
11142W        W76303  28.984  16.671   2.693
11143W        W76304   1.520  22.099   1.426
11144W        W76305  30.991  22.138  11.175
11145W        W76306  19.307  28.801  11.169
11146W        W76307  26.458  32.569   1.359
11147W        W76308   2.946  31.687  11.276
11148W        W76309  44.198  18.696   1.194
11149W        W76310  11.198  39.180  10.657
11150W        W76311  27.264  40.480   0.309
11151W        W76312  20.149  10.562  10.164
11152W        W76313  22.644   3.748  10.654
11153W        W76314  26.165  31.319  13.504
11154W        W76315  42.954  22.752   3.205
11155W        W76316  20.997   1.912  14.210
11156W        W76317  26.987  41.399   1.612
11157W        W76318  28.678  36.308  14.066
11158W        W76319   0.049  44.793   3.551
11159W        W76320  14.985  42.497  13.165
11160W        W76321  23.367  41.846  11.414
11161W        W76322   3.032   1.444  11.758
11162W        W76323   4.954  18.593  11.143
11163W        W76324  27.967  21.273   0.303
11164W        W76325  41.711  37.997   3.053
11165W        W76326  24.786  34.037  11.847
11166W        W76327  34.047  33.380   1.758
11167W        W76328  29.828  25.132   1.293
11168W        W76329  35.974  12.848   2.852
11169W        W76330  11.706  36.263   3.619
11170W        W76331   2.637  31.183  12.607
11171W        W76332   4.403   0.935  13.866
11172W        W76333  28.970  14.965  14.929
11173W        W76334  42.066  29.135  12.975
11174W        W76335  29.437  16.822  12.332
11175W        W76336  20.998   9.284  10.629
11176W        W76337  25.395  20.528   1.404
11177W        W76338  20.245  14.310  13.480
11178W        W76339  19.562  19.693   0.028
11179W        W76340   6.216   3.840   3.205
11180W        W76341  27.759   4.926  12.487
11181W        W76342  38.817   8.619  11.212
11182W        W76343  26.549  22.651   1.594
11183W        W76344  43.193  19.734   0.332
11184W        W76345   0.940  44.679   0.378
11185W        W76346  22.704  31.996   3.711
11186W        W76347  26.803  30.243   2.063
11187W        W76348   2.945  21.178   1.453
11188W        W76349  21.705  22.695  14.460
11189W        W76350  39.649   5.895   0.253
11190W        W76351   6.113  17.515   9.869
11191W        W76352  28.969  25.172   0.788
11192W        W76353  13.855   0.107   1.895
11193W        W76354  15.216  10.117   3.706
11194W        W76355   9.698   0.835  12.594
11195W        W76356  33.372  20.040   0.930
11196W        W76357  39.868  30.972  10.917
11197W        W76358  43.721  16.613  11.460
11198W        W76359  15.722  33.088  11.209
11199W        W76360   9.296  33.618   3.456
11200W        W76361  32.356  12.267  13.977
11201W        W76362  10.370  43.713   3.972
11202W        W76363   6.492  29.019   2.824
11203W        W76364  35.990  25.134   2.320
11204W        W76365  24.140  33.997   4.626
11205W        W76366  40.998  40.047   0.699
11206W        W76367  39.448  39.277  12.060
11207W        W76368  34.572  27.741   4.105
11208W        W76369  29.347  35.421   2.032
11209W        W76370  21.561  14.750  14.037
11210W        W76371  40.714  15.319   4.373
11211W        W76372  24.931  28.497  14.356
11212W        W76373  19.010  30.069  11.838
11213W        W76374  29.537  40.605  14.722
11214W        W76375  38.151  21.575   2.663
11215W        W76376  32.292  40.789   0.055
11216W        W76377  32.877  24.087  11.998
11217W        W76378  15.180  24.167  11.660
11218W        W76379  37.566  15.413  12.646
11219W        W76380  17.571  11.242  10.681
11220W        W76381  15.765  15.837  11.090
11221W        W76382  23.468   3.767   0.927
11222W        W76383  24.780   5.237   3.310
11223W        W76384   5.600   8.205   3.538
11224W        W76385  32.362  41.334   4.298
11225W        W76386  15.488  32.287   3.726
11226W        W76387  38.053  10.707   3.596
11227W        W76388  39.885  30.071   0.604
11228W        W76389  15.085  31.472  11.607
11229W        W76390  42.032   0.248  14.796
11230W        W76391  39.449   7.887   2.295
11231W        W76392  32.436  43.859   2.805
11232W        W76393  12.667  39.377  11.557
11233W        W76394   9.601   4.995  12.983
11234W        W76395   4.237  42.978   0.354
11235W        W76396  31.952  31.077   1.287
11236W        W76397  34.770  21.617   3.329
11237W        W76398  17.202  43.873  12.249
11238W        W76399   4.962  42.828  14.366
11239W        W76400   1.851  40.325   2.722
11240W        W76401  26.761  37.508  13.444
11241W        W76402   1.180  40.931   0.927
11242W        W76403  18.166  16.335   0.267
11243W        W76404  21.863  23.306  13.180
11244W        W76405   0.921  30.012  10.403
11245W        W76406  32.911  18.180   0.420
11246W        W76407   8.721  23.606   2.872
11247W        W76408  38.043  18.533   1.706
11248W        W76409   7.177   1.285   3.958
11249W        W76410   2.493   6.054  12.753
11250W        W76411   1.797  12.132  11.565
11251W        W76412  11.896  14.353   2.811
11252W        W76413  39.680  30.697   3.764
11253W        W76414   4.826   2.477  14.034
11254W        W76415  12.208  42.003   3.984
11255W        W76416  18.776   0.965  14.822
11256W        W76417  17.492  19.075  12.783
11257W        W76418  35.056  18.792  11.394
11258W        W76419   2.015  35.051   4.607
11259W        W76420  24.767  27.691  14.016
11260W        W76421  39.927  29.072   3.054
11261W        W76422   0.708  33.820   4.204
11262W        W76423  17.025  29.144   3.786
11263W        W76424   8.995  19.096  13.544
11264W        W76425  39.073   8.159  12.098
11265W        W76426  37.370  33.442   3.220
11266W        W76427  19.429   3.865  12.379
11267W        W76428  21.587   0.055   3.767
11268W        W76429  32.654  21.107   1.291
11269W        W76430  40.309  32.521  11.567
11270W        W76431  40.431  38.429  13.451
11271W        W76432   7.363  30.597  11.927
11272W        W76433  42.000  26.203  12.101
11273W        W76434  31.482  38.484  10.721
11274W        W76435  41.680  18.478   0.461
11275W        W76436   4.576  42.706   4.493
11276W        W76437  18.084  37.188   1.069
11277W        W76438  44.259   7.105  12.923
11278W        W76439  27.965  26.697   2.665
11279W        W76440   6.848  25.536   5.087
11280W        W76441  27.004  13.847  10.745
11281W        W76442  12.601  25.967  12.505
11282W        W76443  38.382  26.157  10.661
11283W        W76444  23.080  37.898   3.318
11284W        W76445  44.891  21.631  10.811
11285W        W76446  23.764   6.510  11.079
11286W        W76447  28.908  28.819   4.059
11287W        W76448  36.353  32.680   2.261
11288W        W76449  15.121   2.986  12.707
11289W        W76450  34.891  28.549  13.360
11290W        W76451  29.994  10.349  11.670
11291W        W76452  38.524   1.587  14.227
11292W        W76453  42.996   5.183  10.657
11293W        W76454   9.173  11.089   2.814
11294W        W76455  39.814  23.820   2.394
11295W        W76456   9.868   0.159  13.219
11296W        W76457  31.479   0.763  14.510
11297W        W76458  20.037  33.015   2.307
11298W        W76459   5.237  40.570   4.200
11299W        W76460  32.033  21.126   2.268
11300W        W76461  29.230   3.222  11.189
11301W        W76462  13.415  10.197   3.218
11302W        W76463   3.980  25.806   2.504
11303W        W76464  35.334  30.494   4.248
11304W        W76465  31.778  19.901  13.623
11305W        W76466  32.901  18.801  10.765
11306W        W76467  28.636   0.250   2.356
11307W        W76468  34.914  12.326   5.146
11308W        W76469  43.054  42.427  12.552
11309W        W76470  16.007  22.755   3.654
11310W        W76471   5.470  28.512   1.322
11311W        W76472  21.424  41.505  12.101
11312W        W76473  17.093   2.737   0.911
11313W        W76474  38.922  34.530   0.105
11314W        W76475  44.719  24.347  14.975
11315W        W76476   3.866  21.814   0.922
11316W        W76477  10.947  29.459   4.883
11317W        W76478  17.255  24.380   2.524
11318W        W76479   1.949  21.119  12.349
11319W        W76480  21.195  14.340   2.242
11320W        W76481  39.434   0.568  14.027
11321W        W76482  28.199  27.421  14.900
11322W        W76483  35.309  11.588  14.969
11323W        W76484   6.938  40.349   3.193
11324W        W76485  18.913  43.090  12.113
11325W        W76486   3.707  36.596   3.314
11326W        W76487  35.576  25.415  12.747
11327W        W76488  12.034  21.276  13.524
11328W        W76489  37.118  16.730  14.318
11329W        W76490  12.479  23.557  11.647
11330W        W76491  27.768  26.182  13.083
11331W        W76492   1.332  14.866  10.250
11332W        W76493  37.539  22.953   0.234
11333W        W76494  10.379  16.537   0.431
11334W        W76495  14.194  19.712   4.774
11335W        W76496  19.274  39.589  12.643
11336W        W76497   3.322  14.145  10.647
11337W        W76498  22.547  28.145  10.025
11338W        W76499  22.644  17.061   3.415
11339W        W76500  26.244   5.714   4.135
11340W        W76501  27.603  39.545   1.418
11341W        W76502  22.324  13.246  11.502
11342W        W76503   4.272  14.424   1.327
11343W        W76504  32.217  22.038  12.438
11344W        W76505  28.307  41.815   5.169
11345W        W76506  26.719  10.074  13.873
11346W        W76507  39.427  16.158  14.325
11347W        W76508   4.687   8.415   4.096
11348W        W76509  24.789  29.375  11.708
11349W        W76510  36.415   1.787  13.150
11350W        W76511  19.303  42.430   0.045
11351W        W76512  12.575  40.015  12.399
11352W        W76513  26.600  14.722   2.797
11353W        W76514  43.855  19.585  13.050
11354W        W76515  39.721   8.285  13.564
11355W        W76516  29.664   4.857  10.682
11356W        W76517  14.081  10.288   0.469
11357W        W76518  39.734  31.610   1.899
11358W        W76519  37.314  19.000  12.477
11359W        W76520  15.845  34.360  13.791
11360W        W76521   7.650  24.051   2.733
11361W        W76522  44.362  26.726  10.343
11362W        W76523  21.961  14.706   3.580
11363W        W76524  38.139  15.439   4.193
11364W        W76525  18.278  12.801  11.191
11365W        W76526  34.973  36.511   0.667
11366W        W76527  38.037  13.999   1.140
11367W        W76528  26.510  37.129   2.645
11368W        W76529  18.247  24.752   3.607
11369W        W76530   2.163   0.524  11.185
11370W        W76531  30.006   8.336   2.675
11371W        W76532  30.128  19.271  14.833
11372W        W76533  37.075   2.160  10.732
11373W        W76534  33.404  14.327   0.521
11374W        W76535  21.188  18.758   0.875
11375W        W76536  19.575  44.855   2.861
11376W        W76537  44.624   9.239   1.740
11377W        W76538   9.843  37.995  14.926
11378W        W76539   4.378  24.635   4.137
11379W        W76540  34.530   4.031  11.185
11380W        W76541   5.756   0.310   0.378
11381W        W76542  43.861  16.340  11.976
11382W        W76543  31.962  12.321  11.502
11383W        W76544  42.542  19.480   4.550
11384W        W76545  12.690  40.501   1.907
11385W        W76546  31.893  38.135  10.602
11386W        W76547  30.167  23.233   1.855
11387W        W76548   6.728  27.035  11.958
11388W        W76549   9.748  11.980   2.188
11389W        W76550  24.159   9.815  14.062
11390W        W76551  43.425  39.355  13.822
11391W        W76552  39.809  43.614   2.817
11392W        W76553  19.910  11.350  13.042
11393W        W76554  25.666   2.646  12.818
11394W        W76555  40.492  18.787   5.049
11395W        W76556  19.679  44.109  10.637
11396W        W76557  28.653  18.575  14.223
11397W        W76558  28.863  44.650  11.649
11398W        W76559   7.379  18.182   4.168
11399W        W76560  14.791  16.433   1.478
11400W        W76561  10.228  16.640  14.909
11401W        W76562  20.460  32.130   2.798
11402W        W76563  37.865  22.445  11.064
11403W        W76564  34.046   7.905   3.607
11404W        W76565   3.761  14.290  12.539
11405W        W76566  21.226  19.109   2.207
11406W        W76567  10.747  29.491  11.643
11407W        W76568  44.836  29.352   2.201
11408W        W76569  29.645  42.009   3.983
11409W        W76570   1.944  16.089   3.528
11410W        W76571  16.102  15.412   4.642
11411W        W76572  38.057  17.064  11.057
11412W        W76573  37.927  28.802   4.162
11413W        W76574  22.263  20.553   0.338
11414W        W76575  42.041   4.708  10.786
11415W        W76576   1.182  36.245  12.999
11416W        W76577  23.976  12.016   3.198
11417W        W76578   1.637  30.023  13.032
11418W        W76579  10.050  18.000  13.355
11419W        W76580   0.948  10.123  10.195
11420W        W76581   3.948  28.400  12.010
11421W        W76582  37.332  23.622   3.276
11422W        W76583  12.665  39.870  14.440
11423W        W76584  19.705  13.299  10.284
11424W        W76585  40.873  44.472   4.231
11425W        W76586  39.940  20.687  12.021
11426W        W76587  18.737  34.011   4.247
11427W        W76588  24.071  26.750   4.128
11428W        W76589  27.375  44.427   0.340
11429W        W76590   8.017  26.120  12.185
11430W        W76591  36.122  19.411  13.306
11431W        W76592  14.854  16.682  14.329
11432W        W76593   3.837  28.870  11.055
11433W        W76594  43.268  14.544   4.390
11434W        W76595   1.641  27.191   1.675
11435W        W76596  40.657  25.973  11.450
11436W        W76597   6.930  36.787  13.495
11437W        W76598  24.519  37.162   4.117
11438W        W76599   1.448  42.244   0.264
11439W        W76600   2.953  23.317   3.241
11440W        W76601  27.645   4.170   3.545
11441W        W76602  41.046  29.542  12.906
11442W        W76603  20.050   1.745  13.012
11443W        W76604   8.237  36.574  11.287
11444W        W76605  33.397  11.399  11.317
11445W        W76606  33.364   1.707   2.643
11446W        W76607  28.428  43.760   4.944
11447W        W76608   8.252   4.315  13.482
11448W        W76609  10.597  42.841  10.249
11449W        W76610  34.582  37.362   1.917
11450W        W76611  32.947   5.964   1.235
11451W        W76612   6.199  21.252   2.325
11452W        W76613  28.655  18.633   1.167
11453W        W76614  38.173  28.923  14.344
11454W        W76615  31.608  35.785   3.313
11455W        W76616  33.576  25.550  12.835
11456W        W76617  30.892  14.742  13.841
11457W        W76618  33.447  25.943   1.783
11458W        W76619  23.605   2.820   4.358
11459W        W76620  25.694  23.255   2.252
11460W        W76621  17.967  17.144   5.752
11461W        W76622  25.303  21.306   3.988
11462W        W76623  25.540  40.224   3.722
11463W        W76624  24.091  19.730   0.926
11464W        W76625   4.989  43.420   2.349
11465W        W76626  40.479  32.675   0.490
11466W        W76627  21.067  39.877   4.132
11467W        W76628  26.905  42.336  14.842
11468W        W76629   7.338  38.431  14.023
11469W        W76630   7.024  14.858   0.204
11470W        W76631  24.926  31.977   3.325
11471W        W76632  24.035   7.102  11.759
11472W        W76633  40.979  40.942   4.150
11473W        W76634  34.493   5.375   2.344
11474W        W76635  15.372   5.329   4.540
11475W        W76636  37.092  43.934  11.482
11476W        W76637  11.908  19.280   3.284
11477W        W76638  28.179  38.434  11.955
11478W        W76639  27.995  20.008  11.575
11479W        W76640  14.234  14.148   2.970
11480W        W76641  33.532  15.746   4.132
11481W        W76642  13.567   7.023  11.129
11482W        W76643   3.892  18.059   0.117
11483W        W76644   7.790  28.006   3.686
11484W        W76645  36.437  40.477   0.055
11485W        W76646  16.487  30.131   2.431
11486W        W76647  22.120  20.191  11.853
11487W        W76648  21.236  10.261  14.601
11488W        W76649  28.086  30.620   0.876
11489W        W76650  29.662  16.849  14.433
11490W        W76651  44.379  17.467   0.325
11491W        W76652  13.081   5.477   1.599
11492W        W76653   5.896  43.735   4.048
11493W        W76654   8.344   2.690   3.351
11494W        W76655  30.971  34.925  14.835
11495W        W76656  19.153  32.653   0.490
11496W        W76657  28.884  44.299   2.934
11497W        W76658  34.492  37.921  10.738
11498W        W76659  44.825   6.695   4.829
11499W        W76660  39.507  15.669   0.774
11500W        W76661   9.757   8.334   4.658
11501W        W76662  42.001  22.276   0.855
11502W        W76663  38.995  15.242   2.730
11503W        W76664  17.700  34.633   0.233
11504W        W76665  20.474  43.866   2.338
11505W        W76666  27.815  12.670  11.602
11506W        W76667  15.869  32.487  12.433
11507W        W76668  31.413  17.775  12.620
11508W        W76669  35.474   7.623  12.454
11509W        W76670  37.809  32.181   3.611
11510W        W76671  28.706  40.512   0.253
11511W        W76672  36.793   8.757   3.663
11512W        W76673  28.557  26.193  10.294
11513W        W76674  14.180   7.679  11.664
11514W        W76675  21.473  29.041   2.696
11515W        W76676  44.898  28.871  13.728
11516W        W76677  28.558   4.979   0.863
11517W        W76678   1.095  42.038  13.818
11518W        W76679   9.620   2.882   2.687
11519W        W76680  33.578  24.261   1.387
11520W        W76681  11.807  31.645  13.846
11521W        W76682  38.064  29.012  11.587
11522W        W76683  25.538  28.098   0.671
11523W        W76684  11.708   9.829  11.432
11524W        W76685  30.142  29.417  14.373
11525W        W76686  20.755  24.961   3.290
11526W        W76687   9.462  17.193  13.909
11527W        W76688  31.448  34.042  13.160
11528W        W76689  23.195  12.907   1.734
11529W        W76690   0.894  22.633  14.896
11530W        W76691  39.239  16.217  13.835
11531W        W76692  26.915  21.529   9.913
11532W        W76693  23.229   2.909   0.080
11533W        W76694  18.126  43.875   1.863
11534W        W76695  44.446  12.090  11.595
11535W        W76696  11.776  42.559   2.276
11536W        W76697  10.840  23.291   4.729
11537W        W76698  22.667  41.065  13.017
11538W        W76699  18.432  36.434   0.449
11539W        W76700  40.533  43.237   3.718
11540W        W76701   1.933  20.207   2.140
11541W        W76702  39.868  25.883   1.656
11542W        W76703   7.176  15.611   4.645
11543W        W76704  23.111  19.771  11.044
11544W        W76705  26.996  19.625  14.019
11545W        W76706  39.271   5.448  13.031
11546W        W76707   3.340  19.472  10.761
11547W        W76708  12.096  10.930  12.765
11548W        W76709  33.639   3.344  13.462
11549W        W76710  21.986  26.619  13.911
11550W        W76711  13.111   8.704   3.100
11551W        W76712  10.312  21.157   1.965
11552W        W76713  34.122   4.882  10.705
11553W        W76714  12.290   9.387  14.471
11554W        W76715  17.207  37.270  14.056
11555W        W76716  17.844   8.960  13.047
11556W        W76717  27.142   6.393   1.517
11557W        W76718  19.265   2.711  12.950
11558W        W76719  22.956  43.420   1.340
11559W        W76720  17.044  31.613   0.868
11560W        W76721  30.214   4.772   1.044
11561W        W76722  19.870   4.226   1.771
11562W        W76723  21.602  12.122  13.070
11563W        W76724   9.186  42.220   3.871
11564W        W76725  30.696  23.386  10.722
11565W        W76726  12.976  11.600  11.093
11566W        W76727  22.408  29.353  12.747
11567W        W76728  16.159  44.848   4.032
11568W        W76729   9.250  28.112   0.673
11569W        W76730  11.685  38.095   3.440
11570W        W76731  12.489  14.790  12.732
11571W        W76732   6.834  15.314   2.685
11572W        W76733  23.030  38.405  14.277
11573W        W76734  24.181  25.488  12.075
11574W        W76735  18.400  32.554  13.901
11575W        W76736   2.168  22.975   3.918
11576W        W76737  17.602   8.465   0.898
11577W        W76738  29.796  22.231   2.681
11578W        W76739   8.236  24.537   3.778
11579W        W76740  40.721   4.965  11.934
11580W        W76741  12.080  25.300  11.397
11581W        W76742  14.203  28.461   1.844
11582W        W76743  42.784  41.949   0.673
11583W        W76744  39.005  13.298   1.514
11584W        W76745  28.112  42.293  10.776
11585W        W76746   0.561  34.917   2.945
11586W        W76747  10.343   1.875  11.090
11587W        W76748  40.934  39.517   0.711
11588W        W76749  24.019   6.327   0.579
11589W        W76750  14.571  25.106  12.053
11590W        W76751  32.698  16.555   1.346
11591W        W76752  41.415  17.674  11.950
11592W        W76753   6.875   1.272  13.833
11593W        W76754  42.892  32.562   4.862
11594W        W76755  18.152  14.572  13.040
11595W        W76756   1.516  19.315  14.955
11596W        W76757  17.052  13.254   4.517
11597W        W76758  31.986  19.623   2.750
11598W        W76759  14.209   7.198   3.615
11599W        W76760  13.898  12.183   1.700
11600W        W76761   2.008  37.444   2.761
11601W        W76762  26.387  28.137   4.710
11602W        W76763  28.733  18.216   3.634
11603W        W76764  38.526  27.177   2.209
11604W        W76765  29.190   1.983   3.228
11605W        W76766  32.892  31.839  11.554
11606W        W76767   0.736  18.046  10.666
11607W        W76768   3.653  24.242  14.475
11608W        W76769  11.770  17.128   3.144
11609W        W76770   3.648  25.325  10.747
11610W        W76771  36.120  27.971  12.898
11611W        W76772  28.349  19.529   0.832
11612W        W76773  38.558   5.059   0.451
11613W        W76774   6.835  15.675   1.295
11614W        W76775  44.477  34.006   3.431
11615W        W76776  32.297  30.420  13.363
11616W        W76777  28.567  34.171   1.811
11617W        W76778   8.864  34.423   1.637
11618W        W76779   8.624  32.382  10.807
11619W        W76780   6.489  34.016   3.208
11620W        W76781  32.125  32.383  11.652
11621W        W76782   7.860  23.602   3.695
11622W        W76783  41.858  18.126  13.436
11623W        W76784  27.266  25.456  10.726
11624W        W76785  37.728  15.162  14.340
11625W        W76786  20.035  27.957  11.555
11626W        W76787  21.361   6.481   5.024
11627W        W76788  36.194  44.741   1.485
11628W        W76789  36.590   7.327   3.668
11629W        W76790   7.264  39.607  10.606
11630W        W76791  23.661  19.548  14.090
11631W        W76792  18.975   9.353   1.467
11632W        W76793  12.209  20.724   1.241
11633W        W76794   7.708  42.534  13.027
11634W        W76795  41.784  19.998   0.901
11635W        W76796   0.391  39.557  10.467
11636W        W76797  34.131   4.730   4.552
11637W        W76798  12.476  13.495   0.752
11638W        W76799  44.173  16.408   4.650
11639W        W76800  28.658  26.593  11.053
11640W        W76801  14.234   3.018   4.775
11641W        W76802  43.762  13.827  11.031
11642W        W76803  33.422  36.066   0.784
11643W        W76804  25.638  22.144   3.557
11644W        W76805  28.667  42.380  14.472
11645W        W76806  32.618  39.291  14.359
11646W        W76807  27.525  36.479   2.728
11647W        W76808  37.265   2.304  13.524
11648W        W76809  34.507  33.746   3.216
11649W        W76810   3.859  11.806  11.498
11650W        W76811  39.895  12.248  13.487
11651W        W76812  32.779  31.903   3.745
11652W        W76813  23.774  25.450  14.475
11653W        W76814  41.555  28.034   2.601
11654W        W76815   4.669  27.165  13.937
11655W        W76816  33.640  40.445   4.000
11656W        W76817  25.525  44.663   3.558
11657W        W76818  16.199  14.851   4.588
11658W        W76819  37.597   9.561  11.588
11659W        W76820  23.630   8.683   4.989
11660W        W76821  41.646  16.629  13.120
11661W        W76822  10.426  16.834   4.482
11662W        W76823  13.530  25.275  11.814
11663W        W76824   8.369  25.451  14.806
11664W        W76825  44.586  22.330   0.474
11665W        W76826  11.782  18.459   4.176
11666W        W76827  24.952  31.551  12.149
11667W        W76828  36.794  42.298   3.668
11668W        W76829  42.982  42.436  13.500
11669W        W76830  23.719  43.355  13.698
11670W        W76831   3.648  38.868  14.591
11671W        W76832  20.329  13.170  12.063
11672W        W76833  34.868  15.578  10.010
11673W        W76834  33.169  10.783   4.303
11674W        W76835   0.577  33.396  10.954
11675W        W76836  16.257  38.235   4.337
11676W        W76837  17.313  26.202   2.361
11677W        W76838  25.940   7.881   4.821
11678W        W76839   4.758  13.270   3.034
11679W        W76840   0.726  27.648   2.344
11680W        W76841  31.713  19.528  14.448
11681W        W76842  42.581  38.872   0.756
11682W        W76843  19.140  41.563  12.619
11683W        W76844   1.098  15.415   2.419
11684W        W76845  19.872  25.657  13.397
11685W        W76846  23.756  27.571   4.351
11686W        W76847  38.092  27.921   0.342
11687W        W76848   8.695  10.105  12.813
11688W        W76849   5.835  14.081   0.705
11689W        W76850  30.401  25.927  12.495
11690W        W76851  23.249  23.976   4.966
11691W        W76852   8.442  37.447   4.619
11692W        W76853  36.815  34.079  13.645
11693W        W76854   1.496  33.202   4.549
11694W        W76855  42.843  38.786  14.213
11695W        W76856  31.230  24.190  10.670
11696W        W76857  17.766  21.713   4.304
11697W        W76858  15.793  17.523   3.029
11698W        W76859  21.791   4.210   0.166
11699W        W76860  23.569  42.892  13.365
11700W        W76861  14.936  40.217   0.341
11701W        W76862   8.405  13.720   3.723
11702W        W76863  12.622  37.529   4.086
11703W        W76864  28.405   0.758  13.549
11704W        W76865  36.067   3.341  12.624
11705W        W76866  27.738   6.924   4.692
11706W        W76867   9.319  11.166  13.563
11707W        W76868  38.610  24.650  13.893
11708W        W76869  40.036  15.058   1.798
11709W        W76870  34.860  30.130   4.653
11710W        W76871  39.485  21.945   0.266
11711W        W76872   1.519  11.275  13.167
11712W        W76873  21.387  14.061  12.056
11713W        W76874   4.626  27.196   2.935
11714W        W76875   7.512   5.095   4.881
11715W        W76876  40.430  14.666  10.712
11716W        W76877  18.203   2.699   2.295
11717W        W76878  17.563  26.990  12.255
11718W        W76879  28.053  38.286   9.988
11719W        W76880  28.346  13.648  10.790
11720W        W76881  15.100  12.347   3.315
11721W        W76882  15.471  39.430  12.218
11722W        W76883  40.994  38.047   0.484
11723W        W76884  13.154  19.104   2.702
11724W        W76885  43.919  43.618   3.460
11725W        W76886  10.780  14.806   1.703
11726W        W76887  31.484  39.276  13.972
11727W        W76888  38.596   6.222   0.152
11728W        W76889  33.046  32.768   2.501
11729W        W76890  13.174  13.269   2.788
11730W        W76891  21.184  40.034   5.112
11731W        W76892  39.028  25.579  10.892
11732W        W76893  38.990  30.113   4.825
11733W        W76894  26.459   9.151  12.875
11734W        W76895  17.615   5.670   2.617
11735W        W76896  15.089  34.803   2.040
11736W        W76897  17.571  12.413   0.167
11737W        W76898   4.778  24.048   3.597
11738W        W76899  31.930   4.542  11.038
11739W        W76900  35.888  33.400  14.511
11740W        W76901  29.597  31.172  11.060
11741W        W76902   4.458  19.243   0.217
11742W        W76903  14.138  35.970   3.148
11743W        W76904  39.117  15.040  12.597
11744W        W76905   2.431   6.456   0.862
11745W        W76906  20.513  18.572   4.316
11746W        W76907  35.105  26.645   0.711
11747W        W76908  14.872   9.662   0.288
11748W        W76909  25.068  28.999  12.577
11749W        W76910  25.194  40.150   4.549
11750W        W76911  43.785  27.431  11.700
11751W        W76912  15.579  19.251  13.964
11752W        W76913  11.989  11.978  11.217
11753W        W76914  42.617   4.417   4.114
11754W        W76915  33.112  35.069  12.535
11755W        W76916  20.818   5.212   0.018
11756W        W76917  15.717   0.069   4.152
11757W        W76918   6.658  12.639  10.773
11758W        W76919  39.170  30.871   3.725
11759W        W76920  26.222  21.180   0.333
11760W        W76921  20.651   7.631   2.219
11761W        W76922  34.868   6.719   2.344
11762W        W76923   1.788   6.893   4.136
11763W        W76924  44.059  44.763  14.454
11764W        W76925  33.342  21.038   1.761
11765W        W76926  31.595  10.355   2.307
11766W        W76927  44.689  37.199   1.849
11767W        W76928  25.504  18.957  12.195
11768W        W76929  11.262  39.749  14.479
11769W        W76930  26.088  17.004  12.960
11770W        W76931  13.453  29.669  13.957
11771W        W76932  11.774  42.513   3.160
11772W        W76933  40.858   6.934  13.782
11773W        W76934  10.806  27.911  10.314
11774W        W76935  38.685  33.524   4.833
11775W        W76936  44.725  27.488  10.591
11776W        W76937   8.692  42.222   1.521
11777W        W76938  34.156  10.275   4.434
11778W        W76939   2.360  30.700  10.691
11779W        W76940  38.925  39.916  11.595
11780W        W76941  18.194   0.991   4.710
11781W        W76942   5.245  18.227   0.886
11782W        W76943  31.707  35.284   1.494
11783W        W76944   9.233  27.893   5.563
11784W        W76945  16.859  43.142   2.273
11785W        W76946  35.037  33.097   2.230
11786W        W76947   0.274  44.159  10.732
11787W        W76948  44.472  35.845  10.734
11788W        W76949  36.395  36.688   5.031
11789W        W76950  14.687  39.576   3.293
11790W        W76951   0.620  16.301  10.305
11791W        W76952  28.098  37.320  13.440
11792W        W76953  28.681  24.566   4.476
11793W        W76954  31.651   0.888  12.770
11794W        W76955   1.908  42.913  14.682
11795W        W76956  34.907  13.318  10.690
11796W        W76957  28.851   6.880  13.197
11797W        W76958  25.627  18.985  14.855
11798W        W76959   7.865   1.529   2.782
11799W        W76960  38.290   9.222  14.931
11800W        W76961  25.577   6.811  10.937
11801W        W76962  12.098  36.531  11.391
11802W        W76963  12.314  15.065   1.799
11803W        W76964   1.361  20.341  14.922
11804W        W76965  37.393  21.676  12.909
11805W        W76966  26.075   9.413  14.886
11806W        W76967   3.782   4.186   2.368
11807W        W76968  37.848  14.113   4.284
11808W        W76969   2.226  39.549   4.460
11809W        W76970  18.348   3.991  14.816
11810W        W76971   0.209  12.650  13.206
11811W        W76972  13.914  21.949   3.748
11812W        W76973  39.950   6.175   1.555
11813W        W76974  21.700  26.938  14.220
11814W        W76975  19.538   5.859  11.598
11815W        W76976  12.973  10.739   0.887
11816W        W76977  27.720   5.196  11.872
11817W        W76978   4.826  14.138  14.941
11818W        W76979  19.780  18.633   0.232
11819W        W76980  36.367  43.764   1.451
11820W        W76981  35.419   6.797  11.744
11821W        W76982  44.372  40.795   0.933
11822W        W76983  18.033  23.740  11.748
11823W        W76984  32.974  22.643  10.254
11824W        W76985   2.255   1.263   4.855
11825W        W76986   6.842  21.465  11.960
11826W        W76987  23.692  16.146   3.176
11827W        W76988  12.942  30.928   1.911
11828W        W76989  44.422  29.645  13.755
11829W        W76990  13.807  27.703   4.501
11830W        W76991  35.449  33.053  14.506
11831W        W76992  31.520  27.608  14.573
11832W        W76993  43.962  41.254   4.155
11833W        W76994   1.244  29.626   4.275
11834W        W76995  39.840  21.526  10.655
11835W        W76996  40.152  13.261  14.142
11836W        W76997  27.236  18.756  14.586
11837W        W76998  17.028   1.196   1.805
11838W        W76999  43.449  10.165  12.847
11839W        W77000  17.030  34.417  10.561
11840W        W77001   9.112  11.605  13.761
11841W        W77002  20.770  44.018  12.522
11842W        W77003  34.566  16.630   4.287
11843W        W77004  22.693  33.450   1.293
11844W        W77005   7.084  33.551  11.554
11845W        W77006  39.502  38.043  10.886
11846W        W77007  31.331   2.011  12.605
11847W        W77008  22.218  12.762   0.556
11848W        W77009  38.023  29.989   0.198
11849W        W77010  37.876  26.710   2.703
11850W        W77011   7.118  23.685  13.936
11851W        W77012   5.075  36.493  13.342
11852W        W77013   0.832  17.181   1.713
11853W        W77014  31.369  15.262  13.045
11854W        W77015   6.334  15.826   1.361
11855W        W77016  44.456  39.389   3.187
11856W        W77017   2.845  35.554  10.219
11857W        W77018   9.681  32.007  12.604
11858W        W77019   7.411  27.879  14.417
11859W        W77020  35.993   9.579  14.307
11860W        W77021  12.882  29.876  12.608
11861W        W77022   7.236  38.349   0.275
11862W        W77023  36.914  14.256  11.045
11863W        W77024  39.244  32.955   0.247
11864W        W77025  36.202  19.560   4.439
11865W        W77026  14.141  18.769  10.350
11866W        W77027  35.208  23.039  11.704
11867W        W77028  42.427  15.783   0.794
11868W        W77029   5.301  23.174   1.968
11869W        W77030  11.878  37.451  10.610
11870W        W77031  35.964  23.183   3.071
11871W        W77032   0.246  29.206   1.349
11872W        W77033  11.964  35.844   1.823
11873W        W77034   5.451  22.175  13.966
11874W        W77035   8.583  33.486   4.550
11875W        W77036  30.067  17.761  10.519
11876W        W77037  10.925  44.929   4.221
11877W        W77038  32.647  30.489  11.602
11878W        W77039   3.818  15.006   1.952
11879W        W77040  28.248  35.700   0.756
11880W        W77041  38.850  37.930   2.271
11881W        W77042  36.035  16.508   3.210
11882W        W77043  26.816   3.476  13.776
11883W        W77044  42.337  41.200   0.353
11884W        W77045  11.136  11.148   0.266
11885W        W77046  32.316   5.823   0.745
11886W        W77047  31.964   3.540   4.993
11887W        W77048  35.484  12.034  13.970
11888W        W77049   2.772  40.014   3.196
11889W        W77050   5.882  40.951  10.741
11890W        W77051  22.671   6.004   0.397
11891W        W77052  11.477  12.556   3.284
11892W        W77053  41.634  28.526   2.914
11893W        W77054  40.882  37.487   3.232
11894W        W77055  15.451  21.980  12.480
11895W        W77056  38.949  22.013  11.571
11896W        W77057   5.034  13.748   4.327
11897W        W77058   4.193  38.118  12.408
11898W        W77059  32.686  27.180  11.690
11899W        W77060  30.348   9.222  13.925
11900W        W77061  42.879  31.658  14.427
11901W        W77062  29.285  44.372   3.864
11902W        W77063  20.201  42.844  12.649
11903W        W77064  21.147   9.054   0.178
11904W        W77065   1.026   4.675  13.297
11905W        W77066  10.860  30.473  13.507
11906W        W77067  13.080   5.238   3.858
11907W        W77068  15.264  19.995  12.964
11908W        W77069  16.856   6.983  11.173
11909W        W77070   4.222  13.533  13.796
11910W        W77071  21.957  12.154   3.733
11911W        W77072  16.188   1.927  12.930
11912W        W77073  21.078  13.947  13.673
11913W        W77074  28.655   8.731  14.139
11914W        W77075  29.950  20.989  12.835
11915W        W77076   5.137  11.252   3.836
11916W        W77077  36.458   6.843   4.574
11917W        W77078  30.707  31.694   0.027
11918W        W77079  14.748  41.296   1.940
11919W        W77080  22.132  18.692   0.524
11920W        W77081  35.425   8.713  14.914
11921W        W77082  22.934  28.568   4.708
11922W        W77083  12.236   4.855   1.398
11923W        W77084  21.282  10.217   3.195
11924W        W77085  33.574  18.612   1.516
11925W        W77086  30.476  10.606  11.543
11926W        W77087  38.396  15.631  10.652
11927W        W77088  18.439  17.725   0.649
11928W        W77089   3.846  36.935   0.027
11929W        W77090   4.790  38.350  13.153
11930W        W77091  43.520  41.498  11.136
11931W        W77092   0.240  44.922   4.011
11932W        W77093  27.591  35.849  12.954
11933W        W77094  31.020  31.904   3.639
11934W        W77095  22.671  16.830   0.512
11935W        W77096  36.240  34.629   2.220
11936W        W77097   9.067  23.835  10.346
11937W        W77098  14.351  44.613  11.074
11938W        W77099  17.146  36.370   1.476
11939W        W77100  13.822  33.121  12.567
11940W        W77101  27.477   5.416   1.196
11941W        W77102  29.060  35.303   1.242
11942W        W77103   9.975  26.743   2.617
11943W        W77104  10.888  43.494  12.905
11944W        W77105  38.428  39.597  12.470
11945W        W77106  12.793  33.048  12.462
11946W        W77107  44.998   2.160   1.079
11947W        W77108  18.694   9.724  12.382
11948W        W77109  43.529  40.347   2.840
11949W        W77110  28.238  16.378   3.699
11950W        W77111  10.768  42.973   4.519
11951W        W77112  28.706  40.703   2.182
11952W        W77113  17.149  35.577  11.139
11953W        W77114  21.665  19.683  12.336
11954W        W77115  42.006  34.339  10.675
11955W        W77116   8.097  20.069   1.293
11956W        W77117  33.642  10.794  12.971
11957W        W77118  25.047   5.441   0.814
11958W        W77119  36.965   3.987   2.201
11959W        W77120  37.901  12.875   2.637
11960W        W77121  43.218  39.517  12.559
11961W        W77122   7.692  29.690  10.609
11962W        W77123   1.086  20.540  13.866
11963W        W77124   9.156  18.864   2.681
11964W        W77125   1.794  14.556  13.605
11965W        W77126  20.183  31.889   1.514
11966W        W77127  23.692  43.444  15.000
11967W        W77128  26.145  43.062   5.132
11968W        W77129  15.449  13.634  12.857
11969W        W77130  17.583  29.698   0.270
11970W        W77131  20.383  15.603  13.984
11971W        W77132  33.124  16.509  10.796
11972W        W77133  31.512  31.887   3.330
11973W        W77134  17.195  41.934  13.081
11974W        W77135  17.365  23.249   0.032
11975W        W77136   2.998   0.863  13.508
11976W        W77137  17.016  17.845   3.176
11977W        W77138  20.563  29.605  14.433
11978W        W77139   0.985  37.840  12.311
11979W        W77140  42.784  31.171   3.275
11980W        W77141  25.576   5.823   2.464
11981W        W77142   0.288  31.291  12.928
11982W        W77143  16.087  32.373  11.639
11983W        W77144  25.205  22.220   1.048
11984W        W77145  27.029  32.556   4.374
11985W        W77146  18.135  25.227   3.823
11986W        W77147  42.193  32.460  13.956
11987W        W77148  18.212  29.934  10.870
11988W        W77149  21.446  20.684  13.871
11989W        W77150  13.652   6.969   0.456
11990W        W77151   5.388  39.474   1.195
11991W        W77152  19.367  30.728   3.369
11992W        W77153  27.133  39.072   0.814
11993W        W77154  29.151  22.126  13.617
11994W        W77155  29.609   6.603   2.285
11995W        W77156  31.601  30.431  11.010
11996W        W77157  33.374  40.397   1.298
11997W        W77158  12.138  24.836  10.517
11998W        W77159  35.420   2.625   2.343
11999W        W77160  41.113  36.108  10.684
12000W        W77161  34.643  35.640   1.682
12001W        W77162  19.648  30.619  12.874
12002W        W77163  28.448  14.125  10.604
12003W        W77164   6.211  19.706   0.338
12004W        W77165  18.613  35.945  14.956
12005W        W77166  27.534  38.877  14.981
12006W        W77167  29.385   4.407   1.117
12007W        W77168  18.899  31.485   0.265
12008W        W77169  21.767  41.192  13.031
12009W        W77170  25.013  27.541  14.646
12010W        W77171  31.847   6.175  14.908
12011W        W77172  22.535  21.003   0.350
12012W        W77173  38.297  36.003  11.389
12013W        W77174  22.980  32.992   0.243
12014W        W77175   9.909  12.628  14.428
12015W        W77176  40.577  40.218  13.641
12016W        W77177  25.989  28.517  13.733
12017W        W77178  14.777  13.265   1.620
12018W        W77179  39.704  44.074  14.606
12019W        W77180  21.089  13.245   3.060
12020W        W77181  18.658  19.575  12.480
12021W        W77182  32.448   3.937  11.602
12022W        W77183  26.060   4.855   0.662
12023W        W77184   3.446  38.986  14.130
12024W        W77185   6.309   9.762   0.828
12025W        W77186   3.333  37.520  13.355
12026W        W77187  26.793  19.579   2.051
12027W        W77188   1.953   3.524  11.108
12028W        W77189  42.055  24.072   4.655
12029W        W77190  10.647   5.573   3.514
12030W        W77191  29.219  29.127   2.316
12031W        W77192  21.355  30.656   0.876
12032W        W77193  23.054  14.268   1.013
12033W        W77194  34.568  41.083   4.181
12034W        W77195  41.026   2.567   3.663
12035W        W77196   0.818   5.178   3.823
12036W        W77197  12.167  29.983  14.318
12037W        W77198  23.049  25.554   2.008
12038W        W77199   8.944  40.413   4.743
12039W        W77200  16.395  13.417  13.228
12040W        W77201  19.506  36.654  13.085
12041W        W77202  37.462  28.451  12.408
12042W        W77203   7.921  26.279  13.355
12043W        W77204   9.351  23.499   0.298
12044W        W77205  11.734  18.808  10.784
12045W        W77206   8.331  32.500   3.658
12046W        W77207  20.698   0.450  11.417
12047W        W77208  24.224  43.346   3.789
12048W        W77209  16.824   7.178  14.311
12049W        W77210  10.452  44.435  12.930
12050W        W77211  25.639  42.994   1.284
12051W        W77212  27.107   4.918  11.708
12052W        W77213  44.577  44.380   1.965
12053W        W77214  22.003   1.846  13.047
12054W        W77215  42.546  19.546   2.234
12055W        W77216  42.583  12.491   0.292
12056W        W77217  12.567  21.098  12.924
12057W        W77218  39.331  42.122  12.482
12058W        W77219   7.191  22.548   1.919
12059W        W77220  11.357   3.130   4.963
12060W        W77221  31.505  32.450   4.224
12061W        W77222  12.775  44.395   1.110
12062W        W77223   3.073  44.943  12.457
12063W        W77224  44.253  26.705  12.363
12064W        W77225  23.544  37.316  10.733
12065W        W77226  24.519  37.241  10.247
12066W        W77227  21.245  16.850  13.813
12067W        W77228  12.503  23.120  14.216
12068W        W77229  43.468  38.265  10.689
12069W        W77230  25.986  37.785   3.330
12070W        W77231  12.753   2.436   1.495
12071W        W77232  21.991   1.095   2.577
12072W        W77233  27.551   6.178  12.151
12073W        W77234  14.643  25.129   4.523
12074W        W77235   3.008  41.931   1.834
12075W        W77236  25.230   8.874   3.085
12076W        W77237  37.621  43.721  12.335
12077W        W77238  23.862  39.752   1.581
12078W        W77239  25.067   6.124  12.045
12079W        W77240  10.614   4.174   3.667
12080W        W77241  38.975  17.259  12.938
12081W        W77242  32.102  32.008  12.047
12082W        W77243  27.131  24.272   0.833
12083W        W77244  35.132  32.641  13.421
12084W        W77245  26.946  28.648  13.463
12085W        W77246   5.811  14.479  11.169
12086W        W77247  15.853  42.041   4.272
12087W        W77248  33.377   0.462  12.895
12088W        W77249  13.045  20.217  10.656
12089W        W77250  26.535   9.179  14.312
12090W        W77251  20.692  10.371   1.932
12091W        W77252   3.190  11.448   0.924
12092W        W77253   0.889  24.115  14.275
12093W        W77254  16.936  20.008  11.575
12094W        W77255   6.743  23.108   1.426
12095W        W77256  30.066   0.955   4.446
12096W        W77257  38.388  41.920   4.216
12097W        W77258   4.367   4.757   1.812
12098W        W77259  25.281  39.896   0.409
12099W        W77260  43.260  22.938  10.014
12100W        W77261  18.989   7.276   3.201
12101W        W77262  37.481  21.907  13.375
12102W        W77263  30.584  14.575  12.875
12103W        W77264  40.415  20.834  10.720
12104W        W77265  20.581  25.727   2.019
12105W        W77266  17.255  29.246  13.077
12106W        W77267  16.263   5.631  12.859
12107W        W77268  31.031  18.698  11.556
12108W        W77269  14.083  25.120  14.026
12109W        W77270  22.593  12.412   0.326
12110W        W77271  11.349  39.867  11.302
12111W        W77272  42.722   9.619  13.042
12112W        W77273  42.789  33.982   1.062
12113W        W77274  10.637  22.690  13.037
12114W        W77275  44.976  23.265  12.893
12115W        W77276  16.036   2.233   5.065
12116W        W77277  33.049   3.180   4.762
12117W        W77278  33.527  15.830   0.536
12118W        W77279   4.109   4.711  12.602
12119W        W77280  15.667  25.488   4.061
12120W        W77281  11.701  34.703  10.183
12121W        W77282  18.815  19.837  13.937
12122W        W77283  30.878  20.257  14.419
12123W        W77284  15.247  23.272   0.996
12124W        W77285   6.078  17.560  12.139
12125W        W77286  16.739  37.321   5.272
12126W        W77287   1.473  11.155   1.601
12127W        W77288  28.985  37.921   1.381
12128W        W77289  10.950  44.255  11.519
12129W        W77290   7.152  21.995   0.007
12130W        W77291  20.069  16.517   2.701
12131W        W77292  41.751  41.372  11.494
12132W        W77293  33.148  15.221   3.491
12133W        W77294   4.998   2.850   2.593
12134W        W77295   1.963   0.145  12.584
12135W        W77296  31.561  34.253   3.698
12136W        W77297  27.525   2.978  10.760
12137W        W77298  14.805  13.323  10.388
12138W        W77299  36.492   9.178   4.117
12139W        W77300  36.976  22.049   2.641
12140W        W77301  14.606  24.771  14.781
12141W        W77302  42.292  38.546   1.403
12142W        W77303   8.112  21.329   0.794
12143W        W77304  16.841   3.814  14.014
12144W        W77305  42.406   0.357   3.598
12145W        W77306  34.569  21.513  10.567
12146W        W77307   3.078  16.202  13.933
12147W        W77308  10.133   3.127   1.284
12148W        W77309   3.262  14.226   0.407
12149W        W77310  15.425  18.529   1.877
12150W        W77311  43.341  42.969   3.298
12151W        W77312  42.967  28.014   2.254
12152W        W77313  18.404   1.625  14.415
12153W        W77314  30.557  11.312  13.048
12154W        W77315   1.877  27.585   1.395
12155W        W77316  10.371  13.739   9.763
12156W        W77317  29.071   8.285  14.850
12157W        W77318   8.678   3.508  11.472
12158W        W77319  11.895  25.038   1.862
12159W        W77320  34.722   4.379   1.511
12160W        W77321  28.215  28.749  13.896
12161W        W77322  23.967   6.309  13.891
12162W        W77323  39.602  10.181   5.054
12163W        W77324  10.072  31.165   4.094
12164W        W77325  31.066  25.527   3.152
12165W        W77326  29.194   9.752   2.689
12166W        W77327  20.996  43.832   2.403
12167W        W77328  40.976  18.665   3.286
12168W        W77329  36.081   8.205  10.686
12169W        W77330  43.433  31.111  12.230
12170W        W77331  41.984  34.196   4.795
12171W        W77332  36.613  17.512   4.519
12172W        W77333  13.885  32.482   0.371
12173W        W77334   3.697  42.411  12.581
12174W        W77335  24.479  35.436   0.863
12175W        W77336  11.803  37.016   4.088
12176W        W77337  37.363   9.995   1.827
12177W        W77338  10.713   8.502  10.372
12178W        W77339  31.557   8.399   3.921
12179W        W77340  31.189  27.358   3.579
12180W        W77341   9.917  35.317  11.911
12181W        W77342  19.988  42.291  13.330
12182W        W77343   7.852  21.490  10.608
12183W        W77344  44.244  37.808  10.421
12184W        W77345   3.748  37.098  10.856
12185W        W77346  35.950  25.043  13.794
12186W        W77347  40.286  43.367   4.196
12187W        W77348  27.771  43.585  11.548
12188W        W77349  40.314  17.004  13.333
12189W        W77350   4.416  19.348   2.845
12190W        W77351  40.506  16.392   1.530
12191W        W77352  44.147  41.261   1.888
12192W        W77353  44.613  41.741   4.161
12193W        W77354  34.344  14.693  11.459
12194W        W77355  15.541  36.913  10.610
12195W        W77356  36.025  20.266   1.915
12196W        W77357  37.071  15.376  12.470
12197W        W77358  23.577   5.676   0.288
12198W        W77359  37.001  39.883  13.384
12199W        W77360   7.280  31.672   4.245
12200W        W77361  25.453  32.932   2.281
12201W        W77362  38.546  38.548   3.280
12202W        W77363  13.679   1.487  13.357
12203W        W77364  22.081  29.176   0.477
12204W        W77365  25.537   7.511  12.981
12205W        W77366  40.534  28.024   2.253
12206W        W77367  37.921  32.392  13.098
12207W        W77368  44.406  19.782   4.177
12208W        W77369  36.373   2.765   3.250
12209W        W77370  12.643  10.191  14.477
12210W        W77371  29.317  33.105  14.369
12211W        W77372  25.610  15.786  11.128
12212W        W77373   7.431  33.027   4.840
12213W        W77374  30.549  26.012   1.670
12214W        W77375   3.403   0.778   3.247
12215W        W77376  26.143  15.455   2.521
12216W        W77377  36.909   0.802  11.932
12217W        W77378  14.875  29.456   1.890
12218W        W77379  16.093  35.375   1.433
12219W        W77380  40.875   5.294  12.910
12220W        W77381  13.846  39.855  13.760
12221W        W77382  13.088   0.259  12.165
12222W        W77383  26.527   3.296  10.394
12223W        W77384  39.626  27.157  11.665
12224W        W77385   3.956  16.525   1.933
12225W        W77386  20.156  33.335  14.772
12226W        W77387  18.130  35.103  13.386
12227W        W77388  20.193  25.966   3.757
12228W        W77389  39.921  44.089  11.531
12229W        W77390  11.675  19.858   1.118
12230W        W77391  36.231  13.866   3.498
12231W        W77392  37.473  34.447  12.463
12232W        W77393  34.912  17.226   3.699
12233W        W77394  25.317   1.222  12.420
12234W        W77395  16.339   5.450  14.536
12235W        W77396  23.962  41.031  11.669
12236W        W77397  37.939   2.452  12.844
12237W        W77398  27.025  11.109   0.211
12238W        W77399  42.026  22.026  12.504
12239W        W77400   9.464  21.055  12.005
12240W        W77401  16.714  10.164  13.987
12241W        W77402  37.452  33.513  13.337
12242W        W77403   7.206   5.895   1.307
12243W        W77404  39.947  31.800  11.186
12244W        W77405   2.663  12.235   3.181
12245W        W77406  20.314   1.238   0.198
12246W        W77407  12.445  44.189  11.090
12247W        W77408  34.904   8.808  13.765
12248W        W77409  25.982  31.498  11.204
12249W        W77410  43.946   3.212   0.950
12250W        W77411  12.373  40.872  13.429
12251W        W77412   0.861  16.330   3.179
12252W        W77413  42.710  38.144  10.636
12253W        W77414  42.934  22.343  13.546
12254W        W77415  35.320   8.983  14.476
12255W        W77416  38.555  14.243   1.775
12256W        W77417  43.407  40.587   0.364
12257W        W77418  27.192  13.309   1.728
12258W        W77419  30.134  44.339  13.276
12259W        W77420  18.845   5.550   2.215
12260W        W77421  30.087   7.716   2.388
12261W        W77422  25.593  40.035   5.300
12262W        W77423   6.825  11.536   0.605
12263W        W77424  16.394  20.247   2.667
12264W        W77425   0.404  12.719  14.929
12265W        W77426   8.603   0.538  11.219
12266W        W77427  44.186  11.184   3.656
12267W        W77428  11.259  26.577   4.938
12268W        W77429  30.894  22.509  12.600
12269W        W77430  33.386   2.298  13.960
12270W        W77431  38.585  12.753   1.624
12271W        W77432   9.371  27.155   2.538
12272W        W77433  23.940   2.063  11.426
12273W        W77434  10.837  26.968   1.024
12274W        W77435  44.395  30.575  14.192
12275W        W77436  42.762  28.011  12.543
12276W        W77437  15.722  11.566   3.183
12277W        W77438   8.755  39.117   3.124
12278W        W77439  37.338  40.847  13.473
12279W        W77440  10.134  13.084  14.350
12280W        W77441  23.111  41.002   2.440
12281W        W77442  30.791  32.538  11.439
12282W        W77443  23.035   8.415   1.746
12283W        W77444  30.737  27.315   4.450
12284W        W77445  23.695  32.320   3.705
12285W        W77446  27.993  23.039  10.238
12286W        W77447   5.978  42.995   1.222
12287W        W77448  39.552  30.185   0.986
12288W        W77449  37.628  12.276  14.916
12289W        W77450  24.124  27.212   4.356
12290W        W77451  16.030  23.515  13.936
12291W        W77452  21.744  36.858   1.703
12292W        W77453  39.114  22.486  11.435
12293W        W77454   9.150  41.466  12.546
12294W        W77455   7.233  41.769  14.977
12295W        W77456  43.317  35.292   0.263
12296W        W77457  36.915  20.348  11.039
12297W        W77458  32.007  28.168   4.542
12298W        W77459  38.297  39.457   1.392
12299W        W77460  41.792  24.619   9.686
12300W        W77461  36.249  13.841   2.871
12301W        W77462  38.840   3.311   2.129
12302W        W77463   0.282  15.479   1.300
12303W        W77464  15.951  43.295   4.196
12304W        W77465  34.910  16.178   3.197
12305W        W77466  40.238  23.533  11.647
12306W        W77467  10.110   9.590   2.273
12307W        W77468   9.322  22.547  12.686
12308W        W77469  31.521   3.266  10.747
12309W        W77470  10.427  14.229   1.483
12310W        W77471  19.179  23.649  11.701
12311W        W77472  10.556   5.565  11.539
12312W        W77473  15.107  42.315   3.014
12313W        W77474  31.260  16.540   3.325
12314W        W77475  15.607   2.195   1.842
12315W        W77476  26.029   8.050   3.811
12316W        W77477  26.274  21.575  13.058
12317W        W77478  29.721  23.494  13.438
12318W        W77479   6.496  27.772   5.070
12319W        W77480   5.644  33.359  13.794
12320W        W77481  26.016  21.989   4.177
12321W        W77482  13.280  19.933  14.456
12322W        W77483   1.863  36.459  11.608
12323W        W77484   7.094  14.832  13.866
12324W        W77485   0.038  34.453   3.859
12325W        W77486   5.798  25.872  13.571
12326W        W77487  43.618   5.068  13.544
12327W        W77488  32.361   9.122   0.710
12328W        W77489  29.482  26.039   0.079
12329W        W77490  11.679  29.643  10.711
12330W        W77491   4.542  28.500  13.011
12331W        W77492   1.118  10.401   1.882
12332W        W77493   3.269   6.861   4.857
12333W        W77494   9.857  43.389   2.607
12334W        W77495   0.340   4.847  12.621
12335W        W77496   1.576   9.541  14.052
12336W        W77497   0.968  30.088   0.526
12337W        W77498   9.646  21.943  14.375
12338W        W77499   0.804  27.179  12.476
12339W        W77500  13.106  25.887  10.569
12340W        W77501  17.053  12.604   2.354
12341W        W77502   4.385  11.989  11.561
12342W        W77503  29.199  17.545  13.082
12343W        W77504  43.204  15.827  14.433
12344W        W77505  30.949  15.148   4.027
12345W        W77506  38.037  18.246   3.094
12346W        W77507   0.227   1.056  11.437
12347W        W77508  26.044   2.774   3.325
12348W        W77509   5.228  12.815  12.303
12349W        W77510  33.853   5.984   1.716
12350W        W77511  35.989   9.298   2.829
12351W        W77512   8.236  38.460   1.170
12352W        W77513  26.968  36.528   4.434
12353W        W77514   2.729   7.404  10.797
12354W        W77515  23.841  31.626   0.782
12355W        W77516  18.516  26.010   1.743
12356W        W77517  39.641  32.587   2.611
12357W        W77518  16.104  15.259  12.583
12358W        W77519  16.171  18.819   3.311
12359W        W77520  22.541   3.343   4.571
12360W        W77521  24.975  30.037   0.359
12361W        W77522   8.705  39.897   2.701
12362W        W77523  43.938  18.312  12.934
12363W        W77524   7.766  29.603   0.782
12364W        W77525  23.376  32.999   2.416
12365W        W77526  29.865  30.719   4.129
12366W        W77527   6.798  18.715   2.623
12367W        W77528   4.818   2.711  10.888
12368W        W77529  22.472  31.914  10.332
12369W        W77530  28.580  12.699   2.633
12370W        W77531  19.128  33.272   2.309
12371W        W77532  43.449  43.493   2.667
12372W        W77533  10.832  12.716  13.260
12373W        W77534  23.260  17.336  12.463
12374W        W77535   6.384   3.254   2.354
12375W        W77536  33.902   2.597   4.585
12376W        W77537  13.765  25.704   0.441
12377W        W77538   7.208  20.706   1.765
12378W        W77539  29.691  12.192  11.576
12379W        W77540  29.758  28.689  11.780
12380W        W77541   0.823  41.888  12.004
12381W        W77542  36.297  38.979  12.282
12382W        W77543  27.824  10.880  10.323
12383W        W77544  27.485  42.568   3.518
12384W        W77545  28.480  35.484   3.022
12385W        W77546  37.872  13.725   0.459
12386W        W77547   0.908  26.421  10.660
12387W        W77548  17.572  37.042   3.075
12388W        W77549  17.995  32.544   0.707
12389W        W77550  25.974  31.529  12.089
12390W        W77551  39.093  41.372   3.667
12391W        W77552   9.187  23.673   4.121
12392W        W77553   8.387  16.531  11.405
12393W        W77554  22.168   2.349  12.864
12394W        W77555  34.779  28.944  13.653
12395W        W77556  38.284  35.465   1.285
12396W        W77557  30.137  37.855   1.601
12397W        W77558  44.694  32.400  11.126
12398W        W77559  21.735  26.631   4.668
12399W        W77560   7.515  39.463   0.014
12400W        W77561  19.237  24.695   2.117
12401W        W77562  21.476  34.873   0.154
12402W        W77563  14.034  27.911   1.130
12403W        W77564  29.059  11.908   4.168
12404W        W77565  12.251   5.644   2.847
12405W        W77566   3.303  21.383   2.717
12406W        W77567  19.655   0.414  11.157
12407W        W77568  24.087  31.923   3.653
12408W        W77569   1.904  32.539  11.607
12409W        W77570   5.351  38.002   4.197
12410W        W77571  20.222  28.023  13.759
12411W        W77572  42.966   3.803  12.574
12412W        W77573  10.365  32.951  14.346
12413W        W77574   1.005   4.473   0.114
12414W        W77575  13.188  25.229   1.146
12415W        W77576  39.857  44.837   2.335
12416W        W77577  29.532  19.353  10.791
12417W        W77578  24.525   8.204   1.618
12418W        W77579  33.982  42.491   0.525
12419W        W77580   0.640  39.172  12.530
12420W        W77581   1.758  42.718  13.813
12421W        W77582  20.557  31.017  14.995
12422W        W77583  43.780  17.061   1.621
12423W        W77584  15.949  18.821   2.841
12424W        W77585   6.242  39.897   1.232
12425W        W77586   0.877  42.921   4.280
12426W        W77587   6.702  10.729  14.011
12427W        W77588  33.287  22.198   4.244
12428W        W77589  27.347  14.127   3.671
12429W        W77590  29.050  12.420   4.292
12430W        W77591   3.153  27.446   1.702
12431W        W77592  11.057  17.052   0.756
12432W        W77593  18.071  37.074   2.067
12433W        W77594  33.387  30.554  11.878
12434W        W77595  10.699  22.135  11.596
12435W        W77596   0.470  36.401   1.289
12436W        W77597   4.411  14.209  13.818
12437W        W77598   3.939   7.288   4.105
12438W        W77599   5.454  33.562   4.570
12439W        W77600   3.468  20.598   4.666
12440W        W77601   5.494   1.817  14.245
12441W        W77602  11.996  14.894   0.948
12442W        W77603  28.194  27.871   4.863
12443W        W77604   6.338  20.255   1.393
12444W        W77605  18.541  15.518   0.514
12445W        W77606  20.888  13.878   1.313
12446W        W77607  22.308  15.086  10.627
12447W        W77608   4.806  34.884  12.406
12448W        W77609  16.561  19.301  12.626
12449W        W77610   3.936  11.322  12.415
12450W        W77611  25.692  13.614   2.630
12451W        W77612  10.911  21.580  11.478
12452W        W77613  22.042  10.838  14.875
12453W        W77614  19.536  16.162  14.729
12454W        W77615  22.617  36.101   0.365
12455W        W77616   0.826  31.164   1.297
12456W        W77617  15.746  19.751  13.951
12457W        W77618  15.704  29.789  10.793
12458W        W77619  20.354   9.385   3.277
12459W        W77620  36.632  40.043   9.711
12460W        W77621  31.049  19.689   2.268
12461W        W77622  41.485  31.406   0.761
12462W        W77623  37.881   2.063   2.968
12463W        W77624   9.325  23.003   0.469
12464W        W77625  39.403  43.720   1.777
12465W        W77626  43.640  13.586   4.139
12466W        W77627  37.543  29.265  13.437
12467W        W77628  39.921  44.373  10.522
12468W        W77629  15.802  23.506   0.331
12469W        W77630  12.639  29.551  12.923
12470W        W77631  38.218  21.230  10.705
12471W        W77632  29.419  26.048  11.503
12472W        W77633  26.214  16.872   0.414
12473W        W77634  27.224  42.112   3.358
12474W        W77635  39.297  28.634   4.607
12475W        W77636   0.798  30.098   1.046
12476W        W77637  39.505  14.144  14.843
12477W        W77638  32.214  23.983  14.877
12478W        W77639  42.932  44.408   3.357
12479W        W77640  16.336  27.542   2.158
12480W        W77641  39.969  37.572   2.298
12481W        W77642  27.460  13.092  11.561
12482W        W77643  33.464  30.067  12.043
12483W        W77644  33.634  24.546  12.077
12484W        W77645  26.588  14.343   0.924
12485W        W77646   8.839  23.759  13.155
12486W        W77647  28.866   4.880  14.557
12487W        W77648  11.664  42.492  12.382
12488W        W77649  22.306  34.012   4.466
12489W        W77650  16.063  23.826  14.970
12490W        W77651  27.093  20.464   0.882
12491W        W77652  29.136  24.709   0.954
12492W        W77653  23.201   5.882   4.553
12493W        W77654  32.067  12.807   0.207
12494W        W77655  39.962  40.346  11.338
12495W        W77656   5.440  16.663   1.901
12496W        W77657   3.803   2.795   4.556
12497W        W77658   3.784  21.782   4.089
12498W        W77659   3.319  34.729   4.054
12499W        W77660  19.901  37.998   2.367
12500W        W77661  27.675  27.980  10.548
12501W        W77662  35.204   8.299  11.966
12502W        W77663  40.659   1.214   0.437
12503W        W77664  40.394  20.527   4.572
12504W        W77665  29.096  21.741   1.760
12505W        W77666  10.801   7.094   2.293
12506W        W77667   1.858   9.234   2.431
12507W        W77668  22.703  22.981   0.787
12508W        W77669  36.536   9.388  12.907
12509W        W77670  26.314  28.885  13.924
12510W        W77671  22.011  25.796   4.767
12511W        W77672  12.642  23.025  10.770
12512W        W77673  28.441  37.773   1.235
12513W        W77674  20.822  33.505   0.807
12514W        W77675   4.996  31.627   0.753
12515W        W77676  31.658  10.023  13.501
12516W        W77677   7.399   7.255  14.224
12517W        W77678  21.681  25.966  10.982
12518W        W77679  36.278  30.083  14.404
12519W        W77680   7.203  11.735  14.794
12520W        W77681  33.183  24.563  13.927
12521W        W77682  41.839   6.736   2.667
12522W        W77683  35.688   6.810  12.182
12523W        W77684  37.911  19.964  14.285
12524W        W77685  38.592   4.646   3.241
12525W        W77686  35.157  31.876  12.952
12526W        W77687  40.749  17.781   1.821
12527W        W77688  11.124  15.106  11.144
12528W        W77689  33.032   6.205  10.654
12529W        W77690  43.952  27.290   2.519
12530W        W77691  44.696   9.252   3.184
12531W        W77692  23.743  19.546  12.230
12532W        W77693   3.599  44.380   1.193
12533W        W77694  14.465  35.043  12.495
12534W        W77695   1.941  41.509   4.155
12535W        W77696  13.577  20.256  14.734
12536W        W77697  24.923  12.106   3.268
12537W        W77698   4.524  41.752   3.730
12538W        W77699  14.311  19.336   1.555
12539W        W77700  13.250  10.673   4.085
12540W        W77701   0.589  43.095   3.317
12541W        W77702  32.374  30.617   1.424
12542W        W77703   4.742   4.869   0.127
12543W        W77704  38.306  26.550   3.595
12544W        W77705  25.572  27.294  12.052
12545W        W77706  18.661   5.365  10.687
12546W        W77707   7.916   8.137   2.307
12547W        W77708   1.841  22.273  12.951
12548W        W77709   5.014  18.628   2.306
12549W        W77710   8.700  25.810  14.483
12550W        W77711  26.118  44.986   0.805
12551W        W77712  16.122  34.797   0.379
12552W        W77713  16.766   7.895  13.207
12553W        W77714  17.818  35.095   0.920
12554W        W77715  21.873  19.540   4.938
12555W        W77716  44.719   7.892  13.974
12556W        W77717  37.687  23.146  11.143
12557W        W77718  43.999   5.823   4.333
12558W        W77719  43.927  23.186   4.708
12559W        W77720  37.837   7.598   1.801
12560W        W77721  15.023   8.729   3.459
12561W        W77722  38.467  17.559   4.101
12562W        W77723   9.318  18.045   1.252
12563W        W77724   9.755  27.570   4.718
12564W        W77725  13.614  13.010  10.816
12565W        W77726  20.824  31.450   2.321
12566W        W77727  32.892  38.550   2.744
12567W        W77728  22.629  17.145   3.911
12568W        W77729   9.465  39.363   4.108
12569W        W77730  35.070   4.293  12.598
12570W        W77731  24.833  30.644   4.865
12571W        W77732  31.593   2.523   0.867
12572W        W77733  26.707  26.922  13.353
12573W        W77734   2.360  37.843  12.374
12574W        W77735  13.975  24.079   2.321
12575W        W77736  10.236   8.727  14.094
12576W        W77737  20.738  15.238   2.162
12577W        W77738  31.175  25.994   2.936
12578W        W77739  26.601  42.244   2.023
12579W        W77740  18.007   1.848   3.676
12580W        W77741  32.363  26.293   3.376
12581W        W77742  18.688  30.212  14.181
12582W        W77743  30.102  11.629  12.370
12583W        W77744   6.590  31.674  13.818
12584W        W77745  15.355   3.690  13.511
12585W        W77746  20.466  42.730   4.236
12586W        W77747   7.953   3.003   3.162
12587W        W77748  35.632  44.588   2.699
12588W        W77749  10.330  14.588   1.859
12589W        W77750  38.886  21.822  14.493
12590W        W77751  18.110  21.221   3.240
12591W        W77752  14.290  15.170   0.545
12592W        W77753   8.202  26.700  10.721
12593W        W77754  29.962  37.548   1.965
12594W        W77755  41.378  12.435  10.759
12595W        W77756  14.260  42.080   1.444
12596W        W77757  30.376   1.231  12.266
12597W        W77758  42.078  12.881  11.973
12598W        W77759  44.400  25.496   4.571
12599W        W77760   9.216  20.113   2.179
12600W        W77761  15.218  23.508  13.345
12601W        W77762  10.716  26.689   2.165
12602W        W77763  24.706  22.552  14.497
12603W        W77764  24.930  28.095   4.625
12604W        W77765  13.223  42.033   1.907
12605W        W77766  13.254  25.626   1.530
12606W        W77767  39.947  30.829   1.450
12607W        W77768  37.373  34.588   1.438
12608W        W77769  11.227  31.129  11.989
12609W        W77770   4.256  27.447  13.995
12610W        W77771  22.137   9.454   2.642
12611W        W77772  43.581  15.824   3.288
12612W        W77773  39.545  19.999   2.140
12613W        W77774  28.507   0.902   2.223
12614W        W77775  28.530  32.383   2.037
12615W        W77776  11.997   6.070   5.066
12616W        W77777   9.854   4.568  13.109
12617W        W77778  44.331  31.178   2.614
12618W        W77779  34.096  44.467  12.947
12619W        W77780  23.985   1.803   0.690
12620W        W77781  19.014   6.997   4.431
12621W        W77782  31.379  34.163  11.307
12622W        W77783  11.360  14.328   0.501
12623W        W77784   9.775  30.653  11.142
12624W        W77785   4.033   0.464  14.526
12625W        W77786  30.071   3.602   1.880
12626W        W77787  24.554  26.127   0.764
12627W        W77788  17.646  37.693  11.952
12628W        W77789  15.592  38.366  12.134
12629W        W77790   2.859  15.014  12.151
12630W        W77791  39.366  34.313  11.221
12631W        W77792   1.959  21.260  11.041
12632W        W77793  25.031  42.062   3.618
12633W        W77794  15.370  26.531  12.270
12634W        W77795  22.243  28.470   2.190
12635W        W77796  22.624  17.606   5.447
12636W        W77797  38.774  39.485   3.720
12637W        W77798  30.969  31.038  13.113
12638W        W77799  18.048  26.734  11.185
12639W        W77800  36.608  17.496   3.649
12640W        W77801  28.475   1.813  14.345
12641W        W77802  33.560   6.362   4.508
12642W        W77803  16.537   7.944   1.776
12643W        W77804  31.035  32.768   0.745
12644W        W77805  12.589   5.431  14.042
12645W        W77806  33.592  32.015   3.194
12646W        W77807   4.695  13.958  14.372
12647W        W77808  25.161  10.205   1.300
12648W        W77809   6.776  42.863   0.881
12649W        W77810  44.275   3.495  12.540
12650W        W77811  32.382  35.854   2.722
12651W        W77812  29.922  28.906   0.264
12652W        W77813   7.313  44.037  12.417
12653W        W77814  35.378  12.471   0.409
12654W        W77815  26.402  37.331   0.937
12655W        W77816  34.811  26.694  14.807
12656W        W77817  32.450  27.882   4.628
12657W        W77818  39.508   7.617  12.467
12658W        W77819  16.831  21.054   3.697
12659W        W77820  19.039  44.954  12.992
12660W        W77821  11.871  25.005   4.002
12661W        W77822  12.468  12.176  11.195
12662W        W77823  30.061   5.431  12.020
12663W        W77824  43.204  36.893  11.683
12664W        W77825  27.562  32.380   1.798
12665W        W77826  22.607   2.516   0.042
12666W        W77827  19.002  10.979  13.370
12667W        W77828  33.695  12.229   3.107
12668W        W77829   5.371  44.177   3.150
12669W        W77830  28.498   3.717  11.184
12670W        W77831  29.672  44.744   0.874
12671W        W77832  37.976  20.659   4.312
12672W        W77833  28.264  27.461   2.899
12673W        W77834  20.696   3.518  11.097
12674W        W77835   5.338  10.630  13.810
12675W        W77836  39.475  34.448   4.677
12676W        W77837  31.869  39.556  13.549
12677W        W77838  38.995   5.014  12.708
12678W        W77839   9.905  11.780  11.511
12679W        W77840  18.462   8.853   0.508
12680W        W77841  24.645  34.950   2.776
12681W        W77842  20.084  22.656   4.979
12682W        W77843  24.952  29.269  14.028
12683W        W77844  29.134   7.763  11.616
12684W        W77845  27.728  41.530   0.445
12685W        W77846  44.039  23.457   2.377
12686W        W77847  33.499  27.496   0.973
12687W        W77848  34.303  26.231   4.386
12688W        W77849  28.081  28.533   1.525
12689W        W77850  21.188   2.475   2.115
12690W        W77851  40.566   9.943  10.733
12691W        W77852  15.306  14.709  12.680
12692W        W77853  37.896  16.512   1.941
12693W        W77854  23.197   5.771  10.723
12694W        W77855  22.939  37.858   1.783
12695W        W77856   4.738  43.195  12.569
12696W        W77857  25.788  27.581  14.326
12697W        W77858  32.413   7.451   3.631
12698W        W77859   2.749   8.195   2.667
12699W        W77860  40.347  24.054   0.313
12700W        W77861   8.787  41.023  12.518
12701W        W77862  22.806  20.618   1.684
12702W        W77863  40.816  30.547   3.068
12703W        W77864  35.896  11.706  11.201
12704W        W77865  30.697  36.891  11.122
12705W        W77866  17.519   0.785   3.632
12706W        W77867  17.292  12.788  14.951
12707W        W77868  18.118  28.214   3.737
12708W        W77869  28.568  37.624   9.842
12709W        W77870  13.790  25.386  14.413
12710W        W77871  31.988  25.726   3.697
12711W        W77872  44.045  16.699  13.672
12712W        W77873  10.331  23.975   1.198
12713W        W77874  26.934  43.856  13.387
12714W        W77875  11.322  13.849  13.584
12715W        W77876  26.085  37.814  13.101
12716W        W77877  13.884   6.438   1.340
12717W        W77878  15.880  24.526  13.946
12718W        W77879   7.482  44.203   4.562
12719W        W77880   2.022  16.291  13.817
12720W        W77881  25.073  18.863  11.431
12721W        W77882   0.490  25.733   3.259
12722W        W77883  12.545  10.355  13.392
12723W        W77884  32.969   5.821   4.061
12724W        W77885   9.958  29.202   3.919
12725W        W77886  14.756  20.610  12.148
12726W        W77887  14.363  13.250  10.675
12727W        W77888  30.033  27.961   4.491
12728W        W77889  33.219  31.006  11.210
12729W        W77890   4.561   0.796  11.503
12730W        W77891  15.192  24.743  13.446
12731W        W77892  16.908  19.270   3.679
12732W        W77893  42.464   3.200  13.099
12733W        W77894  44.036  38.046  11.242
12734W        W77895   2.663  30.755  13.806
12735W        W77896  12.436  31.073   1.183
12736W        W77897   3.770  12.572  13.969
12737W        W77898   4.877  37.120   0.461
12738W        W77899  15.500  37.500  12.120
12739W        W77900   6.427  11.824  12.004
12740W        W77901   0.005  28.100   2.206
12741W        W77902  16.890   6.710   3.028
12742W        W77903  36.391  32.415  12.449
12743W        W77904  28.989  16.477   3.165
12744W        W77905  15.355  32.404   1.949
12745W        W77906   6.747  11.732   2.454
12746W        W77907   3.855  44.606  12.691
12747W        W77908  11.723  32.823   4.306
12748W        W77909   7.442   7.672  13.750
12749W        W77910  31.006   6.797   2.717
12750W        W77911  12.495  26.285   1.849
12751W        W77912   4.691  39.087   1.319
12752W        W77913   5.328  19.549   1.168
12753W        W77914  33.310  11.442   0.884
12754W        W77915  24.034   8.611  12.503
12755W        W77916   7.619  20.043   1.100
12756W        W77917  10.366  16.667  12.317
12757W        W77918  44.526  32.053   2.683
12758W        W77919  44.260  43.313  14.376
12759W        W77920   4.379  29.843   1.698
12760W        W77921   9.739  15.386   0.858
12761W        W77922  44.645  10.314  14.468
12762W        W77923  21.433  13.825   0.161
12763W        W77924  20.929  41.312   3.412
12764W        W77925  28.716  16.250   2.296
12765W        W77926  13.914  36.576   3.404
12766W        W77927   1.665   0.823  11.581
12767W        W77928  27.410   8.487   3.185
12768W        W77929  37.917  31.343   0.499
12769W        W77930  21.188  39.623   1.833
12770W        W77931  29.341  39.079   0.446
12771W        W77932  42.445  37.385   1.747
12772W        W77933   9.959   1.773  12.396
12773W        W77934  39.628  41.866   2.743
12774W        W77935  27.203  35.991  11.619
12775W        W77936  39.525   3.347  14.226
12776W        W77937  10.532  13.148  13.964
12777W        W77938  30.897   6.772  13.037
12778W        W77939  32.124  23.557  13.366
12779W        W77940  20.702   6.357   2.887
12780W        W77941  23.946   4.259   1.157
12781W        W77942  10.135   6.561   3.305
12782W        W77943  29.044   4.748   3.306
12783W        W77944  10.248   2.752   2.314
12784W        W77945  17.602  30.337  14.786
12785W        W77946  21.967  14.189   4.876
12786W        W77947  27.743  39.627   1.914
12787W        W77948   2.352  36.890  11.977
12788W        W77949   6.140   5.134   5.043
12789W        W77950  13.035  15.571   2.199
12790W        W77951  35.579  14.791   2.337
12791W        W77952   4.389  35.959   0.790
12792W        W77953  19.185  14.678  11.946
12793W        W77954  37.298  42.408   3.633
12794W        W77955  10.354  26.275   4.727
12795W        W77956  42.330  21.311  14.417
12796W        W77957  34.110  18.017   2.771
12797W        W77958  17.274  12.545   0.982
12798W        W77959  12.226  35.953   4.825
12799W        W77960   0.018  11.713   3.534
12800W        W77961  11.867  18.293   2.952
12801W        W77962  25.493   0.372  14.031
12802W        W77963  39.762  11.562   4.254
12803W        W77964  28.087  18.385   2.398
12804W        W77965  19.122  35.952  10.432
12805W        W77966  15.232   8.931  11.653
12806W        W77967  39.830  39.585  13.778
12807W        W77968  13.227  34.562   4.515
12808W        W77969  39.858   0.630  11.480
12809W        W77970  39.813  18.037  13.498
12810W        W77971  38.856   4.165  11.088
12811W        W77972  34.079   4.702   3.709
12812W        W77973  44.484  11.274  14.954
12813W        W77974  42.381  26.287  11.737
12814W        W77975  38.460  32.890   0.791
12815W        W77976   7.961  34.768  11.434
12816W        W77977  23.787  22.829  10.278
12817W        W77978  32.517  32.035  14.632
12818W        W77979  37.610   1.867   3.774
12819W        W77980  12.552   0.881  14.398
12820W        W77981   5.364   9.706   1.337
12821W        W77982  29.033  26.299  14.992
12822W        W77983  10.949  44.364  13.094
12823W        W77984  36.323  34.921   4.743
12824W        W77985  18.505  10.755  14.920
12825W        W77986  42.944   4.471  13.913
12826W        W77987  15.961  42.424   1.028
12827W        W77988  30.491  43.819   1.673
12828W        W77989  23.960  36.079   4.546
12829W        W77990  20.304  20.688  11.608
12830W        W77991  32.867  16.336   2.134
12831W        W77992   1.983   6.299   1.913
12832W        W77993   3.727  30.624   0.231
12833W        W77994  37.411  32.693  13.279
12834W        W77995  22.303  18.519  12.480
12835W        W77996   8.532  29.040   0.814
12836W        W77997  38.023   2.233  14.312
12837W        W77998  42.700  27.582   2.148
12838W        W77999   5.561  26.753   1.399
12839W        W78000  12.271  20.625   0.208
12840W        W78001  37.839  21.307  13.971
12841W        W78002  40.906  42.703   0.566
12842W        W78003  43.441  39.473   4.532
12843W        W78004  23.517  36.438  14.718
12844W        W78005  11.314  22.098  13.410
12845W        W78006  40.212  39.407   2.687
12846W        W78007   5.723  13.781   2.145
12847W        W78008  21.913   0.968  11.499
12848W        W78009  18.511  25.613   0.341
12849W        W78010  11.677  43.855  12.684
12850W        W78011  22.005  34.369  11.665
12851W        W78012  31.225  19.470  13.115
12852W        W78013  40.109  15.784  13.013
12853W        W78014  33.537  33.938   2.301
12854W        W78015  18.111  12.568  13.984
12855W        W78016   8.240  13.795  12.357
12856W        W78017  28.401  43.483   3.011
12857W        W78018   3.302  36.384  12.591
12858W        W78019  33.516   4.337   0.328
12859W        W78020  17.749  27.654  13.902
12860W        W78021  24.776   0.183   0.797
12861W        W78022  24.553   5.614   4.353
12862W        W78023  28.077   3.760  13.904
12863W        W78024   7.141  43.408  11.738
12864W        W78025   0.648   2.124   3.365
12865W        W78026  25.983  31.167   2.204
12866W        W78027   3.106   5.973   4.169
12867W        W78028   9.573   7.822   2.340
12868W        W78029   0.315  18.726   2.831
12869W        W78030  39.760  36.901  14.525
12870W        W78031  30.202  26.041  11.063
12871W        W78032  17.599  29.379  14.851
12872W        W78033  41.713  35.173   3.679
12873W        W78034  38.771  10.328   4.760
12874W        W78035  39.500  18.341  12.603
12875W        W78036  41.540  15.054   2.333
12876W        W78037   2.319  29.874   3.829
12877W        W78038  20.266  32.554  12.607
12878W        W78039  35.593  11.649   2.425
12879W        W78040  18.701  27.153  13.859
12880W        W78041   8.527  23.917  12.224
12881W        W78042   0.950   4.352  14.600
12882W        W78043  10.101  19.167   3.983
12883W        W78044  15.021   8.693   4.566
12884W        W78045   0.373  20.586  11.161
12885W        W78046   3.858  14.771  12.394
12886W        W78047  11.256   5.189  11.786
12887W        W78048   9.439  15.230   3.366
12888W        W78049  26.406   1.578   1.678
12889W        W78050  40.415  40.018   4.534
12890W        W78051  42.853   8.729   2.475
12891W        W78052  32.376  19.835   4.669
12892W        W78053  20.152   2.312  10.978
12893W        W78054  40.522  38.087  14.265
12894W        W78055  19.024   5.999  10.745
12895W        W78056  32.250  20.869  10.623
12896W        W78057  18.747   2.208   4.707
12897W        W78058   3.440  18.538  12.630
12898W        W78059  34.406  11.841  14.024
12899W        W78060   1.102   7.332  13.022
12900W        W78061  41.499   7.615   1.733
12901W        W78062  18.768  15.333  11.578
12902W        W78063  16.092  41.291   0.765
12903W        W78064   6.269  43.291  11.471
12904W        W78065  10.128  39.532  13.956
12905W        W78066   7.935   5.420  14.520
12906W        W78067  15.598   6.827  12.624
12907W        W78068  21.109   0.881   0.335
12908W        W78069  17.802  42.300   3.241
12909W        W78070  28.195   2.745  11.591
12910W        W78071  30.424  28.483   1.825
12911W        W78072  43.418  39.182  11.618
12912W        W78073  23.093   1.292  12.862
12913W        W78074  14.281  22.686  14.849
12914W        W78075  36.607  34.231  14.254
12915W        W78076   5.637  37.596   4.108
12916W        W78077  21.687  35.675  14.927
12917W        W78078   1.229  15.895   2.095
12918W        W78079  22.230  14.578   1.830
12919W        W78080  22.627   2.328  12.372
12920W        W78081  39.948  29.340   1.313
12921W        W78082  14.668   9.866   3.776
12922W        W78083  42.652  19.233   0.931
12923W        W78084  30.113  21.933  12.098
12924W        W78085  23.248  25.193  10.433
12925W        W78086  27.689   1.849  11.558
12926W        W78087  35.494  27.702   3.592
12927W        W78088  29.612  17.055   3.698
12928W        W78089  14.645  23.582  11.191
12929W        W78090  41.252  34.932   3.846
12930W        W78091  38.411  43.363   4.217
12931W        W78092  25.934  20.556  14.247
12932W        W78093   9.606  33.533   4.951
12933W        W78094  31.423  10.345   3.230
12934W        W78095  20.006  19.512   3.270
12935W        W78096  12.980   5.863  13.392
12936W        W78097  28.936  27.986  13.871
12937W        W78098  36.798  21.128   3.412
12938W        W78099  24.204   2.809   2.272
12939W        W78100   2.678  37.761   0.428
12940W        W78101  33.046  25.625  10.696
12941W        W78102  26.987  23.063  14.870
12942W        W78103  20.579  17.414  12.229
12943W        W78104  30.568  25.687   3.310
12944W        W78105  41.076  33.241   0.274
12945W        W78106  43.867  28.024   4.148
12946W        W78107  41.776   6.754  13.651
12947W        W78108  19.629  41.186   4.085
12948W        W78109  35.537  43.866   3.131
12949W        W78110  25.506  17.197   4.617
12950W        W78111  19.453  35.471   0.490
12951W        W78112  24.446  38.473   0.930
12952W        W78113  17.851   6.370   3.891
12953W        W78114  27.437   0.136  11.573
12954W        W78115   6.371   1.236  11.592
12955W        W78116  19.745  38.937  11.557
12956W        W78117  22.524  11.990  12.592
12957W        W78118  31.996  29.919   1.681
12958W        W78119  21.759   9.150  13.393
12959W        W78120   3.632  41.076  11.984
12960W        W78121  10.436  36.364   1.289
12961W        W78122  18.471   0.793  12.978
12962W        W78123  41.529  44.303  10.932
12963W        W78124  35.897  10.724   0.160
12964W        W78125  14.525  22.670  12.634
12965W        W78126  18.068  21.493   3.666
12966W        W78127  17.496  43.799   4.624
12967W        W78128  33.984   9.622  11.496
12968W        W78129  26.049  39.993   4.508
12969W        W78130  35.080  39.764   1.913
12970W        W78131  16.785   0.014   9.824
12971W        W78132   5.085  35.688  13.284
12972W        W78133   2.159  36.869   0.932
12973W        W78134  37.804   5.611   2.325
12974W        W78135  25.683  12.535  13.898
12975W        W78136  39.329  15.948   2.293
12976W        W78137  21.967  10.204   3.712
12977W        W78138  34.091   2.180   0.764
12978W        W78139  30.678  23.558   1.307
12979W        W78140  41.358  31.055  11.941
12980W        W78141  21.271  26.084   3.848
12981W        W78142  24.606   2.766   0.903
12982W        W78143  34.741  30.876  14.492
12983W        W78144  35.200  36.048   4.109
12984W        W78145  14.125  18.510  11.360
12985W        W78146   5.692  16.803   1.302
12986W        W78147  44.532  43.302  13.534
12987W        W78148  20.538  35.407  13.447
12988W        W78149  32.902   2.403   1.396
12989W        W78150  20.095  43.515   2.296
12990W        W78151   5.706  15.933   0.180
12991W        W78152  15.364  26.247  13.840
12992W        W78153  22.206   0.745  11.087
12993W        W78154  38.755  44.417  13.004
12994W        W78155  32.232  31.067   3.597
12995W        W78156  11.858  15.952  14.877
12996W        W78157  38.101  41.017  13.813
12997W        W78158   3.412  34.529   2.673
12998W        W78159  11.217  30.863   2.318
12999W        W78160  10.612  22.030   0.687
13000W        W78161  40.990  31.217   4.806
13001W        W78162  11.046  14.716  13.089
13002W        W78163  42.038   1.049   0.403
13003W        W78164   8.152  20.552   0.400
13004W        W78165  22.975  43.491   3.199
13005W        W78166  37.300  31.475  12.503
13006W        W78167  39.336  29.542   3.136
13007W        W78168  40.427   9.565  11.099
13008W        W78169  25.932  12.381   2.363
13009W        W78170  18.773  19.050   3.356
13010W        W78171  38.601  24.987  14.333
13011W        W78172  15.133  18.214   1.160
13012W        W78173  16.067   1.806  11.641
13013W        W78174  28.790   0.994   1.799
13014W        W78175   0.982   9.753   2.734
13015W        W78176   6.341   5.864   4.007
13016W        W78177  21.964  11.889   0.674
13017W        W78178  28.871  38.701  13.841
13018W        W78179  39.804  27.042   0.666
13019W        W78180  13.737   3.858   3.856
13020W        W78181  11.491  43.195  11.610
13021W        W78182  32.438  10.185   4.392
13022W        W78183  23.770  42.055   1.488
13023W        W78184  22.141  38.248   2.383
13024W        W78185  40.517  12.067   3.718
13025W        W78186  14.954  16.336  10.706
13026W        W78187  16.416  44.211   5.340
13027W        W78188  34.531   9.354   4.138
13028W        W78189   6.304   2.924   0.065
13029W        W78190  11.356  36.455   2.249
13030W        W78191   7.479  30.380  11.334
13031W        W78192  22.077  31.014  14.700
13032W        W78193  22.063   2.791   4.339
13033W        W78194  40.032  36.791   3.825
13034W        W78195  21.956  11.783  11.410
13035W        W78196   7.749  15.258   2.788
13036W        W78197  14.485  32.601   0.759
13037W        W78198   3.322   4.607   0.259
13038W        W78199  42.543  32.913  11.890
13039W        W78200   2.564  23.770   4.912
13040W        W78201  41.487  23.532  10.925
13041W        W78202  18.091  27.827   2.447
13042W        W78203  44.529   0.842  13.826
13043W        W78204  27.258  39.492   2.181
13044W        W78205  42.301   1.762   2.758
13045W        W78206  42.224  38.022  10.431
13046W        W78207  33.907  23.679   4.483
13047W        W78208  34.599  12.133  11.106
13048W        W78209  13.752  24.130   2.795
13049W        W78210  21.530  13.258   0.746
13050W        W78211  14.382  29.042  13.093
13051W        W78212  36.385   7.406  10.735
13052W        W78213   4.890  19.765  12.573
13053W        W78214  42.475  16.763   4.243
13054W        W78215  35.907  23.778  12.442
13055W        W78216  27.091  31.951   3.215
13056W        W78217  40.402  39.021  14.225
13057W        W78218  16.644   2.339  14.066
13058W        W78219   3.899  14.679  14.939
13059W        W78220  26.263  11.907  14.464
13060W        W78221  38.872   0.172  10.754
13061W        W78222   6.323   4.774   0.034
13062W        W78223  30.711  31.385  11.186
13063W        W78224   2.924  34.628   4.420
13064W        W78225  24.265  10.685  13.953
13065W        W78226  28.224   0.979   4.195
13066W        W78227   7.430  25.121  12.981
13067W        W78228  43.047  44.783   3.704
13068W        W78229  14.284  40.692  10.154
13069W        W78230  16.679   8.021  14.552
13070W        W78231  13.251  28.444   4.141
13071W        W78232   7.804  43.775  12.147
13072W        W78233  18.202  17.580  13.861
13073W        W78234  44.340  16.779  10.711
13074W        W78235   8.180  21.992   2.737
13075W        W78236  13.241  15.470   0.426
13076W        W78237  25.452   2.654  14.432
13077W        W78238  41.985  18.179   4.683
13078W        W78239  35.197  35.038   2.250
13079W        W78240  25.228  19.592   2.213
13080W        W78241  11.147   2.339  14.546
13081W        W78242   9.322  30.212   1.262
13082W        W78243  23.954  17.247   2.203
13083W        W78244   8.916  29.546   1.479
13084W        W78245  15.891  13.117   4.097
13085W        W78246  18.348  18.220   0.273
13086W        W78247  20.285   4.903   4.520
13087W        W78248   4.222  14.125   2.789
13088W        W78249  16.834  44.424   1.422
13089W        W78250  39.708   1.655   0.442
13090W        W78251  41.429   8.502   2.752
13091W        W78252  13.566  36.883  14.775
13092W        W78253  34.657  42.947   3.146
13093W        W78254  31.385  32.905  12.034
13094W        W78255  12.740  33.989   3.304
13095W        W78256  42.179   4.874   2.824
13096W        W78257  37.782  44.763  11.973
13097W        W78258   7.283  40.919  13.897
13098W        W78259  13.855  21.701   4.191
13099W        W78260  33.043   9.844   2.852
13100W        W78261   7.810  15.232  12.603
13101W        W78262  36.121   5.755  12.187
13102W        W78263  15.556  14.259  10.049
13103W        W78264  41.949  24.117   1.661
13104W        W78265  10.301  11.331  11.111
13105W        W78266   0.804   6.928  14.290
13106W        W78267  36.863  38.571   1.720
13107W        W78268  27.145  25.536   0.400
13108W        W78269  42.547  36.892  14.918
13109W        W78270  19.978  44.059  10.217
13110W        W78271  11.376  25.116   5.217
13111W        W78272  35.202   5.862   1.278
13112W        W78273  43.414   9.864   2.422
13113W        W78274  19.261  13.250   2.771
13114W        W78275  36.433  25.436   2.307
13115W        W78276  11.174   1.134   1.715
13116W        W78277  21.220   0.275  14.967
13117W        W78278  40.317  12.443   0.560
13118W        W78279  33.076  37.289  13.160
13119W        W78280  43.672   1.233  11.952
13120W        W78281  15.139   8.115   2.665
13121W        W78282  23.688  11.107   1.558
13122W        W78283  11.689  29.518   0.517
13123W        W78284  39.526  44.720   0.234
13124W        W78285   7.947  37.621  13.037
13125W        W78286  23.304  33.132  13.824
13126W        W78287  14.152  39.316   3.155
13127W        W78288  18.252  21.032   4.569
13128W        W78289   7.293  40.520  13.078
13129W        W78290  41.307  43.911   2.784
13130W        W78291   3.955  36.056   0.515
13131W        W78292  30.013  37.285  10.653
13132W        W78293  32.501  21.161  11.425
13133W        W78294  28.093  17.446  13.755
13134W        W78295  10.240   3.609   2.412
13135W        W78296  33.582  15.644   5.070
13136W        W78297  22.081  28.191   3.532
13137W        W78298  43.004  16.541  13.629
13138W        W78299  40.790  25.511  11.685
13139W        W78300  16.230  44.277   4.197
13140W        W78301  41.018  22.703  13.184
13141W        W78302  42.998  27.146   2.166
13142W        W78303   8.680  36.791   0.922
13143W        W78304  22.505  31.302   3.324
13144W        W78305  44.547  33.574  14.504
13145W        W78306  44.720  14.073   2.368
13146W        W78307  11.455   2.904   2.479
13147W        W78308  40.880  42.542  13.377
13148W        W78309  27.643  30.584  12.130
13149W        W78310  20.711  31.963   3.711
13150W        W78311  28.546  21.609  13.393
13151W        W78312  43.738  24.429   0.550
13152W        W78313  26.746  43.361  14.834
13153W        W78314  37.781  34.895  11.671
13154W        W78315  13.032  29.999   0.911
13155W        W78316  34.916  39.957  13.938
13156W        W78317  30.392   6.825   4.658
13157W        W78318   8.038  26.127   2.763
13158W        W78319  12.286  11.272   4.407
13159W        W78320  14.714  39.058  13.010
13160W        W78321  32.817   6.691  12.895
13161W        W78322  22.031  12.144  10.950
13162W        W78323   1.710  38.457   3.995
13163W        W78324  22.512   7.694   0.655
13164W        W78325  33.171  40.169   0.656
13165W        W78326  23.746  35.035   3.816
13166W        W78327  12.680  22.658   3.284
13167W        W78328  33.529  24.434   4.652
13168W        W78329   3.239  38.163  12.474
13169W        W78330  33.904  17.043   3.599
13170W        W78331  44.268  41.494   1.439
13171W        W78332  17.298  11.583  12.534
13172W        W78333  16.887  21.753   2.964
13173W        W78334  24.571  25.778   3.368
13174W        W78335   5.284  11.925   0.881
13175W        W78336  24.895  34.956   3.985
13176W        W78337   3.788   2.365   1.663
13177W        W78338  37.390  24.980   1.201
13178W        W78339  30.036  25.676  12.071
13179W        W78340  12.889  32.004  13.914
13180W        W78341  25.273  41.540   1.794
13181W        W78342  36.165  40.337  12.655
13182W        W78343  41.371  13.864   4.654
13183W        W78344  24.117   3.992   4.759
13184W        W78345  31.108  21.921   0.501
13185W        W78346  15.094  19.774  13.401
13186W        W78347   9.534  12.671   4.246
13187W        W78348  24.522  44.818  10.660
13188W        W78349   4.293  19.933  13.883
13189W        W78350  42.840  24.149  12.918
13190W        W78351  18.052   4.911   1.320
13191W        W78352  34.872  30.063  12.978
13192W        W78353   0.312  24.079  11.419
13193W        W78354  14.699  10.548   3.278
13194W        W78355  41.977  19.320  13.987
13195W        W78356  44.325   0.865   0.511
13196W        W78357  43.500  16.277  14.480
13197W        W78358  31.572  40.494   1.954
13198W        W78359  17.073  36.092   4.564
13199W        W78360   5.232   2.829   3.125
13200W        W78361  28.935   4.937  13.146
13201W        W78362   8.955   9.832  12.079
13202W        W78363  37.852  31.991   3.136
13203W        W78364  19.206  14.462   3.169
13204W        W78365  17.905  15.724  12.534
13205W        W78366  29.608  23.271  13.877
13206W        W78367  42.386  43.237  13.736
13207W        W78368  16.043  19.780   3.717
13208W        W78369   8.375  41.380   3.036
13209W        W78370   7.311  16.569   1.294
13210W        W78371   6.652   3.708   2.507
13211W        W78372  18.745  29.020   3.014
13212W        W78373  15.124  12.501  14.111
13213W        W78374  28.785  21.060   2.304
13214W        W78375  35.522  12.628   2.758
13215W        W78376  44.960  21.182   0.327
13216W        W78377  40.058  41.897   1.809
13217W        W78378  21.812  13.689   1.368
13218W        W78379  32.304  44.389   4.664
13219W        W78380  18.084  23.873  10.790
13220W        W78381   0.899  39.865  14.062
13221W        W78382  13.331  12.160  10.651
13222W        W78383  36.553  24.647   4.586
13223W        W78384  35.421  36.420  12.385
13224W        W78385  24.320  10.700  12.562
13225W        W78386  38.769  38.671   4.020
13226W        W78387  44.503  24.961   2.740
13227W        W78388  25.830  26.538   2.813
13228W        W78389  39.759  20.481   1.940
13229W        W78390  17.597  19.540  13.173
13230W        W78391  17.696  13.700   0.213
13231W        W78392  13.255  38.881   3.560
13232W        W78393   2.376  38.336  11.620
13233W        W78394   7.441  25.886  14.794
13234W        W78395  16.899  22.210   3.217
13235W        W78396  37.590  42.446   2.106
13236W        W78397  15.877  30.881  11.766
13237W        W78398  31.982  35.999  11.546
13238W        W78399  41.370  36.373   4.415
13239W        W78400  14.791   1.440   2.603
13240W        W78401  15.123   2.985   1.998
13241W        W78402  35.678  20.284   2.327
13242W        W78403  33.485  37.370  11.028
13243W        W78404   8.454  43.297  13.119
13244W        W78405  33.830  26.672  13.646
13245W        W78406  29.574   3.566   5.107
13246W        W78407  29.142  40.454   9.849
13247W        W78408   8.406  41.734  14.041
13248W        W78409  20.544   5.416   1.826
13249W        W78410  14.139   8.731   2.586
13250W        W78411  19.596  12.568   2.127
13251W        W78412   4.123   3.492   1.942
13252W        W78413   1.461  29.506   1.190
13253W        W78414  40.929   3.674  12.002
13254W        W78415   7.289  39.864  11.165
13255W        W78416  28.836  33.084   2.004
13256W        W78417  30.595   8.483  13.392
13257W        W78418   5.272  13.000   4.273
13258W        W78419   4.201  19.541  10.729
13259W        W78420  39.559  22.114  11.521
13260W        W78421  16.239   1.206  13.884
13261W        W78422  26.490   9.653  10.331
13262W        W78423  35.771  41.157  11.173
13263W        W78424   1.707   0.801  10.745
13264W        W78425  43.645   1.470   4.165
13265W        W78426  26.604  39.507  14.039
13266W        W78427  26.672  28.499   2.203
13267W        W78428   6.174   2.306  13.747
13268W        W78429  40.587   2.001  13.899
13269W        W78430   6.732  42.486  13.497
13270W        W78431   4.498  43.490   0.931
13271W        W78432  23.769  20.428  14.355
13272W        W78433  22.389   8.895   0.539
13273W        W78434  27.403  13.738   0.544
13274W        W78435  32.841  11.703  12.964
13275W        W78436   9.709  28.624   4.774
13276W        W78437   7.365  43.435   1.327
13277W        W78438  35.584  11.744  14.535
13278W        W78439   8.599   5.392   0.402
13279W        W78440   5.382  23.660   1.795
13280W        W78441   9.284  44.951  11.213
13281W        W78442  36.105   8.696   1.302
13282W        W78443  11.764  24.667   3.246
13283W        W78444  14.753   4.121   1.288
13284W        W78445   2.962  12.393   2.795
13285W        W78446  43.484   2.251   1.358
13286W        W78447   1.799  20.195  14.734
13287W        W78448  40.067  32.525   1.685
13288W        W78449   1.785   6.235   2.404
13289W        W78450  40.401   4.490  14.936
13290W        W78451   2.281  15.116  14.322
13291W        W78452  31.150  33.541   0.175
13292W        W78453  43.258   9.765  14.982
13293W        W78454  28.014  30.848   3.173
13294W        W78455  20.073   0.401  10.632
13295W        W78456  44.452  18.363  12.891
13296W        W78457  32.429   3.906  14.013
13297W        W78458  38.892   4.008  12.631
13298W        W78459  15.146  26.919   3.885
13299W        W78460  37.293   7.138   4.819
13300W        W78461   2.900  27.869   2.855
13301W        W78462  18.823  24.560  12.465
13302W        W78463  17.323  35.609  13.102
13303W        W78464  20.509  39.532   2.792
13304W        W78465  22.763  14.585   4.127
13305W        W78466  12.843  24.045   3.770
13306W        W78467  42.313  30.575  12.420
13307W        W78468   2.458   2.019  13.868
13308W        W78469  39.735  11.625  14.626
13309W        W78470  24.496  28.969  12.839
13310W        W78471  44.389  12.681  14.782
13311W        W78472   2.174  17.866  11.243
13312W        W78473  16.373  34.670  14.955
13313W        W78474  42.082   4.209  10.915
13314W        W78475  27.956  21.724  10.875
13315W        W78476  26.435  25.609  14.874
13316W        W78477  15.900  10.142   5.036
13317W        W78478  18.250  26.109   2.224
13318W        W78479  12.847  36.269   1.383
13319W        W78480  33.532  43.042   1.367
13320W        W78481  25.935  36.979  12.312
13321W        W78482   5.672  33.046   3.728
13322W        W78483   0.494   8.747  12.519
13323W        W78484  42.257  43.666  11.139
13324W        W78485  37.068  39.547  12.041
13325W        W78486  43.155  42.523   4.548
13326W        W78487  38.998   0.143   3.645
13327W        W78488  24.372  41.988  11.454
13328W        W78489   2.904  30.086  13.534
13329W        W78490   8.975   5.946  12.272
13330W        W78491  17.127  19.684   4.566
13331W        W78492  30.017  11.141  12.179
13332W        W78493  23.352  34.038  13.608
13333W        W78494  14.732  17.045  12.069
13334W        W78495  28.419  14.283   0.439
13335W        W78496  20.008  36.154  10.164
13336W        W78497  16.913  31.816  14.505
13337W        W78498  40.350  19.106  10.628
13338W        W78499  30.963   9.170  11.080
13339W        W78500  17.604  44.573   0.094
13340W        W78501  29.469   3.030  12.998
13341W        W78502  43.907   3.883  11.459
13342W        W78503  32.016  31.663  11.201
13343W        W78504   3.328  25.760   9.611
13344W        W78505  37.146   5.730  13.250
13345W        W78506  35.214   2.512  14.540
13346W        W78507  41.365  31.858  13.454
13347W        W78508   2.695  40.969   3.993
13348W        W78509  20.968  35.596  13.217
13349W        W78510  10.767  37.328  14.587
13350W        W78511  38.749  17.681   3.547
13351W        W78512   5.435  36.090  10.641
13352W        W78513  37.512  35.560   0.210
13353W        W78514   0.571  17.155   3.321
13354W        W78515  13.176  15.435  13.381
13355W        W78516   8.597  35.074  11.946
13356W        W78517   5.657  22.790  10.631
13357W        W78518  29.462  42.416   2.371
13358W        W78519  38.364  29.465   2.141
13359W        W78520   9.796  34.684  12.659
13360W        W78521  15.839  12.249   4.035
13361W        W78522  11.202  30.943  13.768
13362W        W78523  34.862  24.271  10.687
13363W        W78524  13.621   3.793  13.100
13364W        W78525   0.374   6.938   2.739
13365W        W78526  28.884   0.328  11.630
13366W        W78527  21.085   8.640   2.938
13367W        W78528  24.961   2.791  14.363
13368W        W78529   5.890   7.220  13.997
13369W        W78530   4.946  17.235  10.760
13370W        W78531   4.771  14.368  12.408
13371W        W78532  22.975  39.700   5.381
13372W        W78533  13.108  35.958  12.973
13373W        W78534  30.744  42.385  11.910
13374W        W78535  36.576   4.778  12.087
13375W        W78536   6.620  38.351  14.544
13376W        W78537  43.653  15.220   2.711
13377W        W78538  29.761  36.254   1.223
13378W        W78539  38.595  15.153  12.604
13379W        W78540  10.296  34.946  11.863
13380W        W78541  11.892  31.413  11.266
13381W        W78542   4.412   3.903   1.961
13382W        W78543   2.413  34.126  14.032
13383W        W78544  31.125  12.574   4.748
13384W        W78545  24.211  11.146   1.474
13385W        W78546  28.697   7.290   3.701
13386W        W78547   2.755   8.248  13.575
13387W        W78548  38.847  42.463  11.638
13388W        W78549  43.553  27.022  11.871
13389W        W78550  44.132  12.854  13.826
13390W        W78551  24.563  14.302  11.577
13391W        W78552   7.792  37.515   2.901
13392W        W78553  28.151  36.309   2.080
13393W        W78554   5.323  32.641   4.138
13394W        W78555  31.079  14.729   4.304
13395W        W78556  40.306  38.422   1.903
13396W        W78557  16.385  32.320  12.472
13397W        W78558  19.789  24.891   1.368
13398W        W78559  12.821  35.038   2.781
13399W        W78560  40.873  31.340   2.318
13400W        W78561  14.245   7.225  12.573
13401W        W78562  12.302  24.710   1.911
13402W        W78563  23.488  41.576   1.949
13403W        W78564  40.311  15.259  14.799
13404W        W78565   8.207  26.645   5.010
13405W        W78566  16.601  18.548   3.237
13406W        W78567  34.500  41.996  11.163
13407W        W78568  11.295  36.660  12.852
13408W        W78569   3.437   1.781  10.118
13409W        W78570  44.836   2.932  13.841
13410W        W78571  18.192  31.307   2.226
13411W        W78572  13.650  27.140  13.014
13412W        W78573  15.572  37.939   2.879
13413W        W78574  12.737  17.409   1.943
13414W        W78575  19.280  35.648  12.383
13415W        W78576  40.770  24.737  11.263
13416W        W78577  20.679  39.926   9.716
13417W        W78578  35.994   3.666  14.689
13418W        W78579  44.726  44.272  11.978
13419W        W78580  25.512  29.910  13.517
13420W        W78581  35.014  29.628   4.833
13421W        W78582  28.001  42.228   2.725
13422W        W78583  11.154   9.657  12.189
13423W        W78584   6.689  35.935   2.175
13424W        W78585  21.228  15.896  13.868
13425W        W78586  33.671  27.574   0.064
13426W        W78587  37.214   2.515  14.773
13427W        W78588   8.434  17.376  13.026
13428W        W78589  27.471  11.458   3.255
13429W        W78590  25.166  25.411  13.812
13430W        W78591  25.857  30.078  11.106
13431W        W78592  24.939   3.917  11.072
13432W        W78593  14.204  22.011   0.375
13433W        W78594  35.850   0.606   2.677
13434W        W78595   2.941  22.028   1.321
13435W        W78596  37.938  38.851   2.254
13436W        W78597  12.081   8.663   3.624
13437W        W78598  42.048   3.495  13.076
13438W        W78599  41.403  27.045  13.961
13439W        W78600   9.833  10.915  13.596
13440W        W78601   5.924  33.535   0.768
13441W        W78602  24.595  27.052  11.157
13442W        W78603  24.398  23.598  11.634
13443W        W78604  22.703  39.544  12.263
13444W        W78605  29.361  16.054  14.031
13445W        W78606  11.393  34.018  14.387
13446W        W78607  28.835  34.598  11.867
13447W        W78608   1.282   0.736  12.398
13448W        W78609  42.576  34.437  11.869
13449W        W78610   8.823   5.816  11.313
13450W        W78611  21.162  29.068  12.899
13451W        W78612  10.087  30.897   4.565
13452W        W78613  42.734  12.913   3.743
13453W        W78614  16.666  15.736  11.088
13454W        W78615   9.356  43.705  12.360
13455W        W78616  24.838  14.538  13.536
13456W        W78617  37.575  26.482  10.262
13457W        W78618  25.899   0.844  12.051
13458W        W78619  11.885  18.263   5.179
13459W        W78620  33.167  13.344   2.317
13460W        W78621  11.688   7.287  12.889
13461W        W78622  44.509   4.349  12.983
13462W        W78623  40.795   5.568  13.336
13463W        W78624  21.161  26.942   2.811
13464W        W78625  26.089  38.992   2.526
13465W        W78626  32.697  32.576  12.924
13466W        W78627  17.519  39.638   1.393
13467W        W78628   8.098  21.536  11.079
13468W        W78629  31.723  13.880  11.986
13469W        W78630   2.012  38.521   3.585
13470W        W78631  21.046  37.484  12.213
13471W        W78632  31.690  22.187   2.696
13472W        W78633  17.784  30.970   2.237
13473W        W78634  29.201  16.922  14.168
13474W        W78635  16.329  28.136   0.738
13475W        W78636   0.231   5.255   3.197
13476W        W78637   9.192  36.557  14.016
13477W        W78638  33.495  42.054  13.584
13478W        W78639  20.498  36.933   3.691
13479W        W78640  31.390  16.104  12.687
13480W        W78641  34.900  33.999  10.650
13481W        W78642  11.282  33.568  13.554
13482W        W78643  36.148  26.252  12.546
13483W        W78644  20.661  12.826   3.277
13484W        W78645  22.900  29.459  12.873
13485W        W78646  30.531  29.875   1.010
13486W        W78647  43.372   1.021   0.399
13487W        W78648  32.917   5.258  14.926
13488W        W78649  15.520  19.820   3.671
13489W        W78650  42.537  10.231  11.326
13490W        W78651  22.055   8.831   3.673
13491W        W78652  14.672  24.057  10.558
13492W        W78653  14.741   4.744  14.369
13493W        W78654  14.342  12.036  10.630
13494W        W78655  41.036   7.896  13.594
13495W        W78656  24.950   2.055  12.820
13496W        W78657   0.981  18.135   2.299
13497W        W78658   8.910   5.635  13.098
13498W        W78659  15.846  16.939  14.626
13499W        W78660  29.876  19.858   4.568
13500W        W78661  20.663  37.404   5.008
13501W        W78662  41.291  32.062   2.611
13502W        W78663  33.596  13.892   4.544
13503W        W78664   7.812  10.529   4.154
13504W        W78665  39.339  14.883   3.681
13505W        W78666   2.955   7.093   1.766
13506W        W78667  42.343   1.920  10.540
13507W        W78668  42.278  23.217  10.715
13508W        W78669  44.914   3.243  13.064
13509W        W78670  20.185   4.182   3.850
13510W        W78671  32.718  32.864  10.750
13511W        W78672  19.720  13.365   0.299
13512W        W78673  36.287  14.718  12.898
13513W        W78674  27.750   1.974   1.844
13514W        W78675  11.917  27.476   0.093
13515W        W78676  24.074  10.744  14.432
13516W        W78677  29.557  30.126   0.261
13517W        W78678  24.226  42.384   2.681
13518W        W78679  22.491  23.465   0.848
13519W        W78680   8.574  22.577  11.158
13520W        W78681  41.204  43.197   4.974
13521W        W78682  23.716  33.906  10.747
13522W        W78683  10.863  15.814  12.117
13523W        W78684  41.801  42.333   1.509
13524W        W78685  20.633  44.088  10.654
13525W        W78686  38.024  24.100  11.240
13526W        W78687  33.337   4.020   5.038
13527W        W78688  34.133  19.301  13.687
13528W        W78689  39.275  15.690   2.762
13529W        W78690  32.440  18.060  13.290
13530W        W78691  39.931  36.960  11.811
13531W        W78692  41.438  20.131  10.688
13532W        W78693  44.169  33.924   1.524
13533W        W78694  32.608  22.517  11.208
13534W        W78695  22.734  35.256  14.178
13535W        W78696   2.600  32.980   1.176
13536W        W78697  38.949  26.232   1.907
13537W        W78698  18.113  22.991  12.042
13538W        W78699  10.760  35.982  13.392
13539W        W78700  39.052   5.261   2.349
13540W        W78701  29.357   8.529   1.772
13541W        W78702  24.485  42.378   3.158
13542W        W78703  18.933  15.601   5.439
13543W        W78704  25.328  16.262   2.436
13544W        W78705   8.707  19.790   2.284
13545W        W78706  25.203  23.059  10.688
13546W        W78707  21.962  30.347  13.817
13547W        W78708  38.727  43.321  14.123
13548W        W78709   5.531  35.898   3.648
13549W        W78710  11.919  37.746   3.734
13550W        W78711  36.561  40.954   1.400
13551W        W78712   6.235  20.432  11.101
13552W        W78713   2.383  13.370  10.730
13553W        W78714  39.369  44.926   4.484
13554W        W78715  35.871  12.121  10.587
13555W        W78716   9.598  24.989   3.264
13556W        W78717   4.150  34.699   0.862
13557W        W78718  15.133  18.996  13.847
13558W        W78719  13.601  32.650  12.659
13559W        W78720   0.461  13.891  14.275
13560W        W78721  43.042  32.957  13.913
13561W        W78722  40.387  39.035  10.779
13562W        W78723  22.597  40.028  12.107
13563W        W78724  19.104  21.294   0.220
13564W        W78725  14.561  10.807  14.913
13565W        W78726  23.539  33.828  12.721
13566W        W78727   7.804  28.501  10.625
13567W        W78728  39.345  18.602   2.273
13568W        W78729  11.754  16.024   2.284
13569W        W78730   1.379  15.179   1.229
13570W        W78731  31.060  34.490  11.583
13571W        W78732  37.003  38.524  12.269
13572W        W78733   1.541   8.681  12.756
13573W        W78734   0.648  11.967   1.294
13574W        W78735   3.906  17.184  12.508
13575W        W78736  22.922  30.536  12.003
13576W        W78737  22.173  10.200  10.701
13577W        W78738   7.890   6.718  11.093
13578W        W78739  36.621  17.689  12.492
13579W        W78740   8.649  25.648  12.448
13580W        W78741  11.432  42.364   4.889
13581W        W78742  15.198  28.563   3.904
13582W        W78743  25.033  37.519   2.202
13583W        W78744  36.510  14.801   1.997
13584W        W78745   8.546   7.239  10.791
13585W        W78746  14.642   2.815   2.195
13586W        W78747   7.173  34.418   0.372
13587W        W78748  10.443  22.706   3.069
13588W        W78749  31.156   1.623  12.880
13589W        W78750  44.310  23.999   1.759
13590W        W78751  24.523  16.605   3.707
13591W        W78752   2.929   6.449   4.153
13592W        W78753   3.369   4.749  13.691
13593W        W78754   3.797  40.351   3.529
13594W        W78755  14.423   4.919   1.872
13595W        W78756   3.702  27.443  13.606
13596W        W78757  21.171  34.917   1.373
13597W        W78758   3.500   1.237   0.391
13598W        W78759  12.638  18.823  13.868
13599W        W78760  35.696  31.848  12.912
13600W        W78761  17.220   5.335   1.391
13601W        W78762  12.338  35.445   1.752
13602W        W78763  18.714  32.191   4.132
13603W        W78764   7.239  26.513   2.361
13604W        W78765  27.198  12.172  13.589
13605W        W78766   3.869  39.060   0.899
13606W        W78767  37.863  38.330   2.058
13607W        W78768   2.395  19.068  13.903
13608W        W78769  24.464  19.394   4.376
13609W        W78770  29.472  39.325   0.888
13610W        W78771  42.084   6.541  10.000
13611W        W78772  10.575  40.759  10.730
13612W        W78773  22.213  37.385   3.362
13613W        W78774  42.403  23.134   4.583
13614W        W78775  37.600   8.891  13.345
13615W        W78776  40.445  32.160   0.449
13616W        W78777  40.376  28.406  12.998
13617W        W78778  13.444  21.104   2.294
13618W        W78779  11.326  12.859  13.341
13619W        W78780  39.086  24.255  11.123
13620W        W78781   6.618  18.176   1.883
13621W        W78782  29.977  24.062  14.009
13622W        W78783  10.141  22.062  14.482
13623W        W78784   9.011  23.727  12.063
13624W        W78785  42.242  12.585   0.669
13625W        W78786  23.605  39.936  14.309
13626W        W78787  28.542  33.584  11.886
13627W        W78788  23.110   1.054   4.173
13628W        W78789   9.627  42.882  14.577
13629W        W78790  13.306  39.468  12.165
13630W        W78791   8.704  44.139  12.978
13631W        W78792   3.899  43.000  14.260
13632W        W78793  17.830  43.486   2.670
13633W        W78794  22.928  17.623   9.581
13634W        W78795  27.359  44.269  11.169
13635W        W78796  18.262  42.524   4.188
13636W        W78797  30.963  26.618  13.521
13637W        W78798   0.857  31.714  13.567
13638W        W78799  23.455   2.337   3.627
13639W        W78800  18.971   5.984   1.385
13640W        W78801  17.143  29.389  12.617
13641W        W78802  40.644  42.346   3.062
13642W        W78803  43.304   1.306  12.909
13643W        W78804   7.716  19.626  12.627
13644W        W78805  27.951  27.525   1.232
13645W        W78806  35.925  34.948   3.169
13646W        W78807  40.538  17.992   2.769
13647W        W78808   7.806  29.171   4.058
13648W        W78809  38.979  34.108   0.950
13649W        W78810  43.525  44.229  10.596
13650W        W78811  18.759  26.379  14.269
13651W        W78812  24.047   4.517  14.796
13652W        W78813   1.666  41.874   1.489
13653W        W78814  27.932   9.472   1.657
13654W        W78815  12.985  28.910  12.248
13655W        W78816   9.853  27.062   0.771
13656W        W78817   6.893   0.050  11.527
13657W        W78818  30.381   0.964  13.289
13658W        W78819  16.812  30.552   3.770
13659W        W78820  12.727   4.602  11.956
13660W        W78821  41.547   2.978   4.484
13661W        W78822  31.895  11.315  10.617
13662W        W78823  21.251  21.722  12.099
13663W        W78824   5.230  25.805   1.209
13664W        W78825  21.159  36.790  12.507
13665W        W78826  15.730  39.376   1.779
13666W        W78827  10.186   7.241  13.965
13667W        W78828  28.131  42.795  10.710
13668W        W78829  10.958  35.962   0.447
13669W        W78830   1.514   1.763  11.460
13670W        W78831  31.883  10.764   2.374
13671W        W78832   5.905  39.442  14.427
13672W        W78833  35.328  38.822   2.881
13673W        W78834  27.440   7.192  13.048
13674W        W78835  44.722  24.415   4.369
13675W        W78836  42.267  38.124  14.281
13676W        W78837   4.255   1.510   3.795
13677W        W78838  24.459  24.845   1.319
13678W        W78839   3.430  13.538  12.876
13679W        W78840  25.521  37.064   1.449
13680W        W78841   7.417  28.665  14.825
13681W        W78842   7.305  11.023  10.333
13682W        W78843  11.139  29.132  12.505
13683W        W78844  22.984  40.980  13.431
13684W        W78845  17.481  16.232   1.639
13685W        W78846  23.122   3.248   0.505
13686W        W78847  16.526  19.816  13.439
13687W        W78848  36.270   8.741  13.761
13688W        W78849  34.513  34.941  13.263
13689W        W78850   5.831  38.582   3.712
13690W        W78851  39.109  38.835   0.282
13691W        W78852  31.623  17.218  14.807
13692W        W78853  14.753  13.970  11.160
13693W        W78854  22.016  18.806   2.889
13694W        W78855  27.282   9.156   3.861
13695W        W78856  26.296  29.037  12.229
13696W        W78857  20.586  10.219   2.807
13697W        W78858  18.898   1.691   3.280
13698W        W78859  38.314  42.918   2.362
13699W        W78860   7.704  35.143  11.686
13700W        W78861  11.179   6.540  11.924
13701W        W78862  16.726  12.101  11.178
13702W        W78863  43.338  35.957  13.585
13703W        W78864  31.507  23.119   2.880
13704W        W78865  15.799  27.952  10.643
13705W        W78866  39.524   3.566  13.233
13706W        W78867  43.784   0.477  11.202
13707W        W78868  27.164   5.803  12.251
13708W        W78869  40.345  24.988  10.364
13709W        W78870  21.497  33.954  14.712
13710W        W78871  33.073   4.766   0.911
13711W        W78872   7.543  19.305  12.269
13712W        W78873   5.232   9.176  13.991
13713W        W78874   2.767  37.985   4.199
13714W        W78875  40.020  23.044   4.729
13715W        W78876  17.247   7.672  13.388
13716W        W78877   6.469  20.195  10.716
13717W        W78878   5.235   4.819   4.458
13718W        W78879  33.591  27.472   2.761
13719W        W78880  38.127   9.776   4.044
13720W        W78881  33.602  40.041  11.681
13721W        W78882  30.018  33.035  14.503
13722W        W78883  29.597  44.241   0.924
13723W        W78884  11.618   2.115   5.111
13724W        W78885  27.466  36.910   4.917
13725W        W78886   7.512  24.922  10.698
13726W        W78887  26.071  35.379   1.495
13727W        W78888  44.879  23.862  12.227
13728W        W78889  22.396  18.704  12.935
13729W        W78890  31.523  26.392   1.433
13730W        W78891  37.650  24.461  11.252
13731W        W78892  25.244  43.238  10.713
13732W        W78893  28.970  33.185  11.133
13733W        W78894   6.669   3.699   3.551
13734W        W78895  22.483  32.476  13.936
13735W        W78896  42.442  25.222  12.484
13736W        W78897  43.744  41.973  13.437
13737W        W78898  24.245  33.972  14.066
13738W        W78899  18.339  42.267   0.662
13739W        W78900  37.717  20.036   0.724
13740W        W78901   4.173  33.232   3.473
13741W        W78902   5.225  22.716   0.754
13742W        W78903   1.597  24.981   0.255
13743W        W78904  15.514  20.979   5.032
13744W        W78905  18.718   5.967  13.885
13745W        W78906  17.139  43.825  12.760
13746W        W78907  13.560  13.070   4.191
13747W        W78908  13.948  41.657  14.288
13748W        W78909   7.249  17.032  11.151
13749W        W78910  32.776  43.311  13.023
13750W        W78911  38.890  27.302   2.865
13751W        W78912   7.453   4.678  14.786
13752W        W78913  13.910  20.901   3.218
13753W        W78914  14.593  11.877   2.569
13754W        W78915  11.805  32.590   0.687
13755W        W78916  10.122  32.864  13.892
13756W        W78917  31.102  29.900  14.417
13757W        W78918  39.641  12.674  11.752
13758W        W78919  21.698  15.543   1.242
13759W        W78920  16.159  21.058   0.406
13760W        W78921  39.134  38.082  14.367
13761W        W78922  30.084  33.532  14.308
13762W        W78923   2.770  16.033   0.956
13763W        W78924  25.167   4.389  14.475
13764W        W78925  17.341  20.031   1.638
13765W        W78926  16.745  43.011  14.944
13766W        W78927  29.860  40.406  10.646
13767W        W78928  30.111   6.326  10.783
13768W        W78929  42.322  33.600  12.918
13769W        W78930   2.280  26.044  14.991
13770W        W78931  36.571  24.150   0.447
13771W        W78932   8.834   3.619  12.472
13772W        W78933  10.855  22.353   2.973
13773W        W78934  42.917  39.356  13.532
13774W        W78935  22.261  18.348   2.849
13775W        W78936   3.459  27.949   2.422
13776W        W78937  16.093   7.291  13.239
13777W        W78938   3.449  23.436   3.317
13778W        W78939  34.381  34.555  12.348
13779W        W78940  42.049   0.091  13.767
13780W        W78941  33.351  35.542   0.714
13781W        W78942  27.265  17.679   2.237
13782W        W78943   5.843  36.910   1.743
13783W        W78944   7.728  41.799  12.114
13784W        W78945  23.802   0.417   3.246
13785W        W78946   0.659  42.211  10.610
13786W        W78947  32.145  29.189   0.330
13787W        W78948  18.469   7.422  11.399
13788W        W78949  20.895  32.013   1.878
13789W        W78950  33.912   8.357   4.377
13790W        W78951   0.683  34.022  13.091
13791W        W78952  41.950  35.384  13.294
13792W        W78953   7.799  40.311  11.842
13793W        W78954  19.351  22.506  10.715
13794W        W78955  18.276  18.650  11.406
13795W        W78956  15.598   9.414   2.340
13796W        W78957   4.218  30.757   2.379
13797W        W78958  37.022   1.757  11.887
13798W        W78959  43.763  28.030  13.442
13799W        W78960   9.177  36.573   2.967
13800W        W78961  23.047  33.620  13.434
13801W        W78962  30.612  21.148   4.904
13802W        W78963   5.417  27.577   1.505
13803W        W78964  14.839   5.980  10.940
13804W        W78965  43.871  13.156  14.196
13805W        W78966   2.317  16.525   2.061
13806W        W78967  41.599  27.391  12.741
13807W        W78968  31.054  18.654  12.525
13808W        W78969  18.589   8.256   4.576
13809W        W78970   8.828  33.955   1.897
13810W        W78971  26.561  29.708  14.848
13811W        W78972  40.223  32.862   4.216
13812W        W78973  32.624  22.625   1.383
13813W        W78974  30.852  21.136   1.538
13814W        W78975  30.121   4.317  11.934
13815W        W78976  43.027  35.476  12.054
13816W        W78977  27.163  44.511   1.895
13817W        W78978  25.493  24.717  13.780
13818W        W78979  27.680  42.091   0.401
13819W        W78980  38.878  37.371   3.412
13820W        W78981   9.899  41.525   2.196
13821W        W78982  29.973  13.105  13.410
13822W        W78983  25.253  19.060   1.969
13823W        W78984  33.925  25.960  12.861
13824W        W78985  15.185  12.181  14.523
13825W        W78986   5.113   9.680  13.993
13826W        W78987  24.692  43.446  13.442
13827W        W78988  25.479  38.849  11.725
13828W        W78989  41.974   8.237  13.952
13829W        W78990  19.387  40.088  13.450
13830W        W78991  42.011  43.014  13.048
13831W        W78992  12.123  37.431   4.087
13832W        W78993  12.068  18.679   3.453
13833W        W78994  16.176   6.282  11.182
13834W        W78995  28.894  10.130   2.864
13835W        W78996  22.317  20.694  11.698
13836W        W78997   0.531  13.430   1.241
13837W        W78998  28.947  34.362  10.562
13838W        W78999  41.460  17.161  11.925
13839W        W79000  29.054  10.690  12.848
13840W        W79001  12.896  41.903  12.642
13841W        W79002  30.649   3.557  13.944
13842W        W79003  36.599   8.167  14.939
13843W        W79004   6.449  18.065  13.040
13844W        W79005  11.070  31.872   3.443
13845W        W79006   3.870  12.729  12.590
13846W        W79007  29.775  16.306   0.319
13847W        W79008  22.145  23.619   1.824
13848W        W79009  13.260   2.909  11.935
13849W        W79010  11.351  44.969   1.298
13850W        W79011  30.450  37.545  10.735
13851W        W79012  36.315  39.626   9.823
13852W        W79013  28.585  44.830   4.152
13853W        W79014  26.433  21.686  11.725
13854W        W79015  43.345  31.991  11.971
13855W        W79016  27.080   4.195  13.342
13856W        W79017  37.182  20.770   0.295
13857W        W79018  39.257  36.966  14.554
13858W        W79019  38.952  13.378   2.898
13859W        W79020  31.981  20.619  10.964
13860W        W79021  24.135  16.481   3.308
13861W        W79022  21.022  38.035   0.764
13862W        W79023  40.276   4.174  12.796
13863W        W79024  23.411   3.422   1.345
13864W        W79025  29.583  37.602  13.515
13865W        W79026  38.009  16.620  12.325
13866W        W79027  22.598   3.709   1.027
13867W        W79028   9.794   2.782  13.885
13868W        W79029  14.196  43.016   1.350
13869W        W79030  17.910  20.224  14.753
13870W        W79031   7.359  32.483  10.750
13871W        W79032   1.486  30.045   0.441
13872W        W79033   1.294  14.367   0.733
13873W        W79034  11.218  17.695   2.690
13874W        W79035  19.555   8.313  14.129
13875W        W79036  27.770   5.728   1.487
13876W        W79037  35.181  34.922   0.382
13877W        W79038  20.023  16.626   0.898
13878W        W79039   1.348  12.135   9.646
13879W        W79040  16.831  22.742  11.591
13880W        W79041  21.549  10.732  12.538
13881W        W79042  25.765   9.372   1.397
13882W        W79043   7.732   3.796   1.038
13883W        W79044  13.830  11.021  13.416
13884W        W79045  29.075  27.752   2.026
13885W        W79046  39.026   9.608  11.983
13886W        W79047  38.158  40.837  11.655
13887W        W79048  24.779  28.187   2.697
13888W        W79049  26.106   4.076  10.625
13889W        W79050  37.051  18.540  14.562
13890W        W79051  22.521   0.477  10.758
13891W        W79052  31.710  25.666  12.025
13892W        W79053   3.504  17.942  12.104
13893W        W79054   0.044  33.395  14.399
13894W        W79055  21.583   9.113   0.506
13895W        W79056  15.832  35.369  13.332
13896W        W79057  17.279  19.939  12.429
13897W        W79058  29.442  29.121   4.692
13898W        W79059  36.323  11.437   0.773
13899W        W79060  31.875   2.540   1.283
13900W        W79061  15.802  31.082   0.160
13901W        W79062  14.601  34.155  12.573
13902W        W79063   2.271  26.283  13.631
13903W        W79064  34.940  38.078   0.739
13904W        W79065  32.170  22.190   1.794
13905W        W79066  36.050  41.780  11.594
13906W        W79067  22.230   4.948  10.650
13907W        W79068   6.587  38.005  12.461
13908W        W79069  29.697  14.862  13.346
13909W        W79070  28.745  19.168   4.794
13910W        W79071  13.425   3.288   5.329
13911W        W79072  12.842   7.753  14.835
13912W        W79073  33.434  37.650   4.536
13913W        W79074   3.371  23.361   2.803
13914W        W79075   2.116  35.846  11.764
13915W        W79076  14.299  43.927   4.684
13916W        W79077  18.282  30.470  12.533
13917W        W79078  29.956  41.666  11.033
13918W        W79079  34.936   4.692  11.695
13919W        W79080  26.830  23.292   0.311
13920W        W79081  38.497   5.933  12.456
13921W        W79082   1.032   7.400  14.276
13922W        W79083   5.612  11.690   9.659
13923W        W79084   3.642   5.580  14.397
13924W        W79085  14.387  23.645   3.632
13925W        W79086  36.529  14.061   9.884
13926W        W79087   7.101   7.203  12.049
13927W        W79088   5.220  30.071  13.450
13928W        W79089  37.147  41.079   2.313
13929W        W79090  19.121  39.209   4.508
13930W        W79091  17.320  16.654   0.305
13931W        W79092  16.895   8.972  12.113
13932W        W79093  30.902  20.170  10.603
13933W        W79094  16.260  41.307  10.722
13934W        W79095  44.012  33.358   3.293
13935W        W79096  11.304   7.746   1.366
13936W        W79097  27.247   5.201   3.223
13937W        W79098  40.365  40.502   1.719
13938W        W79099   0.763   8.347   0.430
13939W        W79100   2.859  21.674  12.800
13940W        W79101   9.648  41.400  12.437
13941W        W79102  25.876  10.544   4.077
13942W        W79103  26.829  16.348   2.903
13943W        W79104  22.056  31.761   1.271
13944W        W79105  36.965   2.199   1.689
13945W        W79106   4.399   8.607  11.100
13946W        W79107   7.633   4.957  14.374
13947W        W79108  31.028  24.655   4.497
13948W        W79109  43.443   8.197   0.305
13949W        W79110  11.459  41.813  13.017
13950W        W79111  32.074  41.471   2.847
13951W        W79112   5.469  19.684   3.785
13952W        W79113  11.854  28.696   1.441
13953W        W79114   1.097   3.487   0.966
13954W        W79115  44.983  27.771  14.498
13955W        W79116  14.601  42.463  11.198
13956W        W79117   0.693  21.040   3.800
13957W        W79118  30.506  31.942  12.066
13958W        W79119  31.359  17.288  13.504
13959W        W79120  38.540  13.305   4.112
13960W        W79121   5.234  33.115   4.316
13961W        W79122  38.314  14.921   2.230
13962W        W79123  36.122  28.725  12.414
13963W        W79124   9.843   1.882  10.897
13964W        W79125  26.971  35.878   1.722
13965W        W79126  28.536  19.590  12.371
13966W        W79127   5.920  19.076  13.581
13967W        W79128  12.290  25.161  13.604
13968W        W79129   5.178  34.625  12.130
13969W        W79130  33.952  33.600  11.927
13970W        W79131  12.312  13.685  12.604
13971W        W79132   4.109   6.334   0.188
13972W        W79133  33.587  18.016  11.579
13973W        W79134   5.513  17.592   4.580
13974W        W79135   6.716  43.127  11.696
13975W        W79136   3.036  22.116  11.106
13976W        W79137  36.410  23.920   2.965
13977W        W79138  13.057  31.650  12.842
13978W        W79139   8.957   1.880  14.007
13979W        W79140  20.526  25.706   0.952
13980W        W79141  37.961  35.463  14.945
13981W        W79142  23.954  37.865   2.926
13982W        W79143  12.305  10.127  14.988
13983W        W79144  18.504  32.050   4.932
13984W        W79145  21.238   9.064  12.108
13985W        W79146  32.513  39.593  12.380
13986W        W79147  35.425  35.171  11.048
13987W        W79148   6.325   5.627   1.700
13988W        W79149  31.402  19.563  10.609
13989W        W79150   3.998  39.816   2.888
13990W        W79151  22.292  41.565   0.330
13991W        W79152  32.017  35.819   0.707
13992W        W79153   5.008  22.719   4.891
13993W        W79154  32.488  36.358   2.818
13994W        W79155  24.638  37.197   0.925
13995W        W79156  22.675  37.744   2.761
13996W        W79157  36.454  38.263   1.413
13997W        W79158   3.705   8.378  14.996
13998W        W79159  18.108  12.258   1.468
13999W        W79160   8.453  12.312  13.860
14000W        W79161  35.935  13.368  12.238
14001W        W79162  39.962   5.036  11.212
14002W        W79163   3.544  14.259  11.622
14003W        W79164  29.165   8.713   0.389
14004W        W79165  28.212  18.268  13.366
14005W        W79166   0.194   0.048   2.512
14006W        W79167  43.803  20.793  14.927
14007W        W79168   4.325  43.745  12.369
14008W        W79169   2.597   0.847   2.663
14009W        W79170   8.364  17.439   1.070
14010W        W79171  23.559  33.522  13.416
14011W        W79172  44.310  10.560   4.207
14012W        W79173  29.117  43.537  12.346
14013W        W79174   0.599   7.269  13.965
14014W        W79175  36.044  29.859  11.146
14015W        W79176  29.149   0.494  11.245
14016W        W79177  39.011  13.153   0.498
14017W        W79178  13.139   4.985  14.967
14018W        W79179  11.304   6.590  13.329
14019W        W79180  28.494  34.497   0.892
14020W        W79181  29.002  29.455  13.398
14021W        W79182  11.935  36.036   2.773
14022W        W79183  15.321  10.206  13.952
14023W        W79184  38.853   2.801  13.995
14024W        W79185  44.446  33.198   0.326
14025W        W79186   3.397  32.544   3.652
14026W        W79187  20.672  16.126  13.331
14027W        W79188  21.688  21.797  14.971
14028W        W79189  12.235   2.746  13.513
14029W        W79190   6.409  41.248  11.598
14030W        W79191  11.184  14.019  14.483
14031W        W79192   7.789  32.963   3.192
14032W        W79193  20.253  41.810  11.654
14033W        W79194  25.196   1.811   3.361
14034W        W79195  32.430  32.203   3.039
14035W        W79196  39.671  24.586  11.418
14036W        W79197   9.640  29.899  14.740
14037W        W79198   8.420  26.420  12.943
14038W        W79199  38.828  30.161  13.159
14039W        W79200  20.409  28.276   2.094
14040W        W79201  30.591  34.878   3.665
14041W        W79202  31.332  11.375  12.570
14042W        W79203  13.320   4.779   4.612
14043W        W79204  22.704  12.688   1.077
14044W        W79205   6.709   9.190   1.155
14045W        W79206   1.827  36.523   4.782
14046W        W79207  31.280  13.051  10.932
14047W        W79208  44.005   6.963   4.242
14048W        W79209   5.698  19.187   1.289
14049W        W79210   6.883   6.473  11.820
14050W        W79211  42.294  30.419  10.722
14051W        W79212  30.962  10.206   2.963
14052W        W79213   3.715  23.573  10.937
14053W        W79214  35.585   0.820  12.089
14054W        W79215   5.473   5.855   2.905
14055W        W79216  24.225  32.217  10.943
14056W        W79217  41.458  36.420  14.493
14057W        W79218  35.568  34.554   3.728
14058W        W79219   5.441  12.426  10.667
14059W        W79220  31.157  19.127  12.267
14060W        W79221  12.077  35.127  12.475
14061W        W79222   8.121  28.372   0.378
14062W        W79223  42.711   0.918   3.737
14063W        W79224  11.751  18.272  10.782
14064W        W79225   5.182  14.285   0.303
14065W        W79226   5.146  21.608  14.311
14066W        W79227  13.155  40.570   1.673
14067W        W79228  30.679  38.065  12.937
14068W        W79229  41.461   8.764   3.228
14069W        W79230  15.362  11.319  10.706
14070W        W79231  26.631  28.975   2.373
14071W        W79232  18.271  38.490  13.035
14072W        W79233  35.217   3.918   2.763
14073W        W79234  40.925  26.162  14.003
14074W        W79235  22.448  29.183   2.821
14075W        W79236   7.405  35.474   1.983
14076W        W79237  12.727   2.228  13.990
14077W        W79238  35.912  29.125  12.674
14078W        W79239   8.679   2.442  11.968
14079W        W79240  30.430  10.094  10.724
14080W        W79241  17.272   6.855   3.738
14081W        W79242  21.857   4.668   2.951
14082W        W79243  19.749  18.998  14.280
14083W        W79244  34.429  25.844  13.969
14084W        W79245  40.251  13.870  11.659
14085W        W79246   4.470  34.461  13.500
14086W        W79247   9.121  17.645  11.498
14087W        W79248  20.659  38.194  13.535
14088W        W79249   2.855  19.078  11.117
14089W        W79250   0.690  10.571  10.209
14090W        W79251  27.514  40.207   4.859
14091W        W79252   1.853   4.905  13.861
14092W        W79253  40.845  32.599   2.597
14093W        W79254  41.357  36.585  11.397
14094W        W79255  21.279  41.084  13.946
14095W        W79256   4.664  10.332   0.382
14096W        W79257  27.096  23.764   0.712
14097W        W79258  11.409  27.458  13.431
14098W        W79259  28.102  22.526   0.761
14099W        W79260   4.235   1.727   2.841
14100W        W79261  17.142  11.109  10.435
14101W        W79262  30.636  43.888  12.379
14102W        W79263  10.113  44.683   3.616
14103W        W79264   5.834  28.532  14.797
14104W        W79265   6.068  26.976   2.541
14105W        W79266  30.566  43.644   3.311
14106W        W79267   8.845  23.779   2.402
14107W        W79268   0.688  37.303   1.951
14108W        W79269  43.734  18.597   0.290
14109W        W79270  30.711  42.134  10.236
14110W        W79271  25.217  31.088  12.120
14111W        W79272  26.060  16.272  11.700
14112W        W79273  37.281  35.934  14.069
14113W        W79274  44.950  39.808  10.580
14114W        W79275  39.739  32.705   2.100
14115W        W79276  39.075  10.738  13.881
14116W        W79277   2.681   7.987  11.582
14117W        W79278  40.963   7.203  14.218
14118W        W79279  18.572   3.867   4.119
14119W        W79280   4.732   5.361  12.365
14120W        W79281   6.693   8.649   4.206
14121W        W79282  23.117  17.524  13.841
14122W        W79283  21.067  27.415  11.721
14123W        W79284  13.836  12.859   4.634
14124W        W79285  20.222  28.758  13.030
14125W        W79286   0.477  20.179   0.913
14126W        W79287  15.505  31.542   1.330
14127W        W79288  41.558  27.955  10.706
14128W        W79289  11.243  40.807  12.836
14129W        W79290  30.623   6.614   1.340
14130W        W79291  11.420   3.631   4.132
14131W        W79292  36.973   4.298   3.752
14132W        W79293  37.068   2.397  13.028
14133W        W79294  22.013  30.991   0.256
14134W        W79295   1.912   9.187   4.607
14135W        W79296  30.482   8.971   2.270
14136W        W79297  37.877   7.283   2.265
14137W        W79298   4.310   0.263  12.628
14138W        W79299   8.841  42.902   0.941
14139W        W79300  23.434  15.393   2.657
14140W        W79301  20.950  37.555  14.313
14141W        W79302  31.063   8.216  11.055
14142W        W79303  32.991  12.392  12.595
14143W        W79304  11.668  19.019   3.675
14144W        W79305  26.264  43.034  12.471
14145W        W79306  24.985  43.396  14.101
14146W        W79307  24.479  36.155  14.407
14147W        W79308  19.251  11.846  14.486
14148W        W79309  40.007  39.099   3.327
14149W        W79310  25.149  22.169   0.544
14150W        W79311  18.598  14.284  12.592
14151W        W79312  29.132   5.323  14.278
14152W        W79313  34.591  24.626  12.000
14153W        W79314  17.832  27.011   1.230
14154W        W79315   3.513   4.257  11.662
14155W        W79316  34.090  15.577   3.293
14156W        W79317   2.399  10.259   9.848
14157W        W79318  16.576  16.248  12.492
14158W        W79319  35.651  36.725  14.315
14159W        W79320  36.727   8.414   1.743
14160W        W79321  30.217  35.931   3.185
14161W        W79322  32.509  23.690   3.573
14162W        W79323   0.965  19.240   3.107
14163W        W79324  26.256  17.986  11.050
14164W        W79325  14.961   8.738   2.179
14165W        W79326  10.433  28.983  13.832
14166W        W79327  44.664  35.911   4.080
14167W        W79328  10.394  24.113  11.127
14168W        W79329  35.615  14.204  11.671
14169W        W79330  33.594  39.908  13.544
14170W        W79331  37.352  20.536  14.836
14171W        W79332  41.761   5.796   2.802
14172W        W79333   0.478  11.573   2.700
14173W        W79334   4.802  36.086  13.102
14174W        W79335  42.758  20.010   3.683
14175W        W79336  11.208   1.162  12.025
14176W        W79337  23.604   7.637   2.894
14177W        W79338  26.554  24.299   0.407
14178W        W79339  36.553  39.587   1.801
14179W        W79340  28.460   1.777  13.819
14180W        W79341   2.167   6.706  13.961
14181W        W79342  25.305   7.404   3.002
14182W        W79343  38.811  27.947   3.576
14183W        W79344  13.373  22.924   2.181
14184W        W79345  29.998  27.922   0.363
14185W        W79346   7.882  14.863   0.716
14186W        W79347  42.715   2.116  10.857
14187W        W79348  19.515  41.324   0.519
14188W        W79349  14.072  36.530   2.237
14189W        W79350  32.842  44.869  14.886
14190W        W79351  43.804  16.237   1.866
14191W        W79352  31.743  32.729  11.679
14192W        W79353  11.754  18.431  14.140
14193W        W79354  14.583  31.537  13.398
14194W        W79355  10.357  25.047   4.136
14195W        W79356   8.130  37.529   3.339
14196W        W79357  18.248  32.605   1.855
14197W        W79358  37.402  31.181  12.108
14198W        W79359  43.922  12.904  10.105
14199W        W79360  21.062  10.685  13.862
14200W        W79361  32.065  11.870   1.678
14201W        W79362  33.573   2.880  14.091
14202W        W79363  10.920   7.588   0.399
14203W        W79364  21.271  17.272  11.572
14204W        W79365  16.864   7.924   4.080
14205W        W79366  21.753  39.467  13.442
14206W        W79367  19.198  15.052  11.493
14207W        W79368  16.404   0.194  12.483
14208W        W79369  25.580   1.422   3.113
14209W        W79370  15.172  26.183  10.976
14210W        W79371  36.632  15.130   1.427
14211W        W79372  13.594  10.265   2.337
14212W        W79373  29.494  33.841  11.823
14213W        W79374  17.883  22.277  12.393
14214W        W79375  40.913   7.181   2.633
14215W        W79376   3.765  15.592  13.999
14216W        W79377   4.742  14.103   2.671
14217W        W79378   7.677  14.177   4.769
14218W        W79379  18.035  11.684  14.036
14219W        W79380  30.453  20.748  12.459
14220W        W79381  13.220  33.024   1.114
14221W        W79382  38.875  31.093  13.616
14222W        W79383   6.508   9.106   2.926
14223W        W79384  28.088  10.318   2.227
14224W        W79385  20.592   7.677  11.650
14225W        W79386  27.539  37.860   3.873
14226W        W79387  10.719  39.788   4.170
14227W        W79388   8.347  22.669  10.674
14228W        W79389   8.604  19.782  12.939
14229W        W79390  14.734  37.760  12.166
14230W        W79391  30.226   5.763   1.300
14231W        W79392  38.998   7.832   2.648
14232W        W79393  25.024  41.381  12.819
14233W        W79394   5.016   8.034   4.181
14234W        W79395  36.437  13.893  11.925
14235W        W79396   9.394   3.150   4.198
14236W        W79397   2.670  31.554  13.720
14237W        W79398  14.333  40.884  14.494
14238W        W79399  18.529  42.322   2.807
14239W        W79400  12.335  36.380  13.345
14240W        W79401  35.353  11.773   0.875
14241W        W79402  37.175   2.442   0.663
14242W        W79403   0.030  42.848   5.472
14243W        W79404  13.551  23.636  13.922
14244W        W79405  21.318  21.216  12.039
14245W        W79406  14.696  43.280   1.342
14246W        W79407  34.981  13.127  12.338
14247W        W79408  41.568   4.354   0.923
14248W        W79409  23.132  12.576   1.333
14249W        W79410   8.222  17.588  13.474
14250W        W79411  20.523   6.838   0.326
14251W        W79412  20.171  39.130  12.304
14252W        W79413  21.626  33.799  13.441
14253W        W79414  38.495  42.491  13.902
14254W        W79415  36.828  38.567   1.192
14255W        W79416  20.589  44.808   2.839
14256W        W79417  16.237  24.308   2.705
14257W        W79418  35.815  14.586  12.733
14258W        W79419  38.317   3.866   0.263
14259W        W79420  35.372  27.132  12.210
14260W        W79421  23.216  10.421  14.401
14261W        W79422  18.822  15.286   4.157
14262W        W79423  26.520  18.618  11.602
14263W        W79424  24.574  34.926  12.404
14264W        W79425   3.855   8.824   4.240
14265W        W79426  16.394   7.837  13.571
14266W        W79427  11.302  21.345  13.785
14267W        W79428  37.992   6.775   2.359
14268W        W79429  31.128  30.272   2.596
14269W        W79430  29.150  41.382   4.653
14270W        W79431   6.436  12.761   1.863
14271W        W79432  44.017  29.151  11.569
14272W        W79433  18.667  11.872   2.821
14273W        W79434  44.035  17.154  14.965
14274W        W79435  30.593   4.549  13.171
14275W        W79436  20.069  38.810   3.814
14276W        W79437  12.762  17.546   2.793
14277W        W79438  22.986  28.910  14.787
14278W        W79439   5.856  34.198   0.438
14279W        W79440  28.044   9.635   0.839
14280W        W79441  15.922  28.030   2.890
14281W        W79442  32.641   0.983   3.400
14282W        W79443  31.046  24.419  12.971
14283W        W79444  23.957  17.148   4.003
14284W        W79445   4.748  39.821  13.788
14285W        W79446  17.576  30.544   2.760
14286W        W79447  14.157   4.649   2.275
14287W        W79448  17.577  25.060   3.140
14288W        W79449  26.978  21.022  12.850
14289W        W79450  16.850  16.631   0.651
14290W        W79451  24.098  14.381   0.811
14291W        W79452   5.925  38.908  11.886
14292W        W79453  11.566  34.862  13.820
14293W        W79454  24.312  21.216  14.917
14294W        W79455  41.944  11.288   3.367
14295W        W79456  10.821  43.501  10.965
14296W        W79457   7.429  41.505   2.640
14297W        W79458   0.175  36.959  12.164
14298W        W79459  10.652  29.997   3.753
14299W        W79460  22.424  21.723   2.863
14300W        W79461  36.314  13.530  13.721
14301W        W79462  12.346  33.353   1.388
14302W        W79463  15.350   4.917   1.722
14303W        W79464   0.386  44.813  12.115
14304W        W79465  28.124   5.775  10.168
14305W        W79466  36.346  23.199  10.794
14306W        W79467  32.888  16.517   4.195
14307W        W79468   4.828  13.068   2.578
14308W        W79469   2.205  27.805  11.658
14309W        W79470   7.219  16.746   4.160
14310W        W79471  18.177   2.531   4.848
14311W        W79472   4.308   6.871   4.134
14312W        W79473  14.770  40.546   3.049
14313W        W79474   2.855  34.408  13.915
14314W        W79475   2.343   0.008  11.046
14315W        W79476  14.811   3.620   1.224
14316W        W79477  24.081  28.874   2.787
14317W        W79478  40.000  36.398  14.831
14318W        W79479  19.201  41.130  10.689
14319W        W79480  36.928  32.932   1.306
14320W        W79481  20.561  24.095   4.291
14321W        W79482  43.337  21.987   0.953
14322W        W79483  44.299  34.866  11.957
14323W        W79484   2.536  31.631   4.268
14324W        W79485  17.072  30.970  11.894
14325W        W79486  40.493  32.069  11.415
14326W        W79487  22.211  28.614  14.268
14327W        W79488  33.920  35.439  12.748
14328W        W79489  44.802   0.734   3.671
14329W        W79490   0.978  13.376   0.249
14330W        W79491   5.223  25.528  13.664
14331W        W79492  39.363  25.529  14.310
14332W        W79493  27.974   2.308  14.880
14333W        W79494  33.415  10.696   1.601
14334W        W79495  34.587  39.981  13.407
14335W        W79496  11.864  34.601   2.304
14336W        W79497  21.854  13.998  10.740
14337W        W79498  25.487  24.574   2.093
14338W        W79499  37.137  36.861   1.368
14339W        W79500   2.920  33.451   3.705
14340W        W79501  14.798  14.667   0.716
14341W        W79502   6.370  20.733   1.154
14342W        W79503  17.226   3.376  10.984
14343W        W79504   6.161   4.251  14.375
14344W        W79505  30.149  11.720  13.351
14345W        W79506  17.293  18.107   4.546
14346W        W79507  21.768  36.428   4.832
14347W        W79508   0.420  11.958  14.375
14348W        W79509  32.845  32.602  11.864
14349W        W79510  39.338  41.117  14.734
14350W        W79511  21.008  44.727   1.406
14351W        W79512  24.093  18.487   1.217
14352W        W79513  24.652  38.695   2.719
14353W        W79514   0.651   4.691  10.790
14354W        W79515   7.874  37.561   1.615
14355W        W79516  35.350  30.813   0.647
14356W        W79517  14.845  10.327  11.648
14357W        W79518  32.201  35.121   3.328
14358W        W79519   4.882  43.027  10.824
14359W        W79520  43.499  37.226   1.334
14360W        W79521  28.161  26.052   1.333
14361W        W79522  36.876  33.317   3.275
14362W        W79523   8.875  34.559   0.754
14363W        W79524  39.830  24.578   4.089
14364W        W79525  24.199  40.810  13.063
14365W        W79526  41.806  20.734   0.689
14366W        W79527  17.805  21.213   2.787
14367W        W79528  25.035   5.458   3.685
14368W        W79529  26.535  22.916   5.363
14369W        W79530  16.116   4.872  12.765
14370W        W79531  26.623  16.520  10.627
14371W        W79532  26.425   7.366  11.141
14372W        W79533  40.751  26.619  13.355
14373W        W79534  26.206  41.858   2.127
14374W        W79535  29.386  13.245  10.290
14375W        W79536  43.684  12.711  11.214
14376W        W79537  21.939  38.918   3.738
14377W        W79538  30.069  17.901  12.113
14378W        W79539  31.638  37.332   1.559
14379W        W79540  13.210  39.659   2.316
14380W        W79541   7.923  11.819  14.258
14381W        W79542  23.518  36.574  11.631
14382W        W79543  20.182  30.133  13.909
14383W        W79544  40.096  31.857   1.133
14384W        W79545  24.557  25.958  10.497
14385W        W79546   4.482   7.908  14.485
14386W        W79547  16.809   5.259  13.388
14387W        W79548  25.898  36.418   0.029
14388W        W79549  42.793  28.507  13.866
14389W        W79550   3.328  38.913  13.118
14390W        W79551  44.109  18.141  12.485
14391W        W79552  28.644  26.050   2.237
14392W        W79553  28.598   8.242   2.792
14393W        W79554   9.630  18.619  12.994
14394W        W79555  29.640   6.118  14.332
14395W        W79556  44.683   3.455   3.570
14396W        W79557  35.417  26.287   3.792
14397W        W79558  28.239  16.046   2.298
14398W        W79559   5.445  40.831  12.031
14399W        W79560  38.143  12.201  14.860
14400W        W79561  21.963   2.687  11.166
14401W        W79562  40.282  18.144  12.308
14402W        W79563  22.046  31.640   4.195
14403W        W79564  14.080   4.291  10.630
14404W        W79565  43.758  42.348  14.454
14405W        W79566  13.701  20.686   2.455
14406W        W79567   6.276   4.585   2.722
14407W        W79568  22.605   0.905   4.398
14408W        W79569  42.604  33.367  12.529
14409W        W79570   4.318   5.818   4.087
14410W        W79571   7.321  11.771  11.522
14411W        W79572   4.921  34.378  13.044
14412W        W79573  43.769  15.545  11.487
14413W        W79574  41.295  35.013   4.867
14414W        W79575  41.325  27.655   0.279
14415W        W79576  21.285  18.204  12.643
14416W        W79577  16.572   6.970   4.273
14417W        W79578  15.526  40.540  11.979
14418W        W79579  40.751  42.331  11.660
14419W        W79580  18.577  37.105   1.760
14420W        W79581  44.693  26.973  14.408
14421W        W79582  39.612   0.394   4.457
14422W        W79583  36.298  23.676   0.337
14423W        W79584   9.173  31.460   4.101
14424W        W79585   1.484  31.665  14.580
14425W        W79586   8.691  16.015   3.384
14426W        W79587  20.163  22.706  13.701
14427W        W79588  32.382  39.768  14.315
14428W        W79589   6.468  32.109   4.156
14429W        W79590  10.432  27.555   1.256
14430W        W79591  20.122  40.960   3.176
14431W        W79592  12.647  28.397  13.544
14432W        W79593  43.457   6.485  12.929
14433W        W79594  17.366   2.911  13.472
14434W        W79595  38.504  23.993   3.413
14435W        W79596  32.074  14.352  10.187
14436W        W79597  18.733  14.299  11.654
14437W        W79598  30.712  12.883  11.064
14438W        W79599  20.067   7.809  10.702
14439W        W79600   2.296  30.990   1.773
14440W        W79601  18.868  43.627   2.704
14441W        W79602  44.900  16.072   4.121
14442W        W79603  30.909  28.069   4.180
14443W        W79604   5.775  24.175  14.749
14444W        W79605  20.831  40.435  13.447
14445W        W79606  42.763   6.839  14.267
14446W        W79607  16.526  30.993  13.502
14447W        W79608   4.911  30.130  11.151
14448W        W79609   9.278  41.323   4.431
14449W        W79610  10.191   9.901   4.116
14450W        W79611  32.880  12.110   1.285
14451W        W79612  42.030  38.293  12.094
14452W        W79613  29.060  26.393   3.570
14453W        W79614  36.560  26.052   3.150
14454W        W79615   7.781  25.089  14.208
14455W        W79616  10.711  22.460  12.046
14456W        W79617  31.063  42.010  12.576
14457W        W79618  13.135  29.524  13.018
14458W        W79619  35.123  30.822   1.706
14459W        W79620  35.291  17.651   1.699
14460W        W79621  26.094  11.486  11.544
14461W        W79622  42.197  18.104  12.110
14462W        W79623   8.212   8.121   3.376
14463W        W79624   9.788  34.959   3.025
14464W        W79625   0.285  44.570   2.284
14465W        W79626  25.025  33.633  11.492
14466W        W79627  17.842  32.016   0.735
14467W        W79628  44.488   7.982   3.660
14468W        W79629  30.344  20.148  14.264
14469W        W79630  28.936   1.547   3.249
14470W        W79631  21.548  21.902  12.520
14471W        W79632  38.416  25.048   4.823
14472W        W79633   8.766  42.881  11.833
14473W        W79634  43.533  40.381   3.758
14474W        W79635   9.582  40.785  12.021
14475W        W79636  15.583  41.607   4.153
14476W        W79637  11.146  10.522  12.982
14477W        W79638  27.942  35.515   4.613
14478W        W79639  20.214  12.432   4.249
14479W        W79640   4.167  30.410   3.686
14480W        W79641   6.209   3.802  14.627
14481W        W79642  37.361   9.382   4.226
14482W        W79643  43.339   2.306   4.569
14483W        W79644  11.307  30.737   0.904
14484W        W79645  32.319  14.231  11.888
14485W        W79646  14.633   8.555   2.539
14486W        W79647  20.217   7.446   2.482
14487W        W79648  17.757  26.297   2.064
14488W        W79649  10.328  22.245   5.075
14489W        W79650   0.441  18.059   2.285
14490W        W79651  30.422  20.448   3.608
14491W        W79652  38.896   8.683  13.872
14492W        W79653  24.360  27.526   2.689
14493W        W79654  35.346  19.568   0.745
14494W        W79655  13.477  13.417   2.293
14495W        W79656  23.471   6.165  13.827
14496W        W79657  43.876  13.354   5.685
14497W        W79658  13.032  22.123   3.245
14498W        W79659   5.688  38.061  12.513
14499W        W79660  37.810  10.271   3.387
14500W        W79661  24.020  15.016  10.078
14501W        W79662  17.707  44.209  10.172
14502W        W79663   7.270  43.218   4.682
14503W        W79664   4.948  40.877  11.900
14504W        W79665  35.490  17.551   4.333
14505W        W79666  37.888  21.593  12.861
14506W        W79667  18.714   8.738  14.212
14507W        W79668   0.267  24.578   0.360
14508W        W79669  12.644   0.134   3.193
14509W        W79670  25.151   4.726   0.282
14510W        W79671  18.522  44.547   0.212
14511W        W79672   7.966  24.054  11.758
14512W        W79673  33.916  19.613  12.049
14513W        W79674  14.184   6.289  14.385
14514W        W79675  32.933  20.624  13.084
14515W        W79676   3.218   3.368  13.831
14516W        W79677  30.534  27.485  12.434
14517W        W79678   7.668   8.358   3.574
14518W        W79679  38.221   8.439   2.869
14519W        W79680   5.643  37.094   1.310
14520W        W79681  19.954  25.036  11.085
14521W        W79682   4.654  33.371  11.539
14522W        W79683  31.190  44.530  11.122
14523W        W79684  32.954  40.417   1.599
14524W        W79685  31.622  24.306  14.130
14525W        W79686  41.419  30.370   0.921
14526W        W79687  26.444   0.261   1.733
14527W        W79688  15.948  14.379   1.796
14528W        W79689  12.098  27.992   2.141
14529W        W79690  24.614   2.189   0.939
14530W        W79691  44.000  28.941  13.827
14531W        W79692  12.078  31.812   0.815
14532W        W79693  19.030  21.274   0.724
14533W        W79694  21.036  14.001  10.765
14534W        W79695  42.234  32.877   1.020
14535W        W79696  44.550  19.228   0.476
14536W        W79697  36.619  25.429  14.922
14537W        W79698  16.213  43.068  10.751
14538W        W79699  40.359  22.241   1.840
14539W        W79700  44.955   9.633   3.459
14540W        W79701  26.285  30.431  13.655
14541W        W79702  23.776   8.964  11.168
14542W        W79703   5.048   6.918   1.233
14543W        W79704  33.701  22.110   1.500
14544W        W79705  31.513  37.728  11.233
14545W        W79706  11.200  31.671  12.616
14546W        W79707  31.958   9.174  11.046
14547W        W79708  37.431  28.464  14.109
14548W        W79709  34.121  25.689   3.178
14549W        W79710  27.752   1.716  13.319
14550W        W79711  38.441  11.391  12.751
14551W        W79712  31.014  15.594   2.179
14552W        W79713  20.269  12.919  11.592
14553W        W79714   6.447   6.862   2.757
14554W        W79715  27.215  26.406  11.684
14555W        W79716  24.681  32.040  10.743
14556W        W79717  11.340   7.633  14.688
14557W        W79718  15.508  27.927  12.060
14558W        W79719  11.659  23.329  11.616
14559W        W79720  35.217  28.965   0.296
14560W        W79721  28.422  29.954  10.414
14561W        W79722  35.540  18.225   0.933
14562W        W79723  30.441   8.128   2.853
14563W        W79724   5.015  44.388   0.731
14564W        W79725   7.445  12.349   3.659
14565W        W79726  41.406  26.004  13.900
14566W        W79727   5.792   0.205   3.273
14567W        W79728  32.451   6.397   3.566
14568W        W79729  36.858   9.112   1.432
14569W        W79730  42.415  10.878  12.539
14570W        W79731  10.720  22.029   2.139
14571W        W79732  21.958  42.327   0.976
14572W        W79733   0.478  28.040  11.554
14573W        W79734   3.452  40.960   0.883
14574W        W79735  28.466   7.826   4.425
14575W        W79736  35.925  44.939  13.865
14576W        W79737  23.098   0.977   2.241
14577W        W79738   7.387  36.521  12.626
14578W        W79739  17.958  39.905  13.322
14579W        W79740  19.271   6.155  14.530
14580W        W79741  37.877  35.269   3.154
14581W        W79742  21.675   0.732  14.485
14582W        W79743  44.055  19.844  12.067
14583W        W79744  44.527   7.402  10.107
14584W        W79745  30.680  41.410   1.671
14585W        W79746  24.117  31.681   2.249
14586W        W79747   4.709  37.106   1.367
14587W        W79748  27.597  38.509   0.488
14588W        W79749  26.418  18.321  10.293
14589W        W79750  17.289   3.153   2.761
14590W        W79751   6.861  38.488   2.380
14591W        W79752  25.634  40.826  10.192
14592W        W79753  31.863  33.311   4.516
14593W        W79754  29.484  35.177   3.247
14594W        W79755   9.996   7.217  11.797
14595W        W79756  36.870  43.676   1.435
14596W        W79757  22.676  30.044   2.333
14597W        W79758  34.710  11.586   2.950
14598W        W79759  32.596   2.228  10.592
14599W        W79760  36.574  33.179   2.232
14600W        W79761  42.830  32.065  11.165
14601W        W79762  24.703  12.760   2.675
14602W        W79763  18.093   4.412   1.447
14603W        W79764  43.994  13.615  12.460
14604W        W79765  34.650  12.256  13.018
14605W        W79766  24.665   8.681  11.919
14606W        W79767  32.907   4.405  13.380
14607W        W79768  23.439  28.588   4.765
14608W        W79769  34.483  31.066   0.888
14609W        W79770  12.131  14.633   4.109
14610W        W79771  33.165  23.671   9.714
14611W        W79772  31.701  22.083  13.508
14612W        W79773  15.655  38.791  11.473
14613W        W79774   2.034  24.441   1.790
14614W        W79775  28.220   3.255   4.037
14615W        W79776  37.368   6.132   0.945
14616W        W79777  29.497   9.405   3.299
14617W        W79778   2.431  37.026  13.925
14618W        W79779  30.631  21.715  12.055
14619W        W79780  24.104  38.015   1.900
14620W        W79781  14.208  44.007   1.370
14621W        W79782  16.792   4.327   3.284
14622W        W79783  21.928  22.040   0.380
14623W        W79784  16.004  31.553   3.209
14624W        W79785  30.151  12.604   2.492
14625W        W79786   0.212   4.028  11.961
14626W        W79787  20.785  30.197   2.852
14627W        W79788  19.311  26.632   0.362
14628W        W79789  15.769  40.464  13.784
14629W        W79790  15.369  25.550   4.506
14630W        W79791   6.473  15.849  13.471
14631W        W79792  13.262   1.711  14.475
14632W        W79793  30.642  44.525  11.106
14633W        W79794  34.062   7.262  10.864
14634W        W79795  15.014  37.848   1.689
14635W        W79796  23.608  20.975  13.358
14636W        W79797   0.043  18.108  12.732
14637W        W79798   2.785   4.278  14.563
14638W        W79799  33.257  11.117   1.310
14639W        W79800   8.762  18.309  13.121
14640W        W79801  40.009  20.675  14.511
14641W        W79802  15.557   0.720   1.479
14642W        W79803   5.257  31.113   5.566
14643W        W79804  43.747  23.379  11.250
14644W        W79805  16.526   6.702   0.154
14645W        W79806  12.246  41.211   5.170
14646W        W79807  36.458  32.171  14.473
14647W        W79808   8.589  37.971  13.483
14648W        W79809  29.021  13.789  13.128
14649W        W79810  35.730  33.009   3.204
14650W        W79811  16.709  41.897   2.786
14651W        W79812  40.021  42.867  12.429
14652W        W79813  40.909  29.620   0.781
14653W        W79814   6.716   6.592  12.420
14654W        W79815  17.261  38.943   2.341
14655W        W79816  27.399  32.733   0.975
14656W        W79817  37.922  38.725   4.649
14657W        W79818  39.424  10.812   3.656
14658W        W79819  14.058  28.441  10.754
14659W        W79820  19.491  12.797  10.287
14660W        W79821  31.665  23.093   1.704
14661W        W79822  18.650  27.361  14.336
14662W        W79823   7.793   2.897   1.223
14663W        W79824  40.423  18.802  11.201
14664W        W79825   7.196   5.444  13.520
14665W        W79826  21.681  12.666  10.564
14666W        W79827   1.380  11.583   0.315
14667W        W79828  44.326   3.098   4.319
14668W        W79829  11.861  12.813  11.422
14669W        W79830  28.178  19.963  14.966
14670W        W79831  27.656  24.157   2.348
14671W        W79832  43.361   4.714  12.615
14672W        W79833   7.357  42.574  11.730
14673W        W79834  17.302  37.031  12.391
14674W        W79835  42.065  18.385  13.868
14675W        W79836   7.147  33.497  14.033
14676W        W79837   5.318  23.746  10.594
14677W        W79838   0.715  24.112   2.421
14678W        W79839  23.835   9.071  13.347
14679W        W79840  25.985  12.317  12.621
14680W        W79841  15.468  14.675  14.370
14681W        W79842  41.005  39.064  12.970
14682W        W79843  17.659  33.630   0.436
14683W        W79844  10.252  22.993  14.379
14684W        W79845  32.369  24.029  11.894
14685W        W79846  11.853  10.070   1.683
14686W        W79847  41.007  10.469   2.424
14687W        W79848  33.714  22.432   4.370
14688W        W79849  25.086  12.398   2.256
14689W        W79850  20.039  28.068   3.292
14690W        W79851   2.544   1.738  11.666
14691W        W79852   6.223  41.372   3.667
14692W        W79853  20.580  20.054   3.544
14693W        W79854  27.554   6.679  12.428
14694W        W79855   0.996  27.981  11.614
14695W        W79856  36.796   6.404  10.706
14696W        W79857   4.020  40.914   2.811
14697W        W79858  41.531  21.173   2.435
14698W        W79859  18.745  15.154  10.641
14699W        W79860   7.209   2.740   3.314
14700W        W79861  16.352  18.057   1.619
14701W        W79862  31.056  27.736   4.527
14702W        W79863  36.423  40.022   4.273
14703W        W79864   0.901  30.119   4.881
14704W        W79865  31.310  39.794   2.646
14705W        W79866  22.174  20.740  13.108
14706W        W79867   2.241   5.602   1.763
14707W        W79868  18.261  37.664  14.484
14708W        W79869  10.488  37.631   3.633
14709W        W79870  14.106  34.950  14.718
14710W        W79871  28.062   4.428   4.571
14711W        W79872  35.092  30.034   4.191
14712W        W79873   3.440  27.169   2.533
14713W        W79874   0.885  12.531  14.977
14714W        W79875  35.534  18.613   0.540
14715W        W79876  13.258  28.435  12.042
14716W        W79877  24.805  41.618   3.779
14717W        W79878  15.588  21.771  14.100
14718W        W79879  17.000  14.801   3.214
14719W        W79880  30.979  17.190  10.551
14720W        W79881   4.219  39.985   1.336
14721W        W79882  23.984  28.526   1.799
14722W        W79883  22.168   3.815  13.950
14723W        W79884  27.912  33.550  11.950
14724W        W79885  30.596  44.028   2.127
14725W        W79886  26.722  28.086  14.271
14726W        W79887  21.493  26.574   0.118
14727W        W79888   1.924  25.393   0.274
14728W        W79889  10.628   2.154   3.199
14729W        W79890  13.268   1.949  13.078
14730W        W79891  13.942  38.022  12.527
14731W        W79892  19.357  37.406   4.411
14732W        W79893  34.395   4.391   4.850
14733W        W79894  26.725  37.245  11.449
14734W        W79895  35.579  34.071   0.770
14735W        W79896  29.059  32.425   4.536
14736W        W79897  35.472  21.116   2.649
14737W        W79898  43.418  41.839  13.954
14738W        W79899   9.612   4.431   3.670
14739W        W79900  15.738  34.883   2.197
14740W        W79901  37.482  29.402   1.305
14741W        W79902  30.205  27.425   1.284
14742W        W79903  26.468  26.823   1.729
14743W        W79904  26.149  42.935   0.765
14744W        W79905  22.951   5.896   4.100
14745W        W79906  31.668  23.756   0.395
14746W        W79907  24.567   7.157  13.972
14747W        W79908  16.850  39.298  13.102
14748W        W79909  15.786  21.079   2.674
14749W        W79910  12.361  21.100  14.977
14750W        W79911   2.754  32.959  11.015
14751W        W79912  42.385  42.883   3.893
14752W        W79913  39.841  30.445  12.987
14753W        W79914  21.024  30.381   1.177
14754W        W79915   2.830  17.812  10.476
14755W        W79916  44.624   0.342  13.803
14756W        W79917  10.768  28.495   4.078
14757W        W79918   4.926  25.233  12.735
14758W        W79919  27.015  27.136  14.648
14759W        W79920  37.837   8.472  13.530
14760W        W79921  34.658  36.079  10.592
14761W        W79922  27.717  31.056  12.693
14762W        W79923  19.737  42.261   0.811
14763W        W79924  33.837  24.120   2.949
14764W        W79925   1.488   0.899  14.745
14765W        W79926   8.362  12.759   1.860
14766W        W79927   5.336  30.997   1.462
14767W        W79928   9.217   9.508  14.914
14768W        W79929  33.175  37.080  14.144
14769W        W79930  20.703   6.445  14.985
14770W        W79931  16.814  32.364   1.329
14771W        W79932  28.757  20.014  13.611
14772W        W79933  39.979  31.110  12.410
14773W        W79934  34.491  23.482   2.449
14774W        W79935  36.450  40.436  11.463
14775W        W79936   2.320  35.410   2.117
14776W        W79937  13.279   3.986  11.284
14777W        W79938   2.798   3.225   2.884
14778W        W79939  36.394  36.379  12.901
14779W        W79940  34.953  37.040   4.146
14780W        W79941   1.831  14.781   3.302
14781W        W79942  30.600   2.276   3.222
14782W        W79943  32.169  22.632  13.127
14783W        W79944   5.515  28.061  12.484
14784W        W79945  20.148  40.577   3.545
14785W        W79946  22.334  28.595  10.615
14786W        W79947  26.083  31.537   0.906
14787W        W79948   2.688   2.223   0.420
14788W        W79949   0.934  41.341   3.107
14789W        W79950  19.087  37.364  11.229
14790W        W79951  15.133  40.903  14.870
14791W        W79952   5.287  43.317  10.668
14792W        W79953  34.632  10.823   2.147
14793W        W79954  41.521   9.182  12.170
14794W        W79955  34.030  17.797  14.813
14795W        W79956  15.672  42.925   0.929
14796W        W79957  16.358  40.801   2.194
14797W        W79958  18.375  28.501  13.562
14798W        W79959   7.856   8.666  11.038
14799W        W79960  16.545  16.094  13.694
14800W        W79961  23.567  29.127   1.004
14801W        W79962  27.899  29.074  14.770
14802W        W79963  27.886  12.277   2.167
14803W        W79964   2.903  39.102  10.585
14804W        W79965   0.841  29.145  13.324
14805W        W79966  43.818  38.522   0.915
14806W        W79967   0.395  10.254   3.230
14807W        W79968  18.023   6.680  13.516
14808W        W79969  41.911  36.380   5.020
14809W        W79970  44.439  24.008   3.635
14810W        W79971   0.403  41.009  13.226
14811W        W79972   5.625  25.469   1.176
14812W        W79973   2.412  30.652   2.757
14813W        W79974  33.463  44.830  14.051
14814W        W79975   5.258   7.370  11.538
14815W        W79976  41.432  36.027  13.708
14816W        W79977  10.694  23.264   0.333
14817W        W79978  39.417  24.432   2.959
14818W        W79979  37.277  24.737   0.413
14819W        W79980  38.596  29.612  11.185
14820W        W79981  23.578  44.720  11.014
14821W        W79982  33.342  33.794  11.465
14822W        W79983  21.377  20.040  13.608
14823W        W79984  37.586  33.110  10.471
14824W        W79985  31.550   7.806  12.194
14825W        W79986   8.116  43.647   2.512
14826W        W79987  12.683   0.388  14.520
14827W        W79988   1.262  31.973  13.813
14828W        W79989   5.850  38.868  13.182
14829W        W79990  21.696  20.548  12.945
14830W        W79991  15.241  22.033   4.514
14831W        W79992  32.563  11.729   4.116
14832W        W79993   7.918  37.945  14.861
14833W        W79994  21.157  15.539   0.562
14834W        W79995  37.995  15.363  14.803
14835W        W79996  29.970   0.559   1.848
14836W        W79997   3.513  10.063  13.530
14837W        W79998  14.702   6.922  14.973
14838W        W79999  13.834   7.507   3.787
14839W        W80000   9.243  35.842   2.223
14840W        W80001  41.484   9.214   0.835
14841W        W80002  11.201   4.899   0.555
14842W        W80003  18.025  10.286   3.620
14843W        W80004  38.367  25.697   0.332
14844W        W80005  32.697   2.892   2.730
14845W        W80006  43.776  16.690   4.852
14846W        W80007  22.091  18.232   0.800
14847W        W80008   7.911   6.570  12.056
14848W        W80009  44.412  43.872  11.842
14849W        W80010  29.660  32.059  12.665
14850W        W80011  21.715   1.708  11.176
14851W        W80012  36.263  16.556  11.146
14852W        W80013   2.220  24.333  11.405
14853W        W80014  25.999  32.109   2.091
14854W        W80015  30.567  11.169  14.459
14855W        W80016  24.814  32.399   1.809
14856W        W80017  18.230  21.717   1.303
14857W        W80018  19.543  40.981   1.435
14858W        W80019  16.974  11.851   3.817
14859W        W80020  43.899  36.675  13.944
14860W        W80021   9.415  38.790   3.705
14861W        W80022  23.977  41.015   2.542
14862W        W80023  30.852  27.261   2.791
14863W        W80024   7.906  42.862  10.724
14864W        W80025  32.222   9.409   2.976
14865W        W80026  30.883  42.831  12.852
14866W        W80027   6.982  21.105   2.728
14867W        W80028  27.632  25.758  13.460
14868W        W80029  10.316  29.923  12.041
14869W        W80030  35.971  43.492  14.801
14870W        W80031  24.655  23.209  14.402
14871W        W80032  22.636  21.323  12.386
14872W        W80033  43.265  38.850  13.908
14873W        W80034  29.002  20.682  12.448
14874W        W80035  24.698  16.115  14.748
14875W        W80036  41.239  16.188   1.934
14876W        W80037  25.266  43.348   3.935
14877W        W80038  11.382  30.441  13.514
14878W        W80039   7.593  27.018  12.951
14879W        W80040  26.250  20.152   4.774
14880W        W80041   8.738  17.485  11.180
14881W        W80042  19.255   1.183  10.760
14882W        W80043  36.396   7.776  11.723
14883W        W80044  24.478  14.837   4.261
14884W        W80045  24.011  41.042  13.503
14885W        W80046  33.096  18.815   1.343
14886W        W80047  10.549  44.572   4.952
14887W        W80048  39.893  18.027  12.617
14888W        W80049  26.943  18.994   0.229
14889W        W80050  36.874  34.354   3.062
14890W        W80051  19.287  12.841   3.596
14891W        W80052  13.149  23.163  14.829
14892W        W80053   1.924  12.247   0.640
14893W        W80054  21.099  10.684   1.808
14894W        W80055  12.599  35.941  10.894
14895W        W80056  10.706   6.518   1.463
14896W        W80057  31.119  36.948   2.815
14897W        W80058  20.563  29.373  12.505
14898W        W80059   9.639   3.806  13.004
14899W        W80060   3.333  42.450   3.569
14900W        W80061  32.166   0.848   1.587
14901W        W80062  24.156   3.488  13.503
14902W        W80063  23.564  15.786  13.845
14903W        W80064  43.251   7.376  13.018
14904W        W80065  42.699  12.214  14.444
14905W        W80066  16.584  29.505  13.433
14906W        W80067  33.540   5.934   0.011
14907W        W80068  42.000  30.891   3.695
14908W        W80069  31.186   0.663   1.825
14909W        W80070  43.080  11.357   0.588
14910W        W80071  23.316   4.494  11.123
14911W        W80072  42.300  24.914  13.665
14912W        W80073  40.900  30.191  12.789
14913W        W80074  27.434   0.554   1.784
14914W        W80075   7.219  38.823  12.536
14915W        W80076  23.957  35.094   2.000
14916W        W80077   1.423  11.137   2.628
14917W        W80078  10.322   0.174  14.418
14918W        W80079   7.821   4.204  11.966
14919W        W80080  24.021   9.140   2.609
14920W        W80081  14.787  11.326   1.915
14921W        W80082  22.938  16.775  13.329
14922W        W80083  22.611  20.002  12.555
14923W        W80084  14.789  35.114   1.772
14924W        W80085  15.866  38.443  10.267
14925W        W80086  40.940  37.594  14.824
14926W        W80087  42.588  42.504  13.167
14927W        W80088  37.649  14.422  12.470
14928W        W80089  28.116  32.560   4.929
14929W        W80090  42.307  20.268  14.246
14930W        W80091  33.579  37.745   5.421
14931W        W80092  34.402  19.383  10.945
14932W        W80093  41.501   8.847   1.222
14933W        W80094  13.130   3.933  13.042
14934W        W80095  34.401  24.964  14.128
14935W        W80096  42.384  44.410  11.650
14936W        W80097  22.655   4.230  10.514
14937W        W80098  30.904  11.119   3.185
14938W        W80099  28.735   2.285   0.941
14939W        W80100   4.810  14.880  12.453
14940W        W80101   4.403  27.238   0.897
14941W        W80102  41.841  17.337  13.885
14942W        W80103  41.539   7.108   1.721
14943W        W80104  32.337  11.810  13.013
14944W        W80105  29.918  21.222  13.284
14945W        W80106  27.448  33.462  10.610
14946W        W80107  20.119  29.081  12.313
14947W        W80108  21.277   8.319   1.189
14948W        W80109  19.818   0.013  13.441
14949W        W80110  12.382  12.865  11.494
14950W        W80111  31.163  36.372   0.168
14951W        W80112  29.615  14.705   0.244
14952W        W80113  28.165   2.288   1.861
14953W        W80114  23.465  14.361   2.644
14954W        W80115  18.683  17.992   1.468
14955W        W80116  25.086  36.363   4.586
14956W        W80117  11.107  15.710   0.299
14957W        W80118  36.343  44.449   4.465
14958W        W80119  28.518  30.398  14.413
14959W        W80120  28.829   6.650  12.218
14960W        W80121   8.307  25.672   3.055
14961W        W80122  32.961  17.486  11.028
14962W        W80123  42.642   5.301   2.003
14963W        W80124  25.807  32.241   4.503
14964W        W80125  42.052  16.133   0.458
14965W        W80126  40.342   9.505   4.570
14966W        W80127  31.475   8.858  11.561
14967W        W80128  35.330  26.691  11.602
14968W        W80129  15.118  17.185  13.432
14969W        W80130  12.206  14.255  13.499
14970W        W80131   5.448   9.204   1.838
14971W        W80132  20.987  35.455  11.571
14972W        W80133  20.899  34.091   1.130
14973W        W80134   5.858   4.549   1.134
14974W        W80135  10.171  22.447  12.082
14975W        W80136  20.782  32.722  14.529
14976W        W80137  17.139  28.080   2.134
14977W        W80138   7.715  30.046  13.076
14978W        W80139  24.751  26.170  12.013
14979W        W80140  43.112  12.693   4.072
14980W        W80141  14.756  28.436  12.332
14981W        W80142   8.930  26.443  13.050
14982W        W80143   6.752  34.466   3.168
14983W        W80144   1.648  43.510  13.362
14984W        W80145  25.467   4.014  14.858
14985W        W80146  25.449  26.288  12.045
14986W        W80147  44.496   2.875   1.771
14987W        W80148   0.914  44.294   3.060
14988W        W80149  24.184  28.929  10.224
14989W        W80150  43.740  11.944   1.695
14990W        W80151  16.517   4.512   3.678
14991W        W80152  33.092  43.794  14.012
14992W        W80153  38.424  25.984  14.903
14993W        W80154  26.377  19.298  12.076
14994W        W80155  22.305   0.209  11.151
14995W        W80156  23.805   2.719   0.304
14996W        W80157  14.836   5.651   1.449
14997W        W80158  31.089  39.490   3.276
14998W        W80159  16.537  19.079  11.727
14999W        W80160  12.111  26.615   1.800
15000W        W80161  43.796   5.119  14.378
15001W        W80162  36.032  17.206  12.860
15002W        W80163  16.317  29.122   3.237
15003W        W80164   7.994  22.181   2.095
15004W        W80165  21.233  15.386   4.643
15005W        W80166   9.688   2.997   3.750
15006W        W80167  24.179  15.225  14.931
15007W        W80168  23.501  20.288  12.569
15008W        W80169  39.667  15.112   3.358
15009W        W80170  14.121  43.936  13.275
15010W        W80171  14.220  43.064   4.274
15011W        W80172   8.346  11.129  14.841
15012W        W80173  39.346  41.084  11.511
15013W        W80174  18.083  30.866  11.229
15014W        W80175  34.589  16.323   3.614
15015W        W80176  29.447  27.144   4.757
15016W        W80177   4.204  32.567   2.117
15017W        W80178  28.028  43.188  13.200
15018W        W80179  23.646  38.091   1.349
15019W        W80180   7.525  32.494   2.636
15020W        W80181  12.062  19.771   4.294
15021W        W80182  41.411  12.721   3.427
15022W        W80183  35.136  38.213  10.771
15023W        W80184  32.469  19.868  12.906
15024W        W80185  10.592  33.013  14.801
15025W        W80186  37.951  16.747  13.544
15026W        W80187  18.097   7.284  13.855
15027W        W80188  21.183  31.862  10.392
15028W        W80189  20.592  44.874  12.150
15029W        W80190   0.695  17.530  11.620
15030W        W80191  14.050  41.501  13.367
15031W        W80192   5.677  31.669   2.302
15032W        W80193  37.101   9.709  11.622
15033W        W80194   2.850  44.529   2.662
15034W        W80195  15.149  12.866   3.316
15035W        W80196  41.236  16.673  11.724
15036W        W80197  42.918  23.748  10.287
15037W        W80198  40.165  15.749  10.045
15038W        W80199  28.986   5.247   0.782
15039W        W80200  12.688   4.883   4.098
15040W        W80201  33.181   5.031   3.755
15041W        W80202   8.400  15.614  14.470
15042W        W80203   8.761  23.939   4.183
15043W        W80204  40.228  38.671  11.620
15044W        W80205  29.171  14.412   4.180
15045W        W80206  41.338  26.409   4.378
15046W        W80207   9.856   0.499   1.828
15047W        W80208  25.298  37.695  12.723
15048W        W80209  15.331  28.520   0.491
15049W        W80210  23.711  18.712   3.621
15050W        W80211  15.460  30.695   0.261
15051W        W80212   5.562  25.302  14.808
15052W        W80213  15.698  18.026   3.142
15053W        W80214  23.595  38.883  14.971
15054W        W80215  44.175  35.518   0.772
15055W        W80216  31.146  24.120   2.810
15056W        W80217  36.100  30.999   4.220
15057W        W80218   5.376  11.167   1.886
15058W        W80219  16.706  40.683   4.123
15059W        W80220   8.037   4.300   1.524
15060W        W80221  32.310  44.872   1.761
15061W        W80222  44.922  42.073  11.134
15062W        W80223   5.735  42.590  11.735
15063W        W80224  30.501  13.322   0.370
15064W        W80225   2.743   1.260   4.621
15065W        W80226  37.932   4.050  14.727
15066W        W80227  20.609  21.610   1.436
15067W        W80228   7.746  10.920  10.985
15068W        W80229   4.797  13.287   1.061
15069W        W80230  22.970  38.392   3.331
15070W        W80231  26.968  35.835  11.167
15071W        W80232  37.590   7.806  11.975
15072W        W80233  11.619  10.413  13.162
15073W        W80234   2.879  14.177  13.462
15074W        W80235  36.009  32.020  12.477
15075W        W80236  12.224  34.674  13.412
15076W        W80237  37.781  20.796   0.859
15077W        W80238  20.562  21.384  11.128
15078W        W80239  30.951  13.258   3.887
15079W        W80240  33.903  35.514  14.035
15080W        W80241  14.633   7.801  10.464
15081W        W80242  28.638   9.647  11.449
15082W        W80243  14.463  17.584  13.740
15083W        W80244  44.515   4.560  11.514
15084W        W80245  43.792  17.042  13.960
15085W        W80246   3.414  43.996  10.541
15086W        W80247  34.995  23.293   2.276
15087W        W80248   7.877  14.122   1.270
15088W        W80249  20.773  15.372   3.643
15089W        W80250   9.632  28.229  13.245
15090W        W80251  32.416  33.126   3.652
15091W        W80252  23.084  19.542  10.587
15092W        W80253  29.486  30.009   3.769
15093W        W80254  28.956  31.658  11.094
15094W        W80255   7.764  29.135   0.511
15095W        W80256  35.053  41.568   4.586
15096W        W80257  19.598  28.275  11.615
15097W        W80258  24.514   3.762   0.992
15098W        W80259  12.700  39.554  13.326
15099W        W80260  22.221   4.928   3.661
15100W        W80261  35.848  30.048  11.578
15101W        W80262  18.973  13.819   0.203
15102W        W80263  28.710  40.848   1.690
15103W        W80264   5.648  26.673  14.795
15104W        W80265  33.884   7.327  12.526
15105W        W80266  40.135  27.108  11.597
15106W        W80267  42.884  11.361   2.958
15107W        W80268  24.449   9.849   0.994
15108W        W80269  43.861  34.040  12.112
15109W        W80270  16.776  10.615   4.751
15110W        W80271  17.537  25.218   2.664
15111W        W80272   0.754  36.458   1.727
15112W        W80273  25.028  26.886   4.920
15113W        W80274  32.859  15.230   4.720
15114W        W80275  22.281  30.694   0.621
15115W        W80276  44.769  28.539  12.357
15116W        W80277  13.858   8.980   3.595
15117W        W80278  17.073   2.973  14.993
15118W        W80279  26.886  30.745  14.808
15119W        W80280  12.387   4.702  11.529
15120W        W80281  35.451  18.281  10.571
15121W        W80282  42.460  42.375  13.640
15122W        W80283  32.515   5.271   4.507
15123W        W80284  32.985   4.210  11.414
15124W        W80285  14.560  24.990   1.413
15125W        W80286  22.255  22.317   0.692
15126W        W80287  30.480   6.150  11.924
15127W        W80288  44.231  21.222  10.724
15128W        W80289  39.984   4.399  14.515
15129W        W80290  17.568  21.454  13.590
15130W        W80291  11.679  25.291  10.044
15131W        W80292  24.417  26.465  10.381
15132W        W80293  44.824  18.726  10.747
15133W        W80294  14.409   1.096   2.280
15134W        W80295  41.589   7.447   3.383
15135W        W80296   9.811  19.345   2.316
15136W        W80297  34.433  30.808   0.456
15137W        W80298  40.404  39.899   0.493
15138W        W80299   9.662  33.603   4.429
15139W        W80300   5.919   4.523  13.521
15140W        W80301  32.653  11.140   0.191
15141W        W80302  24.909  21.916   1.394
15142W        W80303  20.087  38.080  10.461
15143W        W80304   2.412  13.750   3.087
15144W        W80305   9.056  25.623  12.117
15145W        W80306  38.174  38.176   1.673
15146W        W80307   0.556   8.711  10.720
15147W        W80308  32.439   6.927   3.618
15148W        W80309   7.320  25.256  13.992
15149W        W80310  14.250  29.912   1.406
15150W        W80311  17.973  16.230   1.435
15151W        W80312  42.994  39.473  11.619
15152W        W80313  11.802  43.962   1.893
15153W        W80314  35.136   9.330   1.734
15154W        W80315  38.810  19.865  13.481
15155W        W80316   1.700  29.103   4.498
15156W        W80317  20.957   0.245  12.074
15157W        W80318  37.139  24.553  12.482
15158W        W80319  11.227  19.840   0.365
15159W        W80320  27.547  39.799   4.115
15160W        W80321  44.805  28.944   3.601
15161W        W80322   4.933  38.070   3.723
15162W        W80323   8.775   1.720   3.344
15163W        W80324  12.877  22.455  14.459
15164W        W80325  34.022  30.839  11.594
15165W        W80326   1.185  26.056   2.721
15166W        W80327  44.837  29.460   3.672
15167W        W80328  36.998   8.714  12.545
15168W        W80329  12.725  19.615   2.223
15169W        W80330  34.178  39.858   2.399
15170W        W80331  21.737  43.366  14.833
15171W        W80332  37.213  39.269   3.581
15172W        W80333  29.456  12.125  14.208
15173W        W80334  37.576  19.942  10.450
15174W        W80335  40.548   0.521   2.382
15175W        W80336  30.393  33.980   1.392
15176W        W80337  11.388  20.221   3.983
15177W        W80338  31.355  13.321  14.816
15178W        W80339  15.450  17.874  11.008
15179W        W80340   5.953   1.912   4.168
15180W        W80341  44.501  25.483   2.852
15181W        W80342   9.150  36.909  11.149
15182W        W80343  43.453   9.150   3.908
15183W        W80344  44.785  28.753  14.279
15184W        W80345  41.881  35.919  14.972
15185W        W80346  14.543  23.651  12.184
15186W        W80347  39.903  40.403  12.543
15187W        W80348   6.977   8.987   0.757
15188W        W80349  38.799   4.440   4.178
15189W        W80350  43.850  32.792  11.332
15190W        W80351  38.181  30.394  11.606
15191W        W80352   6.789  32.069   2.778
15192W        W80353  22.553   4.197   4.944
15193W        W80354  13.168  19.224   1.648
15194W        W80355  22.923  22.707  13.994
15195W        W80356  18.191   9.786  12.490
15196W        W80357  43.283  26.706  12.838
15197W        W80358   1.279  31.035  13.906
15198W        W80359  39.548  29.965  11.513
15199W        W80360   8.297  17.253   2.252
15200W        W80361  18.327  43.399   1.693
15201W        W80362  37.398  40.279  12.917
15202W        W80363  23.751   2.303   4.065
15203W        W80364  10.138  18.421   0.161
15204W        W80365  20.681   6.368   3.402
15205W        W80366  13.196  28.015   4.500
15206W        W80367  28.683  26.867   5.170
15207W        W80368   2.504  41.911   4.860
15208W        W80369  26.113  27.128   4.584
15209W        W80370   8.370  36.878  11.685
15210W        W80371  16.212   2.323   0.255
15211W        W80372   7.898   9.770  13.807
15212W        W80373  30.636   3.982   3.583
15213W        W80374  13.518  21.820  13.553
15214W        W80375  14.063  30.126  12.029
15215W        W80376  33.120  14.307  13.311
15216W        W80377   3.682  31.916   1.840
15217W        W80378  41.165   8.896   4.825
15218W        W80379   1.196  32.013   1.671
15219W        W80380  28.580   1.029  13.112
15220W        W80381  22.767  36.848  12.120
15221W        W80382  10.582  36.929  14.837
15222W        W80383  43.403   6.361  10.730
15223W        W80384  26.743  28.004   2.754
15224W        W80385  10.557  41.535  13.438
15225W        W80386   4.364  11.100   2.651
15226W        W80387   6.677  35.560  13.543
15227W        W80388  41.737  18.470   3.899
15228W        W80389  18.330  19.513  14.378
15229W        W80390   4.853  42.564  11.599
15230W        W80391  15.739  30.321  10.750
15231W        W80392  27.550  35.666   2.411
15232W        W80393  44.456  20.447  12.522
15233W        W80394  17.320  32.817   2.677
15234W        W80395  36.848  18.660  12.632
15235W        W80396  28.627  23.249   0.024
15236W        W80397  19.227  17.932   0.344
15237W        W80398  33.630  26.103   1.303
15238W        W80399  10.204  38.735  12.703
15239W        W80400  23.765  31.855  10.765
15240W        W80401   7.746  28.501   3.445
15241W        W80402   3.300  39.893  10.645
15242W        W80403  31.549  25.707   3.181
15243W        W80404  25.049  27.925  11.114
15244W        W80405  43.435  23.925   1.335
15245W        W80406  10.348  26.682   4.401
15246W        W80407  28.636  33.574   2.107
15247W        W80408  30.125  26.424   2.291
15248W        W80409  16.991   5.934  13.948
15249W        W80410   0.781  21.965   0.807
15250W        W80411   8.889  15.210   3.334
15251W        W80412  36.225  35.603  12.037
15252W        W80413  41.306  31.605  11.554
15253W        W80414  25.659  37.994  13.427
15254W        W80415  31.416  36.839  12.911
15255W        W80416  27.058  33.458   0.500
15256W        W80417  40.048   6.259   3.629
15257W        W80418  13.875  14.275  12.919
15258W        W80419   8.759  42.959   4.402
15259W        W80420   8.345  27.702   1.662
15260W        W80421  29.124  44.384  13.446
15261W        W80422  26.761  26.694   0.271
15262W        W80423  22.653  13.441  11.123
15263W        W80424  40.452  43.934   2.344
15264W        W80425   3.217  38.480   0.263
15265W        W80426  14.020   9.349  11.148
15266W        W80427   7.649  29.287   1.464
15267W        W80428  20.062  41.077   1.529
15268W        W80429  37.889  14.168  14.267
15269W        W80430  31.505  21.282  14.815
15270W        W80431  31.515   3.876  11.986
15271W        W80432  30.355  15.194   0.347
15272W        W80433   9.753   3.222  14.862
15273W        W80434  33.038  43.874   0.527
15274W        W80435   5.383  22.424   4.675
15275W        W80436  38.711  22.232  11.145
15276W        W80437  44.873   1.260   2.441
15277W        W80438  20.648   9.734  14.817
15278W        W80439  38.134  38.852  14.304
15279W        W80440  28.758  40.724  11.123
15280W        W80441  15.290   7.920  14.387
15281W        W80442   1.498   8.616  11.509
15282W        W80443  34.415  11.200   3.645
15283W        W80444   4.240  24.088  11.212
15284W        W80445  41.561  44.927  13.830
15285W        W80446   1.359  23.289   3.358
15286W        W80447   1.429  37.048   3.119
15287W        W80448  32.184  13.118  13.197
15288W        W80449  21.649  18.276   2.172
15289W        W80450  29.887   4.673  14.409
15290W        W80451  28.593  38.821  10.316
15291W        W80452   5.398  16.905  14.764
15292W        W80453  14.489  31.619   3.152
15293W        W80454  34.487  31.934   1.507
15294W        W80455   6.939   8.936   4.582
15295W        W80456  31.360  42.709   2.757
15296W        W80457  39.916  27.179   2.243
15297W        W80458   4.402  10.577   4.768
15298W        W80459  39.914  11.877  11.643
15299W        W80460  10.386   6.290   3.668
15300W        W80461  37.538  29.902   1.734
15301W        W80462  43.656  32.058  10.674
15302W        W80463   1.939  36.118   0.431
15303W        W80464  10.186  30.522  10.353
15304W        W80465  30.131   8.289   0.182
15305W        W80466  15.547  33.795  10.673
15306W        W80467  10.290   6.675   4.810
15307W        W80468  25.072   4.325   4.681
15308W        W80469  26.657  15.245   1.244
15309W        W80470  33.195   1.795  13.909
15310W        W80471  34.596  38.969  14.490
15311W        W80472   0.891  33.967  12.093
15312W        W80473  19.282  25.033   0.326
15313W        W80474  29.533  21.099  12.526
15314W        W80475  28.025  32.123   4.661
15315W        W80476  28.186  32.979  14.690
15316W        W80477   3.370  22.423  14.333
15317W        W80478  29.934  14.920   1.778
15318W        W80479  35.451  30.158   2.323
15319W        W80480   2.409  21.943  11.542
15320W        W80481  17.371  16.662  12.655
15321W        W80482  25.607  15.663   3.354
15322W        W80483  23.052  21.870   3.656
15323W        W80484  36.898  22.320   4.883
15324W        W80485  44.355   1.189  11.416
15325W        W80486  13.196  33.192  10.558
15326W        W80487  16.708  35.502  11.817
15327W        W80488  13.736   2.420   0.624
15328W        W80489  39.333  41.970  13.942
15329W        W80490   5.283  36.492  11.900
15330W        W80491  30.605  44.155   3.293
15331W        W80492  23.614  43.928  13.072
15332W        W80493  36.263  37.423   0.457
15333W        W80494  25.638  10.619   0.503
15334W        W80495  11.560  16.409  14.508
15335W        W80496   4.313  44.509   1.793
15336W        W80497  35.376   5.812  12.835
15337W        W80498  25.441  23.437  13.670
15338W        W80499  11.778  26.078   0.850
15339W        W80500  28.886  41.018   1.235
15340W        W80501   1.244  18.102  10.716
15341W        W80502   3.261   0.796   4.126
15342W        W80503  15.819  37.481   2.280
15343W        W80504  29.374  39.330  12.606
15344W        W80505  27.068   0.821   1.447
15345W        W80506  24.904  33.845   1.975
15346W        W80507  27.070  40.253  12.051
15347W        W80508  25.579  33.694  14.116
15348W        W80509  10.298  19.229  13.115
15349W        W80510  13.653  28.265   0.886
15350W        W80511  29.541  25.566  12.874
15351W        W80512  11.120  34.452  11.660
15352W        W80513  27.475  30.886  13.615
15353W        W80514  24.945   7.969  14.114
15354W        W80515  20.714  16.857   2.887
15355W        W80516  34.809  19.784  12.851
15356W        W80517  44.721  12.227  11.128
15357W        W80518   6.998  44.066   0.235
15358W        W80519  31.800  43.352   2.390
15359W        W80520   5.995  44.084  10.168
15360W        W80521  23.730  22.708  13.633
15361W        W80522   3.179   8.906  14.766
15362W        W80523   9.316  40.342   2.838
15363W        W80524  29.629  44.435   2.308
15364W        W80525   2.405  39.030  11.156
15365W        W80526  18.029   5.113   3.285
15366W        W80527  38.456  29.122   3.308
15367W        W80528   3.692   2.317  10.977
15368W        W80529  24.136  18.188  12.197
15369W        W80530  12.632   5.914  11.207
15370W        W80531  10.778  41.985   0.036
15371W        W80532  18.596  35.403  12.270
15372W        W80533  15.189  15.193   0.859
15373W        W80534  27.263  30.967   1.776
15374W        W80535  10.566   9.889  14.343
15375W        W80536  15.265  23.468   0.500
15376W        W80537  13.604  36.404   3.824
15377W        W80538  23.573  21.256   3.606
15378W        W80539  33.354   6.754   4.158
15379W        W80540  26.005  33.586  13.837
15380W        W80541  25.134  39.609  13.877
15381W        W80542   7.902  16.561  10.693
15382W        W80543  17.350  24.499  14.508
15383W        W80544   7.846  22.095   4.660
15384W        W80545  41.871  11.645  12.558
15385W        W80546  25.314  41.860   3.997
15386W        W80547  28.727  38.731   4.516
15387W        W80548  25.464  44.732  14.460
15388W        W80549  34.017  21.039  12.916
15389W        W80550  10.256   4.906   1.894
15390W        W80551  44.947  34.408   4.717
15391W        W80552  44.873  42.434  12.040
15392W        W80553  11.433   0.769   0.983
15393W        W80554  36.491  16.835  14.901
15394W        W80555   7.642  10.106  12.549
15395W        W80556  15.722  23.283   2.553
15396W        W80557   8.495  15.535   3.421
15397W        W80558   0.818  35.784   3.394
15398W        W80559  44.494  39.916  11.304
15399W        W80560  32.448  10.121   2.188
15400W        W80561  42.880   4.036   2.250
15401W        W80562  21.860  33.789  12.976
15402W        W80563  43.400  28.432  10.831
15403W        W80564  31.088  19.982  13.995
15404W        W80565  26.211  12.059   1.528
15405W        W80566   5.653  39.058  13.895
15406W        W80567  34.871  38.472  13.142
15407W        W80568  27.109  35.360   0.160
15408W        W80569   4.387  29.363   0.367
15409W        W80570  22.019  11.174  14.267
15410W        W80571  23.880  35.113   1.420
15411W        W80572  13.790  39.188   5.071
15412W        W80573  34.506  26.765   3.287
15413W        W80574  31.906   9.186   1.021
15414W        W80575  24.826  21.541  10.519
15415W        W80576  34.068  42.840  13.865
15416W        W80577  28.671   8.160  12.978
15417W        W80578  32.630  11.616  11.519
15418W        W80579  25.518  13.429  11.282
15419W        W80580  23.989  40.865   3.042
15420W        W80581  36.986  27.222   2.277
15421W        W80582  13.605  41.451   3.441
15422W        W80583   3.597  41.229   2.836
15423W        W80584  14.701  42.055   0.641
15424W        W80585  31.469  19.622  14.922
15425W        W80586  29.740  35.039   5.241
15426W        W80587   9.823  30.421   4.550
15427W        W80588  34.068  21.574   0.185
15428W        W80589  43.257  22.761   2.294
15429W        W80590   4.370   6.753  10.677
15430W        W80591  32.510  13.515   3.734
15431W        W80592  39.427  24.157   0.422
15432W        W80593  37.466   1.906   2.246
15433W        W80594  24.064  44.722  13.105
15434W        W80595  24.807  41.095   2.214
15435W        W80596  20.331  38.075   1.293
15436W        W80597  44.804  32.873  11.429
15437W        W80598  16.777   0.051   4.155
15438W        W80599  28.942  16.403   4.547
15439W        W80600  30.711  24.127  10.710
15440W        W80601  31.501  41.337  11.025
15441W        W80602  24.023  29.981  10.682
15442W        W80603  14.220  30.515  10.736
15443W        W80604  27.205  17.788   3.079
15444W        W80605  13.076  26.198   0.432
15445W        W80606  12.886  19.739  14.886
15446W        W80607  35.795  10.282  10.437
15447W        W80608  28.696  25.888  11.967
15448W        W80609  10.168  16.852   1.400
15449W        W80610  39.977  30.548   4.167
15450W        W80611  31.040  27.854  14.492
15451W        W80612  43.589  35.692  13.946
15452W        W80613  14.269   6.190   2.242
15453W        W80614  27.743   3.315  12.169
15454W        W80615  13.743   9.145  14.439
15455W        W80616  18.264  39.927   3.186
15456W        W80617   3.337   7.303  13.956
15457W        W80618   2.947  21.061   0.456
15458W        W80619  23.980  20.034  12.629
15459W        W80620   1.325  21.411   4.550
15460W        W80621  36.905  22.456   2.293
15461W        W80622  29.489  36.821   2.209
15462W        W80623  12.227  15.508   3.304
15463W        W80624  40.423  24.988  14.545
15464W        W80625  16.093  12.144  13.468
15465W        W80626   6.228   1.938   1.441
15466W        W80627  17.239  37.992  11.972
15467W        W80628  22.129   5.269  13.354
15468W        W80629  33.353   8.145   2.991
15469W        W80630  22.222   8.706  13.012
15470W        W80631  43.008   9.771  12.643
15471W        W80632   0.391   6.880  10.905
15472W        W80633   1.458  11.273   4.981
15473W        W80634  17.185  19.377   4.105
15474W        W80635  19.995  31.119   2.269
15475W        W80636  43.260  16.268   1.839
15476W        W80637  18.543   2.793   3.650
15477W        W80638  27.116  28.491   4.548
15478W        W80639  19.243  22.971  14.468
15479W        W80640  17.673   2.336   3.657
15480W        W80641  23.113  15.735   2.353
15481W        W80642  34.073  36.000  11.624
15482W        W80643  41.821  28.458  13.549
15483W        W80644  21.527  38.422  12.483
15484W        W80645  38.555  29.434  12.069
15485W        W80646  12.447  21.591  12.816
15486W        W80647  43.508   5.302  12.241
15487W        W80648  28.897  39.096   4.159
15488W        W80649  42.351  12.915   4.598
15489W        W80650  33.191   7.351  14.937
15490W        W80651  39.546  28.516   1.179
15491W        W80652   9.685  22.826  13.346
15492W        W80653   9.238  25.068   9.755
15493W        W80654   9.181   2.289   3.039
15494W        W80655  44.761   6.727   3.289
15495W        W80656   5.928  37.553   3.690
15496W        W80657   0.617   4.995  10.378
15497W        W80658  14.537   1.993   3.383
15498W        W80659   7.521  10.572   2.750
15499W        W80660  44.701  13.190   0.977
15500W        W80661  44.917  20.303   2.337
15501W        W80662  11.142   0.383   3.175
15502W        W80663  29.533  35.971  14.421
15503W        W80664  17.821   4.185   2.797
15504W        W80665  30.906  14.571  14.870
15505W        W80666   1.375  20.092  10.939
15506W        W80667  41.881  41.808  11.241
15507W        W80668   3.682  17.160   1.333
15508W        W80669   2.592  29.109  12.114
15509W        W80670  22.709  14.862  11.362
15510W        W80671  33.899  24.753   0.522
15511W        W80672  32.898  16.070  11.013
15512W        W80673  16.663   3.318  13.988
15513W        W80674  41.461   6.975   0.315
15514W        W80675  32.996  35.511  10.963
15515W        W80676  26.990   6.260   9.742
15516W        W80677  35.519  21.714  12.112
15517W        W80678  44.573  30.960   3.411
15518W        W80679  36.559  32.011  12.073
15519W        W80680  14.485  39.753  11.414
15520W        W80681   2.566  22.423  11.560
15521W        W80682  26.775   0.433   4.115
15522W        W80683  24.531  36.448  10.257
15523W        W80684  42.049  31.591   2.723
15524W        W80685  14.861  27.895   0.872
15525W        W80686  11.419  40.396   0.331
15526W        W80687  42.534   8.272   1.815
15527W        W80688  12.639  38.795   3.903
15528W        W80689  44.223  11.726   0.934
15529W        W80690  35.134   6.263   0.942
15530W        W80691  23.728  36.100  11.519
15531W        W80692  13.176  42.868   1.913
15532W        W80693  36.040  15.663   2.224
15533W        W80694  34.824   8.027   1.759
15534W        W80695  12.793  10.684  14.561
15535W        W80696  29.827  35.039  12.784
15536W        W80697  25.775  31.347  11.642
15537W        W80698  11.908  29.714  11.655
15538W        W80699  10.831  10.326  11.188
15539W        W80700  24.082  21.698   2.006
15540W        W80701   9.853  19.637   1.293
15541W        W80702  18.670  11.580   0.161
15542W        W80703  11.619  44.510   1.205
15543W        W80704  19.723  43.617  10.785
15544W        W80705  19.148  14.603   4.062
15545W        W80706  22.831   1.427  13.904
15546W        W80707   5.854  35.329   4.208
15547W        W80708  11.571  26.239  11.532
15548W        W80709  26.311  10.129  10.595
15549W        W80710   1.732  31.098   2.712
15550W        W80711  25.669  39.469  12.400
15551W        W80712  36.952   6.212   2.552
15552W        W80713  22.448  23.303  12.513
15553W        W80714  41.562  11.527  14.994
15554W        W80715  27.147  34.358   0.236
15555W        W80716  33.443  26.470   1.902
15556W        W80717  37.398  28.371  14.618
15557W        W80718  20.133  42.009  11.067
15558W        W80719  18.141  16.796  14.749
15559W        W80720   0.321  17.697   4.121
15560W        W80721  40.306  18.795   2.987
15561W        W80722   6.927  31.863   3.287
15562W        W80723   3.331  23.538   1.404
15563W        W80724   6.954  16.717  13.977
15564W        W80725  16.612  31.567   3.616
15565W        W80726  29.402  22.534  12.446
15566W        W80727   2.072  22.153   0.475
15567W        W80728  34.934   2.867  14.831
15568W        W80729  42.609  12.708  13.656
15569W        W80730   2.638  14.901   0.342
15570W        W80731  43.198  13.268  14.744
15571W        W80732  13.671  24.682  11.645
15572W        W80733   5.586  25.874  14.493
15573W        W80734  12.398  35.963  14.014
15574W        W80735  15.701  30.973   2.636
15575W        W80736  26.371  32.048  12.649
15576W        W80737  19.967  24.452   4.083
15577W        W80738  29.641  23.186   0.386
15578W        W80739  40.253  29.097   2.224
15579W        W80740  14.187  15.516  11.530
15580W        W80741  27.740  38.469   2.192
15581W        W80742  20.520  25.842   4.599
15582W        W80743  29.625  25.943  11.955
15583W        W80744  15.987  16.479   9.864
15584W        W80745   5.703  20.855   4.205
15585W        W80746   3.687  39.219   1.361
15586W        W80747   5.948  40.858  12.128
15587W        W80748  12.312  20.281  14.264
15588W        W80749  44.332   8.258  13.750
15589W        W80750  44.074  19.573   0.631
15590W        W80751  43.758  16.076  11.523
15591W        W80752  13.306   2.210   4.683
15592W        W80753  30.566  15.721   0.398
15593W        W80754  32.143   9.608   0.685
15594W        W80755  38.368  31.919   0.800
15595W        W80756   3.160  11.400  12.813
15596W        W80757  38.148   0.800  14.378
15597W        W80758   7.224  11.344   3.694
15598W        W80759  32.760  36.576  11.639
15599W        W80760  34.287  15.910   3.665
15600W        W80761  25.518   8.193  14.916
15601W        W80762  40.564  12.568   3.793
15602W        W80763  15.728  11.615  14.415
15603W        W80764  24.397  14.165   1.207
15604W        W80765   9.677  20.574   3.064
15605W        W80766   3.399  18.159   0.299
15606W        W80767  30.085  15.855  11.661
15607W        W80768  43.038  13.200   1.791
15608W        W80769  18.620  33.087   2.308
15609W        W80770  28.956   4.536   3.770
15610W        W80771  26.197  25.124   3.658
15611W        W80772   0.275   6.487   2.313
15612W        W80773  24.617   3.662   4.148
15613W        W80774  34.788  39.906   3.233
15614W        W80775  18.072  30.697   2.734
15615W        W80776  38.635  20.800  13.574
15616W        W80777  32.506   6.608   0.694
15617W        W80778  44.214  38.503   1.331
15618W        W80779   3.543  18.936  12.244
15619W        W80780   4.419  40.055   2.687
15620W        W80781  24.409  38.022   3.134
15621W        W80782  15.138  17.039  14.009
15622W        W80783   0.223  13.795  10.675
15623W        W80784  18.836  29.214  11.524
15624W        W80785   3.142  43.468  11.652
15625W        W80786  42.513  23.645  10.608
15626W        W80787  14.823  12.771   4.629
15627W        W80788  26.743  17.759   0.485
15628W        W80789  29.139  10.295  11.951
15629W        W80790  42.147  13.869  14.084
15630W        W80791  26.903   5.372  10.603
15631W        W80792  22.678   0.895  11.268
15632W        W80793   4.781   4.833  11.352
15633W        W80794  43.979  43.194  12.054
15634W        W80795   8.748   9.357   5.108
15635W        W80796  19.049  17.299   3.646
15636W        W80797  26.579  26.096  11.365
15637W        W80798  41.522  16.206   0.445
15638W        W80799  16.219   8.876   3.225
15639W        W80800  25.594  41.048  12.024
15640W        W80801   9.265  25.982   4.062
15641W        W80802  31.213  24.011  10.188
15642W        W80803  26.233  20.336   3.785
15643W        W80804  40.987  23.018  12.454
15644W        W80805  23.598  28.886  12.676
15645W        W80806  27.969  10.094  13.965
15646W        W80807   7.762  11.688   3.151
15647W        W80808  43.378  15.372   3.109
15648W        W80809   4.313  43.289  10.604
15649W        W80810  16.609  14.667  11.532
15650W        W80811  44.360  31.901   1.154
15651W        W80812   3.197  43.172   5.005
15652W        W80813   6.212   6.868   4.074
15653W        W80814  35.495  17.850  11.502
15654W        W80815  39.027  20.118  14.857
15655W        W80816  22.326  23.888  14.479
15656W        W80817  25.577  42.813  10.932
15657W        W80818  21.514  11.044  10.722
15658W        W80819   7.211  36.586   3.203
15659W        W80820  40.785  18.298   3.663
15660W        W80821  20.067  44.975  12.994
15661W        W80822  10.257  23.475  14.127
15662W        W80823  29.703  20.124   2.835
15663W        W80824  17.016   0.488   2.314
15664W        W80825  24.594  13.335   2.458
15665W        W80826  31.994   9.569   0.162
15666W        W80827  28.525  44.861  13.840
15667W        W80828  33.354  10.256  10.484
15668W        W80829   5.339  18.744  11.992
15669W        W80830  17.682  31.511   3.533
15670W        W80831   7.304   8.419   2.265
15671W        W80832   2.187  24.491  10.287
15672W        W80833  37.625  14.595  14.405
15673W        W80834   7.673  35.221   4.166
15674W        W80835  29.570  15.793  14.451
15675W        W80836  17.734  28.629   1.932
15676W        W80837  44.190   5.923   2.810
15677W        W80838   9.165  26.001  14.415
15678W        W80839  25.200  27.797  12.907
15679W        W80840   1.628  23.626   0.960
15680W        W80841  36.491  28.309  11.509
15681W        W80842  16.359   6.289   0.680
15682W        W80843   9.876  29.181  10.739
15683W        W80844  29.147  13.692   2.584
15684W        W80845  39.997   9.744   3.870
15685W        W80846  23.984  28.361  13.979
15686W        W80847  35.376  24.425   2.833
15687W        W80848   4.463  24.935  10.739
15688W        W80849  19.794  17.542   2.814
15689W        W80850  42.527  20.510   4.454
15690W        W80851  14.085  33.151  14.780
15691W        W80852  25.545  44.859  10.761
15692W        W80853  27.656  16.244  13.360
15693W        W80854   3.468  18.720  13.211
15694W        W80855  17.104  36.473  12.108
15695W        W80856  15.081   6.380   1.675
15696W        W80857  39.416  25.750  11.238
15697W        W80858  35.005   5.536   2.315
15698W        W80859   9.342   7.107  13.594
15699W        W80860  40.364  13.913   2.784
15700W        W80861  37.103  12.197  14.054
15701W        W80862  17.006  44.724  11.993
15702W        W80863   4.627   4.696  13.848
15703W        W80864  11.218  27.612   1.268
15704W        W80865  37.676  34.422  12.933
15705W        W80866  34.837  18.475  13.418
15706W        W80867  13.140  30.636   0.087
15707W        W80868   2.369  29.960   3.326
15708W        W80869  32.579  28.911  12.477
15709W        W80870  24.687  44.486   3.659
15710W        W80871  16.483   7.777  10.743
15711W        W80872   1.816  40.401  11.204
15712W        W80873  40.437  15.787   2.178
15713W        W80874  39.784  27.317  14.205
15714W        W80875  29.084   8.600  13.855
15715W        W80876   4.003  11.893   0.466
15716W        W80877  28.388  30.358  13.636
15717W        W80878  13.649  17.101  14.817
15718W        W80879   5.777  40.370   2.277
15719W        W80880  23.189   0.961  14.440
15720W        W80881  26.076  19.667  10.530
15721W        W80882  44.028   2.705   0.755
15722W        W80883   6.960  17.241  11.928
15723W        W80884  44.415  16.490  12.519
15724W        W80885  32.894  12.520   4.477
15725W        W80886  10.596  30.030  13.507
15726W        W80887  16.633  39.782   0.985
15727W        W80888   5.918  14.009  12.074
15728W        W80889  44.091  19.896   1.831
15729W        W80890  16.637  22.669   3.260
15730W        W80891  24.422  11.438  13.203
15731W        W80892   9.928  31.347   0.340
15732W        W80893   7.262   3.050  14.324
15733W        W80894  41.018  10.713   0.292
15734W        W80895  26.993  40.497   0.774
15735W        W80896  21.817  26.582   0.878
15736W        W80897  41.435   7.391  14.224
15737W        W80898  28.679  11.732  12.772
15738W        W80899  22.747  14.651   1.847
15739W        W80900  11.567   0.852   1.945
15740W        W80901  22.450  43.468   3.217
15741W        W80902  25.583  14.329  11.183
15742W        W80903  29.941   1.513   2.364
15743W        W80904  24.079   9.420   0.365
15744W        W80905  39.052  22.535   1.826
15745W        W80906  17.278  31.591   1.759
15746W        W80907  15.398  28.511  14.053
15747W        W80908   7.623  29.032   3.573
15748W        W80909  22.539  28.960  14.509
15749W        W80910   2.053  17.844   3.618
15750W        W80911   7.467  42.789   3.434
15751W        W80912  24.729   0.851  14.235
15752W        W80913  30.663  26.519   1.960
15753W        W80914  15.128  13.840   2.706
15754W        W80915  19.099   5.194   4.146
15755W        W80916  18.624  32.019  14.707
15756W        W80917  20.635  40.037   4.998
15757W        W80918  12.156  38.101   0.515
15758W        W80919  15.266  21.096   4.535
15759W        W80920   9.596  43.264   1.579
15760W        W80921  42.383  18.296  10.774
15761W        W80922  26.752  10.812   1.905
15762W        W80923   4.495   9.883   1.802
15763W        W80924  32.340   1.781  12.243
15764W        W80925   2.326   0.819   3.134
15765W        W80926  23.400  43.481   4.071
15766W        W80927  43.346  14.913   1.803
15767W        W80928   2.446   5.229   2.075
15768W        W80929   0.362  15.801  13.980
15769W        W80930  37.597   7.351   0.976
15770W        W80931  24.195   2.270  13.099
15771W        W80932  42.192  11.267   0.768
15772W        W80933  37.552  19.693   4.258
15773W        W80934  43.992  24.175  13.981
15774W        W80935   0.827  19.721   3.996
15775W        W80936  27.815  32.166   5.183
15776W        W80937  14.330  17.665  13.216
15777W        W80938  29.636   3.689   3.365
15778W        W80939  34.047  25.082   4.378
15779W        W80940   2.808  10.355  14.109
15780W        W80941  33.547   2.290  12.144
15781W        W80942  11.078  13.577   4.839
15782W        W80943  20.030  33.572  12.516
15783W        W80944  29.979  20.597   0.965
15784W        W80945  35.511  30.710  14.266
15785W        W80946   3.553  30.181   0.011
15786W        W80947  23.867  44.057  14.381
15787W        W80948  34.921  19.088   2.777
15788W        W80949  21.104   5.371   1.850
15789W        W80950  12.148  41.033  13.925
15790W        W80951  36.192  38.662   4.558
15791W        W80952  30.011  30.219  11.855
15792W        W80953  29.987   1.982   3.775
15793W        W80954  28.225  41.358   0.333
15794W        W80955   4.254  12.644  10.703
15795W        W80956  19.230  44.423   2.749
15796W        W80957  36.747  30.299  14.363
15797W        W80958  12.593  32.082  14.347
15798W        W80959   0.333   5.941   0.012
15799W        W80960   8.686  20.121  11.428
15800W        W80961  29.606  36.113   2.759
15801W        W80962   1.683  35.686   3.254
15802W        W80963  14.560   4.279   2.276
15803W        W80964  16.754  29.341  11.267
15804W        W80965  38.381  12.485  13.615
15805W        W80966   6.375  38.727   4.422
15806W        W80967  24.666  18.795  14.502
15807W        W80968  19.030   2.740   1.918
15808W        W80969  40.344   7.198  12.520
15809W        W80970  30.164  43.034   3.106
15810W        W80971  28.557  34.354  14.041
15811W        W80972  24.922  34.506   0.519
15812W        W80973  10.133  15.432   4.974
15813W        W80974  23.246  21.106   5.432
15814W        W80975  24.472   1.898   2.809
15815W        W80976  21.106   7.061   4.820
15816W        W80977  15.233  40.231   3.021
15817W        W80978   9.748   6.898  12.159
15818W        W80979  10.143   9.982   3.262
15819W        W80980  21.948  24.771   0.832
15820W        W80981   4.732  19.278  12.516
15821W        W80982   4.287  14.912   4.594
15822W        W80983   9.530  29.126  12.386
15823W        W80984  37.434  31.716  12.928
15824W        W80985  30.957  12.293  14.934
15825W        W80986  24.999  21.134  14.405
15826W        W80987  37.404  19.595   0.990
15827W        W80988  13.843  35.000  11.600
15828W        W80989  34.073  26.427   1.271
15829W        W80990  39.449  11.327   4.949
15830W        W80991  21.777  13.063  11.839
15831W        W80992  20.722  16.626  13.516
15832W        W80993  19.086  26.557   2.228
15833W        W80994   2.724  42.496  14.224
15834W        W80995  41.439   3.175   1.381
15835W        W80996  15.614  39.906  12.110
15836W        W80997  19.947  43.156  13.009
15837W        W80998  27.247   5.824   1.469
15838W        W80999  21.707  17.156   4.421
15839W        W81000   0.382  21.847   4.295
15840W        W81001  33.842  33.950   1.484
15841W        W81002  30.885   7.197  11.622
15842W        W81003  30.004   0.427  11.786
15843W        W81004   1.727  25.253   1.228
15844W        W81005   9.193   2.709   1.852
15845W        W81006  15.159  10.932   4.188
15846W        W81007  18.790   9.401   3.202
15847W        W81008  32.447  44.467   3.509
15848W        W81009  44.747  12.766   2.223
15849W        W81010  23.969  20.745   2.394
15850W        W81011  13.647  10.241   1.387
15851W        W81012  11.361  13.152   1.186
15852W        W81013  24.244  15.941  14.393
15853W        W81014   3.764   8.758   1.352
15854W        W81015  11.555  39.085   9.997
15855W        W81016  10.170  14.587  12.382
15856W        W81017  41.134  17.568   4.165
15857W        W81018  30.112  42.450  14.431
15858W        W81019  33.844   3.494   5.027
15859W        W81020  20.660  35.304   1.817
15860W        W81021  11.745  43.899  13.645
15861W        W81022  39.051   3.451   3.025
15862W        W81023   5.950  36.160   3.773
15863W        W81024  37.704  39.269   2.601
15864W        W81025  13.324  33.639   2.312
15865W        W81026  22.014  15.920   2.646
15866W        W81027   5.575  39.836  10.773
15867W        W81028   2.340  16.245   1.187
15868W        W81029  27.861  42.588   4.824
15869W        W81030  30.348  35.841  10.694
15870W        W81031  39.370  20.003  14.476
15871W        W81032  29.424  13.151   4.625
15872W        W81033  34.152  34.449   2.770
15873W        W81034   0.669   4.070   3.255
15874W        W81035  43.346  41.009  14.379
15875W        W81036  29.663   3.329   4.136
15876W        W81037  23.098  25.143  11.499
15877W        W81038  41.393  27.790   1.658
15878W        W81039   3.017   2.907   4.149
15879W        W81040   2.009   1.332   3.223
15880W        W81041   6.120  19.522   4.401
15881W        W81042  11.626  10.920  10.189
15882W        W81043   8.325   5.847  11.126
15883W        W81044  25.169  44.810   1.360
15884W        W81045  29.480  11.189  10.370
15885W        W81046  12.590  11.623   4.185
15886W        W81047  31.999  14.388   0.293
15887W        W81048  43.997  30.345  11.984
15888W        W81049   5.918   5.316  10.906
15889W        W81050   3.011  18.630  10.796
15890W        W81051  39.533  22.067   3.191
15891W        W81052  26.028  14.145   3.761
15892W        W81053  44.040  24.454  11.223
15893W        W81054  41.715  44.727   3.115
15894W        W81055  21.205  14.063   2.720
15895W        W81056  31.592  27.907   1.704
15896W        W81057   9.260   0.729  11.680
15897W        W81058  44.807   6.345  12.844
15898W        W81059  25.261   9.818   0.234
15899W        W81060  33.819  10.069  13.802
15900W        W81061  40.392  41.830  14.891
15901W        W81062  36.545  10.208   2.754
15902W        W81063  18.767  42.382   4.288
15903W        W81064  11.667  20.138   1.567
15904W        W81065   2.491  15.398  12.969
15905W        W81066  29.567  39.753   4.130
15906W        W81067  12.950  27.724   2.315
15907W        W81068  22.107  16.717  12.069
15908W        W81069   3.070   4.288   4.103
15909W        W81070  20.305  26.243   3.322
15910W        W81071   9.136   0.425  14.885
15911W        W81072  26.396   4.849   4.481
15912W        W81073  30.617  38.843  13.285
15913W        W81074   1.339  21.498   0.404
15914W        W81075   7.168  36.359   0.568
15915W        W81076  26.748  43.262   1.892
15916W        W81077  13.160  15.202   1.383
15917W        W81078  26.545  39.987   2.135
15918W        W81079  29.701  42.484  13.958
15919W        W81080  36.649   6.763   3.754
15920W        W81081  20.097  40.874  11.991
15921W        W81082  28.549   9.749   4.395
15922W        W81083   9.878  27.992  12.863
15923W        W81084  28.860  25.173  10.760
15924W        W81085  33.910  19.112  12.166
15925W        W81086   9.240  44.002   2.408
15926W        W81087  44.353  28.655   1.200
15927W        W81088  17.364  33.333   2.709
15928W        W81089  22.557  33.340   4.232
15929W        W81090  11.828  16.635   1.023
15930W        W81091  15.568  27.989   4.656
15931W        W81092   4.777  13.131  14.753
15932W        W81093  11.542  23.035   0.796
15933W        W81094  23.261  25.205  14.020
15934W        W81095  29.812   9.662  12.275
15935W        W81096   4.975  37.331   1.759
15936W        W81097  14.704  42.441   2.225
15937W        W81098   0.560   0.353   3.237
15938W        W81099   7.069  28.695  13.919
15939W        W81100  44.252  27.040   4.577
15940W        W81101  10.304  10.407  11.098
15941W        W81102  15.249  34.909   1.054
15942W        W81103  31.234   1.951  10.364
15943W        W81104  16.786  40.549  11.589
15944W        W81105  37.904  19.983   3.714
15945W        W81106  14.844  35.848   3.623
15946W        W81107  43.937   1.010  11.142
15947W        W81108   2.687  20.798   3.150
15948W        W81109  10.885  13.525   4.315
15949W        W81110  40.518   7.282   0.319
15950W        W81111   8.685  10.463   4.169
15951W        W81112  25.930  18.740  13.422
15952W        W81113  25.955  25.120  11.623
15953W        W81114   4.772  35.536   1.338
15954W        W81115  24.389  13.160  10.931
15955W        W81116   6.734  24.038  14.942
15956W        W81117  29.065  13.301   1.208
15957W        W81118  43.595  31.972  12.454
15958W        W81119  23.085   3.834   1.319
15959W        W81120   5.378   6.914   1.685
15960W        W81121  16.686  40.670   3.263
15961W        W81122   1.245  33.545  12.982
15962W        W81123  18.188  22.755   4.505
15963W        W81124  35.717   0.376  12.323
15964W        W81125   5.199   7.015  14.125
15965W        W81126  33.104  26.971  13.936
15966W        W81127  40.667  27.075   0.502
15967W        W81128  17.070  31.641  14.014
15968W        W81129  26.238  31.827  13.431
15969W        W81130   4.893  21.974  13.093
15970W        W81131  44.367   1.612   4.613
15971W        W81132  41.263  40.730   4.527
15972W        W81133  19.166   0.061  13.883
15973W        W81134  19.538   1.054  11.498
15974W        W81135   9.737  10.178   0.069
15975W        W81136  31.388  32.599   2.764
15976W        W81137  16.095   3.217  10.676
15977W        W81138   0.835  38.124   4.027
15978W        W81139   5.374  37.475   4.939
15979W        W81140   7.252   5.201  11.416
15980W        W81141  14.779  43.902   1.966
15981W        W81142   2.483  42.513   3.200
15982W        W81143  21.928  27.468  14.251
15983W        W81144  24.824   1.345   4.090
15984W        W81145  30.909  22.086  10.247
15985W        W81146  34.923   3.356  10.743
15986W        W81147  24.921  35.879   2.546
15987W        W81148  35.076  11.118   2.162
15988W        W81149  20.798  36.962   3.191
15989W        W81150  25.609  33.896   3.613
15990W        W81151  19.650  23.494  11.918
15991W        W81152  11.187  11.739   1.556
15992W        W81153  43.817   8.387   3.294
15993W        W81154  31.189  41.302  13.836
15994W        W81155  42.245  14.893  12.454
15995W        W81156  10.654  14.221   4.364
15996W        W81157  33.948   3.463   2.691
15997W        W81158   3.670  16.634   4.362
15998W        W81159  14.227  36.615  13.342
15999W        W81160  27.217   3.306  12.065
16000W        W81161  21.718  12.793  13.266
16001W        W81162  23.048  33.748  10.792
16002W        W81163  11.159  22.705  11.983
16003W        W81164  39.261  29.371  14.161
16004W        W81165   1.970  13.991   2.886
16005W        W81166  44.167  22.703  14.060
16006W        W81167  33.527  34.351  13.314
16007W        W81168  22.555   9.348   0.299
16008W        W81169  16.814  38.225  11.786
16009W        W81170   2.784   3.316  10.630
16010W        W81171   1.422  23.444  10.925
16011W        W81172   5.945   3.000   2.443
16012W        W81173   2.323   4.532  13.139
16013W        W81174  21.540  25.613   1.704
16014W        W81175  25.663  43.133   4.183
16015W        W81176  27.904  33.403  10.317
16016W        W81177  37.047  39.856   2.729
16017W        W81178   1.011  24.983  13.777
16018W        W81179  44.207  36.187   1.212
16019W        W81180   1.569  16.098  12.380
16020W        W81181  42.288  35.618   9.667
16021W        W81182  28.648  12.213  11.588
16022W        W81183  21.467  24.258  13.407
16023W        W81184   3.484  24.147  11.449
16024W        W81185  14.366  36.438   3.168
16025W        W81186  36.531  33.698   2.169
16026W        W81187  24.608  24.918   3.675
16027W        W81188  26.414  42.496   0.779
16028W        W81189   5.202  24.634  10.389
16029W        W81190  20.132  18.878   4.141
16030W        W81191  19.575  21.440   9.763
16031W        W81192  34.798  43.322   1.756
16032W        W81193   4.764   9.637   2.184
16033W        W81194  27.027  26.478  13.497
16034W        W81195  10.892   3.838   0.714
16035W        W81196  26.444  30.957   4.250
16036W        W81197  13.215  13.494   4.114
16037W        W81198  14.254  35.551  12.433
16038W        W81199  12.871   9.878  12.420
16039W        W81200  13.526   7.670  11.324
16040W        W81201  16.854  34.875  12.895
16041W        W81202  40.039  14.217  12.826
16042W        W81203   6.372  31.400   0.013
16043W        W81204  16.792  18.386   3.694
16044W        W81205  38.752  41.365  11.644
16045W        W81206  42.197  35.869  11.014
16046W        W81207  19.778  17.178  10.708
16047W        W81208  23.709  41.609  14.971
16048W        W81209  32.653  32.867  12.481
16049W        W81210  27.413  44.798   4.720
16050W        W81211   4.987  32.248   4.113
16051W        W81212  32.539  18.801  11.176
16052W        W81213   3.391  31.647  12.952
16053W        W81214   8.965  32.647  12.223
16054W        W81215  40.323  26.310  13.548
16055W        W81216  28.236  35.409  11.996
16056W        W81217  34.863   4.293  10.583
16057W        W81218   1.784   4.359  13.905
16058W        W81219  44.215  26.090   4.104
16059W        W81220   8.506   8.691   3.036
16060W        W81221  44.283  39.267   3.719
16061W        W81222  11.438  10.526  12.064
16062W        W81223  10.352  15.220   3.771
16063W        W81224  16.775   1.012   3.142
16064W        W81225  15.671   6.204   4.110
16065W        W81226  42.424   1.919  11.919
16066W        W81227  40.723  21.707   4.125
16067W        W81228  40.219  15.848  14.061
16068W        W81229  12.132   7.732  14.172
16069W        W81230   3.271  29.880   3.851
16070W        W81231   0.838   5.872   0.109
16071W        W81232  31.158  35.223  10.921
16072W        W81233   7.636  15.787   1.675
16073W        W81234  36.074  11.791   0.429
16074W        W81235   4.727  24.455   4.984
16075W        W81236   5.914  29.824   4.514
16076W        W81237  37.979  41.940   0.921
16077W        W81238  36.811  27.491   1.273
16078W        W81239   7.204  17.161  14.064
16079W        W81240   9.055  40.823   3.779
16080W        W81241  16.416   1.268   0.315
16081W        W81242  26.173  44.728   1.275
16082W        W81243   0.188   5.641   2.838
16083W        W81244  25.343  18.589  11.093
16084W        W81245  10.750  19.506   2.879
16085W        W81246  10.338  20.378  12.108
16086W        W81247   2.134  35.457  13.062
16087W        W81248  14.515  34.585   3.370
16088W        W81249  21.044  12.087  14.926
16089W        W81250  19.567   9.168  14.341
16090W        W81251  24.240  25.976  13.691
16091W        W81252  11.116  23.310  14.593
16092W        W81253  42.539   3.484  12.063
16093W        W81254  37.838  16.226  13.552
16094W        W81255  15.284  38.842   1.527
16095W        W81256  39.491  35.418   2.387
16096W        W81257  31.421  23.256  13.932
16097W        W81258  15.599  19.714   0.963
16098W        W81259  28.166  22.788  14.559
16099W        W81260   7.204  12.739   3.969
16100W        W81261  37.777  35.198   4.691
16101W        W81262  29.425  33.219  14.967
16102W        W81263  27.111  24.194  10.169
16103W        W81264   9.716  32.019   3.651
16104W        W81265   0.374  26.381  11.252
16105W        W81266  21.639   8.335  11.384
16106W        W81267  12.951  18.039  12.196
16107W        W81268  42.833  44.489  13.314
16108W        W81269  41.434   6.498  10.506
16109W        W81270  29.184  38.566  14.239
16110W        W81271  22.518  17.689  12.932
16111W        W81272   7.376  43.172   3.795
16112W        W81273  39.962  15.428  10.848
16113W        W81274  44.257  12.209   4.517
16114W        W81275  26.198  14.331   1.907
16115W        W81276  17.060   4.273   0.794
16116W        W81277  23.788   1.665  12.217
16117W        W81278  13.399  34.196  10.752
16118W        W81279  38.892  30.638  14.813
16119W        W81280  34.255  22.745   1.850
16120W        W81281   4.284  19.760  11.179
16121W        W81282  40.334  33.594  14.844
16122W        W81283  13.071  41.852   0.922
16123W        W81284  19.469   6.143   1.357
16124W        W81285  35.089   2.484   3.665
16125W        W81286  30.984  12.358   1.334
16126W        W81287  28.757  38.899   3.178
16127W        W81288  19.638  14.229  11.617
16128W        W81289   2.231  12.129  12.490
16129W        W81290  25.600  40.775   1.680
16130W        W81291  41.465   5.544   4.086
16131W        W81292  16.706  15.550   2.198
16132W        W81293   8.206  10.379   1.006
16133W        W81294  13.375  15.187   2.853
16134W        W81295  30.515  26.684  12.025
16135W        W81296  26.664  31.334   0.513
16136W        W81297  15.175  42.858   0.711
16137W        W81298  32.140  11.910   2.794
16138W        W81299  20.379   3.902  11.949
16139W        W81300  33.510  44.430   3.531
16140W        W81301   3.004   1.246   0.236
16141W        W81302  41.092  33.403   1.476
16142W        W81303  44.792  21.224  13.918
16143W        W81304   6.305  32.528  12.029
16144W        W81305  26.239  35.847  13.791
16145W        W81306  10.682  10.238  11.680
16146W        W81307  25.157  10.419  12.009
16147W        W81308   1.171  18.628   2.431
16148W        W81309  18.371  15.084   3.092
16149W        W81310  34.922  31.094  10.590
16150W        W81311  39.964  37.749  13.771
16151W        W81312  40.098  30.978   1.925
16152W        W81313  25.247   3.935  12.416
16153W        W81314  26.787  27.294   3.956
16154W        W81315  30.301  29.904   1.881
16155W        W81316   7.775  21.187  11.895
16156W        W81317   0.875  38.403   2.904
16157W        W81318  11.554   2.530   3.729
16158W        W81319  14.246  38.528  13.677
16159W        W81320  37.511   5.917   3.610
16160W        W81321  43.762  42.527   3.100
16161W        W81322  43.254  23.845  14.998
16162W        W81323  30.440   1.996  13.048
16163W        W81324  43.966  13.296   9.758
16164W        W81325   7.141  13.133  13.431
16165W        W81326  11.170  23.508   3.141
16166W        W81327  13.343  27.445   3.292
16167W        W81328  44.936  30.601   3.291
16168W        W81329  36.630  21.979   3.177
16169W        W81330  27.659  24.672  11.775
16170W        W81331  12.968  35.009   4.454
16171W        W81332  30.442  27.095   3.118
16172W        W81333  39.808   1.447  12.469
16173W        W81334  13.865  20.297  13.868
16174W        W81335   9.316  21.832   1.572
16175W        W81336  21.778   9.896  12.855
16176W        W81337  36.418  25.282   2.814
16177W        W81338  17.255  37.560   2.876
16178W        W81339  18.644  40.430  12.256
16179W        W81340   5.400   9.023   0.419
16180W        W81341  40.371  14.081  14.416
16181W        W81342  24.054  16.877  12.446
16182W        W81343   3.468  39.920   4.730
16183W        W81344  15.767   5.731  13.030
16184W        W81345  44.799  29.536   0.406
16185W        W81346  21.210  31.940  11.423
16186W        W81347  43.450  37.352   2.138
16187W        W81348  39.752  40.913   1.436
16188W        W81349  36.850  13.201  12.835
16189W        W81350  32.647  30.453   4.547
16190W        W81351  17.468  17.526   3.214
16191W        W81352  19.785  18.171   2.137
16192W        W81353  13.379   0.434   2.221
16193W        W81354   2.351  31.674  14.557
16194W        W81355   4.443   6.648   3.691
16195W        W81356  23.382  11.528   0.322
16196W        W81357  33.010  37.583   4.898
16197W        W81358  34.333  40.066  12.060
16198W        W81359  29.666  35.004   1.790
16199W        W81360  30.412   3.032  13.033
16200W        W81361  13.872  32.173  13.865
16201W        W81362  42.802  30.200   4.438
16202W        W81363   1.663  18.166   3.557
16203W        W81364  32.060  28.601  13.578
16204W        W81365  17.131  29.081   2.853
16205W        W81366  44.461   6.463   3.627
16206W        W81367  29.545   8.615  14.105
16207W        W81368  12.513  21.455  13.322
16208W        W81369  44.676  16.529   4.372
16209W        W81370   0.251  25.533   3.691
16210W        W81371  21.523   4.658   4.583
16211W        W81372  27.578  40.486   2.673
16212W        W81373   0.836   4.438  14.062
16213W        W81374   8.833  44.273   2.606
16214W        W81375  10.923   9.121   0.283
16215W        W81376  40.474  42.453  12.122
16216W        W81377  22.268  23.657  11.738
16217W        W81378   2.081  43.472   4.176
16218W        W81379  26.159   0.722   1.476
16219W        W81380  32.408  32.575   4.411
16220W        W81381   4.024  38.075   4.539
16221W        W81382  10.556  18.064  13.522
16222W        W81383  31.911  39.403   0.421
16223W        W81384  37.144  19.926  10.762
16224W        W81385  10.079  37.085   1.374
16225W        W81386   8.543  13.188   0.157
16226W        W81387   1.720  27.902   4.211
16227W        W81388  26.144  14.911  11.823
16228W        W81389  23.501  37.299  14.434
16229W        W81390  17.478  37.868   4.839
16230W        W81391   2.326  23.514  14.091
16231W        W81392  32.220  19.577   1.815
16232W        W81393  38.642  26.621   3.192
16233W        W81394  23.668  23.665   5.360
16234W        W81395  42.918  37.650   1.934
16235W        W81396   6.387  21.573  13.834
16236W        W81397  40.717   2.356   0.373
16237W        W81398  23.465  42.980   1.907
16238W        W81399   2.839  17.663  10.981
16239W        W81400  26.925  43.031  11.189
16240W        W81401  28.518   0.914  11.035
16241W        W81402  31.605  30.008   2.575
16242W        W81403  23.249   8.802   2.658
16243W        W81404  36.775  37.526  14.229
16244W        W81405   0.326  11.572   1.181
16245W        W81406  13.652  21.575   0.046
16246W        W81407   0.168  26.703   4.224
16247W        W81408   8.730  39.821   1.305
16248W        W81409  22.700  29.536   1.262
16249W        W81410  44.221  16.999   1.233
16250W        W81411   7.101   4.295   3.754
16251W        W81412  19.308  39.434  12.174
16252W        W81413  20.564  21.603  11.600
16253W        W81414   1.868  31.939  10.573
16254W        W81415   5.728  20.146   1.294
16255W        W81416  36.631  35.922  12.594
16256W        W81417   1.843  14.815  11.207
16257W        W81418  23.035  37.478   4.112
16258W        W81419  43.295  19.227  10.472
16259W        W81420   9.930   4.728  11.513
16260W        W81421  15.724  24.875  13.596
16261W        W81422  20.717  38.690   2.732
16262W        W81423  22.235   0.971   0.843
16263W        W81424  30.682   1.014  11.347
16264W        W81425  13.677  24.740   3.656
16265W        W81426  10.895  27.936   0.700
16266W        W81427  40.785  13.234  14.932
16267W        W81428   4.003  12.069  11.909
16268W        W81429  26.552  33.480  12.132
16269W        W81430   4.818  20.982   0.787
16270W        W81431  42.369  35.450   0.267
16271W        W81432   9.203   0.129   0.325
16272W        W81433  21.351  40.485  12.003
16273W        W81434   5.176  17.258  12.983
16274W        W81435  13.254   0.470   1.272
16275W        W81436  42.326  40.097   1.938
16276W        W81437  39.257  17.170   4.084
16277W        W81438  22.676  19.802   4.179
16278W        W81439  22.705  20.963  12.757
16279W        W81440  25.171  15.693  12.533
16280W        W81441  38.807  13.759   4.220
16281W        W81442  36.061  37.734  12.606
16282W        W81443  20.785  26.804  10.674
16283W        W81444  11.674   5.386  14.038
16284W        W81445  43.977  34.678  14.018
16285W        W81446  40.846  42.604  14.747
16286W        W81447  33.559  38.428  14.769
16287W        W81448  15.503  43.436  13.109
16288W        W81449  28.132   7.043  13.971
16289W        W81450   9.378  22.859   1.531
16290W        W81451  28.565  36.425  14.577
16291W        W81452  28.867  16.439   0.849
16292W        W81453  21.517  27.125  11.228
16293W        W81454  38.477  17.510   4.655
16294W        W81455  24.909  43.387  10.130
16295W        W81456  28.913  42.956   1.330
16296W        W81457   2.931  29.215  12.541
16297W        W81458  15.211  33.935  13.718
16298W        W81459  42.375  11.410  12.461
16299W        W81460   0.032  34.825  12.470
16300W        W81461  44.431  43.195   0.775
16301W        W81462   6.356  35.000  13.416
16302W        W81463  23.976  39.095  12.452
16303W        W81464  42.573  28.943   3.007
16304W        W81465  17.734   2.162   1.915
16305W        W81466   9.801  15.290  12.341
16306W        W81467  40.266  37.402  10.586
16307W        W81468  23.954  44.446   3.262
16308W        W81469   0.311   8.739   4.286
16309W        W81470  11.324   0.970  14.865
16310W        W81471  39.406  25.493   3.789
16311W        W81472   0.795  28.247   3.659
16312W        W81473  39.931  23.553   1.964
16313W        W81474   9.755  25.487   3.295
16314W        W81475  31.848   2.093   2.652
16315W        W81476  29.026   4.680   2.401
16316W        W81477  30.521  35.420  13.863
16317W        W81478  44.236   0.635   4.463
16318W        W81479   6.150  35.385  12.668
16319W        W81480  40.779   6.511   0.017
16320W        W81481  38.268   2.877   1.803
16321W        W81482   8.412   8.357   1.270
16322W        W81483   7.024  16.710  14.930
16323W        W81484  14.500   6.365  12.986
16324W        W81485   4.929   7.159  14.557
16325W        W81486   9.665   5.745  10.661
16326W        W81487  30.479  24.804  11.218
16327W        W81488  36.499  11.311  13.502
16328W        W81489  35.867  16.839  10.935
16329W        W81490  34.305  40.152   1.607
16330W        W81491  12.760  44.403  11.740
16331W        W81492  38.966  42.855   4.589
16332W        W81493  16.742  13.195  14.010
16333W        W81494   5.993  44.210   0.449
16334W        W81495   7.414  27.731  10.879
16335W        W81496  32.698  24.504   1.885
16336W        W81497   6.828  42.928   1.729
16337W        W81498   9.424  25.077   2.779
16338W        W81499  12.560   7.723  11.935
16339W        W81500  29.759   3.555  14.952
16340W        W81501  34.097  20.788   0.851
16341W        W81502  22.521  10.350  12.859
16342W        W81503  22.601  36.882   4.833
16343W        W81504  36.676  18.013   3.736
16344W        W81505  39.818  16.049  12.570
16345W        W81506   1.322  29.142   4.033
16346W        W81507   0.803  27.999  14.901
16347W        W81508  17.483  33.721  11.691
16348W        W81509  31.750   4.851   3.757
16349W        W81510   4.765  39.049   2.382
16350W        W81511  30.725  18.106  14.943
16351W        W81512   5.435  21.883   4.692
16352W        W81513  20.898  10.111  10.015
16353W        W81514  20.697  26.741   2.722
16354W        W81515  24.233   4.462   4.587
16355W        W81516   2.729  32.908   1.704
16356W        W81517  19.470  24.373   4.194
16357W        W81518   0.737   9.628  12.858
16358W        W81519  21.656  43.655   0.300
16359W        W81520   4.232   1.242   2.318
16360W        W81521  39.845  43.568  11.616
16361W        W81522  16.354   7.798   2.278
16362W        W81523  41.723   6.741  10.883
16363W        W81524  24.794  21.244   1.789
16364W        W81525  39.391  42.599  13.274
16365W        W81526  13.254  39.678   1.800
16366W        W81527  44.922  32.065  12.002
16367W        W81528  40.330  41.059  13.174
16368W        W81529  16.707  10.251  12.095
16369W        W81530   6.916  37.654   1.694
16370W        W81531   4.392  41.507   2.758
16371W        W81532   5.992  23.635  12.432
16372W        W81533  29.003  15.220  10.789
16373W        W81534  35.609  37.049   3.356
16374W        W81535  24.623  42.100  10.442
16375W        W81536   6.313  30.557   2.063
16376W        W81537  32.970  35.917  13.544
16377W        W81538  22.675  39.651   2.845
16378W        W81539  13.826  35.120   0.299
16379W        W81540  23.027  17.305  14.291
16380W        W81541  17.948   3.526   2.261
16381W        W81542   9.520  14.108   4.826
16382W        W81543   5.843  32.100   0.423
16383W        W81544  17.012   9.299  11.204
16384W        W81545  39.900  23.043  11.666
16385W        W81546   6.184  44.712   1.800
16386W        W81547  25.552  34.091   4.525
16387W        W81548  26.206  32.487  11.227
16388W        W81549  12.318  34.741   4.172
16389W        W81550   4.948  23.663   3.314
16390W        W81551  18.054   2.987   0.837
16391W        W81552  31.023  21.789  11.676
16392W        W81553  21.666  36.085  11.556
16393W        W81554  25.689   5.387  10.827
16394W        W81555  12.420   3.944   3.395
16395W        W81556  42.945  22.939   3.881
16396W        W81557  43.941  12.467   0.840
16397W        W81558  18.556  16.017   0.428
16398W        W81559  24.149  28.494   4.212
16399W        W81560  42.768  18.713   0.988
16400W        W81561   4.515  23.454   4.070
16401W        W81562  12.801  21.431   0.752
16402W        W81563   8.138   9.206   2.707
16403W        W81564  11.255  28.330   3.276
16404W        W81565   2.070  12.970  14.517
16405W        W81566  11.835   8.131  11.123
16406W        W81567  19.335  32.526   2.699
16407W        W81568  43.433   0.891   4.229
16408W        W81569  20.525  29.060   2.397
16409W        W81570  33.425   5.488  11.136
16410W        W81571  27.967  36.625  11.577
16411W        W81572  18.989  36.810  14.724
16412W        W81573  37.746  23.017   1.703
16413W        W81574  22.696  24.265   1.280
16414W        W81575  33.178   6.352  12.053
16415W        W81576   5.261  16.113  11.634
16416W        W81577  23.471  15.813   0.281
16417W        W81578  18.244  16.583  13.750
16418W        W81579  37.106  10.876   3.620
16419W        W81580  13.286   7.204  10.302
16420W        W81581  15.359  44.920  10.712
16421W        W81582  41.272   8.017   2.602
16422W        W81583  29.179  11.619   3.645
16423W        W81584  30.316  11.935  12.008
16424W        W81585  42.873  32.231   1.725
16425W        W81586  41.427  35.558  12.065
16426W        W81587  16.280   9.127   4.378
16427W        W81588  29.586  28.433  14.295
16428W        W81589   2.931  14.664  14.861
16429W        W81590  35.458  36.110   3.660
16430W        W81591  15.317  27.455  11.868
16431W        W81592  17.571  41.486   1.834
16432W        W81593   8.838  20.755  10.505
16433W        W81594  37.490  31.563   1.718
16434W        W81595  40.390  16.077   4.585
16435W        W81596  24.767  36.335   9.815
16436W        W81597  41.815   0.497  12.038
16437W        W81598  15.565  14.759   3.356
16438W        W81599  38.306  44.017  11.954
16439W        W81600   0.234  25.155  14.536
16440W        W81601   3.195  41.306  12.035
16441W        W81602  43.797   2.060  12.095
16442W        W81603   3.262  12.841   1.745
16443W        W81604   2.862  31.131   1.422
16444W        W81605   4.647  29.085   3.093
16445W        W81606   0.433  26.999  14.793
16446W        W81607  43.242  22.333   4.507
16447W        W81608  18.684  20.246   3.744
16448W        W81609  20.518  41.572   2.681
16449W        W81610  26.158  26.596   3.215
16450W        W81611  19.702  20.978   3.224
16451W        W81612  30.377   5.761   0.458
16452W        W81613  11.657   8.924  11.441
16453W        W81614  21.914  43.935  10.832
16454W        W81615  32.462  28.049   2.894
16455W        W81616  35.040  10.357   2.906
16456W        W81617  24.269  19.804   0.450
16457W        W81618  31.519  14.226  14.044
16458W        W81619  21.413  40.775  11.566
16459W        W81620  14.875  23.119   2.901
16460W        W81621  26.062   3.312   3.301
16461W        W81622  20.299  25.745   3.269
16462W        W81623   6.833  22.952  14.879
16463W        W81624  41.002  35.553  14.875
16464W        W81625  37.308  34.636  11.993
16465W        W81626   0.791  31.694  12.693
16466W        W81627  26.672  34.490   2.080
16467W        W81628  37.837   3.198  13.894
16468W        W81629  42.543  29.004  13.954
16469W        W81630  15.993  19.032  10.620
16470W        W81631   8.898  12.796  11.625
16471W        W81632   2.930  23.116   0.802
16472W        W81633   5.079  36.330   4.152
16473W        W81634  36.714   5.514  13.034
16474W        W81635  11.312   1.300   2.701
16475W        W81636   6.669  12.078   3.353
16476W        W81637  35.438   8.849   1.731
16477W        W81638  27.053   7.155  12.543
16478W        W81639  19.670  33.925  14.247
16479W        W81640  44.792  37.640  12.546
16480W        W81641  21.716  17.039   0.468
16481W        W81642   0.017  21.591   0.984
16482W        W81643  39.027  36.098   2.136
16483W        W81644  16.978   2.644  12.022
16484W        W81645   1.256  44.860   0.741
16485W        W81646  34.975  19.204  10.387
16486W        W81647   5.757  30.821  12.274
16487W        W81648  38.422   4.306  14.956
16488W        W81649  31.489   5.629   2.985
16489W        W81650  42.530  37.905   2.680
16490W        W81651   5.984  31.430  13.036
16491W        W81652  10.851  18.283  10.683
16492W        W81653   0.543   3.246  10.710
16493W        W81654  38.013  22.985   4.426
16494W        W81655  44.404   0.234  10.207
16495W        W81656   1.430  20.226   2.335
16496W        W81657  12.394  28.541  11.436
16497W        W81658  41.510   1.848  13.415
16498W        W81659  22.215  44.256   4.555
16499W        W81660  37.475   4.556   3.180
16500W        W81661   4.751  20.164   3.618
16501W        W81662  25.511   2.330   4.477
16502W        W81663  29.458  15.439  10.898
16503W        W81664   9.226  12.293  14.409
16504W        W81665  37.411  19.076  10.452
16505W        W81666  20.260   4.368   0.989
16506W        W81667   8.995  10.585   1.610
16507W        W81668   9.415  34.384   1.822
16508W        W81669  18.921  22.434   4.140
16509W        W81670   4.382  10.876  13.908
16510W        W81671   1.906  17.050  12.442
16511W        W81672  26.511  10.185   3.281
16512W        W81673  14.496  22.863  14.399
16513W        W81674  38.561  16.678  14.244
16514W        W81675  12.765   1.452   2.656
16515W        W81676  17.628  25.082  11.862
16516W        W81677  15.642  29.406   0.858
16517W        W81678  25.718  31.219   1.681
16518W        W81679  28.569  42.082  10.814
16519W        W81680  37.058  14.489   4.826
16520W        W81681  18.336  18.645  12.445
16521W        W81682  43.290  32.029   0.956
16522W        W81683   1.307  13.329  14.861
16523W        W81684  37.330  35.109   1.254
16524W        W81685  39.073  24.460  12.399
16525W        W81686  29.551  38.040   3.582
16526W        W81687  31.720  28.042   0.850
16527W        W81688  22.085  42.063  11.876
16528W        W81689  27.712  29.946  14.362
16529W        W81690  36.643  40.055   3.593
16530W        W81691  29.385   4.350   0.284
16531W        W81692  21.290  42.928  11.962
16532W        W81693  30.265  10.680   3.866
16533W        W81694  10.077  34.579   4.689
16534W        W81695  43.933  34.384   9.974
16535W        W81696  20.116   9.642  11.900
16536W        W81697  28.135  39.999   5.018
16537W        W81698  10.842  30.463   4.528
16538W        W81699  32.072   0.285  11.598
16539W        W81700   7.946  17.180  14.699
16540W        W81701  44.841   3.691   0.832
16541W        W81702  31.692  36.355   2.243
16542W        W81703   1.017  39.413  13.828
16543W        W81704  30.953  19.336  10.788
16544W        W81705  21.724   9.347  12.056
16545W        W81706  37.075  13.226   3.624
16546W        W81707  28.829  43.929  13.392
16547W        W81708  17.738  36.023  10.647
16548W        W81709  42.793  43.452  14.414
16549W        W81710   1.513   8.590  10.734
16550W        W81711  37.279  40.577   2.228
16551W        W81712  20.608   2.531   3.200
16552W        W81713  17.624  21.160   1.830
16553W        W81714  21.559  12.315   0.749
16554W        W81715  33.478  18.811   4.906
16555W        W81716  42.987  18.550   1.796
16556W        W81717   9.133   7.060   2.450
16557W        W81718  20.044  10.841  10.615
16558W        W81719  17.068   3.754   0.853
16559W        W81720   2.169   7.962  12.611
16560W        W81721  42.555  31.001  12.581
16561W        W81722  44.305   6.368  11.941
16562W        W81723  44.047  25.246   3.808
16563W        W81724  22.033  35.068   0.826
16564W        W81725  39.639  23.944   1.825
16565W        W81726   6.213  12.255  11.654
16566W        W81727   5.856   7.480   4.267
16567W        W81728  20.790  32.532   2.680
16568W        W81729   7.465  33.131   2.213
16569W        W81730   2.481  17.350   4.922
16570W        W81731  12.146  44.994  11.638
16571W        W81732   2.190  43.301   0.240
16572W        W81733   3.384  28.282  13.356
16573W        W81734   3.684   6.730   2.337
16574W        W81735   9.714  23.519   2.152
16575W        W81736  12.565  32.470   1.387
16576W        W81737  17.991  11.290   0.519
16577W        W81738  29.167   0.251  14.335
16578W        W81739  35.513  21.111  14.482
16579W        W81740   8.799  27.359  12.872
16580W        W81741  43.905   3.871   3.007
16581W        W81742  26.732  31.375   4.354
16582W        W81743  15.123  17.398   0.853
16583W        W81744  42.851   9.224   4.724
16584W        W81745  38.896  14.327  13.332
16585W        W81746  42.639  12.679   4.228
16586W        W81747   0.844   7.603   0.930
16587W        W81748  32.062  28.363  13.123
16588W        W81749   0.999  43.335   3.540
16589W        W81750   1.771  16.544   0.008
16590W        W81751  21.594  36.473   3.177
16591W        W81752   4.698   1.515  10.397
16592W        W81753  11.196   2.823  13.268
16593W        W81754  35.549  35.613   3.510
16594W        W81755  20.942  28.690  12.124
16595W        W81756  37.192  38.472  11.806
16596W        W81757  35.954  33.400  11.184
16597W        W81758  19.817  14.726  13.848
16598W        W81759  25.720  35.130   3.617
16599W        W81760  26.473  38.928   3.560
16600W        W81761   8.276  25.197   0.942
16601W        W81762  32.467   1.224  14.659
16602W        W81763  41.436  10.147   1.411
16603W        W81764  33.171  17.750   0.237
16604W        W81765  37.526   9.050   1.781
16605W        W81766  31.670   8.066  12.642
16606W        W81767  26.658  32.416  14.448
16607W        W81768  22.298   2.198   1.283
16608W        W81769   8.472  30.938   0.966
16609W        W81770  32.693  34.009   4.635
16610W        W81771  44.852  42.758  13.046
16611W        W81772  37.898  36.100  12.688
16612W        W81773  41.871  37.800  11.167
16613W        W81774  16.317  38.651  12.543
16614W        W81775  39.558  38.983   3.080
16615W        W81776  31.848  41.328  12.929
16616W        W81777  10.119  20.100  13.514
16617W        W81778   2.477  39.456  14.523
16618W        W81779   7.644   0.462  14.607
16619W        W81780  36.284  37.193   5.055
16620W        W81781  29.072  11.944  14.952
16621W        W81782  13.355  30.524  14.618
16622W        W81783   3.274  23.876   2.825
16623W        W81784  34.596  15.603  14.904
16624W        W81785  25.172  43.968  12.911
16625W        W81786  34.471  39.465   3.232
16626W        W81787   1.261  37.415  12.535
16627W        W81788  16.327  39.526   3.199
16628W        W81789  43.168  21.967   3.274
16629W        W81790   0.704  14.458  14.366
16630W        W81791   7.240  13.542  14.455
16631W        W81792  22.782  38.034   3.730
16632W        W81793   0.745  12.800  12.497
16633W        W81794  26.538  43.346  13.292
16634W        W81795  40.335  32.846  13.814
16635W        W81796   9.209   9.348   4.868
16636W        W81797  35.109   6.215  12.978
16637W        W81798  20.736  13.322   4.232
16638W        W81799  17.887  42.204   4.125
16639W        W81800   9.614  20.373   2.569
16640W        W81801  37.927  36.323  10.629
16641W        W81802   2.324  11.401   3.983
16642W        W81803  35.832  15.244  11.249
16643W        W81804  18.098  11.382   1.888
16644W        W81805   2.676  34.886   1.699
16645W        W81806   4.150  27.666   1.711
16646W        W81807   8.205  28.527   1.663
16647W        W81808   4.837  14.250   3.155
16648W        W81809  23.086  24.133   3.166
16649W        W81810  41.465  14.432   1.884
16650W        W81811  21.455  16.727   0.778
16651W        W81812  23.100  14.262   0.456
16652W        W81813  32.289  36.288  12.895
16653W        W81814  39.358  19.564   1.832
16654W        W81815  30.687  12.162  11.705
16655W        W81816  18.763  41.747   1.657
16656W        W81817  33.198  35.604   1.761
16657W        W81818  30.875  28.236  11.023
16658W        W81819   5.923   3.817   4.554
16659W        W81820  29.127  43.478  11.564
16660W        W81821  26.891  40.069  12.504
16661W        W81822  19.346  39.861  10.501
16662W        W81823   3.206   9.447  12.953
16663W        W81824   1.281  17.142   2.666
16664W        W81825  28.937  17.891   2.824
16665W        W81826  21.055  30.995  14.805
16666W        W81827  23.522   7.895   0.035
16667W        W81828   4.843  11.909  13.629
16668W        W81829  42.562  23.146   1.804
16669W        W81830  38.082   9.441  14.512
16670W        W81831  41.571  25.988   4.705
16671W        W81832  11.889  26.107  14.835
16672W        W81833  27.591  40.932  12.173
16673W        W81834  26.268   5.130   4.026
16674W        W81835   4.070  26.594  11.707
16675W        W81836   2.152  30.587  12.931
16676W        W81837  10.944  10.492  10.725
16677W        W81838  41.360  18.694   4.675
16678W        W81839  32.479  14.799  11.043
16679W        W81840  16.819  30.499   0.228
16680W        W81841  34.067   8.730  14.277
16681W        W81842  31.104  12.753   3.803
16682W        W81843  14.020  43.352   1.912
16683W        W81844  40.677  16.256   1.982
16684W        W81845  22.831  13.273  11.581
16685W        W81846  20.209  43.456   0.003
16686W        W81847  17.038  38.576  13.820
16687W        W81848  12.044  35.177  11.132
16688W        W81849  34.042  22.117  12.963
16689W        W81850   9.082  17.131   5.090
16690W        W81851  24.153  18.741  14.302
16691W        W81852  34.669   9.317  13.742
16692W        W81853  39.429  18.055  10.787
16693W        W81854  39.935  22.742   1.268
16694W        W81855   3.814   4.962  14.932
16695W        W81856   4.080  35.287   4.333
16696W        W81857  30.055  15.904  14.315
16697W        W81858  40.031  16.055   1.908
16698W        W81859  15.209   1.188  13.878
16699W        W81860  12.843  16.789  13.510
16700W        W81861  43.173  34.979  11.322
16701W        W81862  14.218   1.494  13.908
16702W        W81863  36.784  21.273   4.780
16703W        W81864  17.506  25.065  14.793
16704W        W81865  28.515  36.311  12.856
16705W        W81866  38.938  26.068  13.629
16706W        W81867  33.662  14.382  13.172
16707W        W81868  12.413  27.535   3.367
16708W        W81869   2.747  23.666   0.850
16709W        W81870  39.129  14.157   2.584
16710W        W81871   2.432  38.725  12.174
16711W        W81872  41.141   1.978   4.443
16712W        W81873   3.625   5.190  11.383
16713W        W81874   0.939  30.590   2.706
16714W        W81875  24.312  40.389  11.965
16715W        W81876  17.034  21.208  11.982
16716W        W81877  10.842  27.479   0.935
16717W        W81878  13.158  32.503   0.880
16718W        W81879  25.967  26.995  10.747
16719W        W81880  15.560  28.674  11.594
16720W        W81881  15.861   2.163   3.363
16721W        W81882  24.889   8.421   0.647
16722W        W81883  21.363   7.549   2.896
16723W        W81884  28.299   0.047  11.088
16724W        W81885  10.955   9.702  13.142
16725W        W81886  15.192  20.850   1.510
16726W        W81887  41.686  17.135   1.963
16727W        W81888   2.025  37.028   2.286
16728W        W81889  34.635   5.437   2.832
16729W        W81890   3.850  11.587  11.973
16730W        W81891  29.053  38.037  14.376
16731W        W81892  34.900  18.414  14.839
16732W        W81893  20.086   2.253  12.970
16733W        W81894  27.207  22.693   0.811
16734W        W81895  40.363   9.679  13.422
16735W        W81896  32.241  37.203   0.387
16736W        W81897  15.330   9.342   4.178
16737W        W81898   2.867  43.017   3.852
16738W        W81899  26.207   7.759   3.311
16739W        W81900  14.816  32.100  12.896
16740W        W81901   2.744   4.223   4.483
16741W        W81902  33.801   9.423  11.056
16742W        W81903   7.443  34.564  14.028
16743W        W81904  28.935  18.670  13.339
16744W        W81905  13.383  22.815  12.859
16745W        W81906   0.818  44.545   5.462
16746W        W81907  32.198  27.054   1.841
16747W        W81908   4.170  44.736   2.249
16748W        W81909  22.328  29.644  11.358
16749W        W81910  20.979  33.547  12.966
16750W        W81911   6.383  30.476   2.560
16751W        W81912  22.105  26.222   0.636
16752W        W81913  32.416  21.043   3.674
16753W        W81914   0.505   9.917  13.250
16754W        W81915  30.212  33.169  13.464
16755W        W81916  33.589  12.791  13.581
16756W        W81917   5.853   9.492  14.752
16757W        W81918  20.105  33.115   2.817
16758W        W81919   0.182  30.582   1.288
16759W        W81920  11.127   3.010   1.263
16760W        W81921  29.647   5.753  10.666
16761W        W81922   7.846  30.947  10.535
16762W        W81923   9.779  28.896   3.344
16763W        W81924  31.704   6.673   0.260
16764W        W81925   5.443   9.826  14.771
16765W        W81926   3.927   2.298   0.656
16766W        W81927   7.545   5.334   2.973
16767W        W81928  36.173  27.996   2.870
16768W        W81929  31.414  37.110   3.728
16769W        W81930  11.198  25.252  12.067
16770W        W81931  39.134  19.738   1.380
16771W        W81932  36.069   1.314  10.562
16772W        W81933  13.924  25.909  14.420
16773W        W81934   3.149  42.559  14.478
16774W        W81935   7.878  41.693   4.169
16775W        W81936  11.548  19.666   2.104
16776W        W81937  31.188   7.309   2.642
16777W        W81938  23.453   0.333   4.510
16778W        W81939  27.639   6.899  10.480
16779W        W81940  31.661  20.517  14.033
16780W        W81941   7.098  25.294  12.606
16781W        W81942  37.028  19.766   4.356
16782W        W81943  19.376   1.788   3.416
16783W        W81944  40.094  25.201  14.219
16784W        W81945   4.729   7.333  10.167
16785W        W81946  11.231  21.332  12.830
16786W        W81947  28.021  25.404   2.842
16787W        W81948   2.875  35.037   4.086
16788W        W81949  33.058  33.797  14.784
16789W        W81950  10.551  13.341   0.487
16790W        W81951   3.818   4.765   4.089
16791W        W81952  18.949  44.271  14.989
16792W        W81953   8.241  40.238  14.912
16793W        W81954  44.428   9.130  14.815
16794W        W81955  36.021  20.879   5.082
16795W        W81956  19.948  12.341  12.411
16796W        W81957  38.231  10.590  14.781
16797W        W81958  16.165   8.125   0.816
16798W        W81959  43.434  37.468  12.450
16799W        W81960  41.857  18.685   4.833
16800W        W81961  11.281  16.599  13.382
16801W        W81962  20.103  19.324   2.750
16802W        W81963   2.946   3.054  14.365
16803W        W81964  42.642  28.434  12.872
16804W        W81965  31.320  12.534  10.042
16805W        W81966  37.211   8.822  11.248
16806W        W81967  39.530  27.465   2.605
16807W        W81968   4.484  35.044   1.280
16808W        W81969  37.552  43.938  10.616
16809W        W81970  27.005  37.042  14.774
16810W        W81971  33.313  35.924   2.329
16811W        W81972   5.275  38.760  14.033
16812W        W81973   5.259  30.758   0.350
16813W        W81974  43.378  38.880   2.403
16814W        W81975  31.593  34.573  11.528
16815W        W81976  20.230  24.754   3.157
16816W        W81977  35.920  34.690   0.430
16817W        W81978   1.229  24.498   1.338
16818W        W81979  31.717  35.285   3.313
16819W        W81980   5.925  20.612   2.335
16820W        W81981  11.787  32.517  13.711
16821W        W81982  29.290  17.543   0.714
16822W        W81983  11.709  28.105  10.335
16823W        W81984  17.348  28.207   3.989
16824W        W81985  44.397  38.572  14.417
16825W        W81986  32.622  42.686  10.147
16826W        W81987  24.846  11.513  12.244
16827W        W81988   7.719   9.680  10.838
16828W        W81989  33.661  32.572  13.345
16829W        W81990  17.056  14.248   4.804
16830W        W81991   3.625   1.004  11.622
16831W        W81992  25.384  23.009  14.947
16832W        W81993  15.870   5.803   3.643
16833W        W81994  27.381   2.532   1.574
16834W        W81995  20.549   3.518   1.724
16835W        W81996  21.060   4.703  11.072
16836W        W81997  19.836   7.243   4.205
16837W        W81998  44.991  34.372   2.603
16838W        W81999  27.780  42.923   3.269
16839W        W82000  35.760  19.999  11.569
16840W        W82001   5.441  44.201  11.974
16841W        W82002  19.038  27.487   0.024
16842W        W82003   2.917   5.136   0.896
16843W        W82004  32.600  23.176  13.811
16844W        W82005   3.829  10.161  13.935
16845W        W82006  35.648  19.236   3.370
16846W        W82007   3.353  35.960  10.492
16847W        W82008  29.431  14.026  12.402
16848W        W82009  20.125  40.088   5.020
16849W        W82010   4.678  37.884   3.280
16850W        W82011  38.239  14.622   0.513
16851W        W82012  25.114  11.342   2.942
16852W        W82013  31.606  30.117  11.725
16853W        W82014  11.345  11.616  13.765
16854W        W82015   0.978  35.147   0.951
16855W        W82016  33.414  37.353   9.985
16856W        W82017  21.247  25.537  11.413
16857W        W82018  25.453   5.163   3.573
16858W        W82019  14.745   5.943  10.438
16859W        W82020  35.043  23.506   0.105
16860W        W82021   3.313   9.391   4.222
16861W        W82022  28.106  15.816   4.565
16862W        W82023  37.423  29.416  14.931
16863W        W82024  33.693  28.984   0.283
16864W        W82025  21.124  17.628  10.081
16865W        W82026  37.857  44.083   0.799
16866W        W82027  37.830  26.041   4.605
16867W        W82028   8.289  33.056  12.563
16868W        W82029  26.833  43.858  12.400
16869W        W82030  43.330  24.172  13.448
16870W        W82031  26.931  15.809  14.012
16871W        W82032  21.188  38.062   1.254
16872W        W82033   3.953  35.826  12.058
16873W        W82034  14.827  30.676   3.371
16874W        W82035   5.245   5.055   9.929
16875W        W82036  25.079  27.126  11.981
16876W        W82037  11.614  23.664   3.339
16877W        W82038  25.801  11.648  14.474
16878W        W82039  13.068  41.496  11.504
16879W        W82040  10.201  14.370   2.333
16880W        W82041  21.409   5.874   3.139
16881W        W82042  36.485  10.260  12.343
16882W        W82043  38.095  27.275   4.225
16883W        W82044  34.934  41.952   4.926
16884W        W82045   6.360  26.731   0.308
16885W        W82046   9.668  15.710   3.255
16886W        W82047  44.929  36.286  14.947
16887W        W82048  19.958   2.791  14.304
16888W        W82049  41.984  25.435  12.570
16889W        W82050  33.147  44.438  14.941
16890W        W82051  17.012  43.590   3.205
16891W        W82052   2.954  43.537   3.899
16892W        W82053  18.819  30.578  11.800
16893W        W82054  43.226  25.434   3.638
16894W        W82055  14.827  41.657  11.850
16895W        W82056  34.735  29.629   0.746
16896W        W82057  28.197  23.709   3.209
16897W        W82058  16.552  21.991   1.331
16898W        W82059  24.510   9.432   4.577
16899W        W82060  12.304  24.081  11.011
16900W        W82061  24.494  41.866   1.889
16901W        W82062  19.621  27.647  12.457
16902W        W82063  15.583  43.771   1.313
16903W        W82064  10.721  24.291   0.424
16904W        W82065  35.038  41.970   1.404
16905W        W82066  32.550  31.703  12.897
16906W        W82067  32.819  19.303   0.505
16907W        W82068  24.550  18.577   2.464
16908W        W82069  29.123  17.397   2.829
16909W        W82070  34.366  15.738  13.470
16910W        W82071  32.061   3.553  12.778
16911W        W82072  39.238  12.772  11.447
16912W        W82073  27.486  22.358   2.891
16913W        W82074  11.213   8.722  11.602
16914W        W82075  32.025  40.520   0.460
16915W        W82076   7.782  19.787  13.445
16916W        W82077  41.976   5.843  12.556
16917W        W82078  10.275  19.833  13.951
16918W        W82079  43.948   7.504  10.831
16919W        W82080  19.075  28.601   4.675
16920W        W82081   8.137  38.385   2.097
16921W        W82082  16.049  38.157  10.717
16922W        W82083  19.109  11.676   1.909
16923W        W82084   2.693  28.856  14.461
16924W        W82085  10.919  26.028   1.241
16925W        W82086   6.136  37.475   3.212
16926W        W82087   2.824  16.353  10.637
16927W        W82088  40.624  34.077   0.209
16928W        W82089  10.774   8.097   0.207
16929W        W82090  15.610  41.300  13.479
16930W        W82091   3.881  41.725   1.915
16931W        W82092   6.373   6.547  10.028
16932W        W82093  39.130   4.222   3.813
16933W        W82094  26.546  33.141  12.952
16934W        W82095   2.811  26.908  14.973
16935W        W82096  31.027  31.386   3.775
16936W        W82097  17.188  33.881  13.399
16937W        W82098  35.114   7.296   4.056
16938W        W82099  25.572  28.022   0.140
16939W        W82100  32.478  34.471   4.432
16940W        W82101  10.482  26.047   2.651
16941W        W82102   4.202   7.264  14.991
16942W        W82103  33.764   9.200   3.171
16943W        W82104  14.231  25.099  14.547
16944W        W82105  43.402  30.657   3.474
16945W        W82106  22.488  32.964   0.426
16946W        W82107  30.665   1.706  14.459
16947W        W82108   9.357  12.746   1.688
16948W        W82109  14.307  16.192   1.304
16949W        W82110   5.806  40.403  14.816
16950W        W82111  38.658  37.228  11.905
16951W        W82112  28.582  29.811  12.542
16952W        W82113  10.841  11.443  10.322
16953W        W82114  43.307  37.815  11.985
16954W        W82115  20.816  21.138   1.600
16955W        W82116  38.654  17.290  12.085
16956W        W82117  24.912  41.522   4.796
16957W        W82118  11.871  32.744   1.283
16958W        W82119  35.990  20.522  12.108
16959W        W82120  25.984  31.181  12.482
16960W        W82121  14.089  30.741  12.492
16961W        W82122  15.458   7.878  10.690
16962W        W82123  27.525  31.032   3.279
16963W        W82124  23.546  20.067   1.839
16964W        W82125   6.290  28.924   1.778
16965W        W82126  39.908   0.922   4.461
16966W        W82127  38.029  40.907   0.644
16967W        W82128  22.959  26.642  11.170
16968W        W82129  43.861  27.703  13.051
16969W        W82130  14.144  21.705  14.950
16970W        W82131  17.999   5.272  14.561
16971W        W82132  38.884  44.916  13.038
16972W        W82133   8.741  13.225  14.265
16973W        W82134  44.397  24.123  11.021
16974W        W82135  37.556   5.103   4.707
16975W        W82136  12.109  14.168  12.603
16976W        W82137   0.960   5.324   0.192
16977W        W82138   2.388  19.222  10.917
16978W        W82139  30.824  18.784   4.041
16979W        W82140  23.005   4.920  11.097
16980W        W82141  12.741  34.906   1.883
16981W        W82142  40.958  20.181  14.545
16982W        W82143  10.988  21.995  12.038
16983W        W82144   1.150  36.016   2.534
16984W        W82145   5.235  23.214   0.940
16985W        W82146  18.417   1.772  10.753
16986W        W82147  33.850  10.364  12.028
16987W        W82148   1.426  44.569   2.705
16988W        W82149  27.510   5.890  10.938
16989W        W82150  17.251  11.070  12.429
16990W        W82151  27.697  37.292  11.376
16991W        W82152   9.906  34.549   2.729
16992W        W82153  19.631   7.709   2.829
16993W        W82154   2.257  21.214  11.946
16994W        W82155  16.844  35.383  12.302
16995W        W82156  40.810  40.437  12.624
16996W        W82157  14.284   8.228  10.967
16997W        W82158   6.862  29.527  13.368
16998W        W82159  19.616  21.513  11.442
16999W        W82160  33.961  28.513   0.310
17000W        W82161  25.934  16.239   1.013
17001W        W82162  14.710  28.438   1.764
17002W        W82163  25.119   8.723   2.613
17003W        W82164  12.332  31.098  10.747
17004W        W82165   1.307  38.819   2.222
17005W        W82166  25.643  21.148   2.424
17006W        W82167  13.036   3.837  11.740
17007W        W82168  28.517  26.747   3.901
17008W        W82169  44.410  28.559  11.978
17009W        W82170  39.564  28.960  14.250
17010W        W82171  42.527  32.615  14.373
17011W        W82172  16.999  10.155  14.415
17012W        W82173  36.092   7.769  10.950
17013W        W82174  41.343   4.503   4.556
17014W        W82175  17.372  22.333   3.613
17015W        W82176  17.646   2.856   3.820
17016W        W82177  23.505  33.412  10.730
17017W        W82178   0.536  14.094  12.905
17018W        W82179  38.895  29.454   3.399
17019W        W82180  33.452  36.588  12.078
17020W        W82181  18.213  42.072  12.919
17021W        W82182  27.039  30.851   3.112
17022W        W82183  25.535  15.711  11.704
17023W        W82184  25.072   0.163   0.343
17024W        W82185  19.818   3.788   3.886
17025W        W82186  32.492  34.819  11.516
17026W        W82187  28.588  38.216   4.854
17027W        W82188  38.599  36.631   1.716
17028W        W82189   3.331  10.438   1.783
17029W        W82190  38.833  35.772   4.955
17030W        W82191  23.993  28.024   3.347
17031W        W82192  21.972   4.818  12.155
17032W        W82193  26.539  22.760  13.655
17033W        W82194  25.662  10.317   3.656
17034W        W82195   5.302   3.888   1.795
17035W        W82196  15.594  25.494  14.329
17036W        W82197  11.137  44.412   2.157
17037W        W82198  19.034  15.217  13.916
17038W        W82199  12.628  28.004  13.881
17039W        W82200   5.658  13.824  11.634
17040W        W82201  39.265  24.026  14.471
17041W        W82202  43.501  26.641   4.440
17042W        W82203  11.019   7.423  13.414
17043W        W82204  24.025  23.185  13.646
17044W        W82205  23.140   7.848   2.823
17045W        W82206  21.480  32.820   3.825
17046W        W82207  20.175  31.571  13.634
17047W        W82208   6.337  35.747  14.774
17048W        W82209   7.469  34.617   4.580
17049W        W82210  21.065  26.458  14.865
17050W        W82211  22.039  40.865   0.822
17051W        W82212  34.994  42.180  14.512
17052W        W82213  23.249   8.688  13.931
17053W        W82214  13.581  22.648   4.377
17054W        W82215  37.873  42.423   2.926
17055W        W82216  18.763  33.585  12.958
17056W        W82217   0.804  44.763   1.828
17057W        W82218  38.119   2.805   0.869
17058W        W82219  19.781  44.078   4.871
17059W        W82220  29.275  14.811   4.486
17060W        W82221  15.122   5.881   0.699
17061W        W82222   4.124  39.159  12.855
17062W        W82223  28.490  19.552   5.059
17063W        W82224  16.537  24.253  14.943
17064W        W82225  31.649  34.202  13.603
17065W        W82226   7.746   8.780   0.285
17066W        W82227  22.140  16.152  14.815
17067W        W82228  12.335  13.356  10.606
17068W        W82229   9.860  41.836  10.959
17069W        W82230  42.423  39.008   2.671
17070W        W82231  37.926  30.636  14.756
17071W        W82232  43.557  32.008   0.518
17072W        W82233  34.376   0.623   3.664
17073W        W82234   8.542  26.138   1.222
17074W        W82235  14.785  20.824  10.368
17075W        W82236   3.029  32.991  14.854
17076W        W82237  28.544   1.904   1.249
17077W        W82238  24.488   7.382  14.450
17078W        W82239  21.278  15.293   3.577
17079W        W82240   8.134  11.322   0.917
17080W        W82241  34.603  13.119  13.567
17081W        W82242   8.748  42.090   1.998
17082W        W82243  24.128  21.723   1.510
17083W        W82244  19.530   1.827  13.012
17084W        W82245  35.026   1.476  12.100
17085W        W82246  10.746  18.297  11.513
17086W        W82247  22.539   1.885  13.093
17087W        W82248  31.798  34.570   0.377
17088W        W82249   0.993  16.384  13.973
17089W        W82250  13.988  14.381  11.072
17090W        W82251   8.358   3.703  11.856
17091W        W82252  16.608  16.660   1.694
17092W        W82253  15.982   4.751  12.286
17093W        W82254   0.354  31.036   1.129
17094W        W82255   7.884  27.670  14.432
17095W        W82256  24.034   7.416   3.635
17096W        W82257   2.840  34.025   3.712
17097W        W82258  20.261  35.547   4.539
17098W        W82259  39.901  27.994   1.123
17099W        W82260  42.567  41.726  13.991
17100W        W82261  19.620   9.096   1.964
17101W        W82262  14.223  16.842  11.253
17102W        W82263  30.310   3.431  14.947
17103W        W82264  29.030  20.336  11.177
17104W        W82265  15.583  19.855  10.960
17105W        W82266  22.757  28.151   0.906
17106W        W82267  31.371  27.171  12.073
17107W        W82268  28.529   9.155  10.664
17108W        W82269  31.184   9.649   4.543
17109W        W82270  22.195   5.363  14.411
17110W        W82271  14.856  30.839   4.453
17111W        W82272   0.768  31.431   1.889
17112W        W82273  19.178  39.398  11.690
17113W        W82274  16.007   3.102  13.465
17114W        W82275   1.476  43.274   3.785
17115W        W82276   5.775   4.710   1.626
17116W        W82277   9.437  42.729   4.504
17117W        W82278  13.694  29.705  11.995
17118W        W82279  34.280  30.474  13.848
17119W        W82280   3.203  33.503   3.270
17120W        W82281  39.151  23.060  14.233
17121W        W82282   6.815   3.441   5.479
17122W        W82283  17.345  44.303  11.986
17123W        W82284  37.591  39.529   3.844
17124W        W82285   6.815  26.623   2.603
17125W        W82286  35.629  43.614   2.711
17126W        W82287  31.230  28.220  11.407
17127W        W82288  16.226   9.659   1.034
17128W        W82289   6.282  13.456  12.798
17129W        W82290  13.815  43.113   4.610
17130W        W82291   1.556   8.687  14.378
17131W        W82292  36.986  23.663   2.189
17132W        W82293   2.745  43.843  11.592
17133W        W82294  30.007  40.484  14.510
17134W        W82295  22.965  32.093   0.220
17135W        W82296  40.448   6.680  12.443
17136W        W82297  27.444  44.913   0.159
17137W        W82298   8.688  11.175  10.756
17138W        W82299  41.484  33.950  12.853
17139W        W82300  18.706  10.057  14.379
17140W        W82301   4.964  11.965   1.887
17141W        W82302  21.624   1.951  10.730
17142W        W82303  30.011   5.668   0.834
17143W        W82304  14.801  38.438  11.593
17144W        W82305  14.848  15.703   9.913
17145W        W82306  28.402  21.014   4.283
17146W        W82307  38.378  26.464  14.757
17147W        W82308  11.790   7.792   4.426
17148W        W82309   7.678  38.535   1.845
17149W        W82310   1.802   4.288   3.249
17150W        W82311  43.386  34.498  11.202
17151W        W82312  41.579  28.042  11.429
17152W        W82313  16.860  28.712  13.912
17153W        W82314  41.525  42.885   2.251
17154W        W82315  40.627  18.605   1.686
17155W        W82316  26.255   9.483   1.243
17156W        W82317  13.206   8.832  12.949
17157W        W82318   7.604  11.245   0.962
17158W        W82319  29.700  35.135  11.187
17159W        W82320  17.650  17.438   1.980
17160W        W82321  11.213  26.246  12.975
17161W        W82322  11.319  42.834   5.211
17162W        W82323  43.446  18.205  12.785
17163W        W82324  14.590  41.115   0.616
17164W        W82325   0.951  18.206   9.842
17165W        W82326  44.808  14.609  13.365
17166W        W82327  15.791  41.817  11.445
17167W        W82328  31.749  18.997   1.692
17168W        W82329  44.660  33.399   4.549
17169W        W82330  10.072  27.435  11.606
17170W        W82331  34.262  20.665  10.549
17171W        W82332  31.211  35.387   2.296
17172W        W82333  38.304  39.954  12.835
17173W        W82334  39.013  12.325  11.580
17174W        W82335  10.370  23.560   3.689
17175W        W82336  18.416  16.514   1.191
17176W        W82337  30.024  30.397   0.295
17177W        W82338   1.906   3.252  10.671
17178W        W82339  17.021  13.728   3.721
17179W        W82340  20.111  26.497   0.725
17180W        W82341  41.216  41.877   4.562
17181W        W82342   9.690  28.427  13.732
17182W        W82343  41.819  17.581   1.741
17183W        W82344  12.632  18.633   4.187
17184W        W82345  31.204  31.358  11.045
17185W        W82346  22.432  29.976   1.291
17186W        W82347  35.577  14.222  13.620
17187W        W82348  16.081   0.803   1.468
17188W        W82349  14.166   2.886  11.798
17189W        W82350  23.231  31.785  11.611
17190W        W82351  12.751  19.049  14.329
17191W        W82352  27.539  23.569   0.560
17192W        W82353  36.984  23.733  13.467
17193W        W82354   5.780  36.621  14.035
17194W        W82355   8.782  44.684   5.214
17195W        W82356  42.702  24.924  14.463
17196W        W82357  30.869  31.102  14.878
17197W        W82358   1.273  33.095   1.661
17198W        W82359   1.389   2.432   2.848
17199W        W82360  17.262   4.865   4.544
17200W        W82361  26.446  25.326  12.331
17201W        W82362  26.225  29.049  11.714
17202W        W82363  43.325   8.449  10.383
17203W        W82364  39.062  21.536   2.710
17204W        W82365  11.802  40.080  13.171
17205W        W82366  17.174   1.928   3.058
17206W        W82367  17.537  14.265  13.053
17207W        W82368   8.387   2.865  14.430
17208W        W82369  20.249  38.235   3.739
17209W        W82370  31.656  43.765  14.400
17210W        W82371   5.737  12.350   2.415
17211W        W82372  35.811  32.992   4.135
17212W        W82373  18.699   4.769   3.691
17213W        W82374  36.570  20.683   2.612
17214W        W82375  35.331  32.349   0.448
17215W        W82376  38.586  36.329  11.640
17216W        W82377  16.776   4.339   4.095
17217W        W82378  36.528  29.731   4.688
17218W        W82379   5.672  41.052  13.809
17219W        W82380   8.907  28.861  14.304
17220W        W82381  28.072  18.101  11.461
17221W        W82382  39.885  30.949  11.442
17222W        W82383  26.638  36.644   2.382
17223W        W82384  23.266   1.199   3.383
17224W        W82385  10.422   5.213  10.296
17225W        W82386  13.124  19.936   2.298
17226W        W82387  37.062  29.534   2.378
17227W        W82388  21.312  10.351   0.886
17228W        W82389  31.921  26.561   1.094
17229W        W82390  40.010  10.582  13.616
17230W        W82391  15.876  21.539   4.382
17231W        W82392  20.119   8.467   3.706
17232W        W82393   6.801   8.575  14.921
17233W        W82394  15.966  18.214   0.225
17234W        W82395  29.547   9.180   0.454
17235W        W82396  36.134  11.901   4.285
17236W        W82397  28.204  34.474  11.232
17237W        W82398   8.753  43.048   3.897
17238W        W82399  14.224   2.032  13.941
17239W        W82400  21.649  43.946   3.160
17240W        W82401  11.253   1.970   3.293
17241W        W82402  20.482   5.626  14.953
17242W        W82403  23.221  13.095   0.271
17243W        W82404  42.970  12.865  14.475
17244W        W82405  11.827  41.380   4.900
17245W        W82406   2.513  24.650  11.132
17246W        W82407  12.122  32.412   2.856
17247W        W82408  13.456  10.235   0.480
17248W        W82409   0.474  23.143   1.447
17249W        W82410  42.832  18.091  10.857
17250W        W82411  13.630  37.459   1.455
17251W        W82412  27.769  20.975  10.778
17252W        W82413  43.340  44.776   0.939
17253W        W82414  31.073   5.672  14.365
17254W        W82415  42.556  44.404   2.979
17255W        W82416  24.293  15.713  13.059
17256W        W82417  12.469  32.542  14.552
17257W        W82418  23.033  15.435  10.175
17258W        W82419   2.719  44.904  14.471
17259W        W82420  32.130  36.687   2.123
17260W        W82421  13.299  27.939   3.082
17261W        W82422  29.605  18.516   0.803
17262W        W82423  20.659  16.916   3.441
17263W        W82424  18.600  10.107   3.793
17264W        W82425   3.687   6.754  13.799
17265W        W82426   7.712  36.242   4.035
17266W        W82427  26.389  22.569   4.613
17267W        W82428  37.168  41.764   0.497
17268W        W82429  27.540  23.935   0.969
17269W        W82430  32.618  25.248   1.263
17270W        W82431   1.651  42.881  11.639
17271W        W82432  39.340  24.677  12.779
17272W        W82433  28.210  43.929   3.201
17273W        W82434  11.045  41.543  11.061
17274W        W82435   6.849  30.135  14.826
17275W        W82436  33.678  17.563   3.568
17276W        W82437  10.852  15.163   3.840
17277W        W82438   9.329  41.960  12.604
17278W        W82439  36.569  19.648  13.357
17279W        W82440   4.971   5.410   3.639
17280W        W82441  35.466  17.929   2.569
17281W        W82442  29.616  13.720  10.278
17282W        W82443  25.610   6.740  13.733
17283W        W82444  36.868  35.110   0.323
17284W        W82445   2.135  39.844  14.487
17285W        W82446  20.273  19.788  11.782
17286W        W82447  39.111  14.015  14.394
17287W        W82448  42.600  33.014   0.636
17288W        W82449  19.012  22.945  12.375
17289W        W82450  39.438  30.736  11.197
17290W        W82451   3.461   3.828  13.761
17291W        W82452   7.121  10.021  14.651
17292W        W82453  14.993  16.467   9.943
17293W        W82454  25.411   0.063   2.494
17294W        W82455  23.062  19.574   3.324
17295W        W82456  27.393  18.732  12.481
17296W        W82457  30.026  35.409  14.041
17297W        W82458  32.154  33.067  13.355
17298W        W82459  11.352  34.990  10.442
17299W        W82460  38.727  37.615  10.753
17300W        W82461  12.703  13.863  12.882
17301W        W82462  25.938  40.524   0.888
17302W        W82463  41.286   1.371  12.370
17303W        W82464  43.465  18.049  13.795
17304W        W82465  28.125  44.548  13.649
17305W        W82466  29.546  20.983  13.548
17306W        W82467   9.635  14.345   0.881
17307W        W82468  25.569   3.353   2.330
17308W        W82469  17.690  30.499   0.769
17309W        W82470  16.894  10.722   3.829
17310W        W82471   3.148  40.788   2.285
17311W        W82472  20.299   3.916   0.195
17312W        W82473  22.550  30.874   2.993
17313W        W82474   1.952  12.819  11.475
17314W        W82475  34.618  23.086  13.027
17315W        W82476   4.849   9.853   0.311
17316W        W82477  21.676  21.960  14.056
17317W        W82478  38.880  39.087  13.901
17318W        W82479  20.413   0.832   3.820
17319W        W82480  13.275  10.390  14.996
17320W        W82481  22.741   5.398  10.250
17321W        W82482  20.902   4.217  11.178
17322W        W82483  32.559  43.506  12.600
17323W        W82484   7.790  23.201   0.871
17324W        W82485  14.345   8.345  12.121
17325W        W82486  22.295   3.250   4.129
17326W        W82487  44.966  30.819  13.444
17327W        W82488  39.191  19.191   4.763
17328W        W82489  28.506  27.951  11.980
17329W        W82490   7.436   4.671   3.621
17330W        W82491  33.600  35.812  11.604
17331W        W82492  32.393  31.943   1.127
17332W        W82493  28.127  13.128  10.708
17333W        W82494  32.442   7.680   4.098
17334W        W82495  30.930  27.451   0.573
17335W        W82496  14.730   0.932   2.659
17336W        W82497  40.109  25.494   0.066
17337W        W82498   6.153  42.017  10.792
17338W        W82499  38.728  31.065  14.096
17339W        W82500  14.293  29.005  14.727
17340W        W82501   0.045  24.349  12.077
17341W        W82502  44.273  12.330  10.858
17342W        W82503  27.603  44.434  13.837
17343W        W82504  14.552  40.123  12.120
17344W        W82505  11.714  39.062  10.682
17345W        W82506  27.796  14.037   2.296
17346W        W82507  34.345  39.554  11.989
17347W        W82508  15.793  12.315  11.612
17348W        W82509  13.249  39.974  11.986
17349W        W82510   3.272  43.508  10.702
17350W        W82511  20.599   5.178   0.870
17351W        W82512  32.115  19.898  14.356
17352W        W82513   5.060  29.514   1.144
17353W        W82514  12.138  40.701  12.886
17354W        W82515  17.677  10.955  14.411
17355W        W82516  35.045  10.036   2.503
17356W        W82517  37.391  11.557   1.832
17357W        W82518  41.476  10.999  13.344
17358W        W82519  40.624  17.529   2.970
17359W        W82520  41.280   5.956  11.497
17360W        W82521  18.775  22.553  12.636
17361W        W82522  35.852  16.591   1.669
17362W        W82523  37.342  37.379  11.070
17363W        W82524  35.386  38.561  13.102
17364W        W82525  42.785   6.479   2.296
17365W        W82526  14.393  42.907  14.295
17366W        W82527  11.793  12.578  14.995
17367W        W82528  13.688  13.808   3.791
17368W        W82529  28.703  39.972   1.115
17369W        W82530  22.342  41.785  11.546
17370W        W82531  22.829  39.348  14.312
17371W        W82532  33.382  14.838   0.405
17372W        W82533  29.563  20.000   3.351
17373W        W82534  30.075  20.599  14.590
17374W        W82535  29.641  34.378   3.909
17375W        W82536  26.243  10.635   1.914
17376W        W82537  39.041  32.057   0.968
17377W        W82538  32.834   2.013  12.137
17378W        W82539  19.970  19.999  11.345
17379W        W82540  23.726  17.852   3.300
17380W        W82541   9.286  27.522  12.035
17381W        W82542  28.814  42.322  11.376
17382W        W82543  11.275  26.717  10.727
17383W        W82544  26.133  40.489  14.174
17384W        W82545  17.303  41.962  14.083
17385W        W82546  35.779  13.951  10.963
17386W        W82547   0.505  37.528  12.865
17387W        W82548  27.082  30.442  10.878
17388W        W82549  17.533  21.964   2.275
17389W        W82550  24.135  23.736  14.973
17390W        W82551  24.190  43.543  13.552
17391W        W82552  40.731  11.630   4.613
17392W        W82553  21.668  25.997  13.785
17393W        W82554   4.985  13.800   4.839
17394W        W82555  29.455  40.819  14.263
17395W        W82556  43.676  17.261   4.127
17396W        W82557   4.364  13.628   3.671
17397W        W82558  30.541  21.180   2.435
17398W        W82559  19.549  31.713  12.086
17399W        W82560  20.647  29.171  13.032
17400W        W82561   1.440  31.973   2.132
17401W        W82562   9.780  24.523  13.353
17402W        W82563   5.981   3.021  14.668
17403W        W82564  28.066  19.660   2.659
17404W        W82565  37.361  27.119   0.839
17405W        W82566  18.214  13.317   1.316
17406W        W82567  25.845   3.228   0.052
17407W        W82568  26.528   6.719  13.969
17408W        W82569   7.679  38.368   4.891
17409W        W82570  32.179  32.667   0.363
17410W        W82571  35.097  33.934  13.969
17411W        W82572  15.846  29.521   1.725
17412W        W82573   6.187  18.510   1.784
17413W        W82574  30.475  20.385   3.083
17414W        W82575  13.465  37.392   0.264
17415W        W82576  36.374   0.519   1.768
17416W        W82577   3.618  10.650  12.519
17417W        W82578  36.250  23.194  11.634
17418W        W82579  38.939   3.885  10.677
17419W        W82580  34.399  23.169  11.390
17420W        W82581   4.440  43.935  10.622
17421W        W82582  43.851  26.651   0.329
17422W        W82583  42.918  40.370   0.220
17423W        W82584  18.799  34.921  13.997
17424W        W82585  25.058  28.005  14.353
17425W        W82586  15.113  11.231   4.682
17426W        W82587  27.971  31.627   0.947
17427W        W82588  37.391   1.407   2.511
17428W        W82589  44.676  43.872  12.297
17429W        W82590  20.851  42.432   1.750
17430W        W82591  40.896  15.187   0.692
17431W        W82592   8.718  12.400   1.586
17432W        W82593  43.516  15.993  11.073
17433W        W82594   2.572  17.621   0.509
17434W        W82595   2.330  41.994  14.759
17435W        W82596  28.999  19.561   1.477
17436W        W82597  32.518  10.734   4.750
17437W        W82598  40.367  34.447  13.990
17438W        W82599  31.449   6.521   3.616
17439W        W82600  36.644  20.194  10.630
17440W        W82601  11.775  37.062   0.421
17441W        W82602   6.192   1.335   2.699
17442W        W82603  35.764  28.207  13.696
17443W        W82604  17.557   8.618  11.180
17444W        W82605  16.195  39.004   5.280
17445W        W82606   6.435  40.108  10.369
17446W        W82607   4.415   5.867  12.903
17447W        W82608  33.475  30.146   3.600
17448W        W82609  29.612   2.845  14.357
17449W        W82610  23.067  25.723  14.085
17450W        W82611  17.101  19.734   3.731
17451W        W82612  10.177  39.258  11.324
17452W        W82613  41.805  31.859  10.291
17453W        W82614  12.273  42.757   3.230
17454W        W82615  25.427  41.551  13.180
17455W        W82616  40.245   7.798  11.312
17456W        W82617   6.680  40.710  12.448
17457W        W82618   4.044   4.401  11.784
17458W        W82619  23.768  21.663   3.286
17459W        W82620   7.279  36.099   4.930
17460W        W82621  14.136   7.142   1.821
17461W        W82622  16.417  44.119   0.209
17462W        W82623  11.127   1.260   3.197
17463W        W82624  25.273  23.286  14.492
17464W        W82625   7.165   3.985   2.772
17465W        W82626  16.226  29.124  11.941
17466W        W82627  22.175  16.883   0.293
17467W        W82628  12.870  31.575   0.570
17468W        W82629   8.621  21.166   0.854
17469W        W82630  25.799   0.764  13.942
17470W        W82631   9.229   9.381  12.058
17471W        W82632  19.862   8.833  12.954
17472W        W82633  30.669  23.981   3.670
17473W        W82634  24.464  41.651   0.659
17474W        W82635  28.599   2.661   3.649
17475W        W82636  14.790  12.595  11.051
17476W        W82637  32.496  34.874   2.186
17477W        W82638  31.930  20.248  10.611
17478W        W82639  36.026  37.659  11.322
17479W        W82640  43.073   8.435  12.179
17480W        W82641  35.939   7.441  10.490
17481W        W82642   0.047  32.792   3.741
17482W        W82643  31.384  31.490  14.001
17483W        W82644  31.653  35.134  14.629
17484W        W82645   6.240   9.532  12.471
17485W        W82646   6.469  23.187   2.410
17486W        W82647  13.819  22.208  13.836
17487W        W82648  13.686   3.205  12.551
17488W        W82649  15.857   4.233  11.747
17489W        W82650   8.306  32.778  10.698
17490W        W82651  44.702   7.879  13.002
17491W        W82652  43.281   8.357  13.004
17492W        W82653   4.990  37.557   3.574
17493W        W82654   7.900  16.236  11.898
17494W        W82655  35.543   9.460  11.102
17495W        W82656  41.765  11.484  11.233
17496W        W82657  26.895   5.319  11.460
17497W        W82658  34.129  10.274   3.900
17498W        W82659  28.931  19.521   2.356
17499W        W82660  22.500  43.371   0.450
17500W        W82661  19.687  27.079  13.901
17501W        W82662   1.192  30.088  11.084
17502W        W82663   4.185  16.588   1.444
17503W        W82664  24.478  20.178  14.836
17504W        W82665  29.808  29.436   1.436
17505W        W82666  26.386  21.474   3.194
17506W        W82667  41.480  20.032  12.952
17507W        W82668  34.891  31.588  12.331
17508W        W82669  36.288   1.395   3.143
17509W        W82670  14.776  25.976   3.163
17510W        W82671  10.652  12.672  12.262
17511W        W82672  33.100  12.893   3.666
17512W        W82673  28.966  14.697  10.688
17513W        W82674  42.791  39.908   1.951
17514W        W82675  21.105  32.982  12.269
17515W        W82676  30.478   2.305   1.356
17516W        W82677   2.862  19.589  10.922
17517W        W82678  35.532  10.740   4.443
17518W        W82679  31.093  12.346  10.484
17519W        W82680   7.052  30.075  13.813
17520W        W82681  42.845  38.520  11.489
17521W        W82682   1.044   5.887  11.993
17522W        W82683  22.989  34.633   4.160
17523W        W82684  26.622  25.498   1.768
17524W        W82685  41.931  25.536   1.393
17525W        W82686  12.420  14.403  13.949
17526W        W82687  28.962  24.944  12.983
17527W        W82688  34.523  11.742   2.482
17528W        W82689  27.594  34.596   1.083
17529W        W82690   2.721  18.994  14.458
17530W        W82691  42.823   2.294   4.596
17531W        W82692  20.113  33.203  11.190
17532W        W82693  42.907   8.903  14.489
17533W        W82694  27.225  37.754  10.358
17534W        W82695  41.914   6.235   2.454
17535W        W82696  36.298  31.052  10.971
17536W        W82697  32.418  12.568  14.463
17537W        W82698  17.732  44.825  11.476
17538W        W82699  32.372  12.373   0.388
17539W        W82700  20.797   8.866  14.813
17540W        W82701  18.666  42.547  13.540
17541W        W82702   1.743   8.758   1.341
17542W        W82703   1.782  28.180  13.024
17543W        W82704  27.968  29.620  14.815
17544W        W82705  37.628  19.878  11.565
17545W        W82706   2.525  13.563  12.431
17546W        W82707   0.784  41.376  12.091
17547W        W82708  43.973  29.954   0.358
17548W        W82709   1.713  21.109   3.615
17549W        W82710  42.732   9.580   0.705
17550W        W82711  37.915   3.971   5.009
17551W        W82712  25.841  15.396   2.980
17552W        W82713  29.895   7.141  14.507
17553W        W82714  16.214  18.556  14.684
17554W        W82715  20.348   0.020   3.296
17555W        W82716   9.939  21.552  11.610
17556W        W82717  20.989   0.127   2.709
17557W        W82718  19.468  26.593  13.912
17558W        W82719  23.314  43.458  10.773
17559W        W82720   1.938  17.625  12.107
17560W        W82721  15.534  30.680  11.057
17561W        W82722  42.004  27.737   2.925
17562W        W82723  11.214   6.604  13.847
17563W        W82724  38.823  27.189  14.733
17564W        W82725   9.034  15.059   4.680
17565W        W82726  25.167  22.010  13.496
17566W        W82727  31.254  21.687  10.198
17567W        W82728  31.207  14.598  13.371
17568W        W82729  20.628   3.204   4.188
17569W        W82730   0.297  12.841  12.741
17570W        W82731  42.813   8.862   3.887
17571W        W82732  43.423   5.160   2.771
17572W        W82733   0.167  30.956  10.752
17573W        W82734  20.916  41.354  12.125
17574W        W82735   8.840  33.895   2.915
17575W        W82736  25.225  26.503   3.330
17576W        W82737  31.303   3.753   1.115
17577W        W82738  17.307  11.387  11.116
17578W        W82739   7.407  38.476   0.995
17579W        W82740  27.507   9.195   1.595
17580W        W82741  32.679  39.555   2.658
17581W        W82742   6.469   0.291   1.859
17582W        W82743  13.647  12.393   2.140
17583W        W82744  40.128  20.130  11.216
17584W        W82745  21.124  39.487  13.817
17585W        W82746  15.719  25.824   3.092
17586W        W82747  12.359  32.146  11.648
17587W        W82748  21.051  28.917   4.317
17588W        W82749  31.522  25.907   3.664
17589W        W82750  23.180  11.363   1.827
17590W        W82751  23.180  34.971  13.061
17591W        W82752  35.948  43.329  10.898
17592W        W82753  37.006   3.996  14.484
17593W        W82754  23.753  24.219  12.167
17594W        W82755  31.217  18.632   0.993
17595W        W82756  12.556  17.100   0.266
17596W        W82757  42.416  20.138  11.508
17597W        W82758  37.785   7.220   4.681
17598W        W82759  25.358  18.376   3.247
17599W        W82760  33.290  15.686  13.610
17600W        W82761   6.373  15.100   0.750
17601W        W82762  25.968   6.914   4.717
17602W        W82763  44.403  22.282   4.547
17603W        W82764   0.502  31.902   3.727
17604W        W82765  42.027   4.694   0.901
17605W        W82766  37.559  34.167   1.835
17606W        W82767   5.740   3.504   4.919
17607W        W82768  10.608   8.897  13.446
17608W        W82769  35.552  10.744  10.495
17609W        W82770   1.233  15.764   4.982
17610W        W82771  28.921  15.697   4.164
17611W        W82772  24.180   4.326   3.813
17612W        W82773  44.727  44.635  13.349
17613W        W82774  19.781  25.629   1.053
17614W        W82775  19.545  13.746   1.452
17615W        W82776  34.606  37.155   0.665
17616W        W82777  13.195  25.045   3.680
17617W        W82778  17.881  28.949  14.792
17618W        W82779  20.522  21.698  10.709
17619W        W82780  43.598  11.445   4.681
17620W        W82781  25.789  19.837  11.952
17621W        W82782  12.895   2.953  12.899
17622W        W82783  36.142  29.043  14.384
17623W        W82784  38.754   7.209   5.168
17624W        W82785  24.376  11.857   3.513
17625W        W82786   4.870   6.123  13.882
17626W        W82787  44.985  25.473  14.956
17627W        W82788  23.241  33.481   0.918
17628W        W82789  25.137  10.904   2.138
17629W        W82790  31.824  44.323   2.866
17630W        W82791  16.045  34.516   3.180
17631W        W82792  29.177   7.962  13.471
17632W        W82793  35.430  17.385  14.005
17633W        W82794  17.254  20.479  14.386
17634W        W82795   4.226   9.762  14.942
17635W        W82796  42.344  41.247   1.268
17636W        W82797  12.324  30.938  13.002
17637W        W82798  44.043  23.381   3.318
17638W        W82799  39.126  16.376  11.165
17639W        W82800  10.936  41.558  12.124
17640W        W82801  30.870  28.417  12.680
17641W        W82802  30.946   0.217  12.253
17642W        W82803  18.132   9.844   3.366
17643W        W82804  39.163  25.584  13.814
17644W        W82805  35.864  36.986  13.024
17645W        W82806  22.727   9.356   1.719
17646W        W82807   8.708   8.137   1.714
17647W        W82808  20.732   5.647   4.294
17648W        W82809  25.462   4.278  11.567
17649W        W82810  36.954   6.889  12.936
17650W        W82811   1.479  43.432   4.292
17651W        W82812  30.150  40.407   0.999
17652W        W82813  20.560  26.094  12.402
17653W        W82814  11.865  32.012  14.864
17654W        W82815  26.714  18.071  13.336
17655W        W82816   0.853   4.909   4.399
17656W        W82817  25.710  39.964   1.466
17657W        W82818   9.817  25.200  11.110
17658W        W82819  25.877   9.936  14.855
17659W        W82820  21.180  19.322  14.710
17660W        W82821   1.306  36.187  11.638
17661W        W82822  23.502  28.643   0.874
17662W        W82823  35.000  18.033   4.325
17663W        W82824   0.809  19.779   4.504
17664W        W82825   2.179  20.290   0.352
17665W        W82826  28.246  33.685  12.377
17666W        W82827   6.742  31.594   1.455
17667W        W82828  33.497   4.302   4.646
17668W        W82829   4.277   7.669   3.741
17669W        W82830  32.354  13.282  14.007
17670W        W82831   4.326  17.561  13.301
17671W        W82832  44.302   6.177   2.314
17672W        W82833  42.468   1.943   4.514
17673W        W82834  26.296  41.358   2.699
17674W        W82835  11.223  13.796  10.539
17675W        W82836  28.525  10.749  14.140
17676W        W82837  36.817  24.008  14.099
17677W        W82838  35.365  16.876  14.009
17678W        W82839  23.762  42.455  13.545
17679W        W82840  28.687   7.374  13.317
17680W        W82841  42.353  27.123   4.510
17681W        W82842  15.305   7.414  14.321
17682W        W82843   7.144  20.272   2.770
17683W        W82844  36.055  33.360   0.007
17684W        W82845   3.369  40.016   3.552
17685W        W82846   0.218  30.965   2.979
17686W        W82847   8.496   9.971   4.647
17687W        W82848   8.208   1.275   0.872
17688W        W82849  11.630  31.552  14.820
17689W        W82850  36.396  29.604   4.193
17690W        W82851  33.448  16.733   3.440
17691W        W82852  37.323  21.624  12.375
17692W        W82853   7.985  23.990  12.275
17693W        W82854  23.169   5.080   2.781
17694W        W82855  12.868  14.113   0.475
17695W        W82856  26.988  26.142   1.671
17696W        W82857  43.248  15.800   1.256
17697W        W82858  26.888  11.927   1.467
17698W        W82859  20.162   4.190   3.302
17699W        W82860  13.412   8.726   3.640
17700W        W82861   8.347  35.449  13.801
17701W        W82862  22.940  42.867  13.473
17702W        W82863  24.608  18.660  13.060
17703W        W82864   6.333   5.172  12.313
17704W        W82865  28.795  40.031   3.190
17705W        W82866   9.846  32.992  14.333
17706W        W82867  33.834  36.496  13.821
17707W        W82868  43.966  36.333  14.907
17708W        W82869  34.771  39.536  13.698
17709W        W82870  39.390  31.611  10.522
17710W        W82871  38.904  24.765  14.729
17711W        W82872  11.365  34.534   1.387
17712W        W82873  42.528   4.951  11.499
17713W        W82874  10.213  21.526   3.775
17714W        W82875  33.589  37.617  11.984
17715W        W82876   4.510  20.690   1.097
17716W        W82877  27.407  11.656   0.513
17717W        W82878  34.611  25.134   2.890
17718W        W82879  44.194  34.974   4.611
17719W        W82880   9.715  36.112  14.883
17720W        W82881  44.905  10.936   1.164
17721W        W82882   9.091  28.962  12.099
17722W        W82883  10.767  40.232   3.843
17723W        W82884  14.536  41.354  12.639
17724W        W82885   5.472  14.490   0.698
17725W        W82886  33.466  32.521  10.022
17726W        W82887  22.567  38.401  14.499
17727W        W82888  39.813  14.208  12.355
17728W        W82889   5.719  29.131  13.096
17729W        W82890  17.725   7.602  14.001
17730W        W82891  43.533  18.111  12.062
17731W        W82892  32.480  11.316  12.821
17732W        W82893  43.445  17.126  12.919
17733W        W82894  16.145  14.301   0.700
17734W        W82895  23.351   1.480  10.712
17735W        W82896  17.074  41.372  14.825
17736W        W82897  19.080  38.967  14.801
17737W        W82898  28.594  20.108  12.189
17738W        W82899  36.431   5.842  10.120
17739W        W82900  42.478   6.175  13.956
17740W        W82901   5.102  44.228  14.428
17741W        W82902  40.634  32.116   4.530
17742W        W82903  10.373  32.804   2.324
17743W        W82904  28.529  30.834  12.236
17744W        W82905  21.515  15.242  11.288
17745W        W82906  29.624  32.105   1.435
17746W        W82907  29.484  38.262   4.068
17747W        W82908  23.289   2.825  10.476
17748W        W82909  19.259   2.097  12.151
17749W        W82910   9.886  39.997  14.060
17750W        W82911  34.948   5.855   2.699
17751W        W82912  16.564  35.264   2.921
17752W        W82913  34.158  12.241  14.287
17753W        W82914  14.820   5.010   0.064
17754W        W82915  44.446  19.720   1.462
17755W        W82916  18.961  23.633  12.954
17756W        W82917   2.768   6.509   2.371
17757W        W82918  39.450  13.190   3.742
17758W        W82919  32.992  16.165   1.185
17759W        W82920  24.772  43.807   0.370
17760W        W82921  18.606  20.876  12.165
17761W        W82922   1.755  17.804   2.258
17762W        W82923   5.717  33.121   4.571
17763W        W82924   4.077  12.876   9.684
17764W        W82925  31.256  14.267   1.058
17765W        W82926  10.255  33.745   1.326
17766W        W82927  38.399  36.061  12.564
17767W        W82928  38.511  19.442   4.034
17768W        W82929  35.757   8.410  12.013
17769W        W82930   9.159  13.317   3.901
17770W        W82931  27.704  41.349  11.909
17771W        W82932  32.570  14.183   5.074
17772W        W82933  19.677  36.893   2.681
17773W        W82934  27.349  34.612  14.359
17774W        W82935   6.950  10.448  11.897
17775W        W82936  20.954  11.362  12.875
17776W        W82937  41.838  26.450   4.496
17777W        W82938  42.823   3.779   4.376
17778W        W82939  44.200  21.704   1.420
17779W        W82940  20.700  19.158   2.115
17780W        W82941  16.832  29.587  12.996
17781W        W82942   3.509  19.090   3.201
17782W        W82943  27.761  20.508  13.281
17783W        W82944  24.688  28.506   4.410
17784W        W82945   3.582  31.068  11.174
17785W        W82946  43.429  27.967   2.633
17786W        W82947   2.807  23.466   1.328
17787W        W82948  17.336  20.798   4.148
17788W        W82949  34.702  41.913   0.746
17789W        W82950  15.701  15.303  11.153
17790W        W82951  34.031  32.102  10.203
17791W        W82952  25.697  30.877   0.735
17792W        W82953   1.449  10.030   4.375
17793W        W82954   0.805  20.133   4.968
17794W        W82955  20.355  27.558  13.573
17795W        W82956  36.456  14.467   4.220
17796W        W82957  20.312  34.019  11.505
17797W        W82958   9.403   2.207  13.511
17798W        W82959  22.627  20.638  11.253
17799W        W82960  44.702  25.436  14.047
17800W        W82961   7.661  38.616   0.466
17801W        W82962  26.272  32.360   4.829
17802W        W82963  37.771  36.305   2.322
17803W        W82964  28.592  16.298   4.099
17804W        W82965   3.653  14.990   0.247
17805W        W82966  35.366  29.917   2.830
17806W        W82967  23.978   0.677  14.018
17807W        W82968  24.754   7.015   0.983
17808W        W82969  38.475  30.320   2.982
17809W        W82970  28.116  32.033  11.603
17810W        W82971  11.292   6.427  14.370
17811W        W82972  21.047  33.015  14.899
17812W        W82973  27.533  26.706   3.882
17813W        W82974  18.556  32.955   1.353
17814W        W82975   2.426  21.698   3.693
17815W        W82976  22.554  41.941   4.514
17816W        W82977  40.919  38.251  13.770
17817W        W82978  28.015   6.166   1.324
17818W        W82979  38.365  40.216  11.055
17819W        W82980  27.342  38.520   3.511
17820W        W82981  27.254  11.748  11.633
17821W        W82982  20.594  44.520  12.516
17822W        W82983  19.505  31.316   1.700
17823W        W82984  32.122   1.958   4.020
17824W        W82985  10.658  22.290   3.869
17825W        W82986  21.916  11.247   9.478
17826W        W82987  13.127  41.022  11.301
17827W        W82988  12.018  18.732  11.660
17828W        W82989   8.577  24.777  12.488
17829W        W82990  27.208  42.098  12.388
17830W        W82991  18.075  31.668  13.128
17831W        W82992  20.095  10.350  11.478
17832W        W82993  35.322   2.221   4.053
17833W        W82994  30.106  38.351  11.310
17834W        W82995   6.399  20.265   2.242
17835W        W82996  17.623   8.735  12.506
17836W        W82997   2.268   7.042  12.843
17837W        W82998   6.408  44.472  11.999
17838W        W82999   8.643  44.305  11.132
17839W        W83000   6.414   9.329   1.865
17840W        W83001  30.530   6.375   3.345
17841W        W83002  23.593  15.155  10.323
17842W        W83003  20.668  33.399  13.495
17843W        W83004  28.153  39.387  10.572
17844W        W83005  31.428  44.990  14.971
17845W        W83006  33.449  37.902   1.449
17846W        W83007  26.214   9.965  11.065
17847W        W83008  22.032  39.444   0.319
17848W        W83009  23.039  17.171   0.248
17849W        W83010  23.939  35.989  13.322
17850W        W83011  40.550  30.818   3.576
17851W        W83012  13.172  39.541   0.805
17852W        W83013  23.283  12.777   2.756
17853W        W83014   1.865  10.900  13.045
17854W        W83015   7.136  17.643   3.265
17855W        W83016  41.735  43.445   4.104
17856W        W83017   4.657  26.918   0.214
17857W        W83018  19.791   3.494  14.517
17858W        W83019  34.048   9.922   1.502
17859W        W83020  31.084  13.279  14.045
17860W        W83021   4.395  25.613   1.193
17861W        W83022  42.776  11.862   4.644
17862W        W83023  37.469  17.777  14.040
17863W        W83024   5.428  27.977  14.785
17864W        W83025   5.173   2.328  10.851
17865W        W83026   8.396  32.774  14.477
17866W        W83027  12.149  44.168   3.800
17867W        W83028  14.226  44.190  14.848
17868W        W83029   6.938  20.140   2.293
17869W        W83030  37.928  20.261  10.700
17870W        W83031  10.258  30.708  11.357
17871W        W83032  31.350  32.015  13.124
17872W        W83033  37.338  35.543   1.653
17873W        W83034  41.454  40.281   1.311
17874W        W83035  43.537  31.398   4.458
17875W        W83036  34.495  25.074  13.370
17876W        W83037   8.982  41.608  13.400
17877W        W83038   8.051  17.983   1.762
17878W        W83039   7.977   2.441   2.282
17879W        W83040  11.855  38.106   4.096
17880W        W83041  14.292   8.632  10.091
17881W        W83042  33.132  14.204   2.526
17882W        W83043  19.330  38.214  10.766
17883W        W83044   7.003  31.506  11.423
17884W        W83045  31.617  28.444   4.835
17885W        W83046   8.817  29.516  11.597
17886W        W83047  25.119  33.721  14.841
17887W        W83048  31.138  37.411  10.379
17888W        W83049  36.872  36.885  13.598
17889W        W83050  42.913   8.357  11.067
17890W        W83051  11.837  36.640  10.952
17891W        W83052  42.224  30.898  14.973
17892W        W83053  34.940  32.423  12.083
17893W        W83054  28.195  29.442  12.495
17894W        W83055  44.409  27.701  14.564
17895W        W83056   6.832   4.581  12.183
17896W        W83057  22.701   2.344  12.893
17897W        W83058   2.473   4.400   2.432
17898W        W83059  20.352   6.840  11.226
17899W        W83060  42.843  31.416  14.928
17900W        W83061  17.559  32.176   0.278
17901W        W83062  23.705  35.590   2.169
17902W        W83063  43.818  39.376   2.798
17903W        W83064  22.283  38.413   1.888
17904W        W83065  44.004  14.182  10.708
17905W        W83066  11.566  27.646  10.494
17906W        W83067  14.629   2.450  14.526
17907W        W83068   0.641  29.706   0.689
17908W        W83069  11.617  19.053  11.724
17909W        W83070  27.498  26.257  13.516
17910W        W83071  21.659  38.012   2.359
17911W        W83072   9.476  23.595   4.546
17912W        W83073   8.976  26.734   3.257
17913W        W83074  34.984   0.195   2.446
17914W        W83075  17.326  28.013  14.550
17915W        W83076  32.495  27.903  11.446
17916W        W83077  35.955  25.690  12.137
17917W        W83078  23.322  19.953  11.496
17918W        W83079  33.644  23.479  12.013
17919W        W83080  25.662  37.093  13.413
17920W        W83081  29.871  41.884  14.198
17921W        W83082  33.642  44.298  12.045
17922W        W83083   6.467  33.362  13.382
17923W        W83084  35.950  28.511  12.003
17924W        W83085  31.009  24.135  11.143
17925W        W83086   7.746  17.718  14.418
17926W        W83087  24.053   4.003  13.423
17927W        W83088  42.293  11.933  12.497
17928W        W83089   7.412  30.304   0.353
17929W        W83090  17.533  21.287   4.141
17930W        W83091  11.551   2.548   2.993
17931W        W83092  34.717  30.316  13.502
17932W        W83093  21.737  25.994  10.456
17933W        W83094  11.979  35.508  13.347
17934W        W83095  11.247  17.784  14.235
17935W        W83096  32.502  22.073  10.561
17936W        W83097  36.749  20.118  12.762
17937W        W83098  38.977  29.047  10.306
17938W        W83099  20.977  40.751   3.028
17939W        W83100  22.852   1.425  10.543
17940W        W83101   2.444  26.236  11.115
17941W        W83102  44.365  10.714   3.353
17942W        W83103   4.694  24.476   4.486
17943W        W83104  27.115   7.476  11.578
17944W        W83105  35.352   1.257   2.362
17945W        W83106  36.261  21.277  10.722
17946W        W83107  12.490  36.933  13.968
17947W        W83108   6.710  22.343  13.705
17948W        W83109  32.454   1.974  13.536
17949W        W83110   9.677  21.125  11.440
17950W        W83111   8.575   2.297   2.491
17951W        W83112  31.173  12.341   3.307
17952W        W83113  18.867  23.555   3.672
17953W        W83114  15.585  42.088   2.790
17954W        W83115  22.723  37.105   2.524
17955W        W83116  35.873  29.662   0.253
17956W        W83117  29.394  24.161   3.325
17957W        W83118  32.545  34.266  11.277
17958W        W83119   8.754  32.441  11.786
17959W        W83120   3.894  14.057   1.537
17960W        W83121   9.414  29.985  11.227
17961W        W83122  24.671  38.451  14.263
17962W        W83123  39.915   4.903   2.699
17963W        W83124  18.480   9.721  14.046
17964W        W83125  16.589   9.134   0.287
17965W        W83126   1.273  19.525   3.728
17966W        W83127  10.713  43.868   0.247
17967W        W83128  38.608  44.814   0.692
17968W        W83129  42.994  43.792   1.323
17969W        W83130  35.984  38.756  14.836
17970W        W83131  35.411  44.740   0.445
17971W        W83132  14.209  18.494   1.456
17972W        W83133   9.893  29.939   4.363
17973W        W83134  33.558   5.861   3.228
17974W        W83135  35.567  40.387  11.687
17975W        W83136   0.687  42.605   3.631
17976W        W83137  43.034  15.619  12.018
17977W        W83138  12.368   0.733  11.143
17978W        W83139  32.799   0.206   1.250
17979W        W83140   9.416  37.228  12.108
17980W        W83141  20.697  40.395   0.887
17981W        W83142  31.028  43.876  12.066
17982W        W83143   5.276  18.998  11.057
17983W        W83144  39.371  17.353   4.555
17984W        W83145  34.941  24.586   4.636
17985W        W83146  17.580  36.647  12.015
17986W        W83147  19.167  12.288   4.295
17987W        W83148   8.409  28.874   3.555
17988W        W83149  21.821  32.487   1.723
17989W        W83150  12.289  22.600   2.467
17990W        W83151  11.677  10.666   1.234
17991W        W83152  33.748  44.918  13.618
17992W        W83153   2.385  39.068   0.456
17993W        W83154  12.853  15.096   1.778
17994W        W83155  26.509   5.255  13.863
17995W        W83156  35.370   6.119   1.913
17996W        W83157  11.091   7.661  10.592
17997W        W83158  30.073  29.932  14.356
17998W        W83159  31.474  22.990  14.376
17999W        W83160  19.554  24.199   9.810
18000W        W83161  28.138   1.737  10.606
18001W        W83162  14.364   2.349   2.418
18002W        W83163  25.338   5.693   0.408
18003W        W83164  40.671   2.780  13.989
18004W        W83165  32.245  28.197   3.790
18005W        W83166  27.885  30.774   4.092
18006W        W83167  26.667   8.895  12.437
18007W        W83168  23.509  17.611   4.350
18008W        W83169  36.198  15.293  12.207
18009W        W83170  24.486  14.194  13.357
18010W        W83171  40.328   5.312   0.422
18011W        W83172   7.837  19.108   3.165
18012W        W83173  21.669   0.548  14.995
18013W        W83174  37.215  28.924   0.321
18014W        W83175  42.589  37.581   0.359
18015W        W83176  30.462  11.355  12.017
18016W        W83177  34.492  18.882   1.277
18017W        W83178   0.881  40.152  11.578
18018W        W83179   0.126  31.666   4.697
18019W        W83180   1.398  19.514  12.976
18020W        W83181  21.085   6.724  10.774
18021W        W83182   8.569  19.286   2.161
18022W        W83183   4.747  30.115   4.199
18023W        W83184   5.664  16.743  12.148
18024W        W83185  31.506  14.345   0.102
18025W        W83186   8.168  14.660  14.247
18026W        W83187  10.679  37.403  12.058
18027W        W83188  24.829  17.100  11.231
18028W        W83189  19.634   0.886   1.446
18029W        W83190  38.389   7.766  13.149
18030W        W83191  10.014   4.894   1.135
18031W        W83192   3.301  23.696  10.069
18032W        W83193   7.436   2.257  13.899
18033W        W83194   6.259   3.911   2.181
18034W        W83195  34.708  13.711   1.844
18035W        W83196  25.066  24.107   0.068
18036W        W83197  36.538  24.792   0.897
18037W        W83198  41.282  39.084  14.794
18038W        W83199  35.778  35.465  12.275
18039W        W83200  39.572  25.939  14.560
18040W        W83201   1.957  38.773  11.173
18041W        W83202  29.111  16.162   4.120
18042W        W83203   2.011  19.362   3.297
18043W        W83204  39.006  42.741   1.346
18044W        W83205  37.329  33.943  13.628
18045W        W83206  12.081  29.283   0.778
18046W        W83207   8.553   4.434   5.036
18047W        W83208   7.133  40.516  11.077
18048W        W83209  27.049  35.024  12.898
18049W        W83210  34.088  18.826   4.097
18050W        W83211  30.643  34.535  12.895
18051W        W83212  10.234   2.532   3.285
18052W        W83213  18.852  43.638  12.107
18053W        W83214  37.519  42.057  12.504
18054W        W83215  27.387  17.199   2.408
18055W        W83216  33.600  38.121  12.068
18056W        W83217  21.073  31.414  12.873
18057W        W83218  35.017  10.728  11.225
18058W        W83219  12.823  36.319   1.888
18059W        W83220   3.477  42.863  13.057
18060W        W83221  18.591   5.166  11.153
18061W        W83222  31.511  15.388  12.178
18062W        W83223  32.145  37.821  12.019
18063W        W83224  15.336   8.139  11.171
18064W        W83225  27.503  28.037  12.849
18065W        W83226  33.188  27.107   4.177
18066W        W83227  38.414  27.563  10.893
18067W        W83228  29.980  12.335  12.000
18068W        W83229  27.005  10.859  14.196
18069W        W83230  20.071  19.507   0.861
18070W        W83231  15.844   9.341   4.563
18071W        W83232  24.913  28.979   3.890
18072W        W83233  36.789   0.009  10.582
18073W        W83234  32.934   0.388   3.917
18074W        W83235   1.501   8.918   1.785
18075W        W83236  43.992  43.377   2.155
18076W        W83237  36.309  42.703  11.640
18077W        W83238  13.159   9.440  14.951
18078W        W83239  19.117  37.945   3.258
18079W        W83240  26.600  14.736   1.972
18080W        W83241  14.869  23.354   0.125
18081W        W83242  19.136   8.432   3.248
18082W        W83243  30.421   4.517  14.210
18083W        W83244  41.843   3.733  11.781
18084W        W83245  16.024  26.069  10.410
18085W        W83246  41.675  11.378   2.933
18086W        W83247  43.286  29.871  12.399
18087W        W83248  30.426  40.020   3.721
18088W        W83249  14.750  10.602  11.168
18089W        W83250  43.883  14.191  13.781
18090W        W83251  33.015   1.339  11.591
18091W        W83252   0.176  30.954   4.074
18092W        W83253  36.688   3.945  13.283
18093W        W83254   3.906  33.885   2.148
18094W        W83255  23.508  35.972   3.724
18095W        W83256  34.888  16.671  11.985
18096W        W83257  15.346  16.275   3.105
18097W        W83258  35.183   6.274   2.385
18098W        W83259  38.878  36.039   1.125
18099W        W83260  43.029   1.089   2.300
18100W        W83261  11.200  43.278   4.444
18101W        W83262  34.318  20.750   3.191
18102W        W83263   9.273  10.213   4.995
18103W        W83264  32.424   2.266  12.894
18104W        W83265  25.074  13.335   0.335
18105W        W83266  32.467  12.035   0.774
18106W        W83267   4.314  30.236   0.786
18107W        W83268  22.628   7.818  14.770
18108W        W83269  27.895  21.278   1.177
18109W        W83270  38.284   8.548  13.315
18110W        W83271  36.286  24.574   0.494
18111W        W83272  24.968   5.628  13.049
18112W        W83273  26.436   9.626  13.996
18113W        W83274  25.867   0.836  11.022
18114W        W83275   0.557  10.315   4.897
18115W        W83276  19.304  40.962  12.986
18116W        W83277  15.023  24.244   0.811
18117W        W83278  38.872  20.775  11.107
18118W        W83279   5.703   8.519   4.367
18119W        W83280  19.503   4.199  13.405
18120W        W83281   3.228  33.841  11.551
18121W        W83282  26.310  15.546   2.031
18122W        W83283  30.437  37.648   2.675
18123W        W83284  16.477  17.613   4.237
18124W        W83285  35.158  12.317  11.923
18125W        W83286  39.055  41.246   2.325
18126W        W83287  28.430  13.148  11.911
18127W        W83288  10.722   6.782  13.892
18128W        W83289   0.986  13.235  13.926
18129W        W83290  15.595  23.725   0.795
18130W        W83291  43.808  16.665   1.235
18131W        W83292  32.461  26.635  11.646
18132W        W83293  43.923  33.333  11.502
18133W        W83294  32.601   5.655   4.841
18134W        W83295  39.435  21.470   2.342
18135W        W83296  27.191   3.863  12.871
18136W        W83297  41.344  15.681  13.296
18137W        W83298  44.365  18.048  11.222
18138W        W83299  33.661  23.759   2.265
18139W        W83300   5.580   1.385  12.021
18140W        W83301  15.089  14.623   1.570
18141W        W83302  31.443   3.733  10.954
18142W        W83303  43.873  34.611   2.039
18143W        W83304   4.422  40.567  13.927
18144W        W83305  14.821  34.180  11.014
18145W        W83306  28.518  14.702  14.205
18146W        W83307  11.865  33.101   0.890
18147W        W83308  33.815   3.948  11.853
18148W        W83309  42.824  33.694  12.880
18149W        W83310  29.553  10.703   0.857
18150W        W83311   4.183  26.662  13.515
18151W        W83312   0.191  24.865  12.021
18152W        W83313  15.613  32.215  14.168
18153W        W83314  41.037  32.641  13.104
18154W        W83315  23.520  30.710   4.720
18155W        W83316   6.701  25.075   0.733
18156W        W83317  19.638  35.799   1.425
18157W        W83318  24.069  31.580  14.904
18158W        W83319  30.666  14.025  12.768
18159W        W83320  24.932  14.148   2.633
18160W        W83321   3.302  32.923   4.445
18161W        W83322  14.607   8.388  11.649
18162W        W83323  24.041  30.951   0.440
18163W        W83324  32.112  11.116  11.041
18164W        W83325   4.177  38.577   4.468
18165W        W83326  37.506  30.872   1.454
18166W        W83327  13.865  14.214   4.758
18167W        W83328   5.138  22.436   1.512
18168W        W83329  22.124  18.535   1.969
18169W        W83330  28.661  21.076   2.814
18170W        W83331  12.377  15.875   4.194
18171W        W83332  10.855  17.263  10.657
18172W        W83333  20.841  29.931   2.389
18173W        W83334   3.713  10.135  12.614
18174W        W83335  22.337  10.403  14.797
18175W        W83336  22.085  38.583  14.422
18176W        W83337  41.198  18.437   0.292
18177W        W83338  28.089   5.263  13.350
18178W        W83339  12.099  41.957   2.711
18179W        W83340  18.808   2.294   0.144
18180W        W83341  14.519   6.753   3.346
18181W        W83342  17.290  31.603  13.149
18182W        W83343  40.465   6.905   1.306
18183W        W83344  28.975  20.845  11.239
18184W        W83345  28.922  11.738   0.404
18185W        W83346   8.760  33.398  12.817
18186W        W83347  42.462   0.701  11.309
18187W        W83348  31.869  32.860  14.912
18188W        W83349  35.957  43.776  11.158
18189W        W83350  35.041  34.942  13.449
18190W        W83351   3.782  40.891  12.433
18191W        W83352  12.277  36.533   3.139
18192W        W83353  31.930  29.195   3.223
18193W        W83354  32.489  33.952  13.018
18194W        W83355  20.600  40.691  10.061
18195W        W83356  28.147  30.862  12.934
18196W        W83357  23.442  21.082   3.138
18197W        W83358  11.718  31.495  10.794
18198W        W83359  43.798  35.870  13.383
18199W        W83360  13.698  27.646   4.010
18200W        W83361  18.535  21.092  13.471
18201W        W83362  24.069  10.628   1.757
18202W        W83363  25.442   4.187   2.685
18203W        W83364  42.841  12.182   1.910
18204W        W83365  15.850  16.085  13.048
18205W        W83366  13.795   1.422  14.319
18206W        W83367  42.945  14.881  11.508
18207W        W83368  30.113  27.106   0.838
18208W        W83369   3.780  18.317  11.626
18209W        W83370   4.209  21.981   2.882
18210W        W83371  22.630   0.574   2.894
18211W        W83372  17.785   3.841  13.348
18212W        W83373  41.017  16.537   2.258
18213W        W83374  34.303  31.815  14.102
18214W        W83375   8.410  39.192  11.219
18215W        W83376  14.306  36.086   4.628
18216W        W83377  30.036   4.874  11.998
18217W        W83378  42.951  19.271  13.495
18218W        W83379   6.519  18.431  12.581
18219W        W83380  29.919  34.677   1.343
18220W        W83381   5.706  19.364   4.725
18221W        W83382  28.351  39.924  12.067
18222W        W83383  19.868   0.773   3.950
18223W        W83384  20.272  25.963  10.730
18224W        W83385   0.652  28.931  12.884
18225W        W83386  36.944  29.232   0.018
18226W        W83387  28.116  22.800   0.323
18227W        W83388   1.866  17.162  13.252
18228W        W83389   8.117   6.911  10.669
18229W        W83390  36.404   3.428  11.139
18230W        W83391  29.637  30.589  10.414
18231W        W83392   6.909  18.095  12.463
18232W        W83393   3.734  20.887   9.843
18233W        W83394  41.955   6.045   1.138
18234W        W83395   3.627   8.262   4.942
18235W        W83396  23.176  13.778   1.244
18236W        W83397  31.056  25.151   5.653
18237W        W83398  25.713  31.081  12.066
18238W        W83399   7.330  34.035   3.753
18239W        W83400  27.654  23.149  13.801
18240W        W83401  36.356   2.729  13.828
18241W        W83402  22.646   4.026   2.367
18242W        W83403  42.618   6.260   2.724
18243W        W83404  41.823  20.724  10.821
18244W        W83405  14.482  19.753   2.821
18245W        W83406  21.070   7.924  14.425
18246W        W83407  28.258  11.040  10.079
18247W        W83408  20.498  19.741   4.217
18248W        W83409   1.609  17.106   0.449
18249W        W83410  14.242   2.547   0.458
18250W        W83411  17.571  30.609  13.921
18251W        W83412  19.535   7.114  12.327
18252W        W83413  15.668  31.561  10.431
18253W        W83414   0.333   2.313  12.526
18254W        W83415  20.336  44.235  12.883
18255W        W83416  36.093   9.217   0.927
18256W        W83417  40.512   4.755  13.918
18257W        W83418  26.762  28.573   3.214
18258W        W83419  11.645  20.813  14.484
18259W        W83420  19.477  43.320  14.479
18260W        W83421  17.828  33.376  14.748
18261W        W83422  43.498  29.132   2.226
18262W        W83423   7.773  17.193   2.287
18263W        W83424  12.175  14.519   0.015
18264W        W83425  35.499  35.359   1.344
18265W        W83426  21.610  29.622  13.345
18266W        W83427   1.690  27.700   1.880
18267W        W83428   1.925   6.664   3.699
18268W        W83429  17.964  41.456  13.790
18269W        W83430  25.092   9.984   2.612
18270W        W83431   5.383  44.751   2.278
18271W        W83432  13.112  42.782  11.439
18272W        W83433  11.332  26.498   0.359
18273W        W83434  42.831  20.472   3.470
18274W        W83435  18.768   5.185   3.391
18275W        W83436  37.022  33.981  14.473
18276W        W83437  38.859   4.247  13.098
18277W        W83438  32.054  15.069  14.962
18278W        W83439  43.111  15.089  11.941
18279W        W83440  25.581  32.214   0.699
18280W        W83441  10.793   9.525   0.626
18281W        W83442  10.944  39.903   2.934
18282W        W83443   3.194  11.668   3.559
18283W        W83444  25.464  24.037   2.735
18284W        W83445  17.761  43.926  12.126
18285W        W83446  33.267   4.718   1.807
18286W        W83447  44.431   8.743   4.920
18287W        W83448  17.151   8.993   5.101
18288W        W83449   5.189   3.140  14.408
18289W        W83450   9.682  19.138   1.555
18290W        W83451  39.451  42.424   4.922
18291W        W83452   3.984  34.616  13.422
18292W        W83453   6.427   8.864   4.673
18293W        W83454   3.639  11.176   0.842
18294W        W83455   8.674  30.524  13.932
18295W        W83456   7.747  31.724  12.997
18296W        W83457  14.903  44.980  11.193
18297W        W83458   7.634  24.897   3.557
18298W        W83459  30.635  42.948   4.655
18299W        W83460   5.308  22.426  10.896
18300W        W83461  41.435  34.046   4.585
18301W        W83462   1.906  42.789   5.329
18302W        W83463  33.514  43.440  12.435
18303W        W83464  17.723  41.386   5.031
18304W        W83465  40.532  30.273  10.232
18305W        W83466  30.941  14.845  12.439
18306W        W83467  37.952  24.440   2.187
18307W        W83468  21.692  30.964   3.073
18308W        W83469  31.602  20.694  11.752
18309W        W83470   2.722  26.433  13.347
18310W        W83471  41.076  17.574   3.217
18311W        W83472   7.418  26.433  11.663
18312W        W83473  38.272  27.003  12.008
18313W        W83474  20.024  23.821   1.202
18314W        W83475  26.554  13.527   0.500
18315W        W83476  18.238  20.959  11.781
18316W        W83477  39.640  20.288  11.132
18317W        W83478  13.908  25.500  13.143
18318W        W83479  11.846  32.880  10.676
18319W        W83480  43.071   9.900  11.314
18320W        W83481  43.953  27.496   4.492
18321W        W83482   3.832   5.671   2.224
18322W        W83483  11.790  21.136  13.987
18323W        W83484  11.757  25.788  10.203
18324W        W83485  18.239  29.011   4.481
18325W        W83486   3.274  36.231  13.956
18326W        W83487  16.704  11.253  14.588
18327W        W83488  44.491  21.573   1.846
18328W        W83489  13.434  26.550  11.719
18329W        W83490  43.917  15.257   0.910
18330W        W83491  29.609  17.114  11.407
18331W        W83492  21.065  27.656  10.716
18332W        W83493   1.594  22.456   0.438
18333W        W83494  22.966  10.167  11.396
18334W        W83495  10.882  20.130   4.077
18335W        W83496  25.788  20.478   0.701
18336W        W83497   6.835  41.638   1.235
18337W        W83498  36.991  20.441  13.098
18338W        W83499   0.140  32.737   3.230
18339W        W83500  19.421  17.649   3.725
18340W        W83501  30.340   1.357   4.718
18341W        W83502  33.010  31.506  12.917
18342W        W83503   9.693  28.741   2.324
18343W        W83504  21.086   5.157   0.501
18344W        W83505   8.393   2.857  10.970
18345W        W83506  34.468   9.665  13.410
18346W        W83507  19.527  35.986   1.897
18347W        W83508  12.169  29.085   4.637
18348W        W83509  24.095  22.011  14.622
18349W        W83510  40.787  11.363  11.687
18350W        W83511   5.003  21.756   5.028
18351W        W83512  23.091  23.076  12.619
18352W        W83513  13.280  43.548  13.637
18353W        W83514  39.802  41.695  13.501
18354W        W83515  44.102  24.363   0.981
18355W        W83516   1.034  15.327   3.332
18356W        W83517  20.907  23.765  11.187
18357W        W83518  40.070  21.683  12.136
18358W        W83519  19.961   6.696  13.505
18359W        W83520  26.556   6.863   3.289
18360W        W83521  38.910  26.899  11.239
18361W        W83522  11.640  10.744  11.566
18362W        W83523  40.077   8.675  11.487
18363W        W83524  23.086  39.896  12.757
18364W        W83525  25.794  11.052   4.512
18365W        W83526   9.396   7.475   1.235
18366W        W83527   5.827   6.889   0.429
18367W        W83528  10.090  34.486  13.073
18368W        W83529   0.434   3.755  12.376
18369W        W83530  18.274  36.385  11.171
18370W        W83531  39.627   8.832   1.094
18371W        W83532   4.961  10.681  12.668
18372W        W83533  43.437  24.118   3.858
18373W        W83534   1.686  44.902   2.414
18374W        W83535  32.214  13.725   1.878
18375W        W83536   1.432   5.945   0.736
18376W        W83537  33.179  30.117  13.427
18377W        W83538  14.780  41.910  13.763
18378W        W83539  20.875  30.362  13.309
18379W        W83540  12.407  23.680   3.662
18380W        W83541  15.676   8.538   3.301
18381W        W83542  29.456  24.506  11.857
18382W        W83543  33.046  22.117  12.875
18383W        W83544   8.893  38.617  14.365
18384W        W83545   1.715  44.332  14.958
18385W        W83546  32.985  40.337   3.155
18386W        W83547   0.198  21.595   2.386
18387W        W83548  36.003  34.054  10.759
18388W        W83549  19.192  16.345   1.364
18389W        W83550  11.676  37.121  10.948
18390W        W83551  28.171  42.787  13.573
18391W        W83552   1.530   6.722   0.760
18392W        W83553  38.940  42.326  12.149
18393W        W83554   1.412  43.375  12.068
18394W        W83555  24.165   7.954  13.779
18395W        W83556  44.781  13.778   1.647
18396W        W83557  31.545  21.607   1.920
18397W        W83558  42.337   5.865   0.827
18398W        W83559  44.172  19.721  11.569
18399W        W83560  41.317  44.844   2.141
18400W        W83561  43.778  44.882   1.278
18401W        W83562  15.873   6.376   0.825
18402W        W83563  33.019  15.022   2.839
18403W        W83564  34.756  32.896   4.164
18404W        W83565  39.813   8.675   2.221
18405W        W83566  43.533   1.377   3.138
18406W        W83567  33.444  11.352  10.312
18407W        W83568  39.999  32.075   0.168
18408W        W83569  25.977  24.530  13.871
18409W        W83570   4.197  20.784   3.992
18410W        W83571  38.430  41.690   0.855
18411W        W83572   3.825  34.019   3.054
18412W        W83573   2.555  10.265  11.085
18413W        W83574  25.070  10.124   3.486
18414W        W83575  39.382  18.667  14.277
18415W        W83576   6.707  23.217  13.307
18416W        W83577  31.938  12.138  12.394
18417W        W83578  17.906  36.200   3.637
18418W        W83579  19.978  28.539   0.748
18419W        W83580  11.310  17.309  14.022
18420W        W83581  42.306  33.021  13.364
18421W        W83582  19.281   4.344   0.944
18422W        W83583  32.757  16.541  14.564
18423W        W83584  31.045  29.414  14.533
18424W        W83585  20.939  10.306  11.660
18425W        W83586  32.630  13.064  14.399
18426W        W83587  17.072  26.691   2.237
18427W        W83588   0.695   3.413   1.428
18428W        W83589   2.188  22.620  12.446
18429W        W83590  18.635  10.842   2.918
18430W        W83591   8.589  44.150  14.013
18431W        W83592  18.564  43.693  12.920
18432W        W83593  24.663  29.435   5.010
18433W        W83594  22.992  44.843   3.288
18434W        W83595  33.178   8.168   2.528
18435W        W83596  32.045  42.736  14.546
18436W        W83597  27.251  13.476  13.412
18437W        W83598  22.135  14.158  14.813
18438W        W83599  40.265  26.725  10.187
18439W        W83600  24.737  38.815  12.725
18440W        W83601  20.127  23.967  11.492
18441W        W83602  43.433  20.020   2.650
18442W        W83603  36.027  31.481   3.931
18443W        W83604  44.945  24.164   0.431
18444W        W83605  18.966  16.693   3.219
18445W        W83606  32.407  33.526  14.031
18446W        W83607  32.389  41.322   2.456
18447W        W83608   4.402  23.326  12.490
18448W        W83609  36.965  25.573  11.281
18449W        W83610  44.546  40.838   3.860
18450W        W83611  10.737   4.544  12.989
18451W        W83612   0.806  26.411  11.548
18452W        W83613   9.688   9.758   3.555
18453W        W83614  40.490  23.044  12.411
18454W        W83615  21.757  44.323  14.014
18455W        W83616  14.767  39.117   3.514
18456W        W83617  18.175  29.517  11.159
18457W        W83618  10.036  42.889  13.740
18458W        W83619  15.626  43.992  12.404
18459W        W83620  37.467   9.116  13.781
18460W        W83621  31.160  24.634   5.550
18461W        W83622   1.084   8.094   0.057
18462W        W83623   9.855   2.201   4.190
18463W        W83624  11.309   3.934   1.014
18464W        W83625  42.473   4.938   0.704
18465W        W83626  27.953   5.052   0.489
18466W        W83627  34.689  35.942  11.080
18467W        W83628  22.734   8.406   0.239
18468W        W83629   3.485  27.597  13.018
18469W        W83630  21.097  27.518   3.688
18470W        W83631  36.857   2.592  13.772
18471W        W83632  14.637   0.974  14.082
18472W        W83633  30.912  25.505   4.634
18473W        W83634   0.450   4.847  13.633
18474W        W83635  30.439  40.445   4.573
18475W        W83636  11.614  21.610   4.876
18476W        W83637   0.795  20.107  13.944
18477W        W83638  10.425   4.662   4.559
18478W        W83639  40.600   2.705  12.962
18479W        W83640   4.748  24.990   1.363
18480W        W83641   4.104  31.607   3.357
18481W        W83642   9.446  17.718  14.114
18482W        W83643  17.109  36.163   1.017
18483W        W83644   6.281  28.579   4.654
18484W        W83645  39.465  42.482  14.761
18485W        W83646  43.036  33.525  14.290
18486W        W83647  34.444  15.099   0.016
18487W        W83648  19.478   6.309  12.992
18488W        W83649   4.397  17.774   3.820
18489W        W83650   4.850  10.269   1.855
18490W        W83651   3.851   3.734   0.656
18491W        W83652   8.700  35.851   4.138
18492W        W83653   3.907  20.667  13.389
18493W        W83654  13.048   6.390  13.339
18494W        W83655  39.574   0.348   2.322
18495W        W83656   3.683  20.723  12.878
18496W        W83657   7.793  27.477  12.987
18497W        W83658  37.593  17.532   1.272
18498W        W83659   0.881  20.196   4.204
18499W        W83660  39.778  24.709   2.732
18500W        W83661  33.793  21.158  10.219
18501W        W83662  19.126   2.206  12.986
18502W        W83663  17.375  25.000   4.294
18503W        W83664  12.192   0.461   0.338
18504W        W83665   3.540  33.939  14.864
18505W        W83666   1.953   4.984  14.709
18506W        W83667  40.339  30.975  13.864
18507W        W83668  38.929   2.971  12.450
18508W        W83669  38.702  23.565   1.615
18509W        W83670   2.833  41.590   1.423
18510W        W83671  39.564   6.285   3.401
18511W        W83672   7.213  24.059   1.866
18512W        W83673  16.134   5.880  13.673
18513W        W83674   3.024  43.961   4.158
18514W        W83675  27.517  13.356  13.847
18515W        W83676  10.146  33.459  12.810
18516W        W83677  27.414  12.685  14.252
18517W        W83678  25.078  24.447  14.049
18518W        W83679  34.035  30.787   0.931
18519W        W83680  34.279  24.952   2.459
18520W        W83681  29.112   9.162  12.962
18521W        W83682  36.028  32.927   3.664
18522W        W83683  36.660  31.885   4.586
18523W        W83684  33.055  20.644  12.084
18524W        W83685  27.975   2.832  12.064
18525W        W83686  13.030  11.212  10.069
18526W        W83687   0.506  39.596  13.807
18527W        W83688  27.953   3.280   2.633
18528W        W83689  39.311  40.377   0.880
18529W        W83690   1.826   2.799  14.182
18530W        W83691  24.284  17.339  12.535
18531W        W83692  26.493  11.600  14.080
18532W        W83693  10.195  31.062   1.814
18533W        W83694   5.071  14.242   9.885
18534W        W83695  21.639  12.131  10.586
18535W        W83696  33.039   5.716   3.219
18536W        W83697  25.334  37.682   4.568
18537W        W83698  17.166   4.448   1.717
18538W        W83699  44.527  30.026   1.991
18539W        W83700  17.839   2.282   2.686
18540W        W83701  10.735  15.578  10.739
18541W        W83702   7.242   0.459   1.392
18542W        W83703  32.706   7.174  14.831
18543W        W83704  13.852   2.378  14.645
18544W        W83705  37.073  29.511   0.987
18545W        W83706  37.079  23.750   1.669
18546W        W83707  38.439  35.295  14.945
18547W        W83708  15.569  23.460  12.959
18548W        W83709  32.467  37.287  11.034
18549W        W83710  24.439  28.948  13.344
18550W        W83711  17.956   3.296  13.348
18551W        W83712  19.147  23.583  14.734
18552W        W83713  13.147  14.927  13.412
18553W        W83714   9.895  37.912   1.411
18554W        W83715  19.992   8.023  14.021
18555W        W83716   3.758  41.415   4.348
18556W        W83717  10.185  16.497  11.381
18557W        W83718  23.527  42.703   4.514
18558W        W83719  37.442  41.447  13.408
18559W        W83720  39.969   1.696   0.906
18560W        W83721  25.875   8.840   0.507
18561W        W83722   2.371  31.555   3.784
18562W        W83723  21.987   2.429   2.647
18563W        W83724  33.969  19.873   2.323
18564W        W83725  24.827  19.763   4.498
18565W        W83726  33.952  15.290   4.175
18566W        W83727  30.769  27.456   0.079
18567W        W83728  23.551  12.579  14.285
18568W        W83729   6.664  44.195  11.254
18569W        W83730  16.662  37.635   4.083
18570W        W83731  19.546   9.808  12.992
18571W        W83732  23.425  20.533   4.679
18572W        W83733  13.308  15.342   4.602
18573W        W83734   9.853  43.208   3.103
18574W        W83735  10.203  24.225  14.822
18575W        W83736  19.586  19.562   1.418
18576W        W83737  37.458  26.151   1.817
18577W        W83738  43.675  23.610   0.222
18578W        W83739  28.244  14.119  14.020
18579W        W83740  18.131  14.417  10.936
18580W        W83741  38.559   0.825   0.276
18581W        W83742   2.175  23.940   1.852
18582W        W83743   1.453  33.736  14.378
18583W        W83744  34.547  18.686  12.487
18584W        W83745  25.126  21.260   0.278
18585W        W83746  26.999  32.602   5.009
18586W        W83747  31.094  32.196   4.067
18587W        W83748  18.294  39.405   3.144
18588W        W83749  37.112  13.282  11.149
18589W        W83750  38.820  10.526   3.068
18590W        W83751  14.610   9.579  13.987
18591W        W83752  29.222  40.582  11.266
18592W        W83753  12.635  42.394  12.410
18593W        W83754  17.909   3.129   3.177
18594W        W83755  27.980  43.613  13.978
18595W        W83756  22.686  16.012   3.178
18596W        W83757   0.245  40.082   3.097
18597W        W83758  25.152   2.954  11.703
18598W        W83759  36.790  22.599  12.492
18599W        W83760  13.893  34.082   2.710
18600W        W83761  27.261  34.259   0.907
18601W        W83762   7.253   6.411   1.282
18602W        W83763  23.539  22.762   3.614
18603W        W83764  38.915  18.828   3.167
18604W        W83765   2.357  19.273   0.384
18605W        W83766  23.973  26.487  11.163
18606W        W83767  37.589   9.205  12.919
18607W        W83768   2.909  22.946  12.151
18608W        W83769  28.868  35.529   3.688
18609W        W83770  43.761  43.898   3.037
18610W        W83771  24.995   0.383   3.730
18611W        W83772   0.575  30.115   1.968
18612W        W83773  28.689  17.210   4.267
18613W        W83774   5.331  21.436  10.711
18614W        W83775  37.817  34.592  12.083
18615W        W83776  28.102  12.586  12.431
18616W        W83777  29.145   6.890   1.405
18617W        W83778  23.031  22.250  13.781
18618W        W83779   0.398   8.425  11.138
18619W        W83780  31.163  42.302  11.558
18620W        W83781  14.884  41.931  13.259
18621W        W83782   8.166  37.895   1.238
18622W        W83783  43.717  22.085   4.605
18623W        W83784  27.068   3.945  10.744
18624W        W83785  34.007  41.258  11.396
18625W        W83786  10.144  30.886   0.475
18626W        W83787  12.765  38.335   4.706
18627W        W83788  14.090   7.407  12.076
18628W        W83789  37.628  14.118   0.232
18629W        W83790  36.778   3.658   0.370
18630W        W83791  27.657   0.221   3.726
18631W        W83792  25.040  14.707  13.093
18632W        W83793  12.674   4.761  12.766
18633W        W83794  17.119  28.910   0.399
18634W        W83795  12.849  14.734   3.177
18635W        W83796  11.235  10.095   3.658
18636W        W83797  12.521  16.365   1.902
18637W        W83798  20.379  36.918  11.113
18638W        W83799  37.055   8.438  14.920
18639W        W83800   8.724  20.457   2.869
18640W        W83801   1.699  41.456  14.379
18641W        W83802  13.196  26.879  12.933
18642W        W83803  10.074  42.442  13.393
18643W        W83804  31.842   0.013  12.156
18644W        W83805  27.914  37.036  14.854
18645W        W83806   8.325   9.868   0.275
18646W        W83807  32.547  33.044   2.558
18647W        W83808  28.632  31.922   2.318
18648W        W83809  30.026  19.232  14.337
18649W        W83810  39.136  33.512  11.488
18650W        W83811  35.866   0.535   1.851
18651W        W83812  26.048   9.438  10.107
18652W        W83813  37.913  18.798   1.281
18653W        W83814  11.364  28.491   1.404
18654W        W83815  33.049  13.475  13.539
18655W        W83816  10.878  29.114  10.747
18656W        W83817  29.476  31.050  12.463
18657W        W83818  16.839  10.650  11.203
18658W        W83819  34.976  30.411   1.398
18659W        W83820  38.028  12.102   3.098
18660W        W83821  16.626  33.028   0.285
18661W        W83822  22.520  17.666  14.348
18662W        W83823  44.920  33.308  13.582
18663W        W83824   1.811  34.162  12.025
18664W        W83825  40.499  37.953   4.022
18665W        W83826  30.267  23.735  11.487
18666W        W83827  29.716  15.730  11.292
18667W        W83828  38.113  38.866  11.163
18668W        W83829  27.907   0.237   0.926
18669W        W83830  29.565  32.430   2.291
18670W        W83831  19.474   9.138  10.355
18671W        W83832  36.031  19.890   0.385
18672W        W83833  10.695  39.720  13.780
18673W        W83834  13.307  18.544  10.363
18674W        W83835  42.842  33.515   4.019
18675W        W83836  27.848  28.379   1.984
18676W        W83837  40.859  23.240   0.988
18677W        W83838  44.952  27.284  14.713
18678W        W83839  17.693  30.194  11.568
18679W        W83840   9.297  40.035   4.764
18680W        W83841  25.350  18.702   4.584
18681W        W83842   7.840  34.723  14.412
18682W        W83843  32.563   8.396  12.986
18683W        W83844  16.760  15.664  14.812
18684W        W83845  32.973  31.530  12.019
18685W        W83846  39.317   8.629  11.976
18686W        W83847  32.630   0.359  14.350
18687W        W83848  11.758  12.227  13.973
18688W        W83849  25.315  42.819   2.347
18689W        W83850  17.735  32.187  10.257
18690W        W83851  15.582  26.015   0.403
18691W        W83852  35.405   9.036  11.347
18692W        W83853  35.344  11.159  12.905
18693W        W83854  33.414  25.529   0.204
18694W        W83855  25.922   6.351  14.929
18695W        W83856  28.647  27.191  13.407
18696W        W83857  11.657   1.861  12.835
18697W        W83858  41.864  25.572   4.517
18698W        W83859  25.099  13.326   2.632
18699W        W83860  21.511  21.809  13.597
18700W        W83861  24.943  16.667  13.853
18701W        W83862  41.813  35.876  10.187
18702W        W83863  44.691  16.530   3.853
18703W        W83864  24.626  24.099  14.354
18704W        W83865   4.914  11.374   3.166
18705W        W83866   3.227  24.610   3.991
18706W        W83867   3.872   4.675   0.899
18707W        W83868  18.659  24.249   0.047
18708W        W83869  21.247  15.798   4.971
18709W        W83870  32.324   0.303  10.687
18710W        W83871  33.406  40.037  14.527
18711W        W83872   0.907   9.100   0.849
18712W        W83873   1.029   3.232  11.126
18713W        W83874   0.843   5.839  13.465
18714W        W83875   1.419  41.792  12.314
18715W        W83876  22.163  13.255  10.193
18716W        W83877  33.505  29.383   3.232
18717W        W83878  11.739  23.869  14.053
18718W        W83879   2.966   4.941  11.931
18719W        W83880  43.333  26.219   3.296
18720W        W83881   4.851  11.626  14.983
18721W        W83882  14.811  40.639   0.684
18722W        W83883  43.023  39.766  13.862
18723W        W83884  33.247  22.529   5.604
18724W        W83885  27.474  26.476  11.014
18725W        W83886  35.618   2.268   2.707
18726W        W83887  32.955  33.492  11.639
18727W        W83888  43.524   9.624   3.688
18728W        W83889  18.444  42.091  11.248
18729W        W83890  21.293   2.965  12.438
18730W        W83891  29.058  38.332   3.320
18731W        W83892  25.704  31.216   3.834
18732W        W83893  41.272  14.885   0.149
18733W        W83894  20.595  11.872   1.695
18734W        W83895  39.904  26.620   0.311
18735W        W83896   1.982  17.620  13.497
18736W        W83897  43.396   9.870  14.483
18737W        W83898  25.491   6.841   0.249
18738W        W83899  39.459  23.206  10.761
18739W        W83900  43.297   5.675  12.546
18740W        W83901   1.457  21.723   0.875
18741W        W83902  19.505  28.162  10.726
18742W        W83903   6.261  17.159   1.807
18743W        W83904  16.197  29.103  13.057
18744W        W83905  25.938  23.151   3.595
18745W        W83906   6.726  11.596  13.002
18746W        W83907  35.118  24.733  14.727
18747W        W83908  34.883  26.647   2.865
18748W        W83909  29.915  24.581   1.722
18749W        W83910   7.273   9.897   1.106
18750W        W83911  39.527   3.731  14.647
18751W        W83912  33.420  31.866  11.601
18752W        W83913  20.383  19.327  13.516
18753W        W83914  11.812  43.533  11.425
18754W        W83915  19.719  27.898  14.664
18755W        W83916  37.846  13.237   2.209
18756W        W83917  29.868  26.266  10.736
18757W        W83918  24.729  13.694   2.803
18758W        W83919   6.095  31.466  13.556
18759W        W83920  39.484   1.235   1.287
18760W        W83921   8.851   6.238   1.869
18761W        W83922   8.481  10.616  11.950
18762W        W83923  19.841  11.255   2.080
18763W        W83924  24.664  18.500  14.923
18764W        W83925  32.998  19.084  13.122
18765W        W83926  26.159  26.060   2.332
18766W        W83927  32.680  17.708   3.598
18767W        W83928  34.121  19.093   0.981
18768W        W83929   8.235  36.174   2.849
18769W        W83930  16.399   4.902  11.176
18770W        W83931  18.347  14.032  11.832
18771W        W83932  12.840  13.733  11.852
18772W        W83933  26.461  44.430   4.285
18773W        W83934  10.628  11.644  12.093
18774W        W83935   4.743  39.282   1.814
18775W        W83936   0.883  25.701   1.648
18776W        W83937   9.058  14.628  10.528
18777W        W83938  33.101  44.926   3.780
18778W        W83939  41.900  31.125  13.491
18779W        W83940  39.077  11.138   2.320
18780W        W83941  16.238  37.424   2.706
18781W        W83942  21.828   8.210   0.307
18782W        W83943  17.807  21.235  14.981
18783W        W83944  29.902  29.709   4.044
18784W        W83945  22.570  44.789   0.247
18785W        W83946  10.350  13.342   4.272
18786W        W83947  16.235  18.333  10.957
18787W        W83948   9.046  29.506  10.685
18788W        W83949   4.006   8.942  11.136
18789W        W83950  21.523  25.645   4.663
18790W        W83951  28.998  36.898  13.788
18791W        W83952  37.904  37.118  14.088
18792W        W83953  41.740  31.196   2.730
18793W        W83954  18.142   5.538  10.627
18794W        W83955   8.703  28.515  11.603
18795W        W83956  34.129   6.541  12.209
18796W        W83957   7.771  36.807  13.573
18797W        W83958  36.259   4.414  11.153
18798W        W83959   3.809  34.540  11.527
18799W        W83960  20.787   7.210   4.418
18800W        W83961  37.022  43.668  10.588
18801W        W83962  37.223   8.819  13.002
18802W        W83963  26.732  30.992   0.892
18803W        W83964  25.237  44.334   1.624
18804W        W83965  13.499  31.766  10.320
18805W        W83966   3.311  16.055   1.341
18806W        W83967  20.759  15.194   4.456
18807W        W83968   8.688  44.935   0.437
18808W        W83969   3.968   9.722   0.392
18809W        W83970  30.115  18.993   4.202
18810W        W83971  24.598  18.004  14.815
18811W        W83972  36.356  16.644  13.978
18812W        W83973   6.340  43.831  13.628
18813W        W83974   4.390  27.909  12.692
18814W        W83975   3.792  22.284  10.691
18815W        W83976  37.453  33.632   4.506
18816W        W83977  28.165  16.786  14.933
18817W        W83978  25.174  11.928   1.753
18818W        W83979   7.166   6.114   3.663
18819W        W83980   4.683   6.822   2.243
18820W        W83981  26.515  16.181   3.283
18821W        W83982  21.251  20.720   1.376
18822W        W83983  21.481  20.085   0.338
18823W        W83984  12.789  40.313   1.417
18824W        W83985  14.097  12.260   4.494
18825W        W83986  42.470   0.188  11.108
18826W        W83987  35.534  43.996   1.864
18827W        W83988  26.414   5.464  10.639
18828W        W83989   6.995  39.467   0.093
18829W        W83990  11.632  34.860   3.276
18830W        W83991  17.468  28.641  11.490
18831W        W83992   7.872  26.927  12.516
18832W        W83993   2.947   8.560   3.415
18833W        W83994   3.847  42.662   3.727
18834W        W83995  40.988  42.534  12.848
18835W        W83996  13.809  24.763   0.262
18836W        W83997   0.423  19.758   0.461
18837W        W83998   2.264  30.135   2.306
18838W        W83999   7.359  14.112  11.965
18839W        W84000  14.267  42.489  12.069
18840W        W84001   1.179  35.018   3.717
18841W        W84002  19.828  13.075  12.676
18842W        W84003  36.495  33.735  14.299
18843W        W84004  20.387   0.065  13.392
18844W        W84005  44.263  27.331   0.433
18845W        W84006   4.009   0.778  13.544
18846W        W84007  20.684  19.203  12.796
18847W        W84008   3.844  36.846   3.820
18848W        W84009   1.398   8.201  13.411
18849W        W84010  20.164  19.002  14.918
18850W        W84011  31.698  16.787  12.433
18851W        W84012   7.002   9.406   4.113
18852W        W84013  16.761  10.439  13.553
18853W        W84014  34.979  18.829   1.881
18854W        W84015  18.322   9.953  10.521
18855W        W84016  23.014  30.342   3.557
18856W        W84017  11.678  33.706   5.062
18857W        W84018  44.433  28.675  13.875
18858W        W84019  15.037  13.323  12.895
18859W        W84020  34.333   2.742  12.418
18860W        W84021  33.910  36.158  14.849
18861W        W84022  40.715  20.114   4.667
18862W        W84023  44.054  14.815  14.988
18863W        W84024  39.033  23.852   1.224
18864W        W84025  43.790  13.309  11.206
18865W        W84026   4.223  43.725   3.394
18866W        W84027  16.210  16.308   0.973
18867W        W84028  36.267  19.976   4.138
18868W        W84029  26.130  21.020  14.436
18869W        W84030  15.848  35.858  10.919
18870W        W84031  31.985  29.608  13.617
18871W        W84032  17.665  24.674  11.038
18872W        W84033  19.054   7.872  11.592
18873W        W84034  31.639   8.762  12.993
18874W        W84035  15.219  42.331  14.801
18875W        W84036  14.659  37.135   2.399
18876W        W84037  22.188  25.971  12.144
18877W        W84038  20.438  11.232   3.076
18878W        W84039   3.807  38.024   2.665
18879W        W84040  38.508  34.097  10.802
18880W        W84041   0.925  18.530  11.563
18881W        W84042  30.888   7.707   2.848
18882W        W84043  17.358  36.653  11.147
18883W        W84044  42.355  13.002   0.982
18884W        W84045   9.380   2.644   3.457
18885W        W84046  37.490  40.516  14.817
18886W        W84047  13.275  28.121  14.699
18887W        W84048  16.792  36.847  12.288
18888W        W84049  24.012   6.236   2.772
18889W        W84050  32.153   5.466   4.149
18890W        W84051   5.634  15.674   4.671
18891W        W84052   8.749   4.744  10.255
18892W        W84053  36.298   0.726  14.091
18893W        W84054  30.538  25.197   4.934
18894W        W84055  37.570  33.522  11.615
18895W        W84056   9.823  21.826   3.601
18896W        W84057   9.753  19.827  13.298
18897W        W84058  37.449  27.070   3.393
18898W        W84059  28.201  39.382  14.460
18899W        W84060  11.158  39.772  12.608
18900W        W84061  21.603  23.589   3.134
18901W        W84062  16.872   4.059   2.776
18902W        W84063   5.413   1.370   4.158
18903W        W84064  38.550  30.367  13.530
18904W        W84065  24.904   3.839   4.544
18905W        W84066   3.785  19.701  12.421
18906W        W84067   1.103  18.510   3.737
18907W        W84068  30.060   1.319  10.755
18908W        W84069  40.152  32.633   2.426
18909W        W84070   3.731  30.126  12.199
18910W        W84071  17.989   8.906   2.355
18911W        W84072  41.202   3.660  11.027
18912W        W84073   3.490  38.308   3.258
18913W        W84074  39.259  18.669  13.768
18914W        W84075  38.649  44.678   1.201
18915W        W84076   2.833  13.627   2.783
18916W        W84077  14.812  16.162  12.166
18917W        W84078   5.449  35.936   3.149
18918W        W84079  26.998  23.730  11.965
18919W        W84080  18.973  15.175   0.661
18920W        W84081   2.017   1.929  14.684
18921W        W84082  16.671  13.708  14.195
18922W        W84083   1.780  34.496   0.209
18923W        W84084  35.057   1.943   3.608
18924W        W84085  23.680   6.982   0.025
18925W        W84086  13.422   3.605  14.503
18926W        W84087  34.412  35.380  11.428
18927W        W84088  35.708  30.395  13.255
18928W        W84089  29.586  17.270  10.931
18929W        W84090  22.118  34.123  11.228
18930W        W84091  40.328  20.679   1.654
18931W        W84092  39.755  29.219   0.839
18932W        W84093  13.847  16.873  10.495
18933W        W84094   8.721  43.478   3.626
18934W        W84095  23.414   2.306  13.416
18935W        W84096  10.435  24.027  13.999
18936W        W84097  15.834  19.797   1.813
18937W        W84098   1.454  38.765  11.381
18938W        W84099  21.271  12.192   2.123
18939W        W84100  44.426  36.593  12.498
18940W        W84101  21.327  38.983   4.369
18941W        W84102   0.201   9.584  14.264
18942W        W84103  36.940  32.143  13.373
18943W        W84104   5.212  40.844  11.457
18944W        W84105   5.839   0.933  13.087
18945W        W84106  22.595   0.473   4.694
18946W        W84107  31.891   7.731   2.610
18947W        W84108  25.284  29.911   1.679
18948W        W84109  11.764   9.297   0.691
18949W        W84110  36.505  37.980  12.429
18950W        W84111  17.032  30.944  13.560
18951W        W84112   0.814  27.983  10.758
18952W        W84113  19.529  26.109  12.592
18953W        W84114  11.611  14.144   2.416
18954W        W84115  39.756  31.472  11.586
18955W        W84116  30.028  15.411   1.903
18956W        W84117   8.274  25.402   1.778
18957W        W84118  24.752  43.886   4.049
18958W        W84119   1.871  25.501  11.868
18959W        W84120  24.981  10.251  13.112
18960W        W84121  30.365  42.967   3.748
18961W        W84122  12.285  16.654   0.758
18962W        W84123  39.076  41.521  14.499
18963W        W84124  44.781  38.910   5.302
18964W        W84125  31.629  33.679   3.674
18965W        W84126  36.221   8.176  12.019
18966W        W84127   2.285  37.758   4.269
18967W        W84128  20.205  42.257  10.598
18968W        W84129  39.646  18.326  11.703
18969W        W84130   6.403  23.685  12.792
18970W        W84131  23.295  10.770   0.358
18971W        W84132  26.263  24.087  13.782
18972W        W84133  30.088  38.697   5.121
18973W        W84134  34.099  16.997  11.301
18974W        W84135  10.553  33.661   2.596
18975W        W84136  36.648  42.865  11.978
18976W        W84137   1.279   4.619   4.313
18977W        W84138  24.212  32.944   3.694
18978W        W84139   1.107  10.464  13.399
18979W        W84140  41.359  37.886  14.117
18980W        W84141  26.655  40.665  13.398
18981W        W84142  44.683  33.145  11.919
18982W        W84143   0.830  12.780   3.075
18983W        W84144  39.088  32.386   0.500
18984W        W84145  19.467   9.215   1.485
18985W        W84146  29.199  25.585   3.289
18986W        W84147   4.822  11.088  14.920
18987W        W84148  43.568  28.306   3.357
18988W        W84149  43.355  26.697   3.504
18989W        W84150  30.200  41.170  11.883
18990W        W84151  14.352  34.913  11.067
18991W        W84152   4.728  24.399   9.689
18992W        W84153  44.343  35.991   2.144
18993W        W84154  39.612  28.377  12.212
18994W        W84155  25.735   8.334   0.482
18995W        W84156   8.458  39.994   3.597
18996W        W84157   1.261  36.537  14.891
18997W        W84158  43.289  13.127   3.177
18998W        W84159  32.527  18.206   4.350
18999W        W84160  25.509  29.822  14.390
19000W        W84161  18.269  11.098   0.954
19001W        W84162  43.497  15.728  13.940
19002W        W84163   7.343  25.539   4.139
19003W        W84164  40.458  31.687   1.456
19004W        W84165  26.247  23.176   0.785
19005W        W84166  42.085   5.916  13.045
19006W        W84167   4.277   0.876  12.420
19007W        W84168   0.210  29.264   1.864
19008W        W84169   9.873  20.829   0.798
19009W        W84170  27.720   6.885   0.030
19010W        W84171  23.573  21.175   0.248
19011W        W84172   3.208  18.595   1.820
19012W        W84173   6.810  20.147  14.378
19013W        W84174  37.713  29.492   2.992
19014W        W84175   9.209  35.484  14.693
19015W        W84176  42.832  25.746  11.177
19016W        W84177   4.109  40.042  13.431
19017W        W84178  30.828   7.973  12.047
19018W        W84179   8.203  20.172  11.222
19019W        W84180  33.619   1.730  11.130
19020W        W84181  41.805  15.871  13.052
19021W        W84182   3.821  44.049  11.647
19022W        W84183   6.846  43.689  12.039
19023W        W84184  13.445  25.659   4.508
19024W        W84185  21.281   5.869  11.121
19025W        W84186  44.698  39.456  13.410
19026W        W84187  16.188  36.187  12.760
19027W        W84188  39.197  23.728   1.695
19028W        W84189  16.842   0.062  10.766
19029W        W84190   6.339  28.722   3.309
19030W        W84191  14.911  31.070  10.863
19031W        W84192   0.177   6.913   0.946
19032W        W84193  32.667  28.033   0.899
19033W        W84194  32.582  26.119   0.454
19034W        W84195   9.798  30.967   1.361
19035W        W84196  32.926  29.308  10.279
19036W        W84197  14.129  22.745   1.108
19037W        W84198  21.504  35.927  14.242
19038W        W84199  10.325  26.141  14.796
19039W        W84200  31.839  16.248  12.483
19040W        W84201  37.101  35.051   0.788
19041W        W84202   3.506  14.333   0.858
19042W        W84203   9.215  44.672   4.520
19043W        W84204  28.474  39.176  13.403
19044W        W84205  42.345  25.420   3.612
19045W        W84206   5.752  37.377   2.198
19046W        W84207  43.870  14.651   5.488
19047W        W84208  18.222  18.563   3.549
19048W        W84209  30.838   6.323   2.580
19049W        W84210  20.142  43.047   5.188
19050W        W84211  41.791  22.673  12.451
19051W        W84212   0.287  13.262  12.466
19052W        W84213  28.572  28.820  14.816
19053W        W84214   3.455  37.010   3.509
19054W        W84215  28.568  14.097  11.108
19055W        W84216  43.421  43.523   3.644
19056W        W84217  32.104  24.900   4.884
19057W        W84218  21.164  12.142  11.146
19058W        W84219   1.987  33.413  10.704
19059W        W84220  42.414  16.148   2.497
19060W        W84221  14.449   3.408   0.294
19061W        W84222   5.652  42.333   4.380
19062W        W84223  39.890  36.607   2.886
19063W        W84224  19.156  11.706   2.963
19064W        W84225  11.888  33.155  14.215
19065W        W84226   9.135   6.152  13.613
19066W        W84227   9.217  10.619  12.912
19067W        W84228  41.461  36.014  12.423
19068W        W84229  10.721  43.571   2.331
19069W        W84230  33.546  22.700  11.552
19070W        W84231  35.024  12.815  10.737
19071W        W84232   4.048  33.101  12.012
19072W        W84233  17.220  10.235   2.725
19073W        W84234  37.922  16.560   0.516
19074W        W84235  24.475  34.492  11.716
19075W        W84236  31.675   3.882  10.514
19076W        W84237  29.874   1.222   4.891
19077W        W84238  12.372  18.800   1.855
19078W        W84239  23.451  38.050   5.090
19079W        W84240  42.439  39.110  13.428
19080W        W84241  27.427  11.595  12.101
19081W        W84242   4.718  32.352   4.540
19082W        W84243  26.609  37.342   4.989
19083W        W84244  37.658  36.920   0.450
19084W        W84245  14.886  22.210  11.694
19085W        W84246  19.480  30.698  13.807
19086W        W84247  35.239  21.182  10.393
19087W        W84248   8.180  11.261  12.387
19088W        W84249   7.620   6.814  10.458
19089W        W84250  44.178   6.195   4.019
19090W        W84251  32.887  16.636  13.718
19091W        W84252  23.890   8.153  12.330
19092W        W84253  34.385  13.411   3.627
19093W        W84254  11.660   0.528   4.632
19094W        W84255  44.834  24.632   3.001
19095W        W84256  19.587  35.656  10.423
19096W        W84257  44.358   3.896   0.673
19097W        W84258  18.661  36.240   2.574
19098W        W84259   6.396  37.518  13.566
19099W        W84260  40.284  12.806   4.146
19100W        W84261   6.553  32.339  11.593
19101W        W84262  41.397  15.296   3.715
19102W        W84263  38.306  11.611   2.893
19103W        W84264   3.443  20.000  14.509
19104W        W84265  33.529  28.123  13.067
19105W        W84266  19.989  42.386  12.806
19106W        W84267   7.192  27.513  12.799
19107W        W84268  31.428   5.138  14.905
19108W        W84269   4.611  21.564  12.089
19109W        W84270   4.419  29.450   3.775
19110W        W84271  23.703  24.726  12.065
19111W        W84272  44.357  20.178   0.089
19112W        W84273  13.565   4.258   2.682
19113W        W84274   5.440   1.076   2.954
19114W        W84275  20.204  39.080   1.516
19115W        W84276  28.502  14.292  14.911
19116W        W84277   1.825  30.777   3.628
19117W        W84278   2.847  16.307   1.390
19118W        W84279  11.331   7.824  13.713
19119W        W84280  41.320  35.970   3.353
19120W        W84281  21.008   0.008  14.539
19121W        W84282  32.941  40.430  13.278
19122W        W84283  29.873  27.218  11.987
19123W        W84284  36.096  17.583   1.440
19124W        W84285  24.054  42.155   4.812
19125W        W84286  22.331  14.653  11.093
19126W        W84287   3.103  38.034   0.550
19127W        W84288  33.079  17.465  12.002
19128W        W84289  27.172  18.304  13.410
19129W        W84290  10.278  21.928   1.433
19130W        W84291  24.231   1.744  11.962
19131W        W84292  14.281  14.106  14.838
19132W        W84293  18.679  21.857  10.569
19133W        W84294  25.010  26.620  12.058
19134W        W84295  37.909   4.967  10.677
19135W        W84296  36.578   5.908  10.652
19136W        W84297  32.418  29.929   3.302
19137W        W84298  25.429  33.243   4.491
19138W        W84299  43.370  10.813  14.375
19139W        W84300  16.310  32.566   3.936
19140W        W84301  25.087   9.320   0.239
19141W        W84302  42.339  29.734   2.764
19142W        W84303   1.974  18.650  10.731
19143W        W84304  22.012  28.208   9.965
19144W        W84305  40.805  28.558   3.557
19145W        W84306  15.345   4.836   0.091
19146W        W84307  24.746  27.716   0.745
19147W        W84308   5.344  30.591  10.644
19148W        W84309  43.281  37.662  13.380
19149W        W84310  13.245  34.399   5.004
19150W        W84311   0.110  44.874  13.057
19151W        W84312  32.848  25.137  13.052
19152W        W84313  22.187  25.524   3.359
19153W        W84314  38.522  17.195  11.212
19154W        W84315  25.520  43.351  11.146
19155W        W84316  23.351  34.725   3.775
19156W        W84317  22.061  30.370   1.404
19157W        W84318  19.432  11.173  13.171
19158W        W84319  15.662  35.436   3.136
19159W        W84320  17.146  15.892  12.044
19160W        W84321  21.041  36.897  14.981
19161W        W84322  38.727   3.425   4.477
19162W        W84323   9.901  27.584   0.897
19163W        W84324  23.095  17.820  12.570
19164W        W84325  30.509  40.429   2.311
19165W        W84326  24.705  18.022  11.111
19166W        W84327  44.452  40.124  12.646
19167W        W84328  40.501  13.717   2.302
19168W        W84329  13.631  10.752   4.474
19169W        W84330  44.563   2.442   0.910
19170W        W84331  25.337   3.581  11.070
19171W        W84332   0.331  41.796   3.681
19172W        W84333   3.240  30.528   2.223
19173W        W84334  33.233  16.917   1.237
19174W        W84335  36.995   9.044   4.052
19175W        W84336   9.139  19.684  13.831
19176W        W84337  14.957   3.734  14.289
19177W        W84338   5.193  18.492  12.460
19178W        W84339  39.831  15.412   4.642
19179W        W84340  44.761  18.200  10.759
19180W        W84341   3.698  28.323  11.163
19181W        W84342  28.733  40.247   2.405
19182W        W84343   2.323   0.660   4.213
19183W        W84344  19.020  32.966   4.729
19184W        W84345  16.625  15.560   3.569
19185W        W84346  29.114   5.262   0.282
19186W        W84347  36.386  18.131  12.588
19187W        W84348   4.314   8.271  10.656
19188W        W84349  28.022  28.396   3.213
19189W        W84350  42.563  31.561   2.786
19190W        W84351  18.102  37.172  10.704
19191W        W84352  35.853   2.500  12.942
19192W        W84353  11.816  33.662  14.408
19193W        W84354  37.019  30.939   1.254
19194W        W84355  38.576  13.196   0.215
19195W        W84356   3.456  39.851   0.872
19196W        W84357   2.438   2.725  12.985
19197W        W84358  26.404  30.649  14.960
19198W        W84359  43.144  19.078   0.976
19199W        W84360  40.959  14.705   1.461
19200W        W84361  21.516   9.979  13.801
19201W        W84362  31.391  37.467   4.127
19202W        W84363  12.379  19.130   4.175
19203W        W84364  26.255   3.842   1.749
19204W        W84365  29.674  17.319  12.347
19205W        W84366   5.961  31.232  12.087
19206W        W84367  16.302  25.749  14.969
19207W        W84368  30.791  28.889   3.781
19208W        W84369  11.783  37.839  12.311
19209W        W84370  10.862  10.138   3.306
19210W        W84371  42.748  23.394  14.222
19211W        W84372   3.716  36.021   2.235
19212W        W84373  23.094  30.321   2.214
19213W        W84374  13.555   8.241  14.685
19214W        W84375  11.227  41.472  14.074
19215W        W84376  42.810  26.448   1.765
19216W        W84377   7.342  25.722  10.277
19217W        W84378  28.748  27.838   1.406
19218W        W84379  12.151   1.540  12.004
19219W        W84380  22.122  19.841   2.699
19220W        W84381  11.693  36.563  12.108
19221W        W84382  14.818   7.645   2.216
19222W        W84383  23.059  20.561  12.719
19223W        W84384  14.323  25.172  12.500
19224W        W84385  24.695   7.109  12.902
19225W        W84386  32.608   2.029   4.971
19226W        W84387   5.256  24.665   5.040
19227W        W84388  11.305   0.471  12.695
19228W        W84389   4.044  25.901   3.784
19229W        W84390   7.287  28.160  12.549
19230W        W84391   7.055   3.930  12.988
19231W        W84392   9.744  11.633   3.125
19232W        W84393  31.647  41.984   1.709
19233W        W84394   9.866  39.125   1.986
19234W        W84395  22.073  20.746  12.596
19235W        W84396  14.241   2.418  12.377
19236W        W84397   8.499  25.937   3.474
19237W        W84398  13.785  37.766   0.138
19238W        W84399  11.262  35.345  11.739
19239W        W84400  12.298  12.689  14.784
19240W        W84401  11.285   7.912   2.841
19241W        W84402  39.064   0.979   1.574
19242W        W84403  27.682   9.650  14.001
19243W        W84404  12.498  15.031  12.078
19244W        W84405   4.511   5.639   1.420
19245W        W84406  34.568  22.969   2.346
19246W        W84407  38.655  38.978   4.679
19247W        W84408  36.297  17.653   1.943
19248W        W84409  28.690  13.912  13.877
19249W        W84410  23.718   3.669   4.684
19250W        W84411  36.115  26.707   0.864
19251W        W84412   8.932  10.228   2.875
19252W        W84413  29.209  27.584   0.854
19253W        W84414  32.166  44.701  13.437
19254W        W84415  13.580   0.911   3.856
19255W        W84416  28.942  30.176   1.817
19256W        W84417  24.363  44.887   0.688
19257W        W84418   1.982   6.342  12.319
19258W        W84419  33.168  30.278   1.202
19259W        W84420  39.406   0.407  11.641
19260W        W84421  14.220  23.190  12.122
19261W        W84422  40.186  24.291  13.843
19262W        W84423  23.169  26.955  14.796
19263W        W84424  29.291  33.494  10.889
19264W        W84425   4.452  14.666   1.927
19265W        W84426  24.697   6.686   4.929
19266W        W84427   5.310  15.825   3.594
19267W        W84428  44.321  36.727   1.263
19268W        W84429  11.985   3.818   3.153
19269W        W84430   0.823   9.917   3.197
19270W        W84431  30.125  39.280  10.553
19271W        W84432  34.097   5.768  13.400
19272W        W84433  21.651  36.621  12.544
19273W        W84434   4.199  32.118   3.704
19274W        W84435  11.220   5.615  14.179
19275W        W84436   0.817  32.575   2.710
19276W        W84437  31.885  21.896   0.271
19277W        W84438  43.905  38.455  13.778
19278W        W84439  24.983  42.376  12.973
19279W        W84440  41.099  36.400  12.490
19280W        W84441  38.976  25.915   4.489
19281W        W84442   5.164  34.849   3.792
19282W        W84443  29.364  10.909   1.301
19283W        W84444  43.095  21.192  13.292
19284W        W84445   0.590  21.612  12.625
19285W        W84446   8.050  31.927   0.805
19286W        W84447  17.762   4.315  12.588
19287W        W84448  35.155  44.104  11.466
19288W        W84449  17.186  24.672  12.169
19289W        W84450  21.307  23.398   1.891
19290W        W84451   2.790  17.910   2.260
19291W        W84452  21.776  42.796   2.351
19292W        W84453  32.531  20.384  12.871
19293W        W84454  32.636  33.910  11.997
19294W        W84455  42.599  10.310  14.315
19295W        W84456  41.494  12.730   1.080
19296W        W84457   7.683  40.728   1.360
19297W        W84458  11.570  27.681   2.045
19298W        W84459  30.060   5.161  12.447
19299W        W84460   2.695   0.753   1.366
19300W        W84461  30.486  14.191   2.303
19301W        W84462  13.096  29.908  12.099
19302W        W84463  38.149  10.197  13.992
19303W        W84464  24.561  24.236  14.859
19304W        W84465  24.515  15.941  13.850
19305W        W84466  34.177  20.360   2.310
19306W        W84467  36.744  34.213   0.409
19307W        W84468  43.682  25.106  14.339
19308W        W84469   2.361   9.023   0.835
19309W        W84470  30.991  11.623   4.907
19310W        W84471  15.701  30.089   4.498
19311W        W84472   7.828   2.981   1.721
19312W        W84473  37.760  41.082   9.599
19313W        W84474  15.181  23.487  14.548
19314W        W84475  28.012  43.927   4.680
19315W        W84476  31.847  22.688   0.919
19316W        W84477  20.268  11.214  11.953
19317W        W84478  31.504  35.972  14.536
19318W        W84479  11.303   2.855  13.777
19319W        W84480   4.303  10.543  14.316
19320W        W84481   6.478  34.867  11.145
19321W        W84482   1.395  35.645  11.613
19322W        W84483  24.568  18.515  14.075
19323W        W84484  20.052  15.642  13.399
19324W        W84485  40.411   2.075  12.042
19325W        W84486  10.849  18.111   2.858
19326W        W84487  30.737  29.964   2.329
19327W        W84488   4.395  11.092  11.540
19328W        W84489  15.305  22.904   4.165
19329W        W84490  43.073  26.694   1.414
19330W        W84491  15.646  44.487   2.728
19331W        W84492  33.611  37.403  11.519
19332W        W84493  18.574  30.875   3.633
19333W        W84494  23.558  44.143   0.837
19334W        W84495  27.882  40.520   1.739
19335W        W84496  43.304   9.797   4.636
19336W        W84497  41.387  32.084   1.560
19337W        W84498  36.495  16.294  13.413
19338W        W84499   1.925   0.344  14.946
19339W        W84500  37.481  25.191  12.167
19340W        W84501  21.086  10.902   3.837
19341W        W84502  42.932  38.436   3.221
19342W        W84503  13.080  26.898  12.075
19343W        W84504  18.681   4.343   2.413
19344W        W84505  20.683  17.091  10.630
19345W        W84506  17.158  15.645   1.177
19346W        W84507  23.232  39.838   0.078
19347W        W84508  35.376  39.052  14.991
19348W        W84509  26.252  13.582  13.313
19349W        W84510   2.476   0.946  11.200
19350W        W84511   8.661  33.354  14.837
19351W        W84512  22.096  10.688   3.636
19352W        W84513  20.549  37.427  12.318
19353W        W84514  40.543   2.671   1.696
19354W        W84515  37.972  17.325   2.461
19355W        W84516  24.028  29.153  12.855
19356W        W84517  15.231   5.288   0.296
19357W        W84518   5.973  24.528   2.617
19358W        W84519   8.075  28.760   0.716
19359W        W84520  14.618   7.906   1.775
19360W        W84521  42.404  44.271  13.140
19361W        W84522  32.855  18.709  14.783
19362W        W84523  24.232   5.544  10.710
19363W        W84524  40.457  34.798  12.100
19364W        W84525  30.100  21.616  14.871
19365W        W84526  34.372  40.291   2.106
19366W        W84527   9.783   4.027   0.346
19367W        W84528  44.431  31.538  11.689
19368W        W84529  26.062  12.169  14.873
19369W        W84530  26.429   3.889   3.128
19370W        W84531  27.090  18.325  12.485
19371W        W84532  23.573  35.554  11.531
19372W        W84533  28.323  16.043  14.155
19373W        W84534  33.468  42.333  10.333
19374W        W84535  23.140   2.313   1.790
19375W        W84536   6.125  14.247   4.657
19376W        W84537  21.046  10.865   2.298
19377W        W84538  19.273  28.749   3.326
19378W        W84539   5.905  35.916   4.595
19379W        W84540  10.159  35.502  14.758
19380W        W84541  43.925  28.109  10.477
19381W        W84542  26.615  28.433  14.893
19382W        W84543  12.880   5.946   0.809
19383W        W84544   9.863  13.394   0.836
19384W        W84545  12.609   4.324  12.507
19385W        W84546  21.730  26.939  13.575
19386W        W84547  28.257  32.531  13.039
19387W        W84548  12.042  24.123   4.771
19388W        W84549  38.971  39.817   1.442
19389W        W84550  44.617  41.063   5.082
19390W        W84551  43.534   5.896  12.945
19391W        W84552  24.535  18.666   1.448
19392W        W84553  27.588  35.573   0.212
19393W        W84554  43.112  36.875   1.326
19394W        W84555   7.809  31.512   3.446
19395W        W84556  18.678  38.852   4.732
19396W        W84557  30.567  26.679  14.222
19397W        W84558  39.271  23.665   0.434
19398W        W84559   6.266  17.627   3.335
19399W        W84560  11.645  29.405   4.549
19400W        W84561  10.802  44.491  10.516
19401W        W84562   5.697  24.273   9.832
19402W        W84563   4.339  31.228   3.634
19403W        W84564  14.367   8.934   2.180
19404W        W84565  20.443   4.491  11.255
19405W        W84566  28.980   2.769  11.139
19406W        W84567  15.353  38.811   4.598
19407W        W84568  38.734  26.819   3.674
19408W        W84569  16.313  35.825   4.181
19409W        W84570  35.137   5.353   2.775
19410W        W84571  28.981   4.127   2.898
19411W        W84572  15.650   7.469  13.896
19412W        W84573  13.673  23.369   0.532
19413W        W84574  13.303  41.967   2.958
19414W        W84575  35.382  33.330   1.196
19415W        W84576  33.497  21.462   4.334
19416W        W84577   7.708  44.809   2.398
19417W        W84578   1.390   8.892  11.902
19418W        W84579  27.645  14.708   2.718
19419W        W84580  20.035  35.420   3.130
19420W        W84581  36.980  10.387   0.003
19421W        W84582  21.635  42.086   3.469
19422W        W84583  23.635  14.175   4.498
19423W        W84584   8.644  42.992  11.326
19424W        W84585  44.673  14.715   1.683
19425W        W84586  38.838  27.386   3.745
19426W        W84587  20.529  26.980   1.729
19427W        W84588  10.790  44.995   3.214
19428W        W84589   8.000  40.824  10.960
19429W        W84590  37.017   4.514   0.546
19430W        W84591  16.018  41.337  14.879
19431W        W84592  39.029   2.828   3.764
19432W        W84593   7.483  17.581  11.946
19433W        W84594   7.315  36.866   1.716
19434W        W84595   3.448  10.734   3.594
19435W        W84596  41.169  29.498  13.800
19436W        W84597  38.933  31.485  12.867
19437W        W84598  17.142   1.382   1.166
19438W        W84599  31.113  21.295  14.321
19439W        W84600  35.085  38.725   2.193
19440W        W84601  43.712  42.358  11.467
19441W        W84602   6.763  32.180   3.706
19442W        W84603  29.068  17.199  13.501
19443W        W84604   0.730  22.304   3.110
19444W        W84605  12.746  13.383  12.704
19445W        W84606  43.852  44.507  10.960
19446W        W84607  29.043  29.578   3.591
19447W        W84608  44.296  31.903   4.189
19448W        W84609   0.768  38.281  12.535
19449W        W84610  13.152  24.571  13.410
19450W        W84611  24.899   7.452   3.835
19451W        W84612   7.654  39.146  13.129
19452W        W84613  31.452   6.842  12.127
19453W        W84614  36.110  33.888   3.651
19454W        W84615  31.202  13.773   1.818
19455W        W84616  31.300  29.897   3.974
19456W        W84617  25.912   6.382  10.997
19457W        W84618  40.408  22.795  10.350
19458W        W84619  27.409  25.808   3.520
19459W        W84620   3.851  44.137  13.401
19460W        W84621   3.687  12.206   2.378
19461W        W84622  24.145  19.515  11.923
19462W        W84623   3.759   5.466   1.714
19463W        W84624   2.523  28.914  12.611
19464W        W84625  39.060  20.029  13.052
19465W        W84626   6.104  11.422  12.015
19466W        W84627  17.462  25.074  13.465
19467W        W84628  31.596   0.734  14.014
19468W        W84629  43.819  17.732   2.322
19469W        W84630  27.094  11.867  12.903
19470W        W84631  21.287  33.778   0.943
19471W        W84632  32.594  33.263  13.622
19472W        W84633   9.098  41.571  11.273
19473W        W84634   3.820  10.499  13.534
19474W        W84635  14.897   8.828  13.335
19475W        W84636  35.227  31.947   2.105
19476W        W84637   4.802   2.308   0.804
19477W        W84638  43.834  30.137  13.017
19478W        W84639  26.274   0.350   4.231
19479W        W84640   0.846  27.482   4.374
19480W        W84641  18.160  31.207   3.574
19481W        W84642  13.354  12.715   3.637
19482W        W84643  43.761  38.542  12.907
19483W        W84644  30.177  32.209  14.092
19484W        W84645  15.638  37.571   1.145
19485W        W84646  11.719  25.078  12.845
19486W        W84647  13.679  40.003   1.732
19487W        W84648   9.298  26.974  13.360
19488W        W84649   3.289   5.638  14.035
19489W        W84650  20.540  21.419   1.938
19490W        W84651  16.359   5.811  11.336
19491W        W84652  24.244  11.178  14.997
19492W        W84653  28.610  38.535   3.518
19493W        W84654   6.634  14.100  13.947
19494W        W84655  44.438   9.755   1.788
19495W        W84656  15.808  13.213  14.919
19496W        W84657  20.978  21.816   3.101
19497W        W84658   1.440  11.305   1.110
19498W        W84659   5.804  36.165  12.379
19499W        W84660  15.661  16.236   1.849
19500W        W84661  40.934  22.370  10.800
19501W        W84662  18.136   9.767   1.469
19502W        W84663  33.177  20.433   4.988
19503W        W84664   9.225  41.952   2.875
19504W        W84665  32.356  37.887   3.765
19505W        W84666  34.076  23.062   0.875
19506W        W84667   8.672  39.594  14.503
19507W        W84668   7.390  15.366   4.241
19508W        W84669  15.249  29.130   4.592
19509W        W84670  39.265  23.458   3.084
19510W        W84671   2.940  31.654   1.350
19511W        W84672  13.157   0.336  14.247
19512W        W84673  30.020   6.285  12.802
19513W        W84674  31.652  29.439   3.722
19514W        W84675  10.774   6.262   0.133
19515W        W84676  23.577   1.880   3.408
19516W        W84677   7.416  18.103  11.129
19517W        W84678   4.712  40.014   3.775
19518W        W84679  34.329   0.700  11.683
19519W        W84680  21.773  39.945   1.896
19520W        W84681   0.393  34.997   1.735
19521W        W84682   7.051  23.599  14.901
19522W        W84683   8.399  34.511   2.889
19523W        W84684  10.211  24.183   4.480
19524W        W84685  18.700   2.918   2.352
19525W        W84686   9.884  33.614  14.892
19526W        W84687  18.033   8.317   2.763
19527W        W84688   5.304  20.723   2.810
19528W        W84689  38.425  27.170   1.162
19529W        W84690  41.007   6.067   0.225
19530W        W84691  21.087  30.056  10.470
19531W        W84692  29.040   5.334  14.782
19532W        W84693   4.712  23.920   5.066
19533W        W84694  28.699  27.545   0.759
19534W        W84695   5.502  29.952   2.320
19535W        W84696  22.502  37.384   4.776
19536W        W84697  16.745  37.864  12.385
19537W        W84698  40.726  40.805  12.963
19538W        W84699  13.551  11.868   2.819
19539W        W84700  36.567   0.377   3.562
19540W        W84701   9.173  37.693   1.986
19541W        W84702  33.941  30.759   0.351
19542W        W84703  39.705  35.205  12.539
19543W        W84704  15.612   5.688   4.235
19544W        W84705  16.821  20.343  11.165
19545W        W84706  35.446  29.486  10.574
19546W        W84707  21.791  41.825   0.780
19547W        W84708  26.839  27.970   4.945
19548W        W84709  13.467  23.743   1.785
19549W        W84710   8.835  10.965  14.365
19550W        W84711  32.436  41.535   1.258
19551W        W84712  37.854  14.294   3.768
19552W        W84713  31.614  34.967  11.085
19553W        W84714   9.968  20.987  14.359
19554W        W84715  27.117  17.793  13.544
19555W        W84716  16.195  10.830   0.719
19556W        W84717   8.860   5.612   4.536
19557W        W84718  25.672   2.224  14.049
19558W        W84719  15.861  15.608   2.409
19559W        W84720  12.278   9.726  10.770
19560W        W84721  33.062   4.418   2.465
19561W        W84722   4.802   2.983  14.090
19562W        W84723  35.462  17.173  13.551
19563W        W84724  22.173   4.050  10.591
19564W        W84725   3.348  42.470   2.670
19565W        W84726  24.015   3.141   3.639
19566W        W84727   0.996  32.042   3.702
19567W        W84728  44.375  30.181  12.282
19568W        W84729  18.867   1.666  11.113
19569W        W84730  35.461  14.210   1.760
19570W        W84731   3.711  12.749  13.494
19571W        W84732   2.708  10.701  13.448
19572W        W84733  23.855  13.022   2.315
19573W        W84734  14.700   7.889   0.939
19574W        W84735   5.386  33.786  10.623
19575W        W84736  26.774  33.088   2.770
19576W        W84737   5.159  18.133   4.170
19577W        W84738  17.227  17.672   2.199
19578W        W84739  31.310  13.649  14.361
19579W        W84740  41.922  40.934   1.598
19580W        W84741  27.099  38.322  14.375
19581W        W84742  24.414  36.338   0.152
19582W        W84743  31.961  28.385   2.787
19583W        W84744  34.650  21.129  11.638
19584W        W84745  33.317  28.344   4.303
19585W        W84746  17.519  30.566   1.313
19586W        W84747  26.934  12.693  12.428
19587W        W84748  30.030  44.743  10.598
19588W        W84749  14.698  19.770  13.936
19589W        W84750  43.396  25.222  11.637
19590W        W84751  18.056  12.185   3.455
19591W        W84752   7.729   5.670   2.141
19592W        W84753   5.645   7.305  10.573
19593W        W84754   1.294  30.666  14.754
19594W        W84755  33.872  30.390  11.807
19595W        W84756  36.524  24.856  10.095
19596W        W84757  32.005  20.497   0.331
19597W        W84758  16.599   3.980   0.800
19598W        W84759  40.828  27.500  10.777
19599W        W84760   4.315   9.296  14.190
19600W        W84761   6.090  12.117  14.174
19601W        W84762   1.549  16.085   0.235
19602W        W84763  27.181   0.997   1.926
19603W        W84764  28.075   1.387  12.500
19604W        W84765  16.605  26.513  11.450
19605W        W84766  14.257   0.015   3.243
19606W        W84767  39.969  12.233   4.477
19607W        W84768   2.933  26.460   2.556
19608W        W84769  18.823  32.960  11.539
19609W        W84770  32.124  40.882  12.213
19610W        W84771  43.193  43.466  14.105
19611W        W84772  26.664   5.964   0.051
19612W        W84773  17.086   4.300  14.277
19613W        W84774  33.136  22.161   3.766
19614W        W84775  25.646  40.807  14.246
19615W        W84776   6.890  35.198  12.152
19616W        W84777  17.091   0.487  13.437
19617W        W84778  38.125   6.434  12.033
19618W        W84779   2.184   2.377   0.369
19619W        W84780  11.069  38.719   0.279
19620W        W84781  17.262  32.826   4.504
19621W        W84782  41.014   8.611   5.312
19622W        W84783   5.776   4.979   0.836
19623W        W84784  12.779  40.226  14.812
19624W        W84785  20.039  27.729   0.034
19625W        W84786   7.470   9.618  12.542
19626W        W84787   4.995   6.665  14.445
19627W        W84788  22.980  17.055  14.732
19628W        W84789  32.220   1.841  10.644
19629W        W84790  25.695   4.712   0.324
19630W        W84791  13.761  10.161   2.818
19631W        W84792   4.998  13.681   2.862
19632W        W84793  11.912   0.057  12.576
19633W        W84794  31.531  42.496   1.852
19634W        W84795  39.009  26.807   2.863
19635W        W84796   2.424  32.024   2.513
19636W        W84797  12.907  41.516  12.199
19637W        W84798   5.101   5.003  12.474
19638W        W84799  12.674  13.452  13.215
19639W        W84800  32.038  11.621   1.210
19640W        W84801  39.277  21.231   0.221
19641W        W84802   8.729  11.708   3.175
19642W        W84803  36.169  42.026   0.308
19643W        W84804  33.956   3.217  10.280
19644W        W84805  12.623  10.243   0.922
19645W        W84806   6.903   5.467   1.863
19646W        W84807  27.921  18.543   0.293
19647W        W84808  23.071  26.067  11.175
19648W        W84809  40.056  43.352  14.909
19649W        W84810   3.521  22.054   3.082
19650W        W84811  17.565  23.718   3.170
19651W        W84812  13.673  19.158  13.362
19652W        W84813  42.003  32.069   2.901
19653W        W84814  10.532  30.082   2.130
19654W        W84815  42.787  14.662  11.007
19655W        W84816   2.412   9.721   5.059
19656W        W84817   5.460  34.863  14.831
19657W        W84818   5.864  42.511   2.876
19658W        W84819   8.588  29.561   0.354
19659W        W84820  19.983  13.313  13.975
19660W        W84821  10.811  40.233  12.485
19661W        W84822  24.991  15.239   1.557
19662W        W84823  35.564   2.410   4.490
19663W        W84824   7.495   7.751  14.783
19664W        W84825   4.559   8.142   2.541
19665W        W84826  40.306  21.973   1.309
19666W        W84827  20.815  19.704  13.926
19667W        W84828  18.290  22.301  11.457
19668W        W84829  17.720   9.488  11.950
19669W        W84830  11.803   8.841  12.919
19670W        W84831  40.523  28.547   1.350
19671W        W84832  34.844  25.141   2.447
19672W        W84833  36.611  38.342   2.402
19673W        W84834  17.194   8.324  11.525
19674W        W84835  41.922   8.199  11.542
19675W        W84836  38.199  33.640   4.876
19676W        W84837  25.414  24.559   1.601
19677W        W84838  31.404  28.600   2.139
19678W        W84839   7.325  12.033  12.052
19679W        W84840   1.614  36.994   4.920
19680W        W84841   2.266  19.769   3.898
19681W        W84842  15.211  34.395   3.666
19682W        W84843  18.571  12.544  14.362
19683W        W84844  26.083  44.584  11.277
19684W        W84845  11.596   1.571   0.909
19685W        W84846   9.387  13.187   1.407
19686W        W84847  27.585  20.485  14.306
19687W        W84848  25.065  17.730  13.545
19688W        W84849  16.617  39.285   5.170
19689W        W84850   4.470  12.033  10.404
19690W        W84851  36.390   1.409   0.949
19691W        W84852  34.773  42.882  12.506
19692W        W84853   9.267  23.157   1.027
19693W        W84854  30.384  39.343  14.502
19694W        W84855  31.455  10.289  11.700
19695W        W84856  16.572  34.011   4.794
19696W        W84857  25.461   0.935  10.726
19697W        W84858  31.603  41.426  12.484
19698W        W84859  39.848   3.455  11.450
19699W        W84860  30.841  26.935   3.694
19700W        W84861  12.423  29.706   2.287
19701W        W84862  28.079  26.921  14.910
19702W        W84863  36.897  28.211  14.727
19703W        W84864  44.360  42.992   0.004
19704W        W84865  19.300  15.558   5.039
19705W        W84866   4.161  26.276   1.770
19706W        W84867  32.026   5.466  11.104
19707W        W84868  20.773   2.195   2.270
19708W        W84869  34.136  40.392   4.072
19709W        W84870  25.257   4.399  13.545
19710W        W84871   4.071  23.166   9.823
19711W        W84872  36.902  26.453  13.984
19712W        W84873  22.033   8.174   1.728
19713W        W84874  22.764  11.393  11.762
19714W        W84875  25.177  41.071   4.928
19715W        W84876  22.104  16.373   4.992
19716W        W84877  43.888  35.762   1.404
19717W        W84878  30.956  40.085  11.085
19718W        W84879   1.488  33.561  14.907
19719W        W84880  35.210  35.353   2.695
19720W        W84881  21.282  33.672  14.315
19721W        W84882  27.702  14.143  12.063
19722W        W84883   0.967  38.780  12.599
19723W        W84884  19.652  30.031   0.108
19724W        W84885  44.940  28.852   2.067
19725W        W84886  26.501  24.283   4.200
19726W        W84887  34.572  24.030   4.141
19727W        W84888  29.576  43.202   1.751
19728W        W84889  18.610  18.731  13.331
19729W        W84890  44.677  11.197  13.998
19730W        W84891   6.250  16.828   4.361
19731W        W84892   9.792  16.723  14.634
19732W        W84893   3.780   8.291  10.733
19733W        W84894   1.894  13.244  10.635
19734W        W84895  29.233  29.755   1.893
19735W        W84896  27.180   1.859  11.585
19736W        W84897  17.457  42.650   9.674
19737W        W84898  28.464  33.588  14.887
19738W        W84899  28.935  37.412  13.887
19739W        W84900   0.484   9.927   0.810
19740W        W84901  20.319  15.580   3.398
19741W        W84902  43.543  44.762   4.625
19742W        W84903  19.131  23.984  12.636
19743W        W84904  13.647  36.798   1.109
19744W        W84905  12.136  41.316  13.473
19745W        W84906   1.172  23.576  11.573
19746W        W84907  17.722  22.737  10.725
19747W        W84908  14.830   6.296   4.104
19748W        W84909  27.000  25.547   3.289
19749W        W84910  17.268  26.817   4.228
19750W        W84911  18.836  18.726  12.463
19751W        W84912  33.741  24.235  11.687
19752W        W84913   5.586  11.338  13.260
19753W        W84914  33.316  33.777  12.545
19754W        W84915  44.339  30.551  14.708
19755W        W84916   4.354  42.857  12.046
19756W        W84917  24.554  22.958   1.332
19757W        W84918  10.767   7.367   4.821
19758W        W84919   3.120  32.833  13.531
19759W        W84920  12.032  23.884   4.288
19760W        W84921  40.489  26.424   5.070
19761W        W84922  14.828  35.601  14.520
19762W        W84923   6.280  37.944   4.046
19763W        W84924  22.289   8.334   4.234
19764W        W84925  17.656   4.944  13.433
19765W        W84926  32.409  24.936   3.604
19766W        W84927   5.852  29.904  14.744
19767W        W84928  19.850  44.302   3.629
19768W        W84929  26.001   0.869  10.527
19769W        W84930   3.522  40.982  12.882
19770W        W84931  27.190   0.508  12.047
19771W        W84932  33.774   8.460   0.979
19772W        W84933  13.336  23.099  11.594
19773W        W84934  20.111  39.574   3.294
19774W        W84935   2.224   9.753  13.005
19775W        W84936  16.950  25.823   2.398
19776W        W84937  14.937  15.642   0.922
19777W        W84938  27.984  36.598   1.674
19778W        W84939  20.297  26.985   3.840
19779W        W84940   8.975  38.856  12.021
19780W        W84941   6.897  38.408  12.561
19781W        W84942   1.780  37.821  12.939
19782W        W84943  19.498  38.034  12.425
19783W        W84944   9.807  24.068   3.254
19784W        W84945  18.037  13.086   1.749
19785W        W84946  42.397  44.152  11.194
19786W        W84947  27.259  12.129   2.657
19787W        W84948  32.955  36.455   9.595
19788W        W84949   1.029  21.053   2.860
19789W        W84950   2.230  18.523   4.308
19790W        W84951  14.357  41.873   0.969
19791W        W84952  34.403  28.021  11.683
19792W        W84953  37.265  41.070   4.547
19793W        W84954  35.624  23.994  11.469
19794W        W84955  31.453  41.972   3.324
19795W        W84956  42.083   6.381  11.630
19796W        W84957  14.763   2.416   0.438
19797W        W84958  38.066  35.887   4.158
19798W        W84959   6.386  40.643   4.376
19799W        W84960   5.116  24.254  11.749
19800W        W84961  40.333  39.385  11.198
19801W        W84962  39.546  28.044  11.812
19802W        W84963  38.906  39.332  10.804
19803W        W84964   1.536   3.654   4.492
19804W        W84965  43.952  26.155   1.460
19805W        W84966  24.657  28.433   4.940
19806W        W84967   9.116  17.953   3.677
19807W        W84968  15.366  28.669  11.135
19808W        W84969  16.960  23.153   4.747
19809W        W84970  15.194  26.961  11.379
19810W        W84971  30.051  24.193  13.035
19811W        W84972  15.741  42.812  14.732
19812W        W84973  30.232  18.593  12.972
19813W        W84974   4.789  12.716  10.803
19814W        W84975  15.776  37.652   4.208
19815W        W84976  41.882  36.368   1.299
19816W        W84977  44.775   1.018  11.680
19817W        W84978  44.346   8.885   2.937
19818W        W84979  39.401   4.255  13.800
19819W        W84980  11.675  41.963   0.796
19820W        W84981  22.649   3.515   2.396
19821W        W84982  15.575  22.606   0.035
19822W        W84983  23.668  41.816   2.391
19823W        W84984   0.163   3.905  11.108
19824W        W84985  32.384  37.326  12.869
19825W        W84986  12.421  38.871  14.354
19826W        W84987   7.399  39.749   2.247
19827W        W84988  38.024  25.747  14.694
19828W        W84989  43.337  16.781   1.456
19829W        W84990  18.626  40.492  13.609
19830W        W84991  25.974  37.320   4.484
19831W        W84992   5.418  21.617  14.770
19832W        W84993  29.441  30.273   1.835
19833W        W84994  20.057  35.440   4.087
19834W        W84995  23.596  15.806   4.682
19835W        W84996   4.993   9.276  11.106
19836W        W84997  36.250  26.320   2.186
19837W        W84998  35.467  24.980   4.025
19838W        W84999  12.230  17.862   0.006
19839W        W85000  36.941  14.836   2.291
19840W        W85001  32.470  25.010  12.139
19841W        W85002   0.852  34.008  11.099
19842W        W85003  43.885  35.594   1.913
19843W        W85004  44.852  33.593  10.205
19844W        W85005  15.729  12.338  10.743
19845W        W85006  25.443  39.955  13.623
19846W        W85007  17.328  36.649   1.021
19847W        W85008  19.059  40.691  13.373
19848W        W85009  11.771  12.120   3.360
19849W        W85010  41.420   6.903  14.444
19850W        W85011  37.404  13.327   1.190
19851W        W85012  14.660   8.157  13.965
19852W        W85013   5.143  25.379   0.115
19853W        W85014  31.250   3.969  13.048
19854W        W85015  35.208   5.065   1.905
19855W        W85016  27.108   8.399  13.840
19856W        W85017  28.082  19.629   4.537
19857W        W85018  35.089  31.905   4.607
19858W        W85019   0.344   4.209  11.480
19859W        W85020  27.295  21.343  13.105
19860W        W85021  20.049   9.772  12.825
19861W        W85022  36.338  44.261   1.436
19862W        W85023  25.975   9.863   1.424
19863W        W85024  27.718   2.391  12.072
19864W        W85025   7.822  11.541  11.599
19865W        W85026  11.685  11.254  13.974
19866W        W85027  15.644   7.180  11.276
19867W        W85028  43.367  37.564   1.691
19868W        W85029   9.140  14.241  12.494
19869W        W85030  12.314   7.874   1.325
19870W        W85031  18.971   9.754  13.862
19871W        W85032  16.701   6.240  14.885
19872W        W85033   1.795  30.333  12.645
19873W        W85034  20.315   3.430   5.115
19874W        W85035  44.437  24.021   1.248
19875W        W85036  37.789  20.783  13.906
19876W        W85037  12.168  24.587  12.283
19877W        W85038  24.016   7.386  11.299
19878W        W85039   5.857  27.897  11.858
19879W        W85040  23.191  42.048   2.353
19880W        W85041   2.418  28.640   2.829
19881W        W85042  33.774  16.233   4.063
19882W        W85043   0.869  28.987  11.525
19883W        W85044  37.814  44.173  11.923
19884W        W85045  30.603  21.870   4.703
19885W        W85046   7.719  31.868  12.159
19886W        W85047  19.572  18.383  11.601
19887W        W85048  39.556  16.990  14.846
19888W        W85049  23.070   4.214   1.669
19889W        W85050   5.748  33.223  11.183
19890W        W85051  20.829  28.408  14.460
19891W        W85052  17.787  36.776   2.679
19892W        W85053   3.071  10.178  11.118
19893W        W85054  27.195  22.480   4.614
19894W        W85055   8.513  39.249  14.866
19895W        W85056   4.165   5.793  11.118
19896W        W85057  44.273  29.026   1.949
19897W        W85058  31.964   5.853   0.313
19898W        W85059  36.498  26.192   3.760
19899W        W85060  39.455   2.888   4.632
19900W        W85061  25.097  23.734   4.043
19901W        W85062  29.669   0.935   3.638
19902W        W85063   8.468  32.598   1.696
19903W        W85064  26.043   2.641  12.156
19904W        W85065  27.971  25.070  11.959
19905W        W85066  33.763  24.540   0.983
19906W        W85067  43.343  18.512  11.086
19907W        W85068  27.212  13.161   0.666
19908W        W85069  16.551  24.137   0.878
19909W        W85070   9.964  24.574   3.257
19910W        W85071   9.379  38.557   2.418
19911W        W85072   9.066  13.574  14.011
19912W        W85073  31.556  24.575  14.944
19913W        W85074   8.301  40.920   3.251
19914W        W85075  22.964   6.410  11.230
19915W        W85076  43.754  16.594   2.399
19916W        W85077  25.257  40.896   2.330
19917W        W85078  23.744   7.102  13.027
19918W        W85079  28.712  34.135   3.264
19919W        W85080  41.337  44.201  10.453
19920W        W85081  31.903  24.236  13.193
19921W        W85082  16.427  12.874  14.395
19922W        W85083   6.249  43.817  11.658
19923W        W85084  15.503  28.495  14.974
19924W        W85085  44.979  14.685   1.240
19925W        W85086   6.828   6.264  14.505
19926W        W85087  34.592  24.943   2.052
19927W        W85088  39.987  34.606  13.630
19928W        W85089  23.497   4.928  12.133
19929W        W85090  26.540  26.431  13.308
19930W        W85091   6.348   9.391  14.836
19931W        W85092   7.572  15.581   0.395
19932W        W85093  30.946  19.982  11.372
19933W        W85094  13.378  24.512  13.878
19934W        W85095  40.700  27.227  11.196
19935W        W85096  11.732  27.418  11.791
19936W        W85097   3.209  13.399   0.901
19937W        W85098  15.819  23.658   3.361
19938W        W85099  29.620  42.273  14.464
19939W        W85100  22.200   9.367  10.834
19940W        W85101  13.110  15.129  12.549
19941W        W85102  18.647   5.910  12.870
19942W        W85103  39.375  26.143   0.913
19943W        W85104   5.641  20.341   0.809
19944W        W85105  38.006  38.013  14.066
19945W        W85106   3.285  15.234  11.854
19946W        W85107  43.424  24.642   4.099
19947W        W85108   0.985  44.978  13.129
19948W        W85109  19.815  42.063  11.914
19949W        W85110  30.568  42.459  14.171
19950W        W85111  14.135  37.454   4.645
19951W        W85112  33.076  14.020  13.791
19952W        W85113  42.444  20.266  12.859
19953W        W85114   5.769  22.011  12.973
19954W        W85115   9.275  33.998   2.161
19955W        W85116  25.593  28.892  12.422
19956W        W85117  21.493  21.064   0.304
19957W        W85118   3.325   5.862  10.291
19958W        W85119  12.285   5.944  14.026
19959W        W85120  38.452   9.926   4.591
19960W        W85121  30.163   8.379   1.238
19961W        W85122   6.063  36.549  12.134
19962W        W85123  32.483  36.453  14.266
19963W        W85124  17.052   8.474   2.836
19964W        W85125  31.592  18.159  13.864
19965W        W85126   3.906  43.019   2.242
19966W        W85127  40.802  11.901   2.592
19967W        W85128  15.623  23.216  11.855
19968W        W85129  25.615   7.674  14.417
19969W        W85130  30.444  22.580  10.668
19970W        W85131  41.113  28.560  11.955
19971W        W85132  30.675  42.688   1.011
19972W        W85133   6.439  35.838   4.636
19973W        W85134   7.622  17.830   5.011
19974W        W85135  16.234  29.664  11.088
19975W        W85136  39.256  37.574   0.822
19976W        W85137   7.632  20.146  12.477
19977W        W85138  23.403  34.401   2.756
19978W        W85139   2.939  10.216   1.042
19979W        W85140  32.231  16.687  10.505
19980W        W85141  42.446   4.360  12.132
19981W        W85142  24.749   8.165  10.604
19982W        W85143  31.228  38.531   4.013
19983W        W85144  37.696  39.090  10.192
19984W        W85145  24.408  20.268   0.704
19985W        W85146  14.241  17.265  12.180
19986W        W85147  44.303  41.655   3.264
19987W        W85148   2.301  36.419   0.643
19988W        W85149   6.781  44.721  14.603
19989W        W85150  44.831   8.974   5.132
19990W        W85151  16.751  25.479  12.526
19991W        W85152  38.378  14.667   4.535
19992W        W85153  20.099  22.645   2.863
19993W        W85154   8.640  21.608  14.421
19994W        W85155  22.146  33.261  11.629
19995W        W85156  22.524  36.484   4.084
19996W        W85157  44.330  36.829   2.291
19997W        W85158  27.680  10.198  13.277
19998W        W85159  19.747  13.241  12.193
19999W        W85160   6.290  34.380  10.862
20000W        W85161  15.324   7.696   1.307
20001W        W85162   0.666  23.867  10.060
20002W        W85163   2.876  37.340   2.773
20003W        W85164   9.878   3.344  10.595
20004W        W85165  35.863   1.738  10.330
20005W        W85166  17.275   6.283   0.217
20006W        W85167  35.888  34.046  13.129
20007W        W85168  23.663   4.206   0.701
20008W        W85169  39.225  22.209  14.380
20009W        W85170   3.519  21.213  11.106
20010W        W85171  11.164   4.526   0.189
20011W        W85172  31.156  29.547   3.616
20012W        W85173  24.303   3.526  14.926
20013W        W85174  34.178  18.648   0.300
20014W        W85175  44.990  25.646   2.174
20015W        W85176   8.701  10.592  12.959
20016W        W85177  41.001  27.775   4.082
20017W        W85178  16.576  23.102   4.372
20018W        W85179  18.055  41.854  12.096
20019W        W85180  33.400  35.111   4.753
20020W        W85181   9.320  17.345  13.140
20021W        W85182   4.211  34.497   1.534
20022W        W85183  25.560  42.187   3.636
20023W        W85184   5.776  34.343   4.097
20024W        W85185  34.463  25.897  12.902
20025W        W85186  41.726  44.814   2.476
20026W        W85187  20.763  37.082  14.410
20027W        W85188   5.868  20.550   3.349
20028W        W85189  30.473   3.752   1.181
20029W        W85190  41.553  31.692   2.836
20030W        W85191  26.657  17.312   0.743
20031W        W85192  41.055  23.286  11.061
20032W        W85193  11.357   4.615   4.581
20033W        W85194  35.126  26.089  12.395
20034W        W85195  14.676  24.721  13.364
20035W        W85196  36.939  32.681  13.853
20036W        W85197  23.561   1.283  13.385
20037W        W85198  14.734  14.236  13.172
20038W        W85199   5.720  24.516  13.464
20039W        W85200  44.937   3.343  12.346
20040W        W85201  14.228  43.514   1.451
20041W        W85202  22.728   0.903  13.504
20042W        W85203  29.420  36.832  13.463
20043W        W85204   9.675   1.055   4.909
20044W        W85205  15.294   5.233   2.582
20045W        W85206  22.948   3.056   3.638
20046W        W85207  40.428  25.425   4.323
20047W        W85208   3.073  15.705   1.865
20048W        W85209  13.842   8.849  10.962
20049W        W85210  24.909  14.650   2.366
20050W        W85211  41.385   7.033   2.213
20051W        W85212  13.693   4.969   2.318
20052W        W85213  31.939  15.673   3.025
20053W        W85214  17.038  40.979  12.598
20054W        W85215  40.521  33.501  10.487
20055W        W85216   1.250  11.651  14.795
20056W        W85217  16.365   6.694  11.462
20057W        W85218   9.938  25.727   3.726
20058W        W85219  31.465  26.525  12.949
20059W        W85220   0.895  20.696   4.122
20060W        W85221  17.861  33.018   0.897
20061W        W85222  28.276   1.721  13.344
20062W        W85223  40.457  20.768   2.664
20063W        W85224  24.899  32.600   4.160
20064W        W85225   4.290   9.613   4.535
20065W        W85226  35.078   5.754  12.414
20066W        W85227  34.266  28.985   3.616
20067W        W85228  33.649  27.943   4.329
20068W        W85229  16.030  14.829  13.512
20069W        W85230  35.867  38.042  11.038
20070W        W85231   7.213  19.635  12.793
20071W        W85232  22.960  33.497  14.717
20072W        W85233   8.135  43.628  13.983
20073W        W85234  42.487  25.362   0.699
20074W        W85235  30.123  36.455  11.745
20075W        W85236  37.582  24.700   0.819
20076W        W85237  37.736  19.454   3.716
20077W        W85238   6.758  17.769   1.141
20078W        W85239  11.681   5.798   3.665
20079W        W85240  31.831   7.355   1.878
20080W        W85241  11.075  30.730  14.748
20081W        W85242  41.051  31.211  10.712
20082W        W85243  13.565  21.072  11.591
20083W        W85244   4.669   3.597   4.996
20084W        W85245  26.452   4.683  11.107
20085W        W85246   8.293  44.959   3.006
20086W        W85247   9.931  36.579  14.796
20087W        W85248  14.456  44.841   1.036
20088W        W85249  27.758  10.985  13.774
20089W        W85250  42.055  38.730   1.841
20090W        W85251  44.182  15.800  13.011
20091W        W85252  17.183   5.011   0.453
20092W        W85253  11.229  15.723   3.667
20093W        W85254   3.467  25.663   1.233
20094W        W85255  19.321   8.702   2.783
20095W        W85256  17.303   6.149   0.913
20096W        W85257  43.324  39.630  13.386
20097W        W85258  34.565  15.182  13.058
20098W        W85259  31.917  12.720  12.463
20099W        W85260  15.325   1.982  12.957
20100W        W85261  18.155  25.705  12.016
20101W        W85262  22.183  18.573  10.465
20102W        W85263  27.550   8.115   2.845
20103W        W85264  17.360  33.842   3.193
20104W        W85265  39.986   9.868  11.864
20105W        W85266  12.419  21.086  14.458
20106W        W85267  34.371  14.264  12.608
20107W        W85268   5.931  35.983   0.807
20108W        W85269  27.062   7.434   4.218
20109W        W85270  38.097  34.901   4.062
20110W        W85271  27.644  28.698  11.633
20111W        W85272  43.787  24.749   4.663
20112W        W85273  43.886  30.598  11.544
20113W        W85274  35.587  28.394  11.678
20114W        W85275  44.963  14.815   0.271
20115W        W85276  10.814   0.177   0.822
20116W        W85277  30.637  37.339  10.305
20117W        W85278  28.059  43.605   3.685
20118W        W85279   7.147  33.890   0.352
20119W        W85280  40.814  27.506   0.220
20120W        W85281  44.968   8.363   4.353
20121W        W85282  32.963  37.308  10.793
20122W        W85283   8.245  44.755  11.777
20123W        W85284  33.675  33.510   9.785
20124W        W85285   8.048  18.871  12.915
20125W        W85286  22.660  40.230   0.428
20126W        W85287  37.814  21.031   3.969
20127W        W85288  13.055  24.093   2.480
20128W        W85289   4.703  44.237   4.682
20129W        W85290  25.654  27.595  13.830
20130W        W85291  41.382  32.981   1.699
20131W        W85292  39.239  11.705  13.612
20132W        W85293  43.858  38.991   3.773
20133W        W85294  39.237  36.909   1.424
20134W        W85295  10.099  19.152  10.904
20135W        W85296  16.178  16.629   1.377
20136W        W85297  43.440  38.589   1.923
20137W        W85298  18.017  16.948   3.500
20138W        W85299  22.295  23.712   2.310
20139W        W85300   0.487   9.891   9.801
20140W        W85301  41.890  16.548   1.382
20141W        W85302  27.021   0.213  14.986
20142W        W85303  11.466   6.893  12.199
20143W        W85304  32.551  33.421  13.139
20144W        W85305  18.219  30.325   0.492
20145W        W85306  44.012   4.445  11.509
20146W        W85307  38.620   4.804  14.284
20147W        W85308  10.031   1.706   4.066
20148W        W85309  12.040   1.489  12.901
20149W        W85310  17.303  21.317  14.882
20150W        W85311  31.156  34.378  12.896
20151W        W85312  20.732  35.240   2.794
20152W        W85313  16.314  11.264   0.422
20153W        W85314  14.551  33.915  13.022
20154W        W85315  18.274  22.999   4.054
20155W        W85316  44.435   5.514   4.526
20156W        W85317   1.458  17.792  12.198
20157W        W85318  35.842  30.815  10.971
20158W        W85319  19.239  24.670  13.425
20159W        W85320  38.366  21.189  13.832
20160W        W85321  23.746  14.923   0.304
20161W        W85322  27.663   0.513  14.552
20162W        W85323  34.324  42.821  14.313
20163W        W85324  12.900  11.903   3.638
20164W        W85325  12.136  29.896  13.772
20165W        W85326  20.230   4.811   0.724
20166W        W85327  42.239   7.275   0.663
20167W        W85328   6.955  35.874  10.977
20168W        W85329  29.976  16.387   1.701
20169W        W85330  16.309  21.156   2.748
20170W        W85331  16.368  35.304  10.527
20171W        W85332  32.998  42.886  12.895
20172W        W85333  42.979  33.531   1.244
20173W        W85334  12.314  32.901   2.696
20174W        W85335  28.699  23.108  13.174
20175W        W85336   1.375  21.514   3.689
20176W        W85337  16.250  14.125   0.204
20177W        W85338  15.135   0.158  12.051
20178W        W85339  43.079   1.937  11.651
20179W        W85340   2.851   3.271  11.136
20180W        W85341  19.040  23.080   3.782
20181W        W85342   0.329   1.373   1.350
20182W        W85343   1.896   1.291   2.335
20183W        W85344   5.339  34.304  10.741
20184W        W85345  28.513   7.339   4.597
20185W        W85346   7.908  34.070   2.336
20186W        W85347  16.181  19.708  14.544
20187W        W85348  31.444  33.217  14.897
20188W        W85349  26.106  22.688  10.986
20189W        W85350  35.285  23.007   1.833
20190W        W85351  16.271   8.310   2.248
20191W        W85352  38.443  32.515  12.905
20192W        W85353  17.516  29.557   0.785
20193W        W85354  35.487  39.356  14.186
20194W        W85355  43.775  25.952   3.333
20195W        W85356  23.755  15.413   0.172
20196W        W85357  22.478  12.915   3.920
20197W        W85358  17.400  40.210   2.669
20198W        W85359  20.798   3.748  14.316
20199W        W85360   0.787   0.028  11.390
20200W        W85361  30.184  19.376   0.338
20201W        W85362   7.837  16.809   0.076
20202W        W85363   1.385  16.616  10.653
20203W        W85364  17.906   3.737  10.722
20204W        W85365  27.242   4.234   0.912
20205W        W85366  20.067   9.845  11.415
20206W        W85367  12.769  41.037   4.345
20207W        W85368  10.107  25.095   3.266
20208W        W85369  11.231   6.054  12.067
20209W        W85370  28.134   8.233   4.541
20210W        W85371  26.566  40.786  14.267
20211W        W85372   6.868  27.594   3.505
20212W        W85373  11.752  21.572   4.384
20213W        W85374  28.593   8.525   3.220
20214W        W85375  14.087  33.104  10.645
20215W        W85376   4.708   1.780  11.259
20216W        W85377   6.590  42.217   2.390
20217W        W85378  35.093   8.740   1.360
20218W        W85379  20.616  30.056  14.738
20219W        W85380  16.595  36.669   2.266
20220W        W85381  23.431  16.043  12.945
20221W        W85382   2.817  36.689  12.029
20222W        W85383  25.752  21.837  14.365
20223W        W85384   5.298  19.778   0.192
20224W        W85385  43.067   8.820   1.311
20225W        W85386  36.910  40.386   2.794
20226W        W85387  42.860  40.899   3.093
20227W        W85388   2.009  32.400   1.324
20228W        W85389  29.505   9.715  10.457
20229W        W85390  42.412  23.682   4.544
20230W        W85391  20.513  25.784  11.988
20231W        W85392  30.137  40.155  12.415
20232W        W85393  36.466  35.327   4.431
20233W        W85394  21.546  40.265  11.552
20234W        W85395  13.901  11.316  11.221
20235W        W85396   7.768  27.806   4.174
20236W        W85397  28.062   4.471  12.595
20237W        W85398  40.840  11.197  13.991
20238W        W85399  10.366   4.436   2.714
20239W        W85400  15.749   7.212   3.573
20240W        W85401  24.861  28.248   3.206
20241W        W85402  40.250  41.717   1.332
20242W        W85403  19.404  26.142   3.192
20243W        W85404  30.170  26.732   4.166
20244W        W85405  24.559  35.162   3.606
20245W        W85406  38.055  17.014  13.058
20246W        W85407  38.379   2.973  13.835
20247W        W85408   8.819  40.697   1.939
20248W        W85409  25.746   3.802  12.389
20249W        W85410   8.952   3.471   5.070
20250W        W85411  28.461  31.164  12.630
20251W        W85412  32.436  17.708   0.766
20252W        W85413  37.986  32.912  12.512
20253W        W85414  43.764  13.695  13.969
20254W        W85415  21.641  31.945   2.786
20255W        W85416  19.197  35.494   1.456
20256W        W85417  44.206  26.074  11.480
20257W        W85418   5.094  12.307  11.024
20258W        W85419  26.222  36.029  10.701
20259W        W85420  13.921   3.754  14.463
20260W        W85421   1.919  36.994  13.888
20261W        W85422  27.104  40.586  13.945
20262W        W85423  13.723   5.243  11.299
20263W        W85424  20.134  21.444   1.271
20264W        W85425  39.894  30.143  14.224
20265W        W85426   7.462  42.329  12.614
20266W        W85427  29.997   5.145   0.753
20267W        W85428  42.436   0.223  14.079
20268W        W85429  19.620  42.603   1.312
20269W        W85430  41.990  23.167   4.225
20270W        W85431  15.974  14.338  13.369
20271W        W85432  14.621  44.315   1.206
20272W        W85433  35.111   0.037  14.870
20273W        W85434  20.885  29.462   3.255
20274W        W85435  28.316  33.598  11.065
20275W        W85436   9.604  37.945  14.463
20276W        W85437  27.612  37.627   1.687
20277W        W85438  37.314  14.869  11.609
20278W        W85439  34.009  33.083  11.881
20279W        W85440  30.734   1.028  14.954
20280W        W85441   4.355  26.390  13.978
20281W        W85442  40.731   3.284   0.130
20282W        W85443  33.330  40.395  13.624
20283W        W85444  21.648   6.395   4.217
20284W        W85445  29.544  37.315   3.186
20285W        W85446  13.329  13.884  11.240
20286W        W85447  17.648  21.695   1.833
20287W        W85448  23.607   9.689  12.840
20288W        W85449  32.486   0.457   4.815
20289W        W85450  40.984   8.635   0.996
20290W        W85451  42.822  10.091  11.711
20291W        W85452   2.516  12.871   1.407
20292W        W85453   4.202   5.938   3.194
20293W        W85454  13.761  43.792   1.746
20294W        W85455  29.616  30.494   4.540
20295W        W85456  11.200  24.602   2.380
20296W        W85457  18.048   5.399   2.640
20297W        W85458  39.530  43.410  10.886
20298W        W85459   1.577  23.278  11.911
20299W        W85460   0.542  35.485  12.675
20300W        W85461   7.317  25.431  13.458
20301W        W85462   4.369  20.271  12.079
20302W        W85463   9.764   3.231   0.818
20303W        W85464   1.505  27.968  12.493
20304W        W85465   7.235   7.374  10.590
20305W        W85466  44.428  16.647   0.163
20306W        W85467  31.080  16.624  12.937
20307W        W85468   5.824  36.319   4.236
20308W        W85469  34.855  27.216  12.328
20309W        W85470   6.032  19.101   3.576
20310W        W85471  12.562  10.633  14.103
20311W        W85472  16.965  25.001  13.443
20312W        W85473  36.993  12.355   4.109
20313W        W85474   2.488  28.091   4.956
20314W        W85475  15.693   3.544  10.616
20315W        W85476   2.645  44.061  12.873
20316W        W85477  34.353  18.303  11.934
20317W        W85478  28.602  44.894  14.787
20318W        W85479  15.385  21.786  14.572
20319W        W85480  12.768  11.040  10.529
20320W        W85481  40.816  37.399  11.587
20321W        W85482  33.442  30.719   0.507
20322W        W85483  36.495  30.888  13.988
20323W        W85484  33.623  22.953  12.054
20324W        W85485  27.479  32.487   4.698
20325W        W85486  24.760  23.222  11.561
20326W        W85487  16.096  20.009   1.383
20327W        W85488  21.752  22.756  13.939
20328W        W85489  32.514  14.750   0.866
20329W        W85490   3.245  32.687   1.815
20330W        W85491  20.585   8.181   3.642
20331W        W85492  43.170  26.729   2.485
20332W        W85493  38.495  42.286   1.699
20333W        W85494   1.590   1.688  10.660
20334W        W85495  37.547  29.739  11.167
20335W        W85496   1.009  14.465  10.402
20336W        W85497   5.892  17.139  11.941
20337W        W85498  20.195  31.974   0.486
20338W        W85499  37.384  32.103   2.915
20339W        W85500  19.348  31.216  13.723
20340W        W85501  20.963  33.176  11.438
20341W        W85502  32.211   5.432  12.070
20342W        W85503  16.657  18.123  12.658
20343W        W85504  31.344  40.964   1.921
20344W        W85505  31.427  21.212   2.683
20345W        W85506  27.959   8.600   0.887
20346W        W85507  31.431  25.036  13.173
20347W        W85508  15.059  10.218  14.411
20348W        W85509  40.754   7.606  13.271
20349W        W85510  17.141  39.669  12.788
20350W        W85511   3.303  44.369   0.735
20351W        W85512  22.156   5.829   0.338
20352W        W85513   7.147  37.922  10.622
20353W        W85514  36.976  15.695   1.240
20354W        W85515  42.252  20.791  14.357
20355W        W85516  15.150  11.910  12.902
20356W        W85517  12.541  40.387  11.554
20357W        W85518  20.142  19.645  12.813
20358W        W85519   0.541  20.135  14.472
20359W        W85520  20.273  31.483  11.560
20360W        W85521  24.352  43.437  11.580
20361W        W85522  25.696  34.342   1.755
20362W        W85523  12.795  42.348  12.897
20363W        W85524  20.310  16.571  14.511
20364W        W85525  43.299   7.851  12.853
20365W        W85526   1.908  15.548   2.774
20366W        W85527  44.751   2.660  10.713
20367W        W85528  41.304  12.913  10.938
20368W        W85529  18.716  21.727  11.081
20369W        W85530  24.064   3.285   0.330
20370W        W85531  23.155  35.051  14.877
20371W        W85532  16.531  24.757  13.230
20372W        W85533   5.730  17.080   1.736
20373W        W85534   7.646   7.123   2.265
20374W        W85535  40.974  22.005   0.752
20375W        W85536   5.817  31.548  11.144
20376W        W85537   8.305  11.390   0.408
20377W        W85538  15.593  25.975   1.265
20378W        W85539  18.077  23.570  13.857
20379W        W85540  16.325  24.156  14.484
20380W        W85541  34.087  39.496   1.605
20381W        W85542  36.156   4.248   0.505
20382W        W85543  28.126   8.257   2.088
20383W        W85544  14.788  24.108  11.989
20384W        W85545  20.179  29.222  12.799
20385W        W85546  39.365  21.627   1.053
20386W        W85547  34.071  23.016  13.032
20387W        W85548  32.833  13.525   4.139
20388W        W85549  18.972   4.689   4.140
20389W        W85550   4.767  12.137   0.912
20390W        W85551  29.492  27.207   2.629
20391W        W85552  20.294  28.336   5.031
20392W        W85553  24.231  36.519  12.992
20393W        W85554  19.866   9.142   1.099
20394W        W85555  28.470  23.761   0.708
20395W        W85556  21.704  10.463   3.338
20396W        W85557  12.816   9.422  11.606
20397W        W85558  43.830  14.149   0.194
20398W        W85559  43.286  30.895  13.196
20399W        W85560  41.853  25.280  10.895
20400W        W85561  37.988  29.881   4.790
20401W        W85562   1.154  41.447  14.472
20402W        W85563  19.006  25.674   2.373
20403W        W85564  42.120   8.890  14.725
20404W        W85565  19.191  29.123   4.790
20405W        W85566  31.074  15.148   1.156
20406W        W85567  15.846  33.921  14.969
20407W        W85568  38.766  35.956  11.228
20408W        W85569  43.546   5.265   3.650
20409W        W85570  16.764  15.056  12.150
20410W        W85571  43.139   9.679   1.017
20411W        W85572  12.821  11.915   4.542
20412W        W85573  33.583  17.696   1.168
20413W        W85574  34.268  32.581   3.213
20414W        W85575   9.800  21.738  14.817
20415W        W85576   4.297  40.435  11.564
20416W        W85577  28.446  43.081  11.057
20417W        W85578  34.227   0.916  12.971
20418W        W85579  10.217  14.729   3.890
20419W        W85580   9.207  10.915   0.298
20420W        W85581  42.850  22.727   1.005
20421W        W85582   5.419  38.490  12.080
20422W        W85583  42.508  29.979   0.408
20423W        W85584  26.823  31.412  12.447
20424W        W85585  17.003  17.245  12.290
20425W        W85586  31.005   8.304  12.393
20426W        W85587  39.831   5.903  12.374
20427W        W85588   8.672  22.009   1.308
20428W        W85589  44.003  26.638   1.289
20429W        W85590  41.787  35.931  12.032
20430W        W85591   5.294  10.596   0.290
20431W        W85592  27.850  12.762   3.214
20432W        W85593   8.364  37.405   1.420
20433W        W85594  19.703  41.216  11.429
20434W        W85595  13.063   9.720   2.219
20435W        W85596   4.855  44.924   3.140
20436W        W85597  39.214  19.104   3.492
20437W        W85598  39.974  18.589   4.235
20438W        W85599  42.993   7.281   5.052
20439W        W85600  19.739  36.303   3.659
20440W        W85601  26.192  42.997  10.709
20441W        W85602  10.319   7.480  12.176
20442W        W85603  26.680   6.728   1.486
20443W        W85604  31.189  25.138   2.350
20444W        W85605  16.077   1.544   2.155
20445W        W85606  39.945   1.190   2.574
20446W        W85607   8.733  11.876  11.719
20447W        W85608  32.055  15.525   3.603
20448W        W85609  28.105  44.302  10.786
20449W        W85610  39.028  32.241  10.039
20450W        W85611   1.271  23.929  12.518
20451W        W85612  25.797   6.402   4.772
20452W        W85613   5.347  16.747   0.285
20453W        W85614   3.685  21.265  13.863
20454W        W85615  17.369  20.163   3.678
20455W        W85616   1.951  13.072  13.348
20456W        W85617  29.523   2.391   0.473
20457W        W85618  25.682  34.077  12.355
20458W        W85619  16.081  30.571  11.073
20459W        W85620   6.078   7.375   4.957
20460W        W85621  44.943  37.850   1.144
20461W        W85622  44.830  40.028  14.921
20462W        W85623  31.196   5.166  14.458
20463W        W85624  23.283  14.527  14.460
20464W        W85625  11.309  22.251   2.351
20465W        W85626   8.137  38.571  13.250
20466W        W85627  35.429  10.757   3.913
20467W        W85628  24.932  27.178  11.507
20468W        W85629  13.788   2.418   4.629
20469W        W85630  15.598  22.027  11.075
20470W        W85631  26.505   8.628   1.856
20471W        W85632  39.526  41.056   2.306
20472W        W85633  39.051  43.719  13.420
20473W        W85634   7.126  28.195   2.894
20474W        W85635  40.792   0.642   0.400
20475W        W85636  23.995  12.467  12.501
20476W        W85637  35.398  43.816   0.291
20477W        W85638   7.752   1.562  14.994
20478W        W85639  16.585  19.197   3.302
20479W        W85640   6.917  37.481  10.823
20480W        W85641  33.609  37.748  10.717
20481W        W85642  14.583  36.546  14.000
20482W        W85643  27.487   8.696  12.957
20483W        W85644  31.632  11.081   3.724
20484W        W85645  39.126  36.067  14.830
20485W        W85646  19.720   9.797  10.997
20486W        W85647   0.341  28.052  10.561
20487W        W85648  16.161   8.227  13.829
20488W        W85649  17.488   4.305   2.103
20489W        W85650  10.138   6.033   3.318
20490W        W85651   2.891   7.677   3.297
20491W        W85652   9.303  44.750   1.668
20492W        W85653  15.875  24.146  10.965
20493W        W85654   9.229   5.426  11.451
20494W        W85655  36.218  27.582  12.555
20495W        W85656  17.222  21.413   3.725
20496W        W85657  32.118  41.327  12.487
20497W        W85658  37.884  19.164   2.853
20498W        W85659  41.152  10.236   4.130
20499W        W85660  19.020   0.418   2.320
20500W        W85661   5.499   5.259  11.206
20501W        W85662  16.366  31.374  12.498
20502W        W85663  38.936   3.251   3.480
20503W        W85664   0.179   7.157  13.036
20504W        W85665  28.431  21.280   1.152
20505W        W85666   1.338  28.069   0.832
20506W        W85667  40.159  17.390  13.814
20507W        W85668  17.052  10.904   0.147
20508W        W85669  16.288  16.745  13.524
20509W        W85670  10.685   5.044   9.839
20510W        W85671  25.935  36.010   4.514
20511W        W85672  40.566   9.315  14.850
20512W        W85673  15.476  28.154  14.505
20513W        W85674  23.537  21.216  14.380
20514W        W85675  29.044  38.462   4.854
20515W        W85676   5.009   5.216  11.043
20516W        W85677  42.326  34.620  14.987
20517W        W85678  33.975  33.054  12.382
20518W        W85679  34.520  29.210   1.773
20519W        W85680  20.862  17.334   0.690
20520W        W85681   3.167  36.743  11.452
20521W        W85682   7.980  10.669   1.844
20522W        W85683  27.132  18.028   0.276
20523W        W85684  44.796  17.036   3.727
20524W        W85685  44.697  35.393  11.636
20525W        W85686  16.292  13.338  14.227
20526W        W85687  33.123  40.045  11.886
20527W        W85688  22.629  15.643   0.014
20528W        W85689   2.330  39.233   1.617
20529W        W85690  36.817  36.998   1.759
20530W        W85691  22.494  14.711   9.471
20531W        W85692  38.230  12.002   0.969
20532W        W85693  22.547   6.439  13.894
20533W        W85694  38.410  16.523   1.291
20534W        W85695   9.009  34.051  11.068
20535W        W85696   7.029   9.719   1.991
20536W        W85697  22.608  40.031  11.591
20537W        W85698  44.737   3.845   4.145
20538W        W85699  42.322   8.185  13.000
20539W        W85700  44.710   7.118  11.979
20540W        W85701   4.172  16.289  12.992
20541W        W85702  43.715  27.035  10.447
20542W        W85703  40.502  18.945  12.590
20543W        W85704   7.490  43.766  11.141
20544W        W85705  33.569   3.443   1.666
20545W        W85706  18.174  29.408   1.616
20546W        W85707  36.098   3.494   2.604
20547W        W85708   8.161  11.840   3.733
20548W        W85709  37.309   7.753   3.220
20549W        W85710  18.708   9.359   0.402
20550W        W85711   7.243  44.990  11.932
20551W        W85712   6.947  25.224   2.360
20552W        W85713  22.871  43.975  12.819
20553W        W85714  22.636   3.229   1.944
20554W        W85715  22.775  16.666   4.201
20555W        W85716  24.152  24.706   0.908
20556W        W85717  28.950  43.975   4.137
20557W        W85718  13.187  31.089   4.558
20558W        W85719  25.772  39.041  12.091
20559W        W85720  20.203  38.345  13.246
20560W        W85721  42.335  38.398  11.695
20561W        W85722  22.420   5.733   3.248
20562W        W85723  40.231  35.773  12.000
20563W        W85724  43.274  21.176   3.729
20564W        W85725  24.433   9.431  11.745
20565W        W85726  43.909  34.137  14.064
20566W        W85727   2.786  19.704  12.867
20567W        W85728  29.947  35.057  12.305
20568W        W85729  10.525  11.846   2.704
20569W        W85730  22.343  41.681  12.205
20570W        W85731  39.539   9.840  10.598
20571W        W85732  42.617  31.761  13.132
20572W        W85733  16.121   6.354   4.889
20573W        W85734   2.324   2.040   4.087
20574W        W85735  11.195   5.393   0.340
20575W        W85736  42.349   1.759   0.790
20576W        W85737  33.002  31.995   4.202
20577W        W85738  19.657  10.631   3.915
20578W        W85739  34.325  42.301   2.200
20579W        W85740  17.192  25.513   1.765
20580W        W85741  38.927  40.044   4.356
20581W        W85742   4.517   7.680  11.119
20582W        W85743   0.986  41.571  12.540
20583W        W85744   3.433  23.371  13.575
20584W        W85745  34.507  42.927  14.916
20585W        W85746  35.686   2.247  13.462
20586W        W85747  29.356  17.283   1.137
20587W        W85748   3.669   9.707   2.891
20588W        W85749  32.940  22.099   2.331
20589W        W85750  23.937  13.944   2.311
20590W        W85751  21.185  12.906  11.646
20591W        W85752   3.645  17.076  12.951
20592W        W85753  43.326  30.181  14.409
20593W        W85754  43.547  30.544  12.903
20594W        W85755   6.888  14.619  14.727
20595W        W85756  19.236  38.913  11.466
20596W        W85757  20.480  22.090   9.708
20597W        W85758   8.079  17.624   3.041
20598W        W85759   4.686  19.358  10.765
20599W        W85760  44.359  21.881   0.455
20600W        W85761  17.371  22.414  13.111
20601W        W85762  22.573  38.312   4.138
20602W        W85763  39.573  31.622   0.493
20603W        W85764  39.873  42.525   0.732
20604W        W85765  28.015  23.203   4.581
20605W        W85766  28.148  20.023  14.059
20606W        W85767   2.194  42.969   1.362
20607W        W85768  21.393   0.444   0.443
20608W        W85769  23.511  36.431  10.627
20609W        W85770  19.679   7.355   0.787
20610W        W85771  34.130   5.719   2.147
20611W        W85772  21.007   5.149   3.297
20612W        W85773  19.571  13.048   0.686
20613W        W85774  38.934  24.948   3.216
20614W        W85775  21.990  42.415  14.043
20615W        W85776  44.254   4.932   4.515
20616W        W85777  39.102  34.632  13.118
20617W        W85778   6.277  34.486   1.188
20618W        W85779  11.336  29.628  12.405
20619W        W85780  10.614   7.322   2.808
20620W        W85781  37.255  38.266   5.222
20621W        W85782  22.579   3.870  14.501
20622W        W85783   2.401  14.631  11.909
20623W        W85784  38.069  38.427   3.112
20624W        W85785   1.278   5.428  11.966
20625W        W85786  24.711  24.612  12.618
20626W        W85787  35.531  41.278  12.086
20627W        W85788  16.297  22.707  14.489
20628W        W85789   1.318  29.959   0.942
20629W        W85790  13.625   4.241  10.963
20630W        W85791  12.596  12.278  12.093
20631W        W85792   2.326  41.104   3.632
20632W        W85793  24.506  37.386   1.848
20633W        W85794  13.145  12.808  13.563
20634W        W85795   5.233  12.417  11.523
20635W        W85796   0.604  36.006  12.481
20636W        W85797  42.074  35.470  14.805
20637W        W85798  12.262  36.834   0.460
20638W        W85799  38.450  26.110  13.828
20639W        W85800  41.530  24.711   0.076
20640W        W85801  10.039  37.860   2.370
20641W        W85802  24.711   4.034  12.365
20642W        W85803  35.355  34.419   4.172
20643W        W85804  27.459  40.009   0.457
20644W        W85805  16.239  18.716   0.164
20645W        W85806  19.389  31.078  11.514
20646W        W85807  40.814   0.980  14.987
20647W        W85808  30.624   4.258   1.705
20648W        W85809  14.643  21.392   1.919
20649W        W85810  25.253  34.874   3.609
20650W        W85811   9.582  23.267  13.102
20651W        W85812  37.442  38.365  10.976
20652W        W85813  32.584  42.303   2.785
20653W        W85814  35.345  44.863  10.758
20654W        W85815   1.873  23.649  11.663
20655W        W85816  29.530   1.359  12.450
20656W        W85817   0.685  20.663   0.222
20657W        W85818  31.185  24.073   3.676
20658W        W85819   1.853  25.031  10.969
20659W        W85820  29.631  44.892   3.356
20660W        W85821  15.173   4.217  13.462
20661W        W85822  34.081  29.880  11.112
20662W        W85823  25.914   9.264  12.907
20663W        W85824  18.959  33.695   3.280
20664W        W85825  29.213  11.971   3.225
20665W        W85826  34.469   8.136   0.298
20666W        W85827  35.627  31.900   4.436
20667W        W85828   8.974  12.584  11.162
20668W        W85829  35.240  38.232   5.199
20669W        W85830  21.722   9.857   2.783
20670W        W85831  23.531  42.308  11.279
20671W        W85832   9.113  14.546   1.405
20672W        W85833   5.017  16.067  12.098
20673W        W85834  37.020  26.961   0.465
20674W        W85835  42.457  34.451   3.574
20675W        W85836  15.733  23.536  14.688
20676W        W85837  41.776  20.673   1.219
20677W        W85838  34.062  23.793   2.590
20678W        W85839  33.163  38.295  12.433
20679W        W85840  37.464  41.487  10.745
20680W        W85841   1.922  44.869  13.408
20681W        W85842  19.559  28.409   2.630
20682W        W85843  33.474  28.980  12.590
20683W        W85844  43.891  41.724  12.867
20684W        W85845   4.791  29.136   3.589
20685W        W85846  17.871  33.979   3.277
20686W        W85847  25.780  16.031  10.697
20687W        W85848  11.849   1.350  10.724
20688W        W85849  35.899  28.270  11.165
20689W        W85850  25.258  16.271   3.928
20690W        W85851  28.663  21.710   3.884
20691W        W85852  13.388   7.844   1.235
20692W        W85853  11.844  27.897  14.763
20693W        W85854  41.641  35.718   1.978
20694W        W85855  39.300  39.421   1.319
20695W        W85856  11.114   4.067   3.909
20696W        W85857  20.266  42.830   0.555
20697W        W85858  25.085  12.150   0.723
20698W        W85859  29.260  19.062   4.670
20699W        W85860  12.659  41.527   5.060
20700W        W85861   1.711   6.854   3.253
20701W        W85862  28.967  35.523  12.912
20702W        W85863  10.396  12.728  14.601
20703W        W85864  38.529  16.484  12.766
20704W        W85865  31.751  27.711   3.235
20705W        W85866  19.565   4.771   0.271
20706W        W85867  11.863  31.921  11.150
20707W        W85868   5.697  20.154  12.780
20708W        W85869  14.856  25.210   0.006
20709W        W85870  33.607  35.494  13.165
20710W        W85871  26.767   1.171   9.760
20711W        W85872  26.711   3.484   0.198
20712W        W85873  24.724   5.951   1.357
20713W        W85874  32.050  29.390  13.149
20714W        W85875   2.906  17.662   5.057
20715W        W85876  20.463   8.857   0.233
20716W        W85877  19.222  17.336  10.717
20717W        W85878   5.736   5.159   1.343
20718W        W85879  32.085  12.146  10.305
20719W        W85880  35.060  18.647  10.489
20720W        W85881  44.728  18.559  12.512
20721W        W85882  25.710   1.691  13.942
20722W        W85883  39.515  13.199  12.969
20723W        W85884  41.364   7.357  11.650
20724W        W85885  35.484   2.889  12.188
20725W        W85886  18.151  30.611   1.860
20726W        W85887  42.591  19.646   3.103
20727W        W85888  37.341  41.552  14.657
20728W        W85889   0.894  41.605  14.026
20729W        W85890  44.267  15.624   1.049
20730W        W85891  11.795   6.349  13.164
20731W        W85892  32.473   2.343   3.391
20732W        W85893  23.627  11.206   4.205
20733W        W85894  43.320  22.111  12.360
20734W        W85895  14.068  18.166   1.877
20735W        W85896  43.388  28.599  11.607
20736W        W85897   1.373   5.222   1.264
20737W        W85898  44.407  38.021   3.978
20738W        W85899  28.193   9.854   2.446
20739W        W85900  30.933  24.618   1.718
20740W        W85901  32.352  43.968  10.924
20741W        W85902  42.208  24.093  14.843
20742W        W85903  38.388   2.230  13.489
20743W        W85904  44.681  16.655  12.956
20744W        W85905  28.578  36.040  13.509
20745W        W85906  12.529  35.662   4.089
20746W        W85907   1.030  31.854  10.933
20747W        W85908   5.721   6.275   2.734
20748W        W85909  40.309  13.714  14.866
20749W        W85910  22.723   4.241  13.279
20750W        W85911  14.400  41.964  14.603
20751W        W85912  25.046  20.814  13.971
20752W        W85913  35.731  24.649   3.132
20753W        W85914  18.125  44.004   0.840
20754W        W85915   3.937  28.273   4.531
20755W        W85916  27.018  16.688   3.639
20756W        W85917  20.890  44.366  12.897
20757W        W85918  34.364  31.416   2.791
20758W        W85919  13.766  43.939  14.236
20759W        W85920  16.020   7.450   3.159
20760W        W85921  11.793  16.651  13.552
20761W        W85922  44.900   8.138   3.367
20762W        W85923  32.925   7.018  11.129
20763W        W85924  28.576  37.279   1.351
20764W        W85925  31.093   7.440   1.168
20765W        W85926   3.884  13.083   1.225
20766W        W85927  27.270  29.954   0.307
20767W        W85928  13.443  18.522  12.727
20768W        W85929  23.340  44.800  12.516
20769W        W85930  44.073  31.540   1.458
20770W        W85931  33.459  19.855  13.156
20771W        W85932   7.407  26.132  13.470
20772W        W85933  28.976   3.234  12.929
20773W        W85934   0.421  34.057  11.724
20774W        W85935  15.939  18.713   4.621
20775W        W85936  27.113  44.771  12.477
20776W        W85937   4.013  22.790   2.799
20777W        W85938  37.629  26.694   1.015
20778W        W85939  33.677  17.254  11.149
20779W        W85940  10.266  42.900  13.275
20780W        W85941  33.841  43.010  12.319
20781W        W85942   6.723  24.749  13.414
20782W        W85943  30.090  29.955   3.096
20783W        W85944   4.900  18.481  12.945
20784W        W85945  11.317  42.362  13.892
20785W        W85946  42.364   4.548   1.678
20786W        W85947  40.784  27.673  11.995
20787W        W85948  20.558   8.392   0.011
20788W        W85949   2.292  18.356  11.502
20789W        W85950   5.899   8.866   2.460
20790W        W85951  17.478   1.949  11.000
20791W        W85952  40.384  10.041   2.736
20792W        W85953  13.430  14.215  13.833
20793W        W85954  19.135  38.079   2.755
20794W        W85955  41.289   1.013   2.943
20795W        W85956  44.644  36.487  11.560
20796W        W85957  38.987  16.251   1.372
20797W        W85958  44.410   7.292  14.784
20798W        W85959  18.829  43.926  12.538
20799W        W85960  26.265  10.271  14.061
20800W        W85961   1.058  12.330  13.276
20801W        W85962  15.091  16.687  11.073
20802W        W85963   1.228  44.347  10.418
20803W        W85964  29.671  31.091  13.544
20804W        W85965  30.006  16.686   1.257
20805W        W85966   9.890  33.159   4.571
20806W        W85967  23.566  25.228   4.206
20807W        W85968   1.680  10.771   4.676
20808W        W85969  24.520   5.369   1.784
20809W        W85970  15.014  37.850  14.400
20810W        W85971   7.333  38.015   4.029
20811W        W85972  36.702   0.291  11.503
20812W        W85973  30.071  36.397  14.531
20813W        W85974  44.315   6.043  12.697
20814W        W85975  43.064  35.838   2.514
20815W        W85976   3.409  27.118  14.356
20816W        W85977  15.300  37.279   0.752
20817W        W85978   3.780  30.825  13.325
20818W        W85979  41.296  18.449   2.181
20819W        W85980   1.463  38.625  13.918
20820W        W85981  18.631   5.649   3.603
20821W        W85982  13.878   7.455  10.989
20822W        W85983   1.933  31.897   0.435
20823W        W85984  24.561  17.151  12.941
20824W        W85985  11.876  37.804   4.518
20825W        W85986  28.178  12.256   0.290
20826W        W85987   6.075  30.119   3.648
20827W        W85988  25.188  15.703   0.821
20828W        W85989   1.495  33.337  12.011
20829W        W85990  13.854  28.414  12.495
20830W        W85991  40.259  10.737  11.439
20831W        W85992  27.304   1.782  12.590
20832W        W85993  12.636  42.353  13.887
20833W        W85994   7.168  37.574   4.305
20834W        W85995  12.418  39.757   3.139
20835W        W85996  35.558  24.126   3.235
20836W        W85997  37.485  34.170   2.721
20837W        W85998  40.505  35.858   5.055
20838W        W85999  20.244  27.449  10.639
20839W        W86000  13.215  26.370  12.953
20840W        W86001  12.563  34.177  13.332
20841W        W86002  17.260  21.740   4.123
20842W        W86003  32.196  40.345  14.427
20843W        W86004  17.008  25.326   4.156
20844W        W86005   5.621  28.222   5.083
20845W        W86006  28.342  26.481   5.190
20846W        W86007  43.081  23.801  11.953
20847W        W86008  17.038  42.331  14.360
20848W        W86009  17.619  41.783  14.505
20849W        W86010  11.189  20.096  14.905
20850W        W86011   1.742  40.035   0.469
20851W        W86012  23.167   7.268  14.472
20852W        W86013  22.207   4.527  10.342
20853W        W86014   9.736  27.008   4.389
20854W        W86015   8.138  17.853   0.826
20855W        W86016  38.917  40.973   0.324
20856W        W86017   4.285  11.167  13.005
20857W        W86018  10.875  17.664   4.754
20858W        W86019  34.883  25.375   2.003
20859W        W86020   4.201  31.177   0.969
20860W        W86021  22.528  12.255  13.031
20861W        W86022  18.177  43.751  11.814
20862W        W86023   4.508   3.683  11.530
20863W        W86024   4.211  36.953  13.360
20864W        W86025   7.797  19.749  14.222
20865W        W86026  15.543  42.494   4.307
20866W        W86027  35.747  15.795  13.347
20867W        W86028  26.022   0.017  14.884
20868W        W86029  17.363  31.345  12.284
20869W        W86030   7.854  42.582  11.628
20870W        W86031  11.392  21.253  14.362
20871W        W86032  33.844  32.119   2.760
20872W        W86033  21.267  12.787   4.789
20873W        W86034  19.855  40.477   0.427
20874W        W86035  10.237   2.850   4.553
20875W        W86036  10.876  37.113   4.182
20876W        W86037  14.461  20.699   4.492
20877W        W86038  14.900   1.796  11.939
20878W        W86039  38.442   2.746   0.011
20879W        W86040  32.406  33.999   4.197
20880W        W86041   7.886   0.763  11.144
20881W        W86042  15.313  15.524   2.498
20882W        W86043   2.277  33.893  13.395
20883W        W86044   9.727   5.258  14.796
20884W        W86045   7.470   6.440   0.399
20885W        W86046   0.057  17.145  10.643
20886W        W86047  23.900  37.570   0.659
20887W        W86048   8.854  23.156   0.693
20888W        W86049  32.033   4.510   4.179
20889W        W86050  14.013  30.956   0.141
20890W        W86051  42.563  35.130  12.673
20891W        W86052  44.981  27.592   0.984
20892W        W86053  15.576  27.305   1.899
20893W        W86054  16.922  44.219   0.327
20894W        W86055   0.298  32.157   4.569
20895W        W86056  17.239  10.410   1.495
20896W        W86057   2.982  37.501   4.114
20897W        W86058  17.561   3.155  11.546
20898W        W86059  25.083  36.751   9.804
20899W        W86060  41.283   2.241   1.717
20900W        W86061  36.621  14.212   2.825
20901W        W86062   4.369  29.174  14.888
20902W        W86063   1.010  31.057   0.837
20903W        W86064  35.989  19.237  12.850
20904W        W86065  18.579  29.107  12.999
20905W        W86066  27.457  20.080  11.673
20906W        W86067  22.028  26.289  13.081
20907W        W86068  15.643   3.198  14.909
20908W        W86069  32.127  28.580  11.047
20909W        W86070  16.218  36.420   3.304
20910W        W86071  30.096  43.718  10.737
20911W        W86072   6.326  18.095   4.705
20912W        W86073  11.307  18.013  10.671
20913W        W86074   0.356  23.436   2.812
20914W        W86075  43.494   9.243   2.397
20915W        W86076   8.721  42.620  11.013
20916W        W86077  12.842  27.211   4.277
20917W        W86078  35.788  22.616  11.239
20918W        W86079  25.525  23.962  13.140
20919W        W86080  32.237  36.467  11.581
20920W        W86081  29.961  40.340  13.861
20921W        W86082  40.101  12.369  14.037
20922W        W86083  35.340  40.994   4.596
20923W        W86084  42.820  14.189   4.252
20924W        W86085  38.620   1.079  11.730
20925W        W86086  24.146  29.092  11.439
20926W        W86087  17.289  30.552  13.358
20927W        W86088  16.601  16.053   9.937
20928W        W86089  44.854  35.693   2.802
20929W        W86090   9.895   9.648  12.068
20930W        W86091   8.424  28.935   1.863
20931W        W86092  21.405  42.518   3.269
20932W        W86093  16.083  38.471   2.266
20933W        W86094   5.241  29.166   3.813
20934W        W86095  19.135   7.423   2.187
20935W        W86096  27.927  37.103  10.794
20936W        W86097  10.384  42.764  12.472
20937W        W86098  19.065  28.497  12.501
20938W        W86099  35.330  38.283   2.256
20939W        W86100  26.082  14.562   2.912
20940W        W86101  21.926  42.741   4.960
20941W        W86102  41.508  17.577   0.184
20942W        W86103  36.948  31.874  11.069
20943W        W86104  34.470  41.233   3.181
20944W        W86105  18.518  29.927   3.147
20945W        W86106  22.689  44.503  12.040
20946W        W86107  41.956  28.634   0.986
20947W        W86108  21.206  15.782   4.328
20948W        W86109  37.253  13.380  10.660
20949W        W86110  14.412   2.926   0.753
20950W        W86111  44.685  39.099   0.066
20951W        W86112  34.544  35.864  11.557
20952W        W86113  18.102  38.483   2.121
20953W        W86114  37.518  28.096   2.125
20954W        W86115  28.375  29.062  11.188
20955W        W86116  28.501   3.851   2.160
20956W        W86117  17.032  30.353   1.446
20957W        W86118   8.046  33.533   4.426
20958W        W86119   6.934  14.696   2.729
20959W        W86120  25.935   6.293   1.724
20960W        W86121  12.409  30.017  12.914
20961W        W86122   1.916  34.190   3.165
20962W        W86123  35.484   5.012   0.417
20963W        W86124  30.813  37.588   4.822
20964W        W86125  20.288  31.580   0.837
20965W        W86126  37.483  11.040   1.893
20966W        W86127  31.372  39.817  14.897
20967W        W86128  32.088  44.145   4.270
20968W        W86129  31.497   6.717   4.697
20969W        W86130  11.337  40.859  13.434
20970W        W86131   8.741  38.389  11.359
20971W        W86132  18.668  13.366   1.032
20972W        W86133  38.421  32.547   2.592
20973W        W86134   6.430  11.643   4.196
20974W        W86135  30.964  29.090   2.848
20975W        W86136  31.921  28.207   0.350
20976W        W86137   5.236  32.238  10.692
20977W        W86138  20.668  39.935  14.600
20978W        W86139  41.539  17.772   1.347
20979W        W86140   2.452  32.039  13.015
20980W        W86141  12.591   1.718   2.209
20981W        W86142  25.446   6.823   4.167
20982W        W86143  34.798  35.280  13.775
20983W        W86144  37.125  15.621  12.014
20984W        W86145   6.851   2.728  12.338
20985W        W86146  41.577   3.946   2.713
20986W        W86147  27.160  43.513   2.159
20987W        W86148  25.172  32.045  10.914
20988W        W86149   2.853  14.068  14.441
20989W        W86150  28.120  12.278   1.695
20990W        W86151  15.260  16.332  14.453
20991W        W86152   9.754  32.517  11.420
20992W        W86153  39.258  35.714   1.882
20993W        W86154  12.674  17.556  13.533
20994W        W86155  30.163  16.053  11.203
20995W        W86156   1.850  18.712   4.645
20996W        W86157  22.447  43.073   1.702
20997W        W86158   0.512   7.304  11.683
20998W        W86159   5.877  13.890   4.944
20999W        W86160  11.773  44.062  10.745
21000W        W86161   8.967  17.522   3.383
21001W        W86162   6.867  20.798   1.367
21002W        W86163  42.849  39.001  13.149
21003W        W86164   3.238  31.231   5.005
21004W        W86165  37.554  43.625   2.638
21005W        W86166  15.672  17.032  14.106
21006W        W86167  14.635  18.675   0.700
21007W        W86168  14.594  10.357  13.547
21008W        W86169   3.701   9.460   3.343
21009W        W86170   6.760  30.278  11.263
21010W        W86171   8.505  23.430   0.420
21011W        W86172  30.034  10.101   4.375
21012W        W86173  25.902  35.470  13.987
21013W        W86174  10.411  34.560  14.938
21014W        W86175  21.637  39.031   3.339
21015W        W86176  32.549   3.174   0.790
21016W        W86177  37.044   3.738   1.716
21017W        W86178  12.933  36.448  12.445
21018W        W86179  13.339  11.695  14.945
21019W        W86180  25.866   0.561   2.480
21020W        W86181  37.016   9.415  12.040
21021W        W86182  34.990  37.733  10.668
21022W        W86183  30.578  43.670   4.209
21023W        W86184  41.995  18.235  11.103
21024W        W86185  38.136  21.172   3.599
21025W        W86186  16.199  11.812   3.854
21026W        W86187  11.447  39.061  11.136
21027W        W86188  42.368  22.676   1.652
21028W        W86189  35.739  38.344   5.052
21029W        W86190  20.314  23.743   1.945
21030W        W86191  14.204   5.005   4.750
21031W        W86192   6.445  23.811  12.304
21032W        W86193  41.352  39.843   9.452
21033W        W86194  29.827   3.065   0.613
21034W        W86195   3.111  27.931   4.228
21035W        W86196  39.081  18.367   9.989
21036W        W86197   6.797  35.802   2.665
21037W        W86198  28.025   9.406   3.714
21038W        W86199  42.781  16.373   2.224
21039W        W86200   3.289  19.187  13.288
21040W        W86201  24.246   0.777   1.646
21041W        W86202  40.382  36.830  12.084
21042W        W86203  27.771  30.838  14.528
21043W        W86204  14.186  30.560  13.973
21044W        W86205   2.466  35.789   0.712
21045W        W86206  21.590   1.090   3.332
21046W        W86207  29.599  22.274  11.992
21047W        W86208  14.706  26.939  11.226
21048W        W86209   5.895  31.855  14.883
21049W        W86210   4.238  22.017   4.685
21050W        W86211  14.894  19.739  14.843
21051W        W86212  39.389  31.154   2.373
21052W        W86213  39.821   2.381   1.755
21053W        W86214  12.699  39.704   3.583
21054W        W86215  14.499  23.796   2.358
21055W        W86216  26.207  34.877  12.459
21056W        W86217  44.942  13.820   0.668
21057W        W86218  40.927  43.783  14.510
21058W        W86219   9.956  13.342  11.985
21059W        W86220   1.250  31.882   4.137
21060W        W86221  44.953   6.257   4.553
21061W        W86222  20.091   2.280  11.930
21062W        W86223   2.813  17.128  10.170
21063W        W86224  37.556   5.659   2.782
21064W        W86225   3.406  38.518   3.784
21065W        W86226  20.692  13.171  10.513
21066W        W86227  40.784  14.283   1.205
21067W        W86228  31.490  20.941  14.394
21068W        W86229   1.984  26.203   2.337
21069W        W86230  30.089  36.880  14.758
21070W        W86231  35.823  42.617   1.186
21071W        W86232   2.352   8.790   5.067
21072W        W86233  11.445  11.032  11.954
21073W        W86234  36.415  12.206  13.460
21074W        W86235   6.929   6.746  13.348
21075W        W86236  22.188  39.478  12.192
21076W        W86237  39.411  38.088  11.399
21077W        W86238   9.388  39.799  11.164
21078W        W86239  16.551  44.564   2.394
21079W        W86240  16.747  40.541   1.917
21080W        W86241  10.614  43.412   3.608
21081W        W86242  35.768  30.882   1.250
21082W        W86243  33.537  22.959   1.026
21083W        W86244  19.178   1.951   1.301
21084W        W86245  22.090  12.135  13.294
21085W        W86246  40.886  20.737  14.523
21086W        W86247   9.387  41.825   5.249
21087W        W86248  17.081  28.099   2.639
21088W        W86249  11.887   0.045  13.078
21089W        W86250  28.882  43.357  11.091
21090W        W86251  20.758  28.112   1.285
21091W        W86252   1.588  32.388  13.897
21092W        W86253  22.588  14.881   1.398
21093W        W86254  29.083  29.998   4.879
21094W        W86255  36.830  44.215   3.607
21095W        W86256   1.968   4.994  13.363
21096W        W86257  29.563  22.686   0.262
21097W        W86258  24.672   8.580   4.164
21098W        W86259  13.781  27.608  13.925
21099W        W86260  37.567  25.035   3.212
21100W        W86261   4.694  36.398   3.287
21101W        W86262  38.532  33.889   0.790
21102W        W86263  40.072  29.062   4.207
21103W        W86264  32.567  19.856  12.034
21104W        W86265  20.996  22.934   0.660
21105W        W86266  17.182  16.285  13.451
21106W        W86267   1.707  30.014  11.000
21107W        W86268  15.855  20.300   1.749
21108W        W86269  32.219   8.163  12.668
21109W        W86270  13.299  33.408  11.013
21110W        W86271   9.889  24.578  10.446
21111W        W86272   1.834  25.223   3.045
21112W        W86273  22.174  12.800   4.613
21113W        W86274  29.394  28.483  12.067
21114W        W86275  43.086  41.719   4.268
21115W        W86276   6.914  17.344   4.466
21116W        W86277  20.455  29.115  14.597
21117W        W86278  38.449   1.982   1.756
21118W        W86279  34.465  33.701  12.059
21119W        W86280  37.838  35.973  14.969
21120W        W86281  28.353  14.065   2.302
21121W        W86282  15.415   8.691  14.799
21122W        W86283   8.354  36.070   0.563
21123W        W86284   7.978   9.263   0.355
21124W        W86285   4.416  22.135   1.666
21125W        W86286   2.903   2.765  11.263
21126W        W86287   0.240  29.096  14.475
21127W        W86288  31.943  38.934  14.734
21128W        W86289  19.824  34.189  11.587
21129W        W86290  27.256   3.964  11.563
21130W        W86291  15.811  35.011   1.684
21131W        W86292   9.966  34.454   0.131
21132W        W86293   6.667   3.652  14.441
21133W        W86294  26.473  40.814   0.388
21134W        W86295   4.386  16.278   4.443
21135W        W86296   2.334   8.194   0.483
21136W        W86297  28.210  39.859   1.245
21137W        W86298  14.205  41.264   0.246
21138W        W86299  43.435   9.169   2.926
21139W        W86300   5.500  36.715   4.173
21140W        W86301  33.569  40.864   3.708
21141W        W86302  29.455  44.754   2.857
21142W        W86303  38.239  34.994   2.619
21143W        W86304   9.470   7.865  14.920
21144W        W86305  41.521  16.780   4.092
21145W        W86306   2.257  10.166   3.804
21146W        W86307  24.683   7.458   0.341
21147W        W86308  19.590   5.993  13.779
21148W        W86309  18.302  15.748  14.047
21149W        W86310   0.791  22.453   1.809
21150W        W86311  15.244  18.113  14.774
21151W        W86312   2.420   1.011   0.929
21152W        W86313  31.898  14.604  14.838
21153W        W86314  36.422   7.975   1.706
21154W        W86315  25.416   5.032  11.074
21155W        W86316  32.562  34.474   0.915
21156W        W86317   5.787  44.015  11.656
21157W        W86318  16.165  10.773  12.456
21158W        W86319   3.820  17.619  10.702
21159W        W86320  38.483  18.066   1.307
21160W        W86321  26.764  11.783  14.540
21161W        W86322  33.820  33.013  14.982
21162W        W86323   7.849   3.668  11.938
21163W        W86324  23.009  11.915   5.026
21164W        W86325  42.825  10.810  13.323
21165W        W86326  40.568  33.794   3.754
21166W        W86327  40.235  10.144  10.347
21167W        W86328  20.557   8.835   1.145
21168W        W86329  14.531   2.166  10.571
21169W        W86330  11.193  11.564   3.159
21170W        W86331   5.607  31.790  12.911
21171W        W86332  38.463  23.098   3.155
21172W        W86333  19.082   9.355   4.846
21173W        W86334  41.002  40.776   0.477
21174W        W86335   1.319  39.272  11.516
21175W        W86336  40.012  26.333   4.574
21176W        W86337  25.452  28.933  14.988
21177W        W86338   0.002  32.617   0.710
21178W        W86339  43.598  43.315  13.841
21179W        W86340  32.674  15.239  12.531
21180W        W86341   1.592  18.397  10.986
21181W        W86342  44.992  22.489  14.936
21182W        W86343  31.400   5.411   1.851
21183W        W86344  44.894   5.347   4.098
21184W        W86345  34.511  21.231   3.090
21185W        W86346  14.640  14.231  11.605
21186W        W86347  30.310  10.004  12.887
21187W        W86348  13.282  22.204  13.840
21188W        W86349  20.752  33.810  11.690
21189W        W86350   6.712   8.357  12.908
21190W        W86351  43.013  16.271   1.293
21191W        W86352  30.395  41.934   0.280
21192W        W86353   5.988  11.244   4.216
21193W        W86354  27.265  40.928  14.994
21194W        W86355  18.805  21.166  11.548
21195W        W86356  44.533  25.205  14.928
21196W        W86357  43.061  20.978  12.835
21197W        W86358  16.606  20.046  12.116
21198W        W86359  34.480  36.644   0.796
21199W        W86360  31.711  23.452   2.127
21200W        W86361  21.950  24.931  11.208
21201W        W86362  40.888  31.144   3.803
21202W        W86363  33.567  17.573  14.824
21203W        W86364  16.766  13.096   0.597
21204W        W86365  32.515  16.647  14.109
21205W        W86366  25.555  27.753  13.355
21206W        W86367  42.927  25.076   0.781
21207W        W86368  12.779  26.885  14.838
21208W        W86369   2.125   3.011  13.270
21209W        W86370   6.093   2.347   1.798
21210W        W86371  12.880   3.786   1.718
21211W        W86372  27.737  19.748  11.943
21212W        W86373  16.650  15.184   3.164
21213W        W86374  24.443  17.056   0.272
21214W        W86375   2.377   1.536   2.289
21215W        W86376   6.749   0.653  10.768
21216W        W86377   3.543  41.072   1.402
21217W        W86378  39.767  35.326   1.395
21218W        W86379   9.360  27.249   4.642
21219W        W86380  27.616  13.470  12.447
21220W        W86381  15.643  33.046  13.645
21221W        W86382  40.724  41.580  11.642
21222W        W86383  14.123   9.412   1.334
21223W        W86384  33.329  14.395  14.089
21224W        W86385  14.758  33.153  11.158
21225W        W86386  19.140  25.680   3.216
21226W        W86387  10.935  36.927   0.869
21227W        W86388  41.778   7.652  13.516
21228W        W86389  32.462   8.307   0.401
21229W        W86390  32.882  29.139  13.388
21230W        W86391  21.848  37.803  13.133
21231W        W86392  17.834  25.075   0.753
21232W        W86393  30.114   9.882  14.426
21233W        W86394  29.480  40.520  13.817
21234W        W86395  34.117   1.477  13.913
21235W        W86396  11.236  41.182  11.394
21236W        W86397  35.641  29.493   0.680
21237W        W86398   9.061  32.124  11.297
21238W        W86399  26.710   9.180   1.259
21239W        W86400   5.848  17.641   0.756
21240W        W86401  25.210  25.260   0.731
21241W        W86402  44.624   1.212   3.774
21242W        W86403  36.537  10.753  12.668
21243W        W86404  24.270  18.926  10.968
21244W        W86405   9.678   4.778   4.065
21245W        W86406  39.617  15.431   2.413
21246W        W86407  30.636   7.135   1.303
21247W        W86408  32.455  40.965  13.847
21248W        W86409   8.437   9.298   3.691
21249W        W86410  30.800  27.696  12.815
21250W        W86411   7.120  44.632   3.773
21251W        W86412  33.128  32.304  11.452
21252W        W86413   2.868  23.523   2.759
21253W        W86414   2.979  16.473  12.470
21254W        W86415   5.481  39.604  13.452
21255W        W86416  38.989  20.212   0.784
21256W        W86417  11.778  16.541   2.340
21257W        W86418  21.761  20.142  13.234
21258W        W86419   0.989  39.340  14.756
21259W        W86420  26.441  26.336   0.484
21260W        W86421  21.168  14.613   2.852
21261W        W86422  40.421  20.695  14.817
21262W        W86423  35.473  10.703   2.351
21263W        W86424  12.898   7.832   2.148
21264W        W86425   2.740   0.793   3.884
21265W        W86426  24.982  10.168  12.457
21266W        W86427  36.000  23.628  13.864
21267W        W86428   0.461  37.863   0.314
21268W        W86429   9.263   3.667   2.402
21269W        W86430  37.433  36.445  12.141
21270W        W86431  22.190   0.627   2.649
21271W        W86432   9.600  43.907  12.863
21272W        W86433   2.275  12.892  14.992
21273W        W86434  22.565  28.055   3.369
21274W        W86435  42.163   3.051   4.233
21275W        W86436  31.869  37.405   0.067
21276W        W86437  38.436   9.196  10.784
21277W        W86438  18.851  30.691   3.245
21278W        W86439  18.524  26.244  12.953
21279W        W86440   4.871  11.337   1.281
21280W        W86441  37.118  39.477   4.062
21281W        W86442   7.329  44.806  12.884
21282W        W86443   5.261  27.978  11.672
21283W        W86444  42.517  33.556  14.263
21284W        W86445  28.490  38.361  13.917
21285W        W86446   3.160  25.317   1.499
21286W        W86447  39.494  17.635   4.112
21287W        W86448   7.928  34.438   1.647
21288W        W86449  21.066  38.553   3.719
21289W        W86450   4.884   2.227  13.166
21290W        W86451  31.562  25.473   1.728
21291W        W86452  38.373  41.967   2.315
21292W        W86453  16.655  31.275   0.692
21293W        W86454  11.207   4.969   4.219
21294W        W86455  26.584   3.528   1.221
21295W        W86456  18.780  10.778  12.478
21296W        W86457   2.955  17.154   5.045
21297W        W86458  23.126  30.565   1.222
21298W        W86459  10.377   6.100   2.414
21299W        W86460  11.628  41.737   2.723
21300W        W86461   7.258  12.719   2.985
21301W        W86462   4.926  23.612  10.288
21302W        W86463   6.285   0.913  14.843
21303W        W86464  42.496   9.902   4.701
21304W        W86465  20.377  16.514   3.623
21305W        W86466  27.185   0.750   4.155
21306W        W86467  17.848  12.413   2.504
21307W        W86468   4.409  43.713  13.260
21308W        W86469   0.507  33.611  11.981
21309W        W86470  28.637  27.960   4.548
21310W        W86471  15.021  35.463   1.460
21311W        W86472  32.391  34.530  14.532
21312W        W86473  43.548  26.146   0.912
21313W        W86474  39.080   9.787   2.893
21314W        W86475  27.350   7.425   1.230
21315W        W86476  16.304  26.550  12.614
21316W        W86477  22.714  42.377  13.486
21317W        W86478  21.024   7.214   1.429
21318W        W86479   7.367  38.085  13.260
21319W        W86480  24.704   3.331   2.845
21320W        W86481  29.714  16.768  11.032
21321W        W86482  13.771  28.566   0.476
21322W        W86483  37.914  30.833   4.289
21323W        W86484  29.122   1.073   3.300
21324W        W86485  39.341   5.443   0.208
21325W        W86486   5.661  21.469  12.904
21326W        W86487  24.168  32.499  12.873
21327W        W86488   5.566  22.202  11.328
21328W        W86489  41.797   0.457   0.410
21329W        W86490  25.059  15.619  11.523
21330W        W86491  38.842  33.101  11.620
21331W        W86492  32.479  33.543   3.965
21332W        W86493  10.639   4.145   2.339
21333W        W86494  28.715   6.336  10.987
21334W        W86495  15.654  17.392  13.261
21335W        W86496  27.426  34.967   1.442
21336W        W86497  33.182  19.256  10.757
21337W        W86498  37.369  40.003  12.046
21338W        W86499   4.992  23.677  11.565
21339W        W86500   5.027  28.025  14.414
21340W        W86501   8.440  27.614  14.779
21341W        W86502  25.909   1.925   0.041
21342W        W86503  32.707  16.646   0.442
21343W        W86504  32.285  16.082  11.167
21344W        W86505  37.610  36.438  14.815
21345W        W86506  30.788  42.700  11.529
21346W        W86507  37.512  27.936  14.049
21347W        W86508  20.575   4.252   4.833
21348W        W86509  20.379  36.491   4.827
21349W        W86510   4.864  13.721   1.397
21350W        W86511  35.114  23.472  14.250
21351W        W86512   2.974  22.275   0.857
21352W        W86513  44.823  35.122   3.619
21353W        W86514  40.740   2.991  11.277
21354W        W86515  16.255   0.130  11.191
21355W        W86516  38.452  41.202   0.736
21356W        W86517  19.241  15.017   4.351
21357W        W86518   3.826  27.978   2.804
21358W        W86519   8.849  14.113  13.997
21359W        W86520  41.887  32.494  10.915
21360W        W86521   6.287  30.646   4.523
21361W        W86522  27.750  28.474   0.772
21362W        W86523  22.021  25.683  14.004
21363W        W86524  26.220  17.975   2.293
21364W        W86525  19.147   8.137  13.269
21365W        W86526  40.413  44.702   3.136
21366W        W86527  44.126  27.076  11.952
21367W        W86528  37.998   6.882  10.478
21368W        W86529  33.955  38.474   0.725
21369W        W86530  37.846   2.002   1.443
21370W        W86531   5.241  14.304   1.456
21371W        W86532  36.915  40.303   4.927
21372W        W86533  29.161  12.805  12.004
21373W        W86534   4.773  21.711  11.177
21374W        W86535  20.682  24.505   1.409
21375W        W86536  13.367  16.762  14.303
21376W        W86537  14.261  23.324  14.386
21377W        W86538  18.624   6.822  14.546
21378W        W86539   4.606  33.564   2.437
21379W        W86540  10.188  28.432   0.297
21380W        W86541  42.081  25.180  11.984
21381W        W86542  21.439  16.083  11.238
21382W        W86543   0.009  39.440   1.860
21383W        W86544  23.803   2.960  11.831
21384W        W86545  31.024  11.772   1.269
21385W        W86546   6.231  29.160  13.000
21386W        W86547  29.751  25.499  13.341
21387W        W86548  33.559  13.670  14.346
21388W        W86549  29.596  18.707   4.875
21389W        W86550  39.296  10.504  11.519
21390W        W86551  20.651  30.108  14.238
21391W        W86552  16.465  24.494   3.160
21392W        W86553   5.664  32.954   0.824
21393W        W86554  25.249  29.627   0.542
21394W        W86555  26.197  41.714   0.322
21395W        W86556   3.782   4.938   4.564
21396W        W86557  18.282   3.941   1.485
21397W        W86558   1.510  12.551  11.605
21398W        W86559  20.220   8.191   0.924
21399W        W86560  19.188  11.427  10.687
21400W        W86561   9.790  16.204   0.401
21401W        W86562  28.976  17.997   1.245
21402W        W86563  10.281   0.468  13.989
21403W        W86564  38.377  33.521   2.909
21404W        W86565  38.597  41.382  14.341
21405W        W86566  39.208  16.500   2.854
21406W        W86567  18.136  17.247   1.876
21407W        W86568   4.204  40.498   1.155
21408W        W86569  33.535  17.518  12.482
21409W        W86570  29.169  13.150   1.688
21410W        W86571   2.337  21.803   4.604
21411W        W86572  33.268  40.518  10.332
21412W        W86573   0.855   3.975   2.736
21413W        W86574  32.574   7.820   4.566
21414W        W86575  23.694  26.486  10.740
21415W        W86576   4.010  21.727  13.006
21416W        W86577  15.315  17.593  14.909
21417W        W86578  27.661   1.488  11.953
21418W        W86579  14.139  42.343   5.469
21419W        W86580   7.752   5.352  11.621
21420W        W86581  13.166  42.001  10.679
21421W        W86582  12.745  10.169  13.867
21422W        W86583   2.512  35.470  10.602
21423W        W86584  17.490  19.351  14.829
21424W        W86585  22.937  43.733  11.844
21425W        W86586  14.818  32.470   3.104
21426W        W86587  36.010  31.284  12.065
21427W        W86588  13.481  17.985  10.252
21428W        W86589  24.654   2.846   1.428
21429W        W86590  10.935   4.391   3.309
21430W        W86591  12.861   5.263  11.484
21431W        W86592  36.436  13.062   5.022
21432W        W86593  27.314  40.268  14.295
21433W        W86594  14.653   3.909  12.876
21434W        W86595  12.978  19.908  11.068
21435W        W86596  14.781  29.984   1.811
21436W        W86597  20.950  36.749   1.303
21437W        W86598   0.127  18.707   0.867
21438W        W86599  30.704  39.422   5.075
21439W        W86600  26.104  37.446  10.278
21440W        W86601   4.360  21.486   4.875
21441W        W86602  42.465  30.040   4.835
21442W        W86603  26.515  15.648  10.548
21443W        W86604  20.227  25.382   1.256
21444W        W86605   4.119  17.434   1.266
21445W        W86606  40.672  29.571  14.805
21446W        W86607   2.981   9.426  14.537
21447W        W86608   5.151  23.669   5.067
21448W        W86609   3.660  34.370   4.277
21449W        W86610  24.575  10.179   4.599
21450W        W86611  31.898  42.732  10.657
21451W        W86612  10.335   6.150  11.895
21452W        W86613  33.637  26.606  10.539
21453W        W86614  35.878  13.828  11.450
21454W        W86615  21.816  13.038  14.278
21455W        W86616  31.371  43.678  13.964
21456W        W86617  34.943  37.326   3.686
21457W        W86618  35.996  32.654  13.863
21458W        W86619  44.737  22.343  12.620
21459W        W86620  31.209  30.462  11.391
21460W        W86621  14.254  34.966   3.115
21461W        W86622  23.797  41.133   1.918
21462W        W86623  34.836  25.290   5.207
21463W        W86624   0.160  34.661   4.328
21464W        W86625   2.699  13.561  10.364
21465W        W86626  44.913  42.678  13.987
21466W        W86627  33.881  40.663   4.445
21467W        W86628  37.608  31.061   0.786
21468W        W86629  10.761   7.923   4.832
21469W        W86630   8.023  24.710   0.916
21470W        W86631   1.840   6.330  13.824
21471W        W86632  18.921  17.226   3.141
21472W        W86633  34.212  37.997  13.905
21473W        W86634  38.563  39.530  13.827
21474W        W86635  18.654  29.727   5.062
21475W        W86636  26.807  33.797   1.396
21476W        W86637   0.801  23.241  12.488
21477W        W86638  29.403   0.224   4.099
21478W        W86639  37.309  28.912   3.129
21479W        W86640  43.469  18.733   3.168
21480W        W86641  37.124  24.278   4.156
21481W        W86642   4.752  44.822  12.007
21482W        W86643  35.596  42.843   2.295
21483W        W86644  39.015  31.526  13.379
21484W        W86645  10.858  34.096   4.719
21485W        W86646  38.274  23.200   4.043
21486W        W86647  11.562  39.452   4.646
21487W        W86648  40.345  19.025   1.542
21488W        W86649  44.120  38.070   3.537
21489W        W86650  32.308   5.046   2.878
21490W        W86651  21.783   7.171   0.699
21491W        W86652  39.892  32.469   4.480
21492W        W86653  11.943  36.248   0.581
21493W        W86654  21.172   7.161  14.857
21494W        W86655  28.656  11.848  11.972
21495W        W86656  22.616  15.405   0.477
21496W        W86657  42.304   4.884   2.062
21497W        W86658  21.034  10.280   0.450
21498W        W86659  27.596  36.371  10.347
21499W        W86660  37.449  32.211  13.108
21500W        W86661  11.801  29.174  10.538
21501W        W86662   1.896  38.034  12.496
21502W        W86663   1.253  21.536   2.754
21503W        W86664   0.785   7.922   4.109
21504W        W86665  21.194  22.588   0.268
21505W        W86666  21.315  26.566  14.391
21506W        W86667  43.808  10.793  13.994
21507W        W86668  40.719   4.286  14.101
21508W        W86669   5.955  36.484   2.646
21509W        W86670  20.075  38.532   3.346
21510W        W86671  10.715  15.336  14.410
21511W        W86672   7.444  26.566  10.005
21512W        W86673  29.009  22.859   2.128
21513W        W86674  38.015  41.408  12.278
21514W        W86675   3.397  37.958   2.319
21515W        W86676   1.084  42.893   3.809
21516W        W86677   1.825  12.893   1.757
21517W        W86678   0.584  11.595  11.622
21518W        W86679  37.847  36.610  14.378
21519W        W86680  15.535  22.529   3.656
21520W        W86681  42.933  28.876  14.683
21521W        W86682   5.784  33.975   4.622
21522W        W86683  37.050   5.806   4.928
21523W        W86684  36.438  33.392   0.360
21524W        W86685  13.632  36.519   2.488
21525W        W86686   8.897   3.461  10.515
21526W        W86687  20.554  25.173   0.847
21527W        W86688   6.359  15.120   4.863
21528W        W86689  10.363  16.345  10.498
21529W        W86690  17.259  28.435   0.195
21530W        W86691  13.980  15.371   0.180
21531W        W86692  23.361  26.526   2.832
21532W        W86693  26.549  14.645  14.572
21533W        W86694   7.710  24.124  10.800
21534W        W86695  34.974   4.570  14.709
21535W        W86696  34.748   6.733   3.332
21536W        W86697  16.312  36.057   0.297
21537W        W86698  18.006   7.271   1.835
21538W        W86699   6.688  25.999   0.704
21539W        W86700  10.679  34.061  13.052
21540W        W86701  36.006  21.131   1.373
21541W        W86702   2.737  11.226   2.712
21542W        W86703  26.443  25.060   4.943
21543W        W86704   9.839  23.796  10.975
21544W        W86705  34.998  29.016   3.255
21545W        W86706   2.703   2.267  12.966
21546W        W86707  27.128  42.789   0.419
21547W        W86708  11.347  18.784   4.017
21548W        W86709  44.217  15.417   2.071
21549W        W86710  21.970  40.313   2.682
21550W        W86711  26.183  34.503  12.980
21551W        W86712   0.497  39.732   3.920
21552W        W86713  15.008   8.129   4.614
21553W        W86714  21.104  32.140   4.510
21554W        W86715  41.238  34.311  12.545
21555W        W86716  36.593  10.050  14.797
21556W        W86717   2.676   0.383  13.059
21557W        W86718  15.557   8.093   4.100
21558W        W86719   4.944  26.644  12.806
21559W        W86720  30.149  41.224   2.777
21560W        W86721   9.222  29.969  13.084
21561W        W86722  14.748  11.996   1.161
21562W        W86723   6.401  15.087  13.074
21563W        W86724  14.381  14.997  12.796
21564W        W86725  14.344   4.957   3.793
21565W        W86726  25.721  18.715  10.714
21566W        W86727   5.476   1.519   3.219
21567W        W86728  12.123  32.913  12.890
21568W        W86729  29.466  22.432   0.731
21569W        W86730  28.190  10.604  11.591
21570W        W86731  44.985   9.841   0.973
21571W        W86732  42.215  26.665  13.508
21572W        W86733   2.813  23.229   0.140
21573W        W86734  14.029  31.404   2.377
21574W        W86735  32.173  43.878  14.387
21575W        W86736   6.624  35.039   1.761
21576W        W86737  22.003  12.745  10.114
21577W        W86738   4.456   3.510   3.694
21578W        W86739  25.591  12.093  14.238
21579W        W86740   7.311  21.237  14.942
21580W        W86741  17.099  17.087  12.783
21581W        W86742   0.455  17.741  12.697
21582W        W86743  35.359  29.519   0.252
21583W        W86744  33.071  27.864  13.002
21584W        W86745  15.387   0.165  11.163
21585W        W86746  11.730  28.592   0.573
21586W        W86747  40.771   2.458  14.472
21587W        W86748  44.573   2.452  14.396
21588W        W86749  35.040  26.660   3.748
21589W        W86750   7.392  43.187  12.500
21590W        W86751  22.281  16.240   4.516
21591W        W86752  22.238  13.497   1.623
21592W        W86753  12.451   7.503   0.975
21593W        W86754   9.422  37.055   2.885
21594W        W86755  10.841  44.017  13.482
21595W        W86756  39.927  34.480  12.079
21596W        W86757   1.026  28.577  12.953
21597W        W86758  29.820  30.147   0.713
21598W        W86759  23.540  21.203   1.160
21599W        W86760   8.796  22.962  11.553
21600W        W86761   0.170  43.960   3.593
21601W        W86762  29.706  13.814   0.323
21602W        W86763  19.123  25.973   4.536
21603W        W86764  34.002   0.696  13.383
21604W        W86765  19.490  25.913  13.071
21605W        W86766  39.378  35.314  12.917
21606W        W86767  44.601   6.822  14.944
21607W        W86768   2.842  15.580   2.777
21608W        W86769  32.461  40.864   2.684
21609W        W86770  23.034   0.060  11.546
21610W        W86771  40.975   9.431  11.117
21611W        W86772  10.689   8.748  14.384
21612W        W86773  39.298   7.893   3.687
21613W        W86774  43.365  14.279  12.178
21614W        W86775  43.083   2.865   2.832
21615W        W86776  36.031   4.881  11.928
21616W        W86777  30.502   8.578   0.481
21617W        W86778  29.994   5.664   3.893
21618W        W86779   7.153  13.230  11.244
21619W        W86780  23.112  39.614   2.513
21620W        W86781   9.157  37.853   0.178
21621W        W86782  24.542  31.017   1.733
21622W        W86783  18.497   9.139  14.444
21623W        W86784  34.690   5.781   1.299
21624W        W86785   7.773   0.471  12.443
21625W        W86786  31.155  20.172   2.503
21626W        W86787   9.387  25.199  12.725
21627W        W86788   1.386  37.470   5.016
21628W        W86789  21.983  37.127   9.856
21629W        W86790  33.406  11.230   3.908
21630W        W86791  36.056   6.053   2.254
21631W        W86792  15.662  38.771  14.784
21632W        W86793   4.897   9.797   3.894
21633W        W86794  44.538   5.462   3.598
21634W        W86795  10.257   7.272   0.008
21635W        W86796  36.955  34.970   1.714
21636W        W86797   3.297  20.264  12.237
21637W        W86798  21.069  33.917  12.089
21638W        W86799   9.265  13.745  10.740
21639W        W86800  21.748   7.330   4.534
21640W        W86801  38.090  44.796   1.334
21641W        W86802  29.075  37.345   3.433
21642W        W86803  38.137  24.260   0.833
21643W        W86804   2.375   4.811  12.478
21644W        W86805  42.079  20.715   2.419
21645W        W86806   2.811  14.146   3.445
21646W        W86807   6.487  25.284  12.936
21647W        W86808  30.653   7.243  13.038
21648W        W86809  43.963  40.851   0.599
21649W        W86810  38.427  12.782   2.223
21650W        W86811  30.567  19.676   2.423
21651W        W86812   8.712  21.089  11.870
21652W        W86813  20.745  17.098   2.227
21653W        W86814   3.645  22.772  10.658
21654W        W86815  10.830  29.486   1.010
21655W        W86816   4.915  17.346   0.852
21656W        W86817  21.508  26.560   2.714
21657W        W86818   2.407  21.503   0.899
21658W        W86819  12.284  18.238  13.873
21659W        W86820  13.289  22.245   0.737
21660W        W86821  18.503  29.451   4.638
21661W        W86822  38.029  29.176  13.351
21662W        W86823  14.289  28.711  11.153
21663W        W86824  16.571   0.997  12.904
21664W        W86825   8.279  19.056   2.906
21665W        W86826  14.341  30.980  12.104
21666W        W86827  27.167  41.387   0.212
21667W        W86828  17.125  14.615  14.304
21668W        W86829  21.135  29.398   2.817
21669W        W86830   0.029  28.642   3.266
21670W        W86831  30.858   4.993  14.830
21671W        W86832   2.663  28.426   0.842
21672W        W86833   4.429   7.386   4.145
21673W        W86834   9.164  39.547  12.468
21674W        W86835  39.333  40.881   1.127
21675W        W86836   3.896  14.215   4.978
21676W        W86837   2.716   3.413  12.103
21677W        W86838  20.420  41.358   3.403
21678W        W86839  39.363   0.491  10.707
21679W        W86840   2.393  19.640  13.197
21680W        W86841  20.140  12.302  14.019
21681W        W86842  19.648   0.455   1.760
21682W        W86843  25.277  17.466  14.854
21683W        W86844  13.681  37.019   2.622
21684W        W86845   1.015   4.373  11.651
21685W        W86846   7.732  26.125   0.788
21686W        W86847  43.044   1.986   3.179
21687W        W86848  24.146  44.072  11.664
21688W        W86849   5.358   3.700   2.310
21689W        W86850   0.979   1.963   4.456
21690W        W86851   0.359   9.559   4.536
21691W        W86852   7.127  42.733   3.849
21692W        W86853   1.959   3.004  11.144
21693W        W86854  12.645  44.999   0.854
21694W        W86855   5.195   4.298   4.672
21695W        W86856  21.690  17.135   3.852
21696W        W86857  35.962   1.697  13.379
21697W        W86858  44.774  28.109   0.873
21698W        W86859  33.963  31.652   4.897
21699W        W86860  28.385  38.043  11.520
21700W        W86861  22.527  16.671   3.742
21701W        W86862  17.194  32.236  14.401
21702W        W86863  17.053  22.961   1.753
21703W        W86864   2.391  23.005  12.847
21704W        W86865  15.027  25.550   0.918
21705W        W86866  27.211   8.855  14.878
21706W        W86867  27.917   7.025   0.864
21707W        W86868  42.044  17.834  13.856
21708W        W86869   2.918  23.815   3.198
21709W        W86870  33.078  26.601   4.109
21710W        W86871  26.450  35.904   1.859
21711W        W86872  21.969  42.986  11.572
21712W        W86873  43.422  23.184   3.912
21713W        W86874  16.790   6.309   0.388
21714W        W86875  25.965  34.979   1.818
21715W        W86876  25.700  44.847  13.164
21716W        W86877  26.387  42.144  12.474
21717W        W86878  27.606  12.780   0.151
21718W        W86879  39.459  28.136   0.293
21719W        W86880  18.589  34.794   4.719
21720W        W86881  40.543  36.478   1.642
21721W        W86882  20.659   9.066   4.208
21722W        W86883  12.541  18.491  11.015
21723W        W86884  40.270  16.143  10.385
21724W        W86885  20.240  21.579  13.901
21725W        W86886  15.589   7.250  12.313
21726W        W86887   5.815  21.065   3.267
21727W        W86888  18.832  18.252   0.478
21728W        W86889  34.802   1.341   4.223
21729W        W86890  22.667  39.662  13.015
21730W        W86891  31.403  41.943   0.398
21731W        W86892   5.179  17.994  12.399
21732W        W86893  28.419  23.552   2.725
21733W        W86894  17.333  22.629   2.584
21734W        W86895  27.960  34.814   1.396
21735W        W86896  42.800  30.913  11.237
21736W        W86897   4.866  24.015   9.995
21737W        W86898  34.610   5.709  10.816
21738W        W86899   7.501  10.891  14.538
21739W        W86900  37.845  42.919   2.144
21740W        W86901  30.308   0.495   4.541
21741W        W86902  25.906  19.742  12.507
21742W        W86903  20.714  38.878   1.211
21743W        W86904  24.168  36.377   0.612
21744W        W86905   4.782   0.337  11.518
21745W        W86906   4.318  21.742   3.866
21746W        W86907   5.191  24.823  12.487
21747W        W86908  13.272  43.769  14.111
21748W        W86909   1.730  24.271   3.155
21749W        W86910  40.493  29.076  13.926
21750W        W86911  23.567  17.718  12.712
21751W        W86912  11.607   1.767   1.415
21752W        W86913  43.017  18.792   4.244
21753W        W86914  43.821  33.818  11.654
21754W        W86915  39.414  22.043   2.331
21755W        W86916  31.042  32.562  10.687
21756W        W86917  22.682  43.831   0.685
21757W        W86918  24.718  34.040   2.851
21758W        W86919  13.224  13.506   1.262
21759W        W86920  15.166   4.171   4.209
21760W        W86921  26.899   2.683  11.160
21761W        W86922  31.815  15.224   3.254
21762W        W86923  33.681  23.226   3.191
21763W        W86924  38.961  27.923   0.631
21764W        W86925  40.537  14.027  12.051
21765W        W86926  21.350  26.459  12.561
21766W        W86927  16.714  26.290   4.060
21767W        W86928  44.858   7.446  10.685
21768W        W86929  37.226  30.529  14.308
21769W        W86930  13.193  10.678  11.180
21770W        W86931  30.458  13.533   4.011
21771W        W86932  17.731   3.659  12.868
21772W        W86933   7.858  29.644   4.549
21773W        W86934  37.379  35.160   2.943
21774W        W86935   3.174  30.177  10.829
21775W        W86936   1.767  23.650   0.441
21776W        W86937  16.815   6.198   2.844
21777W        W86938  19.472  11.634  12.949
21778W        W86939   6.102  20.205  13.564
21779W        W86940  39.935   4.194  10.665
21780W        W86941   7.971  17.343  12.081
21781W        W86942  22.212   4.247  13.453
21782W        W86943  29.445  32.420  12.401
21783W        W86944   8.297  40.086  11.417
21784W        W86945  11.910   9.482  11.105
21785W        W86946  12.240  11.217   0.814
21786W        W86947   6.245  11.784   3.164
21787W        W86948  11.399  32.614   2.338
21788W        W86949   5.924   2.159   3.676
21789W        W86950  21.018   4.779   1.293
21790W        W86951  22.859  22.960   2.732
21791W        W86952  16.742  43.247  14.280
21792W        W86953  34.632   8.637   3.272
21793W        W86954  19.632  40.064   2.666
21794W        W86955  36.610  26.088  13.438
21795W        W86956   2.136  37.816  13.325
21796W        W86957  18.307  37.200   3.437
21797W        W86958  25.827   4.300   0.900
21798W        W86959  18.073  10.376  12.326
21799W        W86960  24.968  34.186   2.362
21800W        W86961  35.206  33.103  14.993
21801W        W86962  26.942  12.954   5.034
21802W        W86963  34.305  42.353  10.679
21803W        W86964  28.683  19.002   2.808
21804W        W86965   0.277   7.248  14.433
21805W        W86966  42.322  31.646   1.192
21806W        W86967  10.630  34.613  13.940
21807W        W86968  44.120  38.094   0.892
21808W        W86969  18.018  26.507  11.647
21809W        W86970  35.787  21.192  10.467
21810W        W86971  17.280  18.232  12.112
21811W        W86972   5.081  39.653  11.587
21812W        W86973  19.814  34.437   1.846
21813W        W86974  37.337  23.316   1.825
21814W        W86975  43.910  36.710   3.597
21815W        W86976  16.160  13.805  14.060
21816W        W86977  27.376  27.160   0.960
21817W        W86978   2.246  19.049   2.736
21818W        W86979   5.204  29.602  12.555
21819W        W86980  23.213  27.159  14.316
21820W        W86981  25.317  38.539  11.236
21821W        W86982  43.182  26.988  10.362
21822W        W86983   0.778  44.054   1.392
21823W        W86984  44.812  39.071   4.814
21824W        W86985  42.012  44.543   2.143
21825W        W86986  37.746  21.113   1.804
21826W        W86987  14.348  37.530   2.217
21827W        W86988   6.675  32.381   4.590
21828W        W86989   4.486  18.690   1.310
21829W        W86990  37.039  42.734  14.620
21830W        W86991  29.026  38.066   9.715
21831W        W86992  35.526  31.337  11.619
21832W        W86993  43.779  14.670  10.743
21833W        W86994  12.709  28.536  11.996
21834W        W86995  36.127  33.140  13.864
21835W        W86996  13.752  32.235  11.181
21836W        W86997   5.130  17.340  13.892
21837W        W86998  12.110  36.310  12.349
21838W        W86999   2.997  18.497   0.389
21839W        W87000  17.703  14.219  13.553
21840W        W87001  35.979   0.961   0.883
21841W        W87002  28.130  16.631  11.238
21842W        W87003  30.459  27.030   1.706
21843W        W87004  10.329  34.042  11.588
21844W        W87005  19.506  40.924  12.158
21845W        W87006  21.022  36.532   2.802
21846W        W87007  19.610  10.191   4.672
21847W        W87008  14.182  30.943  14.655
21848W        W87009   4.439  41.807  11.029
21849W        W87010  24.472  38.144   2.232
21850W        W87011   9.366  11.396  11.132
21851W        W87012  39.275  18.504   1.012
21852W        W87013  25.653  32.810  13.524
21853W        W87014  26.019  17.003  10.626
21854W        W87015  36.867  27.266   4.429
21855W        W87016  12.399   0.057  12.817
21856W        W87017  19.553  34.425  14.308
21857W        W87018  12.172  38.919  12.894
21858W        W87019   2.157  20.621  13.088
21859W        W87020  15.476  27.167   0.593
21860W        W87021   3.329  17.055  12.328
21861W        W87022  43.471   4.460   4.077
21862W        W87023   2.349  29.195  10.361
21863W        W87024  20.372   3.147  11.259
21864W        W87025  37.343  15.892   2.601
21865W        W87026   3.348  24.094   3.866
21866W        W87027  37.611  17.610   0.384
21867W        W87028  43.418   0.896   3.327
21868W        W87029  33.655  29.236  11.610
21869W        W87030  18.505  29.895  13.275
21870W        W87031  39.622  19.512   1.370
21871W        W87032  42.306  16.120  10.583
21872W        W87033   7.927  43.584  11.347
21873W        W87034  33.801  37.260   2.250
21874W        W87035  17.138  29.653   2.772
21875W        W87036  36.988  39.540  12.958
21876W        W87037  12.975  34.273  11.023
21877W        W87038   5.832  27.384  11.998
21878W        W87039  26.698   9.665   4.728
21879W        W87040  25.193  28.926  14.457
21880W        W87041   4.522  16.628  12.796
21881W        W87042  40.565  20.378  13.395
21882W        W87043  41.444  41.036  11.241
21883W        W87044  16.798  28.208   1.720
21884W        W87045  41.730  32.824  14.075
21885W        W87046  19.183  32.850  13.101
21886W        W87047   6.142  28.890  10.291
21887W        W87048  18.048  30.973  13.417
21888W        W87049  20.021  23.224  13.572
21889W        W87050  39.435  44.529  13.281
21890W        W87051  25.673   4.782   4.956
21891W        W87052  34.655  12.309  11.986
21892W        W87053   6.851   1.665   3.797
21893W        W87054   0.605  35.980  11.952
21894W        W87055   9.239   3.662   3.247
21895W        W87056  37.818   8.276  12.453
21896W        W87057  13.023   0.273  13.289
21897W        W87058  35.852   6.289   1.791
21898W        W87059  41.241  30.110  14.554
21899W        W87060  26.891  29.987   3.693
21900W        W87061  14.686  42.996  10.838
21901W        W87062  41.759  41.469  13.863
21902W        W87063  38.714  40.907   2.498
21903W        W87064   6.805  13.885   1.729
21904W        W87065  17.685   6.330  11.618
21905W        W87066  38.821  44.211   1.455
21906W        W87067   8.114  42.848  12.538
21907W        W87068   9.791  34.359  10.502
21908W        W87069  41.958  14.425  12.777
21909W        W87070  23.152  27.055   3.464
21910W        W87071  14.811  28.118  10.895
21911W        W87072  22.965  35.274   1.469
21912W        W87073  28.922  18.329  11.968
21913W        W87074  16.978  33.728   4.504
21914W        W87075  40.598  44.299   5.130
21915W        W87076   6.466   8.398  13.877
21916W        W87077  42.453  38.396   3.771
21917W        W87078   2.042  35.999   2.392
21918W        W87079   6.148  16.034   0.495
21919W        W87080  12.068  20.207  14.926
21920W        W87081   6.100  40.763  13.393
21921W        W87082  36.426  13.993   2.379
21922W        W87083  37.037  10.840   0.366
21923W        W87084  14.798  25.078   0.960
21924W        W87085  37.045  15.070   0.000
21925W        W87086  33.633   1.332  13.435
21926W        W87087  34.223   5.297   0.032
21927W        W87088  12.353  27.738  14.965
21928W        W87089  22.718  43.293   3.646
21929W        W87090  29.681  25.206  14.957
21930W        W87091  33.470  34.487   0.729
21931W        W87092   2.339  19.594  14.739
21932W        W87093   8.096   9.744  14.291
21933W        W87094  13.809  10.608   3.989
21934W        W87095   7.149  41.899  11.035
21935W        W87096  43.471   0.784   2.496
21936W        W87097   5.162  30.713   1.043
21937W        W87098  35.808  22.202   3.869
21938W        W87099  40.329  21.337  10.744
21939W        W87100   8.871  21.556  10.753
21940W        W87101  14.177   9.149   0.874
21941W        W87102  29.370  20.830   0.352
21942W        W87103  41.695  15.714   0.299
21943W        W87104   8.895  13.141   2.234
21944W        W87105  32.989   4.340   4.790
21945W        W87106  37.871  21.584   4.082
21946W        W87107  23.207   4.700  10.662
21947W        W87108  31.452  30.568   0.379
21948W        W87109  15.248  40.559  11.529
21949W        W87110  37.124  16.278   2.861
21950W        W87111  14.348  11.154   3.636
21951W        W87112  13.727  40.818  12.121
21952W        W87113  43.531   1.141  13.367
21953W        W87114  31.795  24.440  13.669
21954W        W87115  20.808  23.463   0.694
21955W        W87116   5.271  13.196   0.874
21956W        W87117  21.478  17.749  12.802
21957W        W87118   0.099  26.648  12.056
21958W        W87119  34.048  19.314  10.585
21959W        W87120  16.281  23.741  13.499
21960W        W87121   6.076  42.340   4.651
21961W        W87122   3.532  43.814  14.121
21962W        W87123  39.696  31.936  12.888
21963W        W87124  41.021  26.175  11.159
21964W        W87125  23.484  30.953   3.229
21965W        W87126  24.814  19.953  11.647
21966W        W87127  15.873  37.514   3.736
21967W        W87128  20.221  16.900  10.784
21968W        W87129  34.611  42.785   4.633
21969W        W87130   5.872   5.668   1.447
21970W        W87131   4.405  34.030   2.195
21971W        W87132   6.247   5.473  14.302
21972W        W87133  33.372  27.956   0.773
21973W        W87134  43.978  27.853  11.485
21974W        W87135  32.559   0.806  12.140
21975W        W87136  44.404  33.525  12.166
21976W        W87137   7.929  34.455   3.093
21977W        W87138  43.164   7.770   4.868
21978W        W87139  13.111  23.115  13.387
21979W        W87140   8.765  18.292  10.773
21980W        W87141  28.094  31.844   2.313
21981W        W87142  33.563  28.012  14.333
21982W        W87143  12.351  43.665  14.655
21983W        W87144  20.900  40.993  10.852
21984W        W87145  38.251  40.409   0.244
21985W        W87146  29.998  10.081   4.916
21986W        W87147  13.294  25.569   2.048
21987W        W87148   4.239  43.997   4.667
21988W        W87149  22.429  18.459   3.918
21989W        W87150  19.003  24.921  10.217
21990W        W87151  21.426   0.501  10.783
21991W        W87152  40.294   9.901  12.942
21992W        W87153  17.809   2.819  13.197
21993W        W87154   6.683  13.613   0.327
21994W        W87155  37.532  42.982   4.412
21995W        W87156  32.245   4.625  14.943
21996W        W87157   6.827  32.143  13.955
21997W        W87158   9.570   0.842   2.449
21998W        W87159  26.710   8.671  11.048
21999W        W87160  13.861  16.735   3.635
22000W        W87161   8.359  16.099  11.121
22001W        W87162  42.720  36.891  12.019
22002W        W87163   3.948  44.978   3.270
22003W        W87164  35.668  38.262   4.540
22004W        W87165   3.258   8.100  13.474
22005W        W87166  12.402  37.953   3.734
22006W        W87167  31.435  18.291   1.368
22007W        W87168   5.799  17.640  10.748
22008W        W87169  13.057  13.967  13.595
22009W        W87170  22.062  36.019   1.869
22010W        W87171  19.662   0.697  12.185
22011W        W87172  27.424   1.294  11.541
22012W        W87173  36.070   2.643  13.397
22013W        W87174  21.992  28.287  11.415
22014W        W87175  36.028  41.373  13.367
22015W        W87176  14.238  21.866   3.161
22016W        W87177  42.880  13.879  11.281
22017W        W87178   2.978  11.806   3.098
22018W        W87179  26.564   6.897   1.990
22019W        W87180  14.742  24.399  12.454
22020W        W87181  15.665  17.641   3.505
22021W        W87182  26.808  18.570  14.862
22022W        W87183  40.232  13.127   3.177
22023W        W87184  20.184   3.290  10.800
22024W        W87185  10.672   2.280  14.772
22025W        W87186  39.447  39.767  14.132
22026W        W87187  21.382  23.780   4.576
22027W        W87188  37.574   5.922  11.973
22028W        W87189   7.362  27.867  13.581
22029W        W87190  27.948  43.422   3.230
22030W        W87191  23.949  27.885   2.802
22031W        W87192  23.097   5.235  12.325
22032W        W87193   4.734   8.740  13.514
22033W        W87194   1.753  21.251  14.228
22034W        W87195   8.724   4.592  12.697
22035W        W87196   6.249  25.716  14.816
22036W        W87197   9.189  16.303   1.926
22037W        W87198  42.934   8.400   0.364
22038W        W87199  31.060  36.823  14.922
22039W        W87200  32.697  21.716  14.993
22040W        W87201  26.285  24.473   0.005
22041W        W87202  25.961  29.014   0.912
22042W        W87203  30.423  36.537  13.501
22043W        W87204  38.919  20.004  10.665
22044W        W87205  31.983  27.864   2.787
22045W        W87206  33.182  31.211   2.852
22046W        W87207  20.573  25.219  12.580
22047W        W87208  34.579  20.961   0.786
22048W        W87209  31.057  15.638  11.994
22049W        W87210  24.704  13.207  11.671
22050W        W87211   9.159  26.789   0.655
22051W        W87212  30.545  41.943  12.029
22052W        W87213  16.951   9.458   3.785
22053W        W87214   3.973   0.967   4.925
22054W        W87215  21.409  10.848   1.016
22055W        W87216  43.950   2.118   2.174
22056W        W87217  23.712  41.043  12.435
22057W        W87218  32.967   5.263   4.784
22058W        W87219  23.335  15.528  12.956
22059W        W87220  20.562  27.063   3.115
22060W        W87221  33.077  30.444  12.854
22061W        W87222  37.645   0.376  11.641
22062W        W87223  37.402  25.659   2.037
22063W        W87224  23.139  28.362  12.379
22064W        W87225  31.087   0.350   3.590
22065W        W87226  25.117  40.906  12.559
22066W        W87227  10.314  29.963  12.659
22067W        W87228  27.678  32.494  13.854
22068W        W87229  17.013  24.585  13.145
22069W        W87230  38.526  23.092  10.785
22070W        W87231   4.978  26.782  13.316
22071W        W87232  11.748  36.509   3.163
22072W        W87233  11.982  21.248   4.997
22073W        W87234  29.199   7.446   4.554
22074W        W87235  17.690   9.388   4.558
22075W        W87236  11.898  39.890   1.735
22076W        W87237  36.071  11.291   1.356
22077W        W87238  16.258  36.327   4.173
22078W        W87239  42.924  16.880   0.999
22079W        W87240   7.679  39.241   3.167
22080W        W87241   2.829  26.464   4.508
22081W        W87242  21.106  18.247   0.962
22082W        W87243  27.519  33.112   2.291
22083W        W87244  21.499  11.814   4.236
22084W        W87245   7.259   8.925   2.287
22085W        W87246   8.903  19.659   1.375
22086W        W87247  35.852   6.326  12.444
22087W        W87248  36.794  11.403  14.505
22088W        W87249  16.506   4.017  10.963
22089W        W87250  43.520  38.487  12.430
22090W        W87251  39.786   7.863   0.373
22091W        W87252  22.041  13.981   1.741
22092W        W87253  28.908  34.814   1.322
22093W        W87254  31.815  34.030  11.542
22094W        W87255  24.724  41.984  12.471
22095W        W87256  42.705  11.447   3.727
22096W        W87257  22.144  30.917  13.236
22097W        W87258  42.526   8.849  13.386
22098W        W87259  26.813  44.208  10.430
22099W        W87260  42.865  32.971  10.245
22100W        W87261  14.559  43.405   1.875
22101W        W87262   8.722  38.021   0.407
22102W        W87263  38.913  39.783   2.877
22103W        W87264  34.447  29.331  10.560
22104W        W87265   4.599  31.492  12.662
22105W        W87266  29.089  12.940   4.257
22106W        W87267  32.925   6.109   1.762
22107W        W87268  14.767   7.672   3.651
22108W        W87269   4.328   3.728   1.471
22109W        W87270  37.143  16.408   1.895
22110W        W87271  15.128  38.662  12.136
22111W        W87272  26.729  35.850   2.308
22112W        W87273   3.425  21.944  11.636
22113W        W87274  36.402  39.274   1.400
22114W        W87275  15.693  30.419  11.953
22115W        W87276  26.827   3.440  10.785
22116W        W87277  42.329  40.280   2.428
22117W        W87278  37.856  32.925   1.686
22118W        W87279  25.203  39.822   4.966
22119W        W87280  26.219  40.264   0.520
22120W        W87281  44.148  32.871   3.235
22121W        W87282  12.192  39.598  11.550
22122W        W87283   9.775  44.674  14.037
22123W        W87284  44.420  43.595   2.336
22124W        W87285  34.204  18.593  11.549
22125W        W87286  33.133  21.668   3.522
22126W        W87287  15.893   2.350  11.557
22127W        W87288  15.253  30.945   2.355
22128W        W87289  24.022  25.647   1.283
22129W        W87290  20.804  27.211   4.491
22130W        W87291  21.012  13.825  14.329
22131W        W87292   1.487   1.874  12.885
22132W        W87293  29.506  36.313  13.653
22133W        W87294  38.435  11.414  10.948
22134W        W87295  42.320  36.996   0.862
22135W        W87296  34.284  42.038   3.920
22136W        W87297  27.580  35.296  12.967
22137W        W87298   5.699  37.670  13.966
22138W        W87299   2.240  31.108  12.945
22139W        W87300  26.951  39.930   2.444
22140W        W87301  25.961   8.709  10.744
22141W        W87302  44.435  40.452  13.034
22142W        W87303  17.299  25.444   4.562
22143W        W87304   1.009  44.664  14.523
22144W        W87305  14.443  30.966   1.839
22145W        W87306   4.760   3.448  14.285
22146W        W87307   6.676  20.817   3.399
22147W        W87308  29.706   2.378   3.588
22148W        W87309  10.644  40.372   1.742
22149W        W87310  41.700   3.922   1.869
22150W        W87311   5.921  41.093  11.245
22151W        W87312   9.258  15.554   2.388
22152W        W87313  12.720  35.644   0.277
22153W        W87314  43.756  36.103   0.375
22154W        W87315  14.433  38.460   2.216
22155W        W87316   9.231  26.342   5.011
22156W        W87317   5.891   7.391   0.610
22157W        W87318  21.251   7.729  14.906
22158W        W87319  29.133  38.027   5.178
22159W        W87320  14.758  23.142  12.494
22160W        W87321  26.248  37.932  13.582
22161W        W87322  35.361   2.565  13.101
22162W        W87323  13.951  17.690   1.682
22163W        W87324  24.408   2.638   4.222
22164W        W87325   9.961  29.093   2.634
22165W        W87326   8.920  13.229   1.595
22166W        W87327  33.483   1.547  11.576
22167W        W87328  30.369  40.932  14.411
22168W        W87329  30.693  18.049  13.285
22169W        W87330  22.109  42.051   1.799
22170W        W87331  41.923  17.619   4.383
22171W        W87332  37.973  33.399  13.777
22172W        W87333   7.695  22.747   3.692
22173W        W87334  27.436  15.066   1.743
22174W        W87335  25.097   1.207  14.403
22175W        W87336  12.383  39.578   4.265
22176W        W87337  43.319  20.363  14.294
22177W        W87338  15.124  10.594  13.659
22178W        W87339   6.134   3.008   3.448
22179W        W87340  40.961  24.170  11.990
22180W        W87341  44.738  44.462   0.045
22181W        W87342  36.567  16.301  12.425
22182W        W87343  17.706  39.349   0.951
22183W        W87344  34.945  25.575  14.121
22184W        W87345   4.749  13.278   3.538
22185W        W87346  22.640   0.123  10.373
22186W        W87347  25.858   9.848  12.520
22187W        W87348  28.499  23.220   3.558
22188W        W87349  43.924  31.453   2.824
22189W        W87350  10.837  27.302   1.446
22190W        W87351  19.791   6.939  13.938
22191W        W87352  35.872  24.016   2.748
22192W        W87353  13.741  34.690  12.608
22193W        W87354   1.216  22.739   2.772
22194W        W87355  39.332  30.414   3.488
22195W        W87356  43.495   2.381  14.707
22196W        W87357  12.239  12.396   3.254
22197W        W87358  15.843  26.442   4.519
22198W        W87359  12.188  42.869   4.506
22199W        W87360  40.556  23.371   3.192
22200W        W87361   1.163  17.294   3.663
22201W        W87362  36.565  13.416   2.759
22202W        W87363  16.590  34.292   0.322
22203W        W87364   6.815   7.902  12.638
22204W        W87365  29.048  25.281   2.414
22205W        W87366   1.891  26.985   0.691
22206W        W87367  13.179  38.047   3.191
22207W        W87368   1.002  20.356  14.361
22208W        W87369  20.167   3.309  13.483
22209W        W87370  31.378   5.452  11.153
22210W        W87371  33.039  16.831   2.150
22211W        W87372  38.366  11.113   1.743
22212W        W87373  25.600  17.861  11.777
22213W        W87374  29.110  27.939  11.516
22214W        W87375  44.778  21.325   2.230
22215W        W87376  44.859   3.562   0.044
22216W        W87377  22.591  30.485   2.624
22217W        W87378  18.140  31.597  12.618
22218W        W87379  33.482  21.501  12.094
22219W        W87380  37.082  31.583  13.342
22220W        W87381  30.180  15.499  11.245
22221W        W87382  43.908  44.224   2.491
22222W        W87383   9.367  26.581   1.927
22223W        W87384  23.731  31.862  11.998
22224W        W87385  29.729   6.099   1.016
22225W        W87386  32.444  37.375   3.699
22226W        W87387   4.368  14.429  14.968
22227W        W87388  32.476  40.797  14.346
22228W        W87389  30.361  39.751  14.848
22229W        W87390   2.139  20.618   1.851
22230W        W87391  27.947   7.535  13.901
22231W        W87392  14.293   2.628  14.920
22232W        W87393   1.177   1.839  14.327
22233W        W87394  33.454  24.506   2.884
22234W        W87395   5.311   6.422   1.929
22235W        W87396   8.306  42.157  13.766
22236W        W87397  15.176  28.568   1.946
22237W        W87398  36.949  23.950  11.892
22238W        W87399  19.730  31.047   3.652
22239W        W87400   8.885   1.748   0.958
22240W        W87401   7.101  21.315   0.752
22241W        W87402   4.872   0.417  10.616
22242W        W87403   5.638   2.006   2.019
22243W        W87404   9.203  18.749   4.185
22244W        W87405  24.677   9.711  13.969
22245W        W87406  39.793   9.256  13.534
22246W        W87407  28.752  41.311   2.628
22247W        W87408  23.182  28.609  13.351
22248W        W87409  27.991   3.153   0.901
22249W        W87410  38.034  11.668  12.643
22250W        W87411   2.289  38.354  12.528
22251W        W87412  17.483   6.729  13.591
22252W        W87413  23.971  37.537   4.525
22253W        W87414   9.362   3.969   2.809
22254W        W87415   2.407   6.840   2.615
22255W        W87416  25.058  13.626  14.879
22256W        W87417  17.856  20.824   0.942
22257W        W87418  19.228   0.216  12.383
22258W        W87419   8.126  26.960   0.012
22259W        W87420  19.752  30.495  14.833
22260W        W87421  22.972  23.715  14.011
22261W        W87422  29.278  40.019  10.111
22262W        W87423  37.567   5.050  12.491
22263W        W87424   3.317   6.071  11.634
22264W        W87425  24.224  21.456   2.460
22265W        W87426  32.904   3.519  14.401
22266W        W87427  17.730   0.507  14.810
22267W        W87428  19.983  13.745  14.283
22268W        W87429  20.230  20.124   2.348
22269W        W87430   1.880  10.858   0.515
22270W        W87431  41.350   4.708   1.219
22271W        W87432   0.820  11.368  12.016
22272W        W87433  43.674  44.406  13.427
22273W        W87434   3.705   3.411   1.692
22274W        W87435  44.875  40.214   1.286
22275W        W87436  43.298  26.471  14.116
22276W        W87437  28.415  29.564   2.265
22277W        W87438  41.466  39.283  12.937
22278W        W87439  14.796  24.908   4.999
22279W        W87440   8.289  19.722  11.986
22280W        W87441  15.181  27.094  13.539
22281W        W87442   0.904  24.015  13.772
22282W        W87443  44.176  11.689   1.811
22283W        W87444   0.664  14.078  14.747
22284W        W87445  39.556  28.633  13.851
22285W        W87446  21.322  19.214   3.293
22286W        W87447  25.989  28.179  14.512
22287W        W87448  25.501  31.375  12.487
22288W        W87449  38.927  41.300  12.643
22289W        W87450  15.318  22.526  13.071
22290W        W87451  26.529  23.574   3.267
22291W        W87452  26.541  16.208  14.863
22292W        W87453  22.718   9.464  10.078
22293W        W87454  23.028   4.729   1.543
22294W        W87455  36.270   3.713   0.427
22295W        W87456  42.807  31.642   2.307
22296W        W87457   7.154  37.967   1.225
22297W        W87458  17.798  43.524  14.919
22298W        W87459  12.733  41.451   2.977
22299W        W87460  14.646  24.658   3.662
22300W        W87461  38.011  35.813  10.638
22301W        W87462  31.649  29.034  10.643
22302W        W87463  13.582  24.522  12.519
22303W        W87464  36.499  41.933   4.930
22304W        W87465   8.769  44.426   3.722
22305W        W87466  29.633  40.876   0.556
22306W        W87467  37.068  21.844  10.995
22307W        W87468   2.233  40.391   2.380
22308W        W87469  41.421  41.033  11.755
22309W        W87470   8.507   2.703  14.904
22310W        W87471   0.724  20.526  10.710
22311W        W87472  35.068   9.228  14.086
22312W        W87473  44.383  24.827   3.238
22313W        W87474  39.863   2.828  10.706
22314W        W87475  43.863  34.629   3.783
22315W        W87476  15.785  43.694   3.222
22316W        W87477  36.112  24.010  12.877
22317W        W87478  24.098  32.185   1.372
22318W        W87479  10.607  39.564   1.746
22319W        W87480   6.673  13.354  11.232
22320W        W87481   6.672  35.094  14.317
22321W        W87482  22.842  15.576  12.925
22322W        W87483   1.235  42.216  14.500
22323W        W87484  42.936  16.284  14.488
22324W        W87485  33.966  39.647   0.724
22325W        W87486   4.165  43.947   2.667
22326W        W87487  23.738  14.542   1.702
22327W        W87488   9.437  25.759   3.616
22328W        W87489   9.278   7.671   3.867
22329W        W87490  36.422  22.442   1.298
22330W        W87491   0.446  44.724  11.625
22331W        W87492   8.271  31.138   0.052
22332W        W87493  13.332  27.120  12.489
22333W        W87494  19.087  24.666  13.944
22334W        W87495   2.249  34.990  11.210
22335W        W87496  10.158  30.116   2.784
22336W        W87497  23.586  32.190  12.632
22337W        W87498  43.224  12.178  14.420
22338W        W87499  31.522  16.749  11.034
22339W        W87500   5.620   4.852   0.331
22340W        W87501  37.818  37.004  12.947
22341W        W87502  41.356  31.942  11.167
22342W        W87503  16.816   8.265   3.333
22343W        W87504  23.105  11.748   1.356
22344W        W87505  26.452  35.850  10.273
22345W        W87506  26.280  24.197  14.299
22346W        W87507  32.351  37.960  13.794
22347W        W87508  33.733  41.958   4.588
22348W        W87509  42.538  38.509  14.860
22349W        W87510  36.797  11.743  14.913
22350W        W87511  13.055  22.479   3.616
22351W        W87512  28.663  29.584  12.998
22352W        W87513  33.401  32.599   4.146
22353W        W87514   6.465  27.657   0.830
22354W        W87515  27.048  33.072  14.347
22355W        W87516  26.990  30.174   0.699
22356W        W87517  17.742  44.632  13.301
22357W        W87518  27.306  42.670  14.962
22358W        W87519   5.719  29.051   3.931
22359W        W87520  37.233  34.014   2.254
22360W        W87521  10.288  21.660  10.763
22361W        W87522  36.166  23.569   2.703
22362W        W87523  26.004  35.214  12.071
22363W        W87524  18.270  22.622  12.491
22364W        W87525  15.862  10.384   2.193
22365W        W87526  24.033  29.003  11.920
22366W        W87527  29.150   6.248   0.814
22367W        W87528  29.610  38.906  14.121
22368W        W87529  28.254  14.685  13.103
22369W        W87530  35.021  34.027  14.534
22370W        W87531   1.874   3.339   0.327
22371W        W87532  23.928   7.705   2.490
22372W        W87533   9.731  39.579  14.330
22373W        W87534  43.226  41.981  12.335
22374W        W87535  24.001  12.241  13.500
22375W        W87536  26.464   8.165  13.656
22376W        W87537   7.896  14.293  12.961
22377W        W87538   1.418  26.459  13.596
22378W        W87539  21.902  14.300   4.152
22379W        W87540  39.216  31.472  11.525
22380W        W87541  38.834  10.509  12.894
22381W        W87542  44.248   7.167  10.529
22382W        W87543  36.182   0.513   1.059
22383W        W87544   9.275  21.021   0.503
22384W        W87545  27.264  31.603  11.544
22385W        W87546  32.944  23.598  10.424
22386W        W87547  44.403  42.043  14.870
22387W        W87548  36.901  13.295   1.588
22388W        W87549  15.655   1.836   2.193
22389W        W87550  22.213  22.115  14.790
22390W        W87551   3.844  19.874  11.424
22391W        W87552  17.250  31.839  12.165
22392W        W87553  17.763   0.739  11.167
22393W        W87554  23.691  42.542   1.775
22394W        W87555  30.547   6.872  12.670
22395W        W87556  18.227  30.567   0.941
22396W        W87557   1.961   6.781   1.695
22397W        W87558  32.393   5.891  14.376
22398W        W87559  19.727  17.674  14.961
22399W        W87560  28.362  10.101  11.578
22400W        W87561  36.351  17.079  14.306
22401W        W87562  17.266   5.912  12.424
22402W        W87563  21.758  20.770  10.556
22403W        W87564  43.919  33.836  13.001
22404W        W87565  11.347  30.199   1.735
22405W        W87566  37.859   4.893  12.928
22406W        W87567  16.625  31.013   2.650
22407W        W87568   2.792   6.446   0.435
22408W        W87569   0.914  44.767  10.428
22409W        W87570   0.687  28.922   1.278
22410W        W87571  34.667   0.068  13.512
22411W        W87572  34.918  43.541  12.181
22412W        W87573  38.562  12.264   4.436
22413W        W87574  16.015  15.337  10.449
22414W        W87575  25.516  33.891  10.475
22415W        W87576  14.293  24.671   4.405
22416W        W87577  34.543  29.129  11.267
22417W        W87578  12.982  34.890  13.927
22418W        W87579  41.983  18.502  10.495
22419W        W87580  11.586   5.353   2.728
22420W        W87581  23.022  39.124  12.356
22421W        W87582  31.379  33.161   1.733
22422W        W87583   5.455  18.286  13.006
22423W        W87584  22.950  27.874   4.723
22424W        W87585  11.297  20.138   3.312
22425W        W87586  23.342  24.928   2.820
22426W        W87587  21.830  42.168  10.624
22427W        W87588  17.806  40.391  14.548
22428W        W87589  10.078  39.910  13.174
22429W        W87590  23.675   2.991  12.839
22430W        W87591  29.213   9.431   1.337
22431W        W87592  39.073  24.954   0.287
22432W        W87593   1.823  34.847  11.416
22433W        W87594  17.816  28.520  11.115
22434W        W87595  42.946  16.043   2.634
22435W        W87596   3.413  38.805   0.907
22436W        W87597  16.254  35.427  11.590
22437W        W87598  41.005  32.929   1.324
22438W        W87599  42.941  28.675   2.758
22439W        W87600   8.333  19.268  14.857
22440W        W87601  42.486   3.221   4.660
22441W        W87602  21.096   2.235  13.815
22442W        W87603  22.503  44.244   4.118
22443W        W87604  35.027  15.232  10.409
22444W        W87605   3.691  26.264  14.371
22445W        W87606  32.167   4.012   2.879
22446W        W87607  34.429  41.155  10.523
22447W        W87608  42.315  29.311   1.728
22448W        W87609  35.149  15.164   3.035
22449W        W87610  33.708  21.928   4.361
22450W        W87611  42.701  21.436   0.451
22451W        W87612  23.544  39.882  13.810
22452W        W87613  27.893  31.059   3.643
22453W        W87614  23.204  29.041   4.689
22454W        W87615  12.574  24.878   4.540
22455W        W87616  27.884  15.114  13.897
22456W        W87617  19.561  17.863   4.580
22457W        W87618  37.107  14.383  11.515
22458W        W87619  36.098  37.572   4.154
22459W        W87620  30.656  17.137   0.723
22460W        W87621  25.471  23.097  14.043
22461W        W87622   6.793  26.890  14.365
22462W        W87623   8.918   8.084   4.997
22463W        W87624  30.683   1.476   3.671
22464W        W87625   6.223   9.481   3.866
22465W        W87626  32.881  15.552  12.177
22466W        W87627  37.801  41.057  13.393
22467W        W87628  36.123  36.064  10.880
22468W        W87629  10.655  21.612   4.104
22469W        W87630  38.627   7.663   1.283
22470W        W87631  10.777   9.436   3.763
22471W        W87632  28.471  27.441   1.218
22472W        W87633  24.525  30.891   3.141
22473W        W87634  38.130  32.373   4.374
22474W        W87635  41.538  28.092  13.958
22475W        W87636   5.001  36.841   4.152
22476W        W87637  24.627  13.798  12.494
22477W        W87638   8.747   3.855   2.340
22478W        W87639  21.139  33.640  13.457
22479W        W87640  38.274   1.355   1.830
22480W        W87641  10.556  27.064   1.826
22481W        W87642   8.811   8.902  12.061
22482W        W87643   6.841   3.216  11.055
22483W        W87644  25.765  16.823  10.178
22484W        W87645  11.613  41.530  12.454
22485W        W87646  28.382  27.511  11.128
22486W        W87647  11.804  41.045  14.359
22487W        W87648   0.173  22.693   4.704
22488W        W87649  38.849  34.885   1.889
22489W        W87650  19.313  35.212   0.936
22490W        W87651  31.474  36.867  11.636
22491W        W87652   1.269  15.907   0.660
22492W        W87653  11.892   2.386   0.366
22493W        W87654  19.105  10.757   4.659
22494W        W87655  15.250  38.929   0.040
22495W        W87656   6.417  14.421  14.807
22496W        W87657   7.777  28.261   2.392
22497W        W87658  23.984  15.879   1.715
22498W        W87659  27.157  42.500   4.293
22499W        W87660  32.652  42.107   3.631
22500W        W87661  22.153  17.732  12.159
22501W        W87662  44.207   9.857   2.260
22502W        W87663  29.794  17.570   0.850
22503W        W87664  33.009  18.577   1.787
22504W        W87665  42.967  20.104  14.572
22505W        W87666  31.696  10.696   4.179
22506W        W87667  28.558  14.743   0.197
22507W        W87668  42.851   3.961  13.998
22508W        W87669  29.764   3.025   1.228
22509W        W87670   6.950  44.874   4.501
22510W        W87671  24.534  25.124   0.892
22511W        W87672  37.362  24.465   1.264
22512W        W87673  21.744  42.304  12.489
22513W        W87674  42.297  16.405  14.938
22514W        W87675   2.314   3.864   3.890
22515W        W87676  23.972  38.312   3.210
22516W        W87677  22.725  19.079  12.930
22517W        W87678  32.060  44.789  14.304
22518W        W87679   0.982   7.754   2.717
22519W        W87680  21.684   0.432   1.377
22520W        W87681  28.699  22.171   0.165
22521W        W87682  24.508   3.695  12.016
22522W        W87683   2.326   4.522   0.049
22523W        W87684  42.732   1.975   1.823
22524W        W87685  32.305  43.153  14.002
22525W        W87686   8.852  41.097   2.302
22526W        W87687   8.937  29.242   2.737
22527W        W87688  39.004  36.561  14.741
22528W        W87689  12.076  36.045  14.432
22529W        W87690   1.384  33.810  13.474
22530W        W87691  10.093  36.446  13.975
22531W        W87692  39.268   0.054  14.030
22532W        W87693  20.485  39.577  11.635
22533W        W87694  41.367   7.897   1.318
22534W        W87695  25.027  23.407  14.942
22535W        W87696   3.591  21.618  12.044
22536W        W87697   4.052  21.824  10.696
22537W        W87698  33.521   5.265  12.171
22538W        W87699   6.477  41.744   2.610
22539W        W87700  22.024  35.934   3.734
22540W        W87701  42.499  42.418  14.891
22541W        W87702  20.837   5.929   0.724
22542W        W87703  18.751  19.171   0.240
22543W        W87704  32.027  44.486   3.877
22544W        W87705  15.203  44.859  11.603
22545W        W87706  19.558  14.215   0.651
22546W        W87707  39.109  40.305  14.837
22547W        W87708  25.788  27.497  10.636
22548W        W87709  44.740  21.702   4.535
22549W        W87710  10.453  32.556   3.651
22550W        W87711   2.272  20.111   1.173
22551W        W87712  32.432  31.563   4.705
22552W        W87713  27.201  35.283  13.352
22553W        W87714  11.191  10.189  12.373
22554W        W87715   9.861   7.632   1.184
22555W        W87716  17.072  22.217   4.120
22556W        W87717  12.892  44.197   4.138
22557W        W87718  15.093   8.277   1.788
22558W        W87719   0.683  43.725  12.516
22559W        W87720  13.541  12.386  12.067
22560W        W87721  36.624  13.602  14.875
22561W        W87722  23.919  43.975  13.566
22562W        W87723  19.707  39.803   1.679
22563W        W87724  39.954  41.569  13.989
22564W        W87725   9.634   5.281  13.419
22565W        W87726  41.874  33.243   4.574
22566W        W87727   6.817   9.194  14.872
22567W        W87728   8.416  16.883  12.868
22568W        W87729  29.920  14.273   3.884
22569W        W87730   5.273  44.707  11.975
22570W        W87731  18.735  29.420   2.216
22571W        W87732   1.322  19.179   2.316
22572W        W87733  23.871  40.950   0.788
22573W        W87734   0.885  26.631   1.979
22574W        W87735  17.275  14.709  10.816
22575W        W87736   9.732  17.745   1.349
22576W        W87737  15.918  12.166  12.498
22577W        W87738  24.126  29.396   3.831
22578W        W87739  21.100  13.297   4.944
22579W        W87740  40.802   3.981  12.832
22580W        W87741  27.636  19.641  10.597
22581W        W87742  21.644  20.104   1.914
22582W        W87743  13.278  18.224   4.268
22583W        W87744   6.485  41.817  14.510
22584W        W87745  32.505  28.581   0.403
22585W        W87746   2.349  25.461   2.781
22586W        W87747   2.335  43.983   2.386
22587W        W87748  14.254  33.149   4.595
22588W        W87749  27.131   4.923   3.736
22589W        W87750   6.475  37.722   5.007
22590W        W87751  14.680  31.006   4.889
22591W        W87752  12.732   5.671  12.987
22592W        W87753  43.467  17.534  13.853
22593W        W87754  12.373  29.144  13.041
22594W        W87755  20.611  36.169  14.238
22595W        W87756  24.111  10.583   2.686
22596W        W87757  31.212  38.966  11.429
22597W        W87758   3.265  23.014   3.539
22598W        W87759  22.144  43.872   3.317
22599W        W87760  41.892  36.576   0.761
22600W        W87761  41.319   9.617  11.982
22601W        W87762  31.024  10.708   2.894
22602W        W87763   7.519  35.402   3.018
22603W        W87764   9.390  38.026   1.197
22604W        W87765  10.424  30.683   9.915
22605W        W87766  17.670   9.581  11.074
22606W        W87767  15.616  10.712   4.341
22607W        W87768  39.067   7.606   4.510
22608W        W87769  26.571  22.765  13.125
22609W        W87770  17.020   8.234  12.010
22610W        W87771  17.615  16.186  14.727
22611W        W87772  10.557   8.759   3.324
22612W        W87773  14.151   3.746  14.006
22613W        W87774  24.746  15.635   3.850
22614W        W87775  14.571  27.172  13.008
22615W        W87776  33.327   6.708  12.984
22616W        W87777  28.784  31.062   1.491
22617W        W87778  32.052   1.534  13.808
22618W        W87779  22.364   1.220   3.754
22619W        W87780   8.658  26.973   0.779
22620W        W87781  15.622  11.266   1.186
22621W        W87782  41.405  30.408  12.863
22622W        W87783  25.077  30.996   4.471
22623W        W87784  31.742  31.994   4.992
22624W        W87785  23.454  20.501   1.604
22625W        W87786  31.231  44.022   4.036
22626W        W87787  37.995  40.374  14.761
22627W        W87788  36.119  42.298  13.529
22628W        W87789  25.970  37.498  13.519
22629W        W87790  28.275   1.866   0.789
22630W        W87791  20.559  17.728   0.829
22631W        W87792  11.492   2.730  12.075
22632W        W87793   6.305  10.293   4.603
22633W        W87794  24.431  44.015  13.439
22634W        W87795  36.555  43.113   0.796
22635W        W87796  24.297   5.630   1.382
22636W        W87797  31.968  17.784  14.378
22637W        W87798  13.791  38.985   1.812
22638W        W87799  11.775  38.329   0.900
22639W        W87800  23.253  40.544  13.348
22640W        W87801  40.926  25.473   0.189
22641W        W87802  19.653  26.047   4.874
22642W        W87803  33.068  40.859   1.291
22643W        W87804  12.123   5.495  14.323
22644W        W87805  12.071  12.222  10.757
22645W        W87806  32.695   1.977   2.336
22646W        W87807  23.543  15.050   3.869
22647W        W87808  26.998  14.658  14.273
22648W        W87809  15.167  42.652   2.213
22649W        W87810   9.368  27.691   0.943
22650W        W87811  21.422  42.904   4.919
22651W        W87812  19.717  17.543  12.644
22652W        W87813  43.740  13.309  14.728
22653W        W87814   4.254  26.214  13.040
22654W        W87815  25.969  22.497   3.310
22655W        W87816  29.970   2.699   1.757
22656W        W87817  18.349  39.844  11.298
22657W        W87818  26.119  30.976   0.391
22658W        W87819  40.052  40.565  13.861
22659W        W87820   1.454   1.032  11.131
22660W        W87821  39.708  19.279  14.881
22661W        W87822   5.307  16.639   4.379
22662W        W87823  39.988  36.974   3.283
22663W        W87824  20.745   6.610  13.163
22664W        W87825  22.079  15.452   2.876
22665W        W87826   5.763  21.068  12.567
22666W        W87827  15.361  31.616  12.049
22667W        W87828   5.639  34.505  12.492
22668W        W87829  17.678  33.502   3.425
22669W        W87830  35.114   2.991   2.627
22670W        W87831  13.358   2.375  12.037
22671W        W87832  42.627  23.171  14.901
22672W        W87833  16.101   2.883  12.993
22673W        W87834   4.254  29.954   3.068
22674W        W87835  38.550  27.019   4.122
22675W        W87836  16.650  18.626  10.986
22676W        W87837   4.236  10.598   2.716
22677W        W87838  13.877  36.053   2.387
22678W        W87839  33.966  18.323  11.168
22679W        W87840   8.292  23.286   0.871
22680W        W87841  10.678  32.013  14.355
22681W        W87842  10.874   6.836  11.461
22682W        W87843  42.151  39.610  14.506
22683W        W87844  23.038  15.858   4.761
22684W        W87845   5.753  31.929   0.925
22685W        W87846  10.188  27.870  10.778
22686W        W87847  12.760   5.727  10.745
22687W        W87848   2.905   5.392   2.264
22688W        W87849  19.617  43.528   0.946
22689W        W87850   0.459   4.191  14.447
22690W        W87851  27.266  28.872  10.808
22691W        W87852  42.394  15.208   3.396
22692W        W87853  38.377  11.791   0.090
22693W        W87854  18.515   2.814   1.873
22694W        W87855  24.744  44.557  11.473
22695W        W87856   9.372   2.434  11.606
22696W        W87857  19.561  21.936  12.093
22697W        W87858  30.578  11.346   2.765
22698W        W87859  22.689   8.800  13.814
22699W        W87860  30.835  26.125  13.419
22700W        W87861  37.127  28.130  13.741
22701W        W87862  40.289  41.293  10.765
22702W        W87863   5.168  10.173   0.027
22703W        W87864  21.486  24.269  11.649
22704W        W87865  35.546  33.653  11.009
22705W        W87866  35.137  27.113  10.868
22706W        W87867  31.744   4.687  12.468
22707W        W87868   7.911  16.763  14.088
22708W        W87869   1.421   1.421   3.255
22709W        W87870  38.433  15.528  13.135
22710W        W87871  20.252   7.820   4.515
22711W        W87872  42.273   5.328   0.225
22712W        W87873   1.538   4.419   0.821
22713W        W87874  26.968  40.968  11.655
22714W        W87875  11.652  40.236  14.001
22715W        W87876   0.350   3.027  13.879
22716W        W87877  11.918  41.434  12.007
22717W        W87878  28.890  42.897   0.469
22718W        W87879  20.787  34.449  10.722
22719W        W87880  39.954  21.373  11.125
22720W        W87881  35.943  36.318   1.022
22721W        W87882  38.418  39.443  12.965
22722W        W87883  13.193  23.633  11.189
22723W        W87884  35.255   8.845  13.068
22724W        W87885  38.041  28.224   2.915
22725W        W87886  38.855  32.445   2.329
22726W        W87887  15.648  21.189   0.745
22727W        W87888  44.668  26.770   4.130
22728W        W87889  44.259  28.214  13.354
22729W        W87890  11.952  10.679   0.789
22730W        W87891  14.808  37.965   0.239
22731W        W87892  18.201  16.747   1.740
22732W        W87893  15.253   7.320   2.170
22733W        W87894  29.431  15.215   0.342
22734W        W87895  23.910  25.507   2.342
22735W        W87896  32.892  11.291   4.100
22736W        W87897  12.987  31.034   1.013
22737W        W87898  23.042  25.023   3.277
22738W        W87899   3.848   2.309   2.202
22739W        W87900   4.051  32.920  14.935
22740W        W87901  38.514  16.770  14.774
22741W        W87902  26.360   3.314   1.633
22742W        W87903  13.833   4.733  11.568
22743W        W87904  21.615  11.860  11.028
22744W        W87905  43.250  28.956   4.220
22745W        W87906   4.300  34.516   2.034
22746W        W87907  24.327  18.676   5.046
22747W        W87908   0.803   2.863  12.062
22748W        W87909  27.753  22.632   2.495
22749W        W87910   6.807  19.886  13.065
22750W        W87911  39.328   8.731   1.984
22751W        W87912   3.307  26.688   0.053
22752W        W87913  10.466  34.459  14.420
22753W        W87914  36.307  24.155   4.598
22754W        W87915   0.864   2.891  13.905
22755W        W87916  39.945  10.246   0.944
22756W        W87917   8.844   9.451   4.011
22757W        W87918  12.054  23.454  14.076
22758W        W87919  12.330   3.614   2.222
22759W        W87920   6.466   5.337   2.116
22760W        W87921  43.086  26.027  13.279
22761W        W87922  37.271  26.071   2.338
22762W        W87923  20.116  24.190   2.162
22763W        W87924  28.299  24.628   3.204
22764W        W87925   9.105  20.058  11.126
22765W        W87926  41.056   4.484   0.839
22766W        W87927  26.190   6.685  12.221
22767W        W87928  29.408   4.407  10.683
22768W        W87929  39.683  38.434   4.227
22769W        W87930  21.762   2.857  11.605
22770W        W87931  33.690   5.022  13.937
22771W        W87932  39.658  31.969   0.886
22772W        W87933  44.323  16.270  10.704
22773W        W87934  38.547   1.824  13.207
22774W        W87935   1.249  15.572   4.124
22775W        W87936  16.534  27.544  14.508
22776W        W87937   2.427  37.351   2.449
22777W        W87938  39.030  27.890   0.110
22778W        W87939  28.146  40.054  14.861
22779W        W87940  31.926   5.154   1.044
22780W        W87941  32.215  11.164   1.361
22781W        W87942  11.780  28.204  13.538
22782W        W87943  41.824  18.639   0.924
22783W        W87944  30.932  10.775  14.825
22784W        W87945  39.918   7.349   4.177
22785W        W87946  25.601  37.374   5.308
22786W        W87947   9.172   0.911   4.764
22787W        W87948  31.990  13.349   3.986
22788W        W87949  12.856  16.058  12.017
22789W        W87950  20.545   5.645  13.074
22790W        W87951  41.866  37.783  12.117
22791W        W87952  31.767  28.052  12.215
22792W        W87953   1.946   0.386  11.654
22793W        W87954   5.738  32.923  12.987
22794W        W87955  14.870  32.989   4.777
22795W        W87956  19.567  29.663   4.186
22796W        W87957   6.789  43.439   4.633
22797W        W87958  26.701  42.967  13.612
22798W        W87959   3.922  33.634   3.669
22799W        W87960  18.662   2.315  11.603
22800W        W87961  17.818  41.757  13.051
22801W        W87962  38.833   5.252  14.391
22802W        W87963   9.178  12.968  12.017
22803W        W87964  25.178  12.605   3.392
22804W        W87965  22.593  23.718  10.574
22805W        W87966  16.253  22.109  14.803
22806W        W87967  37.939  27.614  12.464
22807W        W87968  26.829  26.538   1.344
22808W        W87969  28.023   4.789  10.475
22809W        W87970  34.975  11.130  13.303
22810W        W87971  34.485  25.779   0.788
22811W        W87972  19.975   9.288   1.577
22812W        W87973  14.208  38.706  13.166
22813W        W87974  27.524  23.365   4.506
22814W        W87975  14.674   2.539  14.022
22815W        W87976   3.431  11.864   4.242
22816W        W87977  29.079  11.879   2.726
22817W        W87978  20.944   6.785   3.190
22818W        W87979   1.361  19.042   4.584
22819W        W87980  20.280  11.610  11.007
22820W        W87981  36.083  22.911  14.597
22821W        W87982  37.679  26.934   4.300
22822W        W87983  27.427  11.067  12.110
22823W        W87984   4.691   3.561   4.140
22824W        W87985  28.038  24.081   4.904
22825W        W87986  43.406  11.741   0.688
22826W        W87987  44.339   2.170  13.971
22827W        W87988  18.748   2.790  12.709
22828W        W87989  16.061  26.667   3.517
22829W        W87990  32.760  39.055   2.826
22830W        W87991  14.608   8.428   1.767
22831W        W87992  33.831   2.666  12.314
22832W        W87993   3.231  31.644   0.906
22833W        W87994   8.262   4.863   4.888
22834W        W87995  36.084  18.695   4.214
22835W        W87996  36.763   0.277   2.751
22836W        W87997  15.170  31.320   3.632
22837W        W87998  32.429  27.509   1.746
22838W        W87999  21.549   4.418   3.872
22839W        W88000  23.290  36.941   1.872
22840W        W88001  10.981   2.989   4.165
22841W        W88002  24.964  14.876   3.698
22842W        W88003  44.322  39.181   1.006
22843W        W88004   1.712  12.058  12.430
22844W        W88005  18.279  21.243  10.778
22845W        W88006  10.366  37.565  13.407
22846W        W88007  25.488  37.973   3.202
22847W        W88008  44.400  41.525  13.073
22848W        W88009   8.690  21.092  10.864
22849W        W88010  14.037  14.658  10.646
22850W        W88011  24.000  27.899  11.101
22851W        W88012  24.291  33.421  13.911
22852W        W88013  36.091  44.915  13.378
22853W        W88014  37.992  40.659   2.858
22854W        W88015  40.544   3.208   1.014
22855W        W88016  28.048   3.593  11.414
22856W        W88017  35.525  41.427   4.350
22857W        W88018  38.892  28.184  13.317
22858W        W88019  37.426  35.418  12.896
22859W        W88020   6.457  25.118  10.628
22860W        W88021  28.475  39.512   0.976
22861W        W88022  18.895  39.253   4.978
22862W        W88023  44.931   1.103  12.155
22863W        W88024   8.375   3.588   0.742
22864W        W88025  38.620  24.454   0.799
22865W        W88026  25.567  22.149   3.051
22866W        W88027  23.067  23.760   0.665
22867W        W88028  33.037   8.471   4.153
22868W        W88029  33.188  12.770   2.854
22869W        W88030  16.650   5.978   2.412
22870W        W88031  17.010  33.549  12.560
22871W        W88032   1.483  15.880  11.207
22872W        W88033  15.136  28.033   0.372
22873W        W88034  27.133  42.946  10.711
22874W        W88035  28.106  10.796   1.983
22875W        W88036   1.817  18.826  14.054
22876W        W88037  27.613  44.528   2.610
22877W        W88038  19.372  21.186  10.211
22878W        W88039  27.242  39.890  10.094
22879W        W88040  21.414  34.163   4.837
22880W        W88041  34.084   2.238   1.689
22881W        W88042  23.705   4.425  12.133
22882W        W88043  27.695  39.964  14.033
22883W        W88044   2.888  24.135   3.610
22884W        W88045  31.195  44.371  11.951
22885W        W88046  38.110   0.004  13.476
22886W        W88047  36.524  37.143   3.042
22887W        W88048  35.457  31.923   5.001
22888W        W88049   9.293   3.679   4.129
22889W        W88050   4.015  41.979  12.511
22890W        W88051   7.873  34.943   4.570
22891W        W88052  28.390  24.962  11.151
22892W        W88053  41.768  30.925  13.960
22893W        W88054  36.036  25.028   0.494
22894W        W88055  14.422  43.884   0.464
22895W        W88056   2.375  24.242   1.450
22896W        W88057  15.197  29.481   1.483
22897W        W88058  14.085  27.553  14.785
22898W        W88059  36.858  20.826   1.817
22899W        W88060  15.281   2.309  14.760
22900W        W88061  18.230   9.550  12.005
22901W        W88062  27.414  26.842  12.603
22902W        W88063  29.444  22.761  14.733
22903W        W88064  36.831   1.678  11.426
22904W        W88065   5.354  42.865  10.101
22905W        W88066  44.966  17.671  10.676
22906W        W88067  38.244  13.648  11.543
22907W        W88068   3.001  28.145   0.177
22908W        W88069  33.159   2.229  12.509
22909W        W88070  12.886  43.803  10.582
22910W        W88071   4.343  28.458  14.329
22911W        W88072  28.214  10.332  12.057
22912W        W88073   0.582  28.770  12.055
22913W        W88074  38.548  11.838   1.929
22914W        W88075  23.200   8.752  13.026
22915W        W88076   6.012   1.775   2.936
22916W        W88077   1.035  10.397  11.041
22917W        W88078   8.177  33.975  12.933
22918W        W88079   4.041  21.257  10.870
22919W        W88080   2.927  20.481   3.486
22920W        W88081   1.416  37.894  14.414
22921W        W88082   8.951   0.933  11.079
22922W        W88083  38.395   5.237  10.498
22923W        W88084  42.954  24.605   2.311
22924W        W88085  38.073  29.943  11.989
22925W        W88086  32.340  39.554   2.275
22926W        W88087  29.953  26.990   1.862
22927W        W88088  28.139  11.801  13.356
22928W        W88089   5.669  12.885  10.580
22929W        W88090   8.228  18.784   4.226
22930W        W88091  20.092  41.713  12.155
22931W        W88092  26.382   8.269   3.168
22932W        W88093  23.245  11.366   2.848
22933W        W88094  11.177  14.946   4.222
22934W        W88095  35.949  25.043   3.865
22935W        W88096  26.568  27.203  13.778
22936W        W88097   1.249  17.290  13.942
22937W        W88098  35.522  18.108   0.388
22938W        W88099  14.019  29.484   4.990
22939W        W88100  31.021  37.867   4.030
22940W        W88101  37.249  14.967  14.434
22941W        W88102  27.699  22.737  11.093
22942W        W88103  40.699  42.048  13.481
22943W        W88104  25.240  19.318  13.586
22944W        W88105  34.999  29.157  11.986
22945W        W88106   4.884  19.022  12.942
22946W        W88107  11.412  19.181   3.191
22947W        W88108  15.376  43.721  13.525
22948W        W88109  12.733  40.396  14.318
22949W        W88110  39.267  26.246  14.241
22950W        W88111  21.305  17.214   4.777
22951W        W88112  32.697  22.016  11.050
22952W        W88113   5.857  25.022   2.450
22953W        W88114  18.565  27.626  12.626
22954W        W88115   5.800  27.273   4.767
22955W        W88116  21.002  44.924  13.980
22956W        W88117  40.013  36.225   4.492
22957W        W88118  29.927   6.784  14.128
22958W        W88119  18.338  30.985  12.498
22959W        W88120  31.480  42.675  13.802
22960W        W88121  32.667   9.418  12.051
22961W        W88122  30.066  25.645   0.615
22962W        W88123  33.227  12.606   4.087
22963W        W88124  34.958  23.240  10.774
22964W        W88125  31.721   3.829   3.084
22965W        W88126  35.908   1.274  13.096
22966W        W88127  28.025   0.378   3.409
22967W        W88128  37.874  19.700  12.021
22968W        W88129  39.585   3.188  10.451
22969W        W88130  32.946  13.087   0.671
22970W        W88131  23.627  39.553   3.771
22971W        W88132  22.118  29.079  10.735
22972W        W88133  20.090  15.706   0.386
22973W        W88134  44.357  10.889  11.185
22974W        W88135  22.514  13.116   0.777
22975W        W88136  27.625  14.844   4.071
22976W        W88137  21.665  44.386   1.412
22977W        W88138  22.553  34.141   3.178
22978W        W88139   0.337  39.758   2.693
22979W        W88140  16.453  44.820   4.494
22980W        W88141  18.649   5.151  12.663
22981W        W88142   8.446  35.167   0.089
22982W        W88143   7.881  27.498   3.764
22983W        W88144  39.309  29.378  10.727
22984W        W88145  33.569  10.305  10.954
22985W        W88146  18.085   1.563   0.439
22986W        W88147  14.872  37.348   4.179
22987W        W88148  44.463   6.821  11.151
22988W        W88149  22.096  41.922   3.306
22989W        W88150  38.750   8.161   3.207
22990W        W88151   6.541  44.366  13.369
22991W        W88152  30.991  21.004   4.568
22992W        W88153   4.840  22.961   2.693
22993W        W88154   2.182  13.219  11.192
22994W        W88155  25.446  32.083  12.528
22995W        W88156  25.699  39.509   2.343
22996W        W88157  12.750  11.187   0.782
22997W        W88158  39.531  32.167   3.238
22998W        W88159  17.995  43.056  14.719
22999W        W88160   5.650   8.422  13.262
23000W        W88161   1.105  19.630  13.870
23001W        W88162  37.214  13.677   4.801
23002W        W88163  33.584  43.947  13.830
23003W        W88164  17.207  35.903   0.312
23004W        W88165   2.830  11.247  13.574
23005W        W88166  31.969  10.962  11.537
23006W        W88167   4.805  33.072  12.609
23007W        W88168  16.694   9.416  13.434
23008W        W88169   5.415  43.084  12.011
23009W        W88170  24.481   8.109   0.736
23010W        W88171  37.008  40.769  10.322
23011W        W88172  25.582   9.412   9.774
23012W        W88173  22.538  26.709  11.679
23013W        W88174  44.460  20.525   4.752
23014W        W88175   0.325  17.066   1.728
23015W        W88176   3.373  11.263   2.829
23016W        W88177  22.327  17.329   1.310
23017W        W88178  30.520  20.676   0.782
23018W        W88179  43.045  42.576   1.887
23019W        W88180   8.295  24.618   1.353
23020W        W88181  14.801  16.692  13.793
23021W        W88182  35.066  29.530   1.518
23022W        W88183  44.633  42.397   4.702
23023W        W88184   0.411  38.387  13.584
23024W        W88185  21.233  42.875  12.767
23025W        W88186  38.654  23.959  10.802
23026W        W88187  39.278  26.900  14.789
23027W        W88188   7.571  11.643   1.851
23028W        W88189  38.194  34.502  12.906
23029W        W88190   4.231   6.402  11.923
23030W        W88191  31.884  18.328  10.348
23031W        W88192  18.836  10.377  11.231
23032W        W88193  14.337  39.399   9.844
23033W        W88194  41.503   5.661  12.481
23034W        W88195  21.732  19.765  11.820
23035W        W88196   2.508  41.788  13.227
23036W        W88197  12.410  44.696  11.964
23037W        W88198  42.902  19.509  13.024
23038W        W88199  38.968  44.016   3.292
23039W        W88200   7.286  36.267   1.437
23040W        W88201  10.691  28.935   4.379
23041W        W88202  13.362  20.682   2.004
23042W        W88203  24.273   2.908  11.664
23043W        W88204  40.419  14.100   0.872
23044W        W88205  32.772  36.022   3.079
23045W        W88206  32.782  43.782  13.191
23046W        W88207  21.973  11.712   2.443
23047W        W88208  40.546  22.439   5.000
23048W        W88209  31.740  44.025  11.642
23049W        W88210   3.013  36.771   3.686
23050W        W88211  10.301  15.196  14.012
23051W        W88212  30.786  38.532   2.835
23052W        W88213  42.386  23.617  14.983
23053W        W88214  28.479  25.135  14.496
23054W        W88215  16.050  43.208  13.956
23055W        W88216  10.682   0.008   4.667
23056W        W88217  41.862   5.699  12.091
23057W        W88218  20.313   6.147   2.512
23058W        W88219   1.294  19.715   2.361
23059W        W88220  38.042   8.850  10.842
23060W        W88221  22.189  25.606   1.840
23061W        W88222  16.915  15.600   4.484
23062W        W88223  24.511  27.164  14.883
23063W        W88224  21.085  25.171  12.565
23064W        W88225  34.480  19.408   1.286
23065W        W88226  27.434  28.876  12.098
23066W        W88227  35.164   4.796  13.350
23067W        W88228  23.031   4.360   1.180
23068W        W88229   9.946  10.484   1.058
23069W        W88230  14.353  29.091  12.142
23070W        W88231  18.084  37.110   1.566
23071W        W88232  20.624  38.861  11.079
23072W        W88233  13.782   8.333  10.781
23073W        W88234  14.792   5.890   4.946
23074W        W88235  21.751  35.893   3.315
23075W        W88236   2.322  26.721   0.485
23076W        W88237  33.975   7.479   0.764
23077W        W88238  35.034  16.925  13.385
23078W        W88239  22.779  18.364  13.836
23079W        W88240   1.291  18.363   0.793
23080W        W88241  19.726   7.145   3.698
23081W        W88242  40.770  22.525  12.263
23082W        W88243  36.164  38.843   1.928
23083W        W88244  21.020  23.789  14.002
23084W        W88245  30.039   4.851  13.957
23085W        W88246  40.443  34.946   0.382
23086W        W88247  35.570   7.831   1.258
23087W        W88248  42.252  17.774  10.982
23088W        W88249  39.334  16.629   3.337
23089W        W88250  25.394  13.732  13.011
23090W        W88251  12.831  19.307   3.071
23091W        W88252   8.930  22.353   1.586
23092W        W88253  25.196  42.233  12.522
23093W        W88254  16.632  43.922  11.530
23094W        W88255  27.053  34.017   4.236
23095W        W88256  18.877  39.200   1.646
23096W        W88257  33.521   0.581  10.699
23097W        W88258  35.605  38.082  11.473
23098W        W88259  17.539   0.590   0.448
23099W        W88260  24.131  36.817  10.230
23100W        W88261   4.000  25.000   2.200
23101W        W88262  23.625  32.324  13.553
23102W        W88263  17.010  13.615   2.391
23103W        W88264  20.355   1.225  14.381
23104W        W88265   2.685  42.423  12.425
23105W        W88266  40.509  26.051  11.920
23106W        W88267  39.288  34.638  12.599
23107W        W88268  22.277  12.089   2.233
23108W        W88269  19.626  39.554   2.713
23109W        W88270  19.685   4.717   0.787
23110W        W88271  40.643  11.232  10.811
23111W        W88272  40.515   3.857  13.581
23112W        W88273   4.222   3.506  10.210
23113W        W88274  20.742  23.632  10.686
23114W        W88275   7.329  11.606   0.714
23115W        W88276   9.678  41.035  11.549
23116W        W88277  35.905  26.531   2.742
23117W        W88278  24.528  14.989  14.211
23118W        W88279  12.590  26.495  13.757
23119W        W88280  30.124  33.549   3.199
23120W        W88281  34.337   6.908   4.019
23121W        W88282  20.785   7.771   3.245
23122W        W88283  17.605  33.057   2.279
23123W        W88284  19.569  27.742  11.591
23124W        W88285  23.997  39.255   1.398
23125W        W88286  29.061  28.489  11.518
23126W        W88287  41.358   5.762   0.480
23127W        W88288  21.185  26.015  11.197
23128W        W88289   9.666  27.463   2.235
23129W        W88290  15.514  40.360   2.609
23130W        W88291   4.984  10.838   1.288
23131W        W88292  21.092  11.338  10.723
23132W        W88293  43.230   8.206   3.962
23133W        W88294   5.339  44.704   3.206
23134W        W88295   5.737  20.552  13.654
23135W        W88296  26.209  25.598   2.057
23136W        W88297   1.457  23.495   2.390
23137W        W88298  19.274  17.078   0.750
23138W        W88299  14.071  36.828   2.950
23139W        W88300  12.873  36.115   4.227
23140W        W88301   4.836  42.708  14.856
23141W        W88302  13.198  11.639   1.450
23142W        W88303  30.440  23.786  14.058
23143W        W88304  17.548  24.555  14.015
23144W        W88305  24.231  24.000   0.413
23145W        W88306  18.201  17.488   2.767
23146W        W88307  10.244   6.614   0.596
23147W        W88308  43.806   8.752   3.707
23148W        W88309  43.893   1.408   4.615
23149W        W88310   2.652  42.487  10.520
23150W        W88311  25.222  28.828  13.042
23151W        W88312  32.048  18.976  12.125
23152W        W88313   1.115  37.485  10.701
23153W        W88314   8.880  31.618   3.697
23154W        W88315   0.872  19.745   3.495
23155W        W88316  35.996  27.715   0.976
23156W        W88317   1.792  25.647  12.829
23157W        W88318   2.333  40.946  11.478
23158W        W88319  11.920  11.872  12.471
23159W        W88320  10.651  34.445  11.475
23160W        W88321  37.986  13.700   2.934
23161W        W88322  30.911  21.542   0.181
23162W        W88323   2.470   1.803   1.812
23163W        W88324   3.287   6.781   4.329
23164W        W88325  43.851  39.964   3.899
23165W        W88326  37.401  42.685  14.197
23166W        W88327  17.080  36.039  13.312
23167W        W88328  15.511   1.906   4.534
23168W        W88329  17.357  31.350  11.683
23169W        W88330   8.365   5.377   2.268
23170W        W88331   5.733  15.358  11.641
23171W        W88332  18.673  29.621  12.470
23172W        W88333  24.591  26.519   1.187
23173W        W88334   3.166  26.814   2.288
23174W        W88335  22.766   0.615  14.372
23175W        W88336  43.829  23.135   2.912
23176W        W88337  41.589  26.024  13.409
23177W        W88338   6.576   9.748  13.914
23178W        W88339  44.409  33.118   0.857
23179W        W88340   0.405  27.449  14.533
23180W        W88341  16.578   6.225   4.667
23181W        W88342  36.828  23.369   3.477
23182W        W88343  16.746   6.697  14.168
23183W        W88344   8.855  38.492   2.624
23184W        W88345   8.135  35.897   4.153
23185W        W88346  15.541  13.312  14.432
23186W        W88347  26.103  32.482   0.984
23187W        W88348  19.341   0.810   1.030
23188W        W88349   0.908  13.645  14.325
23189W        W88350  26.952  35.408  13.826
23190W        W88351  34.361   0.293   2.742
23191W        W88352  36.924  34.952  13.096
23192W        W88353  17.595  12.336   3.158
23193W        W88354  39.917  22.540   4.834
23194W        W88355  31.367  13.548  11.139
23195W        W88356  16.207  19.212  14.353
23196W        W88357   1.977  12.275  12.042
23197W        W88358   2.694   1.848   0.827
23198W        W88359  23.656  25.229  11.163
23199W        W88360  37.636  19.649  13.937
23200W        W88361  38.400  36.124  10.902
23201W        W88362  26.290   3.371  13.892
23202W        W88363  33.126  29.677   4.936
23203W        W88364  38.544  42.514   0.292
23204W        W88365  14.016  28.914  13.910
23205W        W88366  28.734  27.487  14.916
23206W        W88367  29.831  32.550   1.232
23207W        W88368  16.047  16.219  12.589
23208W        W88369  44.142  24.190  12.883
23209W        W88370   7.409  13.857  10.662
23210W        W88371  17.139  37.888   1.489
23211W        W88372  14.848  32.015   1.342
23212W        W88373  18.533   2.986  10.631
23213W        W88374   0.269  41.104   0.375
23214W        W88375   1.524  26.594   0.744
23215W        W88376   5.526   7.374  12.411
23216W        W88377   3.743  29.693   1.925
23217W        W88378  11.265  35.348   4.221
23218W        W88379  12.949  13.839   3.149
23219W        W88380  28.387  27.803   4.119
23220W        W88381   6.794   1.190  12.947
23221W        W88382  10.040  12.480   1.466
23222W        W88383  39.423  24.004  13.245
23223W        W88384  37.960   7.518  11.091
23224W        W88385   5.224   5.035  11.593
23225W        W88386  23.976  43.375   0.421
23226W        W88387  16.246  24.084  10.627
23227W        W88388   4.281  43.961  11.389
23228W        W88389  16.242  21.466  11.618
23229W        W88390  18.644  26.051   0.618
23230W        W88391  34.693  34.610   3.752
23231W        W88392  10.653   0.881   2.836
23232W        W88393   9.914  42.402   2.179
23233W        W88394  35.140  28.652  14.878
23234W        W88395  20.975  43.800  14.851
23235W        W88396  23.811   8.769  13.861
23236W        W88397  20.837  28.947  14.280
23237W        W88398   7.180   1.513   1.298
23238W        W88399  44.900  20.147   0.003
23239W        W88400  41.477  10.272   9.845
23240W        W88401  18.894  26.137   3.170
23241W        W88402   9.912  20.175  10.607
23242W        W88403   9.667  20.716  14.037
23243W        W88404  21.230   3.917  13.313
23244W        W88405  35.661  41.216  12.997
23245W        W88406  33.528  30.719   4.131
23246W        W88407   4.435  12.841   2.307
23247W        W88408  13.867   8.009   3.856
23248W        W88409  10.184  42.772  11.994
23249W        W88410  20.478   2.785   4.931
23250W        W88411  37.493  35.636  11.899
23251W        W88412  29.483   1.062  14.305
23252W        W88413   7.893  38.104   4.103
23253W        W88414  16.529  44.579   9.805
23254W        W88415  19.022   1.754   1.765
23255W        W88416  32.494  24.455  10.636
23256W        W88417  31.948  13.078  11.056
23257W        W88418  43.451  32.263  13.822
23258W        W88419  36.898   0.824  11.380
23259W        W88420  36.077  43.783  12.643
23260W        W88421  27.619   4.454   2.172
23261W        W88422  16.112  29.596   3.202
23262W        W88423  22.555  17.049   1.910
23263W        W88424   0.936  10.016  11.430
23264W        W88425  35.900  31.043  11.423
23265W        W88426  28.625  19.451   3.282
23266W        W88427  19.038  12.149   3.287
23267W        W88428   7.135  44.492   1.962
23268W        W88429  15.809  33.437  14.779
23269W        W88430   8.742  12.144  12.157
23270W        W88431  22.817  14.156  10.544
23271W        W88432   4.199  15.004   2.793
23272W        W88433  39.431  26.093   2.390
23273W        W88434  14.092  37.064   3.436
23274W        W88435  21.745  29.049   1.830
23275W        W88436  23.245  40.773   3.381
23276W        W88437  26.886   6.844   2.400
23277W        W88438  29.603  33.046   0.417
23278W        W88439   7.187  14.143  13.814
23279W        W88440  41.743  12.780   3.813
23280W        W88441  40.843  39.809   0.245
23281W        W88442  40.840  44.176   3.779
23282W        W88443  30.004  39.899  13.485
23283W        W88444   9.646   6.187  13.577
23284W        W88445  32.511  34.944   4.201
23285W        W88446  39.928  18.641   3.315
23286W        W88447  23.945  15.658  14.742
23287W        W88448  39.180  17.755  11.173
23288W        W88449  30.545  15.411   3.803
23289W        W88450  21.518  40.022  10.107
23290W        W88451  13.113   1.665  13.533
23291W        W88452  28.550  41.904   0.030
23292W        W88453  41.956  17.485  10.684
23293W        W88454  43.555  24.339   4.885
23294W        W88455   0.397  41.267   3.686
23295W        W88456  30.042  20.087   3.737
23296W        W88457  32.963  16.338  14.142
23297W        W88458  19.000  30.527   1.508
23298W        W88459  10.931  43.361   1.482
23299W        W88460  26.484  39.192  10.384
23300W        W88461  10.967   0.186  12.450
23301W        W88462  38.353   2.156   2.676
23302W        W88463  19.731  33.817  13.752
23303W        W88464  34.601  33.086  10.648
23304W        W88465  19.624  18.042   2.944
23305W        W88466  24.880  19.509   4.059
23306W        W88467  36.805  32.441   1.272
23307W        W88468  10.730  42.033  11.995
23308W        W88469   2.500   7.160  10.381
23309W        W88470  35.511  44.046   4.098
23310W        W88471  33.557  32.156   1.868
23311W        W88472  22.547  24.493   1.739
23312W        W88473  27.792   1.819  12.460
23313W        W88474  14.588  28.080   0.457
23314W        W88475  11.238  16.316   4.091
23315W        W88476  24.160  35.496   3.818
23316W        W88477   6.346  42.067  12.624
23317W        W88478  15.874  11.547  12.016
23318W        W88479  29.000  37.949   4.688
23319W        W88480  33.068  41.674  11.075
23320W        W88481  16.784   6.781   1.159
23321W        W88482  40.830  34.842  14.321
23322W        W88483  26.434   3.810  14.544
23323W        W88484  22.402  11.470   2.274
23324W        W88485  27.976  25.587  13.799
23325W        W88486  33.094   0.232  12.533
23326W        W88487  43.930  35.641  12.175
23327W        W88488  33.715  11.027   2.373
23328W        W88489  42.099   8.315   0.856
23329W        W88490  16.564  20.074   1.185
23330W        W88491  42.343  34.209  14.691
23331W        W88492  14.094  17.532   4.202
23332W        W88493  34.686  17.477  13.023
23333W        W88494  16.334   9.829  12.151
23334W        W88495  41.409  26.459  13.121
23335W        W88496  18.580  28.519   2.780
23336W        W88497  16.194  24.939   3.167
23337W        W88498  32.220   0.932  10.653
23338W        W88499   3.678  29.776   2.447
23339W        W88500  27.557  41.992   2.676
23340W        W88501   8.689  12.357  14.315
23341W        W88502  41.998   4.909   4.144
23342W        W88503   7.337  15.334   0.789
23343W        W88504  41.892  40.311  11.238
23344W        W88505  23.841  12.602  13.847
23345W        W88506  23.447  41.402  11.173
23346W        W88507   5.706  15.252  14.521
23347W        W88508  22.596  33.751   5.028
23348W        W88509  19.690  43.767  14.654
23349W        W88510  11.058  38.954   2.873
23350W        W88511  36.722  43.521   4.459
23351W        W88512  13.597  34.333   1.803
23352W        W88513  33.538  39.287  13.983
23353W        W88514   8.854   5.580   2.314
23354W        W88515   3.685   1.389  14.340
23355W        W88516  34.609  14.087   1.042
23356W        W88517  37.436  23.557  14.797
23357W        W88518  12.981  44.432  12.803
23358W        W88519  42.967   3.726   2.976
23359W        W88520   1.304   0.528   4.227
23360W        W88521  13.319  12.113   2.411
23361W        W88522   1.317   6.923  11.923
23362W        W88523  26.581  18.823   1.279
23363W        W88524  24.668   1.858   5.177
23364W        W88525  34.801  42.127   2.236
23365W        W88526  44.288  34.087   4.239
23366W        W88527  38.945   6.575  11.949
23367W        W88528  24.031  39.241  14.930
23368W        W88529  14.284  13.123  14.840
23369W        W88530  33.487  12.718   3.268
23370W        W88531   6.216  35.917   4.163
23371W        W88532  11.873  39.086  13.341
23372W        W88533   1.488  31.131  14.462
23373W        W88534  17.160  38.749   0.392
23374W        W88535  37.817  40.844   4.576
23375W        W88536  43.888  39.007  10.696
23376W        W88537  15.264   5.796   0.184
23377W        W88538   9.146  44.534  14.761
23378W        W88539  25.671  13.111  14.494
23379W        W88540   7.182  19.318   2.411
23380W        W88541  21.651  31.673   0.001
23381W        W88542  19.273  36.265   2.276
23382W        W88543  16.300  43.608  13.422
23383W        W88544   6.866  29.957  10.800
23384W        W88545  18.463   9.766   2.395
23385W        W88546  28.409  11.797   0.379
23386W        W88547  15.842  30.171   0.309
23387W        W88548  35.800  41.090  14.190
23388W        W88549  22.129  34.640   1.719
23389W        W88550   9.823   6.644   4.154
23390W        W88551  23.727  31.110  13.943
23391W        W88552  24.880  36.827   4.303
23392W        W88553  39.062   0.841   0.213
23393W        W88554   5.713  39.103   1.395
23394W        W88555  39.305  29.988  13.311
23395W        W88556  21.957   4.686   4.064
23396W        W88557  29.909  44.075  14.597
23397W        W88558  24.770  32.200   0.329
23398W        W88559  13.725   9.308  10.715
23399W        W88560  33.857  37.540   1.765
23400W        W88561  18.876  15.148  12.918
23401W        W88562  17.993  10.844   0.081
23402W        W88563  39.373  26.456   2.785
23403W        W88564  15.199   8.196   0.865
23404W        W88565  31.849  40.463   2.400
23405W        W88566   0.867  10.193   3.617
23406W        W88567  35.872  44.682   0.712
23407W        W88568  24.609  10.189   3.256
23408W        W88569  29.218  26.240   0.485
23409W        W88570  29.090  40.052  13.097
23410W        W88571  26.751   4.424   1.010
23411W        W88572  12.897  23.702   0.398
23412W        W88573  28.651  28.057  13.447
23413W        W88574  27.092   3.328   0.522
23414W        W88575  38.306   2.169   1.276
23415W        W88576  16.106  13.787   3.645
23416W        W88577  16.655  30.752   1.605
23417W        W88578   5.361  32.996  11.498
23418W        W88579  43.051  26.192   2.763
23419W        W88580   3.257  23.466  14.400
23420W        W88581   2.564  27.833   9.867
23421W        W88582  21.255  37.710  10.174
23422W        W88583  32.976   0.703  13.811
23423W        W88584   1.779  10.426  12.396
23424W        W88585  21.912  27.809  11.618
23425W        W88586   1.311   1.301  11.536
23426W        W88587  30.962  37.744  10.755
23427W        W88588  13.015  39.742  12.482
23428W        W88589  39.571  16.044  12.060
23429W        W88590  11.578  28.416   1.891
23430W        W88591  26.250   5.386  14.847
23431W        W88592  13.344  29.663   3.649
23432W        W88593  36.878   1.558  13.168
23433W        W88594   0.864   4.809   2.548
23434W        W88595  11.124  29.639  12.884
23435W        W88596   3.813   0.703  10.023
23436W        W88597  36.870  43.035   0.159
23437W        W88598  25.581  16.162  11.973
23438W        W88599  30.975  35.049   4.623
23439W        W88600  22.586  13.711  12.287
23440W        W88601  12.755  25.460  13.493
23441W        W88602  38.775   7.603   0.410
23442W        W88603  29.271  29.618   4.594
23443W        W88604  14.146  41.194  10.143
23444W        W88605  16.717  43.152  10.621
23445W        W88606  11.493  11.789  10.714
23446W        W88607  28.056  28.499  12.524
23447W        W88608  37.868  10.937  14.950
23448W        W88609  39.023  21.704  13.449
23449W        W88610  12.138   9.180   3.964
23450W        W88611  14.763  15.652  11.466
23451W        W88612   4.358  30.526   3.222
23452W        W88613  38.496  18.056   2.206
23453W        W88614  35.454   6.072   0.505
23454W        W88615  16.264  10.262  11.847
23455W        W88616  11.778  40.948  11.836
23456W        W88617  40.980   8.684   3.470
23457W        W88618  23.142  40.379   0.889
23458W        W88619  10.132  42.316  12.549
23459W        W88620  33.718  40.959  11.977
23460W        W88621  41.990  18.005  10.614
23461W        W88622   3.911  17.551  12.952
23462W        W88623  41.296  44.687   0.287
23463W        W88624  27.132  26.942   1.363
23464W        W88625  23.993   8.015  14.783
23465W        W88626   8.329  11.466   3.385
23466W        W88627  44.163  13.250   1.000
23467W        W88628   1.181  39.021  14.185
23468W        W88629  29.953   0.887  14.470
23469W        W88630  37.956  41.035   1.268
23470W        W88631   5.345  41.437  14.916
23471W        W88632  38.694   0.346   4.006
23472W        W88633  23.639  17.146   4.914
23473W        W88634  12.980   9.164  11.180
23474W        W88635  37.481  12.872   0.943
23475W        W88636  33.792   9.386   2.287
23476W        W88637  32.050  16.161   2.935
23477W        W88638  23.973  18.552  10.789
23478W        W88639   4.671  32.540   2.325
23479W        W88640   8.153   6.294   1.233
23480W        W88641  33.403  40.265   2.472
23481W        W88642  11.330  31.689  12.075
23482W        W88643  21.625  39.324   1.844
23483W        W88644  18.879  18.848   1.783
23484W        W88645  39.601  43.532   2.286
23485W        W88646   1.314   5.893   2.797
23486W        W88647  30.523  13.203  11.531
23487W        W88648  44.758   0.206  12.316
23488W        W88649   3.300  12.865   0.891
23489W        W88650   6.866   1.889  12.091
23490W        W88651  27.912  43.731   2.814
23491W        W88652   2.923  24.184   0.852
23492W        W88653  10.787   8.793   1.852
23493W        W88654  28.486  28.603  14.330
23494W        W88655   8.855  28.120   4.633
23495W        W88656  39.015   8.023   1.309
23496W        W88657  27.755   9.159   4.095
23497W        W88658  35.146   4.238  13.102
23498W        W88659  10.680  12.396   0.107
23499W        W88660  38.379  35.052   3.113
23500W        W88661   1.462  10.797   5.144
23501W        W88662   5.664  24.674  10.218
23502W        W88663   5.660  15.237   9.997
23503W        W88664   9.426  35.959   3.609
23504W        W88665  15.093  17.192   4.068
23505W        W88666  15.926  36.612  11.999
23506W        W88667  17.418  38.730   1.759
23507W        W88668  13.073  27.474  10.829
23508W        W88669   3.190   1.369  13.467
23509W        W88670  15.815   8.038   2.356
23510W        W88671  31.651  33.125  12.436
23511W        W88672  18.507  29.434   0.820
23512W        W88673  13.030  39.107  12.465
23513W        W88674  36.570  32.355   3.260
23514W        W88675  16.045  33.416  12.481
23515W        W88676  11.149  33.737   0.855
23516W        W88677  20.239  10.320   4.101
23517W        W88678  26.771  13.699  13.296
23518W        W88679   7.163  39.045  13.011
23519W        W88680  15.492  31.432   3.228
23520W        W88681  37.926  21.651   3.570
23521W        W88682  29.768  27.557   4.692
23522W        W88683   5.031  20.164   4.057
23523W        W88684  27.676  21.233  13.928
23524W        W88685  13.151   0.909   3.533
23525W        W88686   7.786  43.045   1.905
23526W        W88687  30.205   2.168   0.387
23527W        W88688  23.484  21.089  12.884
23528W        W88689  41.504  29.173   2.118
23529W        W88690  41.162   3.142  14.852
23530W        W88691  27.605  40.983   0.390
23531W        W88692  15.147   6.373   3.702
23532W        W88693  24.845  44.929  13.386
23533W        W88694   4.848  35.849   0.012
23534W        W88695  44.659  13.839   0.238
23535W        W88696  10.700  38.492   4.228
23536W        W88697  42.496   2.032   3.185
23537W        W88698   9.440  35.378  12.050
23538W        W88699  41.768  20.693  14.170
23539W        W88700  19.012  11.685  14.014
23540W        W88701  30.065  22.210   5.469
23541W        W88702  23.347  26.245  11.561
23542W        W88703  24.697  42.472  11.237
23543W        W88704  16.128  31.093   2.377
23544W        W88705  20.282  32.914   0.898
23545W        W88706  32.823  37.820  10.699
23546W        W88707   9.505  25.108  11.509
23547W        W88708  20.958   3.304  12.641
23548W        W88709  41.967  13.682  14.547
23549W        W88710  16.961  20.218  10.682
23550W        W88711  34.881  42.120  12.012
23551W        W88712   5.270  40.355  12.258
23552W        W88713   2.738  42.131  12.864
23553W        W88714  38.279   0.800  12.082
23554W        W88715  23.981  32.293   3.283
23555W        W88716  11.331  29.509  13.866
23556W        W88717  38.354  37.506   4.607
23557W        W88718  43.883  25.285  10.898
23558W        W88719  17.554   7.163  14.876
23559W        W88720  11.166   8.414   1.858
23560W        W88721   8.044  44.609  10.312
23561W        W88722  25.009   3.393  10.717
23562W        W88723   9.875  28.151   3.822
23563W        W88724  13.506  20.265   2.241
23564W        W88725  28.190  43.895  11.563
23565W        W88726  14.832  10.856   0.980
23566W        W88727   5.461   9.711   3.096
23567W        W88728  18.615  43.811   0.736
23568W        W88729  27.404  40.045  12.370
23569W        W88730  29.352  18.276  10.683
23570W        W88731   7.189  24.241  12.472
23571W        W88732   5.086   0.207  11.946
23572W        W88733  33.147  39.241  14.394
23573W        W88734  40.934   1.493   2.276
23574W        W88735   9.751  17.025   4.775
23575W        W88736  11.278  22.234  14.766
23576W        W88737  14.297  14.604  12.458
23577W        W88738  14.302  35.513   3.360
23578W        W88739   5.249  23.848   3.731
23579W        W88740  39.072  38.939   3.332
23580W        W88741   7.336  10.300   1.442
23581W        W88742  33.856  39.632   3.625
23582W        W88743  29.429  27.440   4.298
23583W        W88744  23.377  27.545  13.917
23584W        W88745  27.574  20.072   1.547
23585W        W88746  19.931   7.868   1.249
23586W        W88747  42.471   0.945   4.752
23587W        W88748  19.598  34.531   3.014
23588W        W88749  31.408  24.595   0.780
23589W        W88750  44.750  42.489  10.709
23590W        W88751  23.311  28.139   0.900
23591W        W88752  14.112   1.267   0.671
23592W        W88753  43.732  23.132   0.528
23593W        W88754  37.949   8.737   1.797
23594W        W88755  35.075  42.280   1.825
23595W        W88756  43.549  35.086   0.671
23596W        W88757  39.871  10.646   3.831
23597W        W88758   0.193  19.703  10.664
23598W        W88759  24.645  35.219  10.622
23599W        W88760  41.921   1.375  10.767
23600W        W88761  21.901  29.388   4.533
23601W        W88762  20.719   0.295   1.347
23602W        W88763  14.787   2.318  13.582
23603W        W88764   5.270  39.274   1.684
23604W        W88765  26.569  18.813   3.880
23605W        W88766  21.494  28.438   4.591
23606W        W88767  38.894  40.946   0.854
23607W        W88768  44.097  41.240   0.983
23608W        W88769   4.908  37.354   0.936
23609W        W88770  37.091  32.346   3.296
23610W        W88771  14.877  26.134   2.182
23611W        W88772   6.797   8.842  11.208
23612W        W88773  26.628   9.851  12.102
23613W        W88774   6.858  40.733   4.149
23614W        W88775  18.586  28.817   0.249
23615W        W88776  34.111  32.010   2.324
23616W        W88777   5.824   7.815  12.436
23617W        W88778  43.789  15.561   2.331
23618W        W88779  16.308  15.204   1.207
23619W        W88780  23.667  35.621   0.354
23620W        W88781   1.618  11.628  11.536
23621W        W88782  33.647  44.631  13.201
23622W        W88783   0.400  39.331   2.227
23623W        W88784  17.771  22.268  11.536
23624W        W88785  18.578  34.876  13.528
23625W        W88786   6.523  22.852  13.626
23626W        W88787  32.061  30.037  11.973
23627W        W88788   8.156   6.568   1.708
23628W        W88789  22.660   2.975  11.084
23629W        W88790   5.724  27.249  11.105
23630W        W88791  10.621  43.933  12.964
23631W        W88792  26.232   5.944   1.439
23632W        W88793  15.263  11.740  14.231
23633W        W88794   9.790  32.012  11.559
23634W        W88795  11.154   1.736   4.775
23635W        W88796  38.421  42.591  12.425
23636W        W88797   8.359   8.845  13.022
23637W        W88798  44.559  40.540   2.791
23638W        W88799  25.640  33.960  11.843
23639W        W88800   6.326   1.980   4.516
23640W        W88801   6.856   3.426  13.068
23641W        W88802  22.528  30.397  11.680
23642W        W88803  25.596   2.843  11.409
23643W        W88804  36.554   8.518   2.241
23644W        W88805  12.035  21.171   3.604
23645W        W88806  35.101  44.106   3.242
23646W        W88807   4.696   9.628   4.964
23647W        W88808  13.709  35.988   2.882
23648W        W88809  32.350  37.397  14.305
23649W        W88810  16.366   2.863   3.249
23650W        W88811  15.089  21.676  14.135
23651W        W88812  38.484  11.333   4.701
23652W        W88813   5.394  37.835   3.700
23653W        W88814  22.496  19.562   1.007
23654W        W88815  40.394  33.159  10.842
23655W        W88816  35.387  12.964   0.715
23656W        W88817  15.149  19.517  13.865
23657W        W88818   7.192  32.811  12.847
23658W        W88819  20.540   9.658   0.717
23659W        W88820  44.424  28.835  11.528
23660W        W88821  41.508  35.015  11.986
23661W        W88822  36.266   3.378   0.019
23662W        W88823   4.205  42.402  12.269
23663W        W88824  25.171   4.879  12.632
23664W        W88825  14.104  28.211   2.828
23665W        W88826  15.296  31.439   0.768
23666W        W88827   1.483  25.708   4.538
23667W        W88828  26.980  32.902   1.796
23668W        W88829   9.220  38.465  10.581
23669W        W88830  26.913  11.943   2.304
23670W        W88831  31.419  39.451   2.285
23671W        W88832  10.836  23.503   1.811
23672W        W88833  10.821  15.076  10.696
23673W        W88834  31.388  31.058  14.791
23674W        W88835  37.108  20.227   3.325
23675W        W88836  34.514   4.064  13.706
23676W        W88837  15.690  35.678   2.662
23677W        W88838  14.094   1.821   0.636
23678W        W88839  32.458  16.730  12.053
23679W        W88840   4.349  13.914   1.348
23680W        W88841  19.842  37.994   4.115
23681W        W88842  25.297  20.553   4.633
23682W        W88843  22.703  43.060  13.065
23683W        W88844  42.857   7.485   1.382
23684W        W88845  18.248  32.383  14.372
23685W        W88846   5.811  26.858  12.076
23686W        W88847  30.431  37.765  14.834
23687W        W88848  44.861  19.295  12.194
23688W        W88849  13.176   9.406  13.987
23689W        W88850   8.869  31.498  11.234
23690W        W88851   0.110  24.636  14.475
23691W        W88852  18.835  25.470  14.313
23692W        W88853   0.269  27.006   2.929
23693W        W88854  20.921   8.575   4.207
23694W        W88855  27.433   5.327  12.311
23695W        W88856  22.036   5.509   4.496
23696W        W88857   3.848   8.073  11.589
23697W        W88858  22.589  32.172   1.670
23698W        W88859   0.781  36.746  14.957
23699W        W88860  38.074  15.706   4.628
23700W        W88861  29.991   1.287  11.606
23701W        W88862  25.911  19.600   1.457
23702W        W88863  28.428  35.891  12.050
23703W        W88864  13.147  44.886  11.521
23704W        W88865  24.220  34.076  11.545
23705W        W88866  34.030  30.297   1.172
23706W        W88867   8.141  29.982   0.921
23707W        W88868  28.491   4.213   1.608
23708W        W88869  27.555  10.713  14.207
23709W        W88870  42.321  15.183  14.591
23710W        W88871  25.793  21.627   9.576
23711W        W88872  41.873  23.121   4.727
23712W        W88873  10.856  16.736   2.289
23713W        W88874  30.536   5.695   1.760
23714W        W88875  31.618  27.593   3.782
23715W        W88876  28.560  38.867  13.008
23716W        W88877  34.426  22.389  10.107
23717W        W88878  41.499  44.461  14.863
23718W        W88879  41.277  11.423  11.562
23719W        W88880   2.387  27.154  10.562
23720W        W88881  11.314  19.730  11.704
23721W        W88882  37.546   7.281  13.086
23722W        W88883  29.720   6.715   0.381
23723W        W88884  34.950   5.935   0.337
23724W        W88885  36.519  32.124  11.134
23725W        W88886  17.000   3.551   4.042
23726W        W88887  22.603  18.560  14.663
23727W        W88888  10.525  42.534  14.460
23728W        W88889  16.172  23.983   4.093
23729W        W88890  29.106  42.297   3.165
23730W        W88891  44.438  23.961  11.979
23731W        W88892   0.986  35.335  11.544
23732W        W88893  31.898   5.965  14.414
23733W        W88894  31.979   1.253  11.188
23734W        W88895  27.504   2.252  12.504
23735W        W88896  17.518   2.950  12.022
23736W        W88897  15.537  18.533   5.551
23737W        W88898  43.316  27.457  10.516
23738W        W88899  12.803  16.165   0.196
23739W        W88900   3.653   7.803  13.306
23740W        W88901  29.198  38.714   4.070
23741W        W88902  20.430   6.774   3.208
23742W        W88903  40.250  26.708  11.898
23743W        W88904   6.259  23.489  14.400
23744W        W88905  39.376  23.161  11.666
23745W        W88906  36.115  44.928   4.545
23746W        W88907  42.703  31.208   1.833
23747W        W88908  31.965  23.947  14.119
23748W        W88909  24.957  23.246  13.233
23749W        W88910  35.479  26.581   0.370
23750W        W88911  43.801  23.928   2.441
23751W        W88912   5.840   5.059  14.909
23752W        W88913   2.700  37.186   1.571
23753W        W88914  13.797  18.011  11.895
23754W        W88915  26.039  40.104   5.566
23755W        W88916  38.585  30.784  12.425
23756W        W88917  41.463   5.362   0.792
23757W        W88918   1.779  18.098  13.347
23758W        W88919  35.050  24.778   5.144
23759W        W88920  27.746   9.938  11.076
23760W        W88921  38.956  22.311   2.280
23761W        W88922  32.055   6.255  12.829
23762W        W88923  19.119  21.104   2.194
23763W        W88924  42.524   3.668  12.881
23764W        W88925  19.949  44.102  11.068
23765W        W88926  19.551  39.752  11.729
23766W        W88927  36.479  35.624  13.366
23767W        W88928   2.468   1.830  11.142
23768W        W88929   8.330  20.155  13.173
23769W        W88930   5.865  39.263   4.693
23770W        W88931  39.801  42.109   3.238
23771W        W88932  28.485  32.674  12.602
23772W        W88933  41.311   9.640  12.988
23773W        W88934  34.970  31.729  11.378
23774W        W88935  25.392  31.938   5.170
23775W        W88936   7.289  15.384  10.568
23776W        W88937   2.903   2.085   1.731
23777W        W88938  10.319  16.341   1.454
23778W        W88939  25.072   5.918   2.283
23779W        W88940  13.622   8.870  11.883
23780W        W88941  41.419  37.565  11.290
23781W        W88942  16.631  12.870   2.149
23782W        W88943  12.315  43.248   2.167
23783W        W88944   6.480  10.045   1.324
23784W        W88945  22.542  27.108   2.315
23785W        W88946  22.811   7.602  14.300
23786W        W88947  42.749  30.157  13.058
23787W        W88948   7.264  14.878  10.597
23788W        W88949  42.474  33.433   4.396
23789W        W88950  32.283  37.923  12.920
23790W        W88951   2.863  44.126  12.015
23791W        W88952  19.346   9.141  11.399
23792W        W88953  26.276  43.450   0.741
23793W        W88954   8.729  10.132   1.795
23794W        W88955  17.282  11.302  13.801
23795W        W88956   1.046  12.388   0.451
23796W        W88957  28.219  13.663   4.455
23797W        W88958  15.476  44.237  13.484
23798W        W88959  22.035   3.293  11.644
23799W        W88960  29.868  10.111  13.140
23800W        W88961  11.165  36.879   0.410
23801W        W88962   7.231  36.589   3.749
23802W        W88963   8.670  41.855  12.079
23803W        W88964   5.779  15.360   1.812
23804W        W88965  24.068  18.549   4.567
23805W        W88966  25.255  18.306   4.086
23806W        W88967  27.890  24.056  10.214
23807W        W88968  13.379  17.814  11.110
23808W        W88969  10.581  37.745   4.965
23809W        W88970  39.091  41.264   1.398
23810W        W88971  30.967  20.992  13.894
23811W        W88972   8.229   4.727  12.103
23812W        W88973  25.929  31.958  13.842
23813W        W88974  17.711  40.970   1.841
23814W        W88975   8.288  18.386  12.870
23815W        W88976  44.879   7.132  11.125
23816W        W88977  13.295  19.089   1.167
23817W        W88978   9.687  33.725   2.588
23818W        W88979  11.805  35.343   0.489
23819W        W88980  22.074  18.247   4.634
23820W        W88981  36.087  37.430   4.645
23821W        W88982  42.568   8.669  14.822
23822W        W88983   5.065   7.201   2.406
23823W        W88984   9.631  33.424   1.648
23824W        W88985   7.684  31.269  13.802
23825W        W88986  38.630  42.437   1.173
23826W        W88987  36.699  25.671   1.159
23827W        W88988   6.801  44.880   0.927
23828W        W88989  19.285  15.255   0.261
23829W        W88990   0.495  34.049   0.910
23830W        W88991  13.294  33.045  12.568
23831W        W88992  22.122  14.834   4.497
23832W        W88993   1.109  16.907  12.628
23833W        W88994  41.159   7.905  12.420
23834W        W88995   8.789  39.934   4.584
23835W        W88996  35.558  32.623  11.964
23836W        W88997  31.989  37.949  11.114
23837W        W88998  32.753  18.570   3.708
23838W        W88999  21.393  13.384  12.491
23839W        W89000   0.288  37.380   2.289
23840W        W89001  13.440   1.335   4.728
23841W        W89002   1.829  25.678  14.854
23842W        W89003  41.978  19.509   4.529
23843W        W89004  25.471  18.026  13.792
23844W        W89005   8.840  20.665   0.970
23845W        W89006  23.722   0.223   1.741
23846W        W89007  19.161  27.447   4.752
23847W        W89008  13.606  23.931  14.865
23848W        W89009  29.972  37.921   2.770
23849W        W89010  23.214   0.170   1.892
23850W        W89011   5.342  27.527   4.763
23851W        W89012  35.543  17.669  13.350
23852W        W89013  17.757  38.956   3.741
23853W        W89014   5.216  38.072   2.130
23854W        W89015  18.040   0.544   0.236
23855W        W89016   7.583   2.476  13.432
23856W        W89017  27.624   2.018  12.934
23857W        W89018  39.753  17.573  14.741
23858W        W89019  28.730   2.704   2.838
23859W        W89020  37.868  11.137   0.768
23860W        W89021  34.399  20.102   3.638
23861W        W89022  31.158   0.302   0.271
23862W        W89023  31.636   1.330  12.489
23863W        W89024   4.128  40.813   3.789
23864W        W89025  28.130   4.437  11.714
23865W        W89026  16.815  29.457  14.230
23866W        W89027  11.857  25.438  10.583
23867W        W89028  40.555  13.594  14.420
23868W        W89029  11.526   8.303   0.901
23869W        W89030  33.176  26.465  14.896
23870W        W89031  11.555   9.138  10.968
23871W        W89032  20.260  44.012   0.372
23872W        W89033  31.106  31.226  12.271
23873W        W89034  40.508  43.256  14.269
23874W        W89035  36.487  39.710   5.254
23875W        W89036  38.977  14.781  12.143
23876W        W89037  13.267  16.212   1.051
23877W        W89038  11.459  43.263   1.670
23878W        W89039  26.507  16.312  11.974
23879W        W89040  24.174  16.358   1.846
23880W        W89041   1.519   1.521  13.957
23881W        W89042  26.537  19.101  14.004
23882W        W89043   4.701  15.078   3.657
23883W        W89044  37.521  37.030  14.440
23884W        W89045   3.240   9.165   1.990
23885W        W89046  16.156  24.831  14.875
23886W        W89047   5.748  10.200  12.120
23887W        W89048  26.108  18.275   0.947
23888W        W89049  10.716  11.764   1.312
23889W        W89050  20.248  28.821   1.279
23890W        W89051   7.774  30.342  14.060
23891W        W89052  32.859   3.373   2.358
23892W        W89053  25.662   9.737  10.187
23893W        W89054   3.711   1.493  12.851
23894W        W89055  21.924  12.369  13.728
23895W        W89056  20.645  29.856  10.657
23896W        W89057  21.191   1.878   2.309
23897W        W89058  37.296  41.401   2.775
23898W        W89059  16.821  27.314   2.248
23899W        W89060  33.105  16.231   0.605
23900W        W89061  41.568  24.065   4.897
23901W        W89062  19.543   5.395  10.411
23902W        W89063   5.804  19.651  12.697
23903W        W89064  43.255  32.431  14.758
23904W        W89065   4.002  22.615   0.501
23905W        W89066  14.059  40.028  11.297
23906W        W89067  12.853  23.067   0.666
23907W        W89068  19.525  30.019  13.138
23908W        W89069  29.687   3.533  13.853
23909W        W89070   1.302  17.611  14.456
23910W        W89071  12.320  23.165  13.729
23911W        W89072  30.445  40.603  13.820
23912W        W89073  12.637  33.947   1.389
23913W        W89074   6.509  22.036  11.458
23914W        W89075   5.133  16.630   3.916
23915W        W89076  19.561  41.948  13.342
23916W        W89077  36.545   4.419  13.773
23917W        W89078  13.783  40.836  10.293
23918W        W89079  15.397   6.912  14.344
23919W        W89080  27.694  37.463   3.604
23920W        W89081  19.599  40.530  13.566
23921W        W89082  32.587   7.681  12.649
23922W        W89083  11.361  30.420  14.403
23923W        W89084  32.480  35.398   2.978
23924W        W89085  40.832  42.757  11.399
23925W        W89086  31.108  18.246  14.611
23926W        W89087  22.416  34.634   2.774
23927W        W89088  29.818   4.897  12.823
23928W        W89089  34.819   1.943  11.898
23929W        W89090  19.616  42.627   0.412
23930W        W89091   9.883  44.018   1.032
23931W        W89092  35.669  17.251   1.923
23932W        W89093  11.316  22.132   0.289
23933W        W89094   2.882   0.781  14.851
23934W        W89095   4.782  41.139  11.450
23935W        W89096  35.994  21.899  13.796
23936W        W89097  29.529  16.078   4.436
23937W        W89098   0.507   5.909   0.949
23938W        W89099   4.792   8.985   1.171
23939W        W89100   1.433   6.142  14.069
23940W        W89101   2.732  44.404   1.698
23941W        W89102  11.286  15.855   2.130
23942W        W89103  13.683  26.964   2.794
23943W        W89104   0.441  21.376   1.146
23944W        W89105   9.139  25.492   2.705
23945W        W89106  16.318  35.572   1.020
23946W        W89107  18.742  39.661  11.605
23947W        W89108   6.535  44.337  12.469
23948W        W89109  28.449   3.225   2.786
23949W        W89110  30.687  27.555  10.727
23950W        W89111   4.426  41.400  14.886
23951W        W89112  25.041  24.937  13.687
23952W        W89113  18.305  39.382  10.662
23953W        W89114  15.813  27.938   3.855
23954W        W89115  44.782  18.152   4.813
23955W        W89116  37.685  39.153  12.468
23956W        W89117  22.556   1.900   9.701
23957W        W89118  22.776  19.902  10.293
23958W        W89119  15.352  26.527   0.298
23959W        W89120  43.215  14.032   3.364
23960W        W89121  22.829  28.681  12.652
23961W        W89122  38.954  36.127   1.627
23962W        W89123   9.681  25.762   0.342
23963W        W89124  31.546  26.728  13.941
23964W        W89125  35.397  23.192   1.343
23965W        W89126  36.042  33.090   2.238
23966W        W89127  16.778  14.622  14.991
23967W        W89128  19.465  44.186  14.433
23968W        W89129  12.671  21.751   3.343
23969W        W89130  35.959  31.093   2.202
23970W        W89131  11.604   3.384   0.803
23971W        W89132  39.869  11.024  11.256
23972W        W89133  16.106   0.524   2.820
23973W        W89134   5.832  33.529   1.917
23974W        W89135   9.451   9.904  12.038
23975W        W89136  42.016  43.156   3.646
23976W        W89137  27.128  20.222   4.649
23977W        W89138  22.805  13.380   0.450
23978W        W89139  10.773   3.721  13.901
23979W        W89140  41.758  21.197   0.416
23980W        W89141   2.315  34.332   0.972
23981W        W89142  15.723  36.098   1.251
23982W        W89143  37.765   5.352   4.305
23983W        W89144  30.374   1.244   0.293
23984W        W89145   3.165  14.912  14.347
23985W        W89146  26.435   8.273  11.643
23986W        W89147  32.707  24.741   3.197
23987W        W89148   7.815  11.153   0.480
23988W        W89149   3.384  21.229   3.502
23989W        W89150  32.965  33.971   1.770
23990W        W89151  33.063  10.209   3.591
23991W        W89152  23.197   7.957   1.395
23992W        W89153  42.078   7.621   0.263
23993W        W89154  22.131  32.505  12.165
23994W        W89155  13.512  21.196   5.004
23995W        W89156  33.484  11.321   3.378
23996W        W89157  25.062  42.020   0.354
23997W        W89158  22.570  18.380   1.683
23998W        W89159  35.482  33.965  14.786
23999W        W89160   4.163   7.247  12.112
24000W        W89161  12.277  37.768   2.318
24001W        W89162   7.072  36.384  12.078
24002W        W89163   4.487  14.900  14.746
24003W        W89164   0.317  39.368   3.606
24004W        W89165  29.253  12.654   4.704
24005W        W89166  13.389   1.204   3.178
24006W        W89167   9.321  32.953  14.311
24007W        W89168  12.596  34.513  10.739
24008W        W89169  44.172  24.248  14.933
24009W        W89170   3.297  10.410  10.643
24010W        W89171  32.363   2.541  14.951
24011W        W89172  27.020  26.077  12.108
24012W        W89173  11.258  35.893  12.198
24013W        W89174   0.561  26.373  12.043
24014W        W89175  10.329   6.874  14.626
24015W        W89176   8.540  10.020   0.825
24016W        W89177  19.278  32.002  13.603
24017W        W89178  35.865  39.504  13.508
24018W        W89179  19.446  30.805   1.616
24019W        W89180  35.939   9.916   4.707
24020W        W89181  17.313  33.362   0.153
24021W        W89182  37.010   7.055   2.405
24022W        W89183   1.759  27.232   4.816
24023W        W89184  40.301  43.982   3.688
24024W        W89185  14.200  25.902  13.197
24025W        W89186   0.306  31.431   2.760
24026W        W89187  44.916  10.825  14.614
24027W        W89188  26.155  17.373  12.619
24028W        W89189  26.629  18.858  11.143
24029W        W89190  27.491  14.774  14.431
24030W        W89191  34.670  43.700   3.921
24031W        W89192  35.934   8.854  14.909
24032W        W89193  13.518   9.203  11.174
24033W        W89194  28.570  34.079  13.592
24034W        W89195  18.606  44.048  13.355
24035W        W89196   2.000  17.366   3.816
24036W        W89197  35.877   4.389  12.014
24037W        W89198  22.507   6.181   4.174
24038W        W89199  33.136   9.282   3.985
24039W        W89200  30.488  25.801  13.837
24040W        W89201   9.562   0.312  10.974
24041W        W89202  20.167  23.630  14.933
24042W        W89203   7.866  18.124   2.358
24043W        W89204   6.225   2.468   0.311
24044W        W89205   8.749   4.127  12.498
24045W        W89206   0.932  32.655  11.435
24046W        W89207   1.746  42.049  11.225
24047W        W89208  38.596  22.115   0.794
24048W        W89209   6.945  36.328  14.440
24049W        W89210  26.690  23.012   4.540
24050W        W89211  25.376  39.868  14.659
24051W        W89212  43.493  27.932  10.683
24052W        W89213  22.940  34.020  12.126
24053W        W89214  38.128  12.137  13.928
24054W        W89215  15.033  12.248  13.302
24055W        W89216  14.101  33.351   1.207
24056W        W89217  11.299  30.697   1.850
24057W        W89218  21.639  41.828   1.780
24058W        W89219  26.176  17.527   1.296
24059W        W89220  28.718  11.823   4.598
24060W        W89221   6.234  19.143  13.973
24061W        W89222  42.396  20.081   3.285
24062W        W89223   7.823  42.708   4.200
24063W        W89224  28.414  31.783   4.601
24064W        W89225  13.627  36.488   2.990
24065W        W89226  37.120  19.728  11.609
24066W        W89227  10.868   1.763   0.363
24067W        W89228  32.827  10.797  13.428
24068W        W89229  12.310  41.596   4.319
24069W        W89230  24.212  42.442   3.783
24070W        W89231  41.865  38.940  13.831
24071W        W89232  32.493   1.885   3.591
24072W        W89233   0.049   1.278   0.343
24073W        W89234   7.768  20.155  10.399
24074W        W89235   1.424  14.251  13.854
24075W        W89236   3.712  17.592  14.987
24076W        W89237  16.618  14.340  13.377
24077W        W89238  36.557  13.157   2.032
24078W        W89239  23.466  28.872  14.558
24079W        W89240  11.239  39.082   2.395
24080W        W89241  44.908  39.174   2.324
24081W        W89242  14.531  32.505   3.576
24082W        W89243  23.817  13.119  11.623
24083W        W89244  20.417  28.562  12.222
24084W        W89245  24.491  37.077   4.634
24085W        W89246  32.409  26.695   3.058
24086W        W89247  23.150  21.078   4.074
24087W        W89248  16.904  11.748   1.412
24088W        W89249   1.443   1.440   4.279
24089W        W89250   0.159  21.973  12.575
24090W        W89251  13.752  38.108  14.747
24091W        W89252  17.633  44.708   0.578
24092W        W89253  18.064  31.167   0.455
24093W        W89254  14.967  41.130   4.939
24094W        W89255  24.108  44.470   2.371
24095W        W89256  10.856  34.162  12.585
24096W        W89257  37.924   3.593  11.099
24097W        W89258  39.525  38.397  12.314
24098W        W89259  12.738   2.793   0.320
24099W        W89260   5.938  20.525  12.510
24100W        W89261   7.064   3.349   3.728
24101W        W89262  18.782   4.355   0.082
24102W        W89263  30.881   5.649  13.475
24103W        W89264  12.773  36.860  10.979
24104W        W89265  10.897  16.996  14.042
24105W        W89266  10.931  40.652   4.157
24106W        W89267  21.311  10.681  14.313
24107W        W89268   4.974  12.623   0.897
24108W        W89269  17.010  14.132  14.899
24109W        W89270  21.766  42.461  11.990
24110W        W89271  18.741  14.318  13.524
24111W        W89272  35.305  15.340   1.689
24112W        W89273   0.771  31.044   4.608
24113W        W89274  21.544   9.601  12.505
24114W        W89275   9.356  14.623   4.711
24115W        W89276  11.766  39.941  12.119
24116W        W89277  22.948   0.924  13.982
24117W        W89278   1.531  12.819  13.467
24118W        W89279   9.792  35.588   2.244
24119W        W89280  10.841  19.810  10.952
24120W        W89281   1.283   5.909   3.709
24121W        W89282  40.319   1.297   0.874
24122W        W89283  11.578   2.924   1.026
24123W        W89284  10.604  16.584  14.075
24124W        W89285  21.676  36.825  10.811
24125W        W89286  41.969   3.885   2.332
24126W        W89287  27.106  36.371   1.618
24127W        W89288  44.565   7.213   3.171
24128W        W89289   3.377   8.808  11.303
24129W        W89290  42.946  10.162   4.543
24130W        W89291  42.961  31.899   3.697
24131W        W89292  37.973  34.289  12.458
24132W        W89293  35.570  43.768   4.563
24133W        W89294   4.306  13.323   2.157
24134W        W89295   2.798  23.705  10.867
24135W        W89296   3.927  28.453   0.014
24136W        W89297  24.529   7.264   1.796
24137W        W89298  23.054  25.344   2.864
24138W        W89299  15.366  11.743   4.661
24139W        W89300   8.317  35.700   1.923
24140W        W89301  28.910  43.347   3.179
24141W        W89302  20.759  43.254  11.043
24142W        W89303  14.497  21.024   4.089
24143W        W89304  41.034  41.421   4.371
24144W        W89305  44.037   6.531  11.115
24145W        W89306  44.952   0.254   3.746
24146W        W89307  37.046   9.839   4.180
24147W        W89308  14.878   2.169  13.112
24148W        W89309  15.571  17.751  12.779
24149W        W89310  28.755  29.941  14.474
24150W        W89311  43.004   0.247   0.317
24151W        W89312  24.935  25.542  13.364
24152W        W89313  23.766   2.644  14.014
24153W        W89314  25.741  22.043  11.376
24154W        W89315  15.666  23.162   3.580
24155W        W89316  11.058  15.106   4.699
24156W        W89317  22.619  23.742   3.989
24157W        W89318  27.962   2.238   0.954
24158W        W89319  28.533   2.499  13.103
24159W        W89320  26.736  23.100   3.178
24160W        W89321  14.606   5.418   3.858
24161W        W89322   4.711   2.342  10.552
24162W        W89323   2.519   6.971   0.770
24163W        W89324  12.658  18.223   0.425
24164W        W89325  35.402  18.441   3.832
24165W        W89326  36.967  41.120   3.185
24166W        W89327  40.836  12.209   2.988
24167W        W89328  29.069  22.692  11.093
24168W        W89329  27.184  31.439  14.371
24169W        W89330  10.944  31.681  13.915
24170W        W89331  24.945  34.509   2.750
24171W        W89332  13.183  41.526   1.740
24172W        W89333  29.100  28.423  10.690
24173W        W89334  30.143   9.918   1.268
24174W        W89335  12.066  33.132   4.072
24175W        W89336  39.052   3.682  13.007
24176W        W89337  25.323  20.534   0.882
24177W        W89338   8.407  24.357  13.834
24178W        W89339   9.319  13.657   1.694
24179W        W89340  26.913  25.530  13.909
24180W        W89341  39.877   0.403  10.632
24181W        W89342  37.803  12.550   1.193
24182W        W89343  36.932   0.391  13.864
24183W        W89344  15.879  43.337  14.911
24184W        W89345  35.860  19.208  14.932
24185W        W89346  27.145  19.442   4.207
24186W        W89347  31.201  30.332   3.709
24187W        W89348  23.691   5.376  13.474
24188W        W89349  25.808  16.971  14.843
24189W        W89350  12.655  31.011  11.903
24190W        W89351  23.944  13.488  10.916
24191W        W89352  18.726  21.026   3.194
24192W        W89353  36.450  22.721   0.769
24193W        W89354  13.129  18.325  14.782
24194W        W89355  25.232   9.917  12.046
24195W        W89356  12.522   2.401   4.172
24196W        W89357  16.050  42.344  13.960
24197W        W89358  34.660  37.108  12.452
24198W        W89359  38.794  24.056   1.761
24199W        W89360   1.274  32.491  11.959
24200W        W89361   4.909   2.439   5.061
24201W        W89362  24.432   6.148  11.452
24202W        W89363  35.862   1.660  11.830
24203W        W89364  35.891  19.084  10.920
24204W        W89365   8.586  14.802  10.378
24205W        W89366  32.667   5.140   1.767
24206W        W89367  15.752  35.172   2.693
24207W        W89368  40.107  43.512   3.728
24208W        W89369   0.982  35.648   0.839
24209W        W89370   4.016  11.982   2.739
24210W        W89371  17.781   0.023   3.234
24211W        W89372  10.527   2.410   0.809
24212W        W89373   6.977  30.142  10.330
24213W        W89374   3.943  42.827  12.394
24214W        W89375  13.101  13.147   0.368
24215W        W89376   7.283  30.397   2.210
24216W        W89377  17.842  42.727   0.108
24217W        W89378   1.135   5.390  13.491
24218W        W89379  25.594   7.318  11.747
24219W        W89380  21.719  17.813  10.571
24220W        W89381  11.174  16.142  10.889
24221W        W89382  10.065  42.455   1.390
24222W        W89383  16.282  38.585  11.679
24223W        W89384   4.985  40.906   2.415
24224W        W89385  28.585  10.447  12.816
24225W        W89386   2.477  36.091  13.007
24226W        W89387  19.237   8.430   3.946
24227W        W89388  36.964  44.855   3.208
24228W        W89389  42.810  31.391  13.432
24229W        W89390  44.546  42.151   3.274
24230W        W89391  12.186   0.689   3.698
24231W        W89392  34.261  37.439   1.427
24232W        W89393   9.258  25.937   3.171
24233W        W89394   5.598  19.969  12.328
24234W        W89395  30.560  30.051  12.611
24235W        W89396  36.529  37.424   0.924
24236W        W89397  37.121   2.692   2.808
24237W        W89398  13.425   4.831   3.643
24238W        W89399  41.530  13.052   0.230
24239W        W89400  36.840  33.940   4.161
24240W        W89401  32.003  14.048   3.218
24241W        W89402  40.871  37.690  10.226
24242W        W89403  38.215  35.145  12.515
24243W        W89404  40.255  41.307   2.799
24244W        W89405  21.105  26.911  12.902
24245W        W89406  41.598  34.535  11.208
24246W        W89407  22.511  28.616   1.715
24247W        W89408  12.819  37.901   4.418
24248W        W89409  14.718   1.588   1.623
24249W        W89410   5.339  19.535  12.464
24250W        W89411  30.115  39.617   2.467
24251W        W89412   6.203  33.583   3.237
24252W        W89413  37.286  34.390   3.441
24253W        W89414  34.069  14.143   3.042
24254W        W89415  14.944  43.878   9.877
24255W        W89416   7.270  16.998   4.614
24256W        W89417  19.292  31.194   3.873
24257W        W89418  37.457   7.650  11.052
24258W        W89419  43.214  30.177  10.740
24259W        W89420  16.100  25.257   3.615
24260W        W89421  17.312  17.683   2.753
24261W        W89422  28.386  36.401   0.242
24262W        W89423  14.802  38.778   3.135
24263W        W89424  25.345  15.747   2.297
24264W        W89425  25.006   3.295   4.046
24265W        W89426  44.728  11.688  13.808
24266W        W89427  11.711  35.060  12.093
24267W        W89428  23.648  18.061  14.075
24268W        W89429  21.617  19.037  11.580
24269W        W89430  34.627  14.587   1.779
24270W        W89431  22.041  12.184  12.768
24271W        W89432  40.412  26.732  12.382
24272W        W89433  10.403  36.368  11.884
24273W        W89434  10.690   5.275   3.100
24274W        W89435  29.021  31.694  12.032
24275W        W89436  38.951  17.674  13.873
24276W        W89437  41.332  26.703   2.953
24277W        W89438  25.799  19.513   3.576
24278W        W89439  30.025   8.650  14.800
24279W        W89440   9.265  38.485   1.470
24280W        W89441  29.080  37.880   0.364
24281W        W89442  27.206   3.946   1.784
24282W        W89443   3.136  39.145  14.497
24283W        W89444   7.166  34.879   2.773
24284W        W89445  17.252  41.167   2.115
24285W        W89446  37.149   1.003   4.146
24286W        W89447  10.250  41.396   1.807
24287W        W89448  20.476  33.630  12.846
24288W        W89449  25.729  38.020   2.752
24289W        W89450   5.562  36.083  11.180
24290W        W89451  34.476  18.162   3.563
24291W        W89452  40.854  15.556   3.276
24292W        W89453   5.601  36.365   0.970
24293W        W89454   2.578  23.095   2.970
24294W        W89455  25.994  15.839   4.178
24295W        W89456  12.847  44.511  11.234
24296W        W89457   0.691  30.524   0.273
24297W        W89458   3.904  13.249  13.502
24298W        W89459  18.466  23.537  11.165
24299W        W89460   7.651   7.692  14.288
24300W        W89461  40.291  22.561  12.522
24301W        W89462  25.991  44.737   0.354
24302W        W89463  25.053   0.879  11.637
24303W        W89464  32.669   0.747  14.702
24304W        W89465  19.397  36.933  12.141
24305W        W89466  44.142   1.530  11.085
24306W        W89467  25.460  34.825   1.869
24307W        W89468  31.974  33.077  14.439
24308W        W89469   8.600  42.936   0.296
24309W        W89470   6.230  31.695   2.386
24310W        W89471  26.184  22.597   2.415
24311W        W89472  11.631   5.841  10.807
24312W        W89473  37.970  28.177   1.368
24313W        W89474  32.892  29.583   3.368
24314W        W89475  22.741   8.740   4.442
24315W        W89476  21.206  35.434   2.719
24316W        W89477  43.517  44.284   0.899
24317W        W89478  39.463  13.128   4.359
24318W        W89479  34.668  13.161   0.230
24319W        W89480  36.932  44.814  13.046
24320W        W89481   4.753   0.611  11.965
24321W        W89482  19.303  40.828   2.324
24322W        W89483  24.742  21.254   3.682
24323W        W89484  37.628   9.797  14.829
24324W        W89485   4.146  12.650   1.929
24325W        W89486  26.134   9.969  10.128
24326W        W89487   5.904  35.734  12.062
24327W        W89488  35.089  11.649  10.826
24328W        W89489  25.965  40.661  14.850
24329W        W89490  24.921  23.668   3.200
24330W        W89491  40.828  23.533  13.638
24331W        W89492  41.833  23.608   1.016
24332W        W89493  14.621   6.707  11.939
24333W        W89494  37.648  34.401   1.007
24334W        W89495   6.174  12.927  14.721
24335W        W89496  40.352  22.479   1.378
24336W        W89497  25.920   4.840  10.105
24337W        W89498  42.997  17.597  10.760
24338W        W89499  41.877  14.935  14.934
24339W        W89500  42.499   6.595   3.686
24340W        W89501  33.349  16.146  12.074
24341W        W89502  22.037  15.313  12.928
24342W        W89503  34.132  37.051   4.553
24343W        W89504  15.680  44.892   0.512
24344W        W89505  14.768  10.373   3.758
24345W        W89506   4.420  39.815   3.212
24346W        W89507  31.856  17.117   0.505
24347W        W89508  13.273  23.631  14.388
24348W        W89509  42.345   3.149   1.351
24349W        W89510  35.984  43.400  11.918
24350W        W89511  44.415  26.545   4.505
24351W        W89512  29.085  22.434  12.036
24352W        W89513  37.319  38.787  12.593
24353W        W89514   4.472  24.662  12.023
24354W        W89515  42.358   9.392   4.582
24355W        W89516  43.196  33.123   4.158
24356W        W89517  16.822  42.122   3.221
24357W        W89518  35.072   8.487  10.730
24358W        W89519  17.282  14.569  14.810
24359W        W89520  35.438   7.968  14.449
24360W        W89521  13.353   7.436   3.150
24361W        W89522  24.398  23.625   3.131
24362W        W89523  40.733  30.615   4.510
24363W        W89524  43.828  30.348  14.513
24364W        W89525   8.757  33.492   2.148
24365W        W89526  41.326  41.695  14.004
24366W        W89527  18.137  16.700  14.253
24367W        W89528   3.996  28.066  12.404
24368W        W89529  35.856  13.378  11.717
24369W        W89530  36.142  11.696  10.737
24370W        W89531  29.504  10.480  11.615
24371W        W89532  33.415  25.212   1.047
24372W        W89533   7.253  34.203  10.638
24373W        W89534  35.888  43.356   4.363
24374W        W89535  13.618   8.830   3.149
24375W        W89536   7.157   3.554  14.297
24376W        W89537   4.867   5.714   0.162
24377W        W89538  18.289  25.119   0.501
24378W        W89539  19.319  20.696  10.743
24379W        W89540  22.114   7.920  10.668
24380W        W89541  26.186  29.156   0.468
24381W        W89542  35.425  30.825  11.580
24382W        W89543   5.461   2.394  10.410
24383W        W89544  22.276   4.825   2.228
24384W        W89545  15.603  11.687  12.416
24385W        W89546  26.250  33.340  13.334
24386W        W89547  32.481   6.668   4.162
24387W        W89548   8.430  39.445   2.693
24388W        W89549  19.304  36.358   4.535
24389W        W89550  29.676  42.475  12.025
24390W        W89551  19.903  44.372   4.493
24391W        W89552   0.710  33.529  13.859
24392W        W89553  27.771   9.206  12.458
24393W        W89554   2.335  44.515   0.962
24394W        W89555  40.837  25.629   0.720
24395W        W89556  25.233   5.688   1.356
24396W        W89557  36.659   4.274  14.729
24397W        W89558  22.083   5.638  13.944
24398W        W89559  23.136  16.550   2.803
24399W        W89560  15.755  29.010   4.632
24400W        W89561  18.206  29.937  12.461
24401W        W89562  32.487   3.269   3.828
24402W        W89563  10.210  44.958  13.948
24403W        W89564  23.649  20.430  13.468
24404W        W89565   3.001  16.202  11.986
24405W        W89566  22.193  31.437   4.717
24406W        W89567  19.316  33.660   0.356
24407W        W89568  32.051   2.793   0.760
24408W        W89569  31.144  40.801  11.954
24409W        W89570  38.842  38.694  10.798
24410W        W89571  13.015  38.527   3.078
24411W        W89572   9.835  28.380   3.337
24412W        W89573  39.165  38.900   4.904
24413W        W89574  25.483  32.028   1.765
24414W        W89575  22.203  32.088   4.418
24415W        W89576  43.515  22.219  14.394
24416W        W89577   1.810  30.152   0.940
24417W        W89578  23.710  41.998   3.252
24418W        W89579   7.896  40.624   0.265
24419W        W89580   7.084  44.448  13.191
24420W        W89581  34.211  43.448  13.165
24421W        W89582   4.646  36.049   1.262
24422W        W89583  38.228  21.039  11.856
24423W        W89584  23.997   4.817   3.904
24424W        W89585  39.502  23.484   2.632
24425W        W89586  28.300  42.894  14.076
24426W        W89587  11.514  17.889   2.163
24427W        W89588  39.089   1.954   2.289
24428W        W89589  34.619  35.461  13.287
24429W        W89590  42.453   8.456   4.871
24430W        W89591   1.373  33.413   5.001
24431W        W89592   7.599   9.737  13.359
24432W        W89593   3.490  12.274  13.459
24433W        W89594  37.092  41.669  12.504
24434W        W89595  44.909  26.300  11.066
24435W        W89596  17.831  20.037   3.829
24436W        W89597  44.540  10.843   3.836
24437W        W89598  39.928   5.778  14.324
24438W        W89599  40.852  21.517   3.146
24439W        W89600  18.435  19.249   3.689
24440W        W89601  30.670  44.428   3.714
24441W        W89602  31.072  13.789   1.303
24442W        W89603  42.046   6.224   0.047
24443W        W89604  33.604  16.434   4.572
24444W        W89605  40.170  10.523  12.363
24445W        W89606  32.102  42.601  13.351
24446W        W89607   7.567   9.863   3.325
24447W        W89608   3.420  19.312   0.307
24448W        W89609  26.160  37.328  11.126
24449W        W89610  43.953  18.605   3.928
24450W        W89611  22.211  11.337   2.746
24451W        W89612  15.088  10.559   2.102
24452W        W89613  17.740  29.120  13.854
24453W        W89614  18.691  30.840   4.159
24454W        W89615  43.064  22.248   4.024
24455W        W89616  19.292  29.188   1.445
24456W        W89617  41.994  41.353  11.047
24457W        W89618  28.559  17.297  12.217
24458W        W89619  39.989  21.062   0.884
24459W        W89620   2.768  39.111  11.490
24460W        W89621  11.756  22.537   2.465
24461W        W89622  24.103   7.579  13.446
24462W        W89623  37.601  11.543   1.355
24463W        W89624   4.737  25.341  13.561
24464W        W89625  21.269  31.729   1.662
24465W        W89626  30.637  14.689   2.338
24466W        W89627  14.749  30.723   2.362
24467W        W89628  32.599   0.796   0.220
24468W        W89629  22.589  43.533  12.169
24469W        W89630  37.086   8.430   2.158
24470W        W89631  27.048  19.841  11.399
24471W        W89632  11.742  43.863   2.948
24472W        W89633  40.390  10.602  11.908
24473W        W89634  43.716  25.605   2.186
24474W        W89635  11.747  28.155   0.283
24475W        W89636  27.586  37.349  13.056
24476W        W89637  10.950   4.280   1.907
24477W        W89638  33.858  18.686   0.707
24478W        W89639  32.372  14.369  10.622
24479W        W89640   4.333  41.000  12.530
24480W        W89641  28.082  21.054  12.136
24481W        W89642   2.306  23.020   3.400
24482W        W89643  38.714   1.074   3.652
24483W        W89644  39.078  14.608  11.555
24484W        W89645   4.218  38.021   3.959
24485W        W89646  34.087  34.995  13.550
24486W        W89647  30.354  42.106  11.053
24487W        W89648  31.058   6.589   0.883
24488W        W89649  27.595  17.680   1.849
24489W        W89650  35.383  36.856  13.903
24490W        W89651  27.876   0.734  13.603
24491W        W89652  26.524  39.175  12.501
24492W        W89653  32.606  27.148  14.900
24493W        W89654  26.993   7.909   3.952
24494W        W89655  39.105  15.334   1.253
24495W        W89656  42.347  17.757   1.762
24496W        W89657  12.644  30.690   3.240
24497W        W89658   1.245  34.051  13.032
24498W        W89659   5.005   8.861  14.372
24499W        W89660  31.960  22.764  12.649
24500W        W89661  19.889  28.556  12.054
24501W        W89662  25.113  15.675   3.200
24502W        W89663  19.251  16.044   0.721
24503W        W89664  25.208   7.121  12.909
24504W        W89665   0.972  30.349   3.173
24505W        W89666   6.816  43.521  13.663
24506W        W89667   7.434  40.555   3.558
24507W        W89668  29.557  22.098   2.249
24508W        W89669  23.584  20.978   4.991
24509W        W89670   6.074  42.856   4.615
24510W        W89671  25.072  37.372  14.546
24511W        W89672   2.514  22.389   1.295
24512W        W89673   1.236  26.028  10.677
24513W        W89674  29.852  33.634  14.767
24514W        W89675   1.218  11.162   5.429
24515W        W89676  10.837  37.476   4.581
24516W        W89677   0.947   9.822  10.637
24517W        W89678  36.954  33.737  14.031
24518W        W89679  17.623  17.377   9.790
24519W        W89680  25.717  13.466  10.426
24520W        W89681  27.596   7.655  11.509
24521W        W89682  26.098  10.948  12.100
24522W        W89683  32.908  27.024   2.355
24523W        W89684  21.728  35.391   2.633
24524W        W89685  10.478  24.567  12.731
24525W        W89686  20.277   9.299  12.875
24526W        W89687  40.195  38.624   3.592
24527W        W89688   3.779  40.446   2.737
24528W        W89689   0.341  43.973  13.496
24529W        W89690  39.972  32.312   0.654
24530W        W89691  12.700  28.411   3.597
24531W        W89692  26.242  29.924   3.679
24532W        W89693  25.644  35.882  11.530
24533W        W89694  35.606  34.025   3.658
24534W        W89695  28.399  43.264  13.683
24535W        W89696  14.553  37.573   2.712
24536W        W89697  37.354  33.516  10.793
24537W        W89698   9.362  31.083   2.346
24538W        W89699   8.587  15.659   0.356
24539W        W89700  12.903  40.152  10.265
24540W        W89701  43.399  19.446  14.934
24541W        W89702  20.220  12.606   3.409
24542W        W89703   9.285  37.469   3.205
24543W        W89704  17.602  10.372  12.106
24544W        W89705   2.896  27.080   3.622
24545W        W89706   6.713   9.467  11.863
24546W        W89707  41.825  11.349   3.865
24547W        W89708  37.592  32.666  12.780
24548W        W89709   0.231   3.317   2.320
24549W        W89710   1.578  38.338   2.146
24550W        W89711  34.459   8.524  11.559
24551W        W89712  28.714  32.082  13.855
24552W        W89713  35.317   3.254   0.216
24553W        W89714   1.397  26.962  13.517
24554W        W89715  13.901  12.240   1.171
24555W        W89716  40.811  23.984  13.391
24556W        W89717   9.135  22.199   3.581
24557W        W89718   2.839  37.393  12.573
24558W        W89719  27.139  37.632   1.229
24559W        W89720  24.267  35.167  12.023
24560W        W89721  28.016  42.142  12.982
24561W        W89722  17.118  18.168   2.752
24562W        W89723  18.551  39.471   3.676
24563W        W89724   5.415  23.973   4.662
24564W        W89725   8.881  29.965   1.201
24565W        W89726   9.409  34.968   2.087
24566W        W89727  37.312  18.711   4.967
24567W        W89728   5.054  40.547  10.181
24568W        W89729   4.208  17.416   3.503
24569W        W89730  24.633  40.503   0.838
24570W        W89731  19.245  22.340   2.822
24571W        W89732  23.818  20.683   0.438
24572W        W89733  24.347   2.108  11.065
24573W        W89734  29.335  21.421   3.310
24574W        W89735  31.363   8.828   4.226
24575W        W89736   0.017  21.546   1.846
24576W        W89737   7.729  10.442   2.265
24577W        W89738   5.645  27.167   2.761
24578W        W89739  22.645  39.864  11.080
24579W        W89740  44.509  15.010   1.263
24580W        W89741  24.395  41.095  11.424
24581W        W89742   8.457   5.437   4.215
24582W        W89743  18.384  21.669   4.057
24583W        W89744  16.546  37.950   3.592
24584W        W89745   2.978   8.925   4.338
24585W        W89746  20.783  35.592  14.307
24586W        W89747   1.504  40.405  12.952
24587W        W89748  26.562  31.678  14.963
24588W        W89749  23.272  43.296  13.435
24589W        W89750  43.378  15.091  14.469
24590W        W89751  43.785  19.619   2.626
24591W        W89752  44.345   4.577   3.316
24592W        W89753  18.582  34.068  10.507
24593W        W89754  34.016  36.529  11.590
24594W        W89755   7.599  35.039  10.527
24595W        W89756  30.014  25.731   3.987
24596W        W89757  33.497  41.710   3.701
24597W        W89758  44.255  17.877  12.941
24598W        W89759  18.483  20.750  13.011
24599W        W89760  41.919  28.030   2.221
24600W        W89761  42.971  36.671  12.441
24601W        W89762  34.448  36.328  11.816
24602W        W89763  27.611  23.958   2.833
24603W        W89764  41.843   1.337  11.552
24604W        W89765  28.491  25.814  13.798
24605W        W89766  34.424  44.964  12.149
24606W        W89767  31.182  37.479   1.316
24607W        W89768  18.804  26.505   0.354
24608W        W89769  19.136  43.821   3.656
24609W        W89770   8.280  30.037   4.048
24610W        W89771  12.868   1.165   2.235
24611W        W89772  15.242  18.678   2.391
24612W        W89773  19.339  40.521   1.693
24613W        W89774   8.262   8.539   4.964
24614W        W89775  13.348   8.332   0.916
24615W        W89776  26.139   7.973  11.970
24616W        W89777  15.337  41.986   3.358
24617W        W89778  36.900  30.634  10.664
24618W        W89779   3.311  10.495   1.260
24619W        W89780  10.925  41.131   3.965
24620W        W89781  16.178   6.263   2.389
24621W        W89782  16.289  28.933   0.274
24622W        W89783  42.922  36.303  13.478
24623W        W89784  10.772   4.382   1.411
24624W        W89785  37.088  38.442   2.735
24625W        W89786   3.962  37.157  12.116
24626W        W89787  27.018   1.736   4.363
24627W        W89788  34.990  29.133   1.198
24628W        W89789  21.670  39.960  14.387
24629W        W89790  13.339   7.938   3.763
24630W        W89791  14.289   7.767  14.069
24631W        W89792  23.226  30.365   0.751
24632W        W89793  33.501  19.204   2.296
24633W        W89794  24.715   1.047   1.641
24634W        W89795  10.269  16.669  10.905
24635W        W89796  22.039  38.437  12.343
24636W        W89797  16.937  41.585   4.581
24637W        W89798  22.247  11.274   4.210
24638W        W89799  21.363  39.412   1.376
24639W        W89800  26.714  33.089   0.390
24640W        W89801  12.266  31.530   4.574
24641W        W89802  24.664  40.416  10.476
24642W        W89803  25.578  21.209   1.930
24643W        W89804  12.299  32.916   2.155
24644W        W89805   5.645  11.226  10.818
24645W        W89806  10.294  24.948   2.131
24646W        W89807  14.547  18.351  11.075
24647W        W89808  12.951  12.127  11.020
24648W        W89809   1.015  24.979  10.335
24649W        W89810  30.587  34.354   3.601
24650W        W89811  11.115  15.276   2.402
24651W        W89812  25.233  23.781  11.069
24652W        W89813  14.819  35.468  11.681
24653W        W89814  43.793  40.196  12.095
24654W        W89815  14.117   3.009   0.257
24655W        W89816  31.122  14.107  11.893
24656W        W89817  44.443  35.010  10.033
24657W        W89818  39.779  18.827  13.901
24658W        W89819  23.579   2.405  11.186
24659W        W89820  27.968  14.056  10.766
24660W        W89821   7.304  43.917   4.163
24661W        W89822  29.866  36.314   0.443
24662W        W89823  12.148  27.450  14.578
24663W        W89824  26.983  20.346  12.890
24664W        W89825  36.475  39.307   0.512
24665W        W89826  13.113  37.013  11.971
24666W        W89827  30.217  43.254  10.893
24667W        W89828  11.238  37.481  12.854
24668W        W89829  28.058  40.278   3.710
24669W        W89830   4.489  41.206   3.157
24670W        W89831  39.997  18.037  11.451
24671W        W89832   7.369  10.803  11.932
24672W        W89833  17.045  16.031  10.894
24673W        W89834   6.379   1.736  12.085
24674W        W89835   3.730  19.282   2.576
24675W        W89836   3.082  29.975   0.058
24676W        W89837  24.728   8.282   2.084
24677W        W89838  34.167  10.665   2.296
24678W        W89839  29.627  35.040   3.997
24679W        W89840  31.078  32.130   3.165
24680W        W89841  18.154  43.677  14.039
24681W        W89842  13.377  35.323  11.629
24682W        W89843  23.140  17.214   4.755
24683W        W89844  23.151  41.754  14.203
24684W        W89845  21.451  14.177  10.467
24685W        W89846  19.279  28.744   2.378
24686W        W89847   7.954  40.553  10.131
24687W        W89848  21.634  37.651  11.032
24688W        W89849   4.308   0.908  14.372
24689W        W89850  43.906  29.376   4.605
24690W        W89851  24.939  27.035   4.429
24691W        W89852   3.729  25.466   2.220
24692W        W89853  23.607  30.353   4.353
24693W        W89854  41.082  29.648  11.083
24694W        W89855   4.192  37.292  12.987
24695W        W89856  36.422  11.932   0.868
24696W        W89857  32.677  37.846   3.353
24697W        W89858  35.954  42.197  13.017
24698W        W89859  13.313  35.556  10.974
24699W        W89860   1.696   5.763   0.028
24700W        W89861  22.028  33.452  14.273
24701W        W89862   1.896  39.205   0.342
24702W        W89863  30.854  42.552   4.113
24703W        W89864  22.337  37.253   2.218
24704W        W89865  30.630  32.386   3.169
24705W        W89866  13.844  30.215   4.184
24706W        W89867  16.621   9.659  13.895
24707W        W89868  33.049  42.572   1.776
24708W        W89869  34.604   9.337   0.103
24709W        W89870  24.335  29.992  11.966
24710W        W89871  24.942  14.307  11.203
24711W        W89872  23.534   0.955   3.867
24712W        W89873  19.836  33.653   3.826
24713W        W89874  20.547  24.167   3.763
24714W        W89875  43.465  23.412   1.443
24715W        W89876  11.341  12.806   4.868
24716W        W89877  20.062  24.129   3.575
24717W        W89878   2.346  16.848  10.896
24718W        W89879  30.601  27.750   1.319
24719W        W89880  24.671  25.161   2.355
24720W        W89881  44.750  44.363  10.148
24721W        W89882  13.991  32.729   0.859
24722W        W89883  18.303  24.973  13.026
24723W        W89884   0.974   6.409   1.839
24724W        W89885  30.289  36.370   2.438
24725W        W89886  34.390  25.826  11.998
24726W        W89887   8.140  43.541  13.471
24727W        W89888   6.670  37.082   1.422
24728W        W89889   1.061  39.404  11.966
24729W        W89890  41.822  14.724  13.779
24730W        W89891   8.692   4.446  13.748
24731W        W89892  20.122  35.040  11.590
24732W        W89893  31.960  13.281   1.880
24733W        W89894  29.536  31.649   0.610
24734W        W89895  20.676  19.368   1.196
24735W        W89896  39.791  10.198   4.588
24736W        W89897  31.419  22.223  13.975
24737W        W89898   0.281  35.461  10.716
24738W        W89899  17.721  30.846  14.843
24739W        W89900  40.008  42.544  14.011
24740W        W89901  39.825   4.483   0.015
24741W        W89902  10.023  13.905  11.080
24742W        W89903  38.009  13.430  13.649
24743W        W89904  28.813  31.138   0.982
24744W        W89905  26.178  39.313  13.279
24745W        W89906  16.689   5.174   1.909
24746W        W89907   2.013  23.509  13.413
24747W        W89908   1.352  23.225  14.046
24748W        W89909  21.192  39.629   0.921
24749W        W89910   0.394  33.170   1.977
24750W        W89911   4.417  42.874   3.979
24751W        W89912  24.059  20.687   3.173
24752W        W89913   2.467   8.743  11.530
24753W        W89914  42.521   2.187  14.690
24754W        W89915  10.272  43.696  12.161
24755W        W89916  33.221   2.240   3.195
24756W        W89917  41.760   8.918   2.813
24757W        W89918   9.770  26.018   3.270
24758W        W89919  36.042  40.206  11.777
24759W        W89920  24.294  30.578  10.754
24760W        W89921   2.718  30.428   4.974
24761W        W89922  26.137  39.368  14.223
24762W        W89923  31.441   1.022   3.350
24763W        W89924  36.612  29.273  14.249
24764W        W89925  41.887   1.436   2.704
24765W        W89926   6.904  10.074   4.163
24766W        W89927  30.636  33.031   0.530
24767W        W89928  42.302   9.984  10.366
24768W        W89929  22.525  25.424   0.767
24769W        W89930  32.210  33.037  13.931
24770W        W89931   3.280  39.590   1.301
24771W        W89932   8.858  41.558   4.230
24772W        W89933   7.359  20.170  13.592
24773W        W89934  18.649  19.519   1.057
24774W        W89935   2.287  14.785   4.542
24775W        W89936   9.659   6.541   0.422
24776W        W89937  35.023   8.121  11.512
24777W        W89938  29.223   3.579  14.869
24778W        W89939  19.029  10.720  14.848
24779W        W89940  11.204  29.683   4.473
24780W        W89941   2.975  19.745  13.818
24781W        W89942  15.564  35.968   3.064
24782W        W89943   6.172   2.878  14.116
24783W        W89944  21.344   7.098  11.586
24784W        W89945  28.034   7.240   4.401
24785W        W89946  27.060  22.837   0.350
24786W        W89947  39.283  11.419  12.940
24787W        W89948  25.108   1.709  10.374
24788W        W89949  14.464  20.976   3.205
24789W        W89950  23.029  44.584  14.424
24790W        W89951  24.181  28.508  14.888
24791W        W89952  16.656  13.545   0.917
24792W        W89953  36.333  42.858  13.491
24793W        W89954  22.265   2.442  12.012
24794W        W89955  32.042  24.946   3.243
24795W        W89956  19.209  17.341   1.180
24796W        W89957   0.626   8.131  13.765
24797W        W89958  16.154  35.099   3.808
24798W        W89959   9.213  16.275  10.538
24799W        W89960  24.625  15.615   4.361
24800W        W89961  15.513  34.615   1.811
24801W        W89962  20.473   7.891   1.257
24802W        W89963  26.098   4.266   0.441
24803W        W89964  21.590  10.401   1.916
24804W        W89965  13.434  26.065   1.777
24805W        W89966  31.279   3.913   2.815
24806W        W89967  25.944  18.273  14.667
24807W        W89968  26.481  10.875  13.438
24808W        W89969  38.335  19.677  13.400
24809W        W89970  38.419  34.458  11.174
24810W        W89971   5.194  15.805  13.925
24811W        W89972  18.778  26.415  13.360
24812W        W89973   3.902   7.479   0.913
24813W        W89974  22.556  34.939   1.580
24814W        W89975  42.508  35.930   0.157
24815W        W89976   3.292  31.131   0.871
24816W        W89977  14.577  26.646  13.002
24817W        W89978  27.027  34.783   3.882
24818W        W89979  38.145  36.829   1.601
24819W        W89980  44.301  10.566  13.860
24820W        W89981  43.529  13.316   4.587
24821W        W89982  36.535   3.712   2.383
24822W        W89983  32.451  31.614  12.055
24823W        W89984   4.844  44.872   0.652
24824W        W89985  20.636   4.189   4.100
24825W        W89986  37.612  43.438   0.405
24826W        W89987   0.992  42.850   2.176
24827W        W89988  31.058   8.489   0.308
24828W        W89989  17.566  26.649   2.387
24829W        W89990  19.796  10.253  12.981
24830W        W89991  22.853  35.789  11.940
24831W        W89992  30.447  19.974  11.449
24832W        W89993  30.532  44.885  12.291
24833W        W89994   1.194  35.795  13.319
24834W        W89995  16.850  10.391  14.914
24835W        W89996   2.929   5.711   2.662
24836W        W89997  24.266  10.661  14.910
24837W        W89998  25.171   7.831   2.729
24838W        W89999  42.842   1.906  13.038
24839W        W90000   8.369   1.329   4.556
24840W        W90001  27.177   5.706   3.230
24841W        W90002  36.064  19.522   3.476
24842W        W90003  13.371  41.038  14.884
24843W        W90004   0.792  22.127  14.892
24844W        W90005   4.165   9.671   2.730
24845W        W90006  18.420   4.188   0.464
24846W        W90007  44.582  41.903   2.307
24847W        W90008  43.307  18.202   4.441
24848W        W90009  20.981   3.477   4.415
24849W        W90010  26.550  37.602   0.520
24850W        W90011  27.009  33.090   2.296
24851W        W90012  37.052   5.186   1.833
24852W        W90013  20.513  15.043  11.630
24853W        W90014   7.154   2.471  14.747
24854W        W90015  11.381  23.162  12.025
24855W        W90016  37.375  31.102  13.526
24856W        W90017  22.121  19.231   9.869
24857W        W90018   5.731  11.750  13.547
24858W        W90019  42.906  25.590  13.981
24859W        W90020  30.947  35.977  11.523
24860W        W90021  33.355  14.682  14.533
24861W        W90022  17.172  28.395  14.197
24862W        W90023   8.733  29.504   5.121
24863W        W90024  34.092   4.909  11.211
24864W        W90025  11.184  29.166   4.463
24865W        W90026  28.990   0.884   0.179
24866W        W90027  22.206  25.559   3.863
24867W        W90028   2.720   1.263   3.650
24868W        W90029   2.798   1.752   0.197
24869W        W90030  35.684  44.796   1.454
24870W        W90031  31.431  29.114   4.613
24871W        W90032   4.422   6.749  14.403
24872W        W90033   5.110  22.764  10.535
24873W        W90034  11.648   1.890   4.609
24874W        W90035   7.729  39.786   4.494
24875W        W90036   2.125  37.360   9.772
24876W        W90037  11.530   7.513   2.602
24877W        W90038  20.583   4.678  14.445
24878W        W90039   2.500  32.438  13.360
24879W        W90040  32.981   8.352   1.571
24880W        W90041   5.663  39.562   1.917
24881W        W90042  14.230  36.120   1.241
24882W        W90043   4.434  15.562  11.627
24883W        W90044  32.874  41.384  12.046
24884W        W90045  38.496   5.013  10.944
24885W        W90046   9.600  30.937  13.982
24886W        W90047  17.283  10.854   3.491
24887W        W90048  35.105  16.776   1.617
24888W        W90049  36.685  28.620   2.090
24889W        W90050  18.656   0.713  10.197
24890W        W90051  14.306  33.115  12.313
24891W        W90052  31.962  22.151   3.150
24892W        W90053  33.769  20.982   2.866
24893W        W90054   1.718  16.283  11.518
24894W        W90055  16.660  34.343   3.517
24895W        W90056  34.774  26.561  13.432
24896W        W90057  33.572  21.284   1.355
24897W        W90058  26.419  42.578  12.208
24898W        W90059  17.275   8.652  11.948
24899W        W90060   8.868  40.247  11.931
24900W        W90061  17.274  44.616  14.019
24901W        W90062  34.379  15.502  12.070
24902W        W90063   1.523  10.710   1.895
24903W        W90064   9.318  19.282   3.258
24904W        W90065  12.374  26.200  13.379
24905W        W90066  23.405  26.319   4.638
24906W        W90067  33.007  43.520   3.733
24907W        W90068  38.571  35.238  11.932
24908W        W90069   5.967  18.275  12.947
24909W        W90070  15.251  14.280   3.973
24910W        W90071   9.737  42.906  13.321
24911W        W90072  36.891   1.470   4.093
24912W        W90073  12.820  43.834   3.755
24913W        W90074  41.809  43.915   3.417
24914W        W90075  14.162  38.853   4.854
24915W        W90076   7.029   4.966   1.685
24916W        W90077  30.134  39.244   2.097
24917W        W90078   9.411  32.660   0.554
24918W        W90079   4.837  33.933   5.091
24919W        W90080  41.542  29.881   2.830
24920W        W90081  32.718  16.165   1.668
24921W        W90082  25.736  37.712   4.213
24922W        W90083  34.576  16.708  13.431
24923W        W90084  38.485  42.082  12.404
24924W        W90085  39.773   5.285  13.951
24925W        W90086  42.366  21.695  14.068
24926W        W90087  24.516  43.885   1.733
24927W        W90088  21.245  24.723  13.510
24928W        W90089  20.827  17.333   2.702
24929W        W90090  17.329  15.949   2.564
24930W        W90091  40.995  44.435  13.484
24931W        W90092  18.354  20.250   3.036
24932W        W90093  11.256   9.667  13.597
24933W        W90094  26.468  27.965  14.738
24934W        W90095  17.581   9.812  11.521
24935W        W90096   5.792   9.401   1.509
24936W        W90097  10.062  13.194   0.355
24937W        W90098  26.581   6.361  12.435
24938W        W90099  12.102  42.515   4.106
24939W        W90100   0.892  14.909   2.312
24940W        W90101   9.773  16.565   3.915
24941W        W90102  35.953  10.377   4.379
24942W        W90103   8.962  18.553  13.942
24943W        W90104  18.261  19.846   1.166
24944W        W90105  11.655  33.622  11.869
24945W        W90106  42.954  12.533  13.337
24946W        W90107   6.803  18.601  13.351
24947W        W90108  43.283  12.000   4.595
24948W        W90109  15.282  29.382   2.912
24949W        W90110  28.662  42.542  13.884
24950W        W90111  38.048   1.733   0.015
24951W        W90112  29.988  16.774  13.926
24952W        W90113  38.038  13.739  12.046
24953W        W90114  34.191   7.885  13.872
24954W        W90115  37.063  12.158  10.726
24955W        W90116   0.180  27.598   0.502
24956W        W90117   9.831  10.928   2.324
24957W        W90118   1.480   4.415  10.814
24958W        W90119  33.154  21.054   1.172
24959W        W90120  36.329   4.721  14.679
24960W        W90121  10.652   4.114   0.323
24961W        W90122   4.264  16.577  12.364
24962W        W90123   7.133  26.012  14.402
24963W        W90124  12.360  19.263  14.000
24964W        W90125  29.553  41.359   2.368
24965W        W90126   6.755   8.800   5.092
24966W        W90127  44.628   5.959   1.943
24967W        W90128  26.908   0.234  12.412
24968W        W90129  32.523  20.039  14.993
24969W        W90130  32.843  18.155   3.386
24970W        W90131  42.038  13.289   2.179
24971W        W90132  30.440  14.132  11.524
24972W        W90133   3.600  31.694   3.529
24973W        W90134  37.057   0.901  13.618
24974W        W90135  12.420  21.180   3.947
24975W        W90136  10.611  31.812   4.585
24976W        W90137  12.653   6.775  14.382
24977W        W90138   0.257  43.813   2.699
24978W        W90139  35.309   1.493  14.590
24979W        W90140  44.187  31.481  11.237
24980W        W90141  25.533   2.191   3.542
24981W        W90142   3.322  41.131  14.332
24982W        W90143   3.381   7.969  12.903
24983W        W90144   6.421  37.391  10.577
24984W        W90145  17.348  16.540   3.148
24985W        W90146  35.553  37.294  14.826
24986W        W90147  37.618  15.352  10.756
24987W        W90148  10.888  28.164  14.514
24988W        W90149   5.425  31.157  14.095
24989W        W90150  15.532  13.224  13.147
24990W        W90151  43.846  23.781  13.031
24991W        W90152  42.481  10.986  10.639
24992W        W90153  30.987   1.233   0.941
24993W        W90154  42.729  37.377  14.064
24994W        W90155  28.540  13.153  11.430
24995W        W90156  10.737   8.928  12.567
24996W        W90157  27.889  43.781  12.016
24997W        W90158  27.135   8.809   0.647
24998W        W90159  20.146  44.354  13.839
24999W        W90160  25.995  17.959  13.832
25000W        W90161  40.427   7.086   0.802
25001W        W90162   4.286  37.825  14.433
25002W        W90163  11.729   2.465   0.874
25003W        W90164  44.731  31.144   3.873
25004W        W90165  36.534  22.256   1.783
25005W        W90166   4.967  26.964   3.244
25006W        W90167  39.028  13.823  11.135
25007W        W90168  23.930  40.030   4.268
25008W        W90169  31.965   4.248   0.192
25009W        W90170  41.210  10.167   2.821
25010W        W90171  35.579  27.583  12.016
25011W        W90172  25.992   3.541   3.755
25012W        W90173  17.488  22.892   3.592
25013W        W90174  43.576  25.597   2.692
25014W        W90175  10.838  11.258   4.104
25015W        W90176  11.448  25.870  11.146
25016W        W90177  41.202  32.137  13.043
25017W        W90178  14.494  34.666   3.884
25018W        W90179  36.962  28.093  11.624
25019W        W90180   5.295  41.745  10.832
25020W        W90181   8.367  13.582  13.487
25021W        W90182  35.002  12.600  14.444
25022W        W90183  37.139  26.483  12.845
25023W        W90184  14.609  14.615   1.802
25024W        W90185  13.830  32.031   1.845
25025W        W90186  39.810  36.026  12.997
25026W        W90187   9.088  20.602   0.266
25027W        W90188  17.917  23.112   0.896
25028W        W90189  28.129   1.169  14.904
25029W        W90190   9.750  34.863  12.053
25030W        W90191   6.756   8.924   0.304
25031W        W90192  36.484   2.396   1.591
25032W        W90193   5.003  31.991  13.710
25033W        W90194  14.428  18.687   2.827
25034W        W90195   4.331  12.665   4.560
25035W        W90196  27.153  40.386   2.325
25036W        W90197  14.334  15.613  10.744
25037W        W90198  12.048  27.152   2.665
25038W        W90199  20.329  27.172  14.757
25039W        W90200  10.176  25.582   0.267
25040W        W90201   6.582  44.125   3.572
25041W        W90202  12.619  33.679  13.186
25042W        W90203   8.957  35.602   3.743
25043W        W90204  11.752  32.014  12.057
25044W        W90205   3.945  40.075   2.445
25045W        W90206  24.870  20.568   1.395
25046W        W90207  41.833  15.302  14.420
25047W        W90208  29.959   4.357  13.746
25048W        W90209  34.202  21.735   2.377
25049W        W90210   7.131  16.257  13.094
25050W        W90211  13.245  42.423  12.647
25051W        W90212  37.316  12.757   2.804
25052W        W90213  40.391  23.817   0.800
25053W        W90214  30.927   0.797  14.526
25054W        W90215  44.214  25.324   5.032
25055W        W90216  11.887  30.574   2.700
25056W        W90217  21.612  42.012   3.975
25057W        W90218  12.782   9.349   0.792
25058W        W90219  41.868   2.252   4.509
25059W        W90220  40.470  15.172   2.398
25060W        W90221  36.598  39.506  11.622
25061W        W90222  31.062  19.476   0.254
25062W        W90223   3.787  28.039   0.371
25063W        W90224  12.538  33.116   3.903
25064W        W90225  26.730  14.304  12.007
25065W        W90226  13.541   9.913  11.618
25066W        W90227  42.794  10.069   0.852
25067W        W90228  30.096   0.883   3.922
25068W        W90229  22.033  36.679  11.183
25069W        W90230  37.639  36.351  13.988
25070W        W90231  28.393  31.923   0.986
25071W        W90232  35.906  31.219  12.968
25072W        W90233  33.427  17.774   4.554
25073W        W90234  42.088  16.484  11.889
25074W        W90235  17.628  41.416  13.389
25075W        W90236  29.548   1.083   1.253
25076W        W90237  23.638  25.001  12.567
25077W        W90238  40.409  26.613  10.708
25078W        W90239  12.141  42.924  12.962
25079W        W90240   1.782  22.693   2.699
25080W        W90241   6.796  18.122  14.866
25081W        W90242   2.529  36.945  12.454
25082W        W90243   9.467  10.867   0.749
25083W        W90244  12.406  17.694   1.033
25084W        W90245  15.055  39.879  12.223
25085W        W90246   5.270   2.395  11.772
25086W        W90247  21.586  22.751   2.649
25087W        W90248   6.849  43.846   4.956
25088W        W90249  25.732  16.849  11.055
25089W        W90250  41.549   0.277  11.126
25090W        W90251  42.023  14.445   4.454
25091W        W90252  34.184  32.965  13.933
25092W        W90253  30.093   4.322  14.754
25093W        W90254  32.128  44.412   0.032
25094W        W90255  32.532  38.289   3.075
25095W        W90256  35.909  22.872   4.594
25096W        W90257  40.050  25.257  12.324
25097W        W90258   4.533  26.299   2.685
25098W        W90259   9.697  10.228   3.307
25099W        W90260  44.524   8.341  11.100
25100W        W90261  43.505  12.311  14.858
25101W        W90262  29.316  16.106  13.102
25102W        W90263   8.393   9.641  14.796
25103W        W90264  20.630   9.599  12.658
25104W        W90265   9.161  17.677   0.855
25105W        W90266   6.837  28.929   1.890
25106W        W90267  23.689  36.863   4.006
25107W        W90268  35.351  12.375   1.407
25108W        W90269   8.599   6.293  11.256
25109W        W90270   6.707  11.793  14.706
25110W        W90271   0.960   1.750   1.175
25111W        W90272   2.865  35.929  13.850
25112W        W90273  43.868  13.347   5.168
25113W        W90274  41.331  12.152   0.745
25114W        W90275  28.592  39.868  14.686
25115W        W90276  39.266   8.940   1.451
25116W        W90277  31.987  34.524   2.701
25117W        W90278  12.383  13.579  11.087
25118W        W90279  38.408  39.794  11.996
25119W        W90280  41.475  10.775  10.775
25120W        W90281  19.604   8.712  11.524
25121W        W90282  23.346  40.858   0.885
25122W        W90283   8.736  11.380   2.723
25123W        W90284  36.892  12.834   4.901
25124W        W90285   7.760  23.694   3.140
25125W        W90286  11.716  44.115  13.168
25126W        W90287  17.503  28.405   4.824
25127W        W90288  37.639  35.119   3.815
25128W        W90289  41.788   4.728   3.709
25129W        W90290  13.269  25.192  14.421
25130W        W90291  24.678  10.975  14.814
25131W        W90292  10.216  16.774  12.833
25132W        W90293  10.385  30.516   0.808
25133W        W90294  30.165  20.366   1.924
25134W        W90295  42.351  29.574   3.259
25135W        W90296  19.468  36.284   3.221
25136W        W90297   2.806  39.954  13.147
25137W        W90298   2.708  41.173   3.156
25138W        W90299  12.480  24.892   0.465
25139W        W90300  37.173  36.029   3.714
25140W        W90301   3.443  36.034   1.793
25141W        W90302  12.696   7.164   1.580
25142W        W90303   0.872  25.250   1.348
25143W        W90304  17.033  19.246  14.034
25144W        W90305  39.787  42.471   0.222
25145W        W90306   1.189  32.902   2.573
25146W        W90307  31.021   2.056  11.120
25147W        W90308  32.572  28.415  13.555
25148W        W90309  34.450  44.819  13.111
25149W        W90310  18.577  16.244  14.964
25150W        W90311   8.708  35.425  10.747
25151W        W90312  21.042   9.925   4.412
25152W        W90313  17.651  13.327  14.015
25153W        W90314  40.343  12.193   2.694
25154W        W90315  33.778  35.017  14.100
25155W        W90316  15.477  22.893   5.017
25156W        W90317  28.520   3.447   4.631
25157W        W90318  34.971  12.060   1.806
25158W        W90319  42.224  33.536   4.854
25159W        W90320  41.215  40.133  13.430
25160W        W90321  35.915  34.134  14.005
25161W        W90322  32.449   1.855  11.296
25162W        W90323  15.059  16.625  14.838
25163W        W90324   2.617  39.643   5.260
25164W        W90325  38.369  19.649  14.313
25165W        W90326  27.218  15.281   1.291
25166W        W90327  29.655  21.292   2.832
25167W        W90328  21.795  37.150   3.145
25168W        W90329  29.424   0.824  13.407
25169W        W90330  25.208   5.311  10.691
25170W        W90331  21.560  35.124   3.699
25171W        W90332  37.590  33.133  12.987
25172W        W90333  30.159   7.694  11.643
25173W        W90334   9.389  41.358   0.989
25174W        W90335  28.864  41.270   0.794
25175W        W90336  43.961  16.308  11.093
25176W        W90337  34.907  17.836  12.122
25177W        W90338  28.747  35.821   4.732
25178W        W90339  25.584  42.553  12.354
25179W        W90340   9.025  35.069   0.913
25180W        W90341   6.301  36.447   4.047
25181W        W90342  36.860  28.182   3.371
25182W        W90343  33.777  33.909  12.363
25183W        W90344  30.883  37.493  12.591
25184W        W90345  31.004  39.165   2.192
25185W        W90346  38.660  12.290  13.990
25186W        W90347  44.869  27.743  11.020
25187W        W90348   2.286  35.864  13.398
25188W        W90349  38.650  14.753   1.847
25189W        W90350  13.233   2.879   4.089
25190W        W90351  32.744   9.319   3.058
25191W        W90352  26.429  43.257  11.147
25192W        W90353  32.374  10.280  13.011
25193W        W90354  41.055  33.060   2.693
25194W        W90355  21.144  21.520   1.645
25195W        W90356  26.739  18.339  11.148
25196W        W90357  24.011  25.528  13.651
25197W        W90358  36.005  16.333  11.580
25198W        W90359  33.811  10.880  13.467
25199W        W90360  33.591  28.215   2.373
25200W        W90361  15.083  21.450  14.898
25201W        W90362  43.811  43.489   4.124
25202W        W90363  20.584  36.194  11.110
25203W        W90364  34.656  18.463  12.929
25204W        W90365  35.161  27.237  14.863
25205W        W90366   8.252  33.971   4.653
25206W        W90367  20.206  35.595  14.237
25207W        W90368  22.969  43.502   4.363
25208W        W90369  36.596   4.961   1.737
25209W        W90370  36.591  40.945   0.839
25210W        W90371  40.866  13.621   0.383
25211W        W90372  10.089  39.754  12.613
25212W        W90373  12.405   1.385  14.301
25213W        W90374   6.763  24.242  13.546
25214W        W90375   3.811  31.713   4.817
25215W        W90376  30.392  21.783   4.252
25216W        W90377  44.821  10.718   1.840
25217W        W90378  28.595  23.089   5.309
25218W        W90379  13.457  22.153   3.590
25219W        W90380  16.606   1.826  14.028
25220W        W90381   0.522  40.255   1.812
25221W        W90382  18.266   1.956   4.688
25222W        W90383  19.374  13.548   2.345
25223W        W90384  22.732  29.771  12.478
25224W        W90385   7.234  41.352   1.337
25225W        W90386  22.974   2.674  12.116
25226W        W90387  25.182  29.456   4.126
25227W        W90388  38.613  27.567   0.847
25228W        W90389  13.668  44.799  10.670
25229W        W90390  33.415   3.838  12.152
25230W        W90391  22.619   5.856  11.790
25231W        W90392  40.868  16.640  12.542
25232W        W90393   2.475  15.143  11.480
25233W        W90394   8.876  12.797   1.868
25234W        W90395  10.412  22.655  14.003
25235W        W90396  32.943  13.259   2.785
25236W        W90397  23.045  42.286  11.952
25237W        W90398  44.681  13.612   2.130
25238W        W90399  35.764   9.519  11.563
25239W        W90400  40.481  14.422   2.871
25240W        W90401  41.274  17.101   3.305
25241W        W90402  35.276   9.713  12.946
25242W        W90403   7.777  16.916   4.109
25243W        W90404  35.002   1.974  11.269
25244W        W90405  26.983  28.663  11.189
25245W        W90406  25.552  28.904  11.583
25246W        W90407  27.666  40.214  10.762
25247W        W90408  12.350  22.905  12.900
25248W        W90409  16.762  39.396  10.141
25249W        W90410  33.112   6.373   3.854
25250W        W90411   3.813  12.442  13.071
25251W        W90412  29.458  26.689   2.723
25252W        W90413   8.575   1.823  13.395
25253W        W90414  19.343   5.433  11.866
25254W        W90415  42.927   8.168  10.560
25255W        W90416  33.849  23.008   2.743
25256W        W90417   3.003  20.715   1.270
25257W        W90418   8.375  44.252   0.825
25258W        W90419  23.194   4.462   0.696
25259W        W90420  22.511  33.689  13.438
25260W        W90421  17.811  24.208   0.288
25261W        W90422  34.809   0.451  14.995
25262W        W90423  25.153  39.056  12.485
25263W        W90424  28.254  18.299   4.568
25264W        W90425  36.376  40.025  14.829
25265W        W90426  13.122  29.564  14.415
25266W        W90427  18.166  32.965   0.419
25267W        W90428  11.125  43.357   3.437
25268W        W90429   4.952  40.914  11.003
25269W        W90430  23.920  23.543   0.391
25270W        W90431  40.941  38.499  14.727
25271W        W90432  14.161  36.644  14.337
25272W        W90433  27.624  10.841   4.060
25273W        W90434  37.035  20.612  12.622
25274W        W90435  42.489  10.432   3.161
25275W        W90436  21.488  19.452   0.889
25276W        W90437  17.795  27.166  11.048
25277W        W90438  15.046  30.346   2.628
25278W        W90439  15.777  17.273   4.695
25279W        W90440  41.441  15.814   1.647
25280W        W90441  39.975  31.905   3.194
25281W        W90442  32.412   2.171  11.879
25282W        W90443  34.803  22.752   9.997
25283W        W90444  17.220  38.689  14.283
25284W        W90445  32.482   6.724   1.218
25285W        W90446  10.742   2.870   0.961
25286W        W90447   1.944  28.913  14.933
25287W        W90448  10.459  10.759   1.969
25288W        W90449  16.775  12.679  12.060
25289W        W90450  41.853  41.020  14.134
25290W        W90451  27.850  13.946   1.208
25291W        W90452  11.198  40.902   1.357
25292W        W90453  44.665  12.548   0.209
25293W        W90454  42.889  20.022  10.728
25294W        W90455  34.588   4.646  14.348
25295W        W90456  26.463  26.200   3.293
25296W        W90457  31.096  27.639   3.993
25297W        W90458  11.390  29.677   2.720
25298W        W90459  38.060   6.800   1.267
25299W        W90460   6.381   9.070  10.972
25300W        W90461   0.546  11.988  13.883
25301W        W90462  44.218   3.190  10.245
25302W        W90463  28.088  34.276   1.619
25303W        W90464  40.396  38.948  13.712
25304W        W90465  43.085  28.927  13.908
25305W        W90466   8.274  21.149   9.986
25306W        W90467  32.606  25.110  14.414
25307W        W90468  11.104  32.873  14.739
25308W        W90469  15.848  29.164   0.439
25309W        W90470   6.958   2.943  14.762
25310W        W90471  34.437   4.912   4.906
25311W        W90472  28.517  35.108  13.519
25312W        W90473   5.833  31.147   4.637
25313W        W90474  17.496  23.219  10.774
25314W        W90475  37.147  21.691   5.334
25315W        W90476  26.111   1.683   3.263
25316W        W90477  14.155  26.490   2.428
25317W        W90478  16.508  10.731  12.051
25318W        W90479   3.455  18.676   1.363
25319W        W90480  20.191  37.910  13.534
25320W        W90481  33.673  32.691  13.833
25321W        W90482  18.406  20.284  14.856
25322W        W90483   7.705   6.384  14.932
25323W        W90484  38.258  43.210   0.881
25324W        W90485   3.497   9.221  12.351
25325W        W90486  34.401  19.795   0.007
25326W        W90487  43.836  14.086   4.175
25327W        W90488  44.470  41.805  11.099
25328W        W90489  17.952  25.702   3.911
25329W        W90490  44.267   4.639  13.925
25330W        W90491  42.542  42.908  10.457
25331W        W90492  24.185  37.035  11.220
25332W        W90493  42.444  37.799  12.961
25333W        W90494  29.403  27.972  12.006
25334W        W90495  11.020  17.067  14.927
25335W        W90496  19.666  36.879   0.305
25336W        W90497  26.126  21.571   0.030
25337W        W90498  40.149  35.679   0.505
25338W        W90499  17.873  34.886  13.806
25339W        W90500  36.117   2.720  14.294
25340W        W90501  19.330  18.800  12.514
25341W        W90502  13.622  42.180  13.642
25342W        W90503  18.480  36.524   4.184
25343W        W90504  29.383  12.514  10.637
25344W        W90505   4.852  29.351  11.660
25345W        W90506  14.399  28.997   1.105
25346W        W90507  11.167  22.210  12.909
25347W        W90508  41.774  38.196   4.560
25348W        W90509  18.726  19.842   1.440
25349W        W90510  20.587  42.577   0.168
25350W        W90511  23.085   6.388   4.641
25351W        W90512  40.020  44.596   2.769
25352W        W90513   2.259   3.390  12.362
25353W        W90514   4.871   5.416   2.715
25354W        W90515  39.937  31.423   3.385
25355W        W90516  29.833  20.200  14.343
25356W        W90517   7.646  40.404  10.942
25357W        W90518  19.547  23.371   0.515
25358W        W90519   7.970  14.738  12.680
25359W        W90520  12.045  40.825  14.771
25360W        W90521  26.097  23.443  12.563
25361W        W90522  10.689  38.540   1.444
25362W        W90523   3.307  20.251   0.401
25363W        W90524  34.817  26.061   4.341
25364W        W90525  11.216  17.565  10.901
25365W        W90526  30.757  24.704   3.145
25366W        W90527  24.135  23.201   3.218
25367W        W90528   2.199  25.276   1.432
25368W        W90529  34.941   4.336  13.956
25369W        W90530  39.375   8.397   1.253
25370W        W90531  14.460  18.686   3.675
25371W        W90532  26.214  43.480  11.576
25372W        W90533  36.271  27.395   1.268
25373W        W90534  36.936  37.494   3.089
25374W        W90535  13.544   2.024  14.873
25375W        W90536  25.150   5.038  11.509
25376W        W90537  23.231   2.691   1.418
25377W        W90538  35.040  36.702  12.654
25378W        W90539   4.660  17.214  12.105
25379W        W90540  24.702  40.400  11.617
25380W        W90541  36.120   2.665   3.863
25381W        W90542  44.884  31.885   1.371
25382W        W90543  14.883  15.985   3.158
25383W        W90544  42.549  19.228  14.779
25384W        W90545  26.941  33.457  10.810
25385W        W90546   9.845   9.847   2.640
25386W        W90547  17.058  37.632  14.402
25387W        W90548  34.058  31.171  13.387
25388W        W90549   4.707  19.508  13.007
25389W        W90550  39.035  11.782   1.390
25390W        W90551  27.169  34.699  13.304
25391W        W90552   8.678  43.656  14.012
25392W        W90553  18.058   2.721   3.499
25393W        W90554  10.380   0.219   0.381
25394W        W90555  32.964  27.520   2.249
25395W        W90556  28.508  42.220   2.718
25396W        W90557   4.564  44.754   0.220
25397W        W90558  23.259  37.476  11.158
25398W        W90559   2.192  44.998   1.490
25399W        W90560   9.847   4.536   0.287
25400W        W90561  34.054  29.274   4.994
25401W        W90562   4.509  23.514   3.535
25402W        W90563   5.740  38.527   0.536
25403W        W90564  15.270  24.946   3.710
25404W        W90565  41.472  44.834   1.118
25405W        W90566  19.448  19.833   2.457
25406W        W90567  40.863  20.285   2.379
25407W        W90568   9.599  23.867   0.825
25408W        W90569   6.634  25.943  14.045
25409W        W90570  22.673   6.010  12.266
25410W        W90571   5.277  41.313  11.221
25411W        W90572  37.373  14.902   4.747
25412W        W90573  11.828  18.981  11.247
25413W        W90574   3.241  35.472  12.000
25414W        W90575   8.777  27.266   1.707
25415W        W90576  24.004   8.589  13.359
25416W        W90577  15.451   2.362   4.237
25417W        W90578  39.955   9.699  13.750
25418W        W90579   0.419   0.023   4.475
25419W        W90580  21.855  30.487   0.873
25420W        W90581  12.747  41.373   2.480
25421W        W90582  42.798  38.456   0.514
25422W        W90583  22.597  14.784  12.786
25423W        W90584  41.320  38.010  10.299
25424W        W90585  27.165  25.981  13.800
25425W        W90586   8.178  37.244   5.046
25426W        W90587  15.583   7.514   1.728
25427W        W90588  36.797  42.250  14.785
25428W        W90589  29.775  31.247   1.837
25429W        W90590  19.282  18.371   5.492
25430W        W90591  26.638  32.536   2.032
25431W        W90592  36.912  19.560   0.814
25432W        W90593  30.502   5.440  12.601
25433W        W90594  42.810  13.086  13.359
25434W        W90595  38.448  12.284   0.291
25435W        W90596  34.015   3.629   4.512
25436W        W90597  31.856  32.605   2.547
25437W        W90598  42.775  23.570  13.720
25438W        W90599  13.902   5.210   2.754
25439W        W90600  44.082   8.156   2.288
25440W        W90601  14.387  18.061   3.366
25441W        W90602  34.631   2.475   2.832
25442W        W90603  15.656  29.295   2.341
25443W        W90604   6.648  37.959   1.283
25444W        W90605  23.501   8.227  13.233
25445W        W90606  35.443   8.667  11.697
25446W        W90607  38.748  20.974  11.961
25447W        W90608  36.840   6.220   4.631
25448W        W90609   1.938  33.594  12.066
25449W        W90610  23.768  44.335  14.870
25450W        W90611  20.249  36.866   2.666
25451W        W90612  12.564  24.477   3.672
25452W        W90613  35.841  16.038   3.333
25453W        W90614  24.689  35.467  12.011
25454W        W90615  40.765  35.567   3.702
25455W        W90616  22.980   7.361  12.903
25456W        W90617  24.244  18.141   4.128
25457W        W90618   5.869  12.475   0.405
25458W        W90619  20.078  15.656   1.901
25459W        W90620  43.503  10.831  12.186
25460W        W90621  35.449  41.416   0.350
25461W        W90622  35.357  11.520  14.094
25462W        W90623  15.959  34.968  14.883
25463W        W90624  36.630  24.624  12.366
25464W        W90625   5.279   8.441  10.519
25465W        W90626   9.091  43.041  10.083
25466W        W90627   5.629  30.532   0.866
25467W        W90628  15.741  33.626   1.377
25468W        W90629   8.213  23.888  13.980
25469W        W90630  32.386  44.357  12.531
25470W        W90631  23.485  38.565   3.284
25471W        W90632  20.746  12.685  12.446
25472W        W90633  30.605  35.737   0.115
25473W        W90634   9.710  39.492  11.427
25474W        W90635  13.150   4.926  11.004
25475W        W90636  31.346  38.711  10.248
25476W        W90637   2.877   6.964   0.349
25477W        W90638  33.144  30.438   3.872
25478W        W90639  29.558  10.814   4.538
25479W        W90640   9.821  24.909   2.420
25480W        W90641   3.914  32.114  11.140
25481W        W90642  44.261   8.903   1.901
25482W        W90643  33.398  37.955   4.955
25483W        W90644   5.431   6.958   3.529
25484W        W90645  26.192   0.829  12.518
25485W        W90646  21.225  23.573   1.432
25486W        W90647  40.494  22.972  14.377
25487W        W90648   8.952  35.971  11.567
25488W        W90649  18.209   9.837  14.957
25489W        W90650  37.044  20.762  13.497
25490W        W90651  28.570  41.388  14.903
25491W        W90652  29.013  40.670  13.990
25492W        W90653  12.399  10.241   3.072
25493W        W90654  31.673   9.755   4.677
25494W        W90655  42.698  18.053  12.245
25495W        W90656  39.578  12.441  14.344
25496W        W90657  28.980   9.854   0.753
25497W        W90658   7.246  36.522  14.822
25498W        W90659  17.697  39.280   0.082
25499W        W90660   0.776   2.357   4.169
25500W        W90661  13.087  14.765   2.678
25501W        W90662  30.145  25.142  11.426
25502W        W90663  28.177  24.636  12.526
25503W        W90664   2.160  14.623  13.251
25504W        W90665  36.093  40.328  13.174
25505W        W90666  22.749  13.570   1.465
25506W        W90667  36.021  30.811  12.342
25507W        W90668  38.368  32.073  12.659
25508W        W90669  27.400   3.147  12.514
25509W        W90670  41.762  39.774  14.818
25510W        W90671  28.438  17.821  12.161
25511W        W90672   4.827  44.035  14.879
25512W        W90673  40.492  25.719   0.321
25513W        W90674   5.543  40.736   1.380
25514W        W90675  30.918  21.778   9.814
25515W        W90676  40.685  20.120  11.194
25516W        W90677  24.212  40.767   1.139
25517W        W90678  18.773  35.087   4.316
25518W        W90679   0.578  39.715   5.437
25519W        W90680   6.163   0.862   2.308
25520W        W90681  20.104  32.958   0.398
25521W        W90682  18.040  24.402  10.756
25522W        W90683   2.764  14.989   2.867
25523W        W90684  32.002  12.139   0.074
25524W        W90685   2.289  42.236  14.304
25525W        W90686  33.802  33.490  13.251
25526W        W90687  32.375  17.048   2.665
25527W        W90688  20.170  17.802   3.084
25528W        W90689  11.484  42.752   1.732
25529W        W90690  32.661   0.428  11.657
25530W        W90691   7.049  34.313   4.491
25531W        W90692  36.199   2.153  13.480
25532W        W90693   1.722  28.646  13.451
25533W        W90694   7.608  19.085  12.761
25534W        W90695   9.747  23.297   1.210
25535W        W90696  10.210  12.171   0.059
25536W        W90697  22.185  28.647  14.772
25537W        W90698   2.753   9.875   4.678
25538W        W90699  15.114   6.816  10.697
25539W        W90700   2.235  22.989  13.340
25540W        W90701  14.208  40.812  13.970
25541W        W90702   8.249  37.578  13.479
25542W        W90703  30.038   9.677   0.827
25543W        W90704  29.718  25.473   3.175
25544W        W90705  37.445  15.575   1.436
25545W        W90706  38.385   5.672   0.381
25546W        W90707  41.089  39.804  14.286
25547W        W90708  24.663   7.832   2.772
25548W        W90709  39.633  31.122   1.732
25549W        W90710  14.191  41.348  14.693
25550W        W90711  10.926  40.086  13.508
25551W        W90712  22.110  36.533   4.413
25552W        W90713  15.161  41.298   0.836
25553W        W90714  19.676  28.780  11.605
25554W        W90715  20.108  21.143   0.822
25555W        W90716  25.295  32.587  13.896
25556W        W90717  31.636   7.929   0.398
25557W        W90718   4.191  31.368   2.899
25558W        W90719  14.672  19.695   4.536
25559W        W90720  21.203  36.897   4.930
25560W        W90721  21.175  39.848  14.684
25561W        W90722   8.856  23.707  14.406
25562W        W90723  30.690  27.004  11.658
25563W        W90724  31.071  22.574   1.355
25564W        W90725   1.845   8.944   2.876
25565W        W90726  13.596  40.562   9.890
25566W        W90727   3.632  44.972   2.844
25567W        W90728   9.628  10.633   0.260
25568W        W90729  42.854  19.478  12.163
25569W        W90730  33.604  44.901   3.716
25570W        W90731  12.354  40.225   2.205
25571W        W90732  10.266  17.014   4.943
25572W        W90733  18.680  35.954   0.468
25573W        W90734  12.424  27.130   3.030
25574W        W90735  16.616  17.721   5.659
25575W        W90736   8.943   6.087  14.529
25576W        W90737  24.118   8.895  12.046
25577W        W90738  41.893  25.709   3.094
25578W        W90739  14.206  12.687   1.009
25579W        W90740  37.505   0.675   0.910
25580W        W90741  26.220  34.039   2.812
25581W        W90742  12.156  24.330  12.818
25582W        W90743   2.524  34.839  12.170
25583W        W90744  30.434  10.827  13.214
25584W        W90745  36.062  41.083   1.326
25585W        W90746  20.087   6.878   0.055
25586W        W90747  41.807  27.857  12.863
25587W        W90748  37.529  11.097   0.360
25588W        W90749  32.585  41.099  12.375
25589W        W90750   6.360  42.789  12.884
25590W        W90751   7.386  11.829  14.287
25591W        W90752   9.342   6.314  12.300
25592W        W90753   7.380  22.655   2.887
25593W        W90754  42.789  42.499  14.458
25594W        W90755  41.294  24.155   3.855
25595W        W90756  30.390  25.485   3.744
25596W        W90757   1.627  25.990  14.487
25597W        W90758   1.750  14.250   0.397
25598W        W90759  40.984  20.144   4.242
25599W        W90760  26.040   2.979  13.623
25600W        W90761  17.293  13.137   2.312
25601W        W90762  39.837   6.675   1.496
25602W        W90763   8.846  30.251  12.116
25603W        W90764  10.915  31.808  11.196
25604W        W90765   4.049  11.200   4.139
25605W        W90766  30.452  18.642   1.410
25606W        W90767  38.639  39.156   4.141
25607W        W90768   1.466   9.176   4.100
25608W        W90769  19.314  40.785   4.225
25609W        W90770  24.716  15.726   1.045
25610W        W90771  14.806  26.245  14.331
25611W        W90772   9.008  20.075   0.286
25612W        W90773  14.852   5.238   3.174
25613W        W90774  16.226  41.555  14.445
25614W        W90775   8.740  14.683   3.310
25615W        W90776  17.662   7.305  13.556
25616W        W90777  43.847  42.527   2.594
25617W        W90778   1.256  17.691   2.303
25618W        W90779   2.801   1.265   2.165
25619W        W90780  31.240  10.341  14.811
25620W        W90781  25.486   6.803   4.876
25621W        W90782   1.780  33.148  13.609
25622W        W90783  14.357  20.099  14.274
25623W        W90784  11.341  12.549  14.245
25624W        W90785  42.892  37.376  13.579
25625W        W90786   4.807  31.228   3.879
25626W        W90787  10.870  32.881  13.328
25627W        W90788  10.226   8.343   3.316
25628W        W90789  24.845   6.605   0.399
25629W        W90790  12.196  19.054  13.451
25630W        W90791  25.783  12.903   4.975
25631W        W90792  29.570  39.599  11.760
25632W        W90793   2.265   9.675   0.172
25633W        W90794  17.614   0.126  10.094
25634W        W90795   7.649   1.751  14.501
25635W        W90796   1.741  29.602   2.332
25636W        W90797  27.849  27.628  12.590
25637W        W90798  21.761  32.379   2.478
25638W        W90799  33.565  29.942  14.372
25639W        W90800  11.635   9.382  11.648
25640W        W90801  23.999   6.235   0.031
25641W        W90802   1.043  18.688  12.842
25642W        W90803  21.130   3.902   2.207
25643W        W90804  30.623  19.592   0.475
25644W        W90805  30.052   9.256  12.542
25645W        W90806  20.315  37.013  13.563
25646W        W90807  35.071  24.745   3.773
25647W        W90808   3.424   2.753  12.644
25648W        W90809  31.405  12.362   2.362
25649W        W90810  19.452  40.914  14.310
25650W        W90811  39.131  24.749  13.864
25651W        W90812  15.332  30.412  13.567
25652W        W90813  31.526  34.045  12.649
25653W        W90814   1.287  38.460  13.449
25654W        W90815  20.003  28.162   1.453
25655W        W90816  16.901  17.693  11.041
25656W        W90817  15.826   9.736   2.777
25657W        W90818  35.058  27.559  13.494
25658W        W90819  29.936  42.837   0.472
25659W        W90820  29.543  44.823   4.408
25660W        W90821  19.221   5.640  14.543
25661W        W90822  17.608   5.926   2.176
25662W        W90823  18.829  10.011   4.452
25663W        W90824  12.904  37.683  13.493
25664W        W90825  15.519  43.269   3.270
25665W        W90826   8.645  25.016  11.594
25666W        W90827   1.142   0.141   1.731
25667W        W90828   2.427  33.397  12.002
25668W        W90829   5.342  18.760  12.878
25669W        W90830   8.980  30.433   3.141
25670W        W90831  40.882  17.660  13.246
25671W        W90832  38.298  23.141  12.572
25672W        W90833  12.757   3.459   0.690
25673W        W90834  30.413  22.445   0.846
25674W        W90835  12.329  12.833  14.268
25675W        W90836  28.937   1.846  14.069
25676W        W90837  26.965   5.630   0.302
25677W        W90838  35.908  34.181   0.386
25678W        W90839  36.046  25.498   3.124
25679W        W90840  21.264  29.119   0.660
25680W        W90841  39.427   8.098   2.825
25681W        W90842  29.412  24.576   1.857
25682W        W90843  11.959  42.789   3.666
25683W        W90844  41.547  29.551   3.858
25684W        W90845  30.891  29.181   1.708
25685W        W90846  44.901  42.809  11.671
25686W        W90847   9.058  11.554  12.811
25687W        W90848  20.315  17.179   9.826
25688W        W90849  36.575  23.695   1.707
25689W        W90850  24.412   7.874   2.323
25690W        W90851  21.468  11.006  11.606
25691W        W90852  43.880  21.650  11.878
25692W        W90853  35.898  39.783  12.041
25693W        W90854   3.791   0.618  14.965
25694W        W90855   7.607   1.748  13.971
25695W        W90856  16.117  44.377  11.621
25696W        W90857  40.288  26.965   0.862
25697W        W90858   6.804  30.346   1.854
25698W        W90859  26.941  27.253  11.494
25699W        W90860  18.184  29.493  13.128
25700W        W90861  36.564  15.287  10.754
25701W        W90862   0.410  31.644  14.370
25702W        W90863  36.780   6.599   4.262
25703W        W90864  39.848  40.093  12.032
25704W        W90865   6.127  38.878   2.929
25705W        W90866   8.314   0.853   0.010
25706W        W90867  24.929   4.256   0.462
25707W        W90868  44.464   1.063   4.252
25708W        W90869  12.628  13.400   4.752
25709W        W90870   5.532  24.991  11.583
25710W        W90871   1.820  14.299   5.003
25711W        W90872   8.344  44.456  13.669
25712W        W90873  38.623  41.954   2.782
25713W        W90874  29.451  23.004  13.420
25714W        W90875  16.168  40.528  14.571
25715W        W90876   8.037  16.552  12.581
25716W        W90877  43.061  42.541   3.714
25717W        W90878   8.415  12.827   4.627
25718W        W90879  42.895   3.334   3.992
25719W        W90880  30.657   3.811   2.220
25720W        W90881  18.286  44.273   4.764
25721W        W90882  40.391  31.897  10.411
25722W        W90883  33.665  10.779  11.166
25723W        W90884   9.553   1.699   1.351
25724W        W90885  36.774  32.165   1.704
25725W        W90886  14.245  14.587   2.206
25726W        W90887  19.691  21.163   1.241
25727W        W90888   7.774  36.119  13.025
25728W        W90889   4.870  28.832   4.513
25729W        W90890  19.584   5.274  13.138
25730W        W90891  18.617   9.722   0.860
25731W        W90892  43.364  32.134   1.465
25732W        W90893  34.533   1.953   1.762
25733W        W90894  39.167  42.345   1.039
25734W        W90895  18.231   2.697  13.901
25735W        W90896  36.447   3.535   3.845
25736W        W90897   8.387  25.458  10.768
25737W        W90898  11.849   5.270   0.985
25738W        W90899  39.206  27.568  12.979
25739W        W90900  27.437  24.845   4.084
25740W        W90901  29.867  14.618  14.775
25741W        W90902  22.112  39.809  12.838
25742W        W90903   7.003   6.176  12.579
25743W        W90904   5.951  20.270  10.691
25744W        W90905  43.100  39.133   1.484
25745W        W90906   7.833  22.019  12.689
25746W        W90907  19.776   3.482   1.274
25747W        W90908  19.592  22.285  10.200
25748W        W90909  11.824   6.338  11.564
25749W        W90910  18.200  14.807   2.703
25750W        W90911  26.329  44.305   0.343
25751W        W90912   2.040  43.608   0.623
25752W        W90913  22.972  35.168   2.188
25753W        W90914  38.668  42.431   4.684
25754W        W90915  40.288  24.762   2.711
25755W        W90916  26.547  41.992   0.891
25756W        W90917  26.534  21.029   3.511
25757W        W90918  19.845  32.910  12.550
25758W        W90919  29.095  19.558   4.712
25759W        W90920  33.311   9.506  12.085
25760W        W90921  40.489  23.974   4.118
25761W        W90922  35.394  30.962   0.143
25762W        W90923  26.514  40.738   4.066
25763W        W90924  44.710  14.188   3.250
25764W        W90925  32.026   3.497  11.898
25765W        W90926  12.070  30.993   3.063
25766W        W90927  40.521   5.226  10.754
25767W        W90928  23.581  25.283  11.666
25768W        W90929  12.565   2.135  14.750
25769W        W90930  12.891   2.574  11.876
25770W        W90931  40.518  36.361   4.306
25771W        W90932  12.234  39.333  14.406
25772W        W90933  10.502  23.853   2.819
25773W        W90934   1.816   9.783   1.493
25774W        W90935  22.280  25.992   0.208
25775W        W90936  44.253  27.694  10.598
25776W        W90937   8.384  38.612   3.588
25777W        W90938  44.272  30.014   0.966
25778W        W90939   3.392   2.020   3.680
25779W        W90940  30.510  21.944   5.528
25780W        W90941  14.220  19.626   2.385
25781W        W90942  34.544  37.298   4.339
25782W        W90943   9.708   1.545   0.312
25783W        W90944   3.903  20.901   2.192
25784W        W90945  25.961  11.758   3.618
25785W        W90946   8.481  26.762   4.595
25786W        W90947  33.924   3.042  11.594
25787W        W90948  42.986  42.934  11.190
25788W        W90949  43.263  20.205   4.594
25789W        W90950   7.636  40.249  10.446
25790W        W90951  43.069  40.913  10.660
25791W        W90952  33.884  15.548   3.749
25792W        W90953  38.277  42.474   3.735
25793W        W90954  43.518  34.553  10.315
25794W        W90955  27.815  21.381   3.725
25795W        W90956  32.247  14.835  14.512
25796W        W90957   9.133  33.883  11.983
25797W        W90958   0.924  29.662  11.186
25798W        W90959  44.246  38.312  12.800
25799W        W90960  35.480  43.501  11.068
25800W        W90961   5.280  29.156  12.830
25801W        W90962  30.423   3.213   4.193
25802W        W90963   9.209  29.449  11.986
25803W        W90964  18.206  41.029   2.278
25804W        W90965  44.295  21.174   2.123
25805W        W90966   9.994   9.939   0.908
25806W        W90967  31.610  24.452   1.822
25807W        W90968  22.116  13.341   4.585
25808W        W90969  20.521  36.480   0.599
25809W        W90970  20.053  14.175   0.839
25810W        W90971  44.324  29.558   1.779
25811W        W90972  18.181  43.885  14.909
25812W        W90973  20.690  27.998  13.532
25813W        W90974  30.604  33.570   1.153
25814W        W90975  13.694  43.216  14.757
25815W        W90976  38.488  40.925  14.570
25816W        W90977  40.428   6.025   3.876
25817W        W90978  40.994  36.537  14.705
25818W        W90979  11.735  42.874  10.706
25819W        W90980   0.795  33.150  13.507
25820W        W90981   2.265   9.829  11.199
25821W        W90982  14.044  13.462   1.639
25822W        W90983  23.367  28.460  11.533
25823W        W90984  35.551  44.066   0.997
25824W        W90985  15.611   2.490   1.426
25825W        W90986  28.413   0.987  12.146
25826W        W90987  10.177  27.500  14.212
25827W        W90988  38.854  25.464  14.307
25828W        W90989  21.525  19.108  14.065
25829W        W90990  26.993  28.536   2.619
25830W        W90991   3.802  36.904   4.690
25831W        W90992   9.841   8.306   4.100
25832W        W90993  39.905  41.410  12.660
25833W        W90994  11.794  41.865   1.702
25834W        W90995  24.058  42.476  14.676
25835W        W90996  16.622  31.545   4.509
25836W        W90997   9.083  24.151  10.753
25837W        W90998   0.215  34.523   1.372
25838W        W90999   7.306  19.220  11.165
25839W        W91000  41.996  40.838   0.204
25840W        W91001  28.090  27.680  12.102
25841W        W91002  41.910  22.364  12.883
25842W        W91003  26.929  36.114  12.040
25843W        W91004   9.148  23.510   3.294
25844W        W91005   1.877  27.671   2.372
25845W        W91006  31.334   3.838   1.636
25846W        W91007  13.172  22.671   3.113
25847W        W91008  36.050   6.188  11.240
25848W        W91009  23.756  40.281  12.955
25849W        W91010  32.563  23.301  13.301
25850W        W91011  39.942  13.135   2.312
25851W        W91012  30.883   6.300  14.798
25852W        W91013  31.162   9.645  11.074
25853W        W91014  41.074  43.433   2.863
25854W        W91015  12.674  42.901  13.026
25855W        W91016  41.354  16.210  14.937
25856W        W91017  28.078  15.829   2.844
25857W        W91018  36.452  18.834   0.741
25858W        W91019  12.182  13.160  11.944
25859W        W91020   0.335  43.507   3.118
25860W        W91021  40.696   9.430  10.679
25861W        W91022  39.059  42.226   4.000
25862W        W91023   6.785  16.288   3.122
25863W        W91024  24.412  32.418   4.182
25864W        W91025  38.437   3.782  10.940
25865W        W91026  22.177   3.462   1.821
25866W        W91027  17.040  21.233   4.167
25867W        W91028  25.137  39.591  12.456
25868W        W91029  24.744  21.654  14.254
25869W        W91030  34.798  10.338  10.439
25870W        W91031  36.895   8.802   0.893
25871W        W91032  39.632  44.544  12.786
25872W        W91033  31.940   6.278  14.009
25873W        W91034  35.976  39.820   1.789
25874W        W91035  10.729  42.061  13.052
25875W        W91036   3.362  37.593   2.699
25876W        W91037  12.580  44.280  12.301
25877W        W91038  17.694  42.857   3.562
25878W        W91039   4.189   6.240  14.373
25879W        W91040  44.144  23.702  13.832
25880W        W91041  24.435  19.348   0.942
25881W        W91042  23.085  32.035   1.281
25882W        W91043  27.753   0.751  14.100
25883W        W91044  30.546  26.388  14.943
25884W        W91045  10.357  18.313   1.524
25885W        W91046  37.196   3.218   2.853
25886W        W91047  32.794  15.358   3.162
25887W        W91048  16.687  38.535  10.049
25888W        W91049   0.831  40.520   4.460
25889W        W91050  35.326   3.428  14.215
25890W        W91051  25.586  41.770  14.079
25891W        W91052  32.708  25.275   0.286
25892W        W91053  16.361  19.294  13.399
25893W        W91054  38.889  26.294  10.644
25894W        W91055  30.131  40.634  12.617
25895W        W91056  29.024  27.032   3.349
25896W        W91057   0.417  35.829  13.048
25897W        W91058   5.136  13.690  14.379
25898W        W91059  25.980  37.950   2.317
25899W        W91060  29.282  14.998  12.203
25900W        W91061  20.181  32.462   0.212
25901W        W91062  28.905  31.974   4.718
25902W        W91063   5.761   4.976   4.584
25903W        W91064   8.606   7.281   4.091
25904W        W91065  35.008  31.442  10.952
25905W        W91066  33.899   1.233   3.450
25906W        W91067  14.182  11.893  13.305
25907W        W91068  42.852  10.611   2.261
25908W        W91069   2.823  44.390  13.606
25909W        W91070  12.640  30.677   0.440
25910W        W91071  22.475  41.080   3.195
25911W        W91072   4.025   5.248  13.481
25912W        W91073  35.289   1.574   1.363
25913W        W91074  44.267  16.824  14.165
25914W        W91075  32.353  33.491  12.073
25915W        W91076  19.964  16.146   1.719
25916W        W91077  28.382  34.845   0.398
25917W        W91078  11.909   5.350   3.139
25918W        W91079   4.484   7.400  14.583
25919W        W91080  39.265  38.034  12.563
25920W        W91081  24.000  42.113   1.012
25921W        W91082  38.422  29.652  14.338
25922W        W91083  35.426  28.347  10.974
25923W        W91084  27.719  20.889   3.645
25924W        W91085   4.388  27.415  11.833
25925W        W91086   7.478   9.322   0.438
25926W        W91087  16.292  17.706   2.845
25927W        W91088  13.211  21.261   4.584
25928W        W91089   0.902  21.602  10.587
25929W        W91090  14.362  41.909  13.445
25930W        W91091  13.131  30.555   4.515
25931W        W91092  18.032   4.542   0.492
25932W        W91093  21.214  32.889  11.770
25933W        W91094  33.746  22.550   1.946
25934W        W91095  17.963  35.974  12.395
25935W        W91096  32.050  17.074  13.905
25936W        W91097  32.486  41.431   0.766
25937W        W91098   3.388  28.525   2.550
25938W        W91099   8.769   6.992   3.621
25939W        W91100  13.077  39.007  13.816
25940W        W91101  42.909  16.849   3.646
25941W        W91102  44.968  34.076  10.955
25942W        W91103  34.128   6.292  11.263
25943W        W91104  18.613   7.340  13.853
25944W        W91105  19.291  31.514   0.609
25945W        W91106  43.516   1.858   3.401
25946W        W91107  41.857  33.007  14.581
25947W        W91108  30.541  31.701  13.471
25948W        W91109   6.456  33.561  14.294
25949W        W91110  15.309  34.046  11.061
25950W        W91111   7.508  34.134   1.676
25951W        W91112  12.766   9.722  11.060
25952W        W91113  35.573   8.307   0.915
25953W        W91114  35.822   3.638  11.588
25954W        W91115   1.846   8.824  11.134
25955W        W91116  20.429   7.693   3.634
25956W        W91117  25.951   7.557  11.108
25957W        W91118  14.086   0.777  12.521
25958W        W91119  34.023  11.061  13.914
25959W        W91120  23.693  26.664   1.858
25960W        W91121  26.922  29.510  14.340
25961W        W91122  32.030  28.984  12.143
25962W        W91123  32.415  15.902  10.680
25963W        W91124   9.829  28.407   4.307
25964W        W91125  34.820   8.812   3.731
25965W        W91126  10.540   0.302  11.216
25966W        W91127  11.413  35.805   2.732
25967W        W91128  35.370  14.216  12.103
25968W        W91129  35.642  38.953  11.105
25969W        W91130  27.618  26.076   2.332
25970W        W91131  19.621  36.402   0.542
25971W        W91132   1.596   7.258  12.948
25972W        W91133  32.845  24.595  11.615
25973W        W91134  23.018  30.827  11.055
25974W        W91135  34.343  19.883  12.098
25975W        W91136  34.927  11.984   2.678
25976W        W91137  35.859   4.213  14.298
25977W        W91138  26.351  40.840  12.491
25978W        W91139   6.220   3.326   4.157
25979W        W91140  29.226  28.162  14.615
25980W        W91141  17.786   8.210   0.297
25981W        W91142  40.949   6.974   0.194
25982W        W91143  34.649  41.829  11.677
25983W        W91144  40.123  16.619   0.867
25984W        W91145  15.835   5.742   1.851
25985W        W91146  15.798  23.262  12.337
25986W        W91147  39.981  24.087   3.429
25987W        W91148  22.521  38.826  14.942
25988W        W91149   2.508  36.544   1.100
25989W        W91150   1.516   3.224   3.201
25990W        W91151   8.835  21.317   1.759
25991W        W91152  12.587  22.210   3.003
25992W        W91153   6.770  42.617   2.116
25993W        W91154   1.951  30.431  14.115
25994W        W91155  38.000  23.573   2.457
25995W        W91156  15.003  36.084  12.771
25996W        W91157  25.956  26.705   3.698
25997W        W91158  12.100  11.751   4.196
25998W        W91159  24.189   8.380  11.187
25999W        W91160   8.619  37.421  13.827
26000W        W91161   3.420  24.507  11.062
26001W        W91162  22.672   4.792  11.578
26002W        W91163  42.024  21.380   2.464
26003W        W91164   4.166  21.623   1.757
26004W        W91165  17.719   3.377   3.630
26005W        W91166  44.068  12.855   9.485
26006W        W91167   9.206  35.565   0.889
26007W        W91168   9.864  29.857   3.212
26008W        W91169   9.394   6.606  13.758
26009W        W91170  44.706   6.170  10.104
26010W        W91171  19.397  16.136   4.043
26011W        W91172  17.295  20.431  13.452
26012W        W91173  16.740   6.684   1.692
26013W        W91174  14.999  28.969   3.640
26014W        W91175  38.923  17.813   3.070
26015W        W91176  44.026  27.569  12.128
26016W        W91177   2.785  38.380   1.599
26017W        W91178  18.736  43.323   0.873
26018W        W91179  32.378  18.015   0.366
26019W        W91180   4.922  32.935   3.233
26020W        W91181  30.975   5.272  12.488
26021W        W91182   0.327   8.704   1.436
26022W        W91183  20.262  30.552  10.709
26023W        W91184  26.702  37.493   2.307
26024W        W91185   8.652  10.338   1.307
26025W        W91186  31.503  21.076   4.503
26026W        W91187  40.366  19.695  14.927
26027W        W91188  44.755  10.829  10.861
26028W        W91189  24.895  35.833  11.028
26029W        W91190  25.196  16.762   2.422
26030W        W91191  27.597  35.084   0.039
26031W        W91192  15.968  36.999   2.902
26032W        W91193  17.880  25.634  13.484
26033W        W91194  36.109   0.429  11.423
26034W        W91195  43.751  18.143   4.181
26035W        W91196  23.007  39.366  11.889
26036W        W91197   3.510   5.297   3.274
26037W        W91198  20.558  30.578  12.966
26038W        W91199  14.494  37.002  11.687
26039W        W91200  23.115   0.724   2.719
26040W        W91201  16.396  12.185  10.760
26041W        W91202  35.039  37.881  13.329
26042W        W91203   0.033   8.109  13.626
26043W        W91204   3.209  23.709  13.939
26044W        W91205  24.692  21.983   3.185
26045W        W91206  17.230   0.751  14.942
26046W        W91207  26.420  30.415  10.328
26047W        W91208   5.655  40.512  14.335
26048W        W91209  25.662  18.226   4.626
26049W        W91210  25.553   6.333  14.520
26050W        W91211   6.400  24.324   2.430
26051W        W91212  40.165  37.551   0.312
26052W        W91213  27.168   2.232  11.174
26053W        W91214  25.619  40.331  11.444
26054W        W91215  14.762   2.014   2.281
26055W        W91216  16.920  16.240   1.782
26056W        W91217  28.191  30.343  12.213
26057W        W91218  14.113  14.577   1.709
26058W        W91219  26.078  13.890   1.678
26059W        W91220  25.991  39.877  12.492
26060W        W91221  32.293  32.428   4.931
26061W        W91222  21.288  40.423   3.298
26062W        W91223  41.918  17.357  14.770
26063W        W91224  15.154  44.917  12.500
26064W        W91225   0.294  41.306  11.179
26065W        W91226  44.943  35.166   1.930
26066W        W91227   4.951  10.281  13.564
26067W        W91228  34.806  15.340   2.702
26068W        W91229  22.323  10.763   4.470
26069W        W91230  39.022  38.449   3.143
26070W        W91231  42.614  14.252  10.557
26071W        W91232   0.094  40.563   2.945
26072W        W91233  16.867  18.152  10.787
26073W        W91234  44.485  29.770   3.907
26074W        W91235  41.648   2.747   3.215
26075W        W91236  18.653  22.641  12.127
26076W        W91237  39.669   0.421  13.139
26077W        W91238  34.322  26.514  12.434
26078W        W91239  22.134  17.080  11.064
26079W        W91240  26.239   3.558  10.738
26080W        W91241  37.721   1.851  10.161
26081W        W91242  35.184   6.009   3.686
26082W        W91243  33.385  38.586  12.057
26083W        W91244   8.269  20.225   2.805
26084W        W91245  41.545  44.785  12.935
26085W        W91246  29.972  13.047   2.699
26086W        W91247  15.235  13.400  14.027
26087W        W91248  20.784  36.556  12.888
26088W        W91249  13.878  34.379  12.204
26089W        W91250  16.098  20.077   0.424
26090W        W91251  14.150   3.469  12.512
26091W        W91252   4.169  23.646   2.618
26092W        W91253  36.371  11.490   5.202
26093W        W91254  10.327  44.788  13.453
26094W        W91255   0.200  32.787  12.770
26095W        W91256  14.063  41.334  13.863
26096W        W91257  40.965  41.819   1.846
26097W        W91258  16.314  23.179  14.229
26098W        W91259  18.328   0.054  14.266
26099W        W91260  22.621  24.179   0.282
26100W        W91261  36.413  28.087  14.851
26101W        W91262  16.615  31.203  11.668
26102W        W91263  21.749   8.228  10.894
26103W        W91264  35.090   6.515   4.514
26104W        W91265  39.816   3.983   2.621
26105W        W91266  42.277   3.307  13.551
26106W        W91267  42.304   4.738  13.776
26107W        W91268   7.384  14.374  10.659
26108W        W91269  36.549  27.394   1.703
26109W        W91270  30.592  22.648  12.161
26110W        W91271  21.669   4.488  11.368
26111W        W91272  25.749  30.478  13.583
26112W        W91273   9.518  16.168   1.049
26113W        W91274  25.550  35.443  10.651
26114W        W91275  33.594  40.398   0.840
26115W        W91276  31.149  40.551  13.377
26116W        W91277  28.963  44.052   3.631
26117W        W91278  33.845  30.160  10.617
26118W        W91279  36.252  41.101   1.818
26119W        W91280  28.823  25.478  14.809
26120W        W91281  30.664  27.931   0.834
26121W        W91282   4.677   4.921  13.076
26122W        W91283  14.248   4.248   1.278
26123W        W91284   9.853  19.310  13.423
26124W        W91285  30.560  31.596   3.634
26125W        W91286  39.809  10.169   3.648
26126W        W91287  34.310  23.981  13.025
26127W        W91288  34.137   1.216  13.403
26128W        W91289  29.246  44.341   4.375
26129W        W91290  40.187  14.198  10.700
26130W        W91291  42.477  38.570  13.394
26131W        W91292  37.794  31.412  12.413
26132W        W91293   1.037  13.993   3.454
26133W        W91294  25.152   0.810   1.863
26134W        W91295  11.140  37.052  12.586
26135W        W91296  35.913  39.506   1.377
26136W        W91297  25.762  40.325  13.442
26137W        W91298  27.987  43.480  10.204
26138W        W91299  20.511   7.896  14.845
26139W        W91300   5.530  32.059  14.563
26140W        W91301  43.937  26.449  14.840
26141W        W91302  17.008  37.132  12.790
26142W        W91303   6.447  20.452  12.480
26143W        W91304  30.542  38.370  11.609
26144W        W91305   2.366  31.210  10.787
26145W        W91306  18.034   4.743  11.905
26146W        W91307  20.248  38.281   2.897
26147W        W91308  32.369  38.626   2.680
26148W        W91309  27.053  21.067   2.654
26149W        W91310  37.897  42.535  14.928
26150W        W91311  21.641  32.954  10.799
26151W        W91312  14.893  23.678   5.148
26152W        W91313  21.794  37.514   2.201
26153W        W91314  27.632  23.160   4.961
26154W        W91315  31.004  31.424  10.545
26155W        W91316  11.770   5.805   4.650
26156W        W91317  22.039  25.613  10.774
26157W        W91318   2.422  34.450   3.093
26158W        W91319  15.532  13.663   2.221
26159W        W91320  24.622  19.078  11.335
26160W        W91321  30.031  17.399  11.491
26161W        W91322  41.099  11.895  11.742
26162W        W91323  36.958  38.596   5.514
26163W        W91324  33.110   7.754  10.655
26164W        W91325  23.819  15.718   0.645
26165W        W91326  37.596  20.195   1.230
26166W        W91327   2.511  10.197  13.417
26167W        W91328  16.244   6.883   1.941
26168W        W91329  27.178   4.705   2.316
26169W        W91330   1.043   9.847  13.229
26170W        W91331   9.785  37.922   4.544
26171W        W91332  37.146  24.434  11.073
26172W        W91333  30.143  31.668  11.582
26173W        W91334  25.178  31.313  13.512
26174W        W91335  33.714  17.823  12.879
26175W        W91336   6.690  16.631  10.554
26176W        W91337   7.616  36.042  12.500
26177W        W91338  22.287  31.477  14.466
26178W        W91339  17.260  41.077   1.610
26179W        W91340  26.468  16.528  12.437
26180W        W91341  11.837  14.404   0.690
26181W        W91342  18.541  37.101  12.948
26182W        W91343  14.864  30.388  14.491
26183W        W91344  16.337  30.933   0.408
26184W        W91345   2.920  13.549  14.467
26185W        W91346  26.677   0.460  11.940
26186W        W91347  19.869   8.811  11.978
26187W        W91348  27.712  36.158   2.349
26188W        W91349  19.689  25.473   1.991
26189W        W91350   8.260  20.380   4.202
26190W        W91351   2.875  36.917   4.198
26191W        W91352  23.184  23.026   5.578
26192W        W91353  13.132  38.829   4.481
26193W        W91354  29.077  24.814  14.426
26194W        W91355  20.408  31.196   4.980
26195W        W91356   9.530  41.313  14.339
26196W        W91357  16.063   0.020  12.130
26197W        W91358  21.751  30.153  13.330
26198W        W91359  14.751   2.944   3.742
26199W        W91360  13.168   6.733  12.958
26200W        W91361  44.815  28.913   2.817
26201W        W91362  11.106  26.948   2.475
26202W        W91363  14.925  38.445   2.356
26203W        W91364  30.641  32.369   2.256
26204W        W91365  32.076  35.465  11.189
26205W        W91366  44.901  19.077  14.854
26206W        W91367  15.950  31.868  14.380
26207W        W91368  12.605  44.192   3.160
26208W        W91369   0.429  17.780  11.246
26209W        W91370  17.730  39.347  14.563
26210W        W91371  39.162  40.212   2.266
26211W        W91372  36.656  30.058   4.283
26212W        W91373   1.225  27.494   1.700
26213W        W91374  39.007  31.942   2.393
26214W        W91375  40.074   1.368  14.023
26215W        W91376  20.209  12.780  12.455
26216W        W91377   7.239   8.152   2.723
26217W        W91378  28.457  25.708   2.808
26218W        W91379  20.832  26.576   1.931
26219W        W91380  34.500  31.330  13.163
26220W        W91381   3.307  44.516   4.530
26221W        W91382  10.999  12.023   2.764
26222W        W91383   5.695  22.885   3.744
26223W        W91384  10.665   0.797   3.933
26224W        W91385   5.867   8.541   3.875
26225W        W91386  44.355  41.886   4.826
26226W        W91387  33.572  32.990   4.691
26227W        W91388   5.218  25.334   3.671
26228W        W91389  31.559  20.684  11.239
26229W        W91390  25.210  14.223  12.986
26230W        W91391  15.837  31.044   3.204
26231W        W91392  33.407  28.901   3.043
26232W        W91393  37.022  25.726   4.127
26233W        W91394  12.189  16.751   2.122
26234W        W91395  41.967   3.001  12.949
26235W        W91396  20.062   9.593   0.877
26236W        W91397  14.518  25.056   0.523
26237W        W91398  34.468  39.782   1.972
26238W        W91399  26.522  20.678  13.595
26239W        W91400   2.730  42.365   1.857
26240W        W91401  12.636  20.289  10.974
26241W        W91402  44.752   7.959  10.776
26242W        W91403  27.560  23.607   3.216
26243W        W91404  44.290  33.617   0.842
26244W        W91405   3.656  18.252  14.302
26245W        W91406   2.274  18.563  13.991
26246W        W91407  30.151  36.758  13.101
26247W        W91408  14.154  13.628  14.991
26248W        W91409  44.391  34.612   0.246
26249W        W91410  35.384  21.696  14.370
26250W        W91411  27.346  23.237   0.203
26251W        W91412  24.640   8.244  13.809
26252W        W91413   6.339  27.989   2.188
26253W        W91414  13.307  33.673  14.677
26254W        W91415  18.989   5.873   2.732
26255W        W91416  28.621  23.620  14.662
26256W        W91417  33.361  14.627   2.718
26257W        W91418  29.626  36.844  14.142
26258W        W91419  27.275  34.757  12.434
26259W        W91420  12.567   9.903   4.565
26260W        W91421  44.785  44.742  13.874
26261W        W91422  26.281  18.587  14.356
26262W        W91423  32.012  39.110   1.214
26263W        W91424  42.472  43.778   2.778
26264W        W91425  23.574   1.901   2.335
26265W        W91426  12.591  10.139  10.762
26266W        W91427  25.565   8.742  10.403
26267W        W91428  34.198  11.813   2.871
26268W        W91429  33.065   1.981  10.411
26269W        W91430  44.893   0.967  14.210
26270W        W91431  12.495  17.611  11.513
26271W        W91432  28.999  16.689  13.425
26272W        W91433   5.759  27.064  11.599
26273W        W91434  38.112  13.685  14.990
26274W        W91435  12.594  39.356  14.938
26275W        W91436  17.589  43.410  13.889
26276W        W91437  30.488  31.980   0.420
26277W        W91438  18.678  28.694  13.963
26278W        W91439  13.077   1.606   3.334
26279W        W91440  19.076  19.634  13.079
26280W        W91441  43.931  34.889   5.068
26281W        W91442   1.878   5.715  12.574
26282W        W91443  30.006  38.635  12.582
26283W        W91444  37.334  11.843   0.917
26284W        W91445   8.240   1.674   3.192
26285W        W91446  22.411  41.486   4.724
26286W        W91447  41.325  41.361   0.404
26287W        W91448   3.043  44.461   4.091
26288W        W91449  21.649  29.954   0.202
26289W        W91450  20.278  18.807  13.447
26290W        W91451  44.468  20.043  11.842
26291W        W91452  43.396  29.460  12.712
26292W        W91453  18.932  22.083   4.587
26293W        W91454   8.958  15.907   4.256
26294W        W91455  23.061  41.516   2.311
26295W        W91456  37.721  29.424   4.835
26296W        W91457  19.754  20.446   2.411
26297W        W91458  42.296  31.454  13.384
26298W        W91459  19.713  38.509  11.291
26299W        W91460  13.147   3.237  14.215
26300W        W91461  13.989  14.854   0.265
26301W        W91462  43.911  35.974   4.173
26302W        W91463  11.418  41.527  11.967
26303W        W91464   7.827  32.619   3.559
26304W        W91465   4.689  42.469  12.075
26305W        W91466  36.530  20.426   1.632
26306W        W91467  17.499  35.531  11.538
26307W        W91468  43.405  25.127   1.000
26308W        W91469  12.538  11.688   2.806
26309W        W91470  26.681   2.962   0.918
26310W        W91471  21.847  32.568  14.776
26311W        W91472   6.313  26.334   3.075
26312W        W91473  31.126  25.071   3.836
26313W        W91474   3.197  21.914  14.344
26314W        W91475  39.209  35.135  12.449
26315W        W91476  18.818  30.427   2.373
26316W        W91477  21.272  41.728   3.642
26317W        W91478   8.655  12.670  12.099
26318W        W91479  30.124   5.329   0.280
26319W        W91480  41.990   0.826   4.949
26320W        W91481   7.378  44.345   0.490
26321W        W91482   1.393  11.233  11.799
26322W        W91483   6.745   1.259  14.340
26323W        W91484   4.387  42.474   1.787
26324W        W91485  17.565   9.026  14.475
26325W        W91486   6.258  36.799   4.457
26326W        W91487  31.971  15.020  10.982
26327W        W91488  39.715  32.951   4.179
26328W        W91489  23.845   9.917   2.191
26329W        W91490  31.978  26.148  11.420
26330W        W91491   7.810   1.308  14.267
26331W        W91492   5.833  26.916  13.313
26332W        W91493   3.750  41.543   1.039
26333W        W91494  30.551  20.611   4.669
26334W        W91495   6.870  21.534  14.934
26335W        W91496  11.731  37.798  11.470
26336W        W91497  22.063  41.347  12.455
26337W        W91498  18.996  26.075  12.470
26338W        W91499   7.277  28.596   1.612
26339W        W91500   9.478  25.376   5.018
26340W        W91501  39.389  26.564   0.171
26341W        W91502   2.901  33.376   1.618
26342W        W91503   0.966  39.984   5.695
26343W        W91504  16.326  43.832   2.381
26344W        W91505  23.230  41.199  14.172
26345W        W91506   7.941  21.252  13.913
26346W        W91507  38.373   9.908  12.051
26347W        W91508  39.380   0.741   4.152
26348W        W91509  34.473   9.664  12.475
26349W        W91510  12.661  17.321   0.752
26350W        W91511  44.776   2.966  11.138
26351W        W91512   5.627  30.202  14.375
26352W        W91513  29.520  36.284   2.263
26353W        W91514  22.478   9.278  13.846
26354W        W91515  11.692  36.065  12.000
26355W        W91516   4.386  13.031  12.453
26356W        W91517  41.747  36.872   1.181
26357W        W91518  41.775  26.645  11.233
26358W        W91519  22.063  37.544   4.321
26359W        W91520  17.034  31.997  11.165
26360W        W91521  14.282  20.082  11.209
26361W        W91522   8.425  11.276   1.368
26362W        W91523  37.666  13.792   1.462
26363W        W91524  14.582  29.671   3.227
26364W        W91525  23.465  28.553   1.777
26365W        W91526  44.929   4.934   2.277
26366W        W91527   5.193   1.758   4.516
26367W        W91528  30.953  17.539   2.808
26368W        W91529   0.397   3.126  12.920
26369W        W91530  37.108  17.146   2.987
26370W        W91531   8.354  18.271  11.914
26371W        W91532  41.313  38.674   3.322
26372W        W91533  37.536  32.485   0.719
26373W        W91534  40.479  13.678  13.496
26374W        W91535  33.052   1.040  13.426
26375W        W91536  38.062  37.312   2.344
26376W        W91537   6.598  23.224   0.544
26377W        W91538  14.657  17.741  14.195
26378W        W91539  30.934  25.576   2.186
26379W        W91540  21.461  10.192   3.729
26380W        W91541  42.742  10.244   3.572
26381W        W91542  12.125   8.916   0.678
26382W        W91543  22.235  36.070   4.182
26383W        W91544  22.023  25.918  14.505
26384W        W91545   0.234  14.569  12.622
26385W        W91546  16.352   3.705   3.632
26386W        W91547  33.215  16.738  14.390
26387W        W91548  39.385  44.769   1.860
26388W        W91549  29.631  28.676  12.506
26389W        W91550  30.547  18.354   2.376
26390W        W91551  27.729  11.929   1.785
26391W        W91552  24.011  31.612  14.006
26392W        W91553  39.472  43.272   0.835
26393W        W91554   2.925  26.440  14.787
26394W        W91555  14.575  33.661  12.322
26395W        W91556   1.820  23.381  14.208
26396W        W91557  19.419  44.697  14.307
26397W        W91558  22.793  38.263  10.263
26398W        W91559  43.839  32.483  12.661
26399W        W91560  27.191   3.871   2.683
26400W        W91561  17.522  29.342   2.639
26401W        W91562  38.483   4.848   9.943
26402W        W91563  32.381  40.879   1.774
26403W        W91564  28.496  17.549   0.036
26404W        W91565  20.091  10.482   3.652
26405W        W91566  30.535  10.816   2.732
26406W        W91567  39.827  16.590  12.529
26407W        W91568   9.675  16.739  10.570
26408W        W91569  33.010  33.547  13.418
26409W        W91570  36.681  35.818  12.085
26410W        W91571  17.369  11.920  11.980
26411W        W91572  31.084  27.404  14.265
26412W        W91573  25.178   9.583  10.317
26413W        W91574  19.219  21.884  11.270
26414W        W91575  39.946  25.266   2.114
26415W        W91576  32.350  28.705   4.323
26416W        W91577  25.208  23.589   2.771
26417W        W91578  17.198  38.471   3.181
26418W        W91579  21.029  44.872  13.100
26419W        W91580   9.742  43.414  12.548
26420W        W91581  33.028  34.686   2.186
26421W        W91582  41.989  33.355  10.321
26422W        W91583  15.978  38.049   1.320
26423W        W91584  41.368  31.199   1.253
26424W        W91585  31.069  38.020   1.968
26425W        W91586   6.542  28.031   3.647
26426W        W91587   3.350  37.854  12.894
26427W        W91588  11.454  23.970  13.376
26428W        W91589   1.683   3.277  14.024
26429W        W91590  44.950  10.529   3.179
26430W        W91591  41.847  41.889  12.152
26431W        W91592  19.397  44.514   0.773
26432W        W91593  36.104  30.476  13.587
26433W        W91594   1.362  36.695  13.216
26434W        W91595   1.010  28.069   2.190
26435W        W91596  21.996  16.389   3.068
26436W        W91597   7.184   9.704   3.716
26437W        W91598  21.102   6.512  13.559
26438W        W91599   6.939  10.864  14.493
26439W        W91600  20.910  17.086  14.586
26440W        W91601  38.154  40.388  11.883
26441W        W91602  33.451  41.568   4.359
26442W        W91603  15.255  20.571   0.500
26443W        W91604  13.664  43.779   4.084
26444W        W91605  21.055   6.974  14.384
26445W        W91606  40.643  28.335   0.742
26446W        W91607   4.474  23.654   5.449
26447W        W91608  21.536  25.480   2.200
26448W        W91609  32.070   2.849   2.224
26449W        W91610  15.578  10.230   0.367
26450W        W91611  22.741  15.119   0.080
26451W        W91612   4.909  29.588   3.793
26452W        W91613  44.099  19.702   0.104
26453W        W91614  37.607   6.425   2.289
26454W        W91615  23.857   6.175   4.154
26455W        W91616  30.107   3.999   1.521
26456W        W91617  21.221  31.391   0.237
26457W        W91618  43.448  15.268  13.154
26458W        W91619  41.547   3.303   2.274
26459W        W91620  32.411  24.346   5.277
26460W        W91621  29.196   1.988   0.440
26461W        W91622  14.230  20.479  11.553
26462W        W91623  22.609  42.446   2.709
26463W        W91624   4.307  23.221   4.723
26464W        W91625  29.492  30.718  13.242
26465W        W91626   9.108   8.770  14.522
26466W        W91627  39.485   5.127  12.023
26467W        W91628  29.359  38.067   5.637
26468W        W91629   4.651  25.652  12.926
26469W        W91630   7.871  25.158  12.152
26470W        W91631  15.064  37.836   2.805
26471W        W91632  13.506  11.145   0.394
26472W        W91633   5.918  39.404   4.178
26473W        W91634  43.064  13.153  12.522
26474W        W91635  44.765   7.256   0.988
26475W        W91636  40.033   1.520   3.627
26476W        W91637  27.202   1.645   3.249
26477W        W91638   5.167   5.731   4.243
26478W        W91639  11.090  41.903  10.622
26479W        W91640  44.781   8.906  13.948
26480W        W91641  14.881   0.197  12.854
26481W        W91642  33.973  39.577  13.914
26482W        W91643  12.896  19.134   2.264
26483W        W91644   4.194  43.434  11.503
26484W        W91645  19.330  44.431  13.023
26485W        W91646   4.252   9.029   0.456
26486W        W91647  32.189  27.940  14.980
26487W        W91648  28.943  37.132  10.665
26488W        W91649  40.030  18.864   3.764
26489W        W91650  30.099  21.236   0.307
26490W        W91651  37.942  25.857   3.291
26491W        W91652   5.775  41.560  13.563
26492W        W91653  14.087  28.153   4.616
26493W        W91654  11.412   2.366  13.517
26494W        W91655  31.297  40.507   0.247
26495W        W91656  32.483  23.960   2.109
26496W        W91657  22.179  27.149   0.321
26497W        W91658   0.999  23.024  14.533
26498W        W91659  30.736  31.397   0.956
26499W        W91660  23.137  41.495  14.970
26500W        W91661   6.258  27.304   2.881
26501W        W91662  29.014  29.202   4.386
26502W        W91663  12.509  10.102   4.078
26503W        W91664  15.303  16.370  10.349
26504W        W91665   3.241  36.007   1.321
26505W        W91666   8.444  22.125   0.344
26506W        W91667  37.481  35.334  14.278
26507W        W91668  31.123  40.538   4.184
26508W        W91669  20.970  25.976  12.070
26509W        W91670  10.799   2.620   4.504
26510W        W91671  42.386   9.839  14.494
26511W        W91672  43.498   7.260  13.497
26512W        W91673  39.298   1.364  12.455
26513W        W91674  31.002  20.574  13.564
26514W        W91675  27.338  31.928   1.756
26515W        W91676  40.562  14.037   4.608
26516W        W91677   3.320  35.081  13.465
26517W        W91678  25.027  28.064  13.371
26518W        W91679  26.072  40.019   5.050
26519W        W91680  26.526  10.283   2.266
26520W        W91681  27.686  13.240   1.942
26521W        W91682  20.522  40.070   2.815
26522W        W91683  21.112   9.348  14.742
26523W        W91684   6.068  15.548  13.348
26524W        W91685  27.971   4.014  11.151
26525W        W91686  33.555  11.151  14.675
26526W        W91687  40.450  20.593  12.033
26527W        W91688  42.885  24.127   2.508
26528W        W91689   0.350   6.417   0.922
26529W        W91690  20.645  31.968  14.864
26530W        W91691  31.936  32.452   3.551
26531W        W91692  23.623   1.359   4.192
26532W        W91693   1.699   2.291  13.090
26533W        W91694   0.385  19.013  11.824
26534W        W91695  21.327  32.619   4.637
26535W        W91696  43.693  23.439  13.867
26536W        W91697  37.221  22.044   2.189
26537W        W91698   1.971  37.352   4.119
26538W        W91699  20.175  44.591  13.372
26539W        W91700  33.883  35.718  13.558
26540W        W91701  33.094   2.712   1.942
26541W        W91702  28.731  43.833   0.356
26542W        W91703  25.284  29.750  10.831
26543W        W91704  37.455  38.481   3.939
26544W        W91705  34.948  13.398   1.454
26545W        W91706  43.739  42.879  13.577
26546W        W91707  43.373  30.543  11.569
26547W        W91708   2.498  28.534   1.322
26548W        W91709  11.246   9.871   1.251
26549W        W91710  19.107  17.699   3.313
26550W        W91711  29.998  41.977  14.689
26551W        W91712  36.610  40.857   2.886
26552W        W91713  33.349  38.404  12.926
26553W        W91714  25.246  23.986   4.486
26554W        W91715  15.167  14.046  14.905
26555W        W91716  38.555  19.496  12.976
26556W        W91717  24.659  29.326  12.522
26557W        W91718  14.991  27.287   4.217
26558W        W91719   4.663  37.350   3.244
26559W        W91720  23.413  22.470   1.804
26560W        W91721   9.232  32.972   0.159
26561W        W91722  25.625  23.598  12.322
26562W        W91723  23.337  15.671   0.828
26563W        W91724  42.887   0.846  14.472
26564W        W91725  31.605  43.269  14.208
26565W        W91726  10.342  40.811   0.932
26566W        W91727   9.213   7.621  13.575
26567W        W91728   0.823  30.691  12.448
26568W        W91729  34.926  39.438   0.456
26569W        W91730  12.668  32.758  11.158
26570W        W91731   6.358  43.896  14.151
26571W        W91732   8.149  42.887  13.055
26572W        W91733   4.324  28.971  13.102
26573W        W91734  15.117   9.773  13.031
26574W        W91735  23.259  22.405  12.015
26575W        W91736  18.849  25.498  13.426
26576W        W91737   7.044   9.838   3.235
26577W        W91738  38.054  19.662   4.124
26578W        W91739  34.764  37.993   2.683
26579W        W91740   2.817   1.906  12.593
26580W        W91741  21.082  16.351   0.826
26581W        W91742  27.713  44.349   4.659
26582W        W91743  16.247  29.167   0.818
26583W        W91744  31.616   6.298   1.230
26584W        W91745  22.056  20.555   3.249
26585W        W91746  35.801  34.065   4.145
26586W        W91747  22.763  10.527   4.323
26587W        W91748   3.162  21.226  13.910
26588W        W91749   2.473  22.313   4.530
26589W        W91750  29.467  14.579  11.585
26590W        W91751   6.357   1.850   3.632
26591W        W91752   5.741  26.360  13.416
26592W        W91753  18.727   7.403  13.336
26593W        W91754   4.303  22.865  12.248
26594W        W91755  10.688  41.656   0.953
26595W        W91756  40.602  24.382  11.639
26596W        W91757  27.618  24.973  14.795
26597W        W91758  18.271  34.659   2.827
26598W        W91759  26.666  35.102   3.674
26599W        W91760  20.360  10.128  11.856
26600W        W91761  31.221  33.948   1.636
26601W        W91762  33.085  26.176  14.483
26602W        W91763  41.471  38.347  13.451
26603W        W91764   1.725  44.308   4.335
26604W        W91765  42.277   7.854  13.477
26605W        W91766   7.195  40.852   1.425
26606W        W91767  10.411  38.708   0.146
26607W        W91768  27.365  40.357  10.350
26608W        W91769  29.704  30.709   2.771
26609W        W91770  36.115  15.591   4.087
26610W        W91771  20.950  11.817   2.464
26611W        W91772  11.245  11.224   0.779
26612W        W91773  10.694  43.229   0.962
26613W        W91774  20.170  41.292   4.974
26614W        W91775   8.612  39.947  12.822
26615W        W91776  20.806  24.741   1.944
26616W        W91777  23.060  39.940  13.642
26617W        W91778  24.183  33.943   2.814
26618W        W91779  40.780  24.705  14.823
26619W        W91780   5.739   5.136  11.636
26620W        W91781  11.628  30.148  10.578
26621W        W91782  44.356   5.508  13.563
26622W        W91783  10.366  39.505   0.399
26623W        W91784  15.253  42.111   1.465
26624W        W91785  14.061   5.275   1.818
26625W        W91786  29.919  42.992   1.373
26626W        W91787  29.004   2.396  11.681
26627W        W91788  38.518  34.369   3.835
26628W        W91789  39.880  34.908   1.722
26629W        W91790  20.858  23.199   5.027
26630W        W91791  20.652  36.925   0.370
26631W        W91792   3.894  43.905   0.464
26632W        W91793  41.379  13.815  13.383
26633W        W91794  33.047  34.347  11.959
26634W        W91795  16.873   7.214   9.941
26635W        W91796  10.697  10.901  12.512
26636W        W91797   7.894  11.064   4.099
26637W        W91798  35.489  15.814  12.259
26638W        W91799  19.698  34.332  13.804
26639W        W91800  32.096  11.954  11.923
26640W        W91801  26.436  18.163  14.717
26641W        W91802   2.530   2.844  13.537
26642W        W91803  36.838   7.273  13.604
26643W        W91804  18.289  22.378   1.496
26644W        W91805  26.275  25.299   0.281
26645W        W91806  29.601  37.898  14.427
26646W        W91807  38.333  15.029  13.017
26647W        W91808  21.968  44.391   3.282
26648W        W91809  27.212   1.470  14.486
26649W        W91810  21.618  35.867   0.436
26650W        W91811  36.543  29.447  14.734
26651W        W91812  44.281  37.522   1.771
26652W        W91813  34.670   5.169  14.416
26653W        W91814  12.576  25.384  11.236
26654W        W91815   5.365  15.329  14.890
26655W        W91816  44.469   5.505  12.583
26656W        W91817  24.372  33.210  14.448
26657W        W91818   7.794  42.781  14.326
26658W        W91819  36.461  42.120   0.768
26659W        W91820  29.985  10.501   2.010
26660W        W91821  15.646   0.826  13.143
26661W        W91822   5.946  37.293  10.793
26662W        W91823  27.225  25.068   0.596
26663W        W91824  43.003   0.810   0.789
26664W        W91825   9.753  11.188  11.887
26665W        W91826   6.870  18.614   1.743
26666W        W91827  32.584  25.037  12.635
26667W        W91828  41.852  36.617  13.174
26668W        W91829  26.764  14.098  12.892
26669W        W91830  44.741  24.663   0.402
26670W        W91831  29.791   8.821   2.645
26671W        W91832  31.955  42.629   4.202
26672W        W91833  37.793  12.427   3.474
26673W        W91834   7.972   1.934   0.289
26674W        W91835  42.796  30.179  14.392
26675W        W91836  20.475  12.907   1.201
26676W        W91837  19.146  42.980  11.657
26677W        W91838  40.503  40.809   2.690
26678W        W91839   3.363  10.467  13.228
26679W        W91840  23.048   3.455   0.970
26680W        W91841  21.579  18.028   0.859
26681W        W91842  36.683  33.193  13.364
26682W        W91843   7.110  22.079   1.250
26683W        W91844   8.454  36.925   0.451
26684W        W91845  29.878   0.706  10.113
26685W        W91846  40.951  40.947  12.510
26686W        W91847  31.329   3.378   0.298
26687W        W91848  44.010   0.570   3.156
26688W        W91849  18.690  37.427  12.197
26689W        W91850  13.905  28.366   1.343
26690W        W91851  20.686  40.910   0.741
26691W        W91852  44.782  40.260  12.284
26692W        W91853  33.487  41.329  10.247
26693W        W91854  44.831  34.368  12.575
26694W        W91855  16.883   2.792  13.382
26695W        W91856  10.810  16.706  13.599
26696W        W91857  33.703  14.941  13.160
26697W        W91858  38.584  23.883  11.652
26698W        W91859  17.889  26.690   2.800
26699W        W91860  29.634   6.525   4.168
26700W        W91861   8.048  23.075   1.771
26701W        W91862  42.856  24.629   3.789
26702W        W91863  15.065  17.143   0.387
26703W        W91864  43.339  21.700   3.698
26704W        W91865  20.707  16.778  12.845
26705W        W91866  26.034   4.054   3.772
26706W        W91867  30.978  22.306   3.168
26707W        W91868  15.295  28.048  10.666
26708W        W91869  14.971  34.604   4.074
26709W        W91870  11.155  15.489   1.180
26710W        W91871  16.447  42.378   3.728
26711W        W91872  26.744   4.979   2.323
26712W        W91873   5.759  22.154  10.853
26713W        W91874  34.831   6.793  11.671
26714W        W91875  40.032  22.525  10.670
26715W        W91876   1.242  25.249   1.004
26716W        W91877  25.085   0.804  12.603
26717W        W91878  18.032  21.483  11.916
26718W        W91879   7.992  43.507   2.017
26719W        W91880  42.667   3.193   0.416
26720W        W91881  25.231  40.101  10.593
26721W        W91882  44.481   6.296   4.905
26722W        W91883  24.665   9.932  11.219
26723W        W91884  38.721  21.736  12.557
26724W        W91885  18.715   4.977   0.785
26725W        W91886  30.350  44.447   4.484
26726W        W91887  35.294  16.724   2.933
26727W        W91888   0.448  25.027   5.016
26728W        W91889   3.181  20.140  14.928
26729W        W91890  27.909  14.414   1.420
26730W        W91891  37.083  23.554  13.940
26731W        W91892   6.135  35.851  12.989
26732W        W91893  10.804   7.545   3.559
26733W        W91894   4.570  33.171   1.474
26734W        W91895  11.905   4.760   1.786
26735W        W91896  30.483  24.112  12.444
26736W        W91897  16.329  40.062  14.354
26737W        W91898  32.069   9.112  12.516
26738W        W91899  44.842   9.115  13.485
26739W        W91900  10.797  29.995  14.005
26740W        W91901  33.853  34.384  14.335
26741W        W91902  16.167  26.013  13.833
26742W        W91903   2.645  18.063  11.266
26743W        W91904  17.616  42.604  10.165
26744W        W91905   0.184  38.715   4.037
26745W        W91906  36.401  12.754   4.067
26746W        W91907   8.723  30.738  12.087
26747W        W91908  43.906  14.551  11.595
26748W        W91909  10.278  11.124  13.797
26749W        W91910  16.189  35.503   3.483
26750W        W91911  15.971  39.499   2.258
26751W        W91912  10.376  29.237  10.866
26752W        W91913  40.902  12.355   3.468
26753W        W91914   8.737  31.058  10.994
26754W        W91915  11.444   2.723  11.041
26755W        W91916  15.250  21.055  10.417
26756W        W91917   5.799  14.802  14.282
26757W        W91918  20.790  24.227  12.140
26758W        W91919   5.342  11.921  10.676
26759W        W91920  44.804  39.487   2.735
26760W        W91921  11.675  12.223   3.855
26761W        W91922  30.830  11.716  11.910
26762W        W91923  13.386  34.580   2.226
26763W        W91924   0.780  27.655  12.642
26764W        W91925   3.151  31.505   3.672
26765W        W91926   7.532  29.963  11.629
26766W        W91927  41.343   0.847   1.625
26767W        W91928  19.251  10.566   1.763
26768W        W91929  42.390   8.615  13.862
26769W        W91930  36.090  43.272   3.085
26770W        W91931  14.322  29.652   4.633
26771W        W91932   3.550   2.981  14.954
26772W        W91933  34.344   5.691  12.952
26773W        W91934  28.915  17.742  14.789
26774W        W91935  23.659  10.647   4.149
26775W        W91936  31.533  12.324   4.513
26776W        W91937   0.381  19.761   3.700
26777W        W91938  41.248  44.740  12.069
26778W        W91939   7.763  44.504  13.735
26779W        W91940   2.495   8.779   4.540
26780W        W91941  10.324  34.001   1.795
26781W        W91942  24.891   4.793  13.519
26782W        W91943  39.822  14.916   2.257
26783W        W91944  39.111  12.811   3.733
26784W        W91945  43.140   7.115   3.240
26785W        W91946  36.088  33.554   2.959
26786W        W91947   8.212  11.150   2.645
26787W        W91948  21.611  35.329   4.169
26788W        W91949  13.256  25.920  11.081
26789W        W91950  12.181  15.048   0.042
26790W        W91951  37.052  41.260  11.187
26791W        W91952  24.027  36.374  10.482
26792W        W91953   7.748  32.153  11.026
26793W        W91954   8.989  41.749   3.743
26794W        W91955   9.374  28.676  13.373
26795W        W91956  43.822  43.167   3.738
26796W        W91957  26.936   2.964  11.614
26797W        W91958  14.264   0.283   3.717
26798W        W91959  10.765  43.492   4.655
26799W        W91960  34.336  21.282  13.840
26800W        W91961  18.533  11.651  13.834
26801W        W91962  20.740  33.824   2.916
26802W        W91963  42.105  18.675   1.963
26803W        W91964  31.900  40.903  10.808
26804W        W91965  11.143  25.558   4.331
26805W        W91966  35.816   3.452   0.300
26806W        W91967  38.029  29.051  13.860
26807W        W91968  18.168  34.183  10.798
26808W        W91969   8.004  22.789  14.276
26809W        W91970  15.291  44.766   4.256
26810W        W91971   9.839  25.661   1.939
26811W        W91972  34.630  28.484  11.518
26812W        W91973  14.294  31.256   0.469
26813W        W91974  30.848   8.881   1.859
26814W        W91975  37.428   2.782   4.636
26815W        W91976  38.454  19.360   0.926
26816W        W91977  21.068  22.221   5.402
26817W        W91978  19.774   9.315  12.125
26818W        W91979  43.977  21.680  11.376
26819W        W91980  34.554  34.395   0.673
26820W        W91981  31.071  11.149  12.959
26821W        W91982  17.121   5.668  13.499
26822W        W91983  40.113  14.755  11.590
26823W        W91984  12.126  22.108   3.226
26824W        W91985  12.379  11.860  13.876
26825W        W91986  13.701  23.788  11.088
26826W        W91987   9.230  14.782   3.222
26827W        W91988  38.491  22.715  14.198
26828W        W91989  20.615   9.161  12.362
26829W        W91990  15.306  22.570   4.592
26830W        W91991   1.647  37.434  14.349
26831W        W91992  34.134  32.525  14.628
26832W        W91993  21.081  29.078  10.399
26833W        W91994  13.605  14.309  11.924
26834W        W91995  13.125  29.213   3.689
26835W        W91996  39.627  26.556   2.322
26836W        W91997   5.716  24.563   2.149
26837W        W91998  41.795  34.042  11.487
26838W        W91999  34.252   4.421   0.335
26839W        W92000  39.041  27.210  13.424
26840W        W92001  25.377  15.787  13.604
26841W        W92002  23.708  15.931  14.335
26842W        W92003  30.707  13.797   1.685
26843W        W92004  33.889  28.115   3.487
26844W        W92005  12.888  18.818   1.838
26845W        W92006  43.832  38.617   2.273
26846W        W92007  29.034   0.945   1.304
26847W        W92008  28.646  38.670  14.313
26848W        W92009  35.831  16.645  13.945
26849W        W92010   3.227  30.901  14.325
26850W        W92011  35.225  18.608  11.868
26851W        W92012   8.389   9.708  12.916
26852W        W92013  20.828   6.845  13.937
26853W        W92014   7.169  18.854  10.749
26854W        W92015  37.079  38.649  11.185
26855W        W92016  21.715  22.004   2.171
26856W        W92017  43.380  42.943   4.807
26857W        W92018   1.310  21.843  11.449
26858W        W92019  18.104  34.717  12.054
26859W        W92020   3.359  40.108   0.405
26860W        W92021  43.806  13.505   2.485
26861W        W92022   5.814  25.151  10.096
26862W        W92023   0.687  26.073  14.860
26863W        W92024   8.835  23.789  12.625
26864W        W92025  42.885  27.185   0.307
26865W        W92026  17.819  29.220   1.321
26866W        W92027   0.959  22.983  13.792
26867W        W92028   0.588  42.747  10.992
26868W        W92029  11.746  28.006  13.069
26869W        W92030  21.630  18.454   3.666
26870W        W92031  34.089   4.367  11.947
26871W        W92032  32.449  38.047   1.511
26872W        W92033  32.789  32.907   4.057
26873W        W92034  19.854  11.878  11.123
26874W        W92035  31.568   7.509   3.935
26875W        W92036  36.443   5.677   1.310
26876W        W92037   2.967  38.285   4.613
26877W        W92038   9.925  17.590   3.526
26878W        W92039   4.459  19.167   1.965
26879W        W92040  35.306  30.720  12.356
26880W        W92041  40.236  26.625   3.757
26881W        W92042  44.568  38.227   1.083
26882W        W92043  11.189  29.708   1.735
26883W        W92044  21.025   1.157  11.967
26884W        W92045  28.171  23.734   9.827
26885W        W92046  11.265  25.999  12.509
26886W        W92047  28.036  19.115   0.811
26887W        W92048  21.021   0.786  10.674
26888W        W92049  12.620  14.291  12.561
26889W        W92050  11.539  36.033  10.182
26890W        W92051   8.132  34.176  14.825
26891W        W92052  41.602  17.545  14.313
26892W        W92053   2.240  17.878   0.191
26893W        W92054   7.826  41.331  11.011
26894W        W92055  39.751  29.091   2.037
26895W        W92056  39.508  26.948   2.614
26896W        W92057   6.650   9.216  13.838
26897W        W92058  30.544   8.491   3.809
26898W        W92059  17.349  28.350   3.306
26899W        W92060  12.321  13.678  14.420
26900W        W92061   4.546  41.026   2.132
26901W        W92062  32.375  12.421  12.480
26902W        W92063  43.048   4.262   4.343
26903W        W92064  35.479  27.435  11.149
26904W        W92065  15.835   9.385  11.555
26905W        W92066  34.627   6.282   1.194
26906W        W92067  32.840   9.792   2.380
26907W        W92068  17.293  27.398  12.035
26908W        W92069  24.575  33.160  11.586
26909W        W92070  27.158   2.988   4.633
26910W        W92071  26.933  33.933   0.685
26911W        W92072  36.059  28.420   3.784
26912W        W92073   8.728  43.386  11.867
26913W        W92074  40.071  32.490   5.034
26914W        W92075  39.205  39.135  13.477
26915W        W92076   4.851  14.515  11.142
26916W        W92077  31.997  24.625   3.671
26917W        W92078  44.453  15.203   4.143
26918W        W92079  27.481  19.692  13.233
26919W        W92080   7.189  27.718   3.101
26920W        W92081  12.748   4.434   2.521
26921W        W92082  30.378  31.827   0.991
26922W        W92083  38.360  39.411  10.683
26923W        W92084  23.582  43.030  11.512
26924W        W92085   1.790  26.088  13.561
26925W        W92086  33.459  35.889  14.805
26926W        W92087  18.075  33.552   3.735
26927W        W92088  13.599  20.724  13.996
26928W        W92089  26.606   3.715  11.985
26929W        W92090  14.311  44.768  10.571
26930W        W92091   0.447  13.215  13.052
26931W        W92092  28.518  13.575  12.162
26932W        W92093  32.046  16.573   3.788
26933W        W92094  15.757  38.438   2.832
26934W        W92095  14.617   1.912  11.534
26935W        W92096  35.801  11.322  14.289
26936W        W92097  33.151   9.452  13.346
26937W        W92098  35.271  35.901  13.107
26938W        W92099   5.543  14.860  13.842
26939W        W92100  20.702  22.648  14.392
26940W        W92101  19.091   5.059  11.543
26941W        W92102  21.301  16.219   1.313
26942W        W92103  15.700  43.523   0.395
26943W        W92104  34.088   7.215  11.480
26944W        W92105  30.702  18.686  11.134
26945W        W92106   4.480  31.078  10.748
26946W        W92107  29.668  13.224  13.954
26947W        W92108  37.510  39.610  12.325
26948W        W92109   8.261  21.243  11.647
26949W        W92110  28.667  26.018   3.642
26950W        W92111  35.436  19.811   2.191
26951W        W92112  34.345  24.154   2.839
26952W        W92113  30.327  37.059  13.494
26953W        W92114   5.347  42.751   3.920
26954W        W92115  30.352  38.207   0.775
26955W        W92116  43.296   1.693   3.863
26956W        W92117  33.429   6.869   0.356
26957W        W92118  41.562  34.627   2.207
26958W        W92119  28.605   0.515   1.894
26959W        W92120  42.380   1.288  14.835
26960W        W92121  38.489  37.403  12.408
26961W        W92122   7.967   7.746  13.394
26962W        W92123  16.780  12.622   0.830
26963W        W92124   8.297  27.189  11.545
26964W        W92125  24.689  10.670   0.250
26965W        W92126  42.986   4.642  10.730
26966W        W92127  41.813  22.253   2.629
26967W        W92128  18.175  25.941   4.325
26968W        W92129  41.407  15.078  14.002
26969W        W92130  32.371  22.889   2.499
26970W        W92131  28.879  12.352   5.471
26971W        W92132  30.713  40.315  13.465
26972W        W92133  23.214  36.980   4.195
26973W        W92134   8.100  38.988   2.709
26974W        W92135  30.680  13.818  11.862
26975W        W92136  12.672  15.396   4.021
26976W        W92137   7.709  10.682  14.096
26977W        W92138  17.373   8.370   3.632
26978W        W92139   7.237  13.814  11.549
26979W        W92140  32.627  14.407  13.393
26980W        W92141  37.596  43.999   3.128
26981W        W92142  32.696  19.974   2.647
26982W        W92143  35.585  13.212   3.636
26983W        W92144  28.333  17.603   4.178
26984W        W92145   6.315  34.613   1.686
26985W        W92146   3.638  33.843   4.344
26986W        W92147  22.748  44.414  13.973
26987W        W92148  41.027  26.879  14.738
26988W        W92149   3.786  25.744  14.443
26989W        W92150   6.662  11.743   4.642
26990W        W92151   4.775   8.949   0.279
26991W        W92152  19.866  31.174  11.391
26992W        W92153  20.294  14.082   3.740
26993W        W92154  40.406   7.725   1.650
26994W        W92155  15.109  32.565   1.537
26995W        W92156  43.425  34.779  10.781
26996W        W92157  21.185  19.330   1.740
26997W        W92158  40.431  26.441  11.517
26998W        W92159  13.013  31.572   1.098
26999W        W92160  20.461  20.152   0.393
27000W        W92161  36.684  39.175  12.000
27001W        W92162  28.551  15.130   0.528
27002W        W92163  26.761  17.511   3.089
27003W        W92164  20.063   4.730  13.859
27004W        W92165  37.429  10.666  12.939
27005W        W92166  10.630   2.236   0.281
27006W        W92167   1.691  37.482  13.848
27007W        W92168   7.172  40.428   2.598
27008W        W92169  21.545  18.156  13.087
27009W        W92170   5.448  10.583  13.321
27010W        W92171  34.939  18.191  10.711
27011W        W92172  36.748  42.399   5.011
27012W        W92173   1.526  22.998  14.488
27013W        W92174   8.001  44.095  10.474
27014W        W92175  18.554   3.679  12.742
27015W        W92176  11.418  12.779   3.754
27016W        W92177  33.801   4.000  10.802
27017W        W92178  40.072  16.036  13.496
27018W        W92179  21.166   4.355   0.859
27019W        W92180  32.633  31.123  12.057
27020W        W92181  15.546  24.012  10.025
27021W        W92182   3.958   7.911   0.034
27022W        W92183  15.578  20.032   0.537
27023W        W92184   9.206  33.961  12.994
27024W        W92185  36.100   2.999   0.332
27025W        W92186   4.320   7.776   2.237
27026W        W92187  32.264  29.604  14.352
27027W        W92188  19.502  22.281  11.148
27028W        W92189  28.486  37.519  11.586
27029W        W92190  19.599  14.647   1.496
27030W        W92191  20.833   7.252   0.248
27031W        W92192   0.508   0.335   0.827
27032W        W92193  30.372  13.770  13.511
27033W        W92194  38.872  29.720  13.418
27034W        W92195   2.044  23.178  13.799
27035W        W92196  33.059  40.728  12.704
27036W        W92197  18.508   9.422  11.206
27037W        W92198  14.830  27.977  10.406
27038W        W92199  25.356  26.469   2.611
27039W        W92200  12.283   7.945  12.881
27040W        W92201  30.541  41.735  13.433
27041W        W92202  33.563  10.002  14.793
27042W        W92203  43.343   0.025  12.937
27043W        W92204  37.520  13.610  11.342
27044W        W92205  25.182  36.011   3.102
27045W        W92206  26.619   0.386  13.601
27046W        W92207  21.031   1.746  10.013
27047W        W92208  11.431  37.931   3.865
27048W        W92209  24.875  13.814  12.985
27049W        W92210   2.496  26.716  12.966
27050W        W92211  35.375  24.475  11.490
27051W        W92212  10.257  41.855   3.076
27052W        W92213  29.337  20.078  14.285
27053W        W92214   7.430  19.653   0.812
27054W        W92215  11.015  14.965   1.084
27055W        W92216  25.038  23.402  14.028
27056W        W92217  13.547  36.294  10.692
27057W        W92218  25.845   9.304   5.361
27058W        W92219   1.189  19.317   0.798
27059W        W92220  43.300  18.264   3.369
27060W        W92221  22.796  31.744  12.380
27061W        W92222   5.228   8.766  12.528
27062W        W92223  30.037   8.741  12.440
27063W        W92224  40.105  10.343  14.890
27064W        W92225  32.475   5.383  10.826
27065W        W92226  18.018   6.417   2.291
27066W        W92227  19.618   6.685   4.049
27067W        W92228  35.408  11.232  14.595
27068W        W92229  39.372  15.224  13.101
27069W        W92230  31.981  34.014  12.909
27070W        W92231  44.842  28.900  14.782
27071W        W92232  43.984  29.586   3.129
27072W        W92233   9.150  20.183   2.674
27073W        W92234  39.101   4.284   2.402
27074W        W92235   6.267  36.057  11.459
27075W        W92236  10.390   6.945   3.093
27076W        W92237  40.122   4.143   2.985
27077W        W92238   1.059  35.558   4.496
27078W        W92239  30.253  32.566   3.447
27079W        W92240   8.033   3.932   0.629
27080W        W92241  16.755   8.343  14.937
27081W        W92242  23.811  19.271   1.429
27082W        W92243  22.325  29.339   2.352
27083W        W92244  43.874  41.196  12.904
27084W        W92245  14.405  28.223   0.938
27085W        W92246   8.640  18.119   3.689
27086W        W92247   6.007   6.388  14.817
27087W        W92248  37.228  33.591  12.582
27088W        W92249  10.670  42.393  11.196
27089W        W92250  24.999   0.965  14.894
27090W        W92251   5.373  33.284   9.574
27091W        W92252   3.430  28.966  11.648
27092W        W92253  42.560  17.538   0.402
27093W        W92254   5.982  40.599  11.144
27094W        W92255  26.114  38.792   3.002
27095W        W92256  18.056  37.859  11.702
27096W        W92257  41.552   2.729   3.734
27097W        W92258  23.930  23.592  14.415
27098W        W92259   4.950   5.293   1.774
27099W        W92260  23.473   6.365   0.803
27100W        W92261   8.723   5.803  10.808
27101W        W92262  11.957  41.787  13.537
27102W        W92263   3.822  24.151   2.625
27103W        W92264  16.162   3.720   3.062
27104W        W92265  40.896  44.339  11.967
27105W        W92266  31.692  14.812   0.315
27106W        W92267  32.573  24.518  14.742
27107W        W92268  34.899  26.176   2.210
27108W        W92269  34.900   6.429  12.544
27109W        W92270  37.123  42.220   0.227
27110W        W92271  28.203  28.911   9.723
27111W        W92272  16.012  27.148   0.704
27112W        W92273  40.761  37.977  13.356
27113W        W92274  29.607  31.831   4.115
27114W        W92275  33.431  28.834   1.876
27115W        W92276   1.823  25.714   2.150
27116W        W92277   9.816  27.075   3.883
27117W        W92278  32.137  44.390   1.962
27118W        W92279   1.469  26.744   3.639
27119W        W92280  41.473   3.745  11.438
27120W        W92281  24.826  23.105   1.778
27121W        W92282  30.490  17.921  14.479
27122W        W92283  31.464  19.181   0.279
27123W        W92284  36.870  34.327  11.150
27124W        W92285  21.559  13.095   3.717
27125W        W92286  40.893  27.033   2.539
27126W        W92287  42.099  10.762  14.992
27127W        W92288  43.582   4.175   1.924
27128W        W92289  36.382  20.984  11.679
27129W        W92290  21.255  19.396   2.805
27130W        W92291  24.958   7.737  11.243
27131W        W92292   3.228  11.956  13.792
27132W        W92293  23.999  12.615  14.838
27133W        W92294  30.990  31.543   3.263
27134W        W92295  36.512   7.097   4.115
27135W        W92296  30.139  26.638   3.255
27136W        W92297  40.382  21.085  11.183
27137W        W92298   8.824  23.129  14.314
27138W        W92299  17.275  31.497  11.186
27139W        W92300  44.261  25.652  14.863
27140W        W92301  39.051  29.934  11.706
27141W        W92302  30.264  16.414   3.298
27142W        W92303  10.299  24.522  13.210
27143W        W92304  28.923  13.007   0.167
27144W        W92305   6.156  15.953   3.838
27145W        W92306  26.901   9.375  11.117
27146W        W92307  41.506  20.218   4.247
27147W        W92308  31.909  24.882   0.691
27148W        W92309  40.067  33.104   2.154
27149W        W92310  39.496  20.976   4.198
27150W        W92311   5.967  41.894   3.661
27151W        W92312  42.201   7.101   2.522
27152W        W92313  24.602   2.009  13.352
27153W        W92314   2.521  39.828  10.286
27154W        W92315  17.096  17.245   9.750
27155W        W92316  12.134  14.150   1.485
27156W        W92317  42.269  29.933  11.271
27157W        W92318  36.039  29.534   4.628
27158W        W92319  42.788  38.094  11.179
27159W        W92320  20.754   1.723  10.902
27160W        W92321   5.732  12.553  13.415
27161W        W92322   8.193   8.288   2.732
27162W        W92323   2.291   6.654   2.125
27163W        W92324  20.619   4.991   9.770
27164W        W92325   5.223  28.372  14.051
27165W        W92326  42.570   8.808   3.281
27166W        W92327  16.132  11.337   4.794
27167W        W92328   6.374  25.268   1.633
27168W        W92329  15.030  30.324   3.684
27169W        W92330  13.138  42.669  13.102
27170W        W92331  22.375  19.095   0.767
27171W        W92332   8.847   0.859   0.031
27172W        W92333   2.318  33.997   1.822
27173W        W92334  19.711  37.332  13.330
27174W        W92335  15.120  21.791  11.022
27175W        W92336  25.167  27.638  12.018
27176W        W92337  10.377  35.806  11.190
27177W        W92338  40.507  23.290   5.030
27178W        W92339  25.752  29.648  12.798
27179W        W92340  23.518  23.784   1.630
27180W        W92341  41.983  24.786  12.935
27181W        W92342  11.403  32.933  14.317
27182W        W92343   0.858   2.485   3.666
27183W        W92344   7.197  19.412   0.412
27184W        W92345  42.531  15.309   1.147
27185W        W92346   2.214  36.111  14.769
27186W        W92347  22.292  44.763  11.818
27187W        W92348  28.084  33.012  13.000
27188W        W92349  40.959  11.368  13.506
27189W        W92350   9.798  44.242  13.743
27190W        W92351   6.793   2.186  14.497
27191W        W92352  39.911  36.047   2.114
27192W        W92353   6.857  23.988  11.549
27193W        W92354  26.752  13.622   3.723
27194W        W92355   2.866   8.955   4.851
27195W        W92356  22.140   2.352  13.760
27196W        W92357   7.897  20.592  10.653
27197W        W92358   6.247   9.642  14.394
27198W        W92359   8.146  23.796   0.794
27199W        W92360  33.612  39.918   3.261
27200W        W92361  40.412   3.334   2.432
27201W        W92362  17.104  10.659   2.449
27202W        W92363  11.562  13.836   4.714
27203W        W92364  40.374  41.859   3.535
27204W        W92365  37.349  12.855  11.069
27205W        W92366  38.605  24.535   1.683
27206W        W92367  21.193  30.670   5.063
27207W        W92368   5.421  41.768  11.826
27208W        W92369  17.685  22.625   4.397
27209W        W92370  33.698  10.882   3.152
27210W        W92371  41.097  12.259   2.229
27211W        W92372  18.737  11.861   4.206
27212W        W92373  24.632  25.092  12.475
27213W        W92374   1.692   0.008   1.876
27214W        W92375   1.265  34.144  10.769
27215W        W92376  29.519   2.778   3.917
27216W        W92377   5.536  34.977  12.118
27217W        W92378  40.394  24.795   0.742
27218W        W92379  10.854   5.846  13.808
27219W        W92380  18.930  21.674  13.097
27220W        W92381  19.147  10.263   1.313
27221W        W92382   3.780  27.030  11.579
27222W        W92383  44.558  35.166   0.821
27223W        W92384  28.472  44.076  11.150
27224W        W92385  31.637   2.227   4.594
27225W        W92386   1.627  41.866  13.753
27226W        W92387  25.102   9.198   9.993
27227W        W92388  32.851  24.207   2.399
27228W        W92389  12.637  17.331  11.082
27229W        W92390  20.615  14.368   3.399
27230W        W92391  30.930   9.324   0.621
27231W        W92392  23.482  21.631   2.813
27232W        W92393  42.391  24.002   0.358
27233W        W92394  40.864  39.935  14.744
27234W        W92395  13.927  28.897   1.384
27235W        W92396  16.441  11.862  13.785
27236W        W92397  16.182  14.816  12.187
27237W        W92398   3.002  20.280   2.074
27238W        W92399   5.575  14.532   2.801
27239W        W92400  33.462   2.878  11.391
27240W        W92401  37.465  22.700  11.219
27241W        W92402  17.043  29.656   3.668
27242W        W92403   4.898   8.401   2.828
27243W        W92404   6.935  35.600  11.828
27244W        W92405  43.304  40.140  13.452
27245W        W92406  33.024  18.021  12.052
27246W        W92407   3.659   7.233  12.135
27247W        W92408   6.755  10.764   3.478
27248W        W92409  15.850   9.889  10.822
27249W        W92410  37.823  23.084   2.680
27250W        W92411  33.491  20.670   1.397
27251W        W92412  16.066   3.672   4.060
27252W        W92413  41.074  40.096  12.926
27253W        W92414  16.112  34.345  12.884
27254W        W92415  38.874  43.249  14.972
27255W        W92416   7.692  15.690   4.616
27256W        W92417   1.439   0.995   1.760
27257W        W92418  22.516   9.727  10.984
27258W        W92419  39.583  14.779  11.555
27259W        W92420  41.745  23.123   1.242
27260W        W92421  12.649   5.957  12.546
27261W        W92422  37.157  38.748   4.563
27262W        W92423  20.562  27.850  10.775
27263W        W92424  23.505  41.126  14.969
27264W        W92425  35.569   6.567   0.348
27265W        W92426  25.013  35.381   0.890
27266W        W92427  15.752   2.371   4.657
27267W        W92428  10.664  18.875  14.353
27268W        W92429  10.173  17.353   1.240
27269W        W92430  34.847  16.212  10.669
27270W        W92431   5.931  13.830   4.411
27271W        W92432  35.031  30.040  13.808
27272W        W92433  40.571  18.138  13.928
27273W        W92434  23.557  30.116  13.535
27274W        W92435  34.234  28.365   5.113
27275W        W92436  28.906  24.451  10.280
27276W        W92437  44.269  12.717  10.487
27277W        W92438   5.984  19.649   3.465
27278W        W92439  18.489  23.435  12.990
27279W        W92440  34.905  20.193   3.569
27280W        W92441  28.404  15.131  12.596
27281W        W92442  36.910   5.335  13.488
27282W        W92443  39.059  13.871  14.900
27283W        W92444  16.201  17.221  14.399
27284W        W92445   2.442  29.861  13.663
27285W        W92446   1.530  36.413   1.297
27286W        W92447  44.881  29.600  11.287
27287W        W92448  13.096  22.609  13.268
27288W        W92449  43.004  34.537  11.563
27289W        W92450  32.390  33.997   0.223
27290W        W92451  23.666  25.479  10.641
27291W        W92452  38.479  44.715   1.696
27292W        W92453  33.368  24.739   1.252
27293W        W92454  38.268  23.500  13.030
27294W        W92455   3.695  40.516   1.270
27295W        W92456   7.832  44.895   3.289
27296W        W92457  14.342  15.667   0.469
27297W        W92458  15.713  38.282  14.617
27298W        W92459  25.738  42.475   1.382
27299W        W92460   1.867   8.653   4.498
27300W        W92461  38.261  44.896  12.090
27301W        W92462   6.258  10.108   2.719
27302W        W92463  16.162  16.805   3.392
27303W        W92464   3.917  28.888   1.518
27304W        W92465  19.522  23.276   3.866
27305W        W92466   1.395  28.983  12.344
27306W        W92467  19.155  28.561  10.741
27307W        W92468  34.852  38.486   3.187
27308W        W92469  30.926  25.995  11.597
27309W        W92470  36.079  14.639   2.217
27310W        W92471  13.276  39.857  10.553
27311W        W92472  22.518  16.143   1.766
27312W        W92473  23.498  40.092  12.510
27313W        W92474  11.607  33.657   1.503
27314W        W92475   2.494  18.799   1.204
27315W        W92476  34.482  21.389   4.115
27316W        W92477  27.471   2.461   3.111
27317W        W92478  36.507   9.169   2.775
27318W        W92479   8.000   9.859   4.700
27319W        W92480  12.311  35.637   3.290
27320W        W92481   9.502  33.689  13.306
27321W        W92482  28.548  36.822  12.889
27322W        W92483  18.494   2.128  11.118
27323W        W92484  31.341  21.866   3.312
27324W        W92485  29.957  23.232   1.000
27325W        W92486   5.940  21.491   3.702
27326W        W92487  39.260   6.296  12.941
27327W        W92488  44.895  29.670   3.215
27328W        W92489  36.569   5.773   3.530
27329W        W92490  32.991  33.859  13.826
27330W        W92491  13.393  28.278  14.212
27331W        W92492  19.899   8.650  11.088
27332W        W92493   9.928   5.301  10.608
27333W        W92494  39.969   8.824   0.226
27334W        W92495  40.860  21.247   2.236
27335W        W92496   4.095  25.117   3.109
27336W        W92497  19.567  29.636  11.418
27337W        W92498   8.173   0.294  11.924
27338W        W92499   1.176  18.016   3.667
27339W        W92500  28.641   1.715   0.028
27340W        W92501  37.495  13.794  10.853
27341W        W92502  14.135  36.531   0.293
27342W        W92503  39.102   6.347  11.119
27343W        W92504  16.009  37.058  11.442
27344W        W92505  26.897  31.272  14.827
27345W        W92506   4.188  25.502  11.980
27346W        W92507  24.179  26.901  11.410
27347W        W92508   3.098  37.474  10.599
27348W        W92509  21.752  19.313  10.690
27349W        W92510  21.629  16.479   4.046
27350W        W92511  23.652  24.951   4.632
27351W        W92512  29.034   7.134  12.390
27352W        W92513  17.774  38.084   0.317
27353W        W92514  16.619  19.107  11.203
27354W        W92515   5.951   6.547  11.207
27355W        W92516  12.434  24.475   4.886
27356W        W92517   6.755  12.627  13.056
27357W        W92518   1.340  40.026  14.293
27358W        W92519   4.356  19.890  13.038
27359W        W92520  11.781   6.795  14.509
27360W        W92521  28.666  14.074  13.388
27361W        W92522   7.446  24.540   4.191
27362W        W92523   7.150  30.190   0.918
27363W        W92524  43.293  18.133   1.830
27364W        W92525  15.025   7.240   4.050
27365W        W92526  39.522   0.767   3.264
27366W        W92527  26.155  35.036   0.194
27367W        W92528   2.249   8.817  12.522
27368W        W92529   6.206   6.247  12.946
27369W        W92530  44.339  11.896  11.132
27370W        W92531  22.168  19.021   3.314
27371W        W92532   2.312   4.195   1.724
27372W        W92533  10.201  26.460  11.270
27373W        W92534   0.806  22.963   4.013
27374W        W92535   1.991  29.163  13.947
27375W        W92536  12.565  11.185   1.268
27376W        W92537  30.347  13.062   4.734
27377W        W92538  40.829   7.308  10.763
27378W        W92539  41.950  18.066   3.666
27379W        W92540   3.807   4.141   0.960
27380W        W92541  20.246  42.510  11.068
27381W        W92542  27.142  14.782   2.078
27382W        W92543  34.421  35.574   3.736
27383W        W92544  22.832  26.318  11.551
27384W        W92545  41.757   7.264  12.570
27385W        W92546  31.686  10.499  11.173
27386W        W92547   6.436  29.994  11.515
27387W        W92548  11.832   4.369   2.991
27388W        W92549  21.764  26.356   1.704
27389W        W92550  35.189  11.434  12.436
27390W        W92551  25.289  31.905  14.447
27391W        W92552  37.300  28.722   0.783
27392W        W92553  13.142  18.592   3.401
27393W        W92554  10.715  11.793  12.963
27394W        W92555  30.687  17.306  12.055
27395W        W92556  17.515  21.521  11.888
27396W        W92557  25.174  34.408  13.064
27397W        W92558  21.147   2.000  11.536
27398W        W92559  22.261  17.808   9.727
27399W        W92560  43.364   3.854   2.262
27400W        W92561  24.483  22.788  11.531
27401W        W92562  23.596   1.850   4.393
27402W        W92563  26.088  38.294   3.196
27403W        W92564  17.466  42.979  10.929
27404W        W92565  24.593  28.226  13.973
27405W        W92566  24.471  29.948   0.219
27406W        W92567  36.747  11.884   1.303
27407W        W92568   1.346  40.463   0.729
27408W        W92569   3.732  33.274   0.327
27409W        W92570  34.634   1.678  11.494
27410W        W92571  12.756  22.498   4.961
27411W        W92572   8.278  27.847   3.766
27412W        W92573  15.916  31.171  14.677
27413W        W92574   2.529  25.427  13.347
27414W        W92575  27.151  21.875  10.225
27415W        W92576   5.732  24.821   4.944
27416W        W92577   8.945  19.375   2.796
27417W        W92578  19.111  37.066   1.916
27418W        W92579  34.954  32.015   3.613
27419W        W92580   5.407  24.159   1.975
27420W        W92581  26.127   7.391  13.984
27421W        W92582   1.125  18.433  13.540
27422W        W92583  15.107  38.948   2.443
27423W        W92584  14.244  32.494   2.170
27424W        W92585  25.154  36.777   0.304
27425W        W92586  40.324  19.983   0.359
27426W        W92587   2.384  19.320   3.671
27427W        W92588  32.443  36.395   3.826
27428W        W92589   6.360  39.385   0.348
27429W        W92590   1.474   2.795   0.024
27430W        W92591   3.348  32.126   3.348
27431W        W92592  33.517  23.973  14.003
27432W        W92593   3.203  28.214  11.141
27433W        W92594  43.033  42.905  10.168
27434W        W92595   3.026  12.253  14.749
27435W        W92596   1.319  11.519   4.046
27436W        W92597  26.955  10.132  11.700
27437W        W92598  38.949  19.196   3.920
27438W        W92599  30.913  11.623  12.803
27439W        W92600  16.296  33.641  14.868
27440W        W92601  36.117  44.940   3.567
27441W        W92602  28.028  22.630   5.280
27442W        W92603   7.602   4.701  10.792
27443W        W92604  22.787  32.398   2.771
27444W        W92605  35.578  19.682   3.655
27445W        W92606  35.131  29.181  13.978
27446W        W92607   8.753  27.050   2.207
27447W        W92608  15.222   3.356  10.393
27448W        W92609  14.491  11.659  11.548
27449W        W92610  16.032   8.159  13.313
27450W        W92611  22.570   8.266   3.204
27451W        W92612  33.161  40.539  14.831
27452W        W92613  36.372  31.405  13.971
27453W        W92614   1.610  37.556   3.076
27454W        W92615   9.882  34.023   0.377
27455W        W92616  39.233  25.447   0.270
27456W        W92617   5.316   7.813   0.947
27457W        W92618  20.178  44.350  10.576
27458W        W92619  44.340  34.833   3.701
27459W        W92620  11.620   6.335  13.647
27460W        W92621  18.828   3.404   2.309
27461W        W92622  14.129  24.727   0.662
27462W        W92623  35.473  21.800  13.889
27463W        W92624  38.068   3.199   3.235
27464W        W92625   3.825   2.511   2.705
27465W        W92626  28.779  39.817   4.539
27466W        W92627  37.310  38.262  14.849
27467W        W92628  22.077  39.651  10.913
27468W        W92629  29.051  19.743  12.298
27469W        W92630  28.245  16.999   1.915
27470W        W92631  19.539  21.084  11.142
27471W        W92632  10.714   0.884   1.684
27472W        W92633   0.378  20.577   2.257
27473W        W92634  31.105  16.129   3.014
27474W        W92635  10.100  15.555  13.374
27475W        W92636  15.802  23.058  14.893
27476W        W92637  29.525  11.384  12.018
27477W        W92638  18.527  27.154  12.451
27478W        W92639  18.260  14.879  11.637
27479W        W92640   4.980   0.764  10.095
27480W        W92641   9.652  42.852   2.245
27481W        W92642  33.912  12.256  12.433
27482W        W92643   6.068  16.613  12.469
27483W        W92644  19.743  39.765   4.127
27484W        W92645  17.177  19.440  12.529
27485W        W92646   2.388   4.491  11.145
27486W        W92647  19.836  16.357   3.142
27487W        W92648   4.577  22.676  10.454
27488W        W92649  13.545  17.517   4.143
27489W        W92650  23.470   8.079  12.063
27490W        W92651  18.448  13.411  12.682
27491W        W92652  20.208  28.164  11.979
27492W        W92653  39.320  36.935  14.023
27493W        W92654  28.713  19.099  12.457
27494W        W92655   2.958   0.811   4.870
27495W        W92656  41.064  15.605  11.660
27496W        W92657   6.211  12.622  14.261
27497W        W92658  25.465  22.606   3.276
27498W        W92659   8.129  15.717  10.349
27499W        W92660  16.225  44.945   0.417
27500W        W92661   1.671  29.908   4.427
27501W        W92662  12.855   3.271   0.161
27502W        W92663  44.484  39.969  10.798
27503W        W92664   7.287  17.301  12.306
27504W        W92665   5.651  28.720   2.761
27505W        W92666  23.621   5.344   2.852
27506W        W92667  26.639  19.091  10.638
27507W        W92668  21.100  40.545  10.989
27508W        W92669  41.960  40.824  11.116
27509W        W92670  32.585  40.776  13.373
27510W        W92671  16.895  35.556  13.421
27511W        W92672  25.556  10.127   4.185
27512W        W92673  34.537  41.927   1.620
27513W        W92674   7.844  37.368   2.247
27514W        W92675   4.917  19.184  14.037
27515W        W92676  16.306  34.374   4.541
27516W        W92677  18.620  12.397  11.130
27517W        W92678  14.316  29.402   4.194
27518W        W92679  35.633   5.792   3.901
27519W        W92680  17.498  38.394   4.091
27520W        W92681  24.199   2.001  13.678
27521W        W92682   5.220   2.256   0.480
27522W        W92683  43.057  31.044  12.701
27523W        W92684  41.676  22.102   1.232
27524W        W92685  22.716  24.068   3.543
27525W        W92686  24.636   7.947   1.201
27526W        W92687   1.133  11.307   0.686
27527W        W92688  41.360   4.628  14.748
27528W        W92689   4.205  29.489   3.298
27529W        W92690  34.509  36.934   1.609
27530W        W92691  13.244   8.274   4.331
27531W        W92692  16.939   5.886  12.818
27532W        W92693  18.840  38.013   0.263
27533W        W92694  21.034  13.474  10.793
27534W        W92695  13.208  17.293  11.954
27535W        W92696  43.316  29.271  11.020
27536W        W92697  25.063  34.589   0.021
27537W        W92698  30.846  10.815  10.853
27538W        W92699   3.842  19.783   4.323
27539W        W92700   7.864  24.490  12.863
27540W        W92701  28.391  42.806   1.385
27541W        W92702   0.560  30.523  11.607
27542W        W92703   2.415   6.530   3.603
27543W        W92704   5.361  33.971  14.364
27544W        W92705  39.126  25.021  14.330
27545W        W92706  20.164   3.339  12.106
27546W        W92707  24.173  42.070  13.295
27547W        W92708  21.249  23.279  11.269
27548W        W92709  36.161   5.464  11.686
27549W        W92710  14.263  42.419  14.362
27550W        W92711  26.163   0.961   1.935
27551W        W92712  44.020   7.931   3.415
27552W        W92713  44.920  39.550  10.142
27553W        W92714  41.735  32.342  10.462
27554W        W92715  33.288  38.920   2.821
27555W        W92716   3.832  39.623   0.044
27556W        W92717  31.955  23.137  14.002
27557W        W92718  44.833  30.548  10.639
27558W        W92719  10.900  18.015  13.917
27559W        W92720   3.798  15.094  10.683
27560W        W92721  35.914  24.894  11.173
27561W        W92722  20.626  34.330  13.921
27562W        W92723  19.121  24.658  11.921
27563W        W92724  23.335  15.246  12.023
27564W        W92725   8.698  34.901   3.588
27565W        W92726  22.123  17.258   0.750
27566W        W92727  14.518  37.655   1.730
27567W        W92728  32.202  14.023  11.141
27568W        W92729  28.144  37.512  12.031
27569W        W92730  19.349  40.435  14.565
27570W        W92731  31.139  33.976  12.312
27571W        W92732   9.447  38.482   4.532
27572W        W92733  28.028   5.982   1.870
27573W        W92734  14.405  23.590   0.201
27574W        W92735   1.761  31.861  12.420
27575W        W92736  24.293   4.249  12.983
27576W        W92737  10.299  12.707  13.087
27577W        W92738  39.365  22.575  13.888
27578W        W92739  17.499  16.053  13.861
27579W        W92740  35.091  37.022   3.293
27580W        W92741  22.911   7.180  12.431
27581W        W92742  33.044  20.826   4.063
27582W        W92743   9.179  13.495  11.180
27583W        W92744  10.407  10.860  10.356
27584W        W92745  29.126  21.467  12.954
27585W        W92746  34.076   9.338   2.734
27586W        W92747  38.112  38.911   3.818
27587W        W92748   2.325  39.754   1.725
27588W        W92749  24.469   9.853   1.994
27589W        W92750   9.796  20.611   1.270
27590W        W92751   8.187  28.573   2.193
27591W        W92752  21.555  31.613   1.261
27592W        W92753  32.792  26.072   2.337
27593W        W92754   7.373  31.432   3.167
27594W        W92755  29.713  27.907  12.852
27595W        W92756   5.285   9.281   4.238
27596W        W92757  31.385  32.726  14.992
27597W        W92758  14.578   4.379   0.842
27598W        W92759  10.382  38.873  12.247
27599W        W92760  33.821   6.753   3.734
27600W        W92761  27.034  27.877   1.419
27601W        W92762  18.755   2.880  13.699
27602W        W92763  19.335   3.276  11.134
27603W        W92764  22.570  30.631  11.210
27604W        W92765  39.310   9.330  11.663
27605W        W92766  20.621  25.175  14.393
27606W        W92767  37.268  40.585  14.345
27607W        W92768  18.719  31.286   3.872
27608W        W92769  42.461   2.471   2.426
27609W        W92770  31.025  41.046  14.672
27610W        W92771   8.406  24.296   3.264
27611W        W92772  40.754   9.285  12.560
27612W        W92773  34.832  20.291  14.513
27613W        W92774  20.890  19.555  11.608
27614W        W92775  32.475   8.712   5.005
27615W        W92776  16.205  27.087  11.501
27616W        W92777   9.406  29.963   4.164
27617W        W92778  22.769  38.593   9.869
27618W        W92779  42.270  35.349  11.050
27619W        W92780  26.405   5.334  12.344
27620W        W92781  39.373  10.855   4.721
27621W        W92782   2.658   3.889  14.249
27622W        W92783   4.619   6.807   3.223
27623W        W92784  27.295   3.721   0.849
27624W        W92785  38.272  22.681  12.311
27625W        W92786  15.298  22.393   4.105
27626W        W92787  19.085   6.854  12.408
27627W        W92788   8.761  20.327   2.369
27628W        W92789  29.177  35.066   2.852
27629W        W92790  40.421  38.809   3.168
27630W        W92791  23.221   8.709   4.665
27631W        W92792  21.026  43.498   1.179
27632W        W92793  12.341   1.817  10.703
27633W        W92794   8.619  12.365  11.685
27634W        W92795  25.019   0.365  14.879
27635W        W92796  22.873  29.031  13.400
27636W        W92797   0.149  31.487   3.784
27637W        W92798  38.344  42.990   2.896
27638W        W92799  44.697  38.963  12.103
27639W        W92800  35.345   9.892   4.399
27640W        W92801  22.106  28.174  12.905
27641W        W92802   4.870  42.140  11.274
27642W        W92803  26.125  23.729   1.637
27643W        W92804  11.245  34.009   1.320
27644W        W92805  16.275   4.829   2.787
27645W        W92806   1.363  31.491  13.594
27646W        W92807   2.137  13.413  14.791
27647W        W92808  27.942  27.961   9.975
27648W        W92809  25.548  37.892   0.275
27649W        W92810  38.804  28.581  11.846
27650W        W92811   7.236  40.331   1.353
27651W        W92812  15.569  10.257  14.437
27652W        W92813  30.407  38.482   4.578
27653W        W92814   9.784   8.659   2.157
27654W        W92815   5.723  13.194  14.858
27655W        W92816  15.664  22.233  12.090
27656W        W92817  10.351  12.924  11.053
27657W        W92818  22.707  17.509   2.129
27658W        W92819  21.031  17.515   1.493
27659W        W92820  17.646  10.312  11.595
27660W        W92821  13.219  25.644  12.017
27661W        W92822  37.167   5.358  12.630
27662W        W92823  26.151  28.630  13.064
27663W        W92824  30.471  18.107   1.516
27664W        W92825  19.910  13.326  10.759
27665W        W92826  25.372  27.210   1.246
27666W        W92827   8.329  21.031  13.580
27667W        W92828  11.224  34.871  11.987
27668W        W92829  31.214   7.231  12.959
27669W        W92830  31.523  14.310   3.196
27670W        W92831  29.164  40.509   2.337
27671W        W92832  27.605  30.944   0.683
27672W        W92833  28.774  16.876  11.012
27673W        W92834  39.667   0.417   1.182
27674W        W92835  30.194  28.877  14.398
27675W        W92836  43.027  31.159  14.509
27676W        W92837  44.128  19.330   1.865
27677W        W92838   0.401   9.909   3.612
27678W        W92839  34.586  26.186   2.658
27679W        W92840  32.402  38.429  14.034
27680W        W92841   0.475   2.653  14.375
27681W        W92842   4.136  34.519   4.160
27682W        W92843  19.963  13.346  11.697
27683W        W92844  22.937  22.769  11.233
27684W        W92845  31.024  38.259  10.709
27685W        W92846   2.454  39.692  12.085
27686W        W92847  31.149  23.001   1.655
27687W        W92848  37.809  38.512  14.986
27688W        W92849  42.734  15.149  13.859
27689W        W92850   3.274  13.858   2.660
27690W        W92851  28.925  22.629   5.301
27691W        W92852  15.661  14.354   0.528
27692W        W92853  26.140   8.481   1.461
27693W        W92854  14.855  28.571  11.158
27694W        W92855  33.085  19.316   1.445
27695W        W92856  15.172  22.834  11.061
27696W        W92857  22.202  24.568  11.575
27697W        W92858   8.904   9.330   1.232
27698W        W92859  35.350  26.078  14.764
27699W        W92860  10.237   2.729  14.512
27700W        W92861   6.230  27.045  10.312
27701W        W92862  40.857   3.632  10.641
27702W        W92863  28.416  16.098  11.905
27703W        W92864  20.613  11.103  10.677
27704W        W92865  14.878  25.177   2.323
27705W        W92866  34.354  20.586  12.491
27706W        W92867  37.872   5.734   3.937
27707W        W92868   6.958  19.118   1.778
27708W        W92869   0.017  35.540  14.090
27709W        W92870  15.838   6.606   2.110
27710W        W92871   6.987   8.310  13.818
27711W        W92872  11.824  37.239   0.927
27712W        W92873  14.675   9.177  14.656
27713W        W92874   2.720  17.843   1.357
27714W        W92875  15.065  43.120   2.369
27715W        W92876  31.292  10.127   4.323
27716W        W92877  28.390  40.841   1.256
27717W        W92878   4.410  40.199  14.373
27718W        W92879  40.854  22.044  13.833
27719W        W92880  27.143  11.207   1.814
27720W        W92881   5.865  26.351   1.183
27721W        W92882  37.352   1.745  13.977
27722W        W92883  42.918  15.393  11.536
27723W        W92884  16.775  41.851   9.718
27724W        W92885  10.158  10.580   0.260
27725W        W92886  37.532  20.310   5.019
27726W        W92887   9.302  41.991  11.493
27727W        W92888  44.144  35.364   3.266
27728W        W92889  26.484   5.648   2.801
27729W        W92890  38.842  15.487   3.632
27730W        W92891   5.707  13.510   0.354
27731W        W92892  22.593  14.255  11.403
27732W        W92893  26.480   2.054   1.463
27733W        W92894  17.491  27.542  14.910
27734W        W92895   1.096   5.917   1.988
27735W        W92896  13.107   1.055   4.037
27736W        W92897  21.984  43.491  11.553
27737W        W92898  30.543  43.608   2.434
27738W        W92899  37.478  43.045   2.951
27739W        W92900   8.433  26.254   4.683
27740W        W92901  14.646  29.035  11.353
27741W        W92902  37.906   8.162   4.214
27742W        W92903  27.741  11.175   2.879
27743W        W92904  36.021  29.364  14.803
27744W        W92905  30.678  10.764   4.758
27745W        W92906  44.429  29.947   4.395
27746W        W92907  30.785   9.902   4.343
27747W        W92908  12.957  41.056   1.739
27748W        W92909  21.541  36.893  13.951
27749W        W92910   1.915  38.004   3.830
27750W        W92911  30.594  19.749  10.747
27751W        W92912  23.464  31.101  14.405
27752W        W92913   6.988   0.273   4.850
27753W        W92914   2.806  34.117  11.436
27754W        W92915   3.302  39.903   4.098
27755W        W92916   3.380  23.730   0.266
27756W        W92917  20.736   5.833   4.792
27757W        W92918   3.933  36.877  14.133
27758W        W92919   3.370  40.757   2.764
27759W        W92920   0.529  35.604   2.489
27760W        W92921  15.558  12.127   2.357
27761W        W92922  28.575  11.166   2.282
27762W        W92923   7.448  35.340   0.368
27763W        W92924  21.924  22.721   1.803
27764W        W92925   9.433  14.777   1.770
27765W        W92926  12.281  11.649  13.419
27766W        W92927  30.478  17.168   4.393
27767W        W92928  19.710  42.513   3.584
27768W        W92929  20.232  26.431  13.455
27769W        W92930  31.284  39.996   0.382
27770W        W92931  14.637  38.908  11.729
27771W        W92932   7.374  13.359   4.819
27772W        W92933  36.911  35.774   4.077
27773W        W92934   0.740  36.942   2.680
27774W        W92935  33.912  42.314   4.199
27775W        W92936  43.546  24.410  13.850
27776W        W92937   8.194   5.764   1.271
27777W        W92938  36.140  29.516   3.737
27778W        W92939  21.669   3.748   4.585
27779W        W92940  20.658   1.242   2.287
27780W        W92941   2.050  29.067   1.706
27781W        W92942  42.973  43.684   2.651
27782W        W92943  44.423  21.608  13.400
27783W        W92944  38.983  37.935  12.130
27784W        W92945   9.826   6.017   2.399
27785W        W92946   6.605  40.995   0.696
27786W        W92947  16.997  38.536   5.010
27787W        W92948   3.736  21.583   3.216
27788W        W92949  34.160  21.320   0.977
27789W        W92950  17.226   3.958   0.409
27790W        W92951  32.379  33.168   2.051
27791W        W92952   2.409  18.799  11.719
27792W        W92953  10.869  28.440   0.740
27793W        W92954  36.277  35.885  12.974
27794W        W92955  28.533   8.930  12.006
27795W        W92956  41.236  13.157   3.194
27796W        W92957  44.353  21.690   0.936
27797W        W92958  25.195   7.546  12.582
27798W        W92959  11.043  33.176  11.962
27799W        W92960  36.567  16.073   0.432
27800W        W92961  39.519  37.113  11.048
27801W        W92962   0.797  18.332   0.971
27802W        W92963  15.624  25.443  13.809
27803W        W92964  27.609  10.174   5.043
27804W        W92965  13.111  14.576   0.285
27805W        W92966  16.072  29.684   0.834
27806W        W92967  29.463   2.409   3.131
27807W        W92968  35.022   5.770  13.769
27808W        W92969  19.119  40.662   3.355
27809W        W92970   4.177  29.152   2.569
27810W        W92971  16.554  40.346   2.342
27811W        W92972  19.038  15.171   1.229
27812W        W92973  41.380  20.236  13.897
27813W        W92974   5.750  29.385  12.028
27814W        W92975  38.805  40.861  12.365
27815W        W92976  14.071  11.899   2.672
27816W        W92977  31.869  24.419   1.390
27817W        W92978  21.118   7.712  11.655
27818W        W92979  39.906   5.119   3.196
27819W        W92980   8.956   4.452   1.476
27820W        W92981  11.309  32.680  12.603
27821W        W92982  30.903  15.068  12.920
27822W        W92983  32.932  35.241   0.873
27823W        W92984  14.385  10.021  10.462
27824W        W92985  39.402  30.693  12.104
27825W        W92986   3.680  10.856   1.265
27826W        W92987  43.046  26.181   1.335
27827W        W92988   5.812   5.805   2.514
27828W        W92989  36.410  22.464  13.028
27829W        W92990  12.776  24.409  14.403
27830W        W92991  38.404  12.511  11.788
27831W        W92992  43.566  40.802  10.713
27832W        W92993  14.620  20.407   2.242
27833W        W92994   3.745  30.721   3.669
27834W        W92995  35.416  39.949  12.504
27835W        W92996  41.086  38.934  13.489
27836W        W92997  25.964  18.427   2.435
27837W        W92998  16.380  22.491  11.486
27838W        W92999  31.630  34.316  14.113
27839W        W93000  25.465  21.059  13.078
27840W        W93001   5.636  44.861   3.621
27841W        W93002  31.207  14.838   4.809
27842W        W93003   3.765  17.090  14.840
27843W        W93004  44.509  27.282   0.904
27844W        W93005  29.734  43.916   2.195
27845W        W93006  21.240   5.715   0.458
27846W        W93007  27.796  22.224  10.955
27847W        W93008  34.454  34.785  14.921
27848W        W93009  22.773   1.383   2.403
27849W        W93010  22.190  32.807  12.576
27850W        W93011  25.932  35.454  11.601
27851W        W93012  27.134  34.639   3.371
27852W        W93013   0.847  19.230   3.598
27853W        W93014  20.572  41.520   2.154
27854W        W93015  33.897  28.455  11.997
27855W        W93016   8.469   2.941  13.917
27856W        W93017   1.186   4.860  11.645
27857W        W93018   4.438   5.566   3.642
27858W        W93019  14.308  38.993   1.838
27859W        W93020   6.962  42.300  13.908
27860W        W93021  17.033  17.283   2.522
27861W        W93022  12.835  10.604  10.818
27862W        W93023  33.624   5.029  11.357
27863W        W93024   3.326  23.036   4.468
27864W        W93025   7.166  12.357   0.373
27865W        W93026  42.017  42.275  11.034
27866W        W93027  41.317  22.681   3.214
27867W        W93028  23.771  35.303  12.079
27868W        W93029   7.851  36.921   1.865
27869W        W93030  36.497  15.175   4.433
27870W        W93031  20.118  14.570   3.639
27871W        W93032   0.546  21.172   2.600
27872W        W93033  35.430  21.141  13.003
27873W        W93034  18.303  27.251  12.909
27874W        W93035  39.581  11.820  13.119
27875W        W93036  32.480  31.771   3.309
27876W        W93037  43.987  33.991   1.030
27877W        W93038   8.525  24.405   1.772
27878W        W93039  21.171  16.648  12.445
27879W        W93040  28.499  32.665   4.245
27880W        W93041  39.457  19.328  12.020
27881W        W93042  23.464   5.898  11.685
27882W        W93043  20.045  19.644  13.321
27883W        W93044  22.813  38.357   0.750
27884W        W93045  25.860  44.214   2.398
27885W        W93046  30.752  25.746   4.186
27886W        W93047  43.027  38.612   0.952
27887W        W93048   2.951  39.068   0.846
27888W        W93049  24.213   2.409   0.756
27889W        W93050  16.720  38.837   0.665
27890W        W93051  14.743  23.152  11.446
27891W        W93052  13.889   3.326   4.485
27892W        W93053  15.316  35.805  13.825
27893W        W93054  16.246   6.268  12.250
27894W        W93055  16.163  22.955  12.107
27895W        W93056  42.832  32.568  11.252
27896W        W93057  38.219  12.802  14.439
27897W        W93058  14.659  28.235  13.725
27898W        W93059  44.169  35.801   0.325
27899W        W93060  32.055   5.276   3.674
27900W        W93061   9.018  16.115  14.749
27901W        W93062  31.905  15.289  11.458
27902W        W93063  19.802   7.211   2.775
27903W        W93064   9.630  42.243   3.070
27904W        W93065   1.237  36.059  13.804
27905W        W93066  44.983   4.478  11.694
27906W        W93067  10.925  10.804  14.935
27907W        W93068  13.900   9.690  13.530
27908W        W93069  36.623   3.351   1.653
27909W        W93070  20.258  20.500   0.018
27910W        W93071  37.393   4.374  11.982
27911W        W93072  39.812  33.429   4.757
27912W        W93073  44.184   0.090   3.290
27913W        W93074  42.427  35.570  13.311
27914W        W93075  16.208  28.662   0.723
27915W        W93076  36.870  39.922   4.030
27916W        W93077   2.009  27.167   3.387
27917W        W93078  43.081   8.414  14.381
27918W        W93079  18.024  17.717  14.322
27919W        W93080  33.034   7.893  11.138
27920W        W93081  10.741   3.895  10.745
27921W        W93082  29.134  21.220   1.935
27922W        W93083  33.011   8.847   5.032
27923W        W93084  14.677  12.190  14.776
27924W        W93085  27.086  18.609  12.941
27925W        W93086  24.401  15.673   2.015
27926W        W93087  31.287  38.953   5.421
27927W        W93088   5.925  23.106   2.779
27928W        W93089  10.035  12.983  13.858
27929W        W93090  10.813  29.220   2.380
27930W        W93091   4.891  14.101  13.544
27931W        W93092  10.843   9.528   1.144
27932W        W93093  27.916  16.037  13.805
27933W        W93094  26.547  34.252   4.121
27934W        W93095  17.198  15.664   2.174
27935W        W93096  31.054  30.036  13.927
27936W        W93097  14.188  18.747  10.885
27937W        W93098  40.072   5.492  12.604
27938W        W93099   1.396   9.542   0.353
27939W        W93100   4.664  25.249  14.964
27940W        W93101  30.571  30.564  12.495
27941W        W93102  36.385  26.285  10.283
27942W        W93103  42.470  31.110   3.810
27943W        W93104  38.047  27.204   2.822
27944W        W93105  14.719  16.575  11.894
27945W        W93106  39.019  24.831   0.856
27946W        W93107  16.164  36.605   4.611
27947W        W93108  32.796   9.308   0.392
27948W        W93109  15.828  27.712   2.136
27949W        W93110  32.386   1.010   2.422
27950W        W93111  34.504  13.283   2.158
27951W        W93112  25.729  39.520  14.514
27952W        W93113  36.865  23.315   1.412
27953W        W93114  32.920   4.813   4.146
27954W        W93115   7.371  11.813   1.247
27955W        W93116   7.351  42.959   4.259
27956W        W93117  27.673   2.025  10.703
27957W        W93118  21.282  20.544   3.754
27958W        W93119  39.575  12.597  13.254
27959W        W93120  39.948  19.134   2.503
27960W        W93121  16.211  38.195   2.706
27961W        W93122  12.610  30.651  14.935
27962W        W93123   1.239  24.671   3.969
27963W        W93124  13.029  22.622  12.450
27964W        W93125   9.756  38.860   1.030
27965W        W93126   0.470  42.963  12.108
27966W        W93127  22.312   7.732   2.563
27967W        W93128  40.845  40.396   2.936
27968W        W93129  39.622  26.621  12.990
27969W        W93130  44.556  43.962  14.448
27970W        W93131  40.045   2.040  11.671
27971W        W93132   5.314  15.549   4.042
27972W        W93133  22.041  29.123  14.467
27973W        W93134  41.018  39.572  12.937
27974W        W93135  22.019  23.710  11.300
27975W        W93136  42.937  30.738   1.893
27976W        W93137   6.760  33.984  13.094
27977W        W93138  20.735  29.035   1.586
27978W        W93139   6.018   0.884   4.150
27979W        W93140  13.244  18.528   0.248
27980W        W93141  43.403   6.752  13.358
27981W        W93142   6.602  27.294   0.311
27982W        W93143  43.735  43.376  14.348
27983W        W93144  28.909  35.620   2.751
27984W        W93145  23.421   2.715  14.486
27985W        W93146  20.230  25.032   2.686
27986W        W93147  40.142  26.832   3.267
27987W        W93148  34.744  32.192   2.417
27988W        W93149  35.374  23.710   0.475
27989W        W93150  12.867  26.459  13.325
27990W        W93151  43.431  11.643  13.884
27991W        W93152   0.886  37.114   3.199
27992W        W93153  33.889  43.966   0.470
27993W        W93154  35.340   3.112  13.821
27994W        W93155   0.733  21.114  14.938
27995W        W93156  32.815   7.472  11.422
27996W        W93157  17.819  26.756   0.372
27997W        W93158  36.636   2.722   4.095
27998W        W93159  44.481   0.059   2.466
27999W        W93160   5.912   0.268   3.788
28000W        W93161  19.438   4.826  11.225
28001W        W93162  32.626   3.589   1.108
28002W        W93163  37.100  12.218  14.935
28003W        W93164  29.422  17.777  12.675
28004W        W93165  14.142  24.678   1.861
28005W        W93166  29.747  44.389   3.224
28006W        W93167  43.143  21.242   0.871
28007W        W93168  32.977  12.874  11.046
28008W        W93169  20.670  24.458  12.944
28009W        W93170  10.890  39.073   1.992
28010W        W93171  17.976  11.341   3.207
28011W        W93172  42.934  29.566   1.706
28012W        W93173   1.274  22.089  13.621
28013W        W93174  37.404   2.933   0.499
28014W        W93175   0.079   6.851   0.106
28015W        W93176   3.167   4.289  13.781
28016W        W93177   0.139   4.418   2.237
28017W        W93178  20.325  41.982   2.433
28018W        W93179  37.571  11.398  10.629
28019W        W93180   7.286  28.026   2.438
28020W        W93181  24.154  26.466   0.878
28021W        W93182  15.631   5.181  13.900
28022W        W93183  25.400  26.632  13.395
28023W        W93184  37.770  22.328  13.563
28024W        W93185   2.959  19.107   1.818
28025W        W93186  28.529  16.727   2.952
28026W        W93187  40.468  21.717  13.939
28027W        W93188  32.376  40.300   9.702
28028W        W93189   4.445  14.640   3.668
28029W        W93190  17.530  20.770  12.872
28030W        W93191  29.539  12.990  10.726
28031W        W93192  10.917   3.779  13.399
28032W        W93193  43.303  14.304   9.898
28033W        W93194  38.851   6.377   3.755
28034W        W93195  14.141  18.366  13.972
28035W        W93196  28.373  37.718  11.121
28036W        W93197   9.701  16.206  11.821
28037W        W93198   4.497  17.250   2.182
28038W        W93199  33.451   9.301  14.253
28039W        W93200  29.133  44.444   2.483
28040W        W93201  14.148  19.639   0.179
28041W        W93202   4.104  17.891  11.569
28042W        W93203  10.819   9.203   3.309
28043W        W93204  15.768   9.071   4.134
28044W        W93205  41.293  16.673  13.480
28045W        W93206   3.240   9.842  14.700
28046W        W93207   5.381  33.140   3.304
28047W        W93208   7.110   9.485  14.568
28048W        W93209  43.980  10.241  11.158
28049W        W93210  33.815  39.354  13.466
28050W        W93211  40.308  19.031  11.643
28051W        W93212  10.355   0.465   2.694
28052W        W93213  37.082  29.412  13.263
28053W        W93214  21.502  38.155  11.070
28054W        W93215  41.857  26.613  14.923
28055W        W93216  24.959  28.433   1.776
28056W        W93217   2.007  27.445   2.830
28057W        W93218  32.442   1.419   0.899
28058W        W93219  39.822  41.495  10.723
28059W        W93220  44.875   0.280   2.197
28060W        W93221  14.273  30.497   4.140
28061W        W93222  13.299  44.306   2.918
28062W        W93223   9.185  10.268   3.331
28063W        W93224  32.411  38.277   4.941
28064W        W93225  27.849  33.208  13.396
28065W        W93226  40.248  31.473   1.880
28066W        W93227  40.309   8.171   4.256
28067W        W93228  11.317   5.454  10.883
28068W        W93229  34.549  21.517   0.298
28069W        W93230   6.652  44.718   3.625
28070W        W93231  31.735  31.302   1.701
28071W        W93232  42.423  33.629   0.369
28072W        W93233   2.310  20.326  13.946
28073W        W93234  16.494  16.574   9.884
28074W        W93235  13.365  16.829  13.424
28075W        W93236  14.227  34.118   3.364
28076W        W93237  14.775  42.967  11.910
28077W        W93238   3.742  23.009   4.104
28078W        W93239   1.062  34.098   0.835
28079W        W93240  23.281  36.304   4.574
28080W        W93241  43.453  11.268   3.354
28081W        W93242  42.001  39.509  12.065
28082W        W93243  10.625  44.864   1.793
28083W        W93244  10.057  43.342  13.471
28084W        W93245  25.656  31.121  13.739
28085W        W93246  29.635  33.860  13.434
28086W        W93247  12.364  34.620   2.269
28087W        W93248  40.580   6.471  14.046
28088W        W93249  20.755   8.156   0.481
28089W        W93250  37.109   6.506   2.148
28090W        W93251  42.282  16.618   2.340
28091W        W93252  32.141  14.487   2.256
28092W        W93253  21.370  33.141   2.319
28093W        W93254   3.915  23.239  13.670
28094W        W93255   7.761  42.273   1.387
28095W        W93256  12.404  34.653  13.934
28096W        W93257  37.569  34.639  14.988
28097W        W93258  16.669  26.752  14.072
28098W        W93259  37.469  25.605  11.335
28099W        W93260  35.938  27.424   3.703
28100W        W93261  37.083  32.987  13.002
28101W        W93262  10.092  23.752   0.801
28102W        W93263  42.489  20.935   0.214
28103W        W93264  17.992   4.497   2.113
28104W        W93265  30.928  13.328  11.223
28105W        W93266  28.595  29.554   2.799
28106W        W93267  22.439  15.614   1.735
28107W        W93268  39.480  36.939  12.068
28108W        W93269  24.450  20.022   2.230
28109W        W93270  15.169   4.912  14.615
28110W        W93271  21.151  31.884  10.909
28111W        W93272  30.635   6.391  14.332
28112W        W93273  33.688  21.520   0.880
28113W        W93274   2.207  32.063  12.575
28114W        W93275  18.083  43.305  13.688
28115W        W93276  36.610   0.206  12.928
28116W        W93277  27.709  43.006   0.057
28117W        W93278   0.832  37.571   0.767
28118W        W93279  43.443  31.833  12.944
28119W        W93280  40.980  40.518   4.914
28120W        W93281  16.195  11.361  14.430
28121W        W93282  13.213  38.352   3.594
28122W        W93283   3.457  26.557   1.394
28123W        W93284   2.424  27.041   4.193
28124W        W93285  12.720   9.676  13.231
28125W        W93286  44.342   5.830  14.545
28126W        W93287   6.413  23.229  12.384
28127W        W93288  32.555  39.535   1.785
28128W        W93289  37.329  10.161   4.464
28129W        W93290  33.911  27.374  11.240
28130W        W93291   1.477  34.325  13.481
28131W        W93292  16.763   0.309  11.204
28132W        W93293  34.108  30.188   3.299
28133W        W93294  29.569   0.214  14.006
28134W        W93295  25.094   3.003  13.678
28135W        W93296   1.304  41.986  13.336
28136W        W93297  11.377  17.105   1.575
28137W        W93298  20.621  33.427   1.646
28138W        W93299  17.670   8.322  13.885
28139W        W93300   4.908  21.668  13.538
28140W        W93301  39.512   9.733   4.009
28141W        W93302  20.533  38.712   2.209
28142W        W93303  43.971   9.867  14.849
28143W        W93304  16.156  24.654  14.373
28144W        W93305   4.906   6.675   1.688
28145W        W93306  19.661  28.101   4.304
28146W        W93307  38.657  23.093   1.386
28147W        W93308  32.591  43.988  12.795
28148W        W93309  12.511  40.930   2.653
28149W        W93310   5.503  40.865  11.058
28150W        W93311  36.768  11.669   4.931
28151W        W93312  40.865   9.360   0.439
28152W        W93313  10.689  19.766   1.936
28153W        W93314   8.651  38.147  14.420
28154W        W93315   0.960  21.859  14.398
28155W        W93316  42.925   4.585  12.076
28156W        W93317  28.416  35.038   1.235
28157W        W93318  28.617  17.289   1.690
28158W        W93319   5.409  14.875  10.302
28159W        W93320  25.117  40.745  13.062
28160W        W93321  13.951  31.615   3.804
28161W        W93322  11.155  23.439  11.629
28162W        W93323  24.636  30.573   0.448
28163W        W93324  13.763  42.706   2.462
28164W        W93325  13.931  18.176   4.625
28165W        W93326  40.844  23.324   2.413
28166W        W93327  16.303  13.358   1.270
28167W        W93328  44.650  41.188  14.387
28168W        W93329  35.767  11.652   4.881
28169W        W93330  43.481  30.948   4.213
28170W        W93331   4.904  21.237   5.120
28171W        W93332  19.579  28.013   0.181
28172W        W93333  35.589  13.347   0.298
28173W        W93334  35.185  19.701   2.838
28174W        W93335  25.612  24.741   4.543
28175W        W93336   8.094  11.904   1.000
28176W        W93337   3.666   1.311  10.593
28177W        W93338  20.279  38.814   2.966
28178W        W93339  16.235   6.863  14.025
28179W        W93340  11.555  33.474   1.995
28180W        W93341   9.255  17.276  11.151
28181W        W93342  16.284  37.262  10.446
28182W        W93343   8.769  14.243  10.735
28183W        W93344   8.215  26.420  11.152
28184W        W93345  19.562  14.253   5.070
28185W        W93346  37.144  35.983  11.994
28186W        W93347  18.536  33.159  10.513
28187W        W93348  37.557  44.877   1.309
28188W        W93349   0.408   6.198  11.639
28189W        W93350  40.778  28.524  11.537
28190W        W93351   1.848  43.767  13.962
28191W        W93352  15.193  13.705   1.742
28192W        W93353   9.156  30.681  14.803
28193W        W93354   7.260  12.100   1.744
28194W        W93355  13.647  31.126  13.315
28195W        W93356  38.160  23.783   1.634
28196W        W93357   5.205  14.023  13.969
28197W        W93358  34.815  14.651   3.721
28198W        W93359  26.450  28.857   0.130
28199W        W93360  12.815  13.445  10.812
28200W        W93361   2.479  23.542   3.266
28201W        W93362  12.958  30.877  14.652
28202W        W93363  42.529  23.999   3.622
28203W        W93364  30.672  14.812   4.652
28204W        W93365   9.990  25.113  14.542
28205W        W93366  12.096  15.656  13.745
28206W        W93367  39.853  29.460   0.391
28207W        W93368  23.137  14.351  10.172
28208W        W93369  21.513  15.933  10.106
28209W        W93370  20.569  29.147   4.303
28210W        W93371  33.361  24.623  12.539
28211W        W93372   6.941  41.286  11.641
28212W        W93373   8.906  28.578   1.807
28213W        W93374  31.725  28.197   2.100
28214W        W93375  23.185  33.410  11.145
28215W        W93376   1.726   9.837   3.231
28216W        W93377  26.995  14.259  12.456
28217W        W93378  24.007  28.892   0.963
28218W        W93379  21.883  25.596  12.515
28219W        W93380   3.204  18.310  13.032
28220W        W93381  29.946   0.794   1.388
28221W        W93382  15.552  32.697   2.773
28222W        W93383  28.969   2.173   4.815
28223W        W93384  25.209  31.101  13.988
28224W        W93385  35.244  14.124  10.875
28225W        W93386   1.898  24.958   1.734
28226W        W93387  34.501  19.074   1.773
28227W        W93388  17.997  20.830  10.591
28228W        W93389  37.983  41.252   0.232
28229W        W93390  42.725  16.533  13.173
28230W        W93391  26.659  41.946  11.625
28231W        W93392   0.839  16.803   2.947
28232W        W93393  22.060  39.870   2.355
28233W        W93394  34.083  36.535   4.545
28234W        W93395  15.263  20.164  11.231
28235W        W93396  16.745  40.958  10.234
28236W        W93397  22.678   6.604  14.376
28237W        W93398  44.815  24.928   4.348
28238W        W93399  38.804   9.338  10.414
28239W        W93400  22.061  23.651  13.534
28240W        W93401  42.512  14.330   3.640
28241W        W93402  44.194  37.862  12.520
28242W        W93403   3.277  25.469  11.718
28243W        W93404  21.817  25.931   2.027
28244W        W93405  33.496  21.134   3.354
28245W        W93406  32.340  20.658  14.577
28246W        W93407  38.705  15.693   4.927
28247W        W93408  25.823  10.969  10.824
28248W        W93409  42.039  22.181  14.493
28249W        W93410   3.810  37.491   1.884
28250W        W93411   2.512  35.285   2.635
28251W        W93412  41.272  27.553   1.194
28252W        W93413  33.405  33.202  11.268
28253W        W93414  10.372   6.787  13.534
28254W        W93415   4.266   3.060   0.989
28255W        W93416  12.918  39.650   4.041
28256W        W93417  44.035  42.612  11.173
28257W        W93418  29.943  12.734  13.840
28258W        W93419   5.253   7.846   3.718
28259W        W93420  26.720  35.724   4.953
28260W        W93421  14.247   8.198   4.142
28261W        W93422  26.430  44.103  12.153
28262W        W93423   6.798  19.202  10.607
28263W        W93424   3.887  22.097  14.908
28264W        W93425   2.348  11.092  13.507
28265W        W93426  44.469  13.597   0.744
28266W        W93427  30.379  38.275   4.099
28267W        W93428  44.377  12.502  12.871
28268W        W93429  26.983  34.813   1.769
28269W        W93430   5.310  16.134  12.509
28270W        W93431  11.248  44.261  10.812
28271W        W93432  29.411   9.197  14.138
28272W        W93433  29.645  18.283  11.557
28273W        W93434  33.934  22.488  10.053
28274W        W93435   0.767  22.668   1.322
28275W        W93436  37.153  22.834  12.765
28276W        W93437  34.579  17.021   0.919
28277W        W93438   2.432  32.618   3.749
28278W        W93439  15.264  28.167  12.468
28279W        W93440   1.457  15.635  13.495
28280W        W93441  11.435  11.239   4.768
28281W        W93442  10.318  44.127  12.506
28282W        W93443  33.841  11.222   4.208
28283W        W93444   0.219   7.433   2.746
28284W        W93445  35.439  19.113   4.551
28285W        W93446  44.392   3.318  12.067
28286W        W93447  44.362  13.128   0.547
28287W        W93448  25.704  44.868  14.025
28288W        W93449   9.370  27.633   9.549
28289W        W93450  33.504  28.131   3.842
28290W        W93451   8.458  19.490   2.642
28291W        W93452  41.896  40.486   4.550
28292W        W93453  15.909  14.108   4.995
28293W        W93454  41.249   8.265  12.982
28294W        W93455   1.334  13.791   2.636
28295W        W93456   9.198   8.304   1.705
28296W        W93457   2.524  23.518   1.782
28297W        W93458  21.776   9.627   2.298
28298W        W93459   9.851   1.846  12.892
28299W        W93460   8.398   2.343  14.532
28300W        W93461  23.301   4.886   1.157
28301W        W93462  25.965  13.957   2.202
28302W        W93463  10.648  21.555   1.889
28303W        W93464   9.109   2.268  11.181
28304W        W93465   5.975  41.451  14.035
28305W        W93466   6.413  16.523  12.853
28306W        W93467   4.691  10.027  14.029
28307W        W93468  11.380  26.047  14.780
28308W        W93469  38.233  27.489   1.524
28309W        W93470  36.076  22.174  10.678
28310W        W93471  38.863  32.953   2.557
28311W        W93472  22.528  27.670  12.092
28312W        W93473  19.046   0.864   3.741
28313W        W93474  27.573   5.384  13.332
28314W        W93475  20.509   1.729   2.343
28315W        W93476   1.081   3.877   1.284
28316W        W93477   8.836  15.919   2.434
28317W        W93478  44.476  24.776   2.182
28318W        W93479   0.731  22.568   3.672
28319W        W93480  26.168  12.773   3.679
28320W        W93481  29.965  17.628  13.579
28321W        W93482  23.157   5.622   2.744
28322W        W93483  36.601  10.885  13.191
28323W        W93484   7.855  36.285  13.519
28324W        W93485  21.784  29.571  10.554
28325W        W93486   9.205  14.222   4.396
28326W        W93487  15.758   6.507   2.588
28327W        W93488   3.232  28.409   4.100
28328W        W93489  12.806  17.245   3.208
28329W        W93490  29.650  24.658  13.514
28330W        W93491  19.812  32.265   3.640
28331W        W93492  22.970   8.574  12.577
28332W        W93493  39.717  30.774  14.816
28333W        W93494  39.584  33.591   1.447
28334W        W93495   5.180  30.298  14.108
28335W        W93496  32.626  36.525   3.318
28336W        W93497  17.503  33.097  14.415
28337W        W93498  30.894   7.874  14.847
28338W        W93499  34.422  39.488  13.293
28339W        W93500  40.830  22.525   4.383
28340W        W93501  21.252   9.446   4.146
28341W        W93502  39.998   9.716   2.689
28342W        W93503  21.178  42.762   3.666
28343W        W93504  23.981   4.710   1.859
28344W        W93505  32.657  25.890  12.118
28345W        W93506  34.600   9.220  10.778
28346W        W93507  22.681   7.098  14.291
28347W        W93508   4.411   9.348   1.843
28348W        W93509   8.885  42.506  11.499
28349W        W93510  39.913  42.730  13.535
28350W        W93511   9.317  11.387  12.046
28351W        W93512  13.840   1.367   2.986
28352W        W93513  33.015  33.279   3.238
28353W        W93514  44.121  32.355   1.319
28354W        W93515  44.579  26.643   2.406
28355W        W93516  20.901  15.549  14.095
28356W        W93517  10.836  32.611  12.881
28357W        W93518  12.124  21.728  12.431
28358W        W93519  17.235  21.126   2.487
28359W        W93520  29.501  13.850  13.287
28360W        W93521   9.957  22.684   4.571
28361W        W93522  12.373   5.469   3.319
28362W        W93523  15.655   8.018  13.990
28363W        W93524   2.522  30.084   0.493
28364W        W93525  14.092   4.690   0.032
28365W        W93526  44.375  35.848   3.186
28366W        W93527  42.377  22.641  13.000
28367W        W93528  33.949   4.316   0.724
28368W        W93529  30.495   1.011   2.640
28369W        W93530  18.237  23.416   0.240
28370W        W93531   6.291  39.825  14.441
28371W        W93532  17.331  44.127   2.335
28372W        W93533  44.760  25.915  14.871
28373W        W93534  23.678  25.016   2.423
28374W        W93535  43.052  37.427   1.218
28375W        W93536  28.085   7.898  14.282
28376W        W93537  33.616  23.598   5.041
28377W        W93538   1.372  31.194  12.485
28378W        W93539   7.026   6.271   4.195
28379W        W93540   8.647  23.657   0.857
28380W        W93541  13.021  31.035  13.882
28381W        W93542  36.585  36.641   3.206
28382W        W93543  32.258   5.385   0.160
28383W        W93544  42.472  18.539  12.144
28384W        W93545  30.558  25.988   4.587
28385W        W93546  22.157  29.681   2.729
28386W        W93547  23.520  25.793   1.335
28387W        W93548  19.576  15.669   1.745
28388W        W93549  44.501  43.395   2.806
28389W        W93550  38.983  36.347   4.327
28390W        W93551  18.069  29.596   1.057
28391W        W93552  25.805  24.528  14.800
28392W        W93553  43.461  37.765   1.238
28393W        W93554  18.397  16.013  12.964
28394W        W93555  35.588   8.890  12.147
28395W        W93556  35.610  11.283  11.159
28396W        W93557  33.405  11.092   1.932
28397W        W93558  30.123  29.405   3.697
28398W        W93559  14.133  33.975  12.439
28399W        W93560  33.424  32.559   3.618
28400W        W93561  30.463  14.915   3.720
28401W        W93562   3.216  44.295   2.378
28402W        W93563   7.444  34.140   0.795
28403W        W93564  12.988   2.488   4.355
28404W        W93565  19.856  17.896  12.278
28405W        W93566  12.592  30.109   0.609
28406W        W93567  23.253  43.940   3.162
28407W        W93568  36.187  37.132  11.185
28408W        W93569  31.111  34.468   1.281
28409W        W93570  17.564  33.530  10.517
28410W        W93571  14.771  23.270  13.502
28411W        W93572  43.874  28.387   1.228
28412W        W93573  31.997  13.400  13.630
28413W        W93574   1.787  22.032  13.399
28414W        W93575   0.389   3.774   3.583
28415W        W93576   4.302  10.351  13.813
28416W        W93577  16.109  14.649   4.118
28417W        W93578  39.288  13.697  10.685
28418W        W93579   4.724  34.681   1.627
28419W        W93580   2.606   5.273   2.678
28420W        W93581  32.314  18.570   4.034
28421W        W93582  16.033   1.315   3.193
28422W        W93583  17.081  27.211  11.618
28423W        W93584  39.457   4.005  10.813
28424W        W93585  31.677  36.309  12.465
28425W        W93586  27.729  21.393   2.733
28426W        W93587  35.100  17.019   0.798
28427W        W93588  43.374   1.301  12.385
28428W        W93589  13.351  23.085   4.159
28429W        W93590  25.987   5.701   3.697
28430W        W93591  18.771   3.323  11.971
28431W        W93592   7.187  40.060   0.888
28432W        W93593  23.251   7.720   3.319
28433W        W93594  19.012  19.765  12.099
28434W        W93595   4.751  22.510   1.880
28435W        W93596  29.148  35.027   1.753
28436W        W93597  26.181  44.303   4.728
28437W        W93598  31.605  16.120  14.909
28438W        W93599  32.188  11.789  10.665
28439W        W93600  28.504  19.022  14.003
28440W        W93601  20.190   9.822   4.120
28441W        W93602  18.539  34.496  12.223
28442W        W93603  43.523  21.509  11.142
28443W        W93604  31.369  33.954   0.376
28444W        W93605  25.783  36.168   2.093
28445W        W93606  20.490   0.750  10.609
28446W        W93607  38.338  34.752   1.847
28447W        W93608  10.395  21.026   2.874
28448W        W93609  10.924  32.432  10.701
28449W        W93610  24.085   6.645   4.223
28450W        W93611  26.100  18.748  14.844
28451W        W93612  41.554  21.280   4.313
28452W        W93613  36.168  42.942  12.093
28453W        W93614  20.112  23.953   4.048
28454W        W93615   7.810  20.018   2.085
28455W        W93616  28.176  42.857   1.860
28456W        W93617  21.505  28.064   0.123
28457W        W93618  18.741  23.019  12.824
28458W        W93619   2.124  36.395  13.222
28459W        W93620  27.913   0.086   0.318
28460W        W93621   5.363  36.777   1.819
28461W        W93622  27.522  24.993  10.533
28462W        W93623  22.622  18.454  12.080
28463W        W93624  15.075   6.105   1.210
28464W        W93625  25.180   3.133   3.019
28465W        W93626  11.941  39.509   2.887
28466W        W93627  31.869   5.162   1.840
28467W        W93628  13.528  28.822  10.717
28468W        W93629  41.080  10.705  11.176
28469W        W93630  15.287  24.659   1.765
28470W        W93631  25.563  12.685   3.069
28471W        W93632  41.482  36.253   2.948
28472W        W93633  38.992  11.535   3.174
28473W        W93634  14.842  43.460  10.638
28474W        W93635  37.819  20.060   2.772
28475W        W93636  33.997   1.482  10.875
28476W        W93637  24.791  12.226  12.161
28477W        W93638  32.561   6.352   0.250
28478W        W93639  14.302  30.529  11.234
28479W        W93640  20.036  25.633   4.628
28480W        W93641  22.115  28.064   4.841
28481W        W93642  19.147  22.767   4.567
28482W        W93643  19.012  20.697  12.990
28483W        W93644  42.381  42.444  10.700
28484W        W93645   3.984   7.375  10.088
28485W        W93646  23.801  40.532   2.633
28486W        W93647  39.158  15.631   1.719
28487W        W93648  38.324  29.431  11.594
28488W        W93649  15.631   5.794  10.945
28489W        W93650  39.584   8.192  12.138
28490W        W93651  22.677  25.190  11.135
28491W        W93652  39.342  43.518  14.766
28492W        W93653  12.842   1.605   4.122
28493W        W93654  12.872   2.581   1.007
28494W        W93655  16.375  23.877  14.036
28495W        W93656   3.357   9.273  11.849
28496W        W93657  21.543  11.814   1.844
28497W        W93658   2.549  28.916   1.682
28498W        W93659  12.286  29.685  14.738
28499W        W93660  42.530  14.304  13.431
28500W        W93661  44.493  39.553  10.487
28501W        W93662   2.596  36.454  14.720
28502W        W93663  28.102  18.565   3.255
28503W        W93664   6.352  30.798   9.882
28504W        W93665  29.128   8.816  14.341
28505W        W93666  31.615  20.367  14.991
28506W        W93667  10.840  19.476  13.429
28507W        W93668  25.270  39.310   3.336
28508W        W93669  41.455  24.057  13.569
28509W        W93670  31.402  28.363  12.047
28510W        W93671  17.341  38.817  11.259
28511W        W93672  28.149  28.595  10.729
28512W        W93673  24.610   2.983  13.489
28513W        W93674  29.110   8.802  14.869
28514W        W93675  27.613  37.902  13.119
28515W        W93676  43.807   9.793  12.920
28516W        W93677  15.292  23.528   4.168
28517W        W93678  26.070  41.867  13.939
28518W        W93679  26.522   1.610   3.627
28519W        W93680   3.921  22.570   4.333
28520W        W93681  39.301  42.615   3.672
28521W        W93682  42.835  30.922   1.399
28522W        W93683   4.864  10.402  10.147
28523W        W93684  27.264  41.257   2.447
28524W        W93685  10.278  44.453  13.871
28525W        W93686  35.955   8.306  13.759
28526W        W93687  42.744  43.937   3.194
28527W        W93688  20.832  21.332  14.764
28528W        W93689  22.183  29.513   1.336
28529W        W93690  43.401  20.760   0.307
28530W        W93691  24.785  27.883  10.673
28531W        W93692  18.608  25.858  11.219
28532W        W93693  41.521  18.252   4.905
28533W        W93694  25.642  10.105   0.463
28534W        W93695   6.018   8.788   1.033
28535W        W93696  35.148   8.410   1.861
28536W        W93697  33.338  20.970  14.497
28537W        W93698   8.227  23.331   4.189
28538W        W93699  36.333  32.941  12.457
28539W        W93700  34.843  11.826   5.089
28540W        W93701  21.996   7.454  13.300
28541W        W93702  11.597   2.986  14.297
28542W        W93703  10.031  33.409  13.865
28543W        W93704  43.384  17.666  12.900
28544W        W93705  17.108  44.389  12.485
28545W        W93706   0.669   4.047  10.933
28546W        W93707  30.659  15.087  10.685
28547W        W93708   2.358   7.648  10.506
28548W        W93709  34.448   8.927  13.996
28549W        W93710  33.443   3.686   2.410
28550W        W93711  15.190  21.575  13.087
28551W        W93712  42.662  38.059  14.648
28552W        W93713  23.022  12.341  13.527
28553W        W93714  33.034  37.927  14.535
28554W        W93715  13.089  27.420  12.111
28555W        W93716  12.755  34.601  13.554
28556W        W93717  35.355   0.048   4.111
28557W        W93718  20.700  39.365  10.835
28558W        W93719  42.092   0.739  12.409
28559W        W93720  40.062   9.300   0.538
28560W        W93721  35.346  28.602  10.531
28561W        W93722  29.180  31.077   4.713
28562W        W93723   6.585  39.023  13.896
28563W        W93724  15.359   6.834   1.931
28564W        W93725  22.645  16.882   1.437
28565W        W93726  17.972   5.661  11.997
28566W        W93727  16.014  12.304   2.162
28567W        W93728  13.211   5.691   4.084
28568W        W93729   0.458   2.696   2.865
28569W        W93730   2.190  16.278  12.963
28570W        W93731  38.622   6.693  14.489
28571W        W93732  39.584  29.914   4.133
28572W        W93733  32.869  27.203  14.392
28573W        W93734  21.166  19.022  12.861
28574W        W93735   9.890   1.700  14.787
28575W        W93736  32.399   8.524   2.889
28576W        W93737  11.715   3.482  14.255
28577W        W93738  12.697  37.842   3.293
28578W        W93739  37.329  30.267   3.746
28579W        W93740  28.963  31.835  14.546
28580W        W93741  24.086  21.676   1.005
28581W        W93742   5.200  34.628  13.972
28582W        W93743  14.267  40.448  10.631
28583W        W93744   7.890  43.003  11.974
28584W        W93745  42.096  43.431   0.298
28585W        W93746  17.708   7.626  11.208
28586W        W93747  14.753  13.749   4.069
28587W        W93748  22.463  34.210  11.983
28588W        W93749  25.070  38.548   0.090
28589W        W93750  25.594  24.913   0.692
28590W        W93751   2.941   1.222   4.129
28591W        W93752  15.759   7.319   2.719
28592W        W93753   7.700  26.109  10.163
28593W        W93754  43.136  33.184   3.220
28594W        W93755  17.798   0.105  13.137
28595W        W93756  16.218  33.715  13.541
28596W        W93757   5.852   0.765   3.678
28597W        W93758  28.244  14.915  11.123
28598W        W93759  17.262   3.421   0.459
28599W        W93760  16.630  30.360   4.211
28600W        W93761  24.598   8.371   2.620
28601W        W93762   5.815  26.545  12.954
28602W        W93763  28.007  24.751  13.005
28603W        W93764  22.751  43.027  13.946
28604W        W93765  22.794   9.109   0.751
28605W        W93766  19.832  24.415  12.891
28606W        W93767  40.188  41.637  11.497
28607W        W93768  23.676  12.835   4.699
28608W        W93769  43.366  19.966  14.882
28609W        W93770  23.745  38.449  14.696
28610W        W93771  18.620  18.254  11.563
28611W        W93772  19.986  30.022   3.275
28612W        W93773  39.662  19.567   2.984
28613W        W93774  10.802  42.778   0.734
28614W        W93775  10.226  16.157  10.968
28615W        W93776  12.820  24.199  11.087
28616W        W93777   0.365  42.601  11.777
28617W        W93778  17.828  42.541   1.342
28618W        W93779  35.349   0.895   4.481
28619W        W93780  32.445  22.066   4.586
28620W        W93781  12.233  44.214  11.924
28621W        W93782  26.470  43.844   4.826
28622W        W93783  13.649  42.787   0.031
28623W        W93784  36.932  14.316   4.121
28624W        W93785  35.385  38.360   3.106
28625W        W93786  44.932   9.593   2.874
28626W        W93787  19.717  23.872  10.233
28627W        W93788  12.913  27.147   3.211
28628W        W93789   5.186   2.418   2.825
28629W        W93790  38.405  25.686  11.176
28630W        W93791   2.689  19.740  12.369
28631W        W93792  38.362   8.945  12.114
28632W        W93793  30.922  22.225  12.161
28633W        W93794  36.002  16.112   4.848
28634W        W93795  44.742  32.581  12.851
28635W        W93796  13.813   1.221   3.508
28636W        W93797   1.447   2.844  13.829
28637W        W93798  30.091  22.435  12.099
28638W        W93799  33.581  21.218  10.692
28639W        W93800  14.750  32.491  13.264
28640W        W93801  15.252  30.880   1.838
28641W        W93802  42.408  17.306   1.468
28642W        W93803  28.611   2.427   4.482
28643W        W93804  32.759  26.402  11.999
28644W        W93805  25.462  41.108  12.920
28645W        W93806  10.770   7.024   1.386
28646W        W93807  25.508  40.478   3.235
28647W        W93808  40.801  19.602  12.005
28648W        W93809  36.813  34.064  11.765
28649W        W93810  43.571  43.587   0.395
28650W        W93811   4.446  33.791  10.703
28651W        W93812  18.609  44.748   1.370
28652W        W93813  14.158  24.594  13.333
28653W        W93814  41.248  36.101  11.229
28654W        W93815  44.886   3.970  11.568
28655W        W93816  43.281  29.592   0.167
28656W        W93817   2.766  36.429   0.220
28657W        W93818   4.686  40.558   1.306
28658W        W93819  18.638   7.772  14.560
28659W        W93820  31.926  24.673   4.453
28660W        W93821  15.392  23.785  10.917
28661W        W93822  32.633  42.811   0.057
28662W        W93823  10.292  41.720  10.741
28663W        W93824   2.378  31.203   4.541
28664W        W93825  29.449   0.402  11.657
28665W        W93826  12.317  39.342  11.124
28666W        W93827  41.970  34.995   3.254
28667W        W93828   7.764   5.015  10.416
28668W        W93829  32.165  38.811  12.770
28669W        W93830  37.804  42.457   3.492
28670W        W93831  23.153  40.315  13.991
28671W        W93832  21.814   4.340   2.559
28672W        W93833   7.741   7.559  12.972
28673W        W93834  15.550   0.213   1.370
28674W        W93835  38.337  35.421   4.128
28675W        W93836  33.831   7.260   1.233
28676W        W93837   3.399  25.702   3.193
28677W        W93838  15.076   2.207  10.500
28678W        W93839  35.128   6.693  13.490
28679W        W93840  14.546  37.493  13.849
28680W        W93841  29.139  10.407   3.261
28681W        W93842  41.128  10.811   4.008
28682W        W93843  16.640  40.380  14.698
28683W        W93844  20.542  38.803  13.907
28684W        W93845  16.830   5.178  11.866
28685W        W93846   0.741  34.571   1.355
28686W        W93847  14.737  22.671  11.241
28687W        W93848  35.290  28.021  11.840
28688W        W93849  16.948  20.749  10.752
28689W        W93850  22.623  15.779   2.178
28690W        W93851  16.834  29.072   3.315
28691W        W93852  26.583  33.853  11.766
28692W        W93853   0.869  12.217  14.228
28693W        W93854   4.238  22.538  11.417
28694W        W93855  13.092  26.784  11.442
28695W        W93856  31.411   3.690  12.536
28696W        W93857  17.813  41.551  12.526
28697W        W93858   1.929  35.006  14.403
28698W        W93859   7.830  33.665  12.319
28699W        W93860   1.382   4.689  13.999
28700W        W93861  33.624  20.969   0.943
28701W        W93862  22.470  22.934  13.811
28702W        W93863  15.518  26.356  12.711
28703W        W93864  32.930  13.882  12.494
28704W        W93865  17.156  38.172  14.347
28705W        W93866  44.449  19.975  12.356
28706W        W93867  15.275   0.337   4.158
28707W        W93868  44.822  26.783  12.437
28708W        W93869   8.255  30.465  12.475
28709W        W93870  26.916  44.123  12.952
28710W        W93871   6.978  43.361   0.813
28711W        W93872  21.111   1.174   1.192
28712W        W93873  30.678  22.893   4.040
28713W        W93874  31.387   0.920   4.275
28714W        W93875  37.932  35.160  14.472
28715W        W93876   4.815  36.613   0.458
28716W        W93877  28.018  25.156  13.481
28717W        W93878  16.624  15.682  12.921
28718W        W93879  14.918  29.009   9.983
28719W        W93880  35.625  39.854  11.599
28720W        W93881  14.196  38.884   2.887
28721W        W93882  20.622  33.620  12.156
28722W        W93883   0.516   7.496   0.524
28723W        W93884   0.492   0.438  13.710
28724W        W93885  12.750  44.921  13.583
28725W        W93886  36.011   6.507   1.312
28726W        W93887  27.929  13.147   4.478
28727W        W93888  42.949  32.440  13.878
28728W        W93889  24.175  26.888  14.013
28729W        W93890   7.355  27.232   3.076
28730W        W93891  12.275  34.186   3.149
28731W        W93892  21.930  14.887  10.875
28732W        W93893  14.032  12.290  12.116
28733W        W93894  20.306  33.125  12.576
28734W        W93895   3.257   7.257   2.663
28735W        W93896  44.398   7.356  13.376
28736W        W93897  24.012   1.037   2.613
28737W        W93898  25.448  42.489  14.355
28738W        W93899  35.603  19.609   0.281
28739W        W93900   5.855  26.855  14.338
28740W        W93901   9.539  28.137  11.551
28741W        W93902   5.657  33.602   3.253
28742W        W93903   1.021   0.976   0.005
28743W        W93904  41.018  24.474   3.393
28744W        W93905  14.789  43.428  14.825
28745W        W93906  16.632  35.056  11.451
28746W        W93907  22.023  20.008   3.198
28747W        W93908  35.822  36.522   3.250
28748W        W93909  41.690  14.083  11.564
28749W        W93910  26.257  12.284   2.839
28750W        W93911  40.823  10.727  14.264
28751W        W93912   0.785  23.712   2.803
28752W        W93913   1.765   2.516  11.191
28753W        W93914  36.009  34.912   1.830
28754W        W93915  20.133  40.992   4.132
28755W        W93916   1.373  25.041  10.714
28756W        W93917  13.324   4.294   0.461
28757W        W93918   5.111  33.177  11.929
28758W        W93919  24.934  38.015   3.147
28759W        W93920  23.804  36.074   0.840
28760W        W93921  25.016  19.458   1.743
28761W        W93922  43.734  24.935   0.427
28762W        W93923  28.702  38.578   2.019
28763W        W93924  40.807  33.505  13.893
28764W        W93925  33.869  17.025   2.736
28765W        W93926  42.422  40.040  14.562
28766W        W93927  40.936  33.826   4.532
28767W        W93928   6.306  29.068   4.513
28768W        W93929   5.716  44.410   1.435
28769W        W93930  41.906   6.172   1.948
28770W        W93931  24.604  22.420  12.488
28771W        W93932  19.588  18.314  12.442
28772W        W93933  42.978  15.728  13.961
28773W        W93934  19.132  30.931  12.005
28774W        W93935  33.116  17.406   1.110
28775W        W93936   6.318  20.037   3.564
28776W        W93937  19.903   3.828  12.164
28777W        W93938  31.726  16.909  13.531
28778W        W93939  12.774  13.606   0.342
28779W        W93940   4.065  27.573  13.006
28780W        W93941   5.790   7.089  12.925
28781W        W93942  24.309   5.149   1.180
28782W        W93943  34.503  44.328  13.873
28783W        W93944  39.243   5.831   0.556
28784W        W93945  43.919  29.649  10.692
28785W        W93946   7.258  23.332   4.244
28786W        W93947  37.477  16.544  13.399
28787W        W93948  21.603   6.885  14.989
28788W        W93949  36.918  23.477   4.149
28789W        W93950  17.220  14.858  12.318
28790W        W93951  42.683   9.854   1.753
28791W        W93952  19.164  17.836   2.815
28792W        W93953  24.423   7.705  11.266
28793W        W93954  16.870  43.553   1.467
28794W        W93955  24.919  36.492   2.187
28795W        W93956  15.338  32.732  14.893
28796W        W93957   4.213  32.038  11.554
28797W        W93958  16.123  11.108  13.433
28798W        W93959  29.585  15.589  13.983
28799W        W93960  20.136  25.464   0.721
28800W        W93961   4.097  21.535  12.000
28801W        W93962  33.700  37.767   9.818
28802W        W93963  37.744   0.763  11.326
28803W        W93964  35.025   9.235   3.949
28804W        W93965  28.505  41.933  13.635
28805W        W93966  10.083   0.888   2.547
28806W        W93967  28.360  17.690  12.647
28807W        W93968  32.856  34.880   5.000
28808W        W93969   8.151  35.593  12.473
28809W        W93970   1.063   3.730   4.228
28810W        W93971  16.709   8.715   5.027
28811W        W93972  21.343  32.389  11.654
28812W        W93973  15.577  17.099  10.737
28813W        W93974  41.562  10.569   4.142
28814W        W93975  29.368  41.034  11.503
28815W        W93976   9.682  40.816   0.460
28816W        W93977   5.895   6.326   1.309
28817W        W93978   9.565  34.472   0.431
28818W        W93979  37.095  21.230  10.334
28819W        W93980  44.753  10.458   1.384
28820W        W93981  23.949  36.451   3.804
28821W        W93982  10.750   2.020   4.573
28822W        W93983  34.407  25.240   0.990
28823W        W93984  34.075  33.363   4.073
28824W        W93985  31.480  35.856  13.945
28825W        W93986  31.170  16.005   4.035
28826W        W93987  10.890   8.786   5.108
28827W        W93988  13.239  40.070   1.451
28828W        W93989  40.451  33.872  13.844
28829W        W93990  17.678  24.554  12.027
28830W        W93991  26.558  35.554  10.696
28831W        W93992  11.523   1.674   2.393
28832W        W93993  13.409   3.076   1.330
28833W        W93994  14.099  21.103  13.334
28834W        W93995  38.825  38.044   0.885
28835W        W93996  13.670  36.335   1.999
28836W        W93997   0.245   3.655  12.963
28837W        W93998  13.875  32.150  10.308
28838W        W93999  19.731  29.295   2.934
28839W        W94000  32.170  28.157   2.365
28840W        W94001   3.675  27.686  14.479
28841W        W94002  38.021  22.572   0.290
28842W        W94003  42.513  42.919  11.495
28843W        W94004  36.368  44.821   4.075
28844W        W94005  37.028  29.471  14.553
28845W        W94006  25.213  44.364  14.723
28846W        W94007  14.334  25.526   4.314
28847W        W94008   5.437  29.645   3.728
28848W        W94009  43.491  12.885   5.486
28849W        W94010   7.519  33.422   4.476
28850W        W94011  42.908   3.112  12.042
28851W        W94012   9.305  32.970   1.074
28852W        W94013  15.909   4.687   0.956
28853W        W94014   6.437  33.091   2.266
28854W        W94015  22.040  16.756   0.768
28855W        W94016  15.805  30.479  12.457
28856W        W94017  27.744   7.811  13.302
28857W        W94018   7.333  24.574   2.775
28858W        W94019  36.779  12.420  10.356
28859W        W94020  31.494  19.465   2.172
28860W        W94021  38.926  35.820   0.253
28861W        W94022  21.524   2.242   1.789
28862W        W94023  38.942  37.275   0.497
28863W        W94024  37.350  21.079  13.943
28864W        W94025  28.584  29.030   0.823
28865W        W94026  28.433  13.614   3.076
28866W        W94027  12.631   5.323  10.442
28867W        W94028  44.183  19.676   3.706
28868W        W94029  11.578  34.171   2.373
28869W        W94030  24.120  15.319   2.376
28870W        W94031  13.230   2.422  13.935
28871W        W94032  12.398  17.715   2.463
28872W        W94033   3.501  32.938   1.361
28873W        W94034  32.871  16.154  10.507
28874W        W94035  12.220  41.550  13.931
28875W        W94036   4.391  16.694  13.267
28876W        W94037  29.579  23.464  14.379
28877W        W94038  26.249  39.562  11.141
28878W        W94039   1.290   8.146   0.567
28879W        W94040   0.738  43.326   1.624
28880W        W94041   5.959  44.369  14.831
28881W        W94042  31.629   0.558  14.962
28882W        W94043  32.840  32.063   0.278
28883W        W94044  22.873  14.475  11.031
28884W        W94045  37.051   3.172  12.421
28885W        W94046  21.633  31.400   2.801
28886W        W94047  10.726  36.063   0.921
28887W        W94048  29.418   6.384  13.946
28888W        W94049  12.124   8.718   4.785
28889W        W94050  39.985  43.893  10.317
28890W        W94051   3.485  26.093  13.598
28891W        W94052  24.120   0.819  10.320
28892W        W94053  18.841  44.949   2.179
28893W        W94054   9.105  23.193  11.960
28894W        W94055  43.518   4.379  13.905
28895W        W94056  27.023  27.502   4.745
28896W        W94057  37.581  39.361   1.889
28897W        W94058   3.334  24.881  13.435
28898W        W94059  40.664  35.298  10.463
28899W        W94060  25.464  15.034   0.980
28900W        W94061  36.858  26.750  11.390
28901W        W94062   1.489  11.154   2.116
28902W        W94063  12.019  33.905  11.144
28903W        W94064  25.497   1.344  10.315
28904W        W94065  18.048   6.068   0.450
28905W        W94066   9.184  29.146  11.224
28906W        W94067  26.038  35.455   3.355
28907W        W94068  24.684  10.567  12.208
28908W        W94069  19.562  40.692  12.619
28909W        W94070   0.147  24.600   4.609
28910W        W94071  40.419  35.515  10.844
28911W        W94072  31.414  28.200  10.922
28912W        W94073  18.358  34.325   4.640
28913W        W94074  17.274   0.924   1.430
28914W        W94075  34.803  40.613  13.334
28915W        W94076   9.376   5.309  14.364
28916W        W94077  18.114   8.762   3.230
28917W        W94078  18.627   4.033  13.791
28918W        W94079  33.845  23.049  12.557
28919W        W94080  36.389   2.884   1.760
28920W        W94081   6.473  16.260  10.246
28921W        W94082  22.061  30.625   3.740
28922W        W94083  29.959   9.248  13.557
28923W        W94084  23.902  23.426  12.647
28924W        W94085   1.310   2.953  12.070
28925W        W94086  33.652  35.095   4.226
28926W        W94087   3.315  37.786   0.971
28927W        W94088   2.949  37.018  13.934
28928W        W94089   8.446  22.006   2.270
28929W        W94090  14.722  16.113   1.887
28930W        W94091  19.513  19.246  11.525
28931W        W94092  16.547  29.010  14.183
28932W        W94093  13.701  18.085  13.918
28933W        W94094   1.942  15.830  12.599
28934W        W94095  42.700   4.331  14.345
28935W        W94096   0.967  11.924  12.580
28936W        W94097  35.721  28.070  12.110
28937W        W94098  32.936  29.185   2.809
28938W        W94099  28.407  19.754   3.647
28939W        W94100   4.310  13.541  12.481
28940W        W94101  36.956   8.124   3.095
28941W        W94102  37.977  13.167   4.522
28942W        W94103  27.136   6.900   4.161
28943W        W94104  35.898  32.410   2.751
28944W        W94105  44.386  36.887   4.425
28945W        W94106  29.498  29.652   5.124
28946W        W94107   0.849   5.652   3.634
28947W        W94108  21.823  24.984  13.005
28948W        W94109  30.859  17.922  11.124
28949W        W94110  37.484  18.221  10.988
28950W        W94111   1.862  36.623   3.188
28951W        W94112  32.012  17.871  13.531
28952W        W94113   7.565  22.691  12.827
28953W        W94114  11.317  29.980  14.077
28954W        W94115  17.505  28.333  11.918
28955W        W94116   1.882   2.236   2.819
28956W        W94117   0.325  38.616  14.575
28957W        W94118   4.726  41.337  12.448
28958W        W94119  20.779  28.375   3.570
28959W        W94120   8.154  15.858  14.909
28960W        W94121   3.785  22.323   0.947
28961W        W94122  13.214  44.993   4.045
28962W        W94123  16.131  31.162  12.103
28963W        W94124  20.551   6.720   4.201
28964W        W94125   7.705  39.189  14.552
28965W        W94126  43.735   9.176  11.618
28966W        W94127  20.076  15.995  13.813
28967W        W94128  40.841  11.259   3.309
28968W        W94129   4.677   2.232   1.685
28969W        W94130  35.852   2.935   1.923
28970W        W94131  22.436  44.959   1.766
28971W        W94132   1.531  38.168  12.152
28972W        W94133  28.619  16.112  13.711
28973W        W94134  30.160  33.694  13.410
28974W        W94135  29.902   2.410   2.180
28975W        W94136  25.822  44.245  12.065
28976W        W94137  36.362  21.643  14.729
28977W        W94138   5.312  18.261  13.977
28978W        W94139  10.647  36.370   2.302
28979W        W94140  10.355  28.616  12.487
28980W        W94141  14.669   7.894   2.638
28981W        W94142  14.134  26.378  12.996
28982W        W94143  32.570  30.395   3.468
28983W        W94144  23.367   4.581   1.894
28984W        W94145  28.665  12.770  11.145
28985W        W94146  30.119  11.129   2.759
28986W        W94147  16.962   1.912  10.818
28987W        W94148  20.189   9.461  12.393
28988W        W94149  36.036  19.998  12.024
28989W        W94150  10.139   1.918   4.550
28990W        W94151  23.459  30.952   1.717
28991W        W94152  16.363  14.220  14.278
28992W        W94153  39.035   4.934  13.242
28993W        W94154  15.041  44.222  10.265
28994W        W94155  15.262  44.292  14.843
28995W        W94156   7.685  30.828  11.409
28996W        W94157  32.956  22.533  12.589
28997W        W94158  15.625  37.916   4.623
28998W        W94159  15.301  13.133   0.931
28999W        W94160  18.709  39.395   2.854
29000W        W94161  24.806   2.352   1.378
29001W        W94162  23.644  22.718  14.499
29002W        W94163  37.102  13.442  11.620
29003W        W94164   5.417  33.060   2.177
29004W        W94165  17.854  44.287   3.718
29005W        W94166   7.384  15.356  14.622
29006W        W94167   2.831   9.239   2.782
29007W        W94168   7.266   5.548   3.715
29008W        W94169  28.453   6.314   1.579
29009W        W94170  12.948  16.073   2.849
29010W        W94171  23.623  13.944  14.481
29011W        W94172  42.535   0.930   0.554
29012W        W94173  16.602  28.781  11.981
29013W        W94174  33.051  35.142   1.949
29014W        W94175  44.288  21.527   3.712
29015W        W94176   1.464  42.331  14.029
29016W        W94177  40.460  16.247  14.321
29017W        W94178  23.604  34.362   2.245
29018W        W94179   4.350  34.098   0.207
29019W        W94180  23.922  34.526  13.452
29020W        W94181  13.231   5.611   2.088
29021W        W94182  34.418  11.918   3.782
29022W        W94183  26.493  16.570  11.527
29023W        W94184  15.538  11.050  12.977
29024W        W94185  13.836   9.885   3.252
29025W        W94186   7.959  18.856  11.066
29026W        W94187  32.546  14.184  13.850
29027W        W94188  35.406   7.200  13.969
29028W        W94189  34.252  44.684  10.655
29029W        W94190  41.053  41.365  11.971
29030W        W94191  38.150  26.803   1.521
29031W        W94192   1.357  17.313   1.764
29032W        W94193  27.482  28.040  11.033
29033W        W94194  32.481  26.948  12.115
29034W        W94195  24.528  27.466  12.169
29035W        W94196  22.150  33.805  12.524
29036W        W94197  37.051  37.303   4.594
29037W        W94198   6.449   7.858  12.230
29038W        W94199  35.097  39.076  12.455
29039W        W94200  11.672  23.985  10.466
29040W        W94201  44.811  28.238  11.085
29041W        W94202  40.646  15.635  14.961
29042W        W94203  14.627  10.440   1.240
29043W        W94204  17.719   6.522   1.033
29044W        W94205  39.662  33.140   1.191
29045W        W94206   0.413   9.748   2.615
29046W        W94207  37.377  34.569  11.167
29047W        W94208  21.755  28.660  13.975
29048W        W94209  17.903  16.107  12.902
29049W        W94210  11.027   1.417  11.141
29050W        W94211  21.648  23.975   0.258
29051W        W94212   3.572  37.700   0.471
29052W        W94213  43.625  25.210   1.857
29053W        W94214  26.452  29.413   4.331
29054W        W94215  32.246  29.424   4.584
29055W        W94216  10.369  17.516   0.346
29056W        W94217  32.494  15.353   1.634
29057W        W94218  36.153   5.821  13.507
29058W        W94219  20.131  36.487  12.310
29059W        W94220  36.518  35.126  13.480
29060W        W94221  23.488  44.309   0.347
29061W        W94222  43.523  39.496   2.354
29062W        W94223  41.790   4.762  12.029
29063W        W94224  44.865   7.844  14.818
29064W        W94225  31.524  17.222  12.663
29065W        W94226  36.316  19.071   1.573
29066W        W94227  29.779  35.495   3.828
29067W        W94228  29.273  35.556   4.012
29068W        W94229  25.210   6.965   2.763
29069W        W94230  22.759  23.520  11.730
29070W        W94231   8.573  39.398   0.914
29071W        W94232  44.296  26.812   0.861
29072W        W94233  31.607   4.423   2.276
29073W        W94234  31.562  30.890   0.968
29074W        W94235  43.455  39.016  12.542
29075W        W94236   6.780  39.974  12.830
29076W        W94237  41.025  19.674   4.684
29077W        W94238  38.342  43.270  14.908
29078W        W94239  14.689   8.945   1.776
29079W        W94240  11.816  38.861   0.830
29080W        W94241  39.541   9.597  14.347
29081W        W94242   6.893  44.212  14.717
29082W        W94243   2.866  43.586  11.175
29083W        W94244  22.579   3.738   4.100
29084W        W94245  34.552  43.787   4.465
29085W        W94246  21.509   0.262   1.855
29086W        W94247   7.529  23.213   3.805
29087W        W94248   5.421  35.899   1.726
29088W        W94249  12.128  40.094  11.437
29089W        W94250   1.282   8.900   3.709
29090W        W94251  22.679  37.156   3.394
29091W        W94252   3.324  17.774   1.932
29092W        W94253   8.207  24.586   4.681
29093W        W94254  28.138   6.602  13.692
29094W        W94255  20.951  17.335   5.152
29095W        W94256   0.771  18.502   4.160
29096W        W94257  18.611  33.597  10.768
29097W        W94258   5.269  34.966  14.347
29098W        W94259  20.266  31.694  10.629
29099W        W94260  17.179  10.598  10.470
29100W        W94261  15.553   4.762  12.006
29101W        W94262  36.124  29.553   2.364
29102W        W94263   6.185   9.301   2.376
29103W        W94264  22.301  13.563   1.063
29104W        W94265  23.662  38.544  12.586
29105W        W94266   9.753  34.876  14.041
29106W        W94267  25.872  12.923   2.307
29107W        W94268   2.857   3.445   2.432
29108W        W94269  34.631   2.634  13.449
29109W        W94270  43.695  21.769   1.280
29110W        W94271   3.230  10.918   1.548
29111W        W94272  33.090   2.248  14.956
29112W        W94273  17.790  44.372   2.770
29113W        W94274   2.297  19.275  11.901
29114W        W94275  37.025   2.435   4.377
29115W        W94276  22.617   5.327   1.896
29116W        W94277  31.915  36.157   4.569
29117W        W94278  33.998  17.380  14.062
29118W        W94279  38.730   2.416   3.153
29119W        W94280  38.500  42.215  14.354
29120W        W94281  15.529  29.659  11.264
29121W        W94282  25.899  14.353  13.490
29122W        W94283  44.425  31.540  10.790
29123W        W94284  17.245  10.131   1.969
29124W        W94285   2.194  18.342  12.030
29125W        W94286  41.724  15.558   1.228
29126W        W94287  14.765  38.370  14.402
29127W        W94288  25.001  13.800  12.087
29128W        W94289  14.965  41.566  12.892
29129W        W94290  41.482  24.069  11.763
29130W        W94291  27.037  34.879   0.361
29131W        W94292  23.757   2.305   2.627
29132W        W94293  18.321  20.730   3.216
29133W        W94294  23.029  18.704   1.780
29134W        W94295  24.180  30.904   3.846
29135W        W94296  30.025  10.563   4.714
29136W        W94297  30.950  30.962  11.334
29137W        W94298  22.647  19.553   4.615
29138W        W94299  20.290  31.627   4.682
29139W        W94300  23.820  28.347  12.943
29140W        W94301  25.848  44.650  11.717
29141W        W94302  27.686  42.013  10.718
29142W        W94303  13.491  34.640   3.236
29143W        W94304  24.927  26.480  13.543
29144W        W94305   5.878  12.708   3.223
29145W        W94306  42.348  35.124   2.887
29146W        W94307  11.305  32.916   2.764
29147W        W94308  43.811  13.617   1.973
29148W        W94309  38.100  28.146  11.716
29149W        W94310  42.624  18.602   2.228
29150W        W94311  38.695   3.830  13.365
29151W        W94312  41.820  21.286   5.023
29152W        W94313  12.167   0.872   2.751
29153W        W94314  27.071  36.759   3.904
29154W        W94315  38.565   4.846  12.965
29155W        W94316   4.206  12.107   1.382
29156W        W94317  14.850  15.280   4.114
29157W        W94318  16.248  44.292   2.721
29158W        W94319  41.687  15.800  14.283
29159W        W94320   9.593  28.220  12.501
29160W        W94321  38.010  42.301  12.267
29161W        W94322   2.720  44.082  11.122
29162W        W94323  13.455  39.594  14.855
29163W        W94324  33.363   5.770   2.743
29164W        W94325  31.112  31.490  11.527
29165W        W94326  25.710  33.575  12.694
29166W        W94327  29.952  34.256   0.999
29167W        W94328  28.367  15.172  14.051
29168W        W94329  41.971  41.908   2.808
29169W        W94330  18.646  35.191   3.438
29170W        W94331  11.811   1.776  14.243
29171W        W94332   3.841   3.890  10.597
29172W        W94333  21.764  36.582  11.615
29173W        W94334  43.830  44.652   3.361
29174W        W94335  37.881  28.601  14.612
29175W        W94336  15.237  16.069   1.322
29176W        W94337  30.999  40.011  12.462
29177W        W94338  33.879  32.566  11.962
29178W        W94339   1.941  33.349  14.060
29179W        W94340  20.516  13.287  14.904
29180W        W94341  22.497  29.977  10.734
29181W        W94342  32.624  30.722  13.806
29182W        W94343   6.950  41.763  10.586
29183W        W94344  41.117   2.001   3.137
29184W        W94345  15.785  38.694  14.288
29185W        W94346  39.863  28.424  10.715
29186W        W94347  23.501  12.215  12.608
29187W        W94348   6.793  22.011  12.506
29188W        W94349  24.507  15.482  13.467
29189W        W94350  30.258   4.203  13.339
29190W        W94351  10.209  36.740   1.001
29191W        W94352  18.735   3.214   4.604
29192W        W94353  39.948  42.133  14.855
29193W        W94354  37.592   0.026  13.496
29194W        W94355  29.632  30.548  12.250
29195W        W94356  36.136  38.123   2.291
29196W        W94357  41.270  10.910  11.610
29197W        W94358  30.325  41.282  13.120
29198W        W94359  12.312  23.057   4.517
29199W        W94360  43.195   1.550   2.593
29200W        W94361  20.731  29.643   3.714
29201W        W94362  19.164  18.133   0.866
29202W        W94363  36.494  35.016   1.441
29203W        W94364  25.544  31.013  10.706
29204W        W94365  24.686  30.572  13.976
29205W        W94366  42.019   6.037   3.215
29206W        W94367  32.290  24.163   3.650
29207W        W94368  17.008   8.746   2.127
29208W        W94369  31.062   0.328  11.258
29209W        W94370  15.615  31.124  12.134
29210W        W94371  39.002  44.417  12.035
29211W        W94372  20.781  26.983  13.439
29212W        W94373  12.590  21.066  11.150
29213W        W94374  43.083  33.120   0.792
29214W        W94375  16.979  34.996   0.003
29215W        W94376   1.129   6.775  11.460
29216W        W94377  20.747  22.951   2.327
29217W        W94378  30.827  12.292   3.729
29218W        W94379  30.595  44.537   2.189
29219W        W94380  28.412   0.557   2.690
29220W        W94381   4.064  27.873  11.176
29221W        W94382  36.363  19.613   0.772
29222W        W94383  16.709  36.599   4.124
29223W        W94384  40.522  33.578   1.491
29224W        W94385  44.010  15.524   3.252
29225W        W94386  38.232  19.195   4.400
29226W        W94387  15.312  29.072  13.488
29227W        W94388   7.296  33.003  10.683
29228W        W94389  31.613   8.002  10.827
29229W        W94390  16.230  41.961  12.594
29230W        W94391   6.013  35.032   1.503
29231W        W94392  38.512  28.343   1.264
29232W        W94393  32.677  44.587  10.158
29233W        W94394  36.541  41.565   2.343
29234W        W94395  43.709  15.886  13.270
29235W        W94396  42.357  27.454   4.128
29236W        W94397  14.306  42.221  12.518
29237W        W94398  22.593   1.465  10.009
29238W        W94399  24.933  44.802  14.431
29239W        W94400   9.611   1.448  11.664
29240W        W94401  18.032   1.704   3.183
29241W        W94402  21.831   4.862   2.458
29242W        W94403  36.826  10.235  10.554
29243W        W94404  44.511  14.406   3.680
29244W        W94405  34.261  22.438  12.306
29245W        W94406  43.783  36.050  11.896
29246W        W94407  37.542  19.762  12.956
29247W        W94408  44.532  38.352  12.054
29248W        W94409  37.331  19.351  14.979
29249W        W94410   9.075   4.848  10.645
29250W        W94411  33.596  35.034  11.145
29251W        W94412   3.398  29.482  14.432
29252W        W94413  14.301  22.795   4.718
29253W        W94414  19.310   7.995   3.616
29254W        W94415   2.041  33.553   1.862
29255W        W94416  33.639  35.875   0.318
29256W        W94417  19.030  18.528  13.604
29257W        W94418  25.462   3.336  11.611
29258W        W94419  34.488  43.272  12.037
29259W        W94420  17.110  28.895  11.877
29260W        W94421  42.456  43.276   4.599
29261W        W94422  15.290  37.120  13.569
29262W        W94423  21.715   7.241   2.651
29263W        W94424  44.220  14.782   3.957
29264W        W94425  27.942  18.486  10.131
29265W        W94426  23.520  32.977   0.287
29266W        W94427  40.021  24.834   1.736
29267W        W94428  37.444  41.797   0.997
29268W        W94429   5.808  10.266  13.130
29269W        W94430  23.089  19.040   2.209
29270W        W94431  28.216   3.305  14.837
29271W        W94432   5.172  33.506  11.492
29272W        W94433  13.721  21.095   0.237
29273W        W94434   6.679  41.126   2.882
29274W        W94435   0.908  39.548   3.319
29275W        W94436  40.388  10.639  14.558
29276W        W94437  32.590   3.453   4.752
29277W        W94438  43.053  19.142   3.811
29278W        W94439  29.547  16.211   4.959
29279W        W94440  31.359  15.332   0.448
29280W        W94441  24.356  19.058  11.838
29281W        W94442   3.813  43.380  11.150
29282W        W94443  31.084  13.746  13.863
29283W        W94444  37.834  14.608   2.282
29284W        W94445  25.040  17.246   2.308
29285W        W94446  19.006  17.015  14.316
29286W        W94447   5.843   7.460   2.823
29287W        W94448  24.637  11.846   1.976
29288W        W94449  37.362  40.093  14.188
29289W        W94450   5.204  43.810   1.704
29290W        W94451  14.757  36.090   0.673
29291W        W94452  29.488   2.771  11.281
29292W        W94453   8.640  20.279   3.764
29293W        W94454   6.601  30.195  12.700
29294W        W94455  31.159  33.731  14.348
29295W        W94456  18.214  19.792  14.796
29296W        W94457  26.794  44.491   9.920
29297W        W94458  33.774  32.597   1.142
29298W        W94459   4.831  25.434  12.036
29299W        W94460  25.996  27.514   3.653
29300W        W94461  29.722  26.507  13.071
29301W        W94462  29.868  15.588  12.561
29302W        W94463  33.102  17.605  13.394
29303W        W94464  26.208  23.207  14.500
29304W        W94465  40.337   4.299  13.746
29305W        W94466  42.066  23.636   3.138
29306W        W94467  17.687  11.160  13.513
29307W        W94468  22.851  40.409  11.855
29308W        W94469  11.519  29.921  11.985
29309W        W94470  21.249  37.434  11.742
29310W        W94471  28.445  24.194   5.221
29311W        W94472   7.287  21.083  11.123
29312W        W94473  10.002  24.069  13.283
29313W        W94474  18.503  24.305   3.713
29314W        W94475   2.751  30.298  14.080
29315W        W94476  42.709  31.666   4.103
29316W        W94477  35.087   3.390  10.250
29317W        W94478  24.101  20.518  11.868
29318W        W94479  14.459  36.608   4.747
29319W        W94480  18.175  34.847   2.348
29320W        W94481  20.903  27.675   4.230
29321W        W94482  38.389  20.020  10.641
29322W        W94483  14.222  16.805  13.823
29323W        W94484   1.176  27.622   0.168
29324W        W94485  41.940   3.777  12.276
29325W        W94486  37.525   0.252  12.648
29326W        W94487  19.825  39.047   0.975
29327W        W94488  26.079  36.357   0.512
29328W        W94489  25.986  42.108  13.495
29329W        W94490  16.330  30.324   3.699
29330W        W94491   8.529  32.078   2.384
29331W        W94492  28.067  32.357   1.753
29332W        W94493  34.082  11.318  13.433
29333W        W94494  32.655   1.428  12.481
29334W        W94495  25.764  24.031   4.522
29335W        W94496  24.028  37.791   3.429
29336W        W94497  37.079  35.690  12.434
29337W        W94498  40.462  24.276   2.812
29338W        W94499   0.937  33.044   3.868
29339W        W94500  16.336   5.295  11.531
29340W        W94501   1.245  22.252   1.976
29341W        W94502   8.694   0.402   1.912
29342W        W94503  22.732  42.676   1.896
29343W        W94504   2.228   3.216  12.832
29344W        W94505  34.227  44.345  11.102
29345W        W94506  32.567  17.174  14.045
29346W        W94507  23.030  11.723  14.894
29347W        W94508  25.913  24.883  13.480
29348W        W94509  34.522  13.688  13.805
29349W        W94510  16.080   6.137   3.289
29350W        W94511   9.704  37.398  13.761
29351W        W94512  38.782  19.813  11.117
29352W        W94513  37.656  27.428   4.477
29353W        W94514  28.300  32.074  14.793
29354W        W94515  16.584  42.355  12.918
29355W        W94516  44.975  30.123   1.465
29356W        W94517  41.645  36.110   0.675
29357W        W94518   0.795  32.510   3.786
29358W        W94519  39.441  19.792  12.325
29359W        W94520  36.548  16.978  11.199
29360W        W94521   0.380  33.679   0.254
29361W        W94522  24.619  43.366   4.778
29362W        W94523   6.348  26.587  13.103
29363W        W94524  41.791  13.785  13.715
29364W        W94525   6.773  28.466   3.431
29365W        W94526  36.249  31.844  10.317
29366W        W94527  32.012   4.128  13.281
29367W        W94528  28.383  32.034  13.016
29368W        W94529   0.683  30.010  11.478
29369W        W94530  18.134  33.833   4.738
29370W        W94531  11.778  24.618  12.637
29371W        W94532  38.559   6.376   0.823
29372W        W94533  26.331  15.672   4.970
29373W        W94534  40.014   5.737   3.810
29374W        W94535  28.819   5.667   0.391
29375W        W94536  42.090  44.827  11.667
29376W        W94537   1.714  41.898   3.823
29377W        W94538  11.899  37.333  11.527
29378W        W94539  44.028  20.587  11.411
29379W        W94540  30.690  18.980  13.615
29380W        W94541  13.739  21.986   4.626
29381W        W94542  15.600  22.849   2.292
29382W        W94543  27.058  18.161   4.222
29383W        W94544  42.294  28.119   3.162
29384W        W94545   7.418  16.787   0.805
29385W        W94546  21.506  26.238   2.313
29386W        W94547  30.622   4.238   4.065
29387W        W94548   4.696   9.153   3.200
29388W        W94549  33.602  24.933   3.659
29389W        W94550  28.893  20.605  10.772
29390W        W94551  43.872   3.689  13.050
29391W        W94552   3.884  28.610   3.293
29392W        W94553  14.291   0.008  11.448
29393W        W94554  43.693  30.384   1.456
29394W        W94555  44.897  29.553  10.778
29395W        W94556  39.113  15.794  12.008
29396W        W94557  38.270  22.297  11.969
29397W        W94558  31.685  14.653   2.451
29398W        W94559  36.047   0.404   0.121
29399W        W94560  19.471  17.034   0.282
29400W        W94561  32.924  44.346   1.269
29401W        W94562  39.139  12.601   5.162
29402W        W94563   3.673  11.714   0.084
29403W        W94564  20.166  25.566   1.759
29404W        W94565  35.395   1.736  10.673
29405W        W94566  34.527  14.272   4.915
29406W        W94567   6.517  30.545   1.023
29407W        W94568  22.594  33.189  14.915
29408W        W94569  42.279  22.493  12.496
29409W        W94570  25.708   2.774   2.643
29410W        W94571  27.983  25.339   1.582
29411W        W94572   2.433   2.308   0.852
29412W        W94573   3.725  33.872   1.263
29413W        W94574  30.389   6.724  12.191
29414W        W94575  27.998  37.837  14.359
29415W        W94576  44.802  28.523   2.441
29416W        W94577  39.437  25.053  10.765
29417W        W94578  28.699  44.991  12.921
29418W        W94579  20.010  18.571  13.044
29419W        W94580   7.968  26.895   1.347
29420W        W94581   8.258  22.232  14.176
29421W        W94582  10.275  31.097  13.358
29422W        W94583   5.722   6.983   4.197
29423W        W94584  25.186  13.891   1.243
29424W        W94585   5.518  35.266  11.035
29425W        W94586  44.834  32.004   4.293
29426W        W94587  38.064  27.704   1.958
29427W        W94588  29.951  26.613   4.623
29428W        W94589  10.336  10.254  13.380
29429W        W94590   5.864  15.852   1.601
29430W        W94591   9.752  36.432   3.611
29431W        W94592  21.875  41.142  11.055
29432W        W94593  19.600  20.110   4.949
29433W        W94594  15.263  35.098   3.312
29434W        W94595  12.264  44.392   0.354
29435W        W94596  11.101  35.027  12.491
29436W        W94597   1.948  16.326   0.448
29437W        W94598  17.270  39.833  11.478
29438W        W94599  33.940  41.833  13.079
29439W        W94600  18.336   6.969   0.310
29440W        W94601   3.566  44.867  10.183
29441W        W94602  34.914   7.581  13.589
29442W        W94603  33.521   2.197   2.721
29443W        W94604   0.466  17.357   0.901
29444W        W94605  31.131  43.039  12.416
29445W        W94606  30.612  30.595  13.905
29446W        W94607  27.134  14.236  11.052
29447W        W94608  11.235  11.295  10.629
29448W        W94609  44.220  26.768   3.326
29449W        W94610   1.325   2.732   3.304
29450W        W94611  10.861   7.549  12.934
29451W        W94612  32.495  34.350  12.285
29452W        W94613  24.915   4.040  13.779
29453W        W94614  33.598  42.181   1.729
29454W        W94615  20.539  20.150  13.984
29455W        W94616  10.627  44.056   2.855
29456W        W94617   7.471  29.892  14.080
29457W        W94618  23.146  41.413  13.221
29458W        W94619  33.457  44.733  11.262
29459W        W94620   8.581   2.343  13.155
29460W        W94621  32.429  11.074   3.341
29461W        W94622  22.112   4.294  12.076
29462W        W94623   7.412   0.377  14.161
29463W        W94624   9.302  27.382  12.989
29464W        W94625  31.709  38.549   3.701
29465W        W94626   5.418   0.897   4.362
29466W        W94627   6.073   4.719  11.618
29467W        W94628  24.550  26.943   3.163
29468W        W94629   8.730  26.938  10.745
29469W        W94630  35.915  25.801  12.632
29470W        W94631  14.378  44.444   4.017
29471W        W94632  20.960   6.956   4.018
29472W        W94633  44.433   9.779  10.671
29473W        W94634  20.245  12.719   1.655
29474W        W94635  19.867  24.891  10.210
29475W        W94636  37.202   3.688   4.559
29476W        W94637  10.587  11.883  14.846
29477W        W94638  31.050  42.301   9.787
29478W        W94639  17.516   6.188   1.386
29479W        W94640  18.740  25.324  11.207
29480W        W94641  22.001  31.463   3.188
29481W        W94642  21.221  23.229   2.346
29482W        W94643  23.577  16.235   5.015
29483W        W94644  21.504  24.576  13.935
29484W        W94645  19.281  40.195   1.299
29485W        W94646  15.213  34.930  13.552
29486W        W94647  38.421  33.466   1.427
29487W        W94648   5.985  26.087  11.565
29488W        W94649  20.137   8.323   4.585
29489W        W94650  17.531  37.620  11.262
29490W        W94651   5.203  37.323   3.993
29491W        W94652   3.383  34.299   2.214
29492W        W94653   8.352  20.763  10.318
29493W        W94654  23.841  26.090  11.622
29494W        W94655  30.637  37.446   3.091
29495W        W94656  40.967  17.594   1.343
29496W        W94657  33.602  29.779   2.673
29497W        W94658  22.526  14.153   1.855
29498W        W94659  43.016  24.632   5.099
29499W        W94660  29.954   2.946   4.275
29500W        W94661   2.811   0.713  13.985
29501W        W94662   9.976  40.765   0.020
29502W        W94663  16.404  15.651   0.743
29503W        W94664  23.740  10.834  13.159
29504W        W94665   0.513  14.507   1.385
29505W        W94666  35.876  11.224   0.866
29506W        W94667  43.511  36.610  14.890
29507W        W94668  38.508  13.346   4.633
29508W        W94669  38.350  17.161  14.266
29509W        W94670  11.298   9.792   2.832
29510W        W94671  18.897  14.767   5.069
29511W        W94672  13.328  33.963   3.712
29512W        W94673  20.584  40.625  12.632
29513W        W94674  39.783  40.495   3.830
29514W        W94675   5.587  44.270   2.336
29515W        W94676  41.391  15.769  12.745
29516W        W94677  35.442  25.752  14.269
29517W        W94678  20.608  27.332   0.830
29518W        W94679   1.852  33.344  12.517
29519W        W94680  23.755  38.288  13.026
29520W        W94681   4.909  14.642  14.968
29521W        W94682  29.426  39.847   2.240
29522W        W94683  28.632  39.079   3.672
29523W        W94684  33.700  23.222  14.825
29524W        W94685  22.848   1.384   1.378
29525W        W94686  10.796   9.469   4.666
29526W        W94687  23.356  41.577  12.423
29527W        W94688   8.553  17.697   0.024
29528W        W94689  27.171  23.538  12.437
29529W        W94690   8.628  37.950   4.562
29530W        W94691   0.501  28.479   0.034
29531W        W94692  17.777  26.119  12.026
29532W        W94693   0.428  40.091   0.571
29533W        W94694  36.192  16.143  14.560
29534W        W94695  27.451  26.777  13.579
29535W        W94696  12.090   9.691   4.701
29536W        W94697  26.844  16.722   1.298
29537W        W94698  33.970   3.773  14.873
29538W        W94699  26.512  42.788  14.451
29539W        W94700  36.582  44.432   2.356
29540W        W94701  14.898  23.919  12.472
29541W        W94702  27.546  44.405   3.110
29542W        W94703  43.120  16.744  14.651
29543W        W94704  31.910  31.864   0.913
29544W        W94705  23.719   8.155  10.845
29545W        W94706  35.147  41.693   0.948
29546W        W94707  32.037  10.188   4.720
29547W        W94708  26.619  21.806  13.431
29548W        W94709  18.564  22.635  11.166
29549W        W94710  10.099  12.107   1.829
29550W        W94711  15.088  11.697  12.422
29551W        W94712  15.003  14.335  13.617
29552W        W94713   3.009  15.679  13.464
29553W        W94714  12.279  43.483   0.704
29554W        W94715  11.348  26.604   1.472
29555W        W94716  43.785  27.525   4.015
29556W        W94717  38.639  20.967   1.377
29557W        W94718  21.283  10.308  12.055
29558W        W94719  13.378  30.438   4.085
29559W        W94720   3.236  40.495  13.367
29560W        W94721   4.614  42.040  14.047
29561W        W94722  22.313  31.799  12.535
29562W        W94723  33.903  15.521  14.431
29563W        W94724  14.177   1.446  14.742
29564W        W94725  40.079  16.286  12.184
29565W        W94726   0.694  32.090   3.276
29566W        W94727  20.798  29.121   1.081
29567W        W94728  23.416  10.323  11.603
29568W        W94729  33.051   1.733   4.279
29569W        W94730  37.913  10.868   2.635
29570W        W94731   5.170  33.982   4.657
29571W        W94732   6.663   5.757  14.437
29572W        W94733  17.715  30.338   3.616
29573W        W94734  12.365  28.021  11.412
29574W        W94735  29.760  19.224  11.623
29575W        W94736  42.579  14.490  13.938
29576W        W94737   0.246  37.875   3.488
29577W        W94738  29.611   7.375  14.863
29578W        W94739  40.617   0.038   0.829
29579W        W94740   7.832  40.737   3.195
29580W        W94741  15.600  22.112  12.945
29581W        W94742  41.422  23.230   4.460
29582W        W94743  33.703  20.446   0.891
29583W        W94744  29.582   4.803   2.374
29584W        W94745  18.588  38.463   0.226
29585W        W94746   7.508  36.760  14.429
29586W        W94747  23.166  23.508  12.235
29587W        W94748  39.295   2.988   0.179
29588W        W94749  35.839  29.465  11.393
29589W        W94750   0.722  42.741   0.472
29590W        W94751  15.127  28.519  13.606
29591W        W94752  38.169  30.190  11.126
29592W        W94753  38.413  17.737   0.018
29593W        W94754  42.974  12.321  12.873
29594W        W94755  15.110  10.145  13.427
29595W        W94756  14.760   2.388   3.770
29596W        W94757   6.859   1.959   2.426
29597W        W94758  19.146  35.609   1.952
29598W        W94759   4.291  16.613  10.503
29599W        W94760  43.604  21.847  14.745
29600W        W94761  17.506  37.207  13.636
29601W        W94762  35.405  20.749   2.276
29602W        W94763  15.161   3.534   3.328
29603W        W94764   4.978   9.815  12.982
29604W        W94765  28.313  36.132   3.820
29605W        W94766  29.071  32.463  10.651
29606W        W94767  27.065  40.929   0.480
29607W        W94768  32.015  14.780  13.225
29608W        W94769   6.623   1.962  13.623
29609W        W94770  37.756  34.355   3.116
29610W        W94771  27.525  32.148   2.258
29611W        W94772   5.474  13.256  12.624
29612W        W94773  15.828  43.982   0.898
29613W        W94774   5.205  25.150   1.123
29614W        W94775  40.772  17.060   3.166
29615W        W94776  15.554  26.121  10.636
29616W        W94777  36.825  23.245  13.590
29617W        W94778  14.208  27.966   3.299
29618W        W94779   0.608  11.161   1.934
29619W        W94780  27.185  15.108   9.589
29620W        W94781  24.397  37.604   2.823
29621W        W94782  37.315  24.080   2.236
29622W        W94783  36.668  11.238  11.018
29623W        W94784   0.730  21.754   1.277
29624W        W94785  15.566   4.528  13.332
29625W        W94786  26.841  42.576  13.308
29626W        W94787  22.949  24.758  11.172
29627W        W94788  14.311   5.668   1.541
29628W        W94789  22.997   3.627   3.815
29629W        W94790  39.527   6.824   1.942
29630W        W94791  37.969  11.633  13.960
29631W        W94792   3.675  17.487   4.128
29632W        W94793   4.638   1.486   3.139
29633W        W94794  44.521  23.195   4.052
29634W        W94795  32.436  21.083  14.310
29635W        W94796  33.027  25.899   0.749
29636W        W94797  41.827  29.803   4.591
29637W        W94798  22.510  17.086   5.488
29638W        W94799  14.645   1.608   3.054
29639W        W94800  39.249   3.514   4.865
29640W        W94801  38.393   1.786  10.775
29641W        W94802   1.771   2.310   1.321
29642W        W94803   0.913  26.397  14.267
29643W        W94804  22.548  20.499  12.600
29644W        W94805  18.559  39.360  12.728
29645W        W94806  29.424  36.859  10.687
29646W        W94807  17.707  33.578   1.421
29647W        W94808  35.913   8.133   0.318
29648W        W94809  18.409  22.483   4.121
29649W        W94810  11.651   4.287  11.497
29650W        W94811  17.101  34.658  11.892
29651W        W94812  23.374  20.528  10.647
29652W        W94813   2.564  44.729  11.644
29653W        W94814  42.176  16.562  13.259
29654W        W94815   9.375  22.785  14.462
29655W        W94816  32.513  11.566   1.535
29656W        W94817   9.592  15.448   0.011
29657W        W94818   3.450   3.492  10.823
29658W        W94819  20.995  21.069   0.184
29659W        W94820   2.041   2.701  11.579
29660W        W94821   5.781   9.478  14.253
29661W        W94822  37.995  16.787   1.522
29662W        W94823   3.365  20.027   2.952
29663W        W94824  21.040   4.218   3.304
29664W        W94825   4.833   3.228   4.520
29665W        W94826  24.754  13.236   1.619
29666W        W94827   8.917  35.082   2.262
29667W        W94828  15.129  39.530  13.596
29668W        W94829  19.090  20.151  10.688
29669W        W94830  40.773  20.558  12.951
29670W        W94831  40.842  38.910  13.964
29671W        W94832  11.344  35.388  12.237
29672W        W94833   6.127  37.484  13.102
29673W        W94834  16.043  12.792  13.994
29674W        W94835  29.186  25.685  11.929
29675W        W94836  24.259  43.778   3.131
29676W        W94837  29.982  19.983   5.047
29677W        W94838  33.373   7.915  11.975
29678W        W94839   3.270   5.936  13.407
29679W        W94840  13.303  13.622   0.395
29680W        W94841  20.052  22.597  11.763
29681W        W94842  14.296  10.141  10.955
29682W        W94843  12.764  16.213   2.364
29683W        W94844   1.190  16.925   0.740
29684W        W94845  32.007  33.673   1.232
29685W        W94846   9.488  33.939  11.012
29686W        W94847  17.327  18.602  12.915
29687W        W94848  35.180  35.901  13.635
29688W        W94849  35.474  18.432   2.449
29689W        W94850  19.557  10.153  12.536
29690W        W94851  41.668  26.303   2.911
29691W        W94852  38.305   0.477  13.391
29692W        W94853  11.908  17.554   2.329
29693W        W94854  41.533   6.119   3.378
29694W        W94855  21.037  35.286   3.523
29695W        W94856  36.401   3.857   1.774
29696W        W94857  36.059  10.786   0.643
29697W        W94858  41.800   1.542   1.813
29698W        W94859  15.288  27.218   3.208
29699W        W94860  27.601   6.238  11.657
29700W        W94861   5.745  39.178   0.001
29701W        W94862  34.508  37.612   3.778
29702W        W94863  23.756   9.184   1.743
29703W        W94864   3.530   2.382   3.199
29704W        W94865  23.481   0.840   1.265
29705W        W94866  27.485  44.061   1.720
29706W        W94867   8.431   5.421  13.110
29707W        W94868  31.086  25.943  14.389
29708W        W94869  27.484  21.162  12.670
29709W        W94870   8.142  28.860   0.163
29710W        W94871   8.887  38.912  11.155
29711W        W94872   2.471   4.376   0.968
29712W        W94873  36.572  34.151   1.922
29713W        W94874   3.176   1.317   1.205
29714W        W94875  20.364  39.326  11.221
29715W        W94876  18.734  19.485  11.150
29716W        W94877  39.506  35.177  10.792
29717W        W94878  32.819  29.987   4.140
29718W        W94879  39.772  19.039   1.588
29719W        W94880  39.061  33.341  13.366
29720W        W94881   9.743  17.530  13.501
29721W        W94882   7.696  37.811  11.620
29722W        W94883  25.077  16.680   0.943
29723W        W94884  26.692   1.923   1.918
29724W        W94885  37.911  31.183  11.685
29725W        W94886   1.702  22.285  13.851
29726W        W94887  33.364  31.621   3.822
29727W        W94888   0.984  36.150   0.757
29728W        W94889   9.324  41.336  10.277
29729W        W94890  20.154  10.778   1.343
29730W        W94891  21.603  29.145  11.525
29731W        W94892   1.938  28.926  10.131
29732W        W94893  23.523  17.102   4.411
29733W        W94894  22.315   5.524  14.915
29734W        W94895  21.691   4.648  10.322
29735W        W94896   8.476  28.486   4.497
29736W        W94897  41.463  20.426  12.031
29737W        W94898  12.697  22.281   4.070
29738W        W94899  16.947  10.142   3.159
29739W        W94900  31.039   1.167   1.872
29740W        W94901  39.156  34.360   0.533
29741W        W94902  15.700  42.286  14.992
29742W        W94903  13.696  34.854   1.008
29743W        W94904  29.896  44.879   0.040
29744W        W94905  33.530  28.495  10.756
29745W        W94906  32.827  37.971   0.028
29746W        W94907  10.583  30.886   4.748
29747W        W94908  28.550  38.634   1.518
29748W        W94909  36.215  29.322  13.894
29749W        W94910  10.315  28.479   1.265
29750W        W94911  16.527  32.697  13.419
29751W        W94912   5.496   7.698  11.212
29752W        W94913   0.165  36.135  12.210
29753W        W94914   1.747  30.496   0.437
29754W        W94915   0.435  24.504  11.737
29755W        W94916  34.528  32.489   0.878
29756W        W94917  31.006  27.050   0.280
29757W        W94918  38.404   7.675   4.677
29758W        W94919   0.697  15.477  10.922
29759W        W94920   7.777  30.888  11.967
29760W        W94921  20.223  44.308  11.469
29761W        W94922  22.573  22.260   4.018
29762W        W94923  12.116  15.248  13.415
29763W        W94924   3.796  43.903   1.375
29764W        W94925  38.493  32.058   2.424
29765W        W94926   7.190  27.468   2.630
29766W        W94927  28.203   0.667   0.805
29767W        W94928  21.856  36.841   0.799
29768W        W94929   0.774   7.164   3.640
29769W        W94930  36.803  30.184  11.548
29770W        W94931  38.451  21.963   4.076
29771W        W94932  36.173   5.546  13.042
29772W        W94933   3.615   3.505  14.139
29773W        W94934  17.194   7.430   2.708
29774W        W94935  34.910  41.926  13.000
29775W        W94936  39.410  17.825   1.811
29776W        W94937  17.161   3.473  11.485
29777W        W94938   8.587  16.010   5.100
29778W        W94939   4.971  36.537  11.073
29779W        W94940  33.259  14.699  13.027
29780W        W94941  36.173  20.555   1.184
29781W        W94942   6.253  14.059   3.188
29782W        W94943   1.161   1.747  12.485
29783W        W94944  38.785  34.063   0.297
29784W        W94945  35.470  13.723  11.781
29785W        W94946  32.007  32.884   3.856
29786W        W94947  42.447  44.780  13.071
29787W        W94948   8.160   9.783  11.641
29788W        W94949   6.295  32.339   0.298
29789W        W94950  14.591  19.393   4.965
29790W        W94951  20.894  44.945  12.590
29791W        W94952  18.032  14.635   2.241
29792W        W94953  35.409  13.420   2.314
29793W        W94954   2.191  36.301   4.312
29794W        W94955  38.130  19.532   0.170
29795W        W94956  10.116  22.637  13.539
29796W        W94957  10.486  19.441  14.488
29797W        W94958  34.609  12.662   0.040
29798W        W94959  38.768  33.616  14.016
29799W        W94960  35.816  38.057  12.286
29800W        W94961  20.517  20.873  11.169
29801W        W94962  11.594  18.560  14.623
29802W        W94963  37.366  23.958   1.267
29803W        W94964  22.500  35.338   1.983
29804W        W94965  25.651  43.267   1.753
29805W        W94966  38.034  30.499   0.258
29806W        W94967   0.101   2.296  14.420
29807W        W94968  20.937  29.968   4.124
29808W        W94969  14.414  18.481  12.605
29809W        W94970  27.815  11.058  14.885
29810W        W94971  26.923  21.638   2.352
29811W        W94972   2.368  41.945   2.284
29812W        W94973  24.440  18.622   0.379
29813W        W94974  10.712   5.874  14.318
29814W        W94975  18.103  39.409  13.486
29815W        W94976   6.201   8.290  13.103
29816W        W94977  30.563   0.412  12.544
29817W        W94978  10.864  29.598  13.641
29818W        W94979  24.623  29.962   2.223
29819W        W94980   6.234  16.716  10.932
29820W        W94981  32.591  25.797   4.215
29821W        W94982  15.606  39.102   3.619
29822W        W94983  23.942  15.717   2.787
29823W        W94984   9.183   3.858   1.921
29824W        W94985  23.757  36.891  12.135
29825W        W94986   3.107  13.052  14.580
29826W        W94987  37.068   2.905  13.114
29827W        W94988  26.416  28.995  12.787
29828W        W94989  29.886   6.755   2.766
29829W        W94990   1.693  24.752   2.182
29830W        W94991  20.619   8.757   1.848
29831W        W94992  38.309  37.118  13.769
29832W        W94993  26.383  23.675  10.233
29833W        W94994   0.841   2.861  12.986
29834W        W94995   0.599  26.153  12.545
29835W        W94996   5.778  17.581  11.701
29836W        W94997  38.522  39.914  10.666
29837W        W94998   7.987  14.225  14.493
29838W        W94999  40.351  33.299  12.979
29839W        W95000  12.761  36.534   0.023
29840W        W95001  22.681  30.104  12.088
29841W        W95002  17.428  21.098   1.278
29842W        W95003  14.767  24.919   3.194
29843W        W95004  23.044  13.887  12.463
29844W        W95005   0.769   5.245   2.278
29845W        W95006  41.046  38.739   2.871
29846W        W95007  19.583  32.968  14.385
29847W        W95008  19.700   8.841  13.942
29848W        W95009  35.109   6.382  10.307
29849W        W95010  20.985  42.520  13.054
29850W        W95011  29.013  10.275   3.858
29851W        W95012  18.206   4.404   3.071
29852W        W95013  17.280  20.631   2.293
29853W        W95014  33.457  18.310  12.006
29854W        W95015  40.528  15.835  12.686
29855W        W95016  11.269  42.526  12.035
29856W        W95017  27.123  19.946   5.091
29857W        W95018  17.568  31.134   0.259
29858W        W95019  16.353   1.864  12.086
29859W        W95020  13.173  24.894   2.730
29860W        W95021  25.110  33.515  13.938
29861W        W95022   7.521  20.634  11.600
29862W        W95023  13.731  12.901  12.416
29863W        W95024  26.498  36.993  14.498
29864W        W95025  39.462   7.589   2.741
29865W        W95026  31.584  42.552   4.572
29866W        W95027  20.406  23.104  11.538
29867W        W95028  15.379   3.570   0.165
29868W        W95029  19.560  15.861   2.251
29869W        W95030  16.288  29.445   0.394
29870W        W95031  41.990  10.822   1.381
29871W        W95032   3.126  25.358  10.227
29872W        W95033  15.099   5.786  11.952
29873W        W95034  29.211  17.961   4.528
29874W        W95035   8.587  42.924  12.744
29875W        W95036  13.951  20.022   4.145
29876W        W95037   0.555  32.509  13.772
29877W        W95038  35.662  41.890   0.300
29878W        W95039  18.871  31.831   0.693
29879W        W95040  26.339  12.227  13.413
29880W        W95041  16.655  31.869   2.208
29881W        W95042  27.150  42.397  12.913
29882W        W95043  15.877  20.715   0.834
29883W        W95044  14.411  26.271   1.995
29884W        W95045  37.521  40.572   3.770
29885W        W95046  40.105  25.876   4.344
29886W        W95047  38.116  42.761   0.362
29887W        W95048   2.965   7.728   4.487
29888W        W95049  22.569  11.686  10.614
29889W        W95050  19.126  22.977  11.543
29890W        W95051  37.466  20.398  13.393
29891W        W95052  31.749  27.443   5.244
29892W        W95053  27.059  16.105  11.242
29893W        W95054   0.668   6.730  13.812
29894W        W95055   2.776   2.843   4.594
29895W        W95056  25.258   9.288  13.423
29896W        W95057   4.405  40.878  14.853
29897W        W95058   8.450  17.320   3.229
29898W        W95059   4.282   8.746   1.321
29899W        W95060  30.692   2.681  14.295
29900W        W95061  38.105   7.958  12.109
29901W        W95062  24.556  37.926  12.020
29902W        W95063  20.520  19.960  10.120
29903W        W95064  40.965  38.458  13.288
29904W        W95065   6.860  28.751   1.336
29905W        W95066  25.086  20.492   1.855
29906W        W95067  35.075  17.086  11.203
29907W        W95068  34.902  21.506  11.391
29908W        W95069  29.232  20.936   3.563
29909W        W95070  17.295  19.173   2.630
29910W        W95071  17.988  21.086  13.534
29911W        W95072  28.031  18.140   0.805
29912W        W95073  17.249  32.804  11.851
29913W        W95074  23.034   0.819  13.091
29914W        W95075  30.188   1.827  14.644
29915W        W95076  36.522   7.660  11.202
29916W        W95077   2.117  14.117  11.105
29917W        W95078  39.622   3.278   0.448
29918W        W95079  40.132   4.004   1.401
29919W        W95080  37.300  26.656  13.737
29920W        W95081  39.243  24.757  11.153
29921W        W95082  16.149  16.332  12.107
29922W        W95083   6.878  20.792   0.462
29923W        W95084  15.063  42.320  13.674
29924W        W95085   5.660  14.782   2.343
29925W        W95086   7.695  38.926   3.606
29926W        W95087  30.414   0.074  11.824
29927W        W95088  24.684  26.639  13.984
29928W        W95089  44.529  44.526   4.681
29929W        W95090  16.168  38.642  10.655
29930W        W95091  17.184  34.627   1.039
29931W        W95092  26.493  14.086   2.260
29932W        W95093   2.380  32.772  10.716
29933W        W95094  41.768  37.633   3.878
29934W        W95095   4.632  13.810   0.937
29935W        W95096  41.084  14.137  10.905
29936W        W95097  29.224  36.451   3.473
29937W        W95098  30.922   1.524   2.822
29938W        W95099  44.079  38.127   4.480
29939W        W95100  23.318  38.249  13.373
29940W        W95101  21.022  41.791  13.406
29941W        W95102  34.804   5.578  11.985
29942W        W95103  34.465  18.216  10.960
29943W        W95104   8.787  17.485   2.344
29944W        W95105  40.958  26.991   1.512
29945W        W95106  17.422  44.260   0.464
29946W        W95107   3.318  34.106   2.967
29947W        W95108  25.055  39.912   2.213
29948W        W95109   1.321  36.015  14.855
29949W        W95110  19.250   0.737  11.180
29950W        W95111   1.348  40.594   4.412
29951W        W95112   0.772  40.196  14.864
29952W        W95113  41.275   5.834   1.021
29953W        W95114   5.273  10.253  12.944
29954W        W95115  27.632  29.210  11.734
29955W        W95116  30.837  40.697  10.672
29956W        W95117  40.489  34.512   5.133
29957W        W95118   8.377  35.846  13.075
29958W        W95119  26.664  36.883   0.990
29959W        W95120   1.673  16.662   0.708
29960W        W95121  29.322  43.441  13.516
29961W        W95122  27.069  32.126   4.795
29962W        W95123  23.307  36.940   3.672
29963W        W95124  24.769  32.168  11.603
29964W        W95125  14.730  21.989   4.379
29965W        W95126  29.160  12.035  10.833
29966W        W95127   2.305   1.287  14.477
29967W        W95128  31.992  35.299   0.652
29968W        W95129  41.905   3.679  13.583
29969W        W95130  19.507  17.082  10.291
29970W        W95131   2.108  22.194   3.068
29971W        W95132  18.063  40.498  15.000
29972W        W95133  29.722   9.154   4.117
29973W        W95134   6.044   7.434  12.037
29974W        W95135  13.098  38.799   1.322
29975W        W95136   0.761   2.991   1.842
29976W        W95137  17.721   5.171   4.463
29977W        W95138  29.063  41.449  12.465
29978W        W95139  31.007  19.949   4.560
29979W        W95140  15.081   5.468   4.109
29980W        W95141  20.342  12.851  14.712
29981W        W95142  33.610  36.974   3.739
29982W        W95143   1.884  19.270  13.093
29983W        W95144  29.528   8.602  11.413
29984W        W95145  14.832  31.137   1.569
29985W        W95146  34.786  33.569  13.613
29986W        W95147  13.911  39.939   0.662
29987W        W95148  19.742  21.827  10.053
29988W        W95149  35.924  38.663  12.977
29989W        W95150  44.567  17.140   3.242
29990W        W95151  15.838  42.990   1.900
29991W        W95152  39.473  14.583   4.072
29992W        W95153   9.893  33.076   3.216
29993W        W95154   3.438  14.435  14.970
29994W        W95155  11.800  43.937   3.444
29995W        W95156  28.231  24.441  10.298
29996W        W95157   1.886  11.700   0.986
29997W        W95158   3.689  32.671   2.642
29998W        W95159  10.096  38.128  10.640
29999W        W95160   3.441   4.092   0.266
30000W        W95161   7.950   3.507   4.154
30001W        W95162  41.123  33.186   0.813
30002W        W95163   6.901  41.937   3.257
30003W        W95164  29.831   5.277   1.207
30004W        W95165  16.260   1.367   4.625
30005W        W95166  16.300  36.369  11.699
30006W        W95167  36.045  34.417  14.400
30007W        W95168   6.566  27.981   4.597
30008W        W95169   4.159  31.036   4.503
30009W        W95170  23.890   4.739  13.924
30010W        W95171  35.510   4.948  12.025
30011W        W95172  17.126   1.680  13.975
30012W        W95173  39.111  36.935   3.661
30013W        W95174  41.528  42.838  10.665
30014W        W95175  42.737  17.166   1.874
30015W        W95176  23.156  27.191  13.329
30016W        W95177  42.201  27.555  12.071
30017W        W95178   3.817   3.539   1.198
30018W        W95179  27.963   5.514   3.665
30019W        W95180   7.604  39.548  11.470
30020W        W95181  44.988  41.495   3.452
30021W        W95182  25.045  43.774   2.674
30022W        W95183   1.784  15.160  10.330
30023W        W95184  26.380  13.549   3.365
30024W        W95185  42.810  30.409   1.331
30025W        W95186  17.694  25.305   1.713
30026W        W95187  26.012  16.042  12.601
30027W        W95188  13.196  22.989   1.313
30028W        W95189   5.714   8.623   1.874
30029W        W95190  23.426  34.378   4.175
30030W        W95191  42.270  15.677   3.165
30031W        W95192  31.698  42.042  11.587
30032W        W95193   8.688   8.770   0.230
30033W        W95194  18.010  16.099  13.799
30034W        W95195   1.495  32.142   3.662
30035W        W95196  25.330  44.479   0.381
30036W        W95197  17.659  39.873   1.845
30037W        W95198   9.082   7.759   0.909
30038W        W95199  11.184   8.642  12.582
30039W        W95200  12.211   0.477  13.131
30040W        W95201   3.232  31.623   1.782
30041W        W95202  42.827  21.152  13.722
30042W        W95203  36.870  22.176  13.605
30043W        W95204  39.109  28.153   4.522
30044W        W95205  16.753  13.094   1.126
30045W        W95206   1.723  21.119   2.267
30046W        W95207  10.909  30.469   2.126
30047W        W95208  24.042  30.171  12.907
30048W        W95209   2.279   9.277  12.781
30049W        W95210  10.963  22.288  11.135
30050W        W95211   7.808  34.658   0.763
30051W        W95212  12.935  44.958   0.402
30052W        W95213   2.916   2.561   1.958
30053W        W95214  26.034  24.167   1.901
30054W        W95215  18.095  37.628   1.394
30055W        W95216   0.587  20.122  13.043
30056W        W95217   3.780   0.219   3.718
30057W        W95218  24.572  30.319  12.297
30058W        W95219  42.567  41.408   4.804
30059W        W95220  21.432  35.944   0.951
30060W        W95221  44.378  10.680  11.655
30061W        W95222  41.734   1.877  11.170
30062W        W95223  37.859  31.696  11.066
30063W        W95224  22.217  35.011   3.474
30064W        W95225  38.754   1.900   1.325
30065W        W95226  31.741  29.500   4.637
30066W        W95227   8.583  32.514  13.124
30067W        W95228   3.157  12.188   3.362
30068W        W95229  12.710  11.072   3.239
30069W        W95230  20.296  20.575   4.651
30070W        W95231   2.336  16.692   4.090
30071W        W95232  25.176  35.967   4.039
30072W        W95233   6.441  15.009   2.501
30073W        W95234  20.720  38.422  11.985
30074W        W95235  32.466  22.500   4.308
30075W        W95236  31.322  36.600   1.970
30076W        W95237   6.741  41.323   2.412
30077W        W95238  24.813   3.453  14.962
30078W        W95239  28.520  29.250  11.656
30079W        W95240   1.874  30.403  10.734
30080W        W95241  32.362  36.978   1.243
30081W        W95242  23.626  44.536  14.414
30082W        W95243  21.481  30.930   0.438
30083W        W95244  29.220  17.369  11.669
30084W        W95245  25.990  30.870  13.321
30085W        W95246  30.189   8.220   0.721
30086W        W95247  14.634  43.351  14.346
30087W        W95248  33.532  22.083   1.985
30088W        W95249  20.364  31.934   4.117
30089W        W95250  27.961  18.361   1.304
30090W        W95251  30.958  37.021   1.270
30091W        W95252  35.413   0.748   3.634
30092W        W95253  27.992  38.023   0.809
30093W        W95254  42.788  24.174   3.006
30094W        W95255  34.071  31.238  11.910
30095W        W95256  33.053  21.200   2.198
30096W        W95257  22.685  14.501   0.178
30097W        W95258   1.434  41.961  10.820
30098W        W95259   3.239  13.842   3.636
30099W        W95260  32.492  29.681  12.953
30100W        W95261  19.028   1.725  14.340
30101W        W95262  35.799  24.253  14.841
30102W        W95263  12.838   6.172   1.308
30103W        W95264   5.926  26.390   2.184
30104W        W95265  10.789  23.552  14.922
30105W        W95266  33.644  24.186  12.492
30106W        W95267   6.923   1.965   0.933
30107W        W95268  39.460  39.328   4.393
30108W        W95269  32.193  41.553   0.335
30109W        W95270  18.821   8.687   2.777
30110W        W95271  22.702  42.506   0.358
30111W        W95272  36.368   8.369  12.982
30112W        W95273   5.574  11.768   5.005
30113W        W95274  37.780  37.586  14.279
30114W        W95275  12.089  42.979  13.843
30115W        W95276   2.970  35.803   2.786
30116W        W95277  10.328  19.509  13.560
30117W        W95278  37.910  32.069  13.541
30118W        W95279  22.026  31.633  13.899
30119W        W95280  18.572  38.133   0.788
30120W        W95281  44.293  24.891  12.177
30121W        W95282  20.118  26.144  12.126
30122W        W95283  19.330  32.844  12.605
30123W        W95284  11.953  15.088  11.533
30124W        W95285  36.651  31.306   1.492
30125W        W95286   9.404  32.960   1.589
30126W        W95287  15.875  33.322  14.001
30127W        W95288  35.144   3.812  10.569
30128W        W95289  23.047  22.585  14.987
30129W        W95290   3.681  42.332  13.606
30130W        W95291  29.069  22.540   0.257
30131W        W95292  43.796  39.042  10.191
30132W        W95293  15.560  21.957   2.717
30133W        W95294  18.697   8.066   3.205
30134W        W95295  35.842  36.019  14.991
30135W        W95296  28.282  42.153  10.047
30136W        W95297  34.866  37.226  11.979
30137W        W95298  34.001  29.140  14.299
30138W        W95299  37.089  20.007   1.191
30139W        W95300  37.158   5.714  14.927
30140W        W95301  18.269  12.945  12.539
30141W        W95302  32.464  28.622  12.020
30142W        W95303  37.531  21.689   0.424
30143W        W95304  31.095  30.785   2.652
30144W        W95305   1.488   5.041   1.754
30145W        W95306  19.829  33.619   0.580
30146W        W95307  24.284  29.929  11.118
30147W        W95308  38.482  13.239   3.544
30148W        W95309  10.606  43.049  12.100
30149W        W95310  29.132  22.504  12.893
30150W        W95311   8.806  39.460  10.667
30151W        W95312  20.235  12.907  12.955
30152W        W95313  23.050  34.012  12.643
30153W        W95314   7.824  23.006   4.161
30154W        W95315   9.660  42.050  14.841
30155W        W95316  17.132  15.611   3.674
30156W        W95317  36.204  31.496   1.686
30157W        W95318  20.617  15.099  12.949
30158W        W95319  38.899  38.446  12.198
30159W        W95320  30.123   5.046  13.475
30160W        W95321  20.301  40.786  13.014
30161W        W95322   7.323   8.338  12.046
30162W        W95323  34.617  23.290  14.058
30163W        W95324  32.691  38.312   3.584
30164W        W95325  19.512  10.896  13.972
30165W        W95326   7.846  32.357  11.495
30166W        W95327  18.208  44.671  11.593
30167W        W95328  33.596  12.207  12.027
30168W        W95329  25.480  28.613   2.664
30169W        W95330  43.787   2.094  14.121
30170W        W95331  14.607   1.112   1.786
30171W        W95332  15.117  20.871   9.937
30172W        W95333  43.941  17.515   1.847
30173W        W95334  24.260   7.576  11.726
30174W        W95335  23.157  21.509  10.794
30175W        W95336   6.334  38.152  14.943
30176W        W95337  43.354  14.082  11.223
30177W        W95338  12.077   8.724  12.190
30178W        W95339  25.463   4.776   2.882
30179W        W95340  27.417  18.641  11.619
30180W        W95341  38.306  21.416  11.454
30181W        W95342  41.395   7.212  12.941
30182W        W95343  22.742  17.785  11.011
30183W        W95344  36.932  14.590  12.110
30184W        W95345  41.890   3.763   4.894
30185W        W95346   5.678  43.395  11.026
30186W        W95347  13.325   1.444  13.998
30187W        W95348  34.453   7.867   3.946
30188W        W95349   7.663   8.592   4.046
30189W        W95350  21.460   6.268  10.048
30190W        W95351  15.546  25.898  12.503
30191W        W95352  10.222  17.064  14.510
30192W        W95353  14.014  11.637  11.704
30193W        W95354  30.499  24.047   1.406
30194W        W95355  30.087   2.935  12.335
30195W        W95356  42.194  40.869   4.746
30196W        W95357  20.143  35.059  14.161
30197W        W95358  26.004   2.403   4.507
30198W        W95359   0.301  24.801   4.145
30199W        W95360   1.712   9.176  14.407
30200W        W95361  25.011  18.809  13.835
30201W        W95362  12.091  43.775  11.064
30202W        W95363  33.477   0.304   4.625
30203W        W95364  19.049  25.438   4.746
30204W        W95365  33.150  37.831   2.421
30205W        W95366   4.273  13.407  10.210
30206W        W95367  17.652  29.168   3.104
30207W        W95368  21.262  27.695   2.282
30208W        W95369  23.018  12.130   0.498
30209W        W95370   1.923   2.342   0.812
30210W        W95371   4.636  38.286   4.087
30211W        W95372  42.690  38.112  12.598
30212W        W95373   4.216  33.627  13.809
30213W        W95374  10.981  25.956   1.770
30214W        W95375  38.061  21.754  14.889
30215W        W95376  25.509  12.631   2.561
30216W        W95377  31.573  29.144  12.397
30217W        W95378  24.206  29.733  13.444
30218W        W95379  15.985  42.937   4.981
30219W        W95380  26.593   4.771  14.382
30220W        W95381  16.341  26.148   0.827
30221W        W95382   6.798  37.485  11.301
30222W        W95383  36.715  20.247   4.187
30223W        W95384  22.466  24.040  13.484
30224W        W95385  22.781  22.989   1.713
30225W        W95386  30.894   3.482   1.350
30226W        W95387   1.786  19.563  12.650
30227W        W95388  44.422   9.201  10.557
30228W        W95389   6.590  42.780   3.770
30229W        W95390   2.764  15.565  11.287
30230W        W95391   7.315  33.938   4.721
30231W        W95392  17.754  41.725   4.171
30232W        W95393  28.303  30.988   1.701
30233W        W95394   2.381  34.798   4.880
30234W        W95395  34.367  37.618  11.139
30235W        W95396  13.188  14.276  10.627
30236W        W95397  12.377  31.119   4.866
30237W        W95398  41.632   6.436  11.380
30238W        W95399  22.247  18.023   1.909
30239W        W95400  25.855  36.848   4.676
30240W        W95401  19.831  18.738  12.566
30241W        W95402  36.475   1.752  13.662
30242W        W95403   3.364  39.065  11.180
30243W        W95404  35.281  38.274  14.923
30244W        W95405  42.111  10.156  14.218
30245W        W95406  39.170  35.739  14.443
30246W        W95407  28.984  36.384   5.361
30247W        W95408  40.942  27.232  13.785
30248W        W95409  24.926  36.558  14.369
30249W        W95410  26.311  15.059   4.735
30250W        W95411  23.757  29.549   0.266
30251W        W95412  16.570   2.661   2.811
30252W        W95413  27.584   7.738  14.261
30253W        W95414  10.589  38.430  13.336
30254W        W95415   6.188   5.984  14.244
30255W        W95416  38.378   1.985   3.168
30256W        W95417   8.646  26.195   0.350
30257W        W95418  33.596  38.970  14.394
30258W        W95419  35.027   3.226   1.621
30259W        W95420  10.729  39.489   2.254
30260W        W95421  13.075  44.447  13.748
30261W        W95422  21.113  35.064   1.874
30262W        W95423  27.119  41.189   2.925
30263W        W95424   5.323   1.282   4.686
30264W        W95425  40.550  26.650  12.869
30265W        W95426   8.970   6.887   0.018
30266W        W95427  41.934  17.071  12.086
30267W        W95428  18.754  16.025  13.368
30268W        W95429  13.766  42.560  14.509
30269W        W95430  43.040  29.893  14.751
30270W        W95431   0.913  30.564   0.742
30271W        W95432  23.452  29.489   0.670
30272W        W95433  42.786  24.438  14.324
30273W        W95434   4.871   4.279  13.015
30274W        W95435  40.104  44.713  10.909
30275W        W95436   2.955  42.437  13.772
30276W        W95437  35.947   1.752  12.867
30277W        W95438  29.460  41.790  14.567
30278W        W95439   3.578  23.334  14.045
30279W        W95440  43.260   6.387   0.811
30280W        W95441   4.678  31.011   1.713
30281W        W95442  35.555  10.148   0.789
30282W        W95443  27.615  40.018   3.651
30283W        W95444  18.810  16.219  14.247
30284W        W95445  26.549  41.899   3.807
30285W        W95446   4.286  38.439  11.733
30286W        W95447  29.135   9.184  12.436
30287W        W95448  17.307  18.656  11.532
30288W        W95449  38.715  21.171   4.924
30289W        W95450  32.076  11.467  12.054
30290W        W95451  11.350  32.015  14.858
30291W        W95452  26.378  44.761  11.645
30292W        W95453  17.320  15.137   3.950
30293W        W95454  10.676  39.058  10.583
30294W        W95455  21.644  31.985   3.802
30295W        W95456  25.738  29.629  10.582
30296W        W95457  39.606  38.756  13.340
30297W        W95458   9.849   1.816  11.908
30298W        W95459  31.408  18.681  12.122
30299W        W95460  42.387  19.254  11.596
30300W        W95461   6.223   8.814  11.589
30301W        W95462  10.837  41.099  13.431
30302W        W95463  14.444   4.216  11.526
30303W        W95464  25.126  16.212   3.268
30304W        W95465  11.578   4.880  14.228
30305W        W95466  27.209  23.013   1.657
30306W        W95467   9.925   4.926  10.967
30307W        W95468  34.878  29.604  12.416
30308W        W95469   8.356  14.615  13.314
30309W        W95470  42.983  21.739   4.079
30310W        W95471  13.080  20.657  12.556
30311W        W95472  23.581   8.404   3.284
30312W        W95473   7.911  35.775  11.109
30313W        W95474  28.097  14.377  11.212
30314W        W95475  25.142  20.355  11.642
30315W        W95476  40.985  43.468   4.581
30316W        W95477  29.526  34.690  13.071
30317W        W95478  35.365  42.784   1.409
30318W        W95479  31.577  16.606   4.569
30319W        W95480  17.974  38.025   0.792
30320W        W95481  23.676  28.537   2.801
30321W        W95482   2.700  24.721   3.111
30322W        W95483  27.199  36.491  14.440
30323W        W95484  31.617   1.248  13.956
30324W        W95485   7.134  29.008  12.996
30325W        W95486  28.046  23.009   2.660
30326W        W95487  41.398   2.219  10.818
30327W        W95488  15.255  35.361   0.257
30328W        W95489   1.720   4.007  13.491
30329W        W95490  16.680  37.125   4.132
30330W        W95491  15.377  19.631  14.747
30331W        W95492  43.126  35.380  10.327
30332W        W95493  29.131  29.932  13.222
30333W        W95494   6.423  14.318  10.638
30334W        W95495  38.894  24.176  13.269
30335W        W95496  14.675  11.051   3.228
30336W        W95497  36.392  41.059   2.325
30337W        W95498  16.860  34.379  13.031
30338W        W95499  17.290  36.149  11.278
30339W        W95500  40.573   1.862   0.282
30340W        W95501  33.060  27.448  10.728
30341W        W95502  36.586  26.358  11.673
30342W        W95503  38.382   2.477  11.917
30343W        W95504  16.083  33.827  10.649
30344W        W95505   9.098  32.483  13.070
30345W        W95506   7.190   3.271  13.435
30346W        W95507  17.141  30.504   4.184
30347W        W95508  34.360  21.705  13.007
30348W        W95509  44.528  41.009  13.863
30349W        W95510  32.927  12.645   0.350
30350W        W95511  37.901  19.467  14.371
30351W        W95512  41.933  31.357  13.040
30352W        W95513  12.195   4.758  12.007
30353W        W95514  22.303  24.063  12.030
30354W        W95515  12.698  27.879   3.654
30355W        W95516  40.225  43.644  11.927
30356W        W95517  18.252   0.896  10.920
30357W        W95518  36.649  24.686  14.402
30358W        W95519  24.593  40.636   2.280
30359W        W95520  10.538   2.744   4.052
30360W        W95521   7.357   0.790   2.606
30361W        W95522  19.112   3.352  10.626
30362W        W95523  30.137  36.439  12.250
30363W        W95524  29.718  30.105   2.236
30364W        W95525  40.086  15.602  12.527
30365W        W95526  38.651  36.451   0.833
30366W        W95527   3.285  26.728  12.531
30367W        W95528   9.315  40.301  12.804
30368W        W95529  16.335  42.428  10.727
30369W        W95530  21.584  13.331  13.881
30370W        W95531  31.691  14.130  11.111
30371W        W95532  10.304   4.685  12.575
30372W        W95533  23.045  28.702   0.291
30373W        W95534  20.837  21.704  12.439
30374W        W95535  13.586  22.076  14.882
30375W        W95536  43.695   3.307  10.078
30376W        W95537  31.787  32.562  14.366
30377W        W95538   2.722   0.939  12.539
30378W        W95539  36.553  41.323  13.329
30379W        W95540  21.140  44.441  11.347
30380W        W95541  10.950   2.339   4.953
30381W        W95542  16.232  19.331  10.944
30382W        W95543   3.417  35.560   2.646
30383W        W95544  29.919  15.225  12.969
30384W        W95545   1.589  37.945  11.218
30385W        W95546  20.985  36.809   3.684
30386W        W95547  26.689  35.606  14.260
30387W        W95548  41.746  39.363   1.397
30388W        W95549  26.056   8.894   1.867
30389W        W95550  24.096  11.500   3.231
30390W        W95551   2.311  18.748   2.240
30391W        W95552  21.160   1.452  12.346
30392W        W95553  23.187  12.664   4.620
30393W        W95554  44.397  17.299  14.352
30394W        W95555   7.984  15.134  13.072
30395W        W95556  28.968  36.007   1.850
30396W        W95557   0.143  27.129   0.197
30397W        W95558  24.571   2.932   1.924
30398W        W95559  17.532   7.958   0.734
30399W        W95560   2.883   6.021  11.913
30400W        W95561  34.905  42.844   3.585
30401W        W95562  28.733   3.240  11.093
30402W        W95563  16.495  22.930   0.066
30403W        W95564   4.029  34.102   3.497
30404W        W95565  33.866   5.729  14.356
30405W        W95566  15.685  30.418  14.893
30406W        W95567  24.634  18.672  11.642
30407W        W95568   5.421  21.245  14.025
30408W        W95569  20.582  29.052  12.119
30409W        W95570  18.589  34.557  10.280
30410W        W95571   0.523  21.711   1.929
30411W        W95572  36.338  12.090  12.443
30412W        W95573  43.224  14.759   0.323
30413W        W95574  13.750  35.322   1.856
30414W        W95575  21.177  27.150   2.323
30415W        W95576  13.418  32.744   3.315
30416W        W95577  34.395   9.712  10.654
30417W        W95578  13.322  24.140  11.167
30418W        W95579  18.584  44.723   4.232
30419W        W95580  18.245  39.087  14.308
30420W        W95581  25.704   6.722  11.442
30421W        W95582  11.346  18.025   3.077
30422W        W95583  13.266   3.769   4.078
30423W        W95584  28.803  28.642  13.058
30424W        W95585  16.850  20.370   2.417
30425W        W95586  19.066  13.303   3.680
30426W        W95587  44.022  43.431   2.977
30427W        W95588  29.115   7.456   0.868
30428W        W95589  43.391   1.321  10.601
30429W        W95590  25.840   8.233   1.933
30430W        W95591  16.385  20.351  12.479
30431W        W95592   2.014  33.050  12.098
30432W        W95593   2.398  20.578  12.633
30433W        W95594  36.934  33.556   4.564
30434W        W95595   1.127  29.509   0.765
30435W        W95596  22.941   7.463   1.346
30436W        W95597  39.826  42.051   2.266
30437W        W95598  11.102  30.689  11.088
30438W        W95599  33.944   8.822   2.789
30439W        W95600  33.637   8.880   1.286
30440W        W95601  29.144  14.861  12.683
30441W        W95602  33.109   8.757  14.109
30442W        W95603  14.457  12.729   5.026
30443W        W95604  22.490   5.874  12.993
30444W        W95605  23.083  36.381  12.440
30445W        W95606  28.589  22.126   1.425
30446W        W95607   1.961  31.176   0.955
30447W        W95608  32.342  38.523   0.323
30448W        W95609   7.647   0.896  10.700
30449W        W95610   6.337  20.756  11.954
30450W        W95611  12.713  24.942  11.981
30451W        W95612  30.819  33.521  12.437
30452W        W95613   2.799  37.907  12.654
30453W        W95614   4.885  19.819   0.815
30454W        W95615  24.617   0.028  14.838
30455W        W95616  26.828  20.218   2.761
30456W        W95617  21.271  25.132   1.911
30457W        W95618  42.556  43.312   3.062
30458W        W95619  28.978  29.985  10.544
30459W        W95620  11.082  15.024  14.771
30460W        W95621  31.291  21.092   4.979
30461W        W95622  16.281  41.494   0.318
30462W        W95623  29.572  26.862   0.605
30463W        W95624  18.963  34.128  12.462
30464W        W95625  25.914  44.063  13.344
30465W        W95626   8.167  32.481  11.096
30466W        W95627   2.251  23.851   0.464
30467W        W95628  30.431  26.601   0.852
30468W        W95629   9.202   5.377   2.679
30469W        W95630   9.691  33.537  10.431
30470W        W95631   0.492  21.989   2.582
30471W        W95632  11.187  34.778   1.838
30472W        W95633  19.714  11.639  10.689
30473W        W95634  20.517  16.109   0.300
30474W        W95635  30.438  22.457   4.215
30475W        W95636  19.108  34.569   0.212
30476W        W95637  31.889  29.707  12.783
30477W        W95638  43.464  41.544  13.480
30478W        W95639  30.522  17.999   2.020
30479W        W95640  28.210   1.525   1.207
30480W        W95641  16.093   6.649   3.405
30481W        W95642  42.123  13.604  12.406
30482W        W95643  42.351  10.355   0.721
30483W        W95644  11.164  13.163   4.557
30484W        W95645   1.222  18.752  12.364
30485W        W95646  17.521  27.754  13.426
30486W        W95647  31.430  12.922   0.551
30487W        W95648   6.431  19.594  13.846
30488W        W95649  41.750  15.825   3.137
30489W        W95650  13.629  26.869  11.305
30490W        W95651  35.866  27.515  12.956
30491W        W95652   5.473  13.305  10.847
30492W        W95653   2.026  29.425  10.705
30493W        W95654  25.705  27.291   2.396
30494W        W95655  41.860  31.942   1.249
30495W        W95656   7.447   1.836   0.296
30496W        W95657  21.035  41.887   5.105
30497W        W95658   2.142  44.872   3.175
30498W        W95659  34.538  39.094  13.609
30499W        W95660  33.926  13.384  14.754
30500W        W95661  11.894  15.748   0.741
30501W        W95662  20.059  21.703  11.604
30502W        W95663  21.002  16.299  14.965
30503W        W95664   9.862  17.821  14.947
30504W        W95665  23.589   5.396  12.432
30505W        W95666  20.751  32.286   4.126
30506W        W95667  11.231  17.567   1.773
30507W        W95668   2.830  39.567  13.562
30508W        W95669  15.208   0.433   3.641
30509W        W95670   0.393  43.028   0.043
30510W        W95671  10.871  23.269  11.242
30511W        W95672   6.912  19.770  14.019
30512W        W95673  10.169  32.014  14.336
30513W        W95674  42.556  11.498  10.787
30514W        W95675   0.772   1.258   1.131
30515W        W95676   8.577   3.403   2.577
30516W        W95677  30.723   0.925  13.876
30517W        W95678   2.635   8.956  10.710
30518W        W95679  35.153  43.763   0.858
30519W        W95680  13.854   2.890   3.843
30520W        W95681   4.028  40.543   4.480
30521W        W95682  11.393   5.571  12.112
30522W        W95683  33.387  17.150   3.725
30523W        W95684  20.988  27.892  11.557
30524W        W95685  18.340  35.621  13.085
30525W        W95686  14.657  17.712  11.510
30526W        W95687  15.578  42.030   1.037
30527W        W95688   8.848  27.548   5.396
30528W        W95689  34.901  30.114  14.842
30529W        W95690  31.258  12.543   2.831
30530W        W95691   4.730  43.523  10.813
30531W        W95692  21.339  32.506  13.382
30532W        W95693   2.720   0.233   1.323
30533W        W95694  29.586  37.475  14.785
30534W        W95695  22.353   2.730  12.553
30535W        W95696  34.372  12.092  10.642
30536W        W95697   8.335   0.540  13.010
30537W        W95698  32.869  24.999  13.965
30538W        W95699   6.489  31.162  12.049
30539W        W95700  33.231  16.849  10.386
30540W        W95701   8.575   8.833   3.524
30541W        W95702  37.563  12.896   1.493
30542W        W95703  44.691  27.556   1.404
30543W        W95704  44.045  36.455  11.612
30544W        W95705  30.960  44.824  13.035
30545W        W95706  38.137  32.494   3.876
30546W        W95707  29.641  36.779  12.981
30547W        W95708   9.419  21.880  12.010
30548W        W95709   1.730  41.003   0.223
30549W        W95710  26.507   8.616  13.375
30550W        W95711  31.041  39.521   4.115
30551W        W95712  18.086  33.433   0.228
30552W        W95713  23.161  26.442  14.809
30553W        W95714  32.530  16.385  13.358
30554W        W95715  10.607  38.965  12.979
30555W        W95716  26.337  17.224   1.703
30556W        W95717  40.406  43.523  13.298
30557W        W95718   2.615  18.087  11.807
30558W        W95719   2.545  35.870  12.044
30559W        W95720  18.718  39.440  13.720
30560W        W95721   0.134  10.413  14.367
30561W        W95722   2.316   7.964  14.657
30562W        W95723  17.072  15.075   4.406
30563W        W95724  14.682  44.979  14.572
30564W        W95725  18.887  10.121  12.105
30565W        W95726  27.832  39.221  11.693
30566W        W95727  31.962  40.996  13.635
30567W        W95728  42.172  28.254  13.038
30568W        W95729  11.196   9.134   3.890
30569W        W95730  42.405   8.554   3.708
30570W        W95731  33.514  18.710   3.039
30571W        W95732   2.227  37.812   0.751
30572W        W95733  28.242  21.436   4.013
30573W        W95734  29.974  41.125   1.355
30574W        W95735   5.701  10.161   1.297
30575W        W95736  44.446   0.340   3.664
30576W        W95737  23.480   8.740   1.790
30577W        W95738   5.869   6.480  12.091
30578W        W95739   2.829  18.499  11.627
30579W        W95740  23.251  22.692   5.169
30580W        W95741  39.952   7.426   3.279
30581W        W95742   8.125  34.573   1.170
30582W        W95743  30.094  30.833   1.836
30583W        W95744   5.928  32.630   3.519
30584W        W95745  19.269  18.167   2.167
30585W        W95746  16.559  16.466   5.277
30586W        W95747   2.418  41.287   1.370
30587W        W95748  15.772  26.080   2.610
30588W        W95749  39.823  18.791   2.086
30589W        W95750  42.426  34.073  14.217
30590W        W95751  44.418  37.785   1.296
30591W        W95752   3.826  30.547   3.140
30592W        W95753  35.985   0.288   2.281
30593W        W95754  44.958  42.562  14.500
30594W        W95755   7.912   3.391  14.908
30595W        W95756  29.590  37.762   4.016
30596W        W95757  22.136   6.011   2.906
30597W        W95758  30.454  34.986   0.429
30598W        W95759   4.892   0.084  11.065
30599W        W95760  22.426  29.680  14.961
30600W        W95761  38.047  38.301  11.611
30601W        W95762  33.396   5.342   0.634
30602W        W95763  28.980  24.195   0.866
30603W        W95764  30.075  38.117  14.062
30604W        W95765  40.353  31.562  13.103
30605W        W95766  39.061  15.177   0.728
30606W        W95767  22.946  27.588  14.202
30607W        W95768  42.510  15.905  11.004
30608W        W95769  40.831  34.789   4.808
30609W        W95770  19.644  30.449   0.761
30610W        W95771  42.094  16.287  12.362
30611W        W95772   8.492  44.017   1.690
30612W        W95773  20.040  25.754  13.912
30613W        W95774  22.044  14.071  12.801
30614W        W95775  42.845  26.630  13.901
30615W        W95776  33.348  40.578   0.353
30616W        W95777  20.240  42.653   3.669
30617W        W95778  26.946  14.307  11.524
30618W        W95779  17.234   7.546   4.072
30619W        W95780   7.179   6.884  10.755
30620W        W95781  23.640  21.924   0.840
30621W        W95782   3.044  25.167   3.251
30622W        W95783   9.236  18.680  11.498
30623W        W95784  19.056  20.907  14.441
30624W        W95785  29.196   6.640   0.427
30625W        W95786  41.824  12.589  14.405
30626W        W95787  29.722  11.434  14.717
30627W        W95788  34.116  26.900  12.148
30628W        W95789  42.664  41.577   2.601
30629W        W95790  20.063  19.353   4.977
30630W        W95791   5.914  42.463  11.233
30631W        W95792  40.710  17.768   0.902
30632W        W95793  13.529  38.332   1.360
30633W        W95794  25.238   9.081  14.795
30634W        W95795  17.022  27.560  12.443
30635W        W95796  28.393  22.652  12.437
30636W        W95797  33.098  21.382  11.556
30637W        W95798   9.121  37.399  11.221
30638W        W95799   9.690  24.645   2.829
30639W        W95800  17.575  26.887  14.911
30640W        W95801  33.628  24.109   5.133
30641W        W95802  10.302  33.210  13.458
30642W        W95803  22.199   8.439  10.709
30643W        W95804  41.842   5.308   3.794
30644W        W95805  10.892   1.162  11.598
30645W        W95806  29.699  11.920  12.040
30646W        W95807  39.543  15.212  13.586
30647W        W95808  19.619   1.462  11.118
30648W        W95809  38.040  24.792   3.252
30649W        W95810  41.829  19.087   3.214
30650W        W95811   5.244   6.741   0.765
30651W        W95812   1.174  22.904   3.662
30652W        W95813  23.137   9.804   2.716
30653W        W95814  15.798  27.962   0.834
30654W        W95815  25.543  35.345   0.881
30655W        W95816   3.245   4.973  14.149
30656W        W95817  25.442  42.862  14.727
30657W        W95818  41.279  39.374   4.077
30658W        W95819  44.178  41.843  10.674
30659W        W95820  14.943  34.506   0.934
30660W        W95821  42.424  30.413   0.729
30661W        W95822  35.450  14.906  11.190
30662W        W95823   5.773  16.236   1.938
30663W        W95824  23.042  44.035   0.282
30664W        W95825  39.972  15.758   0.555
30665W        W95826  28.108  23.425  12.414
30666W        W95827   2.845  42.108  14.590
30667W        W95828  42.375   2.671  13.007
30668W        W95829  15.629  34.563   0.432
30669W        W95830  21.476  44.580  10.640
30670W        W95831   3.143  25.909   0.290
30671W        W95832  16.671  15.376  13.424
30672W        W95833  18.606  33.983   2.188
30673W        W95834  37.877  11.119  13.924
30674W        W95835  26.470  11.920  10.696
30675W        W95836  17.075   8.899   0.229
30676W        W95837  24.701   3.817  11.524
30677W        W95838  10.416  27.907  14.416
30678W        W95839   2.429   3.364   3.234
30679W        W95840  42.421   1.242  13.133
30680W        W95841   3.817  44.981  14.505
30681W        W95842  43.988  29.430  14.592
30682W        W95843  38.010  41.555  13.857
30683W        W95844  23.620  11.669  12.752
30684W        W95845   0.854  11.392  11.136
30685W        W95846  21.204  12.648   2.911
30686W        W95847  32.625  19.985   0.509
30687W        W95848  38.413  18.976  13.990
30688W        W95849   4.330  44.172   3.144
30689W        W95850  29.317  32.473   1.216
30690W        W95851  27.927   3.696  13.393
30691W        W95852  44.052  38.426  11.819
30692W        W95853  24.030  37.898  11.925
30693W        W95854  35.900  14.970  13.142
30694W        W95855  39.046  23.203   1.859
30695W        W95856  16.186  12.674   2.913
30696W        W95857  36.774  40.770  14.325
30697W        W95858  12.629  26.037  10.718
30698W        W95859  36.933  37.770   4.472
30699W        W95860  38.004  35.531   3.728
30700W        W95861  35.012  10.205   3.405
30701W        W95862  22.316  41.396   1.337
30702W        W95863   0.062  25.209   1.636
30703W        W95864  42.967  24.170   1.992
30704W        W95865   9.016  40.042  12.420
30705W        W95866  23.897  12.631  11.428
30706W        W95867  31.136   1.855   1.213
30707W        W95868  43.857   8.980  13.209
30708W        W95869  10.610  37.569   4.128
30709W        W95870  18.759  33.536  11.965
30710W        W95871  31.927  27.112   4.476
30711W        W95872   0.376   7.326  10.636
30712W        W95873  29.732  43.162   0.863
30713W        W95874  41.827  32.169  13.308
30714W        W95875  38.997   9.884   2.398
30715W        W95876  32.335  40.850  12.725
30716W        W95877  43.877  22.581  12.312
30717W        W95878  16.519  18.171   4.106
30718W        W95879  30.926   4.588  11.336
30719W        W95880   9.876  32.933   1.795
30720W        W95881  13.565  44.473   3.602
30721W        W95882   3.320  36.300   5.259
30722W        W95883  14.817  19.567  10.574
30723W        W95884  21.754  41.554   4.158
30724W        W95885  20.267  13.732   1.039
30725W        W95886  14.231  12.757   2.965
30726W        W95887  19.550  27.216  11.588
30727W        W95888  41.751   9.889  13.885
30728W        W95889  21.637  10.227  14.261
30729W        W95890  39.001  41.041  13.643
30730W        W95891  44.065  35.498   4.621
30731W        W95892   8.976  25.371  11.371
30732W        W95893  41.426  23.578  14.343
30733W        W95894  17.723   5.237  10.652
30734W        W95895  14.929  44.949  14.096
30735W        W95896  14.892  26.048  13.832
30736W        W95897   9.351  27.593   1.826
30737W        W95898  17.096  36.944   0.576
30738W        W95899  24.405  35.897  11.098
30739W        W95900  20.058  31.094   0.778
30740W        W95901  23.955  42.996  12.462
30741W        W95902  28.184  14.718   0.582
30742W        W95903  16.947  15.655   0.695
30743W        W95904  18.456  18.312  14.779
30744W        W95905  11.625   3.389   2.346
30745W        W95906  28.183  42.990  10.218
30746W        W95907  24.411  28.131   4.599
30747W        W95908  44.521  42.033  13.742
30748W        W95909  19.267  15.683  12.126
30749W        W95910  24.447  11.870  13.543
30750W        W95911  31.000  35.973   2.623
30751W        W95912   5.739  18.246   1.188
30752W        W95913  10.248  12.268   2.296
30753W        W95914   3.375  37.349   2.188
30754W        W95915  28.333   1.254   1.762
30755W        W95916  18.985   8.302   0.944
30756W        W95917  26.420  21.617   0.517
30757W        W95918  39.437   3.797   0.508
30758W        W95919   3.321   1.190  12.990
30759W        W95920  19.722  28.888   0.100
30760W        W95921   7.761  14.710   2.282
30761W        W95922  19.091  19.319  10.240
30762W        W95923  22.252  24.726   4.027
30763W        W95924   1.271  42.572  12.605
30764W        W95925   1.792   3.874  14.829
30765W        W95926  20.812   1.109   4.640
30766W        W95927   0.287  23.228   1.946
30767W        W95928   8.661   0.714  10.718
30768W        W95929  21.095   4.797   2.229
30769W        W95930  25.475  16.560  14.873
30770W        W95931  16.188  12.275  13.978
30771W        W95932  44.069  13.782   2.831
30772W        W95933  23.665  26.195   2.072
30773W        W95934  28.915  32.390  11.586
30774W        W95935  32.503  41.109   0.385
30775W        W95936   5.486  44.006  10.685
30776W        W95937  11.646  19.777   4.005
30777W        W95938  13.851  18.229  13.434
30778W        W95939  17.185   7.181   2.235
30779W        W95940  42.096  19.912  12.147
30780W        W95941   4.753  25.027  13.174
30781W        W95942  37.752  43.277   3.360
30782W        W95943   8.059  14.418  11.500
30783W        W95944  17.154  24.139   3.619
30784W        W95945  23.918  34.362   2.668
30785W        W95946  26.017  18.719   1.231
30786W        W95947  27.651  28.475  10.705
30787W        W95948   7.365   8.773   3.652
30788W        W95949  19.771  44.550  11.283
30789W        W95950   1.067  10.858   0.404
30790W        W95951   7.851  12.672   1.833
30791W        W95952  11.188  19.754   4.236
30792W        W95953   6.870  15.161  11.608
30793W        W95954  12.274  29.603   1.260
30794W        W95955   3.693  10.757  11.640
30795W        W95956  10.485  34.951   2.323
30796W        W95957  10.717   3.503  14.446
30797W        W95958   2.822  38.599   4.225
30798W        W95959   2.489  32.075  10.040
30799W        W95960  43.328  25.665   0.957
30800W        W95961  29.464  21.703  11.108
30801W        W95962  44.727  10.919   0.651
30802W        W95963  29.146  27.376   1.347
30803W        W95964  41.778  36.257   4.127
30804W        W95965  17.233  40.846  11.583
30805W        W95966  26.174  17.789   4.559
30806W        W95967  39.157   9.348   1.757
30807W        W95968  27.150  31.380   3.150
30808W        W95969   1.333  25.504   1.448
30809W        W95970  32.536  44.927  10.962
30810W        W95971   1.693  35.328   0.356
30811W        W95972  25.965  34.318   0.443
30812W        W95973  26.069   1.197  14.015
30813W        W95974  14.086   9.927   1.319
30814W        W95975  39.214   5.096   4.150
30815W        W95976  32.642  26.526   2.614
30816W        W95977   4.916  11.926  10.128
30817W        W95978  12.778  24.502   2.653
30818W        W95979  17.153  37.113   1.957
30819W        W95980  36.474  11.241   3.701
30820W        W95981  14.548   8.768  12.341
30821W        W95982  14.806  27.671   2.280
30822W        W95983  24.219   8.291   2.061
30823W        W95984  31.243  37.599   0.790
30824W        W95985  24.048  14.856   3.946
30825W        W95986   4.502  37.658   3.707
30826W        W95987  13.403  26.399  11.202
30827W        W95988  11.128  24.191   3.873
30828W        W95989   2.738  26.669   4.011
30829W        W95990  31.175  27.123  11.598
30830W        W95991  24.515  14.609   3.790
30831W        W95992   8.503  30.006  12.439
30832W        W95993  15.765   3.758   2.271
30833W        W95994   6.512  18.026  10.266
30834W        W95995  26.922   1.916   2.844
30835W        W95996  25.681  36.028   4.036
30836W        W95997  18.319  12.633  14.873
30837W        W95998   8.295  42.305  11.621
30838W        W95999  41.225  29.150   4.039
30839W        W96000  29.020   2.273   2.837
30840W        W96001   9.680  17.516   4.548
30841W        W96002   8.887  10.692   3.147
30842W        W96003  12.283  40.511   0.693
30843W        W96004  35.624  38.084   3.627
30844W        W96005  14.623  25.174   3.620
30845W        W96006  28.891   3.448   0.371
30846W        W96007  40.921  23.030   4.296
30847W        W96008  36.669  13.187  11.502
30848W        W96009  31.783   6.315   1.828
30849W        W96010   4.272  12.721  13.912
30850W        W96011   8.628  15.084   2.194
30851W        W96012  29.106  37.550  10.954
30852W        W96013  34.758  43.514  13.067
30853W        W96014  15.637  28.073  13.883
30854W        W96015   0.868  16.153   1.684
30855W        W96016  14.998  15.077   1.323
30856W        W96017   9.870   5.365   0.693
30857W        W96018  43.109  10.729   1.346
30858W        W96019  39.038   5.699   1.432
30859W        W96020  13.055  13.082  13.013
30860W        W96021  38.533  39.176  11.154
30861W        W96022  18.637   6.346   1.628
30862W        W96023  21.162  39.039  10.100
30863W        W96024  32.621  28.239   1.896
30864W        W96025  26.918   1.754  11.141
30865W        W96026  22.142  14.180   2.198
30866W        W96027  37.781  35.764   2.333
30867W        W96028  30.957  26.929  14.417
30868W        W96029  20.676  30.176  13.734
30869W        W96030  42.045  14.647   1.242
30870W        W96031  18.135  23.937  11.294
30871W        W96032  39.608  36.707   1.075
30872W        W96033  32.872  35.492   0.415
30873W        W96034  41.146  25.950  11.619
30874W        W96035  26.946  25.770   3.754
30875W        W96036  34.170  27.989   4.333
30876W        W96037  40.784  33.859  14.731
30877W        W96038   7.961  23.141   2.880
30878W        W96039  44.893   0.289  12.851
30879W        W96040  18.031  29.662   4.574
30880W        W96041  22.080   5.327  11.482
30881W        W96042  18.947  12.222  12.415
30882W        W96043  34.921  25.980  11.937
30883W        W96044  42.260   5.893   2.744
30884W        W96045  43.362  10.136   0.923
30885W        W96046   0.394  23.780   4.157
30886W        W96047  13.725  18.502   4.273
30887W        W96048   5.345   7.227  11.058
30888W        W96049   1.465   0.793   0.746
30889W        W96050   0.857  43.471  13.909
30890W        W96051  30.578   2.984   0.101
30891W        W96052  21.947  17.793   0.530
30892W        W96053  30.297  33.211   1.924
30893W        W96054  39.070  19.480   0.540
30894W        W96055  13.177  29.457   3.206
30895W        W96056  31.093  25.121   4.326
30896W        W96057  38.512  25.890  13.354
30897W        W96058  24.277  19.208   4.972
30898W        W96059   5.174  33.949  11.087
30899W        W96060  20.250  44.049   2.768
30900W        W96061   6.943  18.865  14.252
30901W        W96062  16.676  38.793   5.388
30902W        W96063  19.481  25.906  11.202
30903W        W96064   1.491  34.002   1.204
30904W        W96065  29.371  11.761   5.023
30905W        W96066  24.955  16.161   1.161
30906W        W96067  44.407  24.987   4.677
30907W        W96068  14.255  15.571   2.682
30908W        W96069   3.017  11.800  10.033
30909W        W96070  36.170   9.852  12.281
30910W        W96071  13.287  44.444   1.265
30911W        W96072   9.720  24.083   4.632
30912W        W96073   0.306  27.106   4.525
30913W        W96074  26.581   9.624  13.497
30914W        W96075   1.947  21.085   1.204
30915W        W96076  29.714  13.566  11.546
30916W        W96077  25.648  40.387  10.473
30917W        W96078  38.221   6.281   1.232
30918W        W96079  20.817   6.224   2.402
30919W        W96080  24.559  19.514  13.973
30920W        W96081   6.138  15.417   0.405
30921W        W96082  21.568  14.538   1.346
30922W        W96083  35.403   4.140  14.047
30923W        W96084   1.763  19.951   0.363
30924W        W96085  23.747  41.462   2.781
30925W        W96086  15.891  25.058   1.848
30926W        W96087  31.958   3.832   1.033
30927W        W96088  43.053   2.757   4.569
30928W        W96089  44.514  13.428   5.033
30929W        W96090  12.133  13.674   1.298
30930W        W96091  29.048   3.495   3.684
30931W        W96092  24.668  16.062   4.631
30932W        W96093  15.102  28.924  11.553
30933W        W96094   6.041  13.343  14.458
30934W        W96095   7.708  34.032  13.099
30935W        W96096  24.040  38.133   9.734
30936W        W96097  20.874  15.271  13.363
30937W        W96098   0.158   2.969  11.481
30938W        W96099  19.846   2.363  13.995
30939W        W96100   6.503  34.468  12.858
30940W        W96101  29.037   0.078  13.867
30941W        W96102  44.448  34.087  14.321
30942W        W96103  22.139  32.415  11.320
30943W        W96104  37.590  32.365  14.747
30944W        W96105  29.940  38.317   3.792
30945W        W96106  27.700  29.639   3.789
30946W        W96107  12.148   9.366  13.958
30947W        W96108  22.289  13.232   0.290
30948W        W96109  31.035   3.691   3.216
30949W        W96110  39.112  26.520   2.345
30950W        W96111  10.428  24.288   1.986
30951W        W96112  31.642   2.357  12.428
30952W        W96113  29.648  25.373  11.887
30953W        W96114  25.864  12.668  10.334
30954W        W96115  24.903  27.130   1.481
30955W        W96116  24.746  42.967  10.412
30956W        W96117   3.304  43.330  11.175
30957W        W96118  20.586   4.346  12.137
30958W        W96119  15.587  11.179  11.139
30959W        W96120  24.016  24.958   4.173
30960W        W96121  13.860  29.343  14.885
30961W        W96122  42.832   7.128  11.643
30962W        W96123  12.537  19.450   2.659
30963W        W96124  35.297  32.997   1.769
30964W        W96125  17.576   1.874   3.391
30965W        W96126  41.421  12.911  14.284
30966W        W96127  34.039  22.706   5.098
30967W        W96128   0.926   3.760  13.795
30968W        W96129  34.167  14.214   2.517
30969W        W96130  25.550   0.468   0.343
30970W        W96131  17.750  25.179   4.727
30971W        W96132   0.891   6.394   0.260
30972W        W96133  39.520  33.051  10.583
30973W        W96134  27.772  26.814  10.071
30974W        W96135   6.724  15.418  13.307
30975W        W96136   5.402  31.906   4.248
30976W        W96137  31.406  39.377   9.541
30977W        W96138  21.232   8.329   2.502
30978W        W96139  28.867   4.375   0.272
30979W        W96140   0.882  33.451   2.618
30980W        W96141  42.329  28.990   0.356
30981W        W96142  13.140  22.904   5.108
30982W        W96143   1.182  41.805   0.275
30983W        W96144   0.936   2.004   3.801
30984W        W96145  29.863   6.997   4.066
30985W        W96146  30.160  18.315  14.332
30986W        W96147  20.660  22.614   2.782
30987W        W96148  29.484  18.275   1.256
30988W        W96149  33.004  20.316   4.171
30989W        W96150  29.887  32.396  14.503
30990W        W96151  27.592  20.909   2.818
30991W        W96152  43.645  18.940  11.193
30992W        W96153  15.315   7.056   4.598
30993W        W96154  41.996  22.014   0.019
30994W        W96155  23.501  23.238   0.356
30995W        W96156  19.880  41.260  12.231
30996W        W96157  40.532   6.292   3.449
30997W        W96158   8.490  40.396   0.912
30998W        W96159  34.976  32.610  11.132
30999W        W96160  28.998  29.345   3.134
31000W        W96161  39.891  35.421  12.107
31001W        W96162  38.428  25.451   2.780
31002W        W96163  27.227  33.588   2.337
31003W        W96164   9.751  29.016   1.680
31004W        W96165  35.482   2.641  10.660
31005W        W96166  10.166  10.705   4.493
31006W        W96167  39.005   6.403   1.406
31007W        W96168  43.492  35.563  14.837
31008W        W96169   2.688   4.001  13.380
31009W        W96170  25.262  42.410   2.655
31010W        W96171  30.592  19.964   0.807
31011W        W96172  44.885   7.786   1.051
31012W        W96173  21.132  43.823   1.917
31013W        W96174   4.256   4.857   4.347
31014W        W96175  22.293  40.932  13.958
31015W        W96176   3.901   8.445   3.177
31016W        W96177  34.339   8.293  12.717
31017W        W96178  33.181  29.631   4.193
31018W        W96179  39.600  21.089  13.748
31019W        W96180  42.231  11.241  11.585
31020W        W96181  27.084  41.882  12.860
31021W        W96182  15.697  36.454  12.442
31022W        W96183   5.896  27.433  13.468
31023W        W96184   1.795  40.921  11.258
31024W        W96185  26.766  21.627   5.009
31025W        W96186  15.698  29.239   4.126
31026W        W96187  44.254  36.961   1.754
31027W        W96188  40.357  27.567  14.885
31028W        W96189  17.134  41.888  13.601
31029W        W96190  43.887  13.673  10.546
31030W        W96191  39.441  36.393   4.604
31031W        W96192  16.129  41.953   1.771
31032W        W96193  14.221  31.322   3.482
31033W        W96194  19.001  19.200  12.375
31034W        W96195  29.881  24.161   0.933
31035W        W96196  21.050  10.562   1.300
31036W        W96197  44.139  25.743   3.691
31037W        W96198   1.277   2.344   1.484
31038W        W96199   0.503  37.925   4.958
31039W        W96200  28.991  25.674  12.427
31040W        W96201  33.865  34.467   2.250
31041W        W96202  35.369  13.923  11.316
31042W        W96203  13.779  20.425  13.070
31043W        W96204  32.121  40.956  13.163
31044W        W96205  27.039   3.045  14.544
31045W        W96206  42.289   9.182  11.542
31046W        W96207  19.600   7.654   2.199
31047W        W96208  30.228  22.550   2.680
31048W        W96209  44.437  37.384   0.465
31049W        W96210  20.162  37.903  10.953
31050W        W96211   7.734   6.762  14.268
31051W        W96212  34.379  19.087  14.645
31052W        W96213  10.535  29.829   1.391
31053W        W96214  27.958  12.271   4.443
31054W        W96215  28.630   0.501  13.091
31055W        W96216  34.618  34.278  12.729
31056W        W96217  16.353  30.472  10.652
31057W        W96218   8.721  17.233  12.587
31058W        W96219  28.768  10.336  14.284
31059W        W96220  35.168   0.343  11.659
31060W        W96221  17.288  13.035  13.238
31061W        W96222  34.814  25.637   3.974
31062W        W96223   5.081   2.518  13.585
31063W        W96224   6.564  21.217   0.453
31064W        W96225  37.613  13.647   1.964
31065W        W96226  13.289  38.993  11.959
31066W        W96227  42.617  27.839   0.710
31067W        W96228  20.053  13.982   4.548
31068W        W96229  43.855  10.888   3.357
31069W        W96230  13.656  38.201  10.799
31070W        W96231  18.142   8.862   1.438
31071W        W96232  21.111  42.517   2.820
31072W        W96233  12.286  39.849  11.003
31073W        W96234  24.340  41.146   0.370
31074W        W96235  38.229   2.961  11.783
31075W        W96236  17.236  13.119  13.749
31076W        W96237  11.823   4.581  11.107
31077W        W96238  21.545  10.502  13.848
31078W        W96239   3.883  19.013   4.003
31079W        W96240  29.634  39.036  13.596
31080W        W96241  31.436  41.674   1.309
31081W        W96242  31.014  18.215   3.311
31082W        W96243  30.000  16.450  14.348
31083W        W96244  33.577  19.790  10.281
31084W        W96245  44.930  19.833  12.141
31085W        W96246  39.811  29.610  10.709
31086W        W96247  37.724   6.904  14.310
31087W        W96248  18.416  16.591   3.071
31088W        W96249  40.814   0.114   0.358
31089W        W96250  38.825  43.006   2.137
31090W        W96251  29.088   7.364   2.330
31091W        W96252  26.547  31.647  13.037
31092W        W96253  13.439  34.419  11.239
31093W        W96254  30.602  28.134  14.442
31094W        W96255  27.461  24.455  14.982
31095W        W96256  22.915  41.287  12.042
31096W        W96257   2.788  11.797  13.575
31097W        W96258  30.336   5.850  12.911
31098W        W96259  28.174  16.541  11.762
31099W        W96260  42.442  30.711   1.729
31100W        W96261  24.078   0.812  11.656
31101W        W96262   5.429   0.801  14.594
31102W        W96263  21.992  43.548   2.901
31103W        W96264  31.351  38.608   1.881
31104W        W96265  26.675  41.113   0.758
31105W        W96266  10.099  21.365  11.147
31106W        W96267  18.609  19.139  10.313
31107W        W96268   7.916   5.883  14.901
31108W        W96269  29.951  25.392  14.424
31109W        W96270  37.327  33.186  11.193
31110W        W96271  39.206   5.166   1.247
31111W        W96272  34.997  28.979   1.770
31112W        W96273  13.181  16.311  14.836
31113W        W96274  27.216   7.746  13.323
31114W        W96275  37.444   8.285   3.327
31115W        W96276  29.097  19.621  10.619
31116W        W96277  15.817  18.019  12.373
31117W        W96278  41.400  43.562  13.826
31118W        W96279  30.861  28.482  14.053
31119W        W96280  19.535  35.884   4.502
31120W        W96281  35.442  39.369  11.430
31121W        W96282   1.277  38.375   0.380
31122W        W96283  18.765  36.573  13.838
31123W        W96284  31.892  26.611  11.629
31124W        W96285  13.868   6.237   0.832
31125W        W96286  18.087  28.288   1.790
31126W        W96287  33.563  16.715   1.920
31127W        W96288  11.468  25.201   2.101
31128W        W96289  24.627  42.309  13.443
31129W        W96290  42.399   3.055  14.965
31130W        W96291  16.165  18.924  12.447
31131W        W96292  26.284   9.810   4.479
31132W        W96293  19.658  28.048   2.957
31133W        W96294   0.005   2.416  11.103
31134W        W96295   8.559  21.860  13.841
31135W        W96296  37.574  23.060   3.590
31136W        W96297  37.798  37.426  13.323
31137W        W96298  26.090  22.248  10.709
31138W        W96299  43.939  34.591   5.498
31139W        W96300  40.823  39.121   4.249
31140W        W96301  22.675  35.515   4.967
31141W        W96302  33.102   5.140  12.904
31142W        W96303  11.333  18.653  12.048
31143W        W96304  21.648  11.837  12.609
31144W        W96305  39.930   2.183   2.353
31145W        W96306  42.951   0.774  11.500
31146W        W96307   3.410  29.281   4.628
31147W        W96308  19.975  44.145  14.314
31148W        W96309  15.809   8.544   2.400
31149W        W96310  31.822  42.185  14.526
31150W        W96311  43.860  10.240   1.268
31151W        W96312  25.635  34.331   0.883
31152W        W96313   1.802  10.865  11.053
31153W        W96314  38.570  43.701   3.330
31154W        W96315  19.147  24.215  12.177
31155W        W96316  22.671   7.216  11.721
31156W        W96317  32.535  26.350  13.786
31157W        W96318  13.566  22.853  13.340
31158W        W96319  22.520   0.549   1.041
31159W        W96320  14.212  15.403   4.658
31160W        W96321  22.239  39.524  13.660
31161W        W96322  37.329  19.138  11.488
31162W        W96323   4.324  29.747  11.007
31163W        W96324   8.294  43.287   3.822
31164W        W96325  11.248  36.907  11.134
31165W        W96326   7.998  41.452   1.695
31166W        W96327  35.363  33.323   3.635
31167W        W96328  16.731  10.423   2.770
31168W        W96329   5.692  38.588   2.865
31169W        W96330  28.050  41.780   3.711
31170W        W96331   1.063  23.567  13.256
31171W        W96332  27.525  28.525  14.323
31172W        W96333  34.440  19.674   2.326
31173W        W96334  31.938  18.640  14.821
31174W        W96335  25.648  28.840  10.651
31175W        W96336   3.951  22.277   3.231
31176W        W96337   8.598  42.604   1.967
31177W        W96338  38.669  32.904  11.171
31178W        W96339  35.415  16.690  11.169
31179W        W96340  28.240   9.571  10.703
31180W        W96341  44.294  14.621  10.652
31181W        W96342  35.462  27.663  14.323
31182W        W96343   4.884  11.661  12.080
31183W        W96344  21.591  42.683   2.817
31184W        W96345  24.659  15.232  14.644
31185W        W96346   2.748  28.448  12.362
31186W        W96347   1.471  14.624   1.181
31187W        W96348  34.970  39.753   2.756
31188W        W96349  13.290  12.998   1.345
31189W        W96350  23.551   8.254   4.738
31190W        W96351  18.751   9.868   1.329
31191W        W96352   3.956  35.182  10.713
31192W        W96353  19.263   3.966   4.707
31193W        W96354  25.756   5.144   4.031
31194W        W96355  13.835  20.925   4.676
31195W        W96356   4.758  24.438   0.155
31196W        W96357  27.079  21.118  11.877
31197W        W96358   8.265  41.528  12.137
31198W        W96359  29.327  25.578  14.858
31199W        W96360  32.668  36.953  14.321
31200W        W96361   3.736   8.960   1.916
31201W        W96362  43.720  31.144  14.067
31202W        W96363  22.163   3.616  10.854
31203W        W96364  13.118  18.707   4.407
31204W        W96365   6.696  14.751   1.163
31205W        W96366  42.373  40.509   0.871
31206W        W96367   9.823  16.104   2.907
31207W        W96368  29.470  34.792   4.838
31208W        W96369  21.677  44.464   2.854
31209W        W96370  13.862  35.374  14.459
31210W        W96371  17.120  28.155  10.650
31211W        W96372  21.937  38.482  13.354
31212W        W96373  42.713  26.093  14.809
31213W        W96374   8.725  35.701   3.273
31214W        W96375   6.764   2.003   4.196
31215W        W96376  36.938  13.661  12.067
31216W        W96377   2.712  24.271  14.387
31217W        W96378   4.617  37.972   0.400
31218W        W96379   0.501  27.660   0.923
31219W        W96380  19.769   5.736   4.411
31220W        W96381  43.622   4.467  12.992
31221W        W96382  40.686   4.101   0.874
31222W        W96383  21.656  27.056  12.035
31223W        W96384  36.443  25.510   4.334
31224W        W96385   1.196  29.536  13.435
31225W        W96386  32.685  34.345  10.521
31226W        W96387   4.597  44.210  14.445
31227W        W96388   9.365  19.477  13.295
31228W        W96389  33.928  19.360  11.189
31229W        W96390  27.664   0.752   3.138
31230W        W96391  19.581   1.028   4.928
31231W        W96392  34.532  24.105  11.846
31232W        W96393  11.087   7.850   1.836
31233W        W96394  25.027  30.846   3.288
31234W        W96395  33.376  24.238   2.440
31235W        W96396  32.715  32.324  13.376
31236W        W96397  23.580  30.938   2.227
31237W        W96398  26.400  40.409   0.072
31238W        W96399  22.776  33.073  10.310
31239W        W96400  13.754   8.320   1.256
31240W        W96401  14.789  16.000   4.016
31241W        W96402  19.783  16.564  14.505
31242W        W96403  19.787  25.897   1.653
31243W        W96404  33.311  42.902  10.608
31244W        W96405  36.082  28.473  14.895
31245W        W96406  17.759  25.598   4.383
31246W        W96407  26.392  11.165   2.032
31247W        W96408  20.295  42.567   5.384
31248W        W96409  15.087  40.571   1.274
31249W        W96410  41.218  23.993   1.202
31250W        W96411   0.660   4.294  12.010
31251W        W96412   8.728   6.458   0.487
31252W        W96413  44.844  33.060   1.235
31253W        W96414  32.669  29.083   2.124
31254W        W96415  24.996  43.953   3.566
31255W        W96416   6.243  31.940  11.607
31256W        W96417  22.842  19.790  11.568
31257W        W96418  22.256  15.045   3.199
31258W        W96419  20.502  26.331   4.421
31259W        W96420  35.923  15.253   2.508
31260W        W96421  33.799  20.645  11.608
31261W        W96422  25.064  30.165  10.619
31262W        W96423  12.058  16.182  14.462
31263W        W96424  42.882  41.397   0.432
31264W        W96425  11.563  34.497  12.157
31265W        W96426  10.178  29.274   9.932
31266W        W96427   0.828  17.421  14.409
31267W        W96428  29.174  17.398  13.959
31268W        W96429  15.788   6.759   1.624
31269W        W96430  26.653  18.331   2.221
31270W        W96431  37.873  26.889  10.438
31271W        W96432  44.437   0.088   4.615
31272W        W96433  41.999  34.240   2.896
31273W        W96434   9.050  28.961   0.806
31274W        W96435  29.005  42.000  14.350
31275W        W96436   0.790  42.653  11.470
31276W        W96437  41.522  17.585   2.193
31277W        W96438  10.593  42.878   4.034
31278W        W96439  38.037  35.785  13.532
31279W        W96440  26.158  33.048  14.827
31280W        W96441  40.887   7.201   2.099
31281W        W96442  44.778  38.650   2.238
31282W        W96443  12.197   0.369   2.350
31283W        W96444  35.592   8.484  13.394
31284W        W96445  10.663   2.511  14.289
31285W        W96446  44.759  33.731   3.089
31286W        W96447  44.847  18.214   0.136
31287W        W96448   4.304  33.114  12.449
31288W        W96449   6.782  10.334   3.173
31289W        W96450  44.458  42.320  11.100
31290W        W96451  42.051  12.798   1.943
31291W        W96452  22.974  13.384   4.166
31292W        W96453  23.594  29.180  13.100
31293W        W96454  28.166  36.750  11.116
31294W        W96455  31.390  32.974  10.769
31295W        W96456  31.187  44.872  11.518
31296W        W96457  25.053  16.057  10.234
31297W        W96458  23.142  42.142   1.126
31298W        W96459   2.243  11.799  12.906
31299W        W96460  19.107   9.559  11.232
31300W        W96461  30.585  15.746  12.631
31301W        W96462  14.825   1.015  12.047
31302W        W96463  33.822  33.667  11.033
31303W        W96464   6.958  29.626   9.825
31304W        W96465  42.007  19.823   0.272
31305W        W96466  12.273  37.751  12.456
31306W        W96467  39.574  20.845  13.260
31307W        W96468   7.250  34.925  11.875
31308W        W96469  24.204  41.085  12.616
31309W        W96470  34.346  22.539   3.203
31310W        W96471  39.860  10.351  12.000
31311W        W96472  33.581  15.228  13.583
31312W        W96473  23.167  42.775  13.013
31313W        W96474  39.462  42.980   1.392
31314W        W96475  12.202  38.131   1.936
31315W        W96476  13.315  43.810   0.552
31316W        W96477   0.201  20.228   2.782
31317W        W96478   5.413  21.148  12.067
31318W        W96479  25.276  30.656   2.446
31319W        W96480   4.262  40.506  13.243
31320W        W96481  25.641   7.263  13.827
31321W        W96482  21.688  32.426   3.525
31322W        W96483  10.206  28.874  10.513
31323W        W96484  33.016  14.728  12.108
31324W        W96485  14.871  35.336   0.981
31325W        W96486  20.053  23.642   5.378
31326W        W96487  40.080  21.063  13.958
31327W        W96488   4.723  44.692   3.599
31328W        W96489  15.229  27.121   2.280
31329W        W96490  19.238  12.642  14.916
31330W        W96491  21.260  22.226   2.196
31331W        W96492  36.998  43.515   2.251
31332W        W96493  30.144  25.245   4.154
31333W        W96494  38.100   7.727   2.879
31334W        W96495  31.496   5.665   0.998
31335W        W96496  14.843  16.203   5.025
31336W        W96497  14.833  26.541   0.255
31337W        W96498  33.075  14.306  12.755
31338W        W96499   0.301  26.140   4.556
31339W        W96500   4.686   6.789  14.853
31340W        W96501  41.060  11.431   1.298
31341W        W96502  25.125  24.165   3.223
31342W        W96503  43.719  26.111  11.338
31343W        W96504  12.993   9.017   3.814
31344W        W96505  35.328   0.068  11.217
31345W        W96506  13.121  36.432   4.864
31346W        W96507  23.226  22.890  12.144
31347W        W96508  30.452  40.993   0.334
31348W        W96509  25.577  36.001  12.979
31349W        W96510  21.693  23.068  12.743
31350W        W96511  12.513  41.542  12.652
31351W        W96512  34.888   0.397   1.980
31352W        W96513  15.045   1.451  13.476
31353W        W96514  13.389  14.086  12.948
31354W        W96515  37.742  40.644   3.306
31355W        W96516  44.507  23.717   2.306
31356W        W96517  11.730  14.349   4.629
31357W        W96518  19.808  26.569  12.553
31358W        W96519  31.299  18.749  10.182
31359W        W96520  15.712  39.293  14.778
31360W        W96521  31.805  33.163  11.013
31361W        W96522   8.171  19.331  10.667
31362W        W96523  28.326  44.147   1.269
31363W        W96524   3.359   9.311  10.836
31364W        W96525  44.367  22.606  12.083
31365W        W96526  30.069  19.456  10.203
31366W        W96527  40.314   2.668  13.424
31367W        W96528  17.282  20.981   3.448
31368W        W96529   5.704  32.475  10.731
31369W        W96530  36.285  36.216   3.297
31370W        W96531  40.117  12.803   3.635
31371W        W96532  19.460  42.954  12.977
31372W        W96533   3.374   3.835   0.808
31373W        W96534  24.738   2.438  13.087
31374W        W96535  35.621  12.577  14.943
31375W        W96536  32.110  25.729  11.705
31376W        W96537  41.465  21.905  14.234
31377W        W96538  26.181  43.523  14.927
31378W        W96539  31.895   8.664   2.958
31379W        W96540  24.717   2.724  11.855
31380W        W96541  32.139  21.133   1.342
31381W        W96542  11.136   5.401   1.896
31382W        W96543   3.450  32.485   4.163
31383W        W96544  37.844  36.760   0.995
31384W        W96545   2.175  11.834  14.812
31385W        W96546   4.836  23.688  10.791
31386W        W96547  32.546  10.528   3.563
31387W        W96548  41.904   1.689  10.349
31388W        W96549  16.520  35.111  10.964
31389W        W96550  11.352  21.745   2.423
31390W        W96551  16.606   6.429   2.133
31391W        W96552  38.710  15.545   2.008
31392W        W96553  26.671  23.648   9.792
31393W        W96554  39.429  17.650  12.045
31394W        W96555  18.515   3.403   1.629
31395W        W96556  21.790  14.482  13.007
31396W        W96557  40.520  32.015  12.499
31397W        W96558   3.011  16.564   1.829
31398W        W96559   6.388  22.309  12.379
31399W        W96560  15.614  24.599  14.402
31400W        W96561  13.633  35.823   1.985
31401W        W96562  43.343  36.793  13.158
31402W        W96563  44.795   6.438  10.582
31403W        W96564  28.467   2.319  11.693
31404W        W96565  30.783  31.397   1.840
31405W        W96566  32.957   5.285   0.921
31406W        W96567  42.132  39.669  10.152
31407W        W96568  22.502  24.896  14.325
31408W        W96569  17.189   5.102  13.706
31409W        W96570  39.857  11.507  12.753
31410W        W96571  12.917  14.193   3.733
31411W        W96572  20.367  38.570   1.426
31412W        W96573  27.556  38.788   0.906
31413W        W96574   2.651  22.737   4.747
31414W        W96575  36.595   8.944  10.455
31415W        W96576  10.803  10.484   1.256
31416W        W96577  29.914  42.928   4.055
31417W        W96578  34.955   4.963   1.254
31418W        W96579   1.783   0.448  13.080
31419W        W96580  34.601  27.436  13.802
31420W        W96581  16.827  23.865   0.205
31421W        W96582  22.512  39.687  14.633
31422W        W96583  31.280  36.826   0.387
31423W        W96584  35.253  25.410   0.307
31424W        W96585   3.347  30.345   2.726
31425W        W96586  21.429  13.167  10.550
31426W        W96587  31.878   5.897   3.176
31427W        W96588   8.266  39.068   4.024
31428W        W96589  43.451  44.768  13.921
31429W        W96590  32.452  22.825   3.000
31430W        W96591  32.662  23.085  14.762
31431W        W96592  42.889  12.280  12.001
31432W        W96593  44.199  11.691  11.901
31433W        W96594   1.510  29.393  12.009
31434W        W96595  38.336  41.040   2.810
31435W        W96596  40.376   5.719  14.050
31436W        W96597  38.556  21.083  14.299
31437W        W96598  34.286  17.515   1.825
31438W        W96599  28.836  29.484   4.793
31439W        W96600  27.680  26.960  14.028
31440W        W96601  19.210  15.767  11.126
31441W        W96602   5.673  32.986   2.648
31442W        W96603   3.006  15.848   0.519
31443W        W96604  44.244  36.146  12.674
31444W        W96605  29.932   1.745   2.837
31445W        W96606  35.937  18.396   0.269
31446W        W96607  21.111  17.047   3.697
31447W        W96608  38.078  15.049   0.206
31448W        W96609  23.766  32.648   2.335
31449W        W96610   2.919  19.215   0.469
31450W        W96611   3.487  34.105   0.409
31451W        W96612  17.245  26.054  12.035
31452W        W96613  14.334  31.486  12.030
31453W        W96614   4.819  40.117  11.524
31454W        W96615  22.323  37.850   4.634
31455W        W96616   6.718   2.197   3.719
31456W        W96617   0.199  17.791   0.034
31457W        W96618   3.688  31.521   3.036
31458W        W96619   8.763  26.596   1.342
31459W        W96620  38.410  39.806  13.341
31460W        W96621  11.600  10.073  13.592
31461W        W96622   3.641  35.921   5.003
31462W        W96623   8.804  27.224   3.214
31463W        W96624  34.997  13.616  14.122
31464W        W96625  22.801   5.050   2.342
31465W        W96626   8.962  42.517   4.520
31466W        W96627  13.450  11.718  10.900
31467W        W96628  28.001  17.896  11.911
31468W        W96629  28.997  34.061   4.574
31469W        W96630   2.763   3.132  11.620
31470W        W96631   7.981  21.968  10.782
31471W        W96632  16.367  21.806  12.476
31472W        W96633  33.824  19.749   3.215
31473W        W96634  41.986  15.442  14.912
31474W        W96635  13.292   4.613   1.913
31475W        W96636  10.262  29.411  11.867
31476W        W96637  22.612   3.156   3.245
31477W        W96638  38.060  22.265   2.078
31478W        W96639  31.471   2.240  13.746
31479W        W96640  44.936  19.392  11.189
31480W        W96641  16.151  28.126   4.683
31481W        W96642  26.639  21.544   3.647
31482W        W96643  28.478  35.462   4.414
31483W        W96644  42.571  41.962   1.145
31484W        W96645  39.127  27.744   2.800
31485W        W96646   5.587  38.437   4.376
31486W        W96647  27.604  10.428  10.182
31487W        W96648  40.610  29.844   2.650
31488W        W96649  21.671  15.511   0.387
31489W        W96650   2.768  29.226   2.372
31490W        W96651  44.005   8.416  12.503
31491W        W96652  29.408  41.726   4.990
31492W        W96653  44.517  38.130  10.736
31493W        W96654  10.665  21.303   0.506
31494W        W96655  37.355   8.349  12.796
31495W        W96656  32.887  40.955  14.607
31496W        W96657   4.129   8.124  11.112
31497W        W96658  17.068  27.639   3.381
31498W        W96659  36.400  40.912   4.441
31499W        W96660   7.728   6.102  12.263
31500W        W96661   6.196  21.574   1.271
31501W        W96662   7.955  32.698  12.391
31502W        W96663  16.194  29.957  13.578
31503W        W96664  36.225  16.041  11.197
31504W        W96665  34.917  16.071  11.684
31505W        W96666  13.099  38.624   4.005
31506W        W96667  44.250  42.862  13.547
31507W        W96668  18.649   1.454   4.180
31508W        W96669  26.966  35.171   4.243
31509W        W96670  34.987   3.710   4.532
31510W        W96671  10.451  18.973  12.054
31511W        W96672  23.490  23.662   4.115
31512W        W96673  12.367  10.209   3.573
31513W        W96674   6.353  38.632   2.329
31514W        W96675  42.853  38.502   2.287
31515W        W96676   6.896  25.121  11.993
31516W        W96677  39.481  12.366   3.214
31517W        W96678  11.331  20.585  11.100
31518W        W96679  29.066  35.674  14.388
31519W        W96680   5.875  36.502   0.039
31520W        W96681  35.609  22.024  14.715
31521W        W96682  34.921  36.229  12.853
31522W        W96683  24.831  26.538  12.576
31523W        W96684  44.930  14.616   4.537
31524W        W96685   6.612  14.597  13.086
31525W        W96686   5.909  24.115  13.166
31526W        W96687  42.403  12.016  11.572
31527W        W96688  24.825  43.721   2.210
31528W        W96689   9.311  20.303  14.912
31529W        W96690  16.195   9.142   1.011
31530W        W96691  34.849   9.453  10.385
31531W        W96692   6.714  11.017   0.441
31532W        W96693  17.707   4.403   3.814
31533W        W96694  33.923  13.842   2.291
31534W        W96695  12.900  18.512  13.454
31535W        W96696  37.291  33.073  12.541
31536W        W96697   3.339  41.732   2.158
31537W        W96698  21.990  38.034  11.103
31538W        W96699  35.286  41.969   2.247
31539W        W96700  42.032  28.178  10.795
31540W        W96701  31.525  11.205  14.531
31541W        W96702  12.783  31.146  11.420
31542W        W96703  10.169  34.883  14.385
31543W        W96704  12.278  29.003  11.171
31544W        W96705  20.751   9.053  12.850
31545W        W96706   3.799  22.838   0.913
31546W        W96707  35.414  11.870  12.640
31547W        W96708  16.580   0.867  11.540
31548W        W96709   6.944  27.634   4.351
31549W        W96710  39.570  43.265   0.146
31550W        W96711  13.579  41.414   2.420
31551W        W96712  16.241  22.822  10.367
31552W        W96713  40.410  14.172  13.744
31553W        W96714  42.765  38.113   4.598
31554W        W96715  20.362  43.971   9.887
31555W        W96716  22.096  42.849   0.876
31556W        W96717  10.914  39.834  12.136
31557W        W96718   1.346  11.953   3.756
31558W        W96719   7.554   9.854   2.124
31559W        W96720   9.335   1.655   3.604
31560W        W96721  18.305  26.478   1.816
31561W        W96722  33.628  36.999   1.854
31562W        W96723  31.971  23.154  14.538
31563W        W96724  37.537  15.118   1.627
31564W        W96725   7.183  10.275  11.478
31565W        W96726  44.802  26.421  13.094
31566W        W96727  20.736   8.958   3.248
31567W        W96728  38.565  14.044  13.054
31568W        W96729  11.611  27.947   1.227
31569W        W96730   2.391  32.067  12.089
31570W        W96731  41.470  13.338   4.588
31571W        W96732  41.560   3.001   2.710
31572W        W96733  13.629  11.977  13.466
31573W        W96734   0.718  37.365  11.024
31574W        W96735   2.347  20.247  11.893
31575W        W96736  18.264  11.433   1.377
31576W        W96737   6.208  33.312  11.582
31577W        W96738   5.332   9.975  12.337
31578W        W96739  28.043  10.630   4.257
31579W        W96740  27.101   4.936   2.778
31580W        W96741  33.500   7.845   4.596
31581W        W96742  17.816   2.377   4.147
31582W        W96743  21.307  28.127   0.713
31583W        W96744   0.328  21.140  13.936
31584W        W96745  26.524   2.494   3.242
31585W        W96746  27.469   3.664  12.449
31586W        W96747   5.349   8.459  14.318
31587W        W96748  13.135  32.636  11.456
31588W        W96749  11.451  16.189   3.646
31589W        W96750  40.820  13.152  14.421
31590W        W96751  22.265   9.863  13.067
31591W        W96752  32.824  14.485   1.214
31592W        W96753   2.158  35.530   0.398
31593W        W96754  36.339   6.872   2.735
31594W        W96755  27.180  39.355  12.946
31595W        W96756  28.030  29.539  10.999
31596W        W96757  21.435   9.807  14.469
31597W        W96758  19.835  11.823   1.316
31598W        W96759   7.192  43.462   0.334
31599W        W96760  39.151  15.963   5.013
31600W        W96761   4.270  23.683   4.961
31601W        W96762  22.949  29.181   2.859
31602W        W96763  28.816   2.201  14.465
31603W        W96764  26.196  20.833   3.838
31604W        W96765  41.351  20.984  14.384
31605W        W96766  33.356   8.627   2.722
31606W        W96767  22.227  37.075  14.575
31607W        W96768  24.481   0.981  11.907
31608W        W96769  31.390   2.216   2.457
31609W        W96770  32.961  44.447   3.665
31610W        W96771  13.268  43.577  14.755
31611W        W96772  27.206   6.320   0.633
31612W        W96773  22.658  40.708   5.574
31613W        W96774  42.021  11.114   2.200
31614W        W96775  37.102  18.583   4.178
31615W        W96776  42.407  44.855   2.322
31616W        W96777  35.978   5.921   1.376
31617W        W96778   6.548  40.333  13.559
31618W        W96779  35.938  10.290   3.363
31619W        W96780  44.031  28.939  12.038
31620W        W96781  31.175  42.102   2.902
31621W        W96782   8.004  10.946  14.488
31622W        W96783  36.917   2.758   1.482
31623W        W96784   1.650   1.405  12.987
31624W        W96785  29.137  32.872  13.902
31625W        W96786   1.196  17.630   2.817
31626W        W96787  35.473  23.079  12.695
31627W        W96788  10.045  17.078  12.219
31628W        W96789  42.032  35.453   2.179
31629W        W96790  36.131  20.605  14.235
31630W        W96791   3.483   1.006   0.916
31631W        W96792  27.046   6.966  11.664
31632W        W96793   0.725  10.270  10.649
31633W        W96794   3.147  15.767  10.067
31634W        W96795  30.674  26.198   0.641
31635W        W96796   8.951  10.979   0.733
31636W        W96797  27.621  18.244  12.503
31637W        W96798  23.314  44.342  11.237
31638W        W96799  35.052  13.294   0.533
31639W        W96800  39.559  14.943   1.457
31640W        W96801  11.329  29.738  14.864
31641W        W96802  20.065   0.911  13.027
31642W        W96803   6.742  12.123  12.896
31643W        W96804  25.437  36.372   9.845
31644W        W96805  41.112   6.364   3.582
31645W        W96806  42.205  12.082  14.416
31646W        W96807  14.240   8.080  12.561
31647W        W96808  33.606   8.706   3.160
31648W        W96809  31.642  13.292   0.246
31649W        W96810  39.201  12.755  14.259
31650W        W96811  20.104  43.575   4.021
31651W        W96812  36.017  21.270  11.430
31652W        W96813  21.701   8.827  12.124
31653W        W96814  32.616  16.726   1.849
31654W        W96815   7.474  18.782   1.820
31655W        W96816  36.072  24.659   2.138
31656W        W96817  37.892  24.580  14.346
31657W        W96818   7.387  26.271   3.341
31658W        W96819   2.209   8.680   2.619
31659W        W96820  16.921  14.072   1.647
31660W        W96821  25.466  42.174   1.734
31661W        W96822  23.686  33.900   0.444
31662W        W96823  41.260  21.822  12.239
31663W        W96824   2.806  16.096   2.657
31664W        W96825  44.957  35.412  11.175
31665W        W96826  24.811   0.387  11.226
31666W        W96827  39.878  18.900  12.990
31667W        W96828  21.684  32.989   1.735
31668W        W96829   9.735  43.360  13.882
31669W        W96830  25.476  33.712  11.244
31670W        W96831  23.255  42.466  13.482
31671W        W96832  32.671  34.895  12.760
31672W        W96833  44.549  25.700   4.113
31673W        W96834   2.218  20.381   4.553
31674W        W96835  19.592   6.252  14.978
31675W        W96836  43.721  12.766   2.237
31676W        W96837  44.008  29.674  11.569
31677W        W96838  34.452   3.015  13.798
31678W        W96839   3.189  31.580  13.833
31679W        W96840  28.430  42.742  11.453
31680W        W96841  28.598  39.643   4.973
31681W        W96842  10.848  24.352   3.238
31682W        W96843  40.655  29.204   1.834
31683W        W96844  41.529   8.781  10.728
31684W        W96845   5.092  15.591   1.206
31685W        W96846  27.153   4.856  14.763
31686W        W96847   9.181  40.333   1.956
31687W        W96848  42.184  35.397   5.040
31688W        W96849  42.938  35.416  11.542
31689W        W96850  19.888   3.108  10.403
31690W        W96851  20.482  26.501  11.481
31691W        W96852  38.015  33.422  13.266
31692W        W96853  39.125  12.388  14.623
31693W        W96854  32.741  41.423  13.858
31694W        W96855  18.019   0.559   3.931
31695W        W96856   8.748  39.810  13.820
31696W        W96857  34.018   9.359  10.596
31697W        W96858   9.070  38.590   4.894
31698W        W96859  36.837  42.128   3.156
31699W        W96860  19.424  17.317   3.099
31700W        W96861   3.977   3.691   3.287
31701W        W96862  24.788   2.214   2.229
31702W        W96863   1.577  17.283   2.247
31703W        W96864   5.787   8.374  11.156
31704W        W96865  26.566  37.979   1.468
31705W        W96866   6.697  18.663  14.769
31706W        W96867  22.006  21.631   1.984
31707W        W96868  10.473  32.289   1.464
31708W        W96869  24.497  36.577   4.549
31709W        W96870  10.863  33.857  13.495
31710W        W96871  22.999  27.429   1.147
31711W        W96872  14.216  10.770   0.279
31712W        W96873  35.387  17.932   3.982
31713W        W96874  33.377  41.730   1.424
31714W        W96875  36.149  34.411   4.593
31715W        W96876  33.599  17.237  12.049
31716W        W96877  38.895  17.055  12.481
31717W        W96878  36.192  14.800   1.612
31718W        W96879  25.840  37.850   1.805
31719W        W96880  21.057  20.716   2.336
31720W        W96881   2.674  12.113  10.772
31721W        W96882  37.984   2.267  13.809
31722W        W96883  32.958  21.022  11.186
31723W        W96884  26.408  23.468   1.967
31724W        W96885  32.120   9.547  11.407
31725W        W96886  41.127  34.411  11.436
31726W        W96887  33.225   7.349   1.918
31727W        W96888   7.210  11.193   0.416
31728W        W96889  40.833   9.611  12.163
31729W        W96890  20.695  19.919   2.060
31730W        W96891  25.654   8.973  13.313
31731W        W96892  37.100  25.185   4.148
31732W        W96893  29.072  14.845   0.425
31733W        W96894  28.481   7.128  10.590
31734W        W96895  27.053   5.164   0.480
31735W        W96896  17.600   1.412  10.930
31736W        W96897  32.072  25.711   2.789
31737W        W96898  14.750  26.087  11.552
31738W        W96899  22.958  16.689   2.306
31739W        W96900   0.920  12.682   2.185
31740W        W96901  41.908   4.021  10.471
31741W        W96902   7.804  24.721   2.230
31742W        W96903  26.973   0.972  13.116
31743W        W96904  29.769  19.932  13.347
31744W        W96905  44.077  25.007   1.718
31745W        W96906  28.113  25.467   4.222
31746W        W96907  39.458  25.018  11.632
31747W        W96908  36.058  19.805  12.501
31748W        W96909   3.690  33.952  13.017
31749W        W96910  27.919  15.056  14.856
31750W        W96911   4.507  38.896   4.727
31751W        W96912  39.935   1.255  10.966
31752W        W96913  15.822   1.772   3.004
31753W        W96914  38.390  38.713  14.733
31754W        W96915  40.987  16.715  13.883
31755W        W96916  26.689  15.773   2.308
31756W        W96917  21.605  15.710   3.577
31757W        W96918  39.749  17.787  11.073
31758W        W96919  14.812   1.863   0.356
31759W        W96920   8.638  19.261  14.406
31760W        W96921  34.555  37.521  14.639
31761W        W96922  41.182  40.434   4.113
31762W        W96923  16.810  14.222   2.131
31763W        W96924  12.180  26.168   4.509
31764W        W96925   4.807  34.924   2.637
31765W        W96926   2.902  18.306  14.000
31766W        W96927  43.988   8.937  14.525
31767W        W96928  24.707   2.208  10.698
31768W        W96929  21.896   4.935  13.019
31769W        W96930  12.315   7.765  14.812
31770W        W96931  18.687   0.214  14.635
31771W        W96932  12.127   6.896   3.089
31772W        W96933  31.313   0.980  10.723
31773W        W96934  43.456  19.635  13.809
31774W        W96935  29.720  31.526  12.530
31775W        W96936   1.841  36.940   4.448
31776W        W96937  32.551  21.685  12.150
31777W        W96938  27.749  33.083   1.206
31778W        W96939  25.311  25.115   0.241
31779W        W96940  24.501  12.783   1.697
31780W        W96941   7.982  14.777   2.754
31781W        W96942  40.420  29.204  10.218
31782W        W96943  42.540   3.409  14.123
31783W        W96944   8.445  43.756   3.059
31784W        W96945  27.746   3.783  14.780
31785W        W96946  40.633   0.835   4.567
31786W        W96947  15.648  26.545  14.862
31787W        W96948  36.274  28.144   0.821
31788W        W96949  44.731   0.404  11.043
31789W        W96950  36.408  10.811  11.195
31790W        W96951   0.258   9.996   2.180
31791W        W96952   3.912  25.445  11.185
31792W        W96953   0.661  20.449   1.846
31793W        W96954  30.495   0.488  13.039
31794W        W96955  30.407  19.043   1.043
31795W        W96956  27.192   5.999  13.372
31796W        W96957  11.939   9.084  13.572
31797W        W96958  23.660   1.347  12.579
31798W        W96959  44.274  10.764  10.671
31799W        W96960  15.634  16.512  13.317
31800W        W96961   2.337  19.228  12.843
31801W        W96962   8.461  26.886  10.308
31802W        W96963   7.305  19.781   2.152
31803W        W96964  16.637   2.200  11.152
31804W        W96965   4.870  11.356   0.402
31805W        W96966  26.689  44.056  13.793
31806W        W96967  36.412   8.263  13.537
31807W        W96968  27.560   9.187  14.242
31808W        W96969  19.963  16.790   2.270
31809W        W96970   7.410  21.708   4.006
31810W        W96971  13.316  18.795  13.357
31811W        W96972  23.339  24.596   3.219
31812W        W96973   8.292   1.284  13.514
31813W        W96974  11.902  25.867   4.066
31814W        W96975  36.347   7.363  10.087
31815W        W96976  25.299  31.830  13.621
31816W        W96977  26.183  43.196  12.953
31817W        W96978  22.054  38.786  13.917
31818W        W96979  10.140  14.745  11.095
31819W        W96980  19.508  42.512  12.612
31820W        W96981  17.493   9.113  11.118
31821W        W96982  23.315   1.268   1.528
31822W        W96983  29.376  19.602   3.769
31823W        W96984  38.409  33.149  14.000
31824W        W96985  22.794  16.579   1.830
31825W        W96986   9.838  20.766  13.526
31826W        W96987  40.325  14.493  11.990
31827W        W96988  20.154  10.975   3.700
31828W        W96989  44.660   6.762   2.361
31829W        W96990  14.842  19.547   3.197
31830W        W96991  21.568  14.383  11.626
31831W        W96992  34.119  39.839   3.225
31832W        W96993  25.947  22.210  10.228
31833W        W96994  33.161  27.133   3.226
31834W        W96995   6.328  28.991  11.991
31835W        W96996  32.578  31.999  10.251
31836W        W96997   3.662  11.424  11.155
31837W        W96998  17.454  18.115  13.529
31838W        W96999  17.680  37.120  14.974
31839W        W97000   0.440  15.089  13.414
31840W        W97001  39.042  44.745  13.523
31841W        W97002   2.971  24.086  11.526
31842W        W97003  44.519  17.032   2.281
31843W        W97004  18.556  14.382  14.034
31844W        W97005  33.673  37.829   3.235
31845W        W97006  15.185  13.790   3.747
31846W        W97007  32.336  44.397   2.997
31847W        W97008  17.788  31.899   3.160
31848W        W97009  15.324  10.348  14.903
31849W        W97010  10.207  11.338   3.993
31850W        W97011   7.937  15.569   1.231
31851W        W97012   1.887  18.619  11.741
31852W        W97013   3.685  37.998  13.301
31853W        W97014  14.167  42.323   3.480
31854W        W97015  32.281  15.376  10.206
31855W        W97016  20.079   7.961   0.439
31856W        W97017   3.910  28.401   1.337
31857W        W97018  43.851   1.498  13.525
31858W        W97019  23.693   2.255  14.436
31859W        W97020  36.842  14.839  10.725
31860W        W97021  31.575   4.098   0.814
31861W        W97022  41.125  34.145   0.216
31862W        W97023  30.529   3.764  12.551
31863W        W97024   4.203  42.148   3.621
31864W        W97025  12.811  12.782  14.914
31865W        W97026   1.780  39.621   4.152
31866W        W97027  24.002   1.765   0.175
31867W        W97028  17.115  44.375  10.186
31868W        W97029  41.993  15.305  11.687
31869W        W97030  19.632   4.399   1.339
31870W        W97031   8.411   8.575  12.020
31871W        W97032  32.480  16.731   4.445
31872W        W97033   9.776  44.664   1.835
31873W        W97034  30.144  40.082   4.170
31874W        W97035  16.101   3.663  12.330
31875W        W97036  37.456  28.134   1.617
31876W        W97037  29.004   4.856  14.074
31877W        W97038   8.283  35.925   2.385
31878W        W97039  31.910  28.497  11.978
31879W        W97040  18.300   3.038   2.675
31880W        W97041  10.787  44.067   3.342
31881W        W97042   8.638   9.883  13.327
31882W        W97043  30.053  40.847  11.512
31883W        W97044  32.163   8.790   3.997
31884W        W97045  20.792  29.373  10.706
31885W        W97046  24.688  12.768  13.653
31886W        W97047   8.273  12.718   3.677
31887W        W97048  30.319  33.353  12.421
31888W        W97049  16.984   1.393   4.628
31889W        W97050  24.334   9.198  13.335
31890W        W97051  33.690  24.071   5.642
31891W        W97052  16.228  10.775  10.532
31892W        W97053  16.183  42.006   2.850
31893W        W97054  16.305  40.426   0.432
31894W        W97055  19.035  40.392   0.891
31895W        W97056  37.304   9.552   2.820
31896W        W97057   7.417  42.391   2.716
31897W        W97058  41.293  43.901  11.194
31898W        W97059  20.317  25.258   3.138
31899W        W97060  41.582  37.177   3.111
31900W        W97061  29.108  28.601  12.498
31901W        W97062  18.681  33.107   3.872
31902W        W97063  36.599  27.156   2.637
31903W        W97064  26.939  34.508   4.341
31904W        W97065   4.793   3.862   0.603
31905W        W97066  22.212  35.110  13.433
31906W        W97067   7.206  10.699   3.138
31907W        W97068  36.632  44.332   4.061
31908W        W97069  32.363  14.028   2.262
31909W        W97070  12.670  27.676   1.317
31910W        W97071   7.454   1.388  11.625
31911W        W97072  17.322  10.665  11.402
31912W        W97073   0.463  23.638   2.263
31913W        W97074  11.517  38.707   2.726
31914W        W97075  11.143   2.860   2.910
31915W        W97076  33.374  33.639   1.267
31916W        W97077   3.953  22.272   1.895
31917W        W97078  42.386   6.102   2.266
31918W        W97079  44.701  21.068  14.897
31919W        W97080  41.508  10.353  12.479
31920W        W97081   8.795  33.395   2.664
31921W        W97082  14.623  41.256  11.571
31922W        W97083  39.099   0.641  12.510
31923W        W97084  36.072  19.376   0.394
31924W        W97085  16.271   7.274   2.743
31925W        W97086  33.342  16.346  10.359
31926W        W97087  13.248  35.242   3.329
31927W        W97088   7.457  21.942  11.061
31928W        W97089  24.170  44.705  13.962
31929W        W97090  42.252   2.010  11.053
31930W        W97091  30.988  40.961   0.202
31931W        W97092  43.044  36.985  13.940
31932W        W97093  11.891  25.176  14.775
31933W        W97094   4.862   4.052  11.546
31934W        W97095  40.451   0.765  14.668
31935W        W97096  34.371  34.564  11.084
31936W        W97097  38.884  19.697   0.129
31937W        W97098   3.515  39.673  11.131
31938W        W97099  35.454   7.906  13.356
31939W        W97100   4.266  26.472   0.910
31940W        W97101  38.388  17.037   1.276
31941W        W97102  37.964  22.552   4.135
31942W        W97103   4.239  42.516   2.662
31943W        W97104  31.218  33.906   3.859
31944W        W97105  43.531  20.598  13.846
31945W        W97106  16.797  30.200  10.733
31946W        W97107  11.705  40.038  14.490
31947W        W97108  22.125  26.893  12.419
31948W        W97109  31.517  34.932   4.456
31949W        W97110  40.075  42.998   0.298
31950W        W97111   2.360   9.235   4.324
31951W        W97112  42.932  36.057   0.407
31952W        W97113   3.307   2.233   1.437
31953W        W97114  22.716  32.536   3.616
31954W        W97115  39.452  36.136  11.674
31955W        W97116  22.236  12.325  12.313
31956W        W97117   0.208   9.241   3.218
31957W        W97118  25.729   3.281  11.168
31958W        W97119  25.057   5.859   4.630
31959W        W97120  31.355  15.854   1.838
31960W        W97121  27.515  42.061  13.118
31961W        W97122   4.687  14.602  13.621
31962W        W97123  35.018  27.751   0.014
31963W        W97124  12.703  15.587  14.420
31964W        W97125  30.518  32.416  12.304
31965W        W97126   1.216   2.745   1.880
31966W        W97127   6.774  14.612  12.616
31967W        W97128   3.571  35.540  13.454
31968W        W97129  34.348  27.072   0.537
31969W        W97130  43.795  11.897   0.041
31970W        W97131  26.991   2.189  12.454
31971W        W97132  14.315  14.107   4.477
31972W        W97133  16.795   3.131   4.343
31973W        W97134  42.585  42.853   2.271
31974W        W97135  41.422  35.611   1.526
31975W        W97136  13.655   2.738  11.627
31976W        W97137  28.003  14.103  14.884
31977W        W97138  17.796  10.868   0.812
31978W        W97139   3.776   9.120   3.727
31979W        W97140  12.573  18.562   1.423
31980W        W97141  36.970   4.461   3.108
31981W        W97142   5.325  10.053  11.383
31982W        W97143  42.210   0.815   3.809
31983W        W97144  12.528  33.341   1.866
31984W        W97145  22.287  18.159  13.847
31985W        W97146  25.085  18.096   1.065
31986W        W97147  40.453  44.982   3.616
31987W        W97148  18.666  15.060   5.440
31988W        W97149   3.180  14.756   0.315
31989W        W97150  26.665  29.616  13.890
31990W        W97151   7.257   6.343  13.335
31991W        W97152  11.879  27.006  13.860
31992W        W97153  11.895  44.746   0.246
31993W        W97154  16.141  33.655   3.320
31994W        W97155   4.272   3.611   0.956
31995W        W97156  10.341  13.596   0.924
31996W        W97157   4.298   0.010   3.647
31997W        W97158   2.281   5.931   4.453
31998W        W97159  16.969  25.978  12.471
31999W        W97160   4.812  19.647  11.186
32000W        W97161  33.010  34.210   2.806
32001W        W97162  40.495   1.759   3.594
32002W        W97163  13.444   9.313  12.062
32003W        W97164  32.890  17.257  10.551
32004W        W97165   5.366  19.804   4.733
32005W        W97166  34.185   1.484   3.808
32006W        W97167  36.424  29.655  13.400
32007W        W97168  31.519   1.274   4.628
32008W        W97169   9.679   8.579   3.088
32009W        W97170  31.932  16.129  10.782
32010W        W97171  30.564  26.858  11.169
32011W        W97172  42.281  14.922  14.016
32012W        W97173  23.091  27.743   0.173
32013W        W97174  26.433  30.808   5.155
32014W        W97175  11.728  44.840   3.405
32015W        W97176  42.492  30.744   3.151
32016W        W97177  10.616  36.498  13.996
32017W        W97178   5.360   9.708   3.689
32018W        W97179   4.471   7.761  13.315
32019W        W97180  14.947   2.544  11.279
32020W        W97181  16.746  19.007  14.414
32021W        W97182  33.470  38.979   3.300
32022W        W97183  39.970  22.799   3.323
32023W        W97184  31.825  38.962  10.060
32024W        W97185   6.216  38.339   0.411
32025W        W97186  31.671  44.947   1.068
32026W        W97187   1.857  25.679  11.395
32027W        W97188  31.759  43.872   0.344
32028W        W97189  31.253  31.155   1.845
32029W        W97190   6.750  37.501   4.594
32030W        W97191  40.113  19.235  11.138
32031W        W97192  21.093  38.554   0.691
32032W        W97193   0.896   0.963  14.049
32033W        W97194  35.942  29.627  11.846
32034W        W97195  16.317   8.688  13.997
32035W        W97196  42.434  44.996   0.784
32036W        W97197  19.972   4.746  11.094
32037W        W97198   0.012  41.443   3.972
32038W        W97199  22.717  33.201  13.608
32039W        W97200  43.233  37.628   0.779
32040W        W97201  11.854  27.882   0.780
32041W        W97202   1.231  26.249   1.871
32042W        W97203  40.052   4.085  11.523
32043W        W97204  37.051   4.411   0.046
32044W        W97205  12.124  10.184   0.778
32045W        W97206  25.059   8.195   3.443
32046W        W97207  23.573   3.297  10.608
32047W        W97208  32.778  42.292  14.146
32048W        W97209  39.910  43.553   1.010
32049W        W97210  20.053   1.849   4.742
32050W        W97211  34.959  16.565  11.478
32051W        W97212  20.937   3.292  11.518
32052W        W97213  29.722   1.944   3.270
32053W        W97214  13.549  10.851   1.799
32054W        W97215  15.403   7.802  12.419
32055W        W97216   4.614  44.617  13.353
32056W        W97217  10.394   6.783   0.138
32057W        W97218   8.271   2.847   1.421
32058W        W97219  40.476  13.063   4.544
32059W        W97220  11.279  24.561   0.439
32060W        W97221  28.986  33.349   2.757
32061W        W97222  18.069  17.732  12.115
32062W        W97223  33.623  23.473  10.635
32063W        W97224  25.536   7.775  10.732
32064W        W97225   9.246  11.343  14.546
32065W        W97226  26.004  21.546  13.512
32066W        W97227  37.894  28.852   0.673
32067W        W97228  41.376  30.922   3.937
32068W        W97229  23.201  22.571   2.612
32069W        W97230  28.171  36.915   3.274
32070W        W97231  29.112   9.839  10.761
32071W        W97232  25.664   2.780   4.679
32072W        W97233  44.105  18.982   0.335
32073W        W97234   2.323  35.640  14.912
32074W        W97235  25.081  31.635  12.646
32075W        W97236  29.400  19.779   2.293
32076W        W97237  12.420   1.458   0.386
32077W        W97238  29.046  15.820  12.441
32078W        W97239  43.882  19.195   2.326
32079W        W97240   3.911  32.534   3.587
32080W        W97241  18.777  14.788   0.929
32081W        W97242  19.600  12.512   4.541
32082W        W97243   5.859  39.027   0.516
32083W        W97244  26.435  12.803  14.997
32084W        W97245  35.425  42.023  14.779
32085W        W97246  26.869   8.334  12.528
32086W        W97247  39.082  10.232   1.216
32087W        W97248   4.205  20.211   3.703
32088W        W97249  33.549  40.240   0.025
32089W        W97250  21.752  34.001  10.888
32090W        W97251  42.301   9.181  10.686
32091W        W97252  13.700  26.123   4.598
32092W        W97253  11.993   6.960   4.101
32093W        W97254  26.025  37.403  14.147
32094W        W97255  42.402   8.832  11.902
32095W        W97256  21.624   1.498  13.987
32096W        W97257  13.880  32.133   1.331
32097W        W97258   0.967  28.512   4.668
32098W        W97259  27.143   9.291   2.845
32099W        W97260  25.615  16.147  11.476
32100W        W97261  15.597  20.761  10.680
32101W        W97262  34.600   7.711   0.030
32102W        W97263  17.488  41.585   4.599
32103W        W97264   1.929  14.084   3.756
32104W        W97265  24.427  25.547  12.555
32105W        W97266  10.587  29.019  11.684
32106W        W97267  39.501   1.978   1.694
32107W        W97268  14.192  32.240   2.636
32108W        W97269  15.391   8.716  13.936
32109W        W97270  21.332  18.629  11.588
32110W        W97271  11.075  12.396   2.357
32111W        W97272   6.650  25.029  12.507
32112W        W97273  41.080  18.250   4.623
32113W        W97274  29.767  10.700   3.710
32114W        W97275  10.869  23.490   2.718
32115W        W97276  43.617   5.346   0.405
32116W        W97277  26.534  40.923   1.225
32117W        W97278  39.816  17.044   0.819
32118W        W97279   6.913  28.640   3.903
32119W        W97280  22.560  20.899   0.852
32120W        W97281  35.378   3.700  13.775
32121W        W97282  31.199  41.430   1.725
32122W        W97283   7.967  35.028  13.663
32123W        W97284  29.754   3.272  12.126
32124W        W97285  44.919  13.733  13.408
32125W        W97286  37.990   8.849  13.012
32126W        W97287   6.304  40.238  12.875
32127W        W97288  21.183   7.352  12.019
32128W        W97289   7.281  37.453  12.396
32129W        W97290  41.239  35.082  14.807
32130W        W97291   6.391  17.160   3.166
32131W        W97292   2.466  28.888  14.927
32132W        W97293  20.975  20.071   0.388
32133W        W97294   1.485  35.994   0.739
32134W        W97295  13.225   6.117   2.146
32135W        W97296  14.748  35.797   2.386
32136W        W97297  23.949  34.664   1.670
32137W        W97298  39.205  18.067   4.221
32138W        W97299  28.502   7.436   0.153
32139W        W97300  12.671  12.671   3.175
32140W        W97301  39.033   9.086  12.028
32141W        W97302  37.645  15.725  14.637
32142W        W97303   5.977  36.936  14.435
32143W        W97304   7.160  20.214  14.981
32144W        W97305  21.332   4.345   2.382
32145W        W97306  29.611  44.785   3.886
32146W        W97307  37.512  24.619   2.671
32147W        W97308   5.673  14.993  12.013
32148W        W97309   4.572  30.776   3.722
32149W        W97310  42.774   8.462  13.045
32150W        W97311  29.560  20.790   2.663
32151W        W97312  35.002  28.804  10.051
32152W        W97313   9.763   7.117   1.299
32153W        W97314  14.130  37.607   1.356
32154W        W97315  40.930   9.745  12.669
32155W        W97316  36.122  19.906  13.378
32156W        W97317  30.653   7.953  12.543
32157W        W97318  43.273  12.663  11.517
32158W        W97319  23.092   6.992  13.362
32159W        W97320  37.028  11.350  13.600
32160W        W97321  15.272   7.207   0.640
32161W        W97322   4.974  12.821   1.377
32162W        W97323   2.044   4.243   2.208
32163W        W97324  43.331  28.018   4.102
32164W        W97325  12.138  10.912   1.229
32165W        W97326  18.567  12.213   1.892
32166W        W97327  17.385   6.159  12.879
32167W        W97328  37.091  34.489   2.531
32168W        W97329  19.721  33.167  11.856
32169W        W97330  43.818  39.093   4.601
32170W        W97331  36.209  17.302   1.000
32171W        W97332  17.284   0.968   3.189
32172W        W97333  16.435  18.721   0.942
32173W        W97334  35.516  40.565  13.835
32174W        W97335   3.333  31.944   4.890
32175W        W97336  12.592   7.274  14.248
32176W        W97337  32.091  21.782  13.786
32177W        W97338  32.028  16.095   3.952
32178W        W97339  20.799  25.954  10.850
32179W        W97340  18.791  41.949  12.545
32180W        W97341  37.089  14.484  14.503
32181W        W97342  41.007  38.075  12.916
32182W        W97343  36.081  17.440   4.465
32183W        W97344  37.862  43.595  10.881
32184W        W97345  30.435  38.165   2.656
32185W        W97346  33.551  14.445  11.498
32186W        W97347   9.599  43.794  11.091
32187W        W97348   5.185  21.725   4.293
32188W        W97349   8.183  29.065  12.107
32189W        W97350   5.184   9.205  11.915
32190W        W97351  30.563  38.890   2.160
32191W        W97352  26.553  21.272  14.291
32192W        W97353  21.144   0.137  10.558
32193W        W97354  27.657   4.179   1.745
32194W        W97355  38.603   2.496  10.613
32195W        W97356   3.884   3.995   2.845
32196W        W97357  17.701   5.299   3.954
32197W        W97358  12.019  23.997   3.353
32198W        W97359  26.914  15.701   1.303
32199W        W97360   9.518  11.836   4.917
32200W        W97361  29.979   7.632  13.091
32201W        W97362  17.587   3.665   1.892
32202W        W97363  23.734   4.902  12.628
32203W        W97364  44.230  24.778  14.483
32204W        W97365   1.676  37.604  13.373
32205W        W97366  30.108  19.975  12.936
32206W        W97367  42.949   0.259   4.371
32207W        W97368   8.312  18.280  13.388
32208W        W97369  14.937  35.199  12.112
32209W        W97370  36.313  18.511  13.880
32210W        W97371   3.344   5.431   2.573
32211W        W97372  39.729  26.513   3.695
32212W        W97373  34.813  34.633  11.460
32213W        W97374   7.840   5.888  10.936
32214W        W97375  22.550  32.075  11.352
32215W        W97376  10.154   5.792   4.859
32216W        W97377   5.804   0.532   1.008
32217W        W97378  31.440  40.479   3.710
32218W        W97379  21.272   4.068  14.490
32219W        W97380  31.050  25.485  14.990
32220W        W97381  13.435  44.964  11.108
32221W        W97382  28.184  30.183  11.725
32222W        W97383  30.638  42.517  11.081
32223W        W97384  30.188  30.937  13.690
32224W        W97385  13.579  14.780   2.630
32225W        W97386  30.461  42.234  13.303
32226W        W97387  43.099  31.788  10.010
32227W        W97388  28.065  27.854  13.983
32228W        W97389  24.676  34.244  10.871
32229W        W97390  40.982   7.813   3.297
32230W        W97391  30.163  33.612   0.220
32231W        W97392  28.721  10.844  10.209
32232W        W97393  17.010  36.552   0.143
32233W        W97394  35.906  34.341  13.543
32234W        W97395  40.247  28.627  11.594
32235W        W97396  16.205   2.504  13.837
32236W        W97397  19.480  28.117  14.270
32237W        W97398   1.797  27.426  11.728
32238W        W97399  10.749   0.085  13.569
32239W        W97400  26.352  16.604   1.250
32240W        W97401  43.675  19.536   3.611
32241W        W97402   4.186  17.176  11.143
32242W        W97403  35.904  13.856   0.043
32243W        W97404  19.085  26.244  12.965
32244W        W97405  22.198  10.246   0.650
32245W        W97406  22.286  37.885   3.720
32246W        W97407  37.100  38.502  10.625
32247W        W97408   8.238  15.597   1.640
32248W        W97409  34.083  28.638  14.818
32249W        W97410  11.595  12.229  11.479
32250W        W97411   7.186  36.015   2.387
32251W        W97412   5.917  40.969  14.255
32252W        W97413  40.133  29.456  13.926
32253W        W97414  25.996  28.649  12.019
32254W        W97415   0.232  24.098  10.925
32255W        W97416   4.523  32.448  11.568
32256W        W97417  12.102  42.695  10.376
32257W        W97418   4.617   6.236  11.631
32258W        W97419  13.569  28.072   0.400
32259W        W97420   9.135  38.116  14.253
32260W        W97421  44.298  41.117  10.007
32261W        W97422   0.270   8.444   3.596
32262W        W97423  13.850   0.220   4.372
32263W        W97424  24.469  21.910   2.265
32264W        W97425  10.655  33.156   0.734
32265W        W97426  21.605   9.264  11.477
32266W        W97427  27.490  40.901  11.689
32267W        W97428  16.682  19.639   1.458
32268W        W97429  17.671  12.637  14.288
32269W        W97430  19.183   4.171   3.304
32270W        W97431  29.020  25.828   0.192
32271W        W97432  15.991  37.020  12.842
32272W        W97433   1.478  23.094  12.884
32273W        W97434  37.517   9.285   3.211
32274W        W97435  28.561  21.619   1.587
32275W        W97436  29.884   1.231   0.043
32276W        W97437  32.049  18.627   1.909
32277W        W97438  10.448  35.834   3.195
32278W        W97439  34.198  13.768   0.933
32279W        W97440   0.953  18.522   1.943
32280W        W97441  30.134  37.418  11.609
32281W        W97442  31.101   8.258   0.775
32282W        W97443  31.153  22.016   1.864
32283W        W97444  18.650  28.924   2.159
32284W        W97445  11.924  29.688   4.187
32285W        W97446   5.891  43.979  12.155
32286W        W97447  22.669  29.517  10.662
32287W        W97448  24.653  36.764   3.134
32288W        W97449  44.947  40.914  13.533
32289W        W97450  28.667  43.769   3.344
32290W        W97451  29.887  35.954   3.632
32291W        W97452  20.793  20.568  11.522
32292W        W97453  21.226   2.881  11.650
32293W        W97454  31.393  36.355  14.193
32294W        W97455  12.183  33.166   3.173
32295W        W97456   0.867  32.665   0.801
32296W        W97457   8.228  17.720  12.466
32297W        W97458   7.212  20.761   0.867
32298W        W97459  28.641   7.024   2.329
32299W        W97460  21.400  26.652  11.098
32300W        W97461  11.828   0.464  14.964
32301W        W97462  43.364  21.637  13.185
32302W        W97463  34.832   0.741  11.610
32303W        W97464  41.115  35.872   2.879
32304W        W97465  18.617   1.896   0.938
32305W        W97466  32.460   6.147  13.934
32306W        W97467  16.605  40.049   1.869
32307W        W97468   2.806  12.597   1.790
32308W        W97469  20.310  37.881  11.463
32309W        W97470  29.027   1.365  14.935
32310W        W97471  18.796   1.514  12.613
32311W        W97472  10.998  15.246  13.324
32312W        W97473  16.083   6.417   4.371
32313W        W97474  34.891   6.578  14.956
32314W        W97475   2.648  38.423   2.900
32315W        W97476  37.434  42.890   3.474
32316W        W97477   2.803   0.798   3.375
32317W        W97478  28.924  14.129   3.756
32318W        W97479  19.295  21.123  13.030
32319W        W97480  35.999  34.901  14.279
32320W        W97481  22.692  20.469   3.706
32321W        W97482  19.652  12.383  11.140
32322W        W97483  39.969  35.932  11.594
32323W        W97484  12.336  32.905   1.130
32324W        W97485   6.358  26.554   2.410
32325W        W97486  41.527   7.731   4.138
32326W        W97487   3.437   2.694   4.985
32327W        W97488   6.208  26.202  12.813
32328W        W97489  15.849   1.900  12.117
32329W        W97490  12.756  31.574   2.426
32330W        W97491  33.114  21.772   4.536
32331W        W97492  40.739  38.318  11.304
32332W        W97493  21.782   8.841  10.143
32333W        W97494   7.242  36.831  10.716
32334W        W97495  33.201   0.046   2.734
32335W        W97496   5.785   6.527   1.778
32336W        W97497  24.339   1.457   0.462
32337W        W97498  15.237   6.816   1.424
32338W        W97499   7.299  13.013  12.129
32339W        W97500  20.064  19.871   5.015
32340W        W97501  27.202  24.457   2.349
32341W        W97502   8.260  35.948  14.558
32342W        W97503  10.357  29.745  11.029
32343W        W97504  36.034  33.603  12.632
32344W        W97505  10.420  39.983   3.059
32345W        W97506  14.852  24.154   3.626
32346W        W97507  37.902  43.571  13.027
32347W        W97508  24.945   8.027   4.560
32348W        W97509  30.274   3.121   1.858
32349W        W97510  40.938  12.584  11.061
32350W        W97511  22.728  40.393   2.363
32351W        W97512  32.128   5.734  13.957
32352W        W97513  41.449   9.235  12.695
32353W        W97514  16.171  27.116   2.435
32354W        W97515  44.458  27.124  14.844
32355W        W97516   7.399  28.134   0.717
32356W        W97517  32.053   0.579   2.822
32357W        W97518  33.932  42.549  12.110
32358W        W97519  44.682  14.402  14.560
32359W        W97520  13.281  42.847   0.397
32360W        W97521  16.987  28.577   2.406
32361W        W97522   4.430  44.830  10.513
32362W        W97523  25.225  24.204   2.316
32363W        W97524   8.451  11.385   2.256
32364W        W97525  27.141  21.337   0.164
32365W        W97526  21.476  27.593  11.421
32366W        W97527  11.743  43.286   3.712
32367W        W97528  14.116  25.961  12.696
32368W        W97529  31.271  18.507   4.214
32369W        W97530  26.548  37.946  12.199
32370W        W97531   8.767  13.477   2.608
32371W        W97532  18.538   7.098   2.489
32372W        W97533   3.712  17.723   1.432
32373W        W97534  38.568   0.951  13.484
32374W        W97535   0.565  36.288   2.221
32375W        W97536  21.733  39.787  11.621
32376W        W97537  31.735  38.391   4.179
32377W        W97538  20.124  19.770  14.416
32378W        W97539   4.505  32.140  11.139
32379W        W97540  14.275   9.202  14.291
32380W        W97541  30.994  27.492  11.905
32381W        W97542  28.950  30.661  13.288
32382W        W97543   5.389  39.009  11.998
32383W        W97544   5.526  34.794  11.227
32384W        W97545  38.457  38.486  13.371
32385W        W97546  20.632  30.410   4.559
32386W        W97547  39.805  17.061  13.327
32387W        W97548  15.332   4.511   2.040
32388W        W97549  37.531  32.707   4.562
32389W        W97550  20.733  24.333  10.881
32390W        W97551  17.684  36.513   4.873
32391W        W97552  20.629  20.427   2.222
32392W        W97553  23.171  26.053   1.985
32393W        W97554   1.164  29.044  14.461
32394W        W97555  31.836   9.934  11.623
32395W        W97556  12.309  41.111   4.131
32396W        W97557  34.171  23.016  14.945
32397W        W97558  28.354  26.999  11.074
32398W        W97559  35.299   0.939  11.493
32399W        W97560   6.857   6.731   1.381
32400W        W97561  41.868  20.832   3.718
32401W        W97562  22.090  24.210  13.849
32402W        W97563  12.222   4.663  12.536
32403W        W97564  19.211  39.853   5.056
32404W        W97565  43.662  21.715   0.301
32405W        W97566  25.882   1.846   0.724
32406W        W97567  31.460   5.217   4.416
32407W        W97568  11.573  15.034   2.339
32408W        W97569  32.890  44.436  14.468
32409W        W97570  31.524   1.027   1.994
32410W        W97571  21.632  42.400   4.714
32411W        W97572  43.248  21.801   4.533
32412W        W97573  31.902  14.085  14.876
32413W        W97574  28.365   9.125   4.017
32414W        W97575  11.700  17.739  14.895
32415W        W97576  22.626  30.910  13.038
32416W        W97577  29.192  14.586   3.700
32417W        W97578  22.037   6.429   1.653
32418W        W97579  11.027  39.331   4.182
32419W        W97580  23.352   1.763  13.492
32420W        W97581   8.924  25.181   1.767
32421W        W97582  26.083  13.621   4.583
32422W        W97583  37.461   5.946   1.412
32423W        W97584  26.605  41.715   1.818
32424W        W97585  23.704  16.743   1.422
32425W        W97586  31.847   8.232  13.541
32426W        W97587  42.426   5.328  12.354
32427W        W97588  25.133  32.910  14.270
32428W        W97589   2.118   4.016  11.110
32429W        W97590  21.121  31.036   4.147
32430W        W97591  40.184   0.855   3.598
32431W        W97592  13.228  22.662  14.765
32432W        W97593  36.573  22.167   4.290
32433W        W97594  10.876   6.881   2.810
32434W        W97595  38.970   8.589   0.293
32435W        W97596  36.130  22.034   1.469
32436W        W97597  22.823  40.744  12.603
32437W        W97598  25.707  11.559   4.033
32438W        W97599  10.285   6.229  11.392
32439W        W97600  21.566  19.235   0.059
32440W        W97601  38.885  33.462   1.678
32441W        W97602  18.964  28.960   3.839
32442W        W97603  35.204  28.054  14.605
32443W        W97604  14.261  10.308   1.602
32444W        W97605  10.364  12.333   0.524
32445W        W97606  25.079  22.873   1.354
32446W        W97607  38.308  23.252   1.752
32447W        W97608  31.141  40.698  10.260
32448W        W97609   0.738  33.527  12.881
32449W        W97610  12.219  43.222   3.512
32450W        W97611   9.882  39.843  12.146
32451W        W97612  18.925  44.071   2.417
32452W        W97613  36.768  24.886   2.815
32453W        W97614   4.482  37.598  13.984
32454W        W97615  34.384   5.843   2.594
32455W        W97616  27.324  30.940   2.676
32456W        W97617  19.553  25.463  12.122
32457W        W97618  38.111  30.624  13.470
32458W        W97619  27.624  16.605   1.874
32459W        W97620  41.487   8.400  13.833
32460W        W97621  37.903   6.728  14.804
32461W        W97622  38.382   8.079  13.578
32462W        W97623  12.765  30.700   2.438
32463W        W97624  41.977  38.783   4.466
32464W        W97625  13.326  43.936   1.090
32465W        W97626  22.225   2.758   0.343
32466W        W97627  21.156  25.839   1.395
32467W        W97628  44.003   9.101   0.448
32468W        W97629  44.258  16.662   2.558
32469W        W97630  36.129  20.070  10.721
32470W        W97631   1.858   5.358  14.314
32471W        W97632  10.210  13.781   2.376
32472W        W97633   7.631  13.163   3.602
32473W        W97634  42.815   6.729   0.863
32474W        W97635  16.156  36.141  13.276
32475W        W97636   7.465   6.133   2.215
32476W        W97637  16.704  39.542   1.869
32477W        W97638  19.667   8.769   3.920
32478W        W97639  37.169  15.573  14.965
32479W        W97640  25.923  32.128  12.918
32480W        W97641  21.255  25.445  14.381
32481W        W97642   0.728  35.442   0.433
32482W        W97643  43.379  27.682  11.519
32483W        W97644  10.725   1.282   0.964
32484W        W97645  12.767  41.886   1.670
32485W        W97646  29.541  10.980  14.908
32486W        W97647  32.390  20.055   1.798
32487W        W97648  24.094   1.328   3.845
32488W        W97649  20.761   7.298   3.686
32489W        W97650  15.885  11.830   4.699
32490W        W97651  20.074   6.838   1.439
32491W        W97652  32.597   9.892  13.724
32492W        W97653  21.219  39.486  13.284
32493W        W97654   2.342   8.880  13.952
32494W        W97655  29.168   5.912   2.845
32495W        W97656  27.174  37.995   4.553
32496W        W97657  44.385  29.523   4.674
32497W        W97658  13.979  41.832  13.781
32498W        W97659  13.693  16.741   0.247
32499W        W97660  40.516  24.468  12.559
32500W        W97661  30.375   7.608   2.833
32501W        W97662  31.678  14.624   4.840
32502W        W97663  36.173  44.378  14.310
32503W        W97664  25.235   1.388  10.771
32504W        W97665  30.092  28.229  12.653
32505W        W97666  12.199  13.718   0.351
32506W        W97667  32.552  12.191  10.533
32507W        W97668  23.122  39.321   2.925
32508W        W97669  32.607  43.123   1.415
32509W        W97670  22.989  44.854  14.867
32510W        W97671  37.969  44.385   2.354
32511W        W97672  13.086  37.621   1.951
32512W        W97673  23.695   7.766   1.544
32513W        W97674  37.107  12.901  11.555
32514W        W97675  36.133  42.523  14.404
32515W        W97676   4.381  14.767  13.166
32516W        W97677  24.641  30.428  14.472
32517W        W97678   6.662   0.980   2.272
32518W        W97679  30.000  14.141   3.411
32519W        W97680   4.401  42.795   1.339
32520W        W97681  42.313  33.811  10.973
32521W        W97682  10.789  16.153   0.449
32522W        W97683   3.370   1.913   4.180
32523W        W97684  33.512  11.807  14.036
32524W        W97685  31.378  39.071  14.467
32525W        W97686  14.055  19.613   1.894
32526W        W97687  22.221  15.255   1.413
32527W        W97688  18.789  44.977   3.315
32528W        W97689   5.378   3.841   3.892
32529W        W97690  32.113  33.936  11.982
32530W        W97691  31.492  32.805  11.251
32531W        W97692  13.659  31.585   4.257
32532W        W97693  18.859  44.273  10.936
32533W        W97694   3.035  23.609   1.837
32534W        W97695  26.951  22.757   1.279
32535W        W97696  43.258  10.277  10.619
32536W        W97697  32.919  10.418   4.575
32537W        W97698  43.983  40.357  11.617
32538W        W97699  23.376   3.049  12.075
32539W        W97700  37.187   8.700   0.391
32540W        W97701  17.270  23.986   2.113
32541W        W97702   9.705  36.439   1.780
32542W        W97703  21.534  42.591  10.697
32543W        W97704  33.377  27.195   3.688
32544W        W97705  35.470  14.437   3.300
32545W        W97706  31.626  19.997  14.114
32546W        W97707  15.791  18.872   1.689
32547W        W97708  19.735   4.220   3.592
32548W        W97709  43.173  21.612   1.243
32549W        W97710  11.611  30.647  10.421
32550W        W97711  14.877  11.276   2.813
32551W        W97712  42.223  40.248   4.897
32552W        W97713  44.737  34.304  13.438
32553W        W97714  10.972  26.575   0.710
32554W        W97715   9.664  18.473  11.311
32555W        W97716  26.200  31.085   3.811
32556W        W97717  23.169  28.941  13.823
32557W        W97718   1.958  34.504  13.356
32558W        W97719  38.977  18.613   1.849
32559W        W97720   3.593   3.880  14.783
32560W        W97721  39.605  10.349   2.787
32561W        W97722  41.875  12.712   4.700
32562W        W97723   6.420  27.510  14.885
32563W        W97724  41.467  11.337  14.535
32564W        W97725  38.846  21.653   0.905
32565W        W97726  17.497   8.816  10.692
32566W        W97727  21.305   7.548   4.721
32567W        W97728  36.954  35.665   0.355
32568W        W97729  42.712  20.269   0.946
32569W        W97730   5.873   9.645   2.662
32570W        W97731  33.366  29.190  12.072
32571W        W97732  16.134   4.209   0.914
32572W        W97733  27.155  13.813   1.533
32573W        W97734   1.664   2.438   0.380
32574W        W97735   9.284  12.194   2.417
32575W        W97736  15.823  15.353   1.149
32576W        W97737   4.738  27.066   1.277
32577W        W97738   1.874  39.540   1.808
32578W        W97739  26.860  14.812   3.245
32579W        W97740  29.487  29.142   3.369
32580W        W97741  35.116  19.049   4.155
32581W        W97742  40.415  38.745   2.326
32582W        W97743   1.290   1.510  11.049
32583W        W97744  28.175  36.121  11.462
32584W        W97745  20.037  41.941   0.540
32585W        W97746  42.328   6.456   1.890
32586W        W97747   3.680   2.156  14.769
32587W        W97748  22.175  20.001   1.902
32588W        W97749  22.663   6.100   4.859
32589W        W97750  27.523  19.840   3.851
32590W        W97751  23.394  23.687  14.340
32591W        W97752  34.101  15.041  12.832
32592W        W97753   2.032  21.128   4.028
32593W        W97754  40.499  26.106   4.629
32594W        W97755   3.057  32.479  12.525
32595W        W97756  26.076  42.595  13.579
32596W        W97757  31.068   7.278   3.641
32597W        W97758  15.505   8.903   3.675
32598W        W97759  37.820  17.268  10.619
32599W        W97760  43.103  41.516   9.874
32600W        W97761  13.899  41.782  11.589
32601W        W97762   9.382   8.909  10.787
32602W        W97763  22.478   2.927   3.767
32603W        W97764  11.349  40.088  14.890
32604W        W97765  12.268  35.885   0.419
32605W        W97766  30.403  30.825   3.171
32606W        W97767   6.463  29.779   9.818
32607W        W97768  11.305   7.091  11.270
32608W        W97769  17.854   5.775   4.072
32609W        W97770  24.310   7.247   0.792
32610W        W97771   2.770  33.419  14.754
32611W        W97772  30.191  24.153  14.937
32612W        W97773   9.753   0.864   3.921
32613W        W97774  37.348  16.613  12.098
32614W        W97775  20.580  39.369  12.093
32615W        W97776  25.972  39.765  11.510
32616W        W97777  21.212  15.477  10.505
32617W        W97778  10.775  29.752   2.483
32618W        W97779  22.848  44.963  13.300
32619W        W97780  16.843  37.388   0.804
32620W        W97781   9.226  13.851   5.188
32621W        W97782  42.307  21.652  14.812
32622W        W97783  21.766  12.545   4.835
32623W        W97784   9.179  15.850   2.821
32624W        W97785  12.995  20.043   0.340
32625W        W97786   4.978  13.008  14.284
32626W        W97787   8.237  37.924  10.747
32627W        W97788   1.276  11.683  12.048
32628W        W97789  18.325  22.440   0.337
32629W        W97790  42.311  33.448   2.204
32630W        W97791  41.578  12.632   4.281
32631W        W97792   4.800  30.941  13.465
32632W        W97793  24.579  17.804   1.670
32633W        W97794  13.799  44.308   4.022
32634W        W97795  20.533  44.716  14.017
32635W        W97796  11.075  11.028  12.877
32636W        W97797  10.018  23.284  12.811
32637W        W97798  27.924  42.397   1.772
32638W        W97799  24.810  21.472   3.204
32639W        W97800  41.539  12.232  13.106
32640W        W97801  14.083   4.205  13.784
32641W        W97802  40.525   0.380   1.424
32642W        W97803  32.485  10.258  10.913
32643W        W97804   1.469   5.170   0.261
32644W        W97805   4.007  36.669  14.609
32645W        W97806   0.948   9.247  12.578
32646W        W97807  17.200  34.302   3.350
32647W        W97808  20.278  16.088   2.497
32648W        W97809  14.043   6.296  13.811
32649W        W97810  32.487  29.252   1.651
32650W        W97811  39.363  30.675   4.607
32651W        W97812  20.361  21.540  12.852
32652W        W97813   2.279  34.488   0.462
32653W        W97814  13.338  19.196  12.143
32654W        W97815  36.116   5.877  14.957
32655W        W97816  13.160  20.050   3.759
32656W        W97817  30.128  42.413   4.621
32657W        W97818  30.874  17.294   4.025
32658W        W97819  32.514   0.072  10.032
32659W        W97820  24.185  16.381  11.178
32660W        W97821  39.552  40.553  14.040
32661W        W97822  39.747  34.598   3.403
32662W        W97823  41.441  37.533   0.904
32663W        W97824  11.595  33.119  11.985
32664W        W97825  23.619  14.624  10.231
32665W        W97826  26.782  13.759  12.388
32666W        W97827  15.353   7.610  11.118
32667W        W97828  19.162   3.386  11.653
32668W        W97829   0.977  33.940   3.734
32669W        W97830  16.213  32.611  14.737
32670W        W97831  21.071  12.084  13.629
32671W        W97832  21.972  28.940   3.622
32672W        W97833  42.461  19.464   1.400
32673W        W97834  24.064  34.159   0.755
32674W        W97835   0.391  29.695  11.153
32675W        W97836  18.654  31.500  11.466
32676W        W97837  35.438   0.914  11.014
32677W        W97838  34.003  22.523  11.384
32678W        W97839  16.103   2.136  12.479
32679W        W97840  11.204   9.654  11.629
32680W        W97841  19.084  26.987  11.637
32681W        W97842  17.043  32.387   0.395
32682W        W97843  40.029  33.705  13.608
32683W        W97844  44.420  29.735  10.631
32684W        W97845  42.518  39.688   3.917
32685W        W97846  23.226  34.488  12.838
32686W        W97847  42.997  27.504   3.138
32687W        W97848  30.070  29.904   4.493
32688W        W97849  27.437  24.630  11.330
32689W        W97850   0.779  11.613   3.136
32690W        W97851  40.322   0.129  10.682
32691W        W97852  33.432  18.149   0.471
32692W        W97853  32.702  13.858   4.524
32693W        W97854  35.382   1.923   4.504
32694W        W97855  16.353  37.999   0.488
32695W        W97856   8.025  19.222  12.510
32696W        W97857  21.709  27.355   0.493
32697W        W97858  28.464   8.810   0.517
32698W        W97859  40.715  16.741  14.326
32699W        W97860  35.483  37.346  11.189
32700W        W97861  34.780  19.445  14.809
32701W        W97862   8.086  12.900   5.018
32702W        W97863   1.869  19.437   0.346
32703W        W97864  36.583  27.934  12.448
32704W        W97865  36.360   6.340  14.987
32705W        W97866   6.374  10.806   3.839
32706W        W97867  32.539   9.260   1.726
32707W        W97868  42.494   6.821   4.152
32708W        W97869   9.439  17.892  14.618
32709W        W97870   1.256  39.939   0.267
32710W        W97871  35.974  16.546   2.175
32711W        W97872  44.437  10.159  14.923
32712W        W97873  33.531  30.887  14.398
32713W        W97874   5.772   0.881   0.027
32714W        W97875  12.692  24.404  13.540
32715W        W97876  19.602   7.842  14.332
32716W        W97877  14.038  38.855   4.349
32717W        W97878   8.217  10.183   2.023
32718W        W97879   0.001  12.731  13.662
32719W        W97880  38.946  30.089  14.831
32720W        W97881  22.245  35.894   1.345
32721W        W97882  17.090   7.962   2.698
32722W        W97883  19.585  18.672  10.626
32723W        W97884   8.137  23.503  12.171
32724W        W97885  26.023  12.036  11.567
32725W        W97886  34.891  30.999   2.183
32726W        W97887   1.245  40.901   0.415
32727W        W97888  32.783  10.998  14.709
32728W        W97889  29.110  41.463  11.319
32729W        W97890  44.725  34.637  12.113
32730W        W97891  34.705  33.236   0.021
32731W        W97892  23.027  41.091  11.254
32732W        W97893  25.537  32.621  12.533
32733W        W97894  25.450  14.903  14.870
32734W        W97895  43.788  11.201  12.855
32735W        W97896  31.914   7.782   0.837
32736W        W97897  13.960  37.178  11.648
32737W        W97898   7.217  10.357   2.424
32738W        W97899  22.529  36.726  12.548
32739W        W97900  19.203  17.605  11.169
32740W        W97901  23.880  33.896  14.937
32741W        W97902   8.434   4.991  13.421
32742W        W97903  21.102  36.440   2.315
32743W        W97904  29.433   5.599   0.028
32744W        W97905  41.399  32.572   1.389
32745W        W97906  43.790  34.946  14.413
32746W        W97907   6.315  31.605   4.479
32747W        W97908  10.874   0.833   3.342
32748W        W97909  21.104   3.421  13.129
32749W        W97910  36.147  29.543  12.980
32750W        W97911   9.438   4.861   0.266
32751W        W97912  24.526  28.333  12.447
32752W        W97913   5.056  37.884   5.015
32753W        W97914  37.088  26.600  10.493
32754W        W97915  29.220   1.395   4.102
32755W        W97916  10.420  42.407  11.645
32756W        W97917  16.229  18.719   1.946
32757W        W97918   6.272  22.076  12.838
32758W        W97919  38.654   5.605  11.258
32759W        W97920   5.403  19.755  14.702
32760W        W97921  22.948  12.059  14.498
32761W        W97922   6.888  17.581  12.495
32762W        W97923  44.291  31.548  14.889
32763W        W97924  15.796  29.747  13.100
32764W        W97925  40.526   2.418   3.710
32765W        W97926  42.898   0.326  14.305
32766W        W97927  25.612  41.457   0.522
32767W        W97928   5.926   3.004   2.949
32768W        W97929   7.641  22.265   0.865
32769W        W97930  36.906  43.922   4.208
32770W        W97931  39.032   1.961   0.839
32771W        W97932  17.733  26.992   4.471
32772W        W97933  32.026  25.671  14.868
32773W        W97934  18.493  35.668   2.876
32774W        W97935  31.841  17.403  13.583
32775W        W97936   0.392  19.561   1.889
32776W        W97937  24.170  23.152  10.729
32777W        W97938  23.364  44.978  14.452
32778W        W97939  14.768  18.299   4.266
32779W        W97940   1.884  16.204  14.293
32780W        W97941  16.042   9.043   3.699
32781W        W97942  31.668  34.819   3.579
32782W        W97943  29.905  25.640   4.483
32783W        W97944  33.521  24.125   0.081
32784W        W97945  24.023  26.632   2.308
32785W        W97946  34.304  20.507  11.648
32786W        W97947   7.576  30.892  14.725
32787W        W97948  40.793   7.338   3.144
32788W        W97949   8.410  35.809   3.704
32789W        W97950   5.917  43.205  11.880
32790W        W97951  17.541   2.007   4.389
32791W        W97952  28.411  17.247  14.227
32792W        W97953  23.278  41.315   3.709
32793W        W97954  34.100  38.843  11.253
32794W        W97955   9.453  36.626  10.862
32795W        W97956  24.925  41.811  14.885
32796W        W97957  13.933  25.638   4.680
32797W        W97958  14.366   9.633  14.569
32798W        W97959  17.051  25.837   1.397
32799W        W97960  23.750  12.072   1.882
32800W        W97961  20.832  11.561   1.365
32801W        W97962  25.669   4.663  14.408
32802W        W97963   0.604  19.698  13.383
32803W        W97964  40.347   6.784  11.111
32804W        W97965  31.745   8.502  11.813
32805W        W97966  23.227  40.545   4.075
32806W        W97967   6.586  11.251  10.399
32807W        W97968   2.954  30.482  12.024
32808W        W97969   4.005  43.458  11.984
32809W        W97970  44.436  21.509  11.621
32810W        W97971  21.167  44.410  13.337
32811W        W97972  37.353   3.410  13.784
32812W        W97973  25.132   8.221   3.970
32813W        W97974  16.047   6.828  10.572
32814W        W97975  29.963  41.139   0.237
32815W        W97976  41.849  18.938   3.708
32816W        W97977   2.848  27.043   0.836
32817W        W97978  18.323   6.352  10.476
32818W        W97979   6.648  41.325   1.878
32819W        W97980  29.725   8.597  10.940
32820W        W97981  29.197  30.252   1.367
32821W        W97982   5.946  29.604   3.604
32822W        W97983  35.445  27.057   0.544
32823W        W97984  21.265   7.340   3.826
32824W        W97985  29.604  16.309  13.534
32825W        W97986  40.552  27.761  11.164
32826W        W97987  38.922  29.818  14.343
32827W        W97988  14.382  40.182  10.194
32828W        W97989  41.436  22.700  13.511
32829W        W97990   3.861  23.765  11.394
32830W        W97991  41.563   4.847   0.699
32831W        W97992  10.710  38.766  11.457
32832W        W97993   8.881  19.957  12.521
32833W        W97994  17.225  16.566  14.801
32834W        W97995   7.926  12.306   4.527
32835W        W97996  17.225  24.959  13.933
32836W        W97997   2.987  27.965  12.449
32837W        W97998   0.976  16.873  13.748
32838W        W97999   7.194   7.420  13.316
32839W        W98000   3.991  16.118  11.053
32840W        W98001  14.446   0.441  14.816
32841W        W98002   0.264  32.628   5.530
32842W        W98003   0.993  43.856  14.745
32843W        W98004   9.320  19.797  14.994
32844W        W98005  26.501  34.511  13.658
32845W        W98006  29.828  33.895   0.602
32846W        W98007  18.102  43.560  12.672
32847W        W98008   2.902   6.286   1.762
32848W        W98009  14.542  29.051  10.848
32849W        W98010  31.411  12.656  12.641
32850W        W98011  28.372  23.173   1.238
32851W        W98012  35.618  20.691  12.825
32852W        W98013  21.043  18.500  13.000
32853W        W98014   5.309  21.851   1.434
32854W        W98015  24.287   3.778   3.711
32855W        W98016  21.066  30.675   4.555
32856W        W98017  16.037  44.896   3.518
32857W        W98018  24.912  17.538  13.066
32858W        W98019  27.303  14.220  13.005
32859W        W98020   6.749  44.823  14.046
32860W        W98021  24.095   0.739  12.165
32861W        W98022  29.625  39.150   5.002
32862W        W98023  20.102  32.402   4.085
32863W        W98024  14.041  10.685  11.474
32864W        W98025  30.530  32.548  12.819
32865W        W98026  18.370  24.703   1.226
32866W        W98027  14.614  19.589  14.415
32867W        W98028  31.740  34.459  12.901
32868W        W98029  16.390  26.989  10.525
32869W        W98030  43.898  13.901  12.880
32870W        W98031  26.526  36.062  13.380
32871W        W98032  29.856   1.740   4.798
32872W        W98033  30.425  36.835   2.263
32873W        W98034  34.826  39.849  11.110
32874W        W98035  41.936  30.238   4.332
32875W        W98036  15.491  24.515  11.435
32876W        W98037   0.292   7.727  13.877
32877W        W98038   7.439  33.490  12.050
32878W        W98039   4.945   0.187   1.446
32879W        W98040  21.975  18.881  12.702
32880W        W98041  39.877  16.861   3.070
32881W        W98042   0.946  30.724  11.936
32882W        W98043  26.635  16.723  13.775
32883W        W98044  19.968  23.751  12.935
32884W        W98045  33.887  26.481   2.696
32885W        W98046   9.348  11.672   2.340
32886W        W98047  32.882   5.927  14.289
32887W        W98048  15.142  29.113  14.373
32888W        W98049  17.085   3.074  11.794
32889W        W98050   4.924   5.772   0.660
32890W        W98051   5.305  25.171   4.985
32891W        W98052   7.394  31.964  14.922
32892W        W98053  32.938  41.064   2.601
32893W        W98054   2.419  34.202  10.563
32894W        W98055  21.609   7.712  10.755
32895W        W98056  23.531  30.205  14.054
32896W        W98057  18.596  36.164   3.076
32897W        W98058  39.987  43.739   3.283
32898W        W98059  34.994  34.583   4.523
32899W        W98060   8.773  26.564   3.700
32900W        W98061  12.601  38.942   0.259
32901W        W98062  36.607   7.899  13.003
32902W        W98063  28.653  21.276  14.805
32903W        W98064   5.957  19.601  13.594
32904W        W98065  14.825   9.129   0.189
32905W        W98066  20.104  15.152  13.964
32906W        W98067  10.354  28.406   2.235
32907W        W98068   8.879  17.111  10.402
32908W        W98069  37.578  12.211   2.818
32909W        W98070  41.571  32.826  11.951
32910W        W98071  22.086  34.899   2.450
32911W        W98072  13.807  35.524  11.018
32912W        W98073   3.241  24.448  11.771
32913W        W98074  14.776   5.246  13.472
32914W        W98075  13.180   4.752  12.695
32915W        W98076  42.297   4.809  11.947
32916W        W98077   2.040  20.601  14.968
32917W        W98078  10.669   2.779   2.001
32918W        W98079  13.717  13.565   4.249
32919W        W98080  30.862  19.408   1.544
32920W        W98081  16.533  20.588  14.855
32921W        W98082   4.872  19.319  11.650
32922W        W98083  37.123  29.651  12.821
32923W        W98084   5.689   9.923   2.282
32924W        W98085  23.096  41.968   0.245
32925W        W98086   3.997  30.607  11.153
32926W        W98087  12.077  14.669  11.246
32927W        W98088  44.558  39.354   4.150
32928W        W98089  34.471   7.154   2.243
32929W        W98090  35.114  37.292  13.844
32930W        W98091  26.166  15.270  11.325
32931W        W98092  26.756   3.956  11.581
32932W        W98093  23.722  10.385  12.019
32933W        W98094  32.592  22.802  13.451
32934W        W98095  16.275   6.704   0.940
32935W        W98096   3.675  27.521  14.977
32936W        W98097  10.347   0.630   3.536
32937W        W98098  22.373  14.117  11.852
32938W        W98099   3.947   3.946  13.756
32939W        W98100   2.960  28.241   1.367
32940W        W98101  18.165   5.396   3.694
32941W        W98102  17.493  30.119   1.602
32942W        W98103  23.715  38.537   2.809
32943W        W98104  21.602  23.995  13.842
32944W        W98105  36.167   6.676  11.168
32945W        W98106  35.940  26.440  13.908
32946W        W98107  36.070  24.202   3.247
32947W        W98108   7.970  28.558  11.131
32948W        W98109  11.189  42.446  12.563
32949W        W98110  20.616  30.694   2.868
32950W        W98111  14.432  38.136  12.338
32951W        W98112   7.257   9.189   2.825
32952W        W98113   1.835  16.620  11.994
32953W        W98114  18.718   2.298   3.727
32954W        W98115  16.741  43.156   3.126
32955W        W98116  11.863  44.133  14.087
32956W        W98117  19.725  23.247  11.025
32957W        W98118  12.158  18.999  12.487
32958W        W98119  42.799   4.802   1.888
32959W        W98120  23.148  25.543   0.270
32960W        W98121  37.432  42.797   2.453
32961W        W98122   3.418   8.224   1.901
32962W        W98123  20.159  31.813  13.157
32963W        W98124  29.015  29.725  11.022
32964W        W98125   0.362  35.004  12.813
32965W        W98126  42.095  25.280  13.064
32966W        W98127  39.294  23.435  12.397
32967W        W98128  24.282  12.306   1.642
32968W        W98129  26.455   5.453   3.640
32969W        W98130  19.138  36.281   2.798
32970W        W98131  20.787  25.605  13.536
32971W        W98132  38.535  28.671  11.007
32972W        W98133  32.114  39.389  14.539
32973W        W98134  43.430  28.598   1.998
32974W        W98135   4.191   0.412   3.972
32975W        W98136  39.950   5.845   1.173
32976W        W98137   0.105  37.188   0.804
32977W        W98138  10.199   9.808  14.712
32978W        W98139  19.232  30.690  14.581
32979W        W98140   0.393  36.662  14.266
32980W        W98141  33.603  12.230  11.052
32981W        W98142   1.434  41.376   1.076
32982W        W98143   4.184   1.352  13.578
32983W        W98144  40.502  35.471   4.186
32984W        W98145   4.623  15.805   5.111
32985W        W98146   8.468  32.596  12.239
32986W        W98147  22.717  37.620  14.070
32987W        W98148   2.866  43.898   3.542
32988W        W98149   9.699  40.864  14.580
32989W        W98150  10.939  38.977  11.051
32990W        W98151  14.892  31.509  11.139
32991W        W98152   5.779  16.008   3.427
32992W        W98153  11.838  38.386  10.679
32993W        W98154   3.298  29.168  12.962
32994W        W98155  15.506   1.230  13.416
32995W        W98156  10.154  22.571   2.258
32996W        W98157  31.337   4.890   1.211
32997W        W98158   5.400  35.498   4.394
32998W        W98159  29.178  41.649  13.828
32999W        W98160  42.806   3.918  11.180
33000W        W98161  21.257  24.739   3.414
33001W        W98162  10.942  12.701  13.767
33002W        W98163  26.948  39.523  10.375
33003W        W98164  13.789  41.871   3.153
33004W        W98165  33.455  33.867  13.532
33005W        W98166  44.194  35.289  11.563
33006W        W98167   1.639  42.222  12.560
33007W        W98168   2.044   1.828  12.123
33008W        W98169  23.765  18.106   4.253
33009W        W98170  20.602  43.567  11.406
33010W        W98171   8.155  40.525   1.271
33011W        W98172   4.725  44.426  12.892
33012W        W98173  24.192  25.735   3.713
33013W        W98174  19.557  33.194   0.412
33014W        W98175   3.197   7.480  14.850
33015W        W98176  42.242   1.062  11.628
33016W        W98177  27.919  39.432   4.160
33017W        W98178   2.829  21.649  13.301
33018W        W98179  36.725  13.610   3.641
33019W        W98180  19.442  16.859   2.336
33020W        W98181  26.676  41.724  12.568
33021W        W98182  28.335   4.235  13.943
33022W        W98183  19.671  19.002   3.542
33023W        W98184  19.144   0.203  11.885
33024W        W98185  17.094  12.112  11.591
33025W        W98186  27.067  24.186   3.082
33026W        W98187  18.943  29.623   3.221
33027W        W98188  21.288   7.470  10.382
33028W        W98189  20.518  17.430  14.558
33029W        W98190  42.249   5.064  11.103
33030W        W98191  36.539  36.005  10.313
33031W        W98192  36.456  13.023   4.522
33032W        W98193  29.112  10.656  12.324
33033W        W98194  31.858  10.785   1.366
33034W        W98195  23.701  33.427   1.219
33035W        W98196  21.041  42.892  14.957
33036W        W98197  43.524  16.588  13.845
33037W        W98198  32.012   6.687   3.464
33038W        W98199  11.866   5.484   4.019
33039W        W98200  13.012  41.298  12.645
33040W        W98201  15.533  22.497   1.914
33041W        W98202  44.613  26.385  12.116
33042W        W98203   7.502   9.137   0.943
33043W        W98204  15.150   9.923   4.569
33044W        W98205  12.368  25.234  14.514
33045W        W98206   9.635   7.134   3.141
33046W        W98207  13.860   5.631  14.954
33047W        W98208  30.621  38.330  14.371
33048W        W98209   9.840  39.742   4.128
33049W        W98210  28.428  39.046   1.842
33050W        W98211  26.686  20.771  11.158
33051W        W98212  20.252  38.217   4.631
33052W        W98213   5.843   5.200  10.409
33053W        W98214  35.047   5.258   0.558
33054W        W98215  18.595  40.506   1.245
33055W        W98216   3.869  41.011   4.652
33056W        W98217  42.065  17.677   1.286
33057W        W98218  13.781  40.616  10.759
33058W        W98219  31.622  28.599  12.939
33059W        W98220  20.633  35.993   0.739
33060W        W98221  26.469  40.140   3.184
33061W        W98222  24.190  10.851   2.230
33062W        W98223  37.831  41.902   1.404
33063W        W98224   9.777   7.593  12.048
33064W        W98225   2.878  38.267   1.106
33065W        W98226  15.575  18.544   3.739
33066W        W98227   4.463   4.589  14.773
33067W        W98228  28.641   5.992   3.244
33068W        W98229  13.131  39.528  13.634
33069W        W98230   6.955  11.000   4.010
33070W        W98231  40.046  21.041   2.821
33071W        W98232  38.208  33.008   4.126
33072W        W98233  16.166  32.891  13.815
33073W        W98234   7.332  24.722  13.889
33074W        W98235   8.377  30.128  10.636
33075W        W98236  13.292  42.574  13.580
33076W        W98237  35.381  24.663  10.655
33077W        W98238  10.286  27.304  12.881
33078W        W98239  22.599   9.141  14.330
33079W        W98240   2.590  17.448   2.351
33080W        W98241  34.732  16.218  12.161
33081W        W98242  10.763   5.307  11.929
33082W        W98243  18.297  11.217  14.013
33083W        W98244  37.452  44.723  12.559
33084W        W98245  27.659  22.546   0.999
33085W        W98246  38.833   7.834  13.483
33086W        W98247  14.213  11.167  11.603
33087W        W98248  34.146  39.832   0.279
33088W        W98249  42.324  42.080  12.098
33089W        W98250   4.818  12.620  11.781
33090W        W98251  36.145  42.942  11.197
33091W        W98252  21.451  21.404   5.050
33092W        W98253   2.335  22.558  14.990
33093W        W98254   6.310   9.090  13.466
33094W        W98255  30.491  11.418  11.128
33095W        W98256  19.705  27.996  12.028
33096W        W98257  14.338   7.913   1.330
33097W        W98258   2.704  23.717   4.428
33098W        W98259  26.737  12.723  12.909
33099W        W98260  36.391   5.302  11.250
33100W        W98261  34.402  19.464  12.899
33101W        W98262   0.876   8.604  11.116
33102W        W98263  31.344  44.869  12.059
33103W        W98264  26.345   7.559   1.283
33104W        W98265  14.828   8.184   2.220
33105W        W98266  30.600  29.409   0.804
33106W        W98267  37.871   4.377  13.415
33107W        W98268  28.516   3.101   0.215
33108W        W98269  14.290  22.491  11.119
33109W        W98270  16.299  36.614  11.196
33110W        W98271  24.984  19.075  11.895
33111W        W98272  14.585  13.394   0.211
33112W        W98273   3.806  15.282  12.535
33113W        W98274  44.368  42.731   9.667
33114W        W98275  14.609   9.418   1.591
33115W        W98276  34.031  13.068   1.350
33116W        W98277  24.449  29.155   1.170
33117W        W98278  26.661  33.928  14.680
33118W        W98279  18.405  37.254   4.824
33119W        W98280  23.318  13.215  11.692
33120W        W98281  29.174   4.938  13.616
33121W        W98282  17.908  31.572   2.698
33122W        W98283  27.108  35.520   4.642
33123W        W98284  25.184  27.625  11.510
33124W        W98285  11.937   7.203  13.834
33125W        W98286  21.792  28.419  11.902
33126W        W98287  22.641  35.501   2.785
33127W        W98288  18.965  28.457   0.871
33128W        W98289   8.268   0.353   0.180
33129W        W98290   2.816   0.790   4.379
33130W        W98291  30.463  20.277  14.768
33131W        W98292   8.755  27.962  10.729
33132W        W98293  25.655  37.885   3.719
33133W        W98294  25.481  44.726   4.082
33134W        W98295  41.941  38.452   3.721
33135W        W98296  42.817   2.250  13.484
33136W        W98297  15.441  18.597   4.573
33137W        W98298  19.962  24.541   0.733
33138W        W98299  12.714  38.858  11.638
33139W        W98300   3.027  32.850  13.006
33140W        W98301  15.722  26.922   2.214
33141W        W98302  40.472  37.919  11.100
33142W        W98303  22.339   1.563  13.989
33143W        W98304  12.552  30.433   3.653
33144W        W98305  23.460  19.064   1.787
33145W        W98306  10.667  25.631   1.479
33146W        W98307  25.727  17.179  11.474
33147W        W98308   5.014  17.822   4.553
33148W        W98309   2.323  39.889  11.604
33149W        W98310  37.336  30.030  10.784
33150W        W98311  37.394  21.800   4.270
33151W        W98312  18.355  12.227  12.948
33152W        W98313  27.599  43.088  11.491
33153W        W98314  40.430  34.525   4.619
33154W        W98315   6.155   0.518  11.162
33155W        W98316  13.110  23.843  11.985
33156W        W98317  26.418   5.497  11.478
33157W        W98318  14.546  16.366  14.941
33158W        W98319  21.550  29.066  14.274
33159W        W98320  18.029   1.724  13.078
33160W        W98321   2.834   1.364  14.757
33161W        W98322  12.182  29.521  10.451
33162W        W98323  36.124  32.860   0.875
33163W        W98324  34.962   7.432   3.573
33164W        W98325  33.575  21.500   3.002
33165W        W98326  15.198   1.053  11.586
33166W        W98327  27.818  42.571  14.779
33167W        W98328  44.203  28.719  10.701
33168W        W98329   1.044  25.674  10.986
33169W        W98330   0.088  35.165   4.360
33170W        W98331  24.644  25.004   2.868
33171W        W98332  21.533  38.580   3.113
33172W        W98333  40.057  24.319   2.492
33173W        W98334  36.353  33.184  14.605
33174W        W98335  10.488  25.163  11.638
33175W        W98336  43.415  39.271   0.679
33176W        W98337  43.766  15.565  12.354
33177W        W98338   1.413   6.358   0.386
33178W        W98339  23.997  11.740   2.761
33179W        W98340  29.936  12.648  11.607
33180W        W98341  12.225  10.760   4.268
33181W        W98342  44.030  32.897  12.938
33182W        W98343   2.779  33.000  10.447
33183W        W98344  19.967  30.586  13.892
33184W        W98345  12.915  27.966  13.410
33185W        W98346   9.021   0.253  14.423
33186W        W98347  25.109  32.730  14.771
33187W        W98348  20.952  16.233   1.757
33188W        W98349  12.590  10.107   1.416
33189W        W98350  23.033  23.419   4.076
33190W        W98351   0.048  10.104   0.532
33191W        W98352  14.251  44.974   4.141
33192W        W98353  41.560   7.626   0.010
33193W        W98354  18.627  11.506   1.750
33194W        W98355   5.623  24.065   2.958
33195W        W98356  12.175  39.790   3.619
33196W        W98357  41.619  37.376   1.381
33197W        W98358  24.932  41.753  10.715
33198W        W98359  44.828   2.208  12.515
33199W        W98360   0.477  16.504   4.461
33200W        W98361  44.321  40.782  10.998
33201W        W98362  12.801  21.218  13.735
33202W        W98363  33.925  21.598  11.841
33203W        W98364   3.172  33.327  11.557
33204W        W98365  34.064  16.157  13.658
33205W        W98366   3.923  24.059   3.154
33206W        W98367  41.865  14.156   1.347
33207W        W98368  11.739   5.484  12.536
33208W        W98369  43.538  13.310  10.762
33209W        W98370  24.296  18.189   2.174
33210W        W98371   2.169  20.452  14.472
33211W        W98372   8.303  16.135  10.603
33212W        W98373   7.375  35.409  12.039
33213W        W98374   8.409  14.762   1.834
33214W        W98375  37.985   3.960  11.493
33215W        W98376   0.725  10.647   4.517
33216W        W98377  14.227  32.862   0.403
33217W        W98378  22.240  16.291   1.322
33218W        W98379  22.741  21.233  10.641
33219W        W98380  37.613  24.382   0.250
33220W        W98381   4.527   2.842   1.455
33221W        W98382   2.859   1.695   2.912
33222W        W98383  27.383  41.023   1.444
33223W        W98384   8.790  35.599   2.292
33224W        W98385  28.598  39.392   2.484
33225W        W98386   2.634  43.368  12.468
33226W        W98387  34.665  42.532  13.402
33227W        W98388  16.429  40.611   2.776
33228W        W98389   0.633   4.757   1.241
33229W        W98390  16.351  18.452  12.430
33230W        W98391  11.714  30.823  13.481
33231W        W98392  19.381  43.368   3.536
33232W        W98393   6.814  32.078  14.471
33233W        W98394  25.067   9.612  14.771
33234W        W98395   1.003  34.847  11.612
33235W        W98396   5.042  32.408  11.557
33236W        W98397  14.074  38.832  14.062
33237W        W98398  17.878  30.219   1.174
33238W        W98399   4.826  28.598   2.317
33239W        W98400  30.671   5.948  12.521
33240W        W98401   1.442  10.885   0.785
33241W        W98402  37.494  26.374  14.128
33242W        W98403  11.476  28.907   4.068
33243W        W98404  31.116  27.989  11.848
33244W        W98405  36.562  15.268  11.626
33245W        W98406   4.242  18.389   0.329
33246W        W98407  21.492  21.545  14.499
33247W        W98408  42.082  16.190  11.055
33248W        W98409  35.000   3.956  13.535
33249W        W98410   6.876   8.582   3.587
33250W        W98411   8.772   0.892  11.567
33251W        W98412  29.711  39.620   1.256
33252W        W98413  21.614  31.149  13.576
33253W        W98414  18.264  32.888  14.284
33254W        W98415   5.522   2.391  12.807
33255W        W98416  33.422  39.097  12.176
33256W        W98417  34.519  25.166   0.157
33257W        W98418  18.241  11.845   1.742
33258W        W98419  34.020   1.705  14.833
33259W        W98420  15.949  38.627   4.143
33260W        W98421   4.488  38.378   3.082
33261W        W98422  20.901  16.436  12.058
33262W        W98423  31.116  32.968  11.589
33263W        W98424   9.074  20.754  14.767
33264W        W98425  22.478  20.396   0.784
33265W        W98426  25.552  36.404  13.337
33266W        W98427  21.996  10.111   2.397
33267W        W98428  11.232   5.126   4.715
33268W        W98429   2.917  24.210  12.076
33269W        W98430  15.606  27.741   3.414
33270W        W98431  21.619   3.880  11.438
33271W        W98432  36.367  34.238  12.002
33272W        W98433  11.272  27.091   0.720
33273W        W98434  16.098  31.371   0.469
33274W        W98435  28.000  42.429   4.346
33275W        W98436   8.693  32.372  14.797
33276W        W98437  12.244  17.059   4.474
33277W        W98438  26.783  36.295   2.017
33278W        W98439  23.754  27.785  13.048
33279W        W98440  22.272  38.554   2.779
33280W        W98441  25.602  19.435   4.058
33281W        W98442  38.891   6.773   0.874
33282W        W98443   0.831  13.041  14.862
33283W        W98444  26.770  43.450   0.856
33284W        W98445  30.109  13.973   1.351
33285W        W98446  11.364  43.760   1.668
33286W        W98447  26.993  37.883  12.480
33287W        W98448  18.195  10.809   3.198
33288W        W98449  11.418  25.066   3.084
33289W        W98450   6.674  15.625  11.531
33290W        W98451  13.220   8.335  10.733
33291W        W98452  20.732   5.819   1.255
33292W        W98453  27.206  26.639   0.955
33293W        W98454   5.294   2.833  12.096
33294W        W98455  37.455  27.519  13.335
33295W        W98456  18.091  21.679   0.801
33296W        W98457  22.371  16.260   5.440
33297W        W98458   7.681  35.414  13.471
33298W        W98459  22.349  15.875  10.239
33299W        W98460   1.989  28.597   3.763
33300W        W98461   4.088  33.948  14.766
33301W        W98462   7.859  37.456  10.710
33302W        W98463  10.813   1.474  13.507
33303W        W98464  35.596  44.176  13.415
33304W        W98465  33.032  21.247  10.731
33305W        W98466  19.099  12.312   1.236
33306W        W98467  34.886  43.386   4.270
33307W        W98468  12.684   4.342   3.575
33308W        W98469   7.763   1.035   0.756
33309W        W98470  35.391  29.566  14.312
33310W        W98471  37.523  36.254  11.295
33311W        W98472  32.650  14.280  11.036
33312W        W98473  26.050  16.335   1.866
33313W        W98474  17.090  37.570  13.103
33314W        W98475   9.102  12.798   1.242
33315W        W98476  34.207  31.281  11.373
33316W        W98477  30.715  19.767  14.320
33317W        W98478  43.415   5.425  13.176
33318W        W98479  23.169  38.378   3.793
33319W        W98480  12.882  37.496   3.649
33320W        W98481  23.267  22.651   3.127
33321W        W98482   9.698  41.910   3.836
33322W        W98483  11.094   2.474   3.270
33323W        W98484  42.762  20.092   4.679
33324W        W98485   7.533   6.969   0.454
33325W        W98486  28.636  12.015  13.992
33326W        W98487   9.606  37.007  13.311
33327W        W98488  17.351  44.985  13.406
33328W        W98489   1.616  33.505   4.142
33329W        W98490   7.794  15.348  11.580
33330W        W98491   9.355   5.195   3.142
33331W        W98492  37.097   4.061   1.301
33332W        W98493  29.559  29.353   1.874
33333W        W98494   3.798  16.718   3.401
33334W        W98495  44.326  28.646   3.652
33335W        W98496  13.238  39.972   3.731
33336W        W98497  26.346  13.794   5.143
33337W        W98498  43.937  23.178   1.491
33338W        W98499  34.924   7.983   2.251
33339W        W98500   3.742  24.687   3.276
33340W        W98501  33.576  39.427   1.654
33341W        W98502  21.024  23.474   2.734
33342W        W98503  38.117  31.618  13.334
33343W        W98504   1.935  14.189  13.025
33344W        W98505  18.210   5.331  12.874
33345W        W98506  20.924   2.125   0.169
33346W        W98507  14.689  21.494  13.317
33347W        W98508   5.726   0.819   1.437
33348W        W98509  44.376  23.538  12.465
33349W        W98510  20.930   7.214  12.443
33350W        W98511   3.939   9.311   0.075
33351W        W98512  36.396  22.986   4.792
33352W        W98513  18.927  31.145  13.349
33353W        W98514  12.952   6.830  11.984
33354W        W98515  31.682  39.165  11.499
33355W        W98516   8.475   4.573   1.705
33356W        W98517   5.063  14.552   1.905
33357W        W98518  22.966  13.095   3.709
33358W        W98519  32.485  39.556  12.935
33359W        W98520  30.907   3.202  13.050
33360W        W98521  25.463  13.180  13.107
33361W        W98522  29.039  38.852  12.434
33362W        W98523   5.048  40.911   1.358
33363W        W98524   6.824   7.239   2.914
33364W        W98525   2.815   8.094  11.092
33365W        W98526  33.111  28.332   1.022
33366W        W98527  12.725   8.199  12.844
33367W        W98528  24.081   7.425  13.965
33368W        W98529  23.242  13.302  12.197
33369W        W98530   8.658  31.091  13.802
33370W        W98531  33.094  42.713  11.096
33371W        W98532   5.192  27.931   0.787
33372W        W98533   7.310  23.539   3.347
33373W        W98534   6.284  17.934   0.879
33374W        W98535  23.190  43.487  14.862
33375W        W98536  20.491   5.493  12.594
33376W        W98537  29.126   1.913   4.106
33377W        W98538   2.383  40.416   0.755
33378W        W98539  35.595  12.005   0.459
33379W        W98540  44.785   0.738  12.514
33380W        W98541  39.897  18.537  13.500
33381W        W98542  39.985  38.717   1.138
33382W        W98543  10.279  43.299  11.810
33383W        W98544  22.024  12.680  11.031
33384W        W98545  16.615   5.656  13.719
33385W        W98546  21.334  35.785   2.361
33386W        W98547   1.504   7.153   2.255
33387W        W98548   0.209  42.780   3.628
33388W        W98549  39.358  35.211   3.334
33389W        W98550   5.805  18.730   3.859
33390W        W98551  35.936  22.505  13.859
33391W        W98552  42.262  19.980  13.262
33392W        W98553  22.719  32.466  14.408
33393W        W98554  42.111  16.122   2.915
33394W        W98555  35.322  20.802  13.908
33395W        W98556   4.172  37.411  14.830
33396W        W98557  13.220  30.018  11.112
33397W        W98558  29.066  27.937   3.033
33398W        W98559  44.189  42.141  11.517
33399W        W98560  30.608  15.026  14.894
33400W        W98561   9.627  13.064   3.924
33401W        W98562   6.425  29.658  12.943
33402W        W98563   9.024   0.518  13.019
33403W        W98564  25.163  43.273  11.628
33404W        W98565  38.237   0.957   1.429
33405W        W98566  41.876  40.061   2.197
33406W        W98567  27.165  22.753  11.139
33407W        W98568  44.104   9.453  14.531
33408W        W98569  28.631   0.079  12.007
33409W        W98570  11.459  17.484  10.444
33410W        W98571  27.253  20.309  11.239
33411W        W98572  29.039  44.245  11.937
33412W        W98573  10.211   2.881   3.670
33413W        W98574   5.218  31.020  11.485
33414W        W98575  18.653   8.919   2.363
33415W        W98576  18.950  24.052   3.701
33416W        W98577  28.478  36.613   2.343
33417W        W98578   2.794  26.122  10.766
33418W        W98579   2.033   5.848   2.182
33419W        W98580  20.763  12.167   2.109
33420W        W98581   3.273  21.042  10.689
33421W        W98582  18.568  18.701   0.411
33422W        W98583   8.675  11.379   0.915
33423W        W98584   7.744   1.494   1.053
33424W        W98585  36.074  44.708  12.436
33425W        W98586  19.082  42.384   2.152
33426W        W98587  34.041  20.682  11.159
33427W        W98588  12.683   0.488  12.947
33428W        W98589   7.176   8.919   4.122
33429W        W98590   8.966   9.638   1.695
33430W        W98591  23.107  41.936  14.697
33431W        W98592   4.187  28.046   4.137
33432W        W98593  31.354  35.263  13.033
33433W        W98594   0.497  10.909   3.924
33434W        W98595  11.777   6.381   2.795
33435W        W98596   9.129  30.539  14.302
33436W        W98597  36.068   2.460   1.890
33437W        W98598  40.934  22.392   3.467
33438W        W98599  27.423  22.536  10.724
33439W        W98600   4.895  15.339  11.489
33440W        W98601  29.780   2.078   0.857
33441W        W98602  32.233  11.714  12.503
33442W        W98603  39.985  39.549  12.975
33443W        W98604  28.558   7.487  12.440
33444W        W98605  42.965  34.544   4.356
33445W        W98606   3.456  14.130   4.218
33446W        W98607  21.592  23.602  10.534
33447W        W98608   1.026  23.695   3.301
33448W        W98609  36.613  19.762   1.200
33449W        W98610  29.836  17.969   4.274
33450W        W98611  41.313  35.533  14.459
33451W        W98612  43.015  33.676   3.334
33452W        W98613  30.324  10.503  12.799
33453W        W98614  30.305  37.973  13.259
33454W        W98615  20.136  36.501  13.713
33455W        W98616  22.991   3.163  11.781
33456W        W98617  15.337  12.701   1.984
33457W        W98618  36.987   6.159   4.069
33458W        W98619  39.544  27.911   4.088
33459W        W98620   7.860  13.339   2.433
33460W        W98621  39.051   3.512   0.703
33461W        W98622  44.961  23.064   0.053
33462W        W98623   9.764  14.838  12.571
33463W        W98624  38.717  15.985   3.571
33464W        W98625  34.474  18.517  13.823
33465W        W98626  34.988  14.020   0.010
33466W        W98627   2.328  30.365  13.784
33467W        W98628  44.927  43.895   3.158
33468W        W98629  39.022  44.156   4.200
33469W        W98630  11.693   2.145   2.321
33470W        W98631  28.035   0.983   0.383
33471W        W98632  19.062  11.722   2.448
33472W        W98633  38.536  33.841   1.778
33473W        W98634   2.694  34.886  14.804
33474W        W98635  23.502  35.413   4.078
33475W        W98636  12.243  21.708   2.425
33476W        W98637  35.967  36.841   4.696
33477W        W98638  23.936  33.819   3.827
33478W        W98639   2.998  24.560  11.339
33479W        W98640  27.492  27.052   4.658
33480W        W98641  12.048  34.351  11.933
33481W        W98642  44.218  40.988  12.356
33482W        W98643  37.260  16.760   2.686
33483W        W98644  11.673  39.892   1.257
33484W        W98645  21.491  28.629   0.819
33485W        W98646  21.571  24.460   0.346
33486W        W98647  14.447  16.713   0.733
33487W        W98648  31.682  28.150  14.889
33488W        W98649  14.473  10.404   5.063
33489W        W98650  40.810   4.124  14.943
33490W        W98651  18.607   2.841  11.653
33491W        W98652   0.457   6.822  14.693
33492W        W98653  29.314  12.975   9.849
33493W        W98654  14.539   6.316   3.654
33494W        W98655  14.453  21.190   2.354
33495W        W98656   5.082  15.484   4.973
33496W        W98657   5.049   1.790   3.279
33497W        W98658  35.486  38.849  14.074
33498W        W98659  26.298  11.614   1.785
33499W        W98660  24.453  36.433  11.215
33500W        W98661  44.547  32.224  12.525
33501W        W98662  36.442  33.422  12.951
33502W        W98663  24.994  42.960   3.711
33503W        W98664   7.406  40.018  13.488
33504W        W98665  40.153  25.134  11.485
33505W        W98666  37.443  12.760  14.954
33506W        W98667  19.009   4.091   1.312
33507W        W98668  43.435  34.374   4.569
33508W        W98669   3.963  39.257   0.423
33509W        W98670  29.028   0.665   4.736
33510W        W98671  11.494  22.305   3.705
33511W        W98672  43.202  36.125  14.041
33512W        W98673  28.705  42.415   1.272
33513W        W98674   2.962   7.224   0.789
33514W        W98675  34.472  15.787  11.662
33515W        W98676  40.204  23.106  10.740
33516W        W98677   8.180   7.355   2.665
33517W        W98678  21.113  30.708   2.722
33518W        W98679  43.959  20.683   4.581
33519W        W98680  14.431  38.779  12.689
33520W        W98681   9.914  27.817  11.251
33521W        W98682  19.778  12.694  10.718
33522W        W98683  24.446  31.115  11.555
33523W        W98684  12.775  41.057   3.281
33524W        W98685   4.093  38.891  14.946
33525W        W98686  12.476  27.038   4.593
33526W        W98687  24.597  30.040   1.240
33527W        W98688   5.820  16.009  14.555
33528W        W98689  11.248  36.911  10.624
33529W        W98690   4.083  11.606  12.828
33530W        W98691  17.957  14.931  14.261
33531W        W98692  20.197  19.656  12.285
33532W        W98693  15.643   6.606  13.497
33533W        W98694  42.241  32.720  14.823
33534W        W98695   9.275   1.393  14.939
33535W        W98696  10.242  23.483   1.277
33536W        W98697  22.774  36.918   0.987
33537W        W98698  20.567  41.445   4.708
33538W        W98699  33.045   9.388   1.764
33539W        W98700   0.221  14.674   4.073
33540W        W98701  15.174  36.948  10.972
33541W        W98702  27.169  42.990   2.172
33542W        W98703   2.844  41.308   0.919
33543W        W98704   5.888  28.786   1.448
33544W        W98705  12.155  20.335  12.565
33545W        W98706  22.166   3.446   0.861
33546W        W98707   3.356   5.400   0.768
33547W        W98708  25.457  43.922  11.876
33548W        W98709  30.435  34.410  14.319
33549W        W98710  41.966  25.144   3.364
33550W        W98711   6.566  27.037  12.989
33551W        W98712   0.119  18.050   3.156
33552W        W98713   6.307  26.596  11.106
33553W        W98714  37.034  15.836  14.265
33554W        W98715  39.097   7.894  12.537
33555W        W98716  17.000  21.371   3.275
33556W        W98717   9.128  27.232  14.874
33557W        W98718  29.479   1.894  11.070
33558W        W98719  14.802  16.183  11.158
33559W        W98720  17.205   9.384  12.052
33560W        W98721  34.313  42.956  13.409
33561W        W98722  18.228   5.703  13.210
33562W        W98723  18.546   0.558   0.039
33563W        W98724  37.008  16.332  13.416
33564W        W98725  28.209  28.715   0.617
33565W        W98726  22.101   0.687   1.279
33566W        W98727  22.532  42.272  11.551
33567W        W98728  12.069  19.882  14.523
33568W        W98729  12.251  28.056  10.928
33569W        W98730  35.676  32.362  13.075
33570W        W98731  37.350  14.211  12.090
33571W        W98732  34.133  20.458  12.969
33572W        W98733  26.483  31.506  12.054
33573W        W98734  27.145  19.702   4.649
33574W        W98735  39.751  39.678   2.588
33575W        W98736  19.765   1.280   4.071
33576W        W98737  17.029  14.368  11.630
33577W        W98738  23.493   3.525  12.376
33578W        W98739  40.711  10.746  13.762
33579W        W98740  26.589  29.126   1.418
33580W        W98741  43.274  41.502   3.153
33581W        W98742  13.716  33.656  12.595
33582W        W98743  10.709  34.664  12.478
33583W        W98744  34.654  44.313   0.293
33584W        W98745   9.186  19.198  11.456
33585W        W98746   9.594  26.607   4.099
33586W        W98747  22.211  34.647  12.043
33587W        W98748   8.908  36.188  14.318
33588W        W98749  36.319   6.352   4.684
33589W        W98750  14.026  17.055   4.006
33590W        W98751   9.199  31.299   2.811
33591W        W98752  24.579  19.618  14.962
33592W        W98753  11.289  43.758  10.733
33593W        W98754  12.804  17.491   4.532
33594W        W98755  27.489  12.236  14.494
33595W        W98756   9.784  25.396  14.969
33596W        W98757  38.328   1.188  12.438
33597W        W98758  36.535  31.404   0.547
33598W        W98759  43.411  27.706   4.967
33599W        W98760  14.419   2.399  13.213
33600W        W98761  28.554  17.731   1.454
33601W        W98762  25.591  44.835  11.273
33602W        W98763  10.510  25.112  14.391
33603W        W98764  34.545  27.493  14.298
33604W        W98765   1.861  44.726  13.924
33605W        W98766  15.275  41.763   4.578
33606W        W98767  41.837  30.013  12.476
33607W        W98768  37.335  40.335  10.779
33608W        W98769  37.932  43.345   2.896
33609W        W98770  15.408   5.750  14.679
33610W        W98771   7.469  33.422   2.645
33611W        W98772  13.996  41.831   3.633
33612W        W98773  20.286  35.700  12.277
33613W        W98774  35.261  19.709   4.635
33614W        W98775  23.697  20.714   3.694
33615W        W98776  15.687  12.128  14.650
33616W        W98777  39.933  13.984   0.104
33617W        W98778  37.169  39.501   0.732
33618W        W98779  21.265   2.737  13.816
33619W        W98780  39.644  17.062  12.832
33620W        W98781  14.338   5.462   4.553
33621W        W98782   5.851  43.813   2.322
33622W        W98783  19.159  30.239   3.720
33623W        W98784   6.176  33.875   2.804
33624W        W98785  29.600   0.770   0.839
33625W        W98786  28.048  41.324  13.459
33626W        W98787  44.303  41.453  14.099
33627W        W98788  34.830   9.353  11.970
33628W        W98789  16.305  26.171   3.184
33629W        W98790  10.911  32.483  14.360
33630W        W98791   4.450  35.940  10.762
33631W        W98792  24.985  36.075  14.539
33632W        W98793  23.134  41.524   5.078
33633W        W98794  25.484  29.875  11.461
33634W        W98795  19.321  11.282  13.681
33635W        W98796  36.400  21.121   1.011
33636W        W98797   8.246  28.791  10.709
33637W        W98798   9.365  41.902  10.992
33638W        W98799  36.093  24.154   0.252
33639W        W98800   7.226   5.447   4.633
33640W        W98801   7.626  27.346   4.998
33641W        W98802  40.952  13.376   3.613
33642W        W98803  30.533  15.604  11.682
33643W        W98804   3.134  25.330  10.743
33644W        W98805  30.890  18.661   4.551
33645W        W98806  19.695   9.669   4.423
33646W        W98807  24.467  35.295  13.846
33647W        W98808  38.093  40.995   2.361
33648W        W98809  13.276  26.433   3.906
33649W        W98810   8.939  35.354   2.717
33650W        W98811  27.192   5.626   0.791
33651W        W98812  18.662  44.839  13.900
33652W        W98813  23.207   5.943   0.553
33653W        W98814  11.687  30.897   3.632
33654W        W98815  31.546  13.698  12.965
33655W        W98816  11.152  32.680   1.877
33656W        W98817  18.039  34.329   1.368
33657W        W98818  35.619  25.725   3.291
33658W        W98819   5.314  31.461   1.214
33659W        W98820   8.530  15.617  11.692
33660W        W98821  37.720   4.720   0.284
33661W        W98822  43.965  44.279  12.934
33662W        W98823  16.773  16.447  14.308
33663W        W98824  23.674  22.503  11.667
33664W        W98825   9.879  23.889  11.981
33665W        W98826  34.555   4.730   2.308
33666W        W98827  10.836  17.635  13.522
33667W        W98828  17.987  38.055  13.952
33668W        W98829  42.382  44.216   2.504
33669W        W98830  22.758  27.399   4.290
33670W        W98831  13.171   1.132   2.661
33671W        W98832  10.667  20.038  14.919
33672W        W98833  30.432  22.141  14.224
33673W        W98834  43.042   9.841  13.472
33674W        W98835  38.366   1.465   3.801
33675W        W98836  35.921  13.111   1.378
33676W        W98837  20.612  44.269  13.313
33677W        W98838   9.666   6.903   3.730
33678W        W98839  40.607   1.691  13.286
33679W        W98840  32.154   8.864  12.970
33680W        W98841  44.410   2.651  13.783
33681W        W98842   6.496   0.501  12.856
33682W        W98843  25.599   1.385  12.013
33683W        W98844  26.523  31.806   4.153
33684W        W98845  42.271  18.800  12.541
33685W        W98846  30.104   7.881  10.786
33686W        W98847  27.702  34.482  12.526
33687W        W98848  40.428   8.637  14.345
33688W        W98849   7.148  30.468  12.420
33689W        W98850  31.230  29.495  11.787
33690W        W98851  19.020  25.998   0.987
33691W        W98852  37.128  36.418  13.911
33692W        W98853  23.480  18.151  11.974
33693W        W98854  39.546  35.970  13.590
33694W        W98855  36.800   0.737   0.353
33695W        W98856  32.634  33.055  11.999
33696W        W98857  25.852  23.435   0.362
33697W        W98858  44.581  19.565   1.963
33698W        W98859  39.945   3.139   2.252
33699W        W98860  16.146   7.305  13.749
33700W        W98861  37.137   5.205   0.898
33701W        W98862  38.138  25.553   1.857
33702W        W98863  33.831  18.620   4.506
33703W        W98864   3.002  14.854   2.275
33704W        W98865  25.462   9.798  11.605
33705W        W98866  11.973  34.679  14.523
33706W        W98867   7.776  29.380  12.015
33707W        W98868  27.428  36.776  14.951
33708W        W98869  37.432  11.358  13.926
33709W        W98870  23.488  11.462  11.869
33710W        W98871  24.210  29.629  11.627
33711W        W98872   2.468   2.956   4.100
33712W        W98873  19.072  19.803   0.230
33713W        W98874  44.262  28.737  13.353
33714W        W98875   6.266  43.072  12.467
33715W        W98876  25.421  17.506  13.871
33716W        W98877  11.625  31.029   2.715
33717W        W98878  36.045  23.542   1.664
33718W        W98879  17.526  16.060   1.167
33719W        W98880   7.244   5.980  11.247
33720W        W98881  23.983  30.015   0.390
33721W        W98882  30.916  28.167   1.233
33722W        W98883  26.666   4.382  13.040
33723W        W98884  23.582  11.887   1.135
33724W        W98885   5.749  22.016   0.997
33725W        W98886  26.376  39.097   2.100
33726W        W98887  30.050   5.382   2.214
33727W        W98888  20.656  17.245   1.707
33728W        W98889  39.532  38.938   1.300
33729W        W98890  21.615  12.011   0.313
33730W        W98891  31.599  28.968   3.528
33731W        W98892   9.841  10.702  12.089
33732W        W98893  20.568  34.852  10.941
33733W        W98894   0.861  14.092  14.007
33734W        W98895  16.790  43.631   4.061
33735W        W98896   1.288  20.621  10.754
33736W        W98897   5.258   3.644   0.403
33737W        W98898  28.899  19.795   4.202
33738W        W98899  41.596   7.712  11.284
33739W        W98900   6.441  34.337   2.712
33740W        W98901  37.202  38.121  11.413
33741W        W98902  26.092  31.513   1.435
33742W        W98903  18.489  17.115   2.241
33743W        W98904   1.029  11.594   3.595
33744W        W98905  28.227  16.087   1.387
33745W        W98906   0.352  27.174   2.447
33746W        W98907   0.943  22.356  10.963
33747W        W98908   3.895   5.981  12.975
33748W        W98909   1.204  10.102   2.394
33749W        W98910  24.710   8.176  12.030
33750W        W98911   7.441  37.252   2.570
33751W        W98912  22.746  11.137  11.321
33752W        W98913  40.385  44.985   2.685
33753W        W98914   1.280  14.473   4.914
33754W        W98915  28.058  39.863  10.707
33755W        W98916  42.422  33.560  10.533
33756W        W98917  30.394  23.687  14.835
33757W        W98918   8.920  30.587  10.742
33758W        W98919  31.177   0.892   1.351
33759W        W98920  35.104  43.575  14.450
33760W        W98921  21.706  27.159   4.746
33761W        W98922  33.394  12.827   0.567
33762W        W98923  12.534   5.389   4.727
33763W        W98924  13.135  30.530   0.969
33764W        W98925  12.171  25.425   4.113
33765W        W98926  33.478  14.687   9.742
33766W        W98927  43.320  27.253  12.565
33767W        W98928  16.203  38.309  14.450
33768W        W98929  27.533  34.448  13.854
33769W        W98930  16.129  31.746   3.666
33770W        W98931  23.619  44.849  14.001
33771W        W98932   7.947   7.776   3.698
33772W        W98933  23.081  16.358   5.013
33773W        W98934  40.726  34.885  14.828
33774W        W98935   3.370   9.154   0.283
33775W        W98936  27.691   6.350   4.014
33776W        W98937  28.424  35.608   3.919
33777W        W98938   3.817  37.662  14.567
33778W        W98939  36.560  29.452   1.141
33779W        W98940  42.769   4.397  10.300
33780W        W98941  33.087  43.767   4.141
33781W        W98942  12.899  15.357  12.087
33782W        W98943   5.663  32.569  14.494
33783W        W98944  24.113  10.450  12.981
33784W        W98945   6.758   7.234  10.763
33785W        W98946  19.899  38.753  10.602
33786W        W98947   6.161  29.726   2.110
33787W        W98948   3.396   1.859  11.130
33788W        W98949  11.221  18.879  14.477
33789W        W98950  16.240  24.438  12.928
33790W        W98951  10.940  18.123  11.982
33791W        W98952  22.167  35.888  14.850
33792W        W98953  21.553  13.245  14.918
33793W        W98954  22.730  22.576  13.492
33794W        W98955  20.135   2.417   3.412
33795W        W98956  10.205  15.617  12.402
33796W        W98957  40.883  17.740  11.812
33797W        W98958  30.927  17.321   2.327
33798W        W98959  32.065  19.013  13.118
33799W        W98960  12.177  39.835  12.920
33800W        W98961  25.026  26.350   0.909
33801W        W98962  43.621  10.988  10.086
33802W        W98963  14.290  37.555  11.674
33803W        W98964   2.862  18.876   2.292
33804W        W98965  35.459  43.053  12.628
33805W        W98966  38.760  43.719   4.210
33806W        W98967  13.643   5.284   3.815
33807W        W98968  15.961  23.740  11.544
33808W        W98969  18.172   0.220   1.943
33809W        W98970  22.467  29.418  14.275
33810W        W98971  12.695   0.801   3.780
33811W        W98972   3.696  29.630   3.266
33812W        W98973  20.739  32.831  12.603
33813W        W98974   5.216  31.592  10.129
33814W        W98975  18.645  37.510   3.184
33815W        W98976  42.927  10.798  12.432
33816W        W98977  15.837   0.019  10.457
33817W        W98978   5.658  15.654  13.721
33818W        W98979   5.922  27.265   4.100
33819W        W98980   4.950  25.709  12.479
33820W        W98981  44.106  44.126   3.407
33821W        W98982  32.043  32.987   2.860
33822W        W98983  37.999   5.027  11.189
33823W        W98984   6.809  15.123  10.696
33824W        W98985   0.189  41.354   4.449
33825W        W98986  33.762  31.634  14.181
33826W        W98987  22.684  17.551   2.634
33827W        W98988  34.700   7.919  13.931
33828W        W98989  37.572  16.362   2.624
33829W        W98990  26.923  16.082  12.172
33830W        W98991  20.290  30.627   0.853
33831W        W98992  41.090  22.083   4.302
33832W        W98993  20.937  23.470  11.627
33833W        W98994  20.376   6.495  12.522
33834W        W98995   1.599   4.945   3.621
33835W        W98996  15.713  31.748  13.925
33836W        W98997   3.502  30.227  11.215
33837W        W98998  28.519  26.906  11.964
33838W        W98999  25.641   1.945   3.100
33839W        W99000   5.979  12.072   2.779
33840W        W99001  44.119  16.657   1.658
33841W        W99002   1.914  34.884   0.505
33842W        W99003   8.708  24.762  14.338
33843W        W99004  18.631  13.497  11.961
33844W        W99005  40.028  30.118  11.667
33845W        W99006  29.234  16.208   2.293
33846W        W99007  30.560  15.893  12.112
33847W        W99008  42.733  12.625   0.797
33848W        W99009  11.993  43.044  11.280
33849W        W99010  16.462   8.696   4.565
33850W        W99011  24.502  36.580  14.707
33851W        W99012  12.813  43.301  13.356
33852W        W99013  26.301  28.973   2.791
33853W        W99014   2.294  33.348  14.913
33854W        W99015  28.206  38.765   3.780
33855W        W99016   0.244  13.640  12.116
33856W        W99017  30.004   1.254  12.634
33857W        W99018   1.152  13.174  14.406
33858W        W99019  17.252  35.877   4.119
33859W        W99020   5.818  26.526  13.918
33860W        W99021   5.040  10.588   0.810
33861W        W99022   8.638  35.210  14.217
33862W        W99023  23.658  28.980   2.463
33863W        W99024  37.541   8.369   3.910
33864W        W99025  13.949  31.422  13.005
33865W        W99026  20.272  13.452   2.941
33866W        W99027   5.936  22.047  12.108
33867W        W99028  13.199  28.125   2.623
33868W        W99029  18.377  26.560   2.720
33869W        W99030  22.069  35.995   4.661
33870W        W99031   1.486  10.567   0.317
33871W        W99032  34.006  12.038  14.773
33872W        W99033  39.765   2.273   3.229
33873W        W99034  13.109  37.803  14.420
33874W        W99035  25.920  13.706  12.941
33875W        W99036   0.621   3.565  11.119
33876W        W99037   6.543  10.253  10.986
33877W        W99038   0.529  36.999  12.681
33878W        W99039  31.255  14.129  13.595
33879W        W99040  41.427  18.543  12.175
33880W        W99041  24.427  28.609   0.958
33881W        W99042   8.651   4.532  13.220
33882W        W99043  27.709   5.468   0.216
33883W        W99044  17.797  16.091   2.366
33884W        W99045   7.443  21.265   2.868
33885W        W99046  40.870  13.846   0.933
33886W        W99047  26.022   6.225  10.509
33887W        W99048  25.266  41.218  11.517
33888W        W99049   6.769  21.581  11.466
33889W        W99050  17.811   0.034   2.370
33890W        W99051  39.879   8.743  13.765
33891W        W99052  40.766  28.927   0.419
33892W        W99053  31.522  39.006  10.630
33893W        W99054  10.419  19.474  12.212
33894W        W99055   2.945  10.343   2.801
33895W        W99056  23.681  16.743  14.188
33896W        W99057  37.515  31.096   2.999
33897W        W99058  29.535   3.033  13.874
33898W        W99059  10.170  30.072   3.936
33899W        W99060  32.247   1.699  11.737
33900W        W99061  10.172  42.903  11.508
33901W        W99062  37.365  37.028   4.215
33902W        W99063  20.749  20.401   4.486
33903W        W99064  12.255   6.875  14.724
33904W        W99065  14.652  17.792   4.168
33905W        W99066   9.339  14.207  14.119
33906W        W99067  30.157  23.674   2.193
33907W        W99068  30.292  21.455   4.631
33908W        W99069  41.032  31.182   0.846
33909W        W99070  38.473  32.969   2.878
33910W        W99071  32.415  21.300   1.739
33911W        W99072  14.700  26.727  10.750
33912W        W99073  27.965  29.489  14.318
33913W        W99074  36.050   7.311   2.452
33914W        W99075  31.040  34.690   5.025
33915W        W99076  31.593  37.377   2.348
33916W        W99077   7.875  33.563  14.443
33917W        W99078   2.361  29.166  11.645
33918W        W99079  37.167   7.278   2.872
33919W        W99080   3.646  41.960  12.865
33920W        W99081  37.867  26.382   1.357
33921W        W99082  28.400  40.422  12.184
33922W        W99083  25.641   0.241   0.795
33923W        W99084  13.875  18.116   3.137
33924W        W99085  43.170  38.075  12.403
33925W        W99086  40.739  42.494  10.744
33926W        W99087  41.020  38.754  11.308
33927W        W99088  15.987  33.554  11.092
33928W        W99089  29.192   9.563   0.388
33929W        W99090  27.870  42.008  13.940
33930W        W99091  32.742  13.571  14.347
33931W        W99092  23.153  23.270  13.109
33932W        W99093  33.011  20.660  10.305
33933W        W99094  17.100  20.185  12.025
33934W        W99095   8.642  27.666   3.007
33935W        W99096  40.401  31.154   1.426
33936W        W99097  36.132  32.642  10.746
33937W        W99098  32.349   2.391   2.301
33938W        W99099  14.837  27.129  10.472
33939W        W99100  32.922  11.663  14.404
33940W        W99101  18.685  35.514  10.435
33941W        W99102   6.749   5.651   1.406
33942W        W99103   1.918   2.324  12.122
33943W        W99104  21.629  15.743   4.622
33944W        W99105  10.957  23.972  13.287
33945W        W99106   9.335  30.524   4.511
33946W        W99107  11.222  34.961  14.480
33947W        W99108  29.611  30.137   3.250
33948W        W99109  15.537  17.406   2.607
33949W        W99110  43.360  31.484  12.566
33950W        W99111  33.868  44.759  12.519
33951W        W99112  43.126  30.034   4.834
33952W        W99113   3.176  10.030   1.462
33953W        W99114  14.261  23.006  11.201
33954W        W99115  32.980  35.468  14.892
33955W        W99116   4.641  21.653   2.955
33956W        W99117  28.573  43.371   3.659
33957W        W99118  42.515  11.720   2.835
33958W        W99119  40.065   6.224  14.529
33959W        W99120  15.089  42.931   1.223
33960W        W99121  39.753  14.754   2.758
33961W        W99122  24.689  17.692   3.618
33962W        W99123   6.801  28.393   0.521
33963W        W99124  25.261  23.111  11.625
33964W        W99125  12.418  44.715  11.066
33965W        W99126  24.429   6.896   1.423
33966W        W99127   5.924   1.686   3.432
33967W        W99128   3.807  13.827  14.342
33968W        W99129  38.889  20.045   2.662
33969W        W99130  30.530   6.180  10.501
33970W        W99131  15.209  20.527  10.365
33971W        W99132   9.377  35.688   4.531
33972W        W99133  12.099  14.813   2.683
33973W        W99134  35.835  13.509  13.980
33974W        W99135  25.877  37.087  11.802
33975W        W99136  15.786  28.210  13.408
33976W        W99137  32.182  41.946   3.059
33977W        W99138  42.753  33.722   2.071
33978W        W99139  22.216   4.803   1.188
33979W        W99140  28.128  41.263  12.696
33980W        W99141  17.806  40.898  14.444
33981W        W99142  20.590   7.111   2.247
33982W        W99143  30.897  33.987   1.255
33983W        W99144  10.431   9.937  10.966
33984W        W99145   7.525  44.919   3.701
33985W        W99146  35.344   5.276   4.592
33986W        W99147  11.395  13.572   4.272
33987W        W99148   4.456   2.224  14.966
33988W        W99149  28.447  32.548   0.863
33989W        W99150  30.815  18.199   2.809
33990W        W99151  10.397   8.126  11.588
33991W        W99152  25.755  28.565   0.735
33992W        W99153  13.835  38.868   3.270
33993W        W99154   8.207  27.903  12.055
33994W        W99155  42.403  34.336   0.831
33995W        W99156  34.798   7.475  14.604
33996W        W99157  31.920  38.587  13.965
33997W        W99158  30.374  38.762  11.079
33998W        W99159  26.894  30.598  11.838
33999W        W99160  42.055  14.253  11.905
34000W        W99161   8.093  22.657  12.896
34001W        W99162  37.964  34.031  10.935
34002W        W99163   0.092  41.917   4.146
34003W        W99164  32.600  36.498   1.224
34004W        W99165  33.338  44.457   4.508
34005W        W99166  44.974  39.071   4.332
34006W        W99167   7.261  12.814  11.642
34007W        W99168   5.108  27.524  13.975
34008W        W99169   6.339  35.355   4.484
34009W        W99170   3.059  22.287  11.597
34010W        W99171  13.192  43.791   1.962
34011W        W99172  16.093   4.244  10.522
34012W        W99173   5.935  25.037   1.251
34013W        W99174  43.727  33.720   0.649
34014W        W99175   9.392  13.682  14.791
34015W        W99176  18.797  44.090   3.339
34016W        W99177   8.012  33.941   3.120
34017W        W99178  40.488  22.669  10.831
34018W        W99179  21.077  28.580  11.079
34019W        W99180  15.828  29.920   4.981
34020W        W99181   4.604  26.543   1.301
34021W        W99182   8.314  25.889  11.121
34022W        W99183  36.366  24.016  13.821
34023W        W99184  31.528  19.389   3.026
34024W        W99185  32.064  29.508  14.892
34025W        W99186   3.279  29.147   1.180
34026W        W99187  20.102  13.195  11.203
34027W        W99188  14.067   2.308  12.844
34028W        W99189  34.444  42.397   4.304
34029W        W99190   9.278  31.021  14.413
34030W        W99191   8.217  14.567   3.311
34031W        W99192  11.945   7.359   0.929
34032W        W99193  43.509  33.935  12.517
34033W        W99194  41.363  17.107   2.366
34034W        W99195  19.633  36.376   2.727
34035W        W99196  41.049  35.918  13.339
34036W        W99197  30.464  40.373   2.836
34037W        W99198   1.472  39.262   1.995
34038W        W99199  43.041  10.842  11.934
34039W        W99200  20.073  21.552   4.158
34040W        W99201  21.496  36.648   3.697
34041W        W99202  19.003  44.808  11.129
34042W        W99203  24.599  25.120  13.483
34043W        W99204  42.458  25.406  13.771
34044W        W99205   4.568  15.732  14.301
34045W        W99206  16.678  44.544  13.333
34046W        W99207  22.486  43.933   0.003
34047W        W99208   0.202  43.295   3.581
34048W        W99209  29.935  38.386   4.306
34049W        W99210  41.751  34.561  12.171
34050W        W99211  27.754  38.548  12.272
34051W        W99212  41.003  24.493  14.376
34052W        W99213  21.988  21.124   4.915
34053W        W99214   2.645  24.192   0.403
34054W        W99215  17.172  26.978  14.058
34055W        W99216  30.443  40.876   5.067
34056W        W99217  30.158  14.073  11.929
34057W        W99218  12.233  20.694  12.961
34058W        W99219  44.032  34.809  14.896
34059W        W99220  14.235   2.949  12.307
34060W        W99221  13.367  28.206  13.349
34061W        W99222   7.869  44.964   0.995
34062W        W99223   8.389   2.837  13.144
34063W        W99224  15.229   8.295  12.486
34064W        W99225  35.543  30.118  13.691
34065W        W99226   7.066  40.414  13.539
34066W        W99227  26.706  44.277   4.727
34067W        W99228  17.789   8.974  11.564
34068W        W99229   7.590   4.197   0.704
34069W        W99230  34.327   0.888  11.213
34070W        W99231  42.033  21.729  12.054
34071W        W99232  11.171  41.274   0.861
34072W        W99233  30.723   5.791  11.625
34073W        W99234  39.439   6.156  14.325
34074W        W99235  10.731   7.665   2.178
34075W        W99236   1.054   8.303  12.971
34076W        W99237   0.569   9.781   4.955
34077W        W99238  14.896  35.119  14.289
34078W        W99239  12.953  29.450   1.845
34079W        W99240  29.517   6.159  12.004
34080W        W99241  25.078   3.418  13.310
34081W        W99242  31.570  25.162   3.142
34082W        W99243  12.077  32.005   4.566
34083W        W99244  27.552  22.184   2.379
34084W        W99245  32.036  18.606  12.802
34085W        W99246  30.584  25.217   0.947
34086W        W99247  37.052  44.741   1.742
34087W        W99248  19.587  35.188  10.681
34088W        W99249   1.008   9.432   4.115
34089W        W99250  43.447  34.670  13.868
34090W        W99251   0.580   6.807  12.424
34091W        W99252   8.905  13.353  10.751
34092W        W99253   3.885  25.060   3.586
34093W        W99254   6.727  13.235   1.152
34094W        W99255  39.015  26.438   4.604
34095W        W99256  23.435  34.799   0.246
34096W        W99257  12.313   0.244   1.416
34097W        W99258  36.927  32.622   0.345
34098W        W99259  28.366  31.922   1.873
34099W        W99260  40.909  42.532   2.663
34100W        W99261  11.997  17.051   3.594
34101W        W99262   3.360  37.079  14.893
34102W        W99263  41.896  22.110   4.389
34103W        W99264  16.009  13.806  10.541
34104W        W99265  19.101  34.827   4.672
34105W        W99266   3.736  24.082  10.998
34106W        W99267  43.731  37.955  13.927
34107W        W99268  41.933  29.117  10.761
34108W        W99269  12.611   2.280  10.771
34109W        W99270   5.793   2.724  11.545
34110W        W99271   7.385  29.046  12.131
34111W        W99272   0.727  44.848   0.834
34112W        W99273  18.494   8.375   0.793
34113W        W99274  25.222  34.048   2.797
34114W        W99275  19.629  14.655   3.853
34115W        W99276   7.782  39.425  10.624
34116W        W99277  15.182  27.579  13.723
34117W        W99278  26.975   7.125   0.249
34118W        W99279   2.816  16.042   4.499
34119W        W99280   0.680  24.069  13.300
34120W        W99281  33.093  10.345   2.695
34121W        W99282   2.887  12.738   2.340
34122W        W99283  10.869  36.563   3.205
34123W        W99284  20.010  18.704   3.295
34124W        W99285  25.642  34.913  10.477
34125W        W99286  32.839  24.660   3.681
34126W        W99287  22.542  15.213   2.800
34127W        W99288   3.963  42.968  11.410
34128W        W99289   2.556   9.503  12.376
34129W        W99290  34.030  23.927   9.676
34130W        W99291  28.128  31.695  14.455
34131W        W99292  41.264  33.360   2.008
34132W        W99293  40.379  31.887  14.412
34133W        W99294  18.147  20.148  13.380
34134W        W99295  33.356  10.117   4.551
34135W        W99296   3.150  40.879   3.751
34136W        W99297  39.847  25.418   0.740
34137W        W99298  36.454  33.443  12.397
34138W        W99299  15.206  39.217   1.902
34139W        W99300   6.920  16.162  10.654
34140W        W99301  31.942  15.690  13.356
34141W        W99302  16.210  31.263   0.962
34142W        W99303  17.617  36.564   4.354
34143W        W99304  23.622  21.114   1.679
34144W        W99305  14.536  34.929   4.948
34145W        W99306  35.412   4.372   3.896
34146W        W99307  33.800  11.133  11.524
34147W        W99308  10.247  39.981  13.675
34148W        W99309  33.603  44.108  13.332
34149W        W99310  10.263  10.365  12.888
34150W        W99311  20.037  24.153   1.638
34151W        W99312  28.854   3.420   5.020
34152W        W99313  43.918  40.023  12.588
34153W        W99314  12.806   4.015   4.814
34154W        W99315  31.905  15.148  10.485
34155W        W99316  23.826   3.051  12.342
34156W        W99317  20.195  11.048   1.775
34157W        W99318  39.514  43.520  13.431
34158W        W99319  16.048  33.902  12.665
34159W        W99320   6.987   8.417   4.585
34160W        W99321   5.853  18.147  11.027
34161W        W99322   3.731  31.379   0.769
34162W        W99323  41.521  41.484   3.513
34163W        W99324  34.466  19.026   0.131
34164W        W99325  21.139  24.154   0.205
34165W        W99326  18.187  14.227  12.279
34166W        W99327   0.236  33.325   3.806
34167W        W99328  27.546  13.883  14.537
34168W        W99329  22.130   9.352  14.317
34169W        W99330  38.950  27.993   2.117
34170W        W99331  22.006  42.340   2.241
34171W        W99332  23.510  22.137  12.846
34172W        W99333  22.659  29.780   9.982
34173W        W99334   3.220  30.990  11.571
34174W        W99335  32.843  37.385   1.649
34175W        W99336  15.155  11.773   0.939
34176W        W99337  36.123  14.343  11.204
34177W        W99338  26.762  34.217   1.087
34178W        W99339  21.955  28.784  11.565
34179W        W99340  34.585  21.013  10.810
34180W        W99341   7.400   9.411  11.221
34181W        W99342   4.208  24.058   1.329
34182W        W99343   7.410  15.811  13.007
34183W        W99344  15.482   3.221   2.348
34184W        W99345  12.378  11.817  14.805
34185W        W99346   5.384  13.311  13.555
34186W        W99347  43.285  44.522  13.018
34187W        W99348  31.210  38.925  13.084
34188W        W99349  27.977   4.953  10.980
34189W        W99350  14.321  25.095  11.223
34190W        W99351   3.678  36.293   1.354
34191W        W99352  43.800  41.430  14.924
34192W        W99353  43.720  38.924  14.770
34193W        W99354  44.224   2.768  10.609
34194W        W99355  20.435  20.565  10.223
34195W        W99356  35.803  42.041  12.039
34196W        W99357   4.672   8.432  13.118
34197W        W99358   3.178   1.424  10.406
34198W        W99359   8.814  30.890   3.331
34199W        W99360  10.287  19.663   4.091
34200W        W99361  28.440   6.098  11.367
34201W        W99362  14.235  18.573   2.305
34202W        W99363  22.288  23.105   1.746
34203W        W99364  40.277  41.303   4.171
34204W        W99365   7.836  30.556   0.550
34205W        W99366  26.582  13.796   2.968
34206W        W99367  14.600  27.450  14.901
34207W        W99368   4.374  11.326   0.065
34208W        W99369  28.623  27.541   2.207
34209W        W99370  43.459  35.009  12.617
34210W        W99371  14.174  43.247  13.902
34211W        W99372  37.934  30.860  13.878
34212W        W99373  23.636  22.220  14.454
34213W        W99374  29.839   5.824  12.970
34214W        W99375   3.982  27.532   0.399
34215W        W99376  43.045   3.594  12.115
34216W        W99377  35.979  11.689  12.885
34217W        W99378  41.900  40.854   3.711
34218W        W99379   4.699  21.943   0.250
34219W        W99380  42.360   0.578  10.774
34220W        W99381  22.573  34.476   0.322
34221W        W99382   0.423  20.606   3.885
34222W        W99383  12.151  42.215   4.967
34223W        W99384  25.378  31.207   3.442
34224W        W99385  34.452  20.547  13.824
34225W        W99386  14.141   0.029   1.408
34226W        W99387  24.450  30.368   4.623
34227W        W99388   4.106  10.175  12.267
34228W        W99389  11.274   7.848   0.736
34229W        W99390  41.389  25.081   0.420
34230W        W99391  21.180  14.840  13.300
34231W        W99392  41.532  34.581   0.883
34232W        W99393   7.128  21.565  13.644
34233W        W99394  11.892  31.122  14.821
34234W        W99395  30.146  33.986  10.751
34235W        W99396  13.909  28.192  14.166
34236W        W99397  44.402   4.644   4.101
34237W        W99398  22.433  13.146  12.502
34238W        W99399  37.364   4.698  12.988
34239W        W99400   1.910  41.128  14.740
34240W        W99401   3.502   7.889  14.775
34241W        W99402  26.659  40.981   2.772
34242W        W99403  15.068  11.052  11.081
34243W        W99404  43.316   3.752  11.385
34244W        W99405  13.841  44.131   5.103
34245W        W99406  35.523  30.435   1.378
34246W        W99407   7.356  21.307  12.946
34247W        W99408  27.610  21.878   2.816
34248W        W99409  43.288  30.474   2.163
34249W        W99410   2.428   6.933  13.371
34250W        W99411  32.329  26.792   4.468
34251W        W99412  41.449  14.411   4.617
34252W        W99413  15.605  22.996   1.759
34253W        W99414  16.371   2.749  13.412
34254W        W99415  21.064  38.406   3.214
34255W        W99416   1.404  31.145  10.655
34256W        W99417  26.948  28.140  11.195
34257W        W99418  36.970  14.086  12.934
34258W        W99419  14.005   2.862  14.550
34259W        W99420  44.512   2.495  11.153
34260W        W99421  32.850  26.718   0.204
34261W        W99422  13.816   4.685   4.681
34262W        W99423  15.800  10.286   2.696
34263W        W99424  32.648  34.928   1.694
34264W        W99425   2.266  28.220  11.996
34265W        W99426  42.489  33.831  13.766
34266W        W99427  32.466  38.933   1.388
34267W        W99428  32.187  31.350  13.558
34268W        W99429  11.686  10.153   1.195
34269W        W99430  41.322  34.471   4.088
34270W        W99431   2.537  15.877  10.663
34271W        W99432  20.677  37.492  14.746
34272W        W99433  11.873  18.728   1.587
34273W        W99434  28.435  18.748  10.803
34274W        W99435  16.672  19.534  14.373
34275W        W99436  39.554  29.594  11.146
34276W        W99437  30.009   6.763  12.547
34277W        W99438  14.058  23.644  14.012
34278W        W99439  12.717   0.211  14.018
34279W        W99440  30.959  40.176   2.346
34280W        W99441  14.202  24.578   3.915
34281W        W99442   7.640   1.191   3.751
34282W        W99443  31.211  16.033   3.519
34283W        W99444  10.789   1.189  13.969
34284W        W99445  29.975  18.919   2.073
34285W        W99446  15.347  11.584  11.976
34286W        W99447  38.951  12.860   2.902
34287W        W99448  13.052  35.719   4.788
34288W        W99449  44.712  12.054   3.739
34289W        W99450  19.346  15.406  10.049
34290W        W99451  20.698  36.921   4.792
34291W        W99452  22.491   1.395  13.496
34292W        W99453  21.334  21.308  13.010
34293W        W99454   6.864  23.718   4.103
34294W        W99455  14.433  23.585  10.656
34295W        W99456  43.669  33.837   1.511
34296W        W99457  29.175  43.409  10.669
34297W        W99458   9.977  29.065   4.778
34298W        W99459   7.680   0.245  11.987
34299W        W99460  36.354   7.238  13.406
34300W        W99461  28.909  20.307   0.422
34301W        W99462  13.727  27.959  14.907
34302W        W99463   2.460  25.237   2.303
34303W        W99464   3.325  20.000  10.651
34304W        W99465   4.002   1.970  12.924
34305W        W99466  33.555  33.347   4.136
34306W        W99467  22.692  27.639  12.688
34307W        W99468  16.763   4.181   0.373
34308W        W99469  15.144  17.886  12.245
34309W        W99470  37.480  40.703   1.254
34310W        W99471   6.786  21.140  11.202
34311W        W99472   3.359   0.346  10.256
34312W        W99473  18.660   3.423   3.857
34313W        W99474  25.582  39.087   0.991
34314W        W99475   6.717  41.964  13.534
34315W        W99476  41.368  15.502   3.261
34316W        W99477  22.157  36.384   1.500
34317W        W99478  32.799   5.653  12.806
34318W        W99479  16.324  13.756  14.563
34319W        W99480  36.072  44.312   3.189
34320W        W99481  35.464  15.854   0.062
34321W        W99482  34.877   5.271   3.259
34322W        W99483  19.803  29.450   0.330
34323W        W99484  44.378  19.448   4.589
34324W        W99485  38.848  17.347  14.332
34325W        W99486  31.045   5.847  11.211
34326W        W99487  19.570  21.988   3.193
34327W        W99488  29.944  14.718   2.992
34328W        W99489  25.474  10.269  14.961
34329W        W99490  38.097   5.075  12.465
34330W        W99491  15.523  14.685  13.509
34331W        W99492  36.200  15.579   1.743
34332W        W99493  18.171  23.941  14.551
34333W        W99494  39.221   2.243  14.942
34334W        W99495  11.337  20.733  13.053
34335W        W99496  24.333   4.817  11.239
34336W        W99497  14.172  44.233   3.602
34337W        W99498  30.932  23.053  14.285
34338W        W99499  23.144  23.223   2.323
34339W        W99500  11.075  25.214   0.250
34340W        W99501   1.763   9.215   3.707
34341W        W99502  26.725  20.139  12.516
34342W        W99503   9.340  34.402  10.847
34343W        W99504  15.351  13.364  12.428
34344W        W99505   6.659   4.832   0.424
34345W        W99506   0.767   3.238   2.314
34346W        W99507  17.749  33.534   4.953
34347W        W99508  23.672  29.646  13.358
34348W        W99509  19.627  38.996   3.629
34349W        W99510  10.466   4.399   4.117
34350W        W99511   3.468  24.172  13.959
34351W        W99512   0.406  24.033   1.268
34352W        W99513  40.873  14.233  12.399
34353W        W99514   0.954   2.927   2.737
34354W        W99515  12.954   5.808   0.292
34355W        W99516  37.304  42.514  12.506
34356W        W99517   6.628   2.415   4.470
34357W        W99518  20.110   3.506   4.648
34358W        W99519  13.402  15.707  14.982
34359W        W99520  16.089   1.521  11.195
34360W        W99521  31.151   5.850  13.869
34361W        W99522  26.684  24.473  10.656
34362W        W99523  12.252  41.326  11.589
34363W        W99524  33.396  15.345   0.419
34364W        W99525  44.688   9.504  11.444
34365W        W99526  31.822   9.671  13.880
34366W        W99527   1.862   2.234  13.855
34367W        W99528  13.804  29.450  11.546
34368W        W99529  32.128  33.590   3.574
34369W        W99530  18.518   0.328   2.375
34370W        W99531   6.664  21.791   1.371
34371W        W99532   2.518   7.851   4.724
34372W        W99533  22.045  25.059   3.196
34373W        W99534  40.244   7.629  14.432
34374W        W99535  14.227  35.815   2.104
34375W        W99536  30.575   7.859  14.437
34376W        W99537  24.096  31.144   4.314
34377W        W99538  43.034  17.955  11.290
34378W        W99539  32.509  29.714  12.103
34379W        W99540  35.559   5.789   3.403
34380W        W99541  35.387   9.875  11.638
34381W        W99542  41.573  17.318   4.152
34382W        W99543   5.349  29.194  10.650
34383W        W99544  42.296  18.496   1.056
34384W        W99545  40.109  17.991  13.098
34385W        W99546  25.129  15.236  12.294
34386W        W99547   1.535  18.518   2.834
34387W        W99548  28.493  21.836  13.878
34388W        W99549  43.786  35.521  14.385
34389W        W99550  29.960  22.074  14.538
34390W        W99551  15.452  36.951  14.551
34391W        W99552   8.914  41.805  10.759
34392W        W99553   3.017  28.523   4.560
34393W        W99554   9.211  36.016  14.759
34394W        W99555  43.793   2.708  12.867
34395W        W99556  31.643  19.038   0.744
34396W        W99557  27.689  43.565  12.940
34397W        W99558  13.693   2.242  12.467
34398W        W99559  10.828  23.027  14.892
34399W        W99560  21.010  40.002   4.627
34400W        W99561  21.789  19.528   3.957
34401W        W99562  36.452   8.140   4.151
34402W        W99563  39.403  32.403   3.677
34403W        W99564  12.303  40.854   0.254
34404W        W99565   5.268   8.752  13.434
34405W        W99566  27.653  26.201   0.261
34406W        W99567  18.758  10.694   1.768
34407W        W99568   0.704  39.420  11.150
34408W        W99569   9.821  44.708  13.518
34409W        W99570  22.294   2.037   4.620
34410W        W99571  12.168  42.074   4.476
34411W        W99572  18.187  14.138   3.347
34412W        W99573  28.227  44.402  13.178
34413W        W99574  41.053  15.378  13.785
34414W        W99575  25.774  40.940   2.313
34415W        W99576  40.545  20.714  13.835
34416W        W99577  40.373  25.740  11.092
34417W        W99578   4.291  11.807   3.174
34418W        W99579  42.224  21.947   1.207
34419W        W99580  34.537  15.357   3.143
34420W        W99581  40.526   9.152   1.717
34421W        W99582  32.349  26.545   0.259
34422W        W99583   9.892  10.789   2.819
34423W        W99584  16.154  27.355   1.188
34424W        W99585   0.702  33.849  14.891
34425W        W99586  32.462   9.496   3.472
34426W        W99587  24.065  18.705   2.270
34427W        W99588  13.615  12.587   1.484
34428W        W99589  29.583   8.825   0.078
34429W        W99590  44.613  21.859  12.557
34430W        W99591  12.119  28.229  12.799
34431W        W99592  27.146  35.015  14.765
34432W        W99593   7.611  27.477   0.308
34433W        W99594  14.740   2.105  11.053
34434W        W99595  18.659  12.712   0.903
34435W        W99596  34.208  11.154   1.284
34436W        W99597  18.836  16.760   0.832
34437W        W99598  33.498  43.247   0.336
34438W        W99599  33.497  35.293  11.613
34439W        W99600   6.435  27.088   3.317
34440W        W99601  34.256  36.963  13.765
34441W        W99602  27.943  24.922   4.295
34442W        W99603  41.064  37.600  13.118
34443W        W99604  36.121   6.476   3.617
34444W        W99605  25.098  27.317  13.792
34445W        W99606  39.403  10.608  14.515
34446W        W99607  29.104   8.233   2.664
34447W        W99608  40.798  32.083   2.753
34448W        W99609   2.884  23.202  10.723
34449W        W99610  42.082  16.820  13.977
34450W        W99611  38.242  25.235   1.098
34451W        W99612   3.452  11.413  13.225
34452W        W99613  34.060  19.596   3.640
34453W        W99614  18.371  39.408   0.916
34454W        W99615  33.363  12.655  14.568
34455W        W99616  26.223  37.532   2.528
34456W        W99617  33.032  42.549  11.967
34457W        W99618  30.630   7.571   3.700
34458W        W99619  10.214  11.864  12.992
34459W        W99620  15.992  19.012  14.803
34460W        W99621  12.887  16.906  11.226
34461W        W99622  22.309  37.973  12.947
34462W        W99623  29.136   0.715  12.986
34463W        W99624   9.327  32.039   0.239
34464W        W99625  22.601  31.896   2.671
34465W        W99626  20.419  32.261   1.831
34466W        W99627  12.174   5.384   1.462
34467W        W99628  41.759  16.449  14.169
34468W        W99629  22.086  15.821  13.321
34469W        W99630  33.504  28.219  11.188
34470W        W99631  33.782  14.072  14.077
34471W        W99632  35.624  29.551   1.590
34472W        W99633   8.152  10.636  14.888
34473W        W99634  42.937  35.435   4.032
34474W        W99635   3.943   0.515  12.899
34475W        W99636   1.987  29.103  12.040
34476W        W99637  29.894  42.921   3.538
34477W        W99638  10.821  22.867  14.396
34478W        W99639  13.663  35.609  12.978
34479W        W99640  38.377  14.941   3.348
34480W        W99641  25.463  18.264  10.685
34481W        W99642  27.439   7.637   3.032
34482W        W99643  41.505  11.180   1.978
34483W        W99644  27.758  17.101   4.875
34484W        W99645  17.568   4.301   0.021
34485W        W99646  10.306  35.443   2.348
34486W        W99647  43.302  13.590  11.118
34487W        W99648  22.515  19.142  13.388
34488W        W99649  33.524   7.139   0.840
34489W        W99650  23.617   9.593   3.183
34490W        W99651  35.120   7.883  12.726
34491W        W99652   9.093  10.115  11.661
34492W        W99653  10.201  16.532  14.390
34493W        W99654  15.539   3.750   4.589
34494W        W99655  19.085  38.010   1.929
34495W        W99656  36.303  33.919   4.124
34496W        W99657  24.083   4.728   2.891
34497W        W99658  18.433   5.157  14.294
34498W        W99659  21.144  23.495  14.971
34499W        W99660   7.728  27.956  14.864
34500W        W99661  41.833  28.531   4.645
34501W        W99662  22.051  40.343  14.841
34502W        W99663  17.064  22.745   0.858
34503W        W99664   8.326  43.800  13.054
34504W        W99665  27.649  30.197   4.575
34505W        W99666  37.826  24.211   1.646
34506W        W99667  21.665  14.296  12.511
34507W        W99668  29.432  17.890  14.473
34508W        W99669  14.137  27.952  12.950
34509W        W99670  38.074  15.038   2.963
34510W        W99671  29.782  33.406   1.145
34511W        W99672  41.274  32.697  13.906
34512W        W99673  21.976   0.882   3.628
34513W        W99674  19.197  27.012  13.804
34514W        W99675  21.495  31.502   3.293
34515W        W99676  44.005  29.402  14.042
34516W        W99677  14.829  13.673  10.753
34517W        W99678  18.349  17.745  12.574
34518W        W99679  32.328   7.701  13.533
34519W        W99680  12.845  18.080  14.408
34520W        W99681   6.707  27.069  10.560
34521W        W99682   5.775  28.991  14.461
34522W        W99683  43.718   0.531  14.165
34523W        W99684  40.060  29.125   3.566
34524W        W99685   9.434  27.943   2.318
34525W        W99686  40.574  25.410  10.760
34526W        W99687  16.517  39.939  12.528
34527W        W99688  13.000  40.035   0.785
34528W        W99689  38.422   4.801  14.767
34529W        W99690  17.543  26.374   3.724
34530W        W99691  17.739  12.443   1.176
34531W        W99692  30.688  38.249  14.885
34532W        W99693   1.683  22.638   4.651
34533W        W99694  44.776  26.162   2.342
34534W        W99695  34.241   3.739  12.882
34535W        W99696  13.761  22.523   1.422
34536W        W99697  18.742   0.882   5.011
34537W        W99698  43.075  18.700  14.724
34538W        W99699  17.737  25.338   2.218
34539W        W99700  33.035  17.489   3.890
34540W        W99701  18.156   4.006  12.184
34541W        W99702  40.207  44.944  14.924
34542W        W99703  28.808  31.447   4.662
34543W        W99704  44.338   2.821   2.279
34544W        W99705  10.963   5.970   4.399
34545W        W99706  14.866  28.279   3.494
34546W        W99707  20.761   1.947   2.738
34547W        W99708   9.305  18.728   2.191
34548W        W99709  22.019  19.917  11.423
34549W        W99710  42.009   1.917  12.651
34550W        W99711  20.982  29.109  12.424
34551W        W99712  27.132   5.687  11.217
34552W        W99713  27.591   5.329  12.797
34553W        W99714  25.814  15.592   2.128
34554W        W99715  25.452  36.472  10.607
34555W        W99716  10.583   3.163   2.360
34556W        W99717  39.962   5.199   0.796
34557W        W99718   0.779  34.418  11.816
34558W        W99719  37.203  42.992   4.006
34559W        W99720   8.945  24.265  12.035
34560W        W99721  10.236  11.175  12.491
34561W        W99722   8.321   8.292  13.063
34562W        W99723  14.374  24.331  14.585
34563W        W99724  12.535   1.407  12.971
34564W        W99725  11.897  17.601   0.942
34565W        W99726  33.488  14.166   1.818
34566W        W99727  19.312  43.851  11.613
34567W        W99728  16.933  37.993  12.858
34568W        W99729   8.317  39.585  11.542
34569W        W99730  27.335  28.947   2.702
34570W        W99731   0.724  40.300  13.333
34571W        W99732  12.279  16.985   3.163
34572W        W99733  16.034  35.766  12.471
34573W        W99734  19.816  14.738   2.823
34574W        W99735  42.324  28.702  11.402
34575W        W99736  14.779  12.494   1.120
34576W        W99737   6.811  14.881  11.173
34577W        W99738  41.511  26.994  14.875
34578W        W99739  23.783   4.704  10.059
34579W        W99740  44.471  38.072  14.303
34580W        W99741  10.079  14.595   1.003
34581W        W99742   8.087  23.115   3.717
34582W        W99743   7.442   5.779  13.213
34583W        W99744  12.737   5.864   2.326
34584W        W99745   2.891  10.805  14.401
34585W        W99746  17.858  14.111  14.584
34586W        W99747  42.833  11.161   2.144
34587W        W99748   6.633  37.588   2.367
34588W        W99749  20.446  41.578  10.344
34589W        W99750   6.455   2.813  14.560
34590W        W99751  13.799  11.103   4.143
34591W        W99752  25.278  19.791   4.235
34592W        W99753  11.591   8.129   1.814
34593W        W99754  13.394  37.776  13.409
34594W        W99755  20.169   2.705   1.412
34595W        W99756  22.090  15.712   2.141
34596W        W99757  25.566  12.295  12.311
34597W        W99758  35.736  10.890   2.754
34598W        W99759  24.723   4.360  13.325
34599W        W99760   5.470  35.474  11.896
34600W        W99761  37.365  11.876   4.562
34601W        W99762  10.883   7.640   4.405
34602W        W99763  32.993  30.171  11.900
34603W        W99764  24.053  24.701  14.006
34604W        W99765  20.704  21.195  13.360
34605W        W99766   3.782   6.975   0.899
34606W        W99767  35.462  10.816  10.990
34607W        W99768  27.789  30.385   3.744
34608W        W99769  44.062  37.386  14.654
34609W        W99770  41.517  40.587  11.006
34610W        W99771  30.390  24.198   3.224
34611W        W99772  19.097  15.268   2.859
34612W        W99773  17.558  13.675   2.419
34613W        W99774  34.311  38.974   2.735
34614W        W99775  35.064  10.203   1.681
34615W        W99776   8.093  44.499   1.182
34616W        W99777   2.336  21.041  12.833
34617W        W99778  24.004  19.626   3.356
34618W        W99779  42.806   9.353   1.713
34619W        W99780  29.104  32.921  11.551
34620W        W99781  29.688  28.298  10.036
34621W        W99782  15.639   8.243   0.523
34622W        W99783  22.528   6.367   1.433
34623W        W99784  23.583  17.696   0.134
34624W        W99785  40.783  37.444  10.665
34625W        W99786  40.293  27.506   1.342
34626W        W99787  34.906  14.977   1.616
34627W        W99788   3.891  29.159  11.491
34628W        W99789   7.169   8.203   0.044
34629W        W99790   7.796  18.570  14.087
34630W        W99791   4.896   9.111  12.360
34631W        W99792   8.446  28.024   2.365
34632W        W99793  10.121  26.985  13.600
34633W        W99794   9.913  18.591   1.645
34634W        W99795  36.053  39.197  13.080
34635W        W99796  22.048  26.667   4.249
34636W        W99797  35.986  28.481   2.834
34637W        W99798  14.878  42.945  13.414
34638W        W99799  36.281  13.766  13.242
34639W        W99800   4.205  20.427   2.775
34640W        W99801  37.439  12.282  12.164
34641W        W99802  13.721  44.273   0.023
34642W        W99803  31.728  21.539   2.407
34643W        W99804  12.517  21.251   3.411
34644W        W99805  10.850  26.022  14.782
34645W        W99806   6.985  30.477   3.199
34646W        W99807  29.455  29.521  10.862
34647W        W99808  41.858  33.751   4.583
34648W        W99809   9.678  21.669  13.940
34649W        W99810   3.787  42.966   3.278
34650W        W99811  33.258  25.953  14.935
34651W        W99812  14.231  13.719   3.689
34652W        W99813  13.208  31.481   3.317
34653W        W99814  41.211  11.118   2.953
34654W        W99815  23.017   1.349  13.392
34655W        W99816  28.421  23.517  12.007
34656W        W99817  24.785   1.843   3.723
34657W        W99818  41.440   8.915  13.745
34658W        W99819  19.290  44.947   2.433
34659W        W99820   2.909  34.952   3.557
34660W        W99821  44.981  44.393  12.945
34661W        W99822  44.756   8.063   0.298
34662W        W99823  37.947  24.495  12.969
34663W        W99824  24.743  10.090  11.996
34664W        W99825  20.659  13.732  13.394
34665W        W99826  34.589   4.307  11.738
34666W        W99827  34.861   9.783   2.893
34667W        W99828  32.677  32.982   4.594
34668W        W99829  25.631  42.034  13.130
34669W        W99830   9.014   7.419  11.645
34670W        W99831  30.660  26.949  14.903
34671W        W99832  32.497  25.782   3.198
34672W        W99833  30.123  11.735  14.869
34673W        W99834  31.120  17.785  12.108
34674W        W99835  36.811  44.361  11.306
34675W        W99836  30.563   8.227   4.737
34676W        W99837   6.437  15.665   4.210
34677W        W99838  39.806  11.514   3.749
34678W        W99839  20.098  26.356   2.434
34679W        W99840  20.145   2.442   3.921
34680W        W99841  10.596  25.594   0.964
34681W        W99842   0.782  17.294  10.308
34682W        W99843  12.441  24.377   4.348
34683W        W99844  30.177  10.741  11.920
34684W        W99845   5.678  44.014   0.088
34685W        W99846   7.223  43.753  13.937
34686W        W99847  23.100  44.536  13.533
34687W        W99848  35.858   2.513   0.264
34688W        W99849  29.171  34.493   2.195
34689W        W99850  36.367  27.422  11.307
34690W        W99851   8.357  13.658   0.899
34691W        W99852  24.477  21.252  14.439
34692W        W99853  21.947  29.527   0.862
34693W        W99854  18.682  25.177   5.110
34694W        W99855  41.242  37.867  13.568
34695W        W99856  20.338  43.358   0.510
34696W        W99857  44.952  29.378  14.939
34697W        W99858  22.936  42.850   2.772
34698W        W99859   2.561   0.523   0.920
34699W        W99860  31.349  26.897   3.750
34700W        W99861  13.856  32.619  13.526
34701W        W99862   7.697  43.307  13.384
34702W        W99863   4.761  18.762  12.512
34703W        W99864  41.020  29.700  14.254
34704W        W99865   0.545  29.269  12.049
34705W        W99866  32.637  24.048   1.630
34706W        W99867  36.611  10.817   3.450
34707W        W99868   9.899  23.001   4.165
34708W        W99869  32.966  38.921   2.378
34709W        W99870  31.809   6.839   1.812
34710W        W99871  25.605  12.849   0.491
34711W        W99872  19.202  42.899   4.703
34712W        W99873  26.507  14.031   3.552
34713W        W99874  25.269  32.937  12.078
34714W        W99875   1.968  30.965   0.467
34715W        W99876  40.815  22.508   1.920
34716W        W99877  39.380  30.519   0.602
34717W        W99878  29.838   1.717  13.828
34718W        W99879   2.397  31.205  14.103
34719W        W99880  11.668  14.904   1.371
34720W        W99881  28.212  19.023  11.575
34721W        W99882  20.603   1.711  12.967
34722W        W99883  42.907  33.174  12.148
34723W        W99884  44.223   8.427  11.522
34724W        W99885  30.394  34.393   4.584
34725W        W99886  37.390   5.245  12.016
34726W        W99887  20.202  18.748   0.492
34727W        W99888  35.946  32.115   5.047
34728W        W99889  18.985  13.631  14.165
34729W        W99890  25.053  34.467  11.174
34730W        W99891  42.177  39.347   4.129
34731W        W99892  12.781  11.111   4.164
34732W        W99893  17.662  42.947   0.537
34733W        W99894  14.810  34.678  11.181
34734W        W99895   0.385   0.893   1.108
34735W        W99896  12.831  25.145   2.260
34736W        W99897   8.909  27.696  11.150
34737W        W99898  44.193   5.449  11.551
34738W        W99899  36.881  38.944   2.717
34739W        W99900  16.836  17.116   0.868
34740W        W99901  21.126  42.998   1.438
34741W        W99902  15.343  41.028   2.185
34742W        W99903   8.765   5.471  11.698
34743W        W99904  19.060  31.227  14.368
34744W        W99905  32.207  37.151   4.406
34745W        W99906  35.587   4.635  10.577
34746W        W99907  14.654   8.446   4.874
34747W        W99908  17.710  34.434  10.760
34748W        W99909  26.082  28.199  12.801
34749W        W99910   4.516  24.180   1.740
34750W        W99911  39.980  32.944   4.665
34751W        W99912   7.018  16.209   0.044
34752W        W99913  16.633   8.786  10.776
34753W        W99914  38.740  31.110  14.598
34754W        W99915  16.153  13.859  11.687
34755W        W99916  36.436   1.798  11.122
34756W        W99917  15.043   5.893  12.472
34757W        W99918  20.152  40.403  10.252
34758W        W99919   3.141   0.383  13.286
34759W        W99920  22.389  43.301   0.963
34760W        W99921  39.665  30.696  12.559
34761W        W99922  22.265  24.332   4.367
34762W        W99923   5.678  42.318  14.317
34763W        W99924  38.100  41.721   0.449
34764W        W99925  39.375  28.983   2.373
34765W        W99926  11.576  30.670  14.829
34766W        W99927   8.402  38.945   1.136
34767W        W99928   3.606   4.918   9.860
34768W        W99929   1.935  35.392   4.093
34769W        W99930  34.127  22.548  10.877
34770W        W99931   4.969  39.020   0.430
34771W        W99932  16.464  13.904   1.384
34772W        W99933  23.796   5.680   1.210
34773W        W99934  38.941  16.048  11.557
34774W        W99935  28.907   1.913   3.645
34775W        W99936  10.052  18.149   2.449
34776W        W99937  36.334  41.931   3.212
34777W        W99938  21.614  21.115   1.460
34778W        W99939  26.987  40.500   4.169
34779W        W99940  13.131   3.175  12.404
34780W        W99941  11.523  43.674  14.914
34781W        W99942  42.944   1.484  11.460
34782W        W99943   0.251   8.991   2.362
34783W        W99944  19.985  37.039  12.990
34784W        W99945  15.323  37.050  14.071
34785W        W99946  22.149  32.647  10.860
34786W        W99947   3.187  19.907  12.592
34787W        W99948  15.767  33.691   3.683
34788W        W99949   7.976  41.608  12.942
34789W        W99950  16.189  29.851   2.748
34790W        W99951  29.450  26.714   3.639
34791W        W99952  24.999   7.448  13.944
34792W        W99953  35.647   3.949  10.686
34793W        W99954  44.262  31.640  13.431
34794W        W99955  19.273  14.719   0.730
34795W        W99956  21.339  26.086   1.825
34796W        W99957  28.011  21.614  13.873
34797W        W99958  23.950  19.169   1.995
34798W        W99959  33.317  23.798   5.418
34799W        W99960   2.206  16.077   1.802
34800W        W99961  39.958  20.716   1.271
34801W        W99962  37.482  14.058   3.514
34802W        W99963  41.598  22.854  14.919
34803W        W99964  13.288  37.960   2.312
34804W        W99965  42.518  26.245   2.356
34805W        W99966  26.200  26.786  14.519
34806W        W99967   3.608  24.740   2.741
34807W        W99968  42.978  44.647  11.376
34808W        W99969  41.273  36.931   3.757
34809W        W99970  34.761   2.497   4.078
34810W        W99971   7.869  32.477  10.640
34811W        W99972  33.923  28.130   4.761
34812W        W99973  13.269  30.661  13.645
34813W        W99974   9.860   2.488   3.661
34814W        W99975  26.273  15.684   3.133
34815W        W99976  10.744  29.614   0.528
34816W        W99977  11.407   5.874   4.134
34817W        W99978  35.460  34.332  13.843
34818W        W99979  32.056  34.552   1.780
34819W        W99980  16.612  36.334   4.557
34820W        W99981  23.518  14.861   2.806
34821W        W99982  43.802  37.174   3.858
34822W        W99983   2.525  28.915  10.767
34823W        W99984  29.128  18.751   2.892
34824W        W99985  34.423  19.163   2.530
34825W        W99986  13.739  23.226  11.059
34826W        W99987  44.153  39.943   4.344
34827W        W99988  15.812   2.313   2.874
34828W        W99989  12.725  34.592  12.932
34829W        W99990  12.936  38.809  14.270
34830W        W99991  15.336   5.199  11.401
34831W        W99992  32.211   9.255   4.264
34832W        W99993   7.972   1.221  10.918
34833W        W99994  19.474   9.204  13.441
34834W        W99995  27.656  18.581  12.912
34835W        W99996  16.887  11.274  10.846
34836W        W99997  12.866  29.514  13.467
34837W        W99998   7.357  28.205  11.463
34838W        W99999  43.722  33.391   2.420
34839W        W    0   8.459  13.327  12.420
34840W        W    1  20.965  13.097   1.253
34841W        W    2  20.588  31.652   0.318
34842W        W    3  44.738   6.652   1.120
34843W        W    4  14.143  25.556  11.142
34844W        W    5  12.349  16.351  13.871
34845W        W    6  42.359  21.115  13.951
34846W        W    7  17.024  35.040   2.865
34847W        W    8  29.108  38.411  14.730
34848W        W    9   1.691   0.417   2.660
34849W        W   10  44.589  37.970  11.229
34850W        W   11  39.733  18.090   4.169
34851W        W   12  17.159  40.738   9.994
34852W        W   13  38.460  42.277  13.428
34853W        W   14  34.946  22.409   4.081
34854W        W   15  21.991  18.595  13.762
34855W        W   16  34.645  39.028   0.237
34856W        W   17   7.708  17.753   4.477
34857W        W   18  22.679  25.804  12.940
34858W        W   19  42.291  10.776  13.078
34859W        W   20   9.958   9.638  12.963
34860W        W   21  22.705  34.729   0.757
34861W        W   22  26.632   8.774  14.915
34862W        W   23   9.331  19.975   4.974
34863W        W   24   6.551  10.772  11.736
34864W        W   25  13.027   5.183  13.892
34865W        W   26   8.303  16.786  14.767
34866W        W   27   9.871  38.967  13.574
34867W        W   28  16.617   2.952   0.905
34868W        W   29  17.325  25.782   4.114
34869W        W   30  20.781  41.479  10.792
34870W        W   31  41.827  41.070   1.090
34871W        W   32  41.423  35.956  14.739
34872W        W   33  39.971  15.902  11.032
34873W        W   34   3.332  24.108  14.895
34874W        W   35  22.959  11.026  12.657
34875W        W   36  15.063  25.963   3.613
34876W        W   37  11.298  26.161   2.734
34877W        W   38   4.843   6.870  12.476
34878W        W   39  23.036   9.258  13.091
34879W        W   40  38.892  38.827   5.454
34880W        W   41   0.401  40.550   2.267
34881W        W   42  24.528  19.687   3.207
34882W        W   43   2.423   7.435   2.281
34883W        W   44  17.514  26.896   3.707
34884W        W   45  34.669  34.815   0.402
34885W        W   46  16.713  40.014  10.758
34886W        W   47  17.341  34.898   1.895
34887W        W   48  34.143  12.222  12.935
34888W        W   49  42.821  21.700   0.875
34889W        W   50  40.014   8.868   3.310
34890W        W   51   8.153  39.338   2.266
34891W        W   52  27.079  15.506   1.753
34892W        W   53  20.973  28.945   2.619
34893W        W   54  41.700  42.835  13.444
34894W        W   55  10.619  24.519  14.045
34895W        W   56  12.924  25.978   1.845
34896W        W   57  11.741  43.605  10.502
34897W        W   58  16.123  25.497  14.008
34898W        W   59  39.944  17.181  10.425
34899W        W   60   1.862   4.512  11.172
34900W        W   61  14.244  10.767   3.279
34901W        W   62  38.362  44.778  13.060
34902W        W   63  23.800  19.103  14.363
34903W        W   64  41.936  28.991   1.855
34904W        W   65  44.141   5.884   4.838
34905W        W   66  40.648  31.092   1.883
34906W        W   67  42.772  18.790  12.485
34907W        W   68  43.837   7.894  11.197
34908W        W   69  33.660  21.215  11.537
34909W        W   70  35.449  30.199  14.179
34910W        W   71  31.520  17.114  10.652
34911W        W   72  20.785  37.012  12.127
34912W        W   73   0.032   3.979  14.206
34913W        W   74  30.023   8.473  14.276
34914W        W   75   4.934  42.732  12.417
34915W        W   76  26.469  31.031  12.498
34916W        W   77  34.118   5.950  12.582
34917W        W   78  36.016   1.672   3.756
34918W        W   79  19.193  38.377  13.601
34919W        W   80  26.049   2.713   0.273
34920W        W   81  43.031  42.697  13.000
34921W        W   82  37.070  40.829   1.576
34922W        W   83  38.682  10.216  10.271
34923W        W   84  33.574  43.777  11.993
34924W        W   85   2.795  39.610  14.940
34925W        W   86  11.131  24.990  11.636
34926W        W   87  30.424  37.354   2.220
34927W        W   88  33.209  18.352   3.759
34928W        W   89  21.549  28.595  14.969
34929W        W   90  28.552  17.297  13.499
34930W        W   91  31.416  31.455   5.036
34931W        W   92  29.328   8.784   4.648
34932W        W   93  14.509  13.198  13.810
34933W        W   94  30.514  32.897   4.253
34934W        W   95  29.047  12.572  12.458
34935W        W   96  37.441  12.117  11.664
34936W        W   97  11.293  25.221  13.834
34937W        W   98  44.904  23.966  11.724
34938W        W   99   4.726  30.864  11.606
34939W        W  100   6.334  19.197   3.128
34940W        W  101   9.740  36.000   0.758
34941W        W  102  17.606  44.538  12.371
34942W        W  103  44.046  13.343  13.727
34943W        W  104   7.344  37.945   1.728
34944W        W  105  43.010  13.833  14.378
34945W        W  106   3.236  23.971   2.156
34946W        W  107  15.834  40.178   0.375
34947W        W  108  13.719   1.722  12.450
34948W        W  109  44.041   9.381  11.969
34949W        W  110  31.753   3.419  10.266
34950W        W  111  41.487  15.214  13.502
34951W        W  112  37.415  15.413   2.388
34952W        W  113   0.472  37.912  11.931
34953W        W  114  24.155  41.301  13.938
34954W        W  115   5.166  44.392   3.586
34955W        W  116  36.552   2.017  14.964
34956W        W  117  29.925   3.721  11.206
34957W        W  118  22.402  32.992  12.995
34958W        W  119  13.198  14.432  13.448
34959W        W  120  44.834  31.360   0.519
34960W        W  121  20.292   8.726   2.376
34961W        W  122   9.891  13.808  14.576
34962W        W  123  32.821   8.917   0.912
34963W        W  124  28.633  43.383   0.703
34964W        W  125  21.126  14.105  14.827
34965W        W  126  39.457  22.705   4.625
34966W        W  127  27.573  14.529   1.812
34967W        W  128   8.586  20.178  14.398
34968W        W  129   3.550  32.389  12.386
34969W        W  130  20.582  28.634  11.239
34970W        W  131  31.991  37.496   2.915
34971W        W  132  24.567  29.529  11.278
34972W        W  133  43.285   8.012  13.747
34973W        W  134  21.733  37.594   1.142
34974W        W  135  26.091  33.455   0.875
34975W        W  136  35.038  38.596  14.074
34976W        W  137  17.702   4.760   3.065
34977W        W  138  24.074  42.327  11.149
34978W        W  139   2.836  41.311   3.634
34979W        W  140   5.113   8.148   1.302
34980W        W  141  21.656  34.006  12.542
34981W        W  142   3.723  20.126  13.491
34982W        W  143  40.079  24.491   3.102
34983W        W  144  36.427   3.938  11.125
34984W        W  145  39.692  20.231   3.654
34985W        W  146  41.280  35.568   1.014
34986W        W  147  12.548  18.546  14.341
34987W        W  148   0.509   2.861   3.749
34988W        W  149  33.145  13.588  14.055
34989W        W  150  12.573  30.496  13.017
34990W        W  151  10.216  13.488   4.924
34991W        W  152  42.827  27.014  10.744
34992W        W  153  40.378  14.988  13.173
34993W        W  154   7.796   7.130   1.411
34994W        W  155  37.546  11.630  11.155
34995W        W  156   0.503   2.913  14.828
34996W        W  157  17.232  18.843   4.143
34997W        W  158  38.865  12.055  10.727
34998W        W  159  37.288   2.873   3.278
34999W        W  160  37.785  15.192   3.885
35000W        W  161  40.747  34.011  11.677
35001W        W  162  22.520  19.700  13.470
35002W        W  163  16.026  25.699  14.523
35003W        W  164  15.216  15.987   1.815
35004W        W  165  37.533  37.558   1.757
35005W        W  166  44.142   4.985  13.521
35006W        W  167  27.446  18.754   0.297
35007W        W  168   5.769  15.354   4.217
35008W        W  169   4.542  11.218  11.053
35009W        W  170  14.885   4.685   1.835
35010W        W  171  15.066  39.475   2.333
35011W        W  172   2.533  39.663  11.182
35012W        W  173  24.213  35.681  12.009
35013W        W  174  28.357  33.834   0.397
35014W        W  175  24.452  19.117   0.488
35015W        W  176  35.851  20.506  11.620
35016W        W  177  26.717  43.069  12.885
35017W        W  178   3.428  16.609  14.187
35018W        W  179  43.147   2.238   0.930
35019W        W  180  16.369  24.875  11.034
35020W        W  181  13.573  17.237  14.316
35021W        W  182  30.557  12.636  14.902
35022W        W  183  27.121  37.957   0.771
35023W        W  184  13.334   3.936  13.551
35024W        W  185  36.963  21.607   2.348
35025W        W  186  23.119  11.139  12.036
35026W        W  187   9.747  12.393   0.788
35027W        W  188  39.635  15.685   1.949
35028W        W  189  41.088   0.493  11.215
35029W        W  190  18.699  19.837   1.954
35030W        W  191  40.382  33.494   2.029
35031W        W  192  37.673  31.609   2.818
35032W        W  193  38.039  43.819   2.704
35033W        W  194  15.140  41.692   1.836
35034W        W  195   5.598   6.537  11.617
35035W        W  196  39.559   5.953  10.255
35036W        W  197  44.584  19.049  11.042
35037W        W  198  33.060  42.196  11.029
35038W        W  199  39.844   6.163   2.402
35039W        W  200   0.278  41.884  10.762
35040W        W  201  12.677   9.802  11.963
35041W        W  202  32.206  30.999   4.956
35042W        W  203  40.992   8.273  13.974
35043W        W  204  37.411  19.778   2.000
35044W        W  205  39.984  37.941   4.079
35045W        W  206   2.892  36.051   4.371
35046W        W  207  38.686  31.076   3.643
35047W        W  208  21.473   4.916   4.140
35048W        W  209  12.874  39.221   3.701
35049W        W  210   2.250  43.574  14.797
35050W        W  211  13.398  33.846   1.838
35051W        W  212  42.328   2.107   1.484
35052W        W  213  28.076   0.295  12.920
35053W        W  214  30.173   6.559   4.216
35054W        W  215  30.820   5.006   1.329
35055W        W  216  27.327   4.323  11.984
35056W        W  217  13.774  18.659  13.124
35057W        W  218  26.618  28.714  11.535
35058W        W  219  26.291  32.696  13.998
35059W        W  220  11.409  27.179  10.578
35060W        W  221  16.648  17.887   5.165
35061W        W  222  21.655  31.974  11.717
35062W        W  223   1.018  27.486   2.757
35063W        W  224  10.811  17.502  14.018
35064W        W  225  10.066  39.017  11.868
35065W        W  226  35.984  42.299  11.575
35066W        W  227  11.369  18.553   1.580
35067W        W  228  14.589  15.149  12.337
35068W        W  229   5.664  16.867   2.800
35069W        W  230  21.450   6.795   3.348
35070W        W  231   9.905  17.146   3.213
35071W        W  232  36.311   5.938   1.793
35072W        W  233  43.990  28.091   2.275
35073W        W  234   2.252   9.777  14.669
35074W        W  235  24.308  38.466   1.798
35075W        W  236  28.365  12.251  12.105
35076W        W  237  30.954  25.778   0.426
35077W        W  238  20.697  31.003  14.059
35078W        W  239  10.844   9.786   1.889
35079W        W  240  42.278   8.868   4.089
35080W        W  241  23.288   9.856   0.435
35081W        W  242   3.766  18.733   0.846
35082W        W  243   1.518   4.109   2.184
35083W        W  244   5.706   8.352  11.893
35084W        W  245  43.919  34.692   0.420
35085W        W  246  41.276  21.032   0.292
35086W        W  247  24.160   3.312  12.015
35087W        W  248  23.974  36.885  12.658
35088W        W  249   1.785   0.727  13.958
35089W        W  250   7.415  40.487   3.041
35090W        W  251   7.257  15.078   2.907
35091W        W  252  37.649  13.198   3.594
35092W        W  253  39.998   1.775   3.182
35093W        W  254  33.817  26.169   2.280
35094W        W  255   1.900  10.605   0.981
35095W        W  256  29.014   7.087   1.869
35096W        W  257  40.249   3.582   2.876
35097W        W  258  12.957  38.480  13.842
35098W        W  259   1.748   2.248  11.643
35099W        W  260  10.893  32.991  14.271
35100W        W  261  14.659  19.789  12.480
35101W        W  262  23.949  39.713  10.853
35102W        W  263  36.560  17.269  12.848
35103W        W  264   2.875  43.325   3.429
35104W        W  265  21.951   7.014  13.564
35105W        W  266  11.168  13.813   0.933
35106W        W  267   6.930  42.222   0.368
35107W        W  268   1.030  34.418   1.803
35108W        W  269  20.218  22.617  14.196
35109W        W  270   9.923  41.473   4.585
35110W        W  271  12.450  35.530  11.156
35111W        W  272  41.967   2.305   2.288
35112W        W  273   3.995  28.077  14.352
35113W        W  274  38.871   7.089   2.134
35114W        W  275  16.667  23.052  11.994
35115W        W  276  33.105   4.784  14.990
35116W        W  277  12.029  29.999  12.064
35117W        W  278  13.837  27.382   2.195
35118W        W  279  35.669   9.320   1.722
35119W        W  280  36.640  14.911  13.416
35120W        W  281  34.548  40.027  10.658
35121W        W  282  28.123  13.804   2.693
35122W        W  283  34.862  21.115  13.775
35123W        W  284  25.998  35.418  12.542
35124W        W  285  21.948  38.010   0.769
35125W        W  286   4.082  29.411   1.573
35126W        W  287  17.058   5.187   2.293
35127W        W  288  15.745  41.783  13.274
35128W        W  289  40.130  38.588  10.728
35129W        W  290  37.433  43.078  14.531
35130W        W  291  27.491  30.086   1.346
35131W        W  292  24.089  27.440  14.975
35132W        W  293   6.192  15.141  14.583
35133W        W  294   1.777   3.428  12.574
35134W        W  295   5.811  21.566   4.863
35135W        W  296   1.388  40.093   2.759
35136W        W  297  30.839  38.803  14.975
35137W        W  298   0.127  40.369  11.941
35138W        W  299  36.907   0.493  13.337
35139W        W  300   5.438  22.248   3.230
35140W        W  301  28.590  24.074   1.329
35141W        W  302  20.680  15.091  10.744
35142W        W  303  11.184   5.155  11.271
35143W        W  304  20.109  31.477  11.064
35144W        W  305   7.816   1.583   1.559
35145W        W  306  42.300   1.695   1.819
35146W        W  307  15.597  25.882  13.541
35147W        W  308  37.582  17.493   4.738
35148W        W  309  16.449  32.075  14.416
35149W        W  310  41.975  31.424  13.915
35150W        W  311  10.061   7.174   4.028
35151W        W  312  41.942  34.485  13.023
35152W        W  313  16.024   8.460  12.852
35153W        W  314  21.579   1.164  12.987
35154W        W  315   3.282   6.357   0.632
35155W        W  316  40.542   6.807   2.084
35156W        W  317   7.813   4.792   5.183
35157W        W  318  22.287  24.391  14.318
35158W        W  319  17.087  12.868   1.890
35159W        W  320  21.049  21.171   4.826
35160W        W  321  41.805   4.422  13.990
35161W        W  322   7.815  29.879   2.929
35162W        W  323  33.702  10.376  13.409
35163W        W  324   6.059   6.326  13.432
35164W        W  325  43.754  12.848   4.987
35165W        W  326  38.517  42.910   3.926
35166W        W  327  25.016  23.810   4.910
35167W        W  328  25.237  26.157  10.815
35168W        W  329  19.727  31.123  12.914
35169W        W  330  38.420   9.992  13.566
35170W        W  331  14.775  16.058   4.541
35171W        W  332   3.754  27.009   0.090
35172W        W  333  22.834  18.699  12.504
35173W        W  334  44.485   7.682  12.557
35174W        W  335  20.430  19.149   0.776
35175W        W  336   8.696  26.320  14.394
35176W        W  337   3.052   2.634  11.717
35177W        W  338  23.838  21.093  14.796
35178W        W  339   4.578  12.469   1.401
35179W        W  340  19.161   4.185   2.257
35180W        W  341  23.501  37.416  13.521
35181W        W  342  26.617  38.995   0.798
35182W        W  343  12.924  33.852  13.569
35183W        W  344  44.372  12.998   1.383
35184W        W  345  42.103  12.109  11.174
35185W        W  346  41.222  23.773   2.868
35186W        W  347  14.155   0.488   1.644
35187W        W  348   9.703  13.150  13.472
35188W        W  349  12.180  30.208  12.498
35189W        W  350  41.344  19.736   0.793
35190W        W  351  26.722  28.963  11.960
35191W        W  352  17.832  10.943   1.828
35192W        W  353  29.823  34.392   0.493
35193W        W  354  17.120  32.367  13.432
35194W        W  355  34.376  24.671  12.477
35195W        W  356  24.609  26.065   4.641
35196W        W  357   4.527  33.021   0.084
35197W        W  358  16.008  38.439  11.188
35198W        W  359  39.448  27.990   1.392
35199W        W  360  21.016  24.262  14.717
35200W        W  361  35.605   4.295   0.335
35201W        W  362  41.168  21.945  11.719
35202W        W  363  17.924   1.495  14.548
35203W        W  364  25.296  43.873   0.402
35204W        W  365  30.832  15.727  10.719
35205W        W  366   0.823  33.000  14.844
35206W        W  367   4.689  32.465   3.175
35207W        W  368   4.313  40.038   4.164
35208W        W  369  11.415  41.583   4.030
35209W        W  370  12.235  20.295   3.688
35210W        W  371   8.847  11.355  13.396
35211W        W  372   4.363   2.403   2.302
35212W        W  373  10.301   8.634   1.965
35213W        W  374  29.064  44.781   4.615
35214W        W  375   6.239  23.789   1.767
35215W        W  376  19.866  36.968  11.049
35216W        W  377  26.404  37.461  13.802
35217W        W  378   4.826  43.986   0.994
35218W        W  379  43.264   8.824  11.590
35219W        W  380   2.821   5.148  11.091
35220W        W  381   3.777  18.969  11.143
35221W        W  382  44.010  29.897  14.812
35222W        W  383  18.392   4.520  11.584
35223W        W  384  31.679  29.169   1.238
35224W        W  385  24.259  42.842  10.293
35225W        W  386  13.761   8.295   2.434
35226W        W  387  15.593   4.659   1.348
35227W        W  388  15.788  32.504   0.035
35228W        W  389   5.336  44.775   0.892
35229W        W  390  18.102  12.744   4.469
35230W        W  391  11.367   9.206   3.419
35231W        W  392  14.583  21.751  14.238
35232W        W  393  30.122  39.276  11.411
35233W        W  394  16.150  22.081  12.071
35234W        W  395  41.862  40.976  12.109
35235W        W  396  32.583  25.453  14.010
35236W        W  397  32.330   6.932   1.710
35237W        W  398  31.082  37.900  14.980
35238W        W  399   6.927  32.624  12.426
35239W        W  400  27.746  36.100  10.765
35240W        W  401  29.153  31.682   4.342
35241W        W  402  37.652  13.736  13.449
35242W        W  403  15.026   8.413  13.002
35243W        W  404  20.621  18.229   0.715
35244W        W  405  21.168   3.646  12.296
35245W        W  406  11.137  11.779  12.038
35246W        W  407  32.419   4.004   0.862
35247W        W  408   4.689  21.343  14.309
35248W        W  409  12.086  23.130  14.491
35249W        W  410   0.964  20.683   1.211
35250W        W  411  25.461  16.550   2.858
35251W        W  412   8.383  10.135  14.517
35252W        W  413  16.207  43.289   0.858
35253W        W  414  24.167  19.478  10.548
35254W        W  415  23.700  18.584  12.147
35255W        W  416  34.479   9.925   1.207
35256W        W  417  39.446  17.618   0.186
35257W        W  418   5.460  11.233   4.294
35258W        W  419   2.739   3.898   2.650
35259W        W  420  35.836   1.128   2.540
35260W        W  421   5.946   5.473  13.571
35261W        W  422  40.174   6.183  14.009
35262W        W  423  11.735  14.372  14.759
35263W        W  424  15.351  14.266   2.874
35264W        W  425  10.203   9.648   3.664
35265W        W  426  28.933   7.932   0.722
35266W        W  427   8.363  15.712   2.599
35267W        W  428  20.724  12.903   1.665
35268W        W  429  19.133  44.543   4.180
35269W        W  430  31.504  39.192   3.273
35270W        W  431  10.109   2.196  12.137
35271W        W  432  23.672   6.352  13.396
35272W        W  433  36.008  40.170   2.387
35273W        W  434  28.618  37.630   0.257
35274W        W  435  16.925  28.596  12.935
35275W        W  436  41.881  44.510   1.162
35276W        W  437  41.690  27.649   3.348
35277W        W  438  41.895  22.550   3.564
35278W        W  439   9.430  38.108   4.172
35279W        W  440   8.818   5.003  11.473
35280W        W  441  44.673  30.520   1.248
35281W        W  442   2.428  42.546  12.890
35282W        W  443  27.496   4.945   0.262
35283W        W  444  32.894  40.317   0.233
35284W        W  445  14.786  21.815   3.682
35285W        W  446  23.276  41.035   1.934
35286W        W  447  25.192   8.104  10.986
35287W        W  448  29.987  25.976   0.205
35288W        W  449  14.767  20.885   1.848
35289W        W  450  13.232  39.137   4.059
35290W        W  451   7.990  37.304  10.199
35291W        W  452  33.029  25.531   1.115
35292W        W  453  32.327   7.400  11.246
35293W        W  454  32.961   7.085   4.887
35294W        W  455  42.342  12.313   4.040
35295W        W  456   3.449  31.849  14.402
35296W        W  457  43.265  27.228   4.797
35297W        W  458  11.295  42.981   1.249
35298W        W  459  23.459  31.958   2.472
35299W        W  460  10.363   9.617   0.356
35300W        W  461  25.197   9.313  11.554
35301W        W  462  10.820   9.478   2.860
35302W        W  463  36.314  26.559  13.488
35303W        W  464  17.642  12.127   4.810
35304W        W  465  24.370  21.230   0.835
35305W        W  466   8.853  24.256   1.358
35306W        W  467  43.424  23.134  13.516
35307W        W  468  13.240  16.822  14.919
35308W        W  469  19.281  26.961   3.621
35309W        W  470  22.954  20.664   4.812
35310W        W  471  15.269  10.685  12.258
35311W        W  472  25.754  41.952   1.342
35312W        W  473  18.355  29.129  14.859
35313W        W  474  17.841  34.210   4.564
35314W        W  475  27.586  35.609  10.759
35315W        W  476  25.341  37.525  14.090
35316W        W  477  10.368   1.721  14.513
35317W        W  478  12.219  31.370  14.022
35318W        W  479  28.400   9.297   1.777
35319W        W  480  34.029   0.217   0.965
35320W        W  481  27.795  32.062  14.882
35321W        W  482   4.875   7.665   0.733
35322W        W  483  33.961  38.107   2.865
35323W        W  484   0.728  21.466  14.084
35324W        W  485  29.295   0.650  12.094
35325W        W  486   6.160  24.432  11.093
35326W        W  487   5.322  16.610  11.764
35327W        W  488  16.703  36.902  14.843
35328W        W  489   6.254  15.215  12.568
35329W        W  490  15.158  25.394   2.807
35330W        W  491  38.792   5.384   1.891
35331W        W  492   9.566   1.304   3.233
35332W        W  493  32.162  36.659   0.317
35333W        W  494  26.813  21.675   4.514
35334W        W  495  23.050  17.423   5.723
35335W        W  496  36.566  22.671  10.760
35336W        W  497  21.565  41.435   2.175
35337W        W  498  22.183  29.318   3.333
35338W        W  499  22.727  40.085   0.927
35339W        W  500  32.181   4.259   1.819
35340W        W  501  38.094  24.775   0.801
35341W        W  502  31.537  31.010   2.841
35342W        W  503  16.603  12.664   2.627
35343W        W  504  15.133   3.674  11.739
35344W        W  505  44.547   3.159   0.197
35345W        W  506  40.091  11.148   2.106
35346W        W  507  31.338  36.928  10.789
35347W        W  508   1.022  41.394   1.428
35348W        W  509   7.217   1.769   4.160
35349W        W  510  33.452   0.635   1.367
35350W        W  511  42.146   3.252   0.514
35351W        W  512  16.815  20.758   4.154
35352W        W  513  15.526  12.588  14.415
35353W        W  514  35.791  20.326   1.453
35354W        W  515  21.542  12.839   4.237
35355W        W  516   8.226  22.126   3.856
35356W        W  517  32.181   3.490   1.375
35357W        W  518  43.501  41.090   0.418
35358W        W  519  17.204  20.064  10.252
35359W        W  520   3.875  34.631   4.650
35360W        W  521  30.652  31.524   4.380
35361W        W  522   9.541  43.405   3.932
35362W        W  523  25.235  44.928   3.218
35363W        W  524  18.147  42.744   0.537
35364W        W  525  26.126  42.541   4.493
35365W        W  526  35.676  40.760   1.192
35366W        W  527  33.454   2.465   3.666
35367W        W  528  32.120  23.477   0.422
35368W        W  529  22.126  21.231  12.350
35369W        W  530  26.936  23.009  13.924
35370W        W  531   9.932  12.647  13.470
35371W        W  532  38.977  10.603  11.947
35372W        W  533  43.890  12.859   1.218
35373W        W  534  41.824  12.204  12.600
35374W        W  535  31.604  18.025   2.247
35375W        W  536  40.536  22.538  11.685
35376W        W  537   7.880  41.317  13.350
35377W        W  538  43.435  17.168   2.753
35378W        W  539  36.350   4.463   1.720
35379W        W  540  39.149  17.885   0.522
35380W        W  541  20.689  26.100   1.243
35381W        W  542   8.549  24.259  14.330
35382W        W  543  16.094   5.932   4.603
35383W        W  544  42.763  27.175  13.964
35384W        W  545  16.446  18.772   4.529
35385W        W  546  19.160  19.840  10.278
35386W        W  547  28.858  29.115   2.680
35387W        W  548   0.247  41.875   0.725
35388W        W  549   4.927  38.602   3.788
35389W        W  550   5.361   0.017   0.450
35390W        W  551  39.596   0.944  12.420
35391W        W  552  12.856  38.111   2.795
35392W        W  553   0.649  14.588  12.938
35393W        W  554  41.808  29.038  13.409
35394W        W  555  44.164  44.363  12.453
35395W        W  556   2.431  25.494  14.276
35396W        W  557  31.431   4.840   0.329
35397W        W  558  21.449  40.381  10.601
35398W        W  559  25.169  21.541   3.558
35399W        W  560   1.218   1.248   0.872
35400W        W  561  37.873  33.898  13.850
35401W        W  562  25.137  11.272   3.468
35402W        W  563  36.213  14.762   4.550
35403W        W  564  31.607  17.154   4.322
35404W        W  565  31.421  20.674   2.597
35405W        W  566  13.403   2.726  12.391
35406W        W  567  13.063  37.401  11.116
35407W        W  568   3.581  21.124   3.039
35408W        W  569  37.592  41.542  12.512
35409W        W  570  41.010  15.089  11.602
35410W        W  571  17.292   0.019   4.051
35411W        W  572  12.145  12.901   3.176
35412W        W  573  20.822   2.611  14.059
35413W        W  574  43.355   6.146  14.322
35414W        W  575  16.469  15.064   3.677
35415W        W  576  20.948  26.577  13.960
35416W        W  577   5.557   1.891   0.680
35417W        W  578  34.613  11.883   0.537
35418W        W  579  24.529   3.025   0.420
35419W        W  580  15.145  30.423   1.615
35420W        W  581  34.850   4.493   1.031
35421W        W  582  44.496   4.100  10.704
35422W        W  583   6.363  20.742  14.638
35423W        W  584  35.888   8.447   2.327
35424W        W  585  36.968   1.720   2.608
35425W        W  586   8.273  24.075   4.844
35426W        W  587  32.168  29.456   0.787
35427W        W  588  24.232   6.053  10.597
35428W        W  589  30.576   9.506   2.919
35429W        W  590  37.899  22.108   1.214
35430W        W  591  24.621  10.459   3.699
35431W        W  592  15.072  27.681  14.743
35432W        W  593  33.281  28.710   1.388
35433W        W  594   2.379  43.307  11.155
35434W        W  595  33.197  18.776   2.218
35435W        W  596  15.125  12.466   4.268
35436W        W  597   6.056  39.285   1.722
35437W        W  598  20.969  35.583   0.384
35438W        W  599  24.697  39.295  12.504
35439W        W  600  17.329  20.168   4.553
35440W        W  601  43.905  16.602  14.676
35441W        W  602  34.853  24.436  11.584
35442W        W  603  12.276  13.206   1.701
35443W        W  604  43.820  16.794   3.856
35444W        W  605  36.917  23.171   2.392
35445W        W  606  44.354  34.421   4.625
35446W        W  607  12.624  12.938  10.757
35447W        W  608  12.927   4.777   3.665
35448W        W  609  29.597  12.536  12.482
35449W        W  610  28.548  11.658   2.202
35450W        W  611  37.090   7.410  14.642
35451W        W  612  38.816   6.198  11.527
35452W        W  613  10.226  30.653  10.855
35453W        W  614  43.905  43.699   2.560
35454W        W  615   3.466   5.108  11.907
35455W        W  616  33.756  38.041   4.582
35456W        W  617  10.647   1.932   2.724
35457W        W  618  38.435  22.670  14.702
35458W        W  619  22.209   3.970  14.894
35459W        W  620   8.768  20.835   1.933
35460W        W  621   8.800  33.059   0.910
35461W        W  622   4.802   6.287   2.035
35462W        W  623  23.820  27.535  10.730
35463W        W  624  26.612   4.951   3.643
35464W        W  625  16.799   3.443   3.580
35465W        W  626  24.118  33.647  14.524
35466W        W  627  11.563  25.727  13.983
35467W        W  628  16.525   3.147   4.867
35468W        W  629  25.821  22.077   2.624
35469W        W  630  35.445  28.493  12.182
35470W        W  631  29.664   7.265   2.615
35471W        W  632  12.755   6.774  14.895
35472W        W  633   4.623  26.804   0.723
35473W        W  634  34.041   5.924  13.896
35474W        W  635  15.361  33.870  13.240
35475W        W  636  38.301  23.705  12.559
35476W        W  637  10.310  25.651   4.649
35477W        W  638   5.935  13.509  11.936
35478W        W  639  35.107  36.587  14.240
35479W        W  640   1.935  29.130  13.433
35480W        W  641  24.987  14.143  12.527
35481W        W  642  13.112  27.765  13.895
35482W        W  643  15.154  19.195  12.622
35483W        W  644  15.702  19.054  12.641
35484W        W  645  17.280  39.827   2.278
35485W        W  646   7.294   7.788  10.909
35486W        W  647  24.829  15.187   4.102
35487W        W  648   7.916   8.424  13.980
35488W        W  649  19.044  13.352  14.965
35489W        W  650   2.426  30.180   4.229
35490W        W  651  35.615  24.152   0.949
35491W        W  652   0.023  44.252  13.840
35492W        W  653  11.406  36.212  13.881
35493W        W  654  38.588  28.165   4.353
35494W        W  655  18.011  25.553   0.518
35495W        W  656  33.552  42.707   1.799
35496W        W  657  14.435  16.347   3.153
35497W        W  658  17.328  44.270  13.005
35498W        W  659   6.175  16.684  11.979
35499W        W  660   0.892  44.185   0.294
35500W        W  661  29.149  35.487  13.815
35501W        W  662  39.388  13.631   1.683
35502W        W  663  22.493   7.896   3.916
35503W        W  664   5.763  12.904  14.399
35504W        W  665   1.261   6.079   1.526
35505W        W  666  25.193  16.997  11.571
35506W        W  667   5.305  33.548   1.998
35507W        W  668  40.689  10.389  10.491
35508W        W  669   4.282  39.208  12.134
35509W        W  670   7.714   2.713  13.886
35510W        W  671  36.376  17.043   0.368
35511W        W  672  26.301  33.988   0.108
35512W        W  673  25.088  34.996  12.547
35513W        W  674  10.313   5.209   3.726
35514W        W  675  14.359   4.783   2.800
35515W        W  676  19.561  19.504  10.241
35516W        W  677  19.252  14.192   1.486
35517W        W  678  34.038  16.638  11.659
35518W        W  679  41.757  16.343   0.899
35519W        W  680  30.961   7.840  10.678
35520W        W  681  12.075   5.096  14.663
35521W        W  682  42.314  14.770   2.650
35522W        W  683   8.088  23.096   0.437
35523W        W  684  22.167  31.172  10.615
35524W        W  685  30.794   7.237   9.779
35525W        W  686  29.390   6.948  11.737
35526W        W  687  36.539  44.090   1.950
35527W        W  688  40.538  13.246  11.605
35528W        W  689   3.561  30.561   4.608
35529W        W  690  29.084  39.314   3.748
35530W        W  691  10.359  44.485   2.668
35531W        W  692  43.212  44.177  13.442
35532W        W  693  21.919  15.387  11.001
35533W        W  694  15.967  13.443   2.751
35534W        W  695  27.541   1.903  14.494
35535W        W  696  10.326  42.257  10.772
35536W        W  697  38.768  37.171  14.024
35537W        W  698   6.844   0.813   0.044
35538W        W  699  23.641  30.570   1.354
35539W        W  700  30.723  16.657  13.331
35540W        W  701  24.231   9.729   3.382
35541W        W  702  35.804  15.669   2.785
35542W        W  703  39.464  12.930   2.332
35543W        W  704   1.140   9.114  11.521
35544W        W  705  33.147  14.302  10.894
35545W        W  706  17.838  34.873  13.004
35546W        W  707  38.558  32.817  14.384
35547W        W  708  40.421  34.863  11.605
35548W        W  709  14.334  22.226  13.915
35549W        W  710  11.610  37.560  11.906
35550W        W  711   0.682  38.422  14.265
35551W        W  712   2.942  40.826  14.492
35552W        W  713  26.916   6.125  12.765
35553W        W  714  18.849  41.899  10.994
35554W        W  715  43.039  42.009   1.417
35555W        W  716   3.281  21.390  14.362
35556W        W  717   5.352  24.835   3.717
35557W        W  718   1.031  34.051   0.287
35558W        W  719  13.939  37.113  14.416
35559W        W  720  42.457  29.478  11.493
35560W        W  721  40.887   2.403   1.403
35561W        W  722  34.422  31.258  14.175
35562W        W  723  40.323   8.060  10.862
35563W        W  724  10.109  26.257   0.920
35564W        W  725  42.890  29.344  12.589
35565W        W  726   8.182   6.891  12.365
35566W        W  727  42.864  15.311  14.357
35567W        W  728  22.367  19.630  11.660
35568W        W  729   5.719   9.018   4.186
35569W        W  730   8.147  20.724   3.118
35570W        W  731  12.682   8.237  14.824
35571W        W  732  26.275   2.854  14.067
35572W        W  733  15.287  13.827  14.315
35573W        W  734  30.455  25.704   5.013
35574W        W  735  22.429  28.930  11.457
35575W        W  736  15.981  42.445   4.004
35576W        W  737  33.211  16.714   0.367
35577W        W  738   7.799  22.768   0.143
35578W        W  739   4.888  37.906  12.882
35579W        W  740   3.209  31.094   1.807
35580W        W  741  14.757  34.956  10.745
35581W        W  742   3.840   1.836   3.932
35582W        W  743  11.897  35.405  14.935
35583W        W  744  18.499   7.891  11.630
35584W        W  745  44.811   5.334   1.114
35585W        W  746  24.468  40.376   1.835
35586W        W  747   3.492  43.691   4.149
35587W        W  748   7.331   1.819   1.726
35588W        W  749  24.209   3.451   2.686
35589W        W  750   6.449  42.755  14.400
35590W        W  751   9.905  31.560  12.128
35591W        W  752   4.697   5.277   2.247
35592W        W  753  19.511  16.637  14.957
35593W        W  754  19.113  15.785   2.009
35594W        W  755   2.044   5.176   3.758
35595W        W  756  33.999  21.598  12.346
35596W        W  757  27.448   2.853  14.330
35597W        W  758  13.563   4.351  10.470
35598W        W  759  39.011  42.136   4.952
35599W        W  760   1.930  19.855  11.108
35600W        W  761  35.158  23.693  12.024
35601W        W  762   6.457  20.118  13.933
35602W        W  763   9.928  15.634   4.199
35603W        W  764  25.749  31.224   1.143
35604W        W  765  26.886  19.149   0.735
35605W        W  766  25.484  35.621   3.728
35606W        W  767  31.445   1.254   2.873
35607W        W  768  43.798  41.358  11.543
35608W        W  769  14.083  43.033   2.714
35609W        W  770  22.842   9.097   3.288
35610W        W  771  44.166  40.920   2.278
35611W        W  772  10.144   8.279   2.753
35612W        W  773  39.347  30.862   0.214
35613W        W  774  27.062  41.968   1.932
35614W        W  775  34.962  14.138   5.195
35615W        W  776  29.030   1.185  10.673
35616W        W  777  29.250   8.139   0.346
35617W        W  778  43.085  20.664  11.653
35618W        W  779  14.264  40.725   0.003
35619W        W  780   3.179   2.227  13.651
35620W        W  781  32.500   6.906  14.418
35621W        W  782  36.654  27.232  13.946
35622W        W  783  10.711  12.761   0.961
35623W        W  784  25.181  40.994   5.468
35624W        W  785   8.404   7.737   0.049
35625W        W  786  12.145  10.154  10.464
35626W        W  787   2.099   4.783  10.812
35627W        W  788  41.953  17.547  13.413
35628W        W  789  16.007  44.550  14.320
35629W        W  790  28.168   5.264   0.061
35630W        W  791  40.309  17.708   1.480
35631W        W  792  18.494  35.324   4.742
35632W        W  793   8.246  31.935   2.772
35633W        W  794  40.347  35.849   3.583
35634W        W  795  29.587  13.893   2.830
35635W        W  796  19.749  12.057   1.785
35636W        W  797  43.739   4.938   4.491
35637W        W  798  24.585   1.361   3.642
35638W        W  799   8.417  42.009  14.483
35639W        W  800  32.849  31.855   0.769
35640W        W  801  26.592  20.622  11.665
35641W        W  802   6.285   9.120   0.282
35642W        W  803  25.311   6.809   1.224
35643W        W  804  20.208  22.428   1.491
35644W        W  805  40.932  33.305   3.144
35645W        W  806  27.018  18.700   2.131
35646W        W  807  31.435  25.976   1.759
35647W        W  808  26.332  37.602  10.721
35648W        W  809  30.980  43.682   2.113
35649W        W  810  14.815  22.111  10.705
35650W        W  811   9.606  36.271  13.888
35651W        W  812  36.849  40.745   4.634
35652W        W  813  31.588  34.224   1.838
35653W        W  814  10.819  22.093  13.615
35654W        W  815  15.375   0.332  11.643
35655W        W  816  36.678   6.667  11.173
35656W        W  817   7.979  25.723  10.541
35657W        W  818  37.452  37.048   2.554
35658W        W  819  30.140  40.590   4.115
35659W        W  820  26.616  30.748  10.730
35660W        W  821  37.514  12.448  10.759
35661W        W  822  29.531  16.803   1.153
35662W        W  823  38.478  10.871   3.379
35663W        W  824  33.807  42.698  14.293
35664W        W  825  18.049  25.102  14.741
35665W        W  826  13.337  44.041   4.404
35666W        W  827  36.440   4.099  12.850
35667W        W  828  31.409  17.531   4.633
35668W        W  829  42.805  29.198   0.439
35669W        W  830  39.557  20.991   2.644
35670W        W  831  44.889   9.081   0.475
35671W        W  832   2.053  14.332   4.407
35672W        W  833  26.963   8.848   3.111
35673W        W  834  33.492  21.705  12.576
35674W        W  835  13.323   5.481  14.757
35675W        W  836  31.588  38.874   2.894
35676W        W  837   0.968   3.216   3.174
35677W        W  838   6.079  38.436  14.576
35678W        W  839  19.299  18.698  14.462
35679W        W  840  29.933  26.554   0.768
35680W        W  841  37.009   2.855   4.925
35681W        W  842  15.850  13.678   3.188
35682W        W  843  34.005   0.002   1.835
35683W        W  844  12.802   4.923   0.865
35684W        W  845  28.650   9.925  10.546
35685W        W  846  31.586  27.248  13.847
35686W        W  847  25.593  10.606   2.258
35687W        W  848   8.357   9.147   4.254
35688W        W  849  19.177  43.373   1.302
35689W        W  850  22.756   0.990   0.827
35690W        W  851  11.412  29.009  12.011
35691W        W  852  17.322  34.463  12.420
35692W        W  853  41.257  36.679  10.575
35693W        W  854  10.796  25.772  12.539
35694W        W  855  10.163  31.083   5.053
35695W        W  856  26.597  41.441   4.084
35696W        W  857  36.932  19.291  13.303
35697W        W  858  32.145  28.940  10.681
35698W        W  859   3.810  30.909  14.818
35699W        W  860  14.619  17.536  11.978
35700W        W  861   7.135  11.894  13.798
35701W        W  862  10.788   9.179   4.219
35702W        W  863  24.048  44.892  11.178
35703W        W  864  32.796  36.370   4.515
35704W        W  865  44.693  18.007  13.666
35705W        W  866  26.709   1.405  12.921
35706W        W  867  18.780  33.294   0.996
35707W        W  868  44.555  31.113   0.172
35708W        W  869  11.180  29.530  11.921
35709W        W  870   5.813  32.450   4.018
35710W        W  871   5.411  19.501  10.911
35711W        W  872  27.398  25.118   2.295
35712W        W  873  39.834  13.007   4.021
35713W        W  874  30.615  17.887   3.725
35714W        W  875  24.957  24.726   1.386
35715W        W  876   4.937  35.965   3.123
35716W        W  877  27.172  18.293   3.238
35717W        W  878  40.837   2.947   3.181
35718W        W  879  39.703   6.696  11.828
35719W        W  880   7.316   5.979  10.748
35720W        W  881   5.998  37.772  14.810
35721W        W  882   6.984  24.648   0.890
35722W        W  883  35.595  11.193   4.688
35723W        W  884  13.873  17.167  11.496
35724W        W  885  40.235  20.809  11.601
35725W        W  886  21.255  27.224  13.308
35726W        W  887  30.481  17.615  13.566
35727W        W  888   8.788  42.996  14.776
35728W        W  889   7.249  38.843   1.740
35729W        W  890   0.198  37.232  11.241
35730W        W  891  30.488  15.763   2.058
35731W        W  892  31.634   5.246   3.352
35732W        W  893  23.730  24.971   3.737
35733W        W  894  41.880   9.401  13.102
35734W        W  895  25.178  26.127  12.630
35735W        W  896  41.304  10.181  12.939
35736W        W  897   1.336  43.156   1.224
35737W        W  898  37.656   8.216   0.638
35738W        W  899  32.606   9.121  12.506
35739W        W  900   8.717   2.750   1.661
35740W        W  901   5.818  18.509  10.578
35741W        W  902  20.464  28.724   0.783
35742W        W  903  16.637  11.772   2.517
35743W        W  904  25.930  42.696  14.924
35744W        W  905   4.917  36.153  12.025
35745W        W  906  42.568  40.364  11.968
35746W        W  907  17.021  41.121   0.640
35747W        W  908  38.313  41.505  10.564
35748W        W  909  27.996   0.320   2.888
35749W        W  910  39.958  31.439   1.431
35750W        W  911  18.478  34.787  14.920
35751W        W  912  35.585  31.840   3.910
35752W        W  913   1.943  41.086  11.765
35753W        W  914  30.091   7.666  14.452
35754W        W  915  31.060  20.231   1.336
35755W        W  916  38.068  18.635  13.431
35756W        W  917  12.019   3.745   3.701
35757W        W  918  44.087   5.174   0.344
35758W        W  919   1.536  38.533  13.009
35759W        W  920   5.429  17.033   2.334
35760W        W  921  38.586  31.628   2.715
35761W        W  922  38.829   7.454  12.485
35762W        W  923  28.085  31.137   0.842
35763W        W  924  19.265  17.027  11.577
35764W        W  925  12.359  40.131   1.677
35765W        W  926  22.050  29.898   1.665
35766W        W  927  30.466   5.561  11.221
35767W        W  928   6.466   3.438  11.945
35768W        W  929  13.287  26.882   0.990
35769W        W  930  37.962  29.394  14.341
35770W        W  931  42.896  18.429  11.370
35771W        W  932  30.092  27.614  11.678
35772W        W  933  13.099  34.477   1.785
35773W        W  934  43.987  24.726   3.784
35774W        W  935  23.277  26.795  10.771
35775W        W  936   2.928  32.950   0.709
35776W        W  937  41.838  38.179  10.783
35777W        W  938   1.486   6.010  12.802
35778W        W  939  22.629   7.357   3.630
35779W        W  940   5.239  24.547   2.338
35780W        W  941  14.141  27.724  14.282
35781W        W  942  18.963  35.923  13.909
35782W        W  943  27.558  28.017  13.833
35783W        W  944  36.088   9.904   4.173
35784W        W  945   2.892  10.206  10.091
35785W        W  946   1.921   1.477   4.524
35786W        W  947   9.825  41.782   0.238
35787W        W  948   9.829   2.527   0.274
35788W        W  949  34.322  43.370   3.200
35789W        W  950  31.547  25.685   0.812
35790W        W  951  37.065   4.209   4.639
35791W        W  952   6.951  15.068  12.980
35792W        W  953   7.475   9.831   4.708
35793W        W  954  14.182  26.444   3.363
35794W        W  955  31.947  20.962   0.599
35795W        W  956  18.068  32.033   1.822
35796W        W  957  17.532  36.587   3.833
35797W        W  958  36.445  14.419  12.027
35798W        W  959  22.304  20.259   2.341
35799W        W  960  31.978   5.680   1.169
35800W        W  961  35.322  38.573  14.509
35801W        W  962  31.664  19.214   2.574
35802W        W  963   8.175  12.312  14.324
35803W        W  964  44.689  43.354   4.090
35804W        W  965  33.370  16.146   2.748
35805W        W  966  34.292  30.537   1.636
35806W        W  967   2.127  20.844   3.224
35807W        W  968  13.113  34.127   2.288
35808W        W  969  38.867   6.730  11.464
35809W        W  970  17.017   6.344   1.358
35810W        W  971  17.499  17.726  14.348
35811W        W  972  15.260  41.560   0.398
35812W        W  973  39.609  36.679  12.560
35813W        W  974  12.901  19.677   0.754
35814W        W  975  34.645  10.740  11.962
35815W        W  976   6.710  34.164   0.489
35816W        W  977  19.581  14.817   0.137
35817W        W  978  26.424  23.585  13.966
35818W        W  979   5.396  32.926  10.972
35819W        W  980  33.222  13.285   1.086
35820W        W  981   6.394  24.228  12.935
35821W        W  982  11.559  27.188   2.276
35822W        W  983  14.194  29.734  13.563
35823W        W  984  17.833  12.913   4.061
35824W        W  985   0.718  23.510   0.987
35825W        W  986  33.253  30.596  12.355
35826W        W  987  43.509  30.436  13.412
35827W        W  988   6.237  37.961  13.386
35828W        W  989   1.912  43.578  11.156
35829W        W  990  25.986  24.513  12.469
35830W        W  991  15.528  33.093  10.306
35831W        W  992  32.907  44.348   0.378
35832W        W  993  30.969  37.933   1.464
35833W        W  994  12.922   1.394   0.353
35834W        W  995  13.788  26.993  14.821
35835W        W  996  31.151  38.502  13.372
35836W        W  997  24.209   1.611  12.487
35837W        W  998  29.948  22.141   1.475
35838W        W  999  26.588  40.635   3.123
35839W        W 1000  16.792  17.710   1.709
35840W        W 1001   5.119  30.014  12.873
35841W        W 1002  23.813  11.774   3.617
35842W        W 1003  11.065  19.748   2.311
35843W        W 1004  29.486  33.555  10.413
35844W        W 1005   2.103  44.493   0.268
35845W        W 1006  20.649  20.494  12.010
35846W        W 1007   6.605  25.675   1.410
35847W        W 1008  24.764   8.929  13.383
35848W        W 1009   4.816   8.326  14.443
35849W        W 1010  31.993  14.141   1.189
35850W        W 1011   3.721  29.606  13.535
35851W        W 1012  25.105   3.069   2.427
35852W        W 1013  24.049  37.049   4.336
35853W        W 1014  29.964   3.208  14.609
35854W        W 1015  30.852  33.629   2.421
35855W        W 1016  26.647  36.975  13.816
35856W        W 1017  21.667  19.244   2.436
35857W        W 1018  11.779  20.819   2.683
35858W        W 1019  31.516  24.782  11.985
35859W        W 1020  44.103  42.339   4.768
35860W        W 1021  30.893  16.346  13.950
35861W        W 1022  20.541  34.478   3.202
35862W        W 1023   7.492  29.048   2.667
35863W        W 1024  41.577  28.220  13.144
35864W        W 1025  10.343  11.449  11.625
35865W        W 1026   9.804   9.144  11.989
35866W        W 1027  24.472  20.148  12.925
35867W        W 1028  14.266   2.901   1.825
35868W        W 1029  43.877   5.882   2.403
35869W        W 1030  10.669  11.343   2.790
35870W        W 1031  37.753  18.867   2.173
35871W        W 1032  24.166  31.959  11.735
35872W        W 1033  40.844   0.273   2.804
35873W        W 1034  33.240  17.067  13.375
35874W        W 1035  44.701  35.430   3.207
35875W        W 1036  22.317  27.061   4.036
35876W        W 1037   6.875  14.183  12.976
35877W        W 1038  20.738  15.609  10.648
35878W        W 1039   1.878  19.793  13.098
35879W        W 1040  20.674  41.892  12.930
35880W        W 1041   8.936  10.880   4.022
35881W        W 1042  36.607  19.661  11.590
35882W        W 1043  33.716  10.526  14.705
35883W        W 1044  28.719  19.116   4.264
35884W        W 1045   3.247  10.343  12.731
35885W        W 1046  23.438  41.267  12.029
35886W        W 1047  44.159  36.984  12.127
35887W        W 1048  17.728  26.114   4.142
35888W        W 1049   8.946  31.612   0.437
35889W        W 1050   8.680  33.904  12.981
35890W        W 1051  40.547  38.679  10.423
35891W        W 1052  10.359   5.370   0.977
35892W        W 1053  40.774   0.316   1.934
35893W        W 1054   7.368   1.298   1.755
35894W        W 1055  25.674  37.687  11.124
35895W        W 1056   3.265  29.971  11.633
35896W        W 1057  12.888  21.788   4.189
35897W        W 1058   3.474  29.131  13.456
35898W        W 1059   6.692   6.435  12.940
35899W        W 1060  25.230  16.583  13.023
35900W        W 1061  20.044   6.845  11.626
35901W        W 1062  28.756   8.929   2.301
35902W        W 1063   9.121  30.971   4.691
35903W        W 1064  29.050  14.736  14.136
35904W        W 1065  32.050   9.773  12.074
35905W        W 1066   2.733  22.064  14.121
35906W        W 1067  14.064  44.346  10.706
35907W        W 1068  17.647  35.104   0.423
35908W        W 1069  44.832  41.966   1.810
35909W        W 1070   4.663  11.546  13.172
35910W        W 1071  26.799  21.472  13.047
35911W        W 1072  15.886  38.649   5.514
35912W        W 1073  38.606  27.572   4.947
35913W        W 1074  10.390  15.144   0.362
35914W        W 1075  19.994   3.995   4.773
35915W        W 1076  23.570  10.073   1.434
35916W        W 1077  29.631  19.072   3.527
35917W        W 1078  26.003   1.407  14.958
35918W        W 1079  22.640  33.537   3.371
35919W        W 1080  15.213  29.930  10.686
35920W        W 1081  41.284  38.360   4.390
35921W        W 1082   8.798  40.944  11.291
35922W        W 1083  18.165   6.797   4.855
35923W        W 1084  44.038   7.028  10.978
35924W        W 1085  42.354  31.144   1.403
35925W        W 1086  29.703  33.302  12.519
35926W        W 1087  38.819  44.497   3.203
35927W        W 1088  23.460  42.836   3.652
35928W        W 1089  26.992  25.941  11.621
35929W        W 1090   2.011  41.083   1.622
35930W        W 1091   1.119  42.535  14.900
35931W        W 1092  36.415  38.766   1.461
35932W        W 1093   3.809   0.284  10.817
35933W        W 1094  30.740   1.422  12.593
35934W        W 1095   3.322  13.073   3.080
35935W        W 1096  40.536  43.078   5.209
35936W        W 1097  31.137  17.248   4.990
35937W        W 1098  30.918   2.591   4.154
35938W        W 1099  17.813  40.500   2.786
35939W        W 1100  33.350   8.639   1.819
35940W        W 1101  27.556  41.594   3.645
35941W        W 1102  23.018  21.134   0.979
35942W        W 1103  29.401  10.512   4.108
35943W        W 1104  26.286  37.130   2.160
35944W        W 1105  35.646  22.265   3.019
35945W        W 1106  44.527  38.672  11.650
35946W        W 1107   6.871   6.357  11.305
35947W        W 1108  37.449  33.894  14.130
35948W        W 1109  31.752  15.018  14.541
35949W        W 1110  20.938  29.016  14.772
35950W        W 1111  14.188   8.733   1.718
35951W        W 1112  26.618   9.630   1.935
35952W        W 1113   1.314  41.747  11.292
35953W        W 1114  13.462  16.126  11.137
35954W        W 1115  24.952   6.467   0.934
35955W        W 1116  35.757  21.301   3.443
35956W        W 1117  42.155   7.012  12.366
35957W        W 1118  20.738  34.176   0.296
35958W        W 1119  22.610  11.690  14.557
35959W        W 1120  29.910  20.717  12.414
35960W        W 1121  19.215   7.904   4.122
35961W        W 1122  13.661  38.758  11.048
35962W        W 1123  37.279  22.615   4.646
35963W        W 1124  30.622  28.649  14.486
35964W        W 1125  28.947  36.037  12.985
35965W        W 1126  18.942  12.874  14.526
35966W        W 1127  32.946  36.274  14.471
35967W        W 1128  10.254  38.049  13.408
35968W        W 1129   3.775  40.094  14.881
35969W        W 1130  29.517  42.046   1.418
35970W        W 1131  35.465  19.294  10.699
35971W        W 1132   9.801  16.800   2.332
35972W        W 1133  10.614  28.185  12.586
35973W        W 1134  34.011  41.625   3.681
35974W        W 1135  28.419  13.205   4.613
35975W        W 1136  20.481  20.212   1.207
35976W        W 1137  19.070  15.458   4.573
35977W        W 1138   2.088  14.158  11.984
35978W        W 1139  24.419  25.617   2.383
35979W        W 1140  32.039  20.577  12.910
35980W        W 1141  41.118   0.897  12.499
35981W        W 1142  36.830  20.959  12.994
35982W        W 1143  39.878   6.448   1.982
35983W        W 1144  33.980  35.439  10.853
35984W        W 1145  44.223   0.725   3.938
35985W        W 1146  42.300   2.309  13.415
35986W        W 1147  19.531  30.148  11.501
35987W        W 1148  14.550  37.143  11.196
35988W        W 1149   9.870  44.825   2.313
35989W        W 1150  32.617   3.726   4.212
35990W        W 1151  21.770  30.537   4.172
35991W        W 1152  40.897  42.892   1.823
35992W        W 1153  40.938  19.106  13.914
35993W        W 1154   7.186  41.503   2.170
35994W        W 1155  40.755  41.833  12.113
35995W        W 1156  30.345  33.462  14.758
35996W        W 1157  41.953  15.710   1.701
35997W        W 1158  22.111  10.696   3.104
35998W        W 1159  25.749   3.382  12.092
35999W        W 1160   9.118  39.370  11.063
36000W        W 1161  13.768  25.942  11.167
36001W        W 1162   9.320  11.113  11.559
36002W        W 1163   8.398  24.223   4.365
36003W        W 1164  11.198   8.295   3.235
36004W        W 1165  41.366  13.309   2.671
36005W        W 1166  29.640  42.302   4.827
36006W        W 1167   7.798  26.593   0.235
36007W        W 1168  25.182   0.293  13.586
36008W        W 1169  10.367  44.629  14.375
36009W        W 1170  34.447  30.376  13.007
36010W        W 1171   9.146  35.407   1.910
36011W        W 1172  39.006  30.508  11.043
36012W        W 1173  10.468  29.956   0.259
36013W        W 1174  35.341  35.481   0.824
36014W        W 1175  34.214  13.421  11.574
36015W        W 1176   2.370  34.116   2.317
36016W        W 1177  35.409  41.504   1.966
36017W        W 1178  27.434  37.865  12.244
36018W        W 1179  21.694  39.104  10.241
36019W        W 1180  24.544  32.887  12.643
36020W        W 1181  10.775  19.595   3.934
36021W        W 1182  26.095  29.048   4.764
36022W        W 1183  31.900  12.439  10.673
36023W        W 1184  39.863  14.515  13.770
36024W        W 1185  24.355  19.683  12.502
36025W        W 1186  20.775  23.576   1.764
36026W        W 1187   8.210  28.338   3.604
36027W        W 1188  31.116  29.084   3.383
36028W        W 1189  22.824  36.814  13.481
36029W        W 1190  18.287  39.863   2.200
36030W        W 1191  36.094  16.067   3.815
36031W        W 1192  33.630  32.727  10.653
36032W        W 1193  38.520  44.849  14.410
36033W        W 1194  32.902  16.574   4.717
36034W        W 1195  41.262  39.600  13.394
36035W        W 1196  43.103  42.980  14.411
36036W        W 1197  29.451   2.515   1.311
36037W        W 1198  39.790   9.625   2.216
36038W        W 1199   5.803  43.258  10.542
36039W        W 1200   0.516  28.131   2.266
36040W        W 1201  44.351  42.114   4.369
36041W        W 1202   8.551   1.682   4.072
36042W        W 1203  30.755  25.150  12.628
36043W        W 1204  36.513  28.042   2.467
36044W        W 1205  44.581  41.466   2.843
36045W        W 1206   9.161  31.405  11.649
36046W        W 1207  35.242  22.582   2.740
36047W        W 1208  29.181  40.855   4.736
36048W        W 1209  22.727  37.597   2.285
36049W        W 1210   5.400  42.516   1.626
36050W        W 1211  17.306   9.424   0.686
36051W        W 1212  29.174  21.633  11.556
36052W        W 1213  23.695  34.272  12.884
36053W        W 1214  25.030  31.927   1.550
36054W        W 1215  21.883   1.935   4.311
36055W        W 1216  19.281   8.386   1.908
36056W        W 1217  27.961  35.341   2.284
36057W        W 1218  34.619  42.327  11.534
36058W        W 1219  34.104  40.378  14.362
36059W        W 1220  28.911   0.086  12.456
36060W        W 1221  26.196  27.681   3.210
36061W        W 1222  13.812   2.785  13.570
36062W        W 1223  40.631  38.379   3.733
36063W        W 1224   3.463  10.807   3.060
36064W        W 1225  40.643  12.155  11.103
36065W        W 1226  13.029   1.417  12.093
36066W        W 1227   6.473  23.766   2.319
36067W        W 1228   6.643   6.742   2.301
36068W        W 1229  30.146  22.929  12.150
36069W        W 1230  26.563  16.256   2.458
36070W        W 1231  31.457  11.639  14.006
36071W        W 1232  38.644  42.019  11.122
36072W        W 1233  19.779   1.140  12.457
36073W        W 1234  26.496  30.897  13.552
36074W        W 1235  37.328  20.821  13.012
36075W        W 1236  21.114   0.958  13.084
36076W        W 1237  41.586  26.823   4.249
36077W        W 1238   9.873  16.655   0.615
36078W        W 1239  10.424  34.173   0.333
36079W        W 1240  44.339   3.848  12.088
36080W        W 1241  31.173   5.376   1.287
36081W        W 1242   0.828  25.484  11.988
36082W        W 1243  44.470   1.898   2.721
36083W        W 1244  15.973  42.468   2.846
36084W        W 1245  17.652   8.332  10.729
36085W        W 1246  25.342  29.035  13.776
36086W        W 1247  14.024  12.287   3.079
36087W        W 1248  35.895  35.052  14.756
36088W        W 1249  17.225  32.661  12.355
36089W        W 1250  19.556  34.000   0.808
36090W        W 1251   1.195  41.412   1.911
36091W        W 1252  33.878  40.016   2.788
36092W        W 1253   6.983  24.897   1.750
36093W        W 1254  17.279  23.012  12.448
36094W        W 1255  10.514  41.455   3.826
36095W        W 1256  36.471  28.910  11.505
36096W        W 1257  24.278   2.757   3.351
36097W        W 1258  15.639  33.935   2.423
36098W        W 1259   2.080   8.769  14.394
36099W        W 1260  16.120  16.248  13.459
36100W        W 1261  42.197  12.300   3.018
36101W        W 1262  38.305  38.058   3.401
36102W        W 1263   1.503  40.385   1.752
36103W        W 1264  19.493  28.105   1.405
36104W        W 1265  28.028  36.122  14.420
36105W        W 1266  13.971  28.660   4.590
36106W        W 1267   1.300  39.389   3.866
36107W        W 1268  40.637  35.902  10.564
36108W        W 1269  32.277  39.021   2.989
36109W        W 1270   9.609   5.920   0.315
36110W        W 1271  34.854  33.941   1.871
36111W        W 1272   5.488   2.922   2.679
36112W        W 1273  31.972  16.918  12.859
36113W        W 1274  14.799  28.937   0.707
36114W        W 1275  18.289   6.477  10.976
36115W        W 1276  29.571  40.682  10.282
36116W        W 1277   9.887   9.410  11.568
36117W        W 1278  32.928  10.686   1.403
36118W        W 1279  41.133  12.507  14.020
36119W        W 1280   2.899   3.873   1.647
36120W        W 1281  15.591  15.200  12.592
36121W        W 1282  23.076   3.799   2.916
36122W        W 1283  16.111   5.182  13.584
36123W        W 1284  36.565   7.345  12.929
36124W        W 1285  28.626  18.955   1.923
36125W        W 1286  21.609  29.561   1.855
36126W        W 1287   4.493  18.481   2.749
36127W        W 1288  23.143  20.109   0.206
36128W        W 1289   8.640  41.281   4.606
36129W        W 1290  36.480  20.580   2.113
36130W        W 1291  21.922  21.181   2.247
36131W        W 1292   1.167  29.885  11.599
36132W        W 1293  37.361   4.347   2.275
36133W        W 1294  10.180  38.383  14.834
36134W        W 1295  16.161  12.747   2.366
36135W        W 1296  17.629  30.599   1.847
36136W        W 1297  26.510  40.466   3.591
36137W        W 1298   4.405  29.236  12.268
36138W        W 1299  39.156   5.417   3.729
36139W        W 1300  24.607  10.395  11.601
36140W        W 1301   0.632  16.115  11.549
36141W        W 1302  29.111   4.875  10.748
36142W        W 1303  23.943  24.797   9.954
36143W        W 1304  40.753  18.672   0.751
36144W        W 1305  15.225  12.782  11.331
36145W        W 1306  10.326  20.492   1.261
36146W        W 1307   3.916  29.509   2.833
36147W        W 1308  44.367  40.948   0.261
36148W        W 1309   2.709  36.823  13.511
36149W        W 1310   0.920  15.086   0.008
36150W        W 1311  38.881  29.912   0.329
36151W        W 1312  18.519  34.417  11.271
36152W        W 1313  22.982   5.116  11.837
36153W        W 1314  22.333  13.765  11.341
36154W        W 1315  26.696  38.613   0.456
36155W        W 1316  35.831   8.917   3.812
36156W        W 1317   0.201  41.005   3.221
36157W        W 1318  43.460  12.213  10.933
36158W        W 1319  43.365  14.556   3.437
36159W        W 1320  41.318   4.527   3.662
36160W        W 1321   5.014   1.630  14.309
36161W        W 1322  32.968  44.734  12.489
36162W        W 1323  11.730  19.830  10.576
36163W        W 1324  13.683  24.237   0.294
36164W        W 1325  35.569  27.162  11.704
36165W        W 1326  10.300  31.146  11.039
36166W        W 1327   3.916  18.430  14.707
36167W        W 1328   6.295  21.426  12.573
36168W        W 1329  18.060  20.018  12.146
36169W        W 1330  28.065  35.769   0.270
36170W        W 1331  43.421   6.285   1.291
36171W        W 1332  39.962   4.529  12.497
36172W        W 1333  24.415  27.000   1.354
36173W        W 1334  27.400   9.556   2.465
36174W        W 1335   3.444  14.063   1.291
36175W        W 1336  32.608  18.789   1.503
36176W        W 1337  10.876  12.572   1.798
36177W        W 1338   9.404  38.903  11.076
36178W        W 1339   6.776  44.004  13.852
36179W        W 1340   7.861  19.087   0.016
36180W        W 1341  25.123  43.804  14.903
36181W        W 1342  21.236   3.354   3.424
36182W        W 1343  31.175  35.878   1.407
36183W        W 1344  14.025  28.983  10.778
36184W        W 1345  33.395   1.706  14.379
36185W        W 1346  12.425   9.379  11.168
36186W        W 1347  14.065  19.662   3.743
36187W        W 1348  29.022  42.549   2.118
36188W        W 1349  23.760   1.471   4.728
36189W        W 1350  40.864   5.529  11.098
36190W        W 1351   1.154   6.821   0.434
36191W        W 1352  34.170  44.943   4.554
36192W        W 1353  24.886  24.924   0.493
36193W        W 1354  28.407  15.218   3.293
36194W        W 1355  16.640  41.711   4.151
36195W        W 1356   3.195  40.667   1.380
36196W        W 1357  32.508  18.294   4.853
36197W        W 1358  34.773  30.055  12.086
36198W        W 1359  35.212  39.401  12.838
36199W        W 1360   2.866  44.938   4.919
36200W        W 1361  21.611  44.073  12.049
36201W        W 1362  13.879  24.980   2.274
36202W        W 1363  10.018  26.042   1.605
36203W        W 1364  38.895  28.167   1.581
36204W        W 1365   7.590  40.056   1.752
36205W        W 1366   3.428  27.348   3.538
36206W        W 1367  16.144  24.600   2.258
36207W        W 1368  12.698  19.821  10.629
36208W        W 1369  30.974  23.184   3.739
36209W        W 1370  37.767  40.410  14.291
36210W        W 1371  16.307  15.919   3.907
36211W        W 1372  39.905   5.853  13.270
36212W        W 1373  25.069  21.544   2.658
36213W        W 1374   4.953  32.760   1.449
36214W        W 1375  33.198  25.045   0.256
36215W        W 1376   4.769  37.862   0.900
36216W        W 1377   0.264  31.135   4.600
36217W        W 1378   7.754   1.766  13.066
36218W        W 1379  23.642  29.498   2.166
36219W        W 1380   1.188  29.245  11.005
36220W        W 1381  15.302  35.913   0.415
36221W        W 1382  42.218  15.718   1.258
36222W        W 1383  33.669  36.971   0.408
36223W        W 1384  28.404  43.555  13.253
36224W        W 1385  21.682  35.018   4.585
36225W        W 1386   3.682  39.958  12.176
36226W        W 1387  32.442  43.191   4.546
36227W        W 1388  26.524   0.225  11.501
36228W        W 1389  28.156  19.115   2.712
36229W        W 1390   1.477  26.738   4.509
36230W        W 1391  33.039   9.122  12.246
36231W        W 1392  44.604  12.112  14.105
36232W        W 1393   3.958  13.292   5.406
36233W        W 1394  43.130  19.636   3.580
36234W        W 1395  28.599  40.079   4.123
36235W        W 1396  38.492  10.903  12.911
36236W        W 1397  24.694  21.220  13.955
36237W        W 1398  10.346  22.130   9.805
36238W        W 1399  33.445  35.552  10.086
36239W        W 1400  12.904  19.149   0.818
36240W        W 1401  38.356   6.405   4.434
36241W        W 1402  28.972  40.143   5.532
36242W        W 1403  11.920   5.553  12.046
36243W        W 1404  20.329  29.480  11.604
36244W        W 1405  18.994  39.295   2.129
36245W        W 1406  12.747  20.442   2.804
36246W        W 1407  35.850  22.498  14.837
36247W        W 1408   0.135  20.839  12.971
36248W        W 1409  18.740  23.644   4.497
36249W        W 1410  14.402  40.332   0.361
36250W        W 1411   2.313  15.871  10.155
36251W        W 1412  24.189  39.915  12.133
36252W        W 1413  41.646   6.286   2.890
36253W        W 1414  38.612  36.380   2.540
36254W        W 1415   8.681  33.513   1.637
36255W        W 1416  28.496  29.515  14.318
36256W        W 1417  40.926  21.219  12.513
36257W        W 1418  12.390  33.802   0.148
36258W        W 1419  44.428  24.598  13.761
36259W        W 1420   5.122  13.315   4.664
36260W        W 1421  41.755  37.425   1.907
36261W        W 1422  23.582  11.687   3.137
36262W        W 1423  12.263  30.709  12.552
36263W        W 1424  40.279  12.154  12.036
36264W        W 1425  26.018  12.544   3.247
36265W        W 1426  17.352  17.651  13.809
36266W        W 1427  34.008  29.700  14.437
36267W        W 1428  42.723  15.821   1.251
36268W        W 1429   1.684  16.240  12.861
36269W        W 1430  11.743   5.647   1.337
36270W        W 1431  31.010  42.666  14.347
36271W        W 1432  39.984  10.132   3.071
36272W        W 1433  14.768  37.378  10.759
36273W        W 1434  20.884   5.276  13.219
36274W        W 1435   9.511  27.967   3.333
36275W        W 1436  43.394   8.911  12.061
36276W        W 1437  30.904  17.158  13.310
36277W        W 1438  36.360  18.767   3.709
36278W        W 1439   1.403  13.701  14.408
36279W        W 1440  36.311   2.769  12.504
36280W        W 1441   6.181  42.024   1.276
36281W        W 1442  29.596  26.447  12.029
36282W        W 1443  39.963  23.561   0.995
36283W        W 1444  15.980   4.193  12.262
36284W        W 1445  42.986  24.371   4.254
36285W        W 1446  25.415  17.719   0.934
36286W        W 1447  25.238  24.475  11.913
36287W        W 1448  32.585   6.712   2.200
36288W        W 1449  15.017  30.032  12.376
36289W        W 1450  18.441  16.606  11.803
36290W        W 1451  32.698  30.061   0.342
36291W        W 1452   8.305  22.832   4.079
36292W        W 1453  32.155  37.438   1.455
36293W        W 1454  37.614  12.840  14.470
36294W        W 1455  11.188  11.553   2.052
36295W        W 1456  20.847  32.106   3.236
36296W        W 1457   3.489   9.945   4.269
36297W        W 1458  10.751  24.015   0.882
36298W        W 1459  24.213  16.743   1.495
36299W        W 1460   2.677  35.901   3.886
36300W        W 1461  13.157  31.364  12.439
36301W        W 1462  25.268   5.665  12.125
36302W        W 1463  34.545   8.144   0.833
36303W        W 1464  42.255  24.442   3.816
36304W        W 1465   3.975  19.195  12.012
36305W        W 1466  42.247  27.652  13.024
36306W        W 1467   8.829  35.852   1.828
36307W        W 1468   4.116  37.005  11.624
36308W        W 1469   8.006   2.039  11.533
36309W        W 1470  26.490  35.067  12.038
36310W        W 1471  15.784  32.412   4.162
36311W        W 1472  23.074  36.035   1.605
36312W        W 1473  37.044  28.489   3.779
36313W        W 1474   6.296  38.813   3.934
36314W        W 1475  40.245  40.264  11.762
36315W        W 1476  32.685  13.106   2.363
36316W        W 1477  40.006  38.854   0.628
36317W        W 1478  27.818  19.365   4.068
36318W        W 1479  12.917  30.408  11.256
36319W        W 1480  32.674  29.624   2.910
36320W        W 1481  37.803  27.490   0.360
36321W        W 1482  25.004   2.526  13.508
36322W        W 1483  44.758  21.595  12.986
36323W        W 1484   7.523  44.371   3.977
36324W        W 1485  37.319  15.800  11.579
36325W        W 1486   1.015   8.921   4.170
36326W        W 1487   5.194   5.709  11.189
36327W        W 1488  30.018  32.681   4.373
36328W        W 1489  26.049  36.866  14.245
36329W        W 1490  42.784  37.804  12.158
36330W        W 1491  19.213   6.765  12.891
36331W        W 1492   6.073  10.870   2.380
36332W        W 1493   8.903  13.519  14.926
36333W        W 1494   9.648   6.931   2.319
36334W        W 1495  32.024   4.032  11.913
36335W        W 1496   9.668  13.619   1.264
36336W        W 1497  16.317  24.712   4.146
36337W        W 1498  27.673  23.482  13.393
36338W        W 1499  39.014   1.108   2.070
36339W        W 1500  20.535  24.975  13.443
36340W        W 1501  40.147  41.228  13.640
36341W        W 1502  31.111   3.134   2.126
36342W        W 1503  31.879  38.648  10.462
36343W        W 1504  21.494  27.075   1.005
36344W        W 1505  38.587   4.263   2.430
36345W        W 1506  13.632   4.468  13.770
36346W        W 1507  31.543  31.763   1.451
36347W        W 1508  19.979   3.982   1.295
36348W        W 1509  43.493  25.922   1.389
36349W        W 1510   9.096  44.388   3.241
36350W        W 1511   1.912  23.234   4.271
36351W        W 1512  43.224  25.475   2.304
36352W        W 1513  30.090  35.095   4.869
36353W        W 1514  44.399   2.806  11.989
36354W        W 1515   4.707  41.478   4.160
36355W        W 1516  38.281  44.684  14.837
36356W        W 1517  29.084  15.436   4.834
36357W        W 1518  26.392  38.836   1.210
36358W        W 1519  11.185   4.233  14.350
36359W        W 1520  38.283  16.302  13.983
36360W        W 1521  37.441  41.236   1.178
36361W        W 1522   9.505  15.002   3.834
36362W        W 1523   4.674  25.803   2.532
36363W        W 1524  20.961  26.299   4.203
36364W        W 1525  17.149  13.440  11.178
36365W        W 1526   9.856  29.261   0.171
36366W        W 1527  17.846  20.850   4.112
36367W        W 1528   2.505  42.817  13.330
36368W        W 1529   7.751  24.534   1.375
36369W        W 1530   8.432  12.079  14.711
36370W        W 1531   8.055   4.106  11.050
36371W        W 1532  29.910  21.976  11.157
36372W        W 1533  29.579  31.226   1.348
36373W        W 1534  25.198  30.645  10.256
36374W        W 1535  31.601   6.398   2.315
36375W        W 1536  30.554  35.881  14.097
36376W        W 1537   1.676  38.870   0.018
36377W        W 1538  13.245  40.026  13.801
36378W        W 1539  29.859   7.261  11.659
36379W        W 1540  35.981   6.496  11.694
36380W        W 1541  32.000  38.983  10.866
36381W        W 1542  44.477  26.879   1.917
36382W        W 1543   2.449   6.081   1.923
36383W        W 1544  41.712  19.138   0.983
36384W        W 1545  38.061   6.959  11.960
36385W        W 1546  31.857  27.450   1.877
36386W        W 1547  12.513   2.420   4.687
36387W        W 1548  19.637  12.311  14.961
36388W        W 1549  25.627   6.669   2.770
36389W        W 1550   9.779  22.486   4.131
36390W        W 1551  23.872  18.449   0.414
36391W        W 1552  39.941   1.019   0.406
36392W        W 1553  23.031  39.295  10.319
36393W        W 1554  26.658  22.326  13.416
36394W        W 1555  40.266  34.178  11.025
36395W        W 1556   3.899  31.169   2.491
36396W        W 1557  11.172  41.054   2.213
36397W        W 1558  11.845  26.300  10.303
36398W        W 1559  11.740  10.215   2.733
36399W        W 1560   8.916  18.967  12.542
36400W        W 1561  37.395  11.074   1.387
36401W        W 1562  19.457  16.166   1.789
36402W        W 1563  40.631  27.706   3.200
36403W        W 1564  26.438   1.808  13.452
36404W        W 1565  12.828  27.586   0.748
36405W        W 1566  16.560  22.115   4.064
36406W        W 1567  29.072  26.768   4.851
36407W        W 1568  41.916   3.998  11.349
36408W        W 1569  28.159  32.371  11.215
36409W        W 1570  11.702   9.402  14.756
36410W        W 1571  12.233  22.308  13.455
36411W        W 1572  23.221  21.195   2.688
36412W        W 1573  11.181   4.883  10.029
36413W        W 1574  21.846  42.764   0.236
36414W        W 1575  15.736   1.076   4.212
36415W        W 1576  32.590  38.594   2.217
36416W        W 1577   1.421  38.500   3.524
36417W        W 1578  27.505  32.886   1.740
36418W        W 1579  37.763  37.903  13.588
36419W        W 1580  13.680   1.519   0.804
36420W        W 1581  29.323  12.117  12.457
36421W        W 1582   7.053  10.136   0.164
36422W        W 1583  35.627   7.678  14.870
36423W        W 1584  16.570   5.692  10.606
36424W        W 1585  34.406  24.536   0.406
36425W        W 1586  22.896  35.422   0.105
36426W        W 1587   3.905  26.212  12.649
36427W        W 1588  35.728  14.738   4.694
36428W        W 1589  25.558  44.467   1.247
36429W        W 1590  39.999  40.013   2.910
36430W        W 1591  37.194  18.176   4.958
36431W        W 1592  35.081  25.249   3.746
36432W        W 1593   5.803  25.449   4.234
36433W        W 1594  43.735  12.890   3.441
36434W        W 1595  31.463   1.515   1.863
36435W        W 1596  23.244  42.803  14.323
36436W        W 1597  39.886  30.281  14.760
36437W        W 1598  27.100  32.631  14.649
36438W        W 1599  39.005   7.053  14.606
36439W        W 1600   0.260  39.597  14.285
36440W        W 1601  24.682  23.197   3.210
36441W        W 1602   7.171   1.126   4.978
36442W        W 1603  32.934   2.750   4.446
36443W        W 1604   7.921  10.827   0.937
36444W        W 1605  17.339   1.158  11.900
36445W        W 1606  18.684  18.527  12.024
36446W        W 1607  17.172  43.369   1.916
36447W        W 1608  15.831  26.444   3.987
36448W        W 1609  35.585  23.120   3.937
36449W        W 1610  18.865  34.381   4.562
36450W        W 1611  35.830  18.298  13.992
36451W        W 1612  44.422  12.781  12.371
36452W        W 1613  37.896  41.113  11.324
36453W        W 1614   2.632   6.879  10.795
36454W        W 1615  31.949  19.799   0.726
36455W        W 1616   0.576  10.778   0.426
36456W        W 1617  32.181   5.939   4.814
36457W        W 1618  13.212  39.716   0.309
36458W        W 1619  30.146  29.385  13.496
36459W        W 1620  39.345  21.843  14.772
36460W        W 1621  21.911   3.296  13.946
36461W        W 1622  20.593   3.465   0.308
36462W        W 1623  18.216   6.926   3.715
36463W        W 1624  20.788  27.910   3.781
36464W        W 1625  40.998  31.694   0.859
36465W        W 1626   5.989  24.122  12.646
36466W        W 1627   2.264  36.466  12.722
36467W        W 1628  26.040  10.034   4.044
36468W        W 1629   7.583  22.444   2.252
36469W        W 1630  13.774  21.177  14.710
36470W        W 1631  13.858  37.486  12.637
36471W        W 1632  19.660  19.562   2.847
36472W        W 1633  28.043   7.219  10.351
36473W        W 1634  41.259   8.727  14.753
36474W        W 1635   2.260  42.479   0.634
36475W        W 1636   9.959  13.389  13.075
36476W        W 1637  26.535   7.385   0.200
36477W        W 1638  39.372  43.187  13.061
36478W        W 1639  15.804  27.998   5.122
36479W        W 1640   6.496   5.209   0.742
36480W        W 1641  28.072  15.163   0.349
36481W        W 1642  15.392  43.786   0.743
36482W        W 1643  22.205  22.713  14.199
36483W        W 1644  43.885   7.691   3.831
36484W        W 1645  14.709  20.762  13.920
36485W        W 1646  29.279  20.066  13.505
36486W        W 1647   0.952  29.470  12.924
36487W        W 1648  35.561  33.479  14.890
36488W        W 1649  13.018   4.883  13.179
36489W        W 1650  42.920   0.914   1.797
36490W        W 1651   1.923  32.971   4.729
36491W        W 1652  37.527  21.672   3.224
36492W        W 1653  27.325  43.826   1.287
36493W        W 1654  32.234  34.428  13.150
36494W        W 1655  12.587   2.541  14.398
36495W        W 1656  22.155   1.786  10.911
36496W        W 1657  44.430  27.168  13.855
36497W        W 1658  20.367  14.961  12.193
36498W        W 1659  33.432  20.261   3.661
36499W        W 1660  42.639   6.117   4.951
36500W        W 1661  25.995  10.545  11.820
36501W        W 1662  35.911   2.935  10.724
36502W        W 1663  20.514  10.141   0.467
36503W        W 1664   3.656  27.708   0.806
36504W        W 1665  24.782  44.348   1.841
36505W        W 1666  18.658  11.358   2.725
36506W        W 1667  12.184  21.643   2.953
36507W        W 1668   4.624  26.498  12.244
36508W        W 1669  12.143  14.239  10.598
36509W        W 1670  25.694   3.253   2.875
36510W        W 1671   0.665  44.539  11.169
36511W        W 1672  43.273   5.897   3.719
36512W        W 1673  40.376  39.225   4.943
36513W        W 1674  19.756  23.708   9.747
36514W        W 1675  39.247  17.410  14.750
36515W        W 1676  26.275  10.400   2.775
36516W        W 1677  19.268  41.228   2.705
36517W        W 1678  13.226  22.029  12.494
36518W        W 1679  17.400  43.451  11.431
36519W        W 1680  27.892  27.100   0.892
36520W        W 1681  44.240  20.164   3.855
36521W        W 1682  33.148  44.092  12.098
36522W        W 1683  29.926  28.104  11.780
36523W        W 1684   9.608   7.436  13.278
36524W        W 1685  24.714   3.188  12.062
36525W        W 1686   9.164  44.044  10.940
36526W        W 1687   7.181   0.833   3.094
36527W        W 1688  28.948  27.719  14.481
36528W        W 1689  20.319  37.135  11.940
36529W        W 1690  31.537  12.859   4.616
36530W        W 1691  44.891  13.573  12.559
36531W        W 1692  13.891  38.965  14.520
36532W        W 1693   2.684  31.623   2.312
36533W        W 1694  43.042  26.980  11.627
36534W        W 1695  27.208   3.104  13.833
36535W        W 1696  21.746  22.725  13.404
36536W        W 1697  33.396   0.684  11.211
36537W        W 1698  38.559  10.195  14.892
36538W        W 1699  37.259  21.413   4.587
36539W        W 1700   4.068   9.955  11.687
36540W        W 1701   4.175  23.349  12.993
36541W        W 1702  18.084  14.872  11.171
36542W        W 1703  42.080  25.931   0.672
36543W        W 1704  30.420  29.678   4.014
36544W        W 1705  11.135   8.434  14.435
36545W        W 1706  20.309  19.293  11.890
36546W        W 1707  14.137  20.156   3.669
36547W        W 1708  22.286  11.717   5.398
36548W        W 1709  37.074  33.129  10.631
36549W        W 1710  43.313  10.366   2.285
36550W        W 1711  20.509  24.741  12.128
36551W        W 1712  13.093  24.662  12.308
36552W        W 1713  19.513   1.519  13.441
36553W        W 1714  19.444   9.164   4.526
36554W        W 1715  17.482  11.670   2.339
36555W        W 1716   6.285  31.021  13.858
36556W        W 1717  11.077  17.828  12.366
36557W        W 1718  41.119  35.060  10.565
36558W        W 1719  13.422  21.353  13.316
36559W        W 1720  24.976   4.926   3.718
36560W        W 1721  38.375  39.681  11.125
36561W        W 1722   8.629  25.985  13.984
36562W        W 1723  31.548  33.569  12.966
36563W        W 1724  17.566  12.878  11.506
36564W        W 1725   8.831  16.665  12.107
36565W        W 1726  22.213  12.802   1.073
36566W        W 1727   5.951   1.809   0.286
36567W        W 1728  26.517  23.006  10.692
36568W        W 1729  37.667   8.303  11.440
36569W        W 1730   1.877  25.980   4.740
36570W        W 1731  21.612  40.448   1.908
36571W        W 1732   4.030   9.715  12.571
36572W        W 1733  44.824  41.000   2.848
36573W        W 1734   9.391  43.862   4.183
36574W        W 1735  22.622   9.122  13.371
36575W        W 1736  12.890   3.974   0.740
36576W        W 1737   8.262   3.173   0.455
36577W        W 1738  37.483  24.644  10.762
36578W        W 1739   3.511  22.573   1.335
36579W        W 1740  20.980  23.118   1.576
36580W        W 1741  19.863  28.058   0.964
36581W        W 1742   5.439  13.858  14.777
36582W        W 1743  33.371  25.075  13.850
36583W        W 1744  16.208  40.514  13.535
36584W        W 1745  11.277  42.475   3.352
36585W        W 1746   4.013  10.640  10.269
36586W        W 1747  43.595  26.130   0.043
36587W        W 1748  22.976   3.073   4.588
36588W        W 1749  26.753  41.968   0.430
36589W        W 1750   5.505  21.306   4.332
36590W        W 1751  41.133  34.905   2.150
36591W        W 1752   5.400  14.065   1.013
36592W        W 1753   6.630   7.666  14.473
36593W        W 1754  10.434  31.562  13.022
36594W        W 1755  39.172   5.808   1.950
36595W        W 1756  21.823   2.283  14.330
36596W        W 1757  27.985  38.053  11.174
36597W        W 1758  13.844  20.636   0.012
36598W        W 1759  29.439  15.526  14.890
36599W        W 1760   0.051  28.240  14.314
36600W        W 1761   2.279   5.023  12.933
36601W        W 1762  40.249  22.640   0.847
36602W        W 1763  21.146   1.106   4.227
36603W        W 1764  39.303   2.543  14.023
36604W        W 1765  32.166  43.823  12.574
36605W        W 1766  25.576  38.653  10.797
36606W        W 1767  24.544   6.815  10.671
36607W        W 1768  35.921  12.610   1.520
36608W        W 1769  22.372  12.371  11.812
36609W        W 1770  41.755  40.078   4.870
36610W        W 1771  21.432  13.362  11.576
36611W        W 1772  35.101  33.281   4.089
36612W        W 1773   8.666  29.636   2.959
36613W        W 1774  10.196  43.327  14.813
36614W        W 1775  22.740  34.645  10.576
36615W        W 1776   4.196  15.798   3.004
36616W        W 1777   1.823  42.361   1.492
36617W        W 1778  25.726  11.906  12.006
36618W        W 1779  29.923  39.455  14.266
36619W        W 1780  14.264  33.318  11.092
36620W        W 1781  44.375   0.154  10.750
36621W        W 1782  20.106   6.572  14.197
36622W        W 1783  27.490  24.464   2.789
36623W        W 1784  20.461  32.434  11.441
36624W        W 1785  31.727  33.631  11.200
36625W        W 1786  40.973  42.265  11.146
36626W        W 1787  12.265   8.785  12.656
36627W        W 1788  18.811  17.003  11.810
36628W        W 1789  33.353   6.771  13.989
36629W        W 1790  14.702  20.810   3.654
36630W        W 1791  14.289   3.686   1.276
36631W        W 1792  12.793  37.051   2.748
36632W        W 1793  43.834  38.858   2.738
36633W        W 1794  42.268  30.768  14.047
36634W        W 1795  35.477  23.270   0.223
36635W        W 1796   7.257  43.507  10.756
36636W        W 1797  11.372  41.959   3.587
36637W        W 1798  15.025  44.989   3.863
36638W        W 1799  40.284  35.564   2.736
36639W        W 1800  20.488   5.358  10.734
36640W        W 1801   2.777  10.743   2.161
36641W        W 1802  31.389   9.170   0.901
36642W        W 1803   1.928   0.613   3.499
36643W        W 1804  27.432  43.771  13.488
36644W        W 1805  31.955  12.493  14.252
36645W        W 1806   7.351   0.390  13.159
36646W        W 1807  42.583  25.504   4.139
36647W        W 1808  29.107  36.107   2.862
36648W        W 1809  18.629  10.559   4.746
36649W        W 1810  33.374  37.382   2.533
36650W        W 1811  31.060  13.731  11.529
36651W        W 1812  14.274  24.667  12.458
36652W        W 1813  10.538  12.115   4.860
36653W        W 1814  11.925  27.667   3.253
36654W        W 1815  36.926  41.798  13.393
36655W        W 1816  12.966  23.140  11.206
36656W        W 1817  23.620  29.428   4.304
36657W        W 1818   5.734  33.510  12.399
36658W        W 1819   8.207  12.604  10.751
36659W        W 1820  32.180   4.993  10.962
36660W        W 1821  12.178  12.200   0.579
36661W        W 1822  16.889   5.594   3.639
36662W        W 1823  27.226  10.516  14.999
36663W        W 1824  34.613  23.044   3.126
36664W        W 1825  28.723   9.101   1.405
36665W        W 1826  21.303   6.823  12.083
36666W        W 1827   3.242   7.541  13.485
36667W        W 1828  21.512  32.909  13.087
36668W        W 1829   6.398  37.353   2.768
36669W        W 1830  26.198  43.281   2.302
36670W        W 1831  41.872  34.366   1.892
36671W        W 1832  31.513   6.994   3.841
36672W        W 1833  22.041  44.535  11.450
36673W        W 1834   8.091  32.654  13.147
36674W        W 1835  19.801  36.816  14.416
36675W        W 1836  10.664  28.149  10.745
36676W        W 1837   8.619   9.690  14.283
36677W        W 1838  41.880  26.979   1.737
36678W        W 1839  35.774  34.771  13.831
36679W        W 1840  20.050  17.956   2.591
36680W        W 1841  14.211  12.309   3.987
36681W        W 1842  42.122  10.246   2.535
36682W        W 1843  35.671  15.890  12.836
36683W        W 1844  37.108  34.247  14.038
36684W        W 1845  31.795  43.387   4.660
36685W        W 1846   8.518  13.702  14.013
36686W        W 1847   0.802   5.792  12.482
36687W        W 1848  37.696   3.361   2.867
36688W        W 1849   8.116  25.277   0.475
36689W        W 1850   2.219  28.566   3.299
36690W        W 1851  43.892  25.271   4.633
36691W        W 1852  14.897  20.661  13.445
36692W        W 1853  44.901   6.159  13.305
36693W        W 1854  44.318  44.687   1.042
36694W        W 1855  11.931   7.301   2.841
36695W        W 1856  29.950  28.624  14.820
36696W        W 1857  14.350   3.177  14.799
36697W        W 1858  33.639  42.361   0.170
36698W        W 1859  43.793  19.551  11.215
36699W        W 1860  14.566  29.093   3.877
36700W        W 1861  20.735  21.818   5.432
36701W        W 1862   8.326  30.619   4.614
36702W        W 1863  12.594  34.750  14.676
36703W        W 1864   6.990  40.758   0.954
36704W        W 1865  24.966  31.558  13.933
36705W        W 1866   5.443   7.992  10.790
36706W        W 1867  43.870  29.376   1.546
36707W        W 1868  32.393   8.965  13.847
36708W        W 1869  34.887   1.258  11.618
36709W        W 1870  44.474  22.638  13.080
36710W        W 1871  14.590  20.865  11.455
36711W        W 1872  23.661   2.373   1.310
36712W        W 1873  44.302   3.303   2.903
36713W        W 1874  43.832  41.080  11.078
36714W        W 1875   7.916   4.275  13.096
36715W        W 1876  41.206  32.799   0.006
36716W        W 1877   5.698  10.973  13.615
36717W        W 1878  41.228  10.329  10.659
36718W        W 1879   2.997  40.120   0.776
36719W        W 1880  31.070  27.480  12.429
36720W        W 1881  40.505  23.923  12.549
36721W        W 1882  10.217  40.090   4.083
36722W        W 1883  43.779  30.928   4.848
36723W        W 1884   4.236  42.289   4.559
36724W        W 1885  35.812   1.657   4.606
36725W        W 1886  19.688  24.967   2.246
36726W        W 1887  12.415  24.042  11.505
36727W        W 1888  37.083  11.240  14.912
36728W        W 1889  10.112   4.104   2.338
36729W        W 1890  35.997  35.653   1.442
36730W        W 1891   2.266   8.468   4.189
36731W        W 1892  42.753  42.856   0.878
36732W        W 1893  28.201   0.486  14.475
36733W        W 1894  41.775  20.591   1.755
36734W        W 1895  19.674   3.425  11.950
36735W        W 1896  20.885   0.385   0.365
36736W        W 1897  30.153  16.769  10.690
36737W        W 1898  11.579  27.248  10.094
36738W        W 1899   7.156  31.538  14.008
36739W        W 1900  31.103  33.578   0.967
36740W        W 1901   4.778  18.409   0.675
36741W        W 1902   0.905  20.553   4.648
36742W        W 1903   8.687   8.813  14.226
36743W        W 1904  24.916  24.187  11.100
36744W        W 1905  10.258  21.798   3.324
36745W        W 1906   8.146  14.362   3.778
36746W        W 1907  43.502   4.225   2.857
36747W        W 1908  42.008   0.045  12.920
36748W        W 1909  14.782  25.597   0.365
36749W        W 1910  17.107  31.306   2.693
36750W        W 1911  25.265  19.580   3.715
36751W        W 1912  17.769   4.730   1.719
36752W        W 1913  21.401  25.750  14.772
36753W        W 1914  26.665  24.362   3.730
36754W        W 1915   6.485  40.894   2.210
36755W        W 1916  11.760   5.321  10.564
36756W        W 1917  31.349  43.476  12.768
36757W        W 1918   0.892  41.097  13.945
36758W        W 1919   8.650  40.582  10.509
36759W        W 1920  18.085  12.465   4.027
36760W        W 1921  12.781   1.048  14.962
36761W        W 1922   7.525  12.781   1.417
36762W        W 1923  22.391   2.692   2.881
36763W        W 1924   8.316  22.782  11.553
36764W        W 1925  37.469  16.492   0.272
36765W        W 1926   3.115   7.227   4.523
36766W        W 1927  31.944  28.455   4.131
36767W        W 1928  11.155  20.630  11.578
36768W        W 1929  35.151  22.003   1.841
36769W        W 1930  24.165   0.417  14.453
36770W        W 1931  19.320   8.266   0.566
36771W        W 1932   3.339  19.531  12.906
36772W        W 1933  30.071  17.498   4.425
36773W        W 1934  36.637  36.861   1.217
36774W        W 1935  26.581   5.153   2.768
36775W        W 1936   2.760  28.451  14.834
36776W        W 1937  15.925  16.971   0.761
36777W        W 1938  24.740   2.446   0.505
36778W        W 1939  11.682  44.674  14.017
36779W        W 1940   7.273  34.498   3.105
36780W        W 1941  10.402  36.294  11.360
36781W        W 1942  13.085  35.952  11.907
36782W        W 1943  21.295  13.569   1.149
36783W        W 1944  41.855  21.154  10.327
36784W        W 1945  30.098  24.702  13.019
36785W        W 1946  19.915   1.066  11.860
36786W        W 1947  41.848   8.236  14.462
36787W        W 1948  23.447  25.722   2.327
36788W        W 1949   6.180  31.032  11.662
36789W        W 1950  43.418  18.742   0.706
36790W        W 1951  19.755   2.248   4.666
36791W        W 1952   0.945  31.172  13.522
36792W        W 1953   4.693  16.517   2.645
36793W        W 1954  40.423  17.271  11.048
36794W        W 1955  10.902  27.607  11.589
36795W        W 1956  43.818  31.902   3.135
36796W        W 1957   7.238   1.436  14.218
36797W        W 1958  38.360  40.471  12.921
36798W        W 1959  35.514   2.139  13.950
36799W        W 1960  38.101  44.079  11.477
36800W        W 1961  17.792  25.663  10.703
36801W        W 1962  27.826  33.709  14.282
36802W        W 1963  31.509   0.727   2.926
36803W        W 1964  21.217   8.573   4.702
36804W        W 1965  33.832  37.499   0.385
36805W        W 1966  10.364  36.549  10.912
36806W        W 1967   8.690  36.448  13.884
36807W        W 1968  10.945  10.636   2.184
36808W        W 1969   8.859  36.863   2.685
36809W        W 1970  18.754   1.350   2.638
36810W        W 1971  21.253  17.998   3.890
36811W        W 1972  39.465  18.743   4.685
36812W        W 1973  40.847  41.023   4.664
36813W        W 1974  28.559   0.973  10.525
36814W        W 1975   9.588  25.503   4.053
36815W        W 1976   2.287  11.094   3.581
36816W        W 1977   8.840   3.556  13.526
36817W        W 1978  29.126  14.033   2.203
36818W        W 1979  32.921   5.485   3.687
36819W        W 1980   8.901   0.105  13.945
36820W        W 1981  29.939  10.678  13.098
36821W        W 1982  44.435  17.867  14.441
36822W        W 1983   1.691  31.411   0.346
36823W        W 1984  22.501  19.904  11.237
36824W        W 1985  17.686   5.827  11.545
36825W        W 1986  18.656  22.992   3.211
36826W        W 1987  23.023  18.809   4.403
36827W        W 1988   5.667  37.246  13.127
36828W        W 1989  38.367  16.520   2.214
36829W        W 1990   5.486  20.521   1.637
36830W        W 1991  33.647   4.385  12.678
36831W        W 1992   7.653   4.902   4.171
36832W        W 1993  33.097  15.166  14.509
36833W        W 1994  26.148  27.479  13.940
36834W        W 1995  34.397  43.270   4.067
36835W        W 1996  17.806  19.586  14.492
36836W        W 1997  37.124  44.628   3.639
36837W        W 1998  32.399  44.988   2.282
36838W        W 1999   1.053  20.348  13.008
36839W        W 2000  27.811   3.222   5.020
36840W        W 2001  28.682  22.073  12.025
36841W        W 2002  11.344  24.699   4.832
36842W        W 2003  22.924  29.654  12.004
36843W        W 2004   5.811  17.620  12.570
36844W        W 2005   5.854   6.682   4.614
36845W        W 2006  14.429  19.772   4.092
36846W        W 2007  12.256  28.687  13.384
36847W        W 2008  31.110  43.992  13.629
36848W        W 2009  17.146  33.652  14.728
36849W        W 2010   0.230  41.847   1.499
36850W        W 2011  23.250  44.311   4.532
36851W        W 2012  19.235  13.285   1.467
36852W        W 2013  38.036   6.419   0.777
36853W        W 2014  32.456   6.731   3.144
36854W        W 2015  26.227  22.962   3.216
36855W        W 2016  24.483  39.416   1.547
36856W        W 2017  35.561   8.337  10.756
36857W        W 2018  37.224  24.081  12.685
36858W        W 2019   6.028  30.198  11.722
36859W        W 2020  38.572  37.739  11.858
36860W        W 2021  28.476  25.157   3.059
36861W        W 2022  29.152  40.618   1.446
36862W        W 2023   6.036  40.407   4.699
36863W        W 2024  44.263  29.195  12.424
36864W        W 2025  11.487  14.410  13.403
36865W        W 2026  14.106  32.509  11.486
36866W        W 2027  22.842  33.270   3.788
36867W        W 2028  11.394  39.819   0.840
36868W        W 2029  44.527  40.399   3.594
36869W        W 2030  40.893  31.408   1.352
36870W        W 2031  24.872  21.104   4.175
36871W        W 2032  36.169  32.125  10.750
36872W        W 2033  13.263  38.432   4.902
36873W        W 2034  32.718  10.259   3.973
36874W        W 2035  40.398   4.278  12.306
36875W        W 2036  15.563  27.010  12.158
36876W        W 2037  23.662  16.289   1.692
36877W        W 2038   4.830  14.129   1.720
36878W        W 2039  44.249   3.287   3.822
36879W        W 2040   0.552  10.912   4.900
36880W        W 2041  28.063  42.330   3.832
36881W        W 2042  22.897  13.300  14.487
36882W        W 2043   3.304  33.615  13.903
36883W        W 2044   6.846   8.648   2.071
36884W        W 2045   2.613   7.357  13.060
36885W        W 2046  35.304  29.267  12.374
36886W        W 2047  17.561  34.713  13.420
36887W        W 2048  36.360  16.127   3.336
36888W        W 2049   5.666  38.809   0.967
36889W        W 2050  32.493  42.941   0.561
36890W        W 2051  40.347  25.411  13.081
36891W        W 2052  32.983  43.396   0.349
36892W        W 2053  39.472  28.542  11.029
36893W        W 2054   3.025  29.000  10.895
36894W        W 2055  14.070   9.710  10.781
36895W        W 2056  37.250  21.106   2.069
36896W        W 2057  22.969  41.409  12.744
36897W        W 2058  26.187  27.989  10.660
36898W        W 2059  20.778  40.934  13.054
36899W        W 2060  36.474  43.599   2.182
36900W        W 2061  26.589  24.924  10.872
36901W        W 2062  33.419  37.240  10.528
36902W        W 2063  16.769  30.843   4.284
36903W        W 2064  25.952  14.133  14.953
36904W        W 2065  37.123  38.944  13.595
36905W        W 2066   4.669  28.579   0.953
36906W        W 2067  43.531  40.497  14.350
36907W        W 2068   5.332  32.429   0.418
36908W        W 2069  25.204  26.694   0.530
36909W        W 2070  14.216  23.433   4.087
36910W        W 2071  18.744  17.548  10.901
36911W        W 2072   8.298  25.630   1.300
36912W        W 2073  10.708  38.397  14.818
36913W        W 2074  43.408  21.695  12.652
36914W        W 2075  24.522  18.057   2.653
36915W        W 2076  22.686   8.352   3.700
36916W        W 2077  34.567  12.224   4.773
36917W        W 2078  40.512  35.528   3.209
36918W        W 2079   5.222  25.060  13.394
36919W        W 2080   2.500   0.520   2.260
36920W        W 2081   7.318  29.716   4.604
36921W        W 2082  35.093  37.999  11.563
36922W        W 2083  44.290  11.585  13.485
36923W        W 2084  28.765  32.177  10.302
36924W        W 2085  30.206  19.557  11.619
36925W        W 2086   0.275   1.274  12.987
36926W        W 2087  33.302   4.196   1.177
36927W        W 2088  14.526  40.141   2.636
36928W        W 2089  41.912  36.380  10.133
36929W        W 2090  25.053  18.248  12.391
36930W        W 2091   8.134  22.546   1.625
36931W        W 2092  42.391  36.013   2.370
36932W        W 2093   9.204  42.220   4.858
36933W        W 2094  40.239  38.382  11.174
36934W        W 2095   7.750  37.793  13.492
36935W        W 2096  33.564   8.496  14.858
36936W        W 2097  35.611  18.977  14.500
36937W        W 2098  33.059  31.483   1.206
36938W        W 2099  19.026  12.774  13.103
36939W        W 2100  34.908  11.536   1.748
36940W        W 2101   9.656  37.583   2.151
36941W        W 2102  25.336  30.208  11.082
36942W        W 2103  38.422  29.676   0.371
36943W        W 2104  18.685   8.332  13.891
36944W        W 2105  17.246   2.886   4.169
36945W        W 2106  31.597   2.983   2.006
36946W        W 2107  26.096  24.724  12.982
36947W        W 2108  25.686  23.587  12.829
36948W        W 2109  38.148  33.999   3.808
36949W        W 2110  19.652  19.172   0.026
36950W        W 2111  38.587  38.499  10.408
36951W        W 2112  23.703  20.733  11.603
36952W        W 2113   4.667  39.317  11.457
36953W        W 2114  39.859  16.275  10.702
36954W        W 2115  16.733  13.384  11.466
36955W        W 2116  33.437  18.286  11.171
36956W        W 2117   8.933   5.943  14.037
36957W        W 2118  22.626  25.714   3.560
36958W        W 2119  41.818  40.374   1.654
36959W        W 2120  23.571   5.634  13.053
36960W        W 2121  26.140  23.000   0.317
36961W        W 2122  31.209  16.785  13.572
36962W        W 2123   8.916   4.252   0.676
36963W        W 2124  41.135  26.250   1.530
36964W        W 2125   8.192  40.910  10.460
36965W        W 2126  34.129  35.522   1.741
36966W        W 2127  40.391  20.422   1.211
36967W        W 2128  13.718  22.051  11.651
36968W        W 2129   2.690  22.062  13.584
36969W        W 2130   9.617  27.688   3.761
36970W        W 2131  25.763  19.634   2.220
36971W        W 2132  22.308   4.475  10.835
36972W        W 2133  13.537  40.461  14.658
36973W        W 2134  31.350  25.421   0.400
36974W        W 2135  11.791  38.742  11.573
36975W        W 2136  23.290  13.479  13.752
36976W        W 2137  25.317  39.285  12.055
36977W        W 2138  13.089   6.950   0.705
36978W        W 2139  17.050   2.842   1.808
36979W        W 2140   9.534  24.231   1.450
36980W        W 2141  10.828  16.260   1.392
36981W        W 2142  40.993  43.926   3.237
36982W        W 2143   9.436  39.800   3.809
36983W        W 2144  22.095   6.245   0.650
36984W        W 2145  43.014  12.915   0.407
36985W        W 2146  16.017  18.986   1.166
36986W        W 2147  32.050  39.833  12.558
36987W        W 2148  29.036  30.907  14.290
36988W        W 2149  24.023  28.091  10.199
36989W        W 2150  10.097  17.978  11.015
36990W        W 2151   5.655  23.134   4.181
36991W        W 2152  39.900  15.856   2.383
36992W        W 2153  13.429  14.213   3.631
36993W        W 2154  13.328  35.980   4.027
36994W        W 2155  27.409  15.371  12.523
36995W        W 2156   4.282  31.739  12.329
36996W        W 2157  33.683   6.658   1.747
36997W        W 2158  42.520  24.622  11.693
36998W        W 2159   6.252  16.076  14.259
36999W        W 2160  35.621  42.938  13.086
37000W        W 2161  37.875  37.770   0.804
37001W        W 2162  28.811  44.943  11.225
37002W        W 2163  10.145  29.620  10.581
37003W        W 2164  40.504   0.365   0.012
37004W        W 2165  14.897   6.831  14.494
37005W        W 2166  22.493   0.074   0.798
37006W        W 2167  40.463  11.232   4.216
37007W        W 2168  42.648  13.976   0.717
37008W        W 2169  22.560  22.546  12.969
37009W        W 2170  12.791  11.383   4.605
37010W        W 2171  23.260  40.515   2.631
37011W        W 2172   4.032  11.501  14.591
37012W        W 2173  40.338  32.376  14.253
37013W        W 2174  26.261   2.333  14.305
37014W        W 2175   8.141  31.113   4.581
37015W        W 2176  13.770  12.409  12.546
37016W        W 2177  12.932   7.447  13.910
37017W        W 2178   7.254  17.555  14.396
37018W        W 2179  42.191  28.500   2.293
37019W        W 2180   4.672  20.230   2.728
37020W        W 2181  25.954  33.629  10.540
37021W        W 2182   5.256  41.295   2.180
37022W        W 2183  10.819  37.404   2.760
37023W        W 2184  28.884  13.638  10.792
37024W        W 2185  16.831  41.837  14.950
37025W        W 2186  31.597  35.299  12.562
37026W        W 2187   3.442  31.530  12.462
37027W        W 2188  12.098  39.470  14.932
37028W        W 2189  42.513   7.921  12.605
37029W        W 2190  38.479   9.965   0.366
37030W        W 2191  36.925   5.472   3.273
37031W        W 2192  10.306  24.681   1.674
37032W        W 2193  43.015   8.873  13.252
37033W        W 2194  31.197  37.122   1.771
37034W        W 2195  33.165  20.084   0.440
37035W        W 2196  24.481  32.061  13.072
37036W        W 2197  32.655  27.127   3.202
37037W        W 2198  28.907  40.494  12.106
37038W        W 2199  43.476   3.430   0.948
37039W        W 2200  27.990  39.619   0.802
37040W        W 2201  30.308  39.935   4.637
37041W        W 2202   2.409  36.618  14.270
37042W        W 2203  28.893   9.280   1.944
37043W        W 2204  36.439   5.901   2.618
37044W        W 2205  30.952  41.579   4.568
37045W        W 2206   2.685   5.288  13.085
37046W        W 2207  42.274  30.151  12.716
37047W        W 2208  23.428   7.776   2.398
37048W        W 2209  24.760  12.404  12.933
37049W        W 2210  43.902  28.462  14.805
37050W        W 2211  35.565  24.688   2.231
37051W        W 2212  18.245  24.154   1.442
37052W        W 2213  29.296  20.770   2.182
37053W        W 2214  36.405  31.248   2.451
37054W        W 2215  13.792  37.345  14.851
37055W        W 2216  31.954  27.640  11.559
37056W        W 2217  15.329  27.411   4.610
37057W        W 2218   4.934   9.627  12.503
37058W        W 2219  34.645  33.214  14.057
37059W        W 2220  31.263  32.570   1.323
37060W        W 2221  17.283  24.947   4.811
37061W        W 2222  31.464   2.821  12.027
37062W        W 2223   7.184  26.336  12.494
37063W        W 2224   5.416   3.500  10.746
37064W        W 2225  13.078   7.088  14.320
37065W        W 2226   6.707  28.528   2.935
37066W        W 2227  33.376  35.534   2.698
37067W        W 2228  29.760  33.453  11.060
37068W        W 2229  29.156  16.898  14.678
37069W        W 2230  26.117   4.707  14.134
37070W        W 2231   1.685  35.975  14.066
37071W        W 2232  19.999  33.972   2.679
37072W        W 2233  39.565   5.381  12.578
37073W        W 2234  14.170  22.092  12.411
37074W        W 2235   6.207  10.053   2.187
37075W        W 2236  37.103  31.186   1.726
37076W        W 2237  38.540  27.124   3.216
37077W        W 2238  29.556  35.313   4.827
37078W        W 2239  37.765  23.748   4.433
37079W        W 2240   1.003  43.817   3.794
37080W        W 2241  12.554  31.102   2.229
37081W        W 2242   1.311  16.550   3.333
37082W        W 2243  22.158  44.341   0.218
37083W        W 2244  37.964   3.237   4.934
37084W        W 2245  29.946  17.874  14.497
37085W        W 2246   2.951  31.578  12.698
37086W        W 2247  36.189  41.578   1.977
37087W        W 2248  16.296  30.393  11.517
37088W        W 2249  37.311   9.321  13.326
37089W        W 2250  39.279   6.307  14.901
37090W        W 2251  20.621   2.838  13.612
37091W        W 2252   4.840  16.841   2.261
37092W        W 2253   0.464  16.640   2.091
37093W        W 2254   4.359  39.073  13.802
37094W        W 2255  16.480  43.933   4.555
37095W        W 2256  43.116   0.235   0.830
37096W        W 2257  42.763   7.275   0.878
37097W        W 2258  20.332  40.598   0.201
37098W        W 2259  18.331  35.552  13.577
37099W        W 2260  20.641  10.802   1.597
37100W        W 2261  31.955  41.848   2.093
37101W        W 2262  36.673  15.431  12.119
37102W        W 2263  34.629  16.246  12.663
37103W        W 2264  27.571  34.025   3.396
37104W        W 2265  12.640  28.147  12.916
37105W        W 2266  10.854  16.664   0.238
37106W        W 2267  38.966  28.974   3.210
37107W        W 2268  11.816   9.680   2.827
37108W        W 2269  15.615  34.038   0.436
37109W        W 2270  16.134   0.313   1.294
37110W        W 2271  22.278  42.971  10.722
37111W        W 2272  42.642   0.900  13.519
37112W        W 2273  32.545  21.155   2.217
37113W        W 2274  15.243   0.477  13.124
37114W        W 2275  13.239   5.820  12.923
37115W        W 2276  21.527  24.125   4.221
37116W        W 2277  29.514  26.912  12.825
37117W        W 2278  15.286   1.081   1.190
37118W        W 2279  11.697  32.170   9.880
37119W        W 2280   4.014   4.402   3.156
37120W        W 2281  23.725   3.341   5.099
37121W        W 2282   6.613  37.875  10.712
37122W        W 2283  34.648  40.367  13.775
37123W        W 2284  13.746  34.032  11.469
37124W        W 2285  32.118   8.329   1.731
37125W        W 2286  36.553  41.744  11.613
37126W        W 2287  44.572  18.848  13.046
37127W        W 2288  42.260  41.713   3.902
37128W        W 2289  25.652  27.916   3.679
37129W        W 2290  10.183  44.336   3.201
37130W        W 2291  18.015  19.313  14.914
37131W        W 2292  20.256  22.087  13.762
37132W        W 2293  25.241  41.352   4.040
37133W        W 2294   0.534   5.420  11.212
37134W        W 2295  44.420  25.943  11.951
37135W        W 2296   7.779  40.541   2.672
37136W        W 2297  25.064   5.390  12.576
37137W        W 2298   8.281   2.191   3.207
37138W        W 2299   7.998  12.205  10.488
37139W        W 2300  39.641   1.248  14.315
37140W        W 2301  18.727  41.890   4.096
37141W        W 2302  42.387  14.397  12.467
37142W        W 2303  32.219  41.276  11.602
37143W        W 2304  14.097  23.249   4.576
37144W        W 2305  19.235   3.338   0.598
37145W        W 2306  23.260   9.334   1.792
37146W        W 2307  11.712  30.744   2.218
37147W        W 2308   4.774  41.493   2.157
37148W        W 2309  10.086  35.027   4.346
37149W        W 2310  25.740  17.668  13.485
37150W        W 2311  34.419  40.527   1.236
37151W        W 2312  42.219  35.103   1.276
37152W        W 2313  40.608  35.946   4.001
37153W        W 2314  25.539  44.135   0.036
37154W        W 2315  27.741  38.016  12.626
37155W        W 2316  30.940  42.519  12.399
37156W        W 2317  41.542  25.489   1.052
37157W        W 2318  23.228   5.460  14.380
37158W        W 2319  36.858   0.480   9.988
37159W        W 2320  36.860  10.563  14.068
37160W        W 2321  39.764  16.094   0.904
37161W        W 2322  25.093   2.404   1.807
37162W        W 2323  23.893   0.268  13.264
37163W        W 2324  13.779   7.952   2.905
37164W        W 2325  37.402  22.985  14.737
37165W        W 2326  44.525  15.981  12.432
37166W        W 2327  28.918   7.407  14.400
37167W        W 2328  19.151   3.029  12.504
37168W        W 2329  43.850  23.646  14.319
37169W        W 2330  18.556   0.534   3.971
37170W        W 2331  14.734  30.235  12.752
37171W        W 2332  10.359  37.098   2.718
37172W        W 2333  32.693  18.016  11.603
37173W        W 2334  34.875  14.621  13.878
37174W        W 2335  35.130  35.533  14.839
37175W        W 2336   5.410  38.385  13.144
37176W        W 2337  26.200  10.196  14.562
37177W        W 2338   2.654  43.321  11.592
37178W        W 2339  27.630  34.451   2.488
37179W        W 2340  38.314  28.230  11.224
37180W        W 2341  13.900   8.959  11.463
37181W        W 2342  25.379  33.866   2.282
37182W        W 2343  18.643  10.235  11.688
37183W        W 2344  27.102  16.228  13.510
37184W        W 2345  37.472  19.121   0.782
37185W        W 2346  22.539   0.131  11.594
37186W        W 2347  18.110  30.376  11.102
37187W        W 2348  35.384  28.642   4.136
37188W        W 2349  13.203  38.392   0.371
37189W        W 2350   6.758  44.859  12.022
37190W        W 2351  15.221  39.039   3.276
37191W        W 2352   4.238  42.800   3.082
37192W        W 2353   2.288  23.337   4.647
37193W        W 2354  42.579  16.400  10.971
37194W        W 2355  40.890   6.322  12.925
37195W        W 2356  43.752  33.300   4.197
37196W        W 2357  10.619  22.570  13.532
37197W        W 2358  24.996   5.775  10.765
37198W        W 2359  12.184   4.369  14.333
37199W        W 2360  12.917  44.886  14.418
37200W        W 2361  13.238   4.509  14.454
37201W        W 2362  29.087  12.783  12.971
37202W        W 2363  34.531  17.047  12.072
37203W        W 2364  19.145  10.284   4.917
37204W        W 2365  32.117  38.400   4.521
37205W        W 2366   4.247  19.205  11.111
37206W        W 2367  13.282  14.003   4.088
37207W        W 2368  13.712   3.383  10.706
37208W        W 2369  39.641   5.438   1.183
37209W        W 2370  13.117  20.246  12.225
37210W        W 2371  13.974  37.412   0.475
37211W        W 2372  24.630  25.604  13.795
37212W        W 2373  31.406   0.082  10.628
37213W        W 2374  18.686  25.011  13.404
37214W        W 2375  27.680  23.548  10.647
37215W        W 2376  19.168  26.756   3.134
37216W        W 2377  36.138  44.377   2.109
37217W        W 2378  32.083   2.583   2.684
37218W        W 2379  23.259  26.651  14.358
37219W        W 2380  43.345  22.734  14.421
37220W        W 2381   8.117  16.903  11.157
37221W        W 2382   6.810   8.971   1.663
37222W        W 2383  33.375  16.245   3.664
37223W        W 2384  26.679  17.555  13.363
37224W        W 2385  28.645   8.079   1.451
37225W        W 2386   6.446  24.613   0.903
37226W        W 2387  39.903   7.854   4.229
37227W        W 2388  20.778  34.051   3.385
37228W        W 2389  33.650  16.206   1.695
37229W        W 2390   3.464  33.171  13.071
37230W        W 2391   2.995  35.336   5.131
37231W        W 2392  26.593  32.793  13.569
37232W        W 2393  11.391  21.945  12.531
37233W        W 2394  13.750  23.436  14.449
37234W        W 2395  23.059   7.921  11.263
37235W        W 2396  42.367  17.676   4.704
37236W        W 2397  23.270  30.457   1.742
37237W        W 2398  36.979  15.225   4.251
37238W        W 2399  21.155   7.238  13.891
37239W        W 2400  10.298   4.338  11.398
37240W        W 2401  22.643  35.248   4.509
37241W        W 2402  33.369  26.267   0.873
37242W        W 2403  40.486  14.269   9.754
37243W        W 2404  25.834  42.924  13.243
37244W        W 2405  16.288   7.250   3.552
37245W        W 2406  18.653   0.279  12.071
37246W        W 2407  27.033  30.504   1.678
37247W        W 2408   4.903  12.781   3.108
37248W        W 2409  34.533  15.635   2.241
37249W        W 2410   8.418  12.816  14.380
37250W        W 2411  25.560  20.038  11.241
37251W        W 2412  22.144  16.217   9.886
37252W        W 2413  41.040   2.284  14.071
37253W        W 2414  15.711   1.720  13.588
37254W        W 2415   0.830   2.523   4.641
37255W        W 2416  32.777   8.803  10.987
37256W        W 2417  15.679  44.001   1.784
37257W        W 2418  22.498  26.815   2.783
37258W        W 2419  35.751   9.966   2.167
37259W        W 2420   2.372  21.498   4.182
37260W        W 2421  40.008  19.092  12.489
37261W        W 2422   7.289   5.877   3.098
37262W        W 2423  15.093   3.149   0.080
37263W        W 2424  21.325  28.696   2.307
37264W        W 2425  11.381  31.541  14.132
37265W        W 2426  38.979  37.561   1.910
37266W        W 2427  35.087  32.917  14.091
37267W        W 2428  25.141   4.312  10.843
37268W        W 2429  37.067  17.409  12.924
37269W        W 2430  29.447  16.542   3.801
37270W        W 2431  11.563  24.563   3.888
37271W        W 2432  31.272  23.465  12.353
37272W        W 2433  24.541   8.834  14.525
37273W        W 2434   8.653  44.499  12.068
37274W        W 2435  12.197  29.826  11.226
37275W        W 2436   3.562  11.347   4.236
37276W        W 2437  28.605  23.144  12.383
37277W        W 2438  42.500  17.204   0.960
37278W        W 2439  33.363  26.062  14.061
37279W        W 2440  40.561   7.259  11.197
37280W        W 2441  10.248  23.728  12.682
37281W        W 2442   2.445  20.755   0.321
37282W        W 2443  30.697   7.393   3.227
37283W        W 2444   5.762   9.860   4.485
37284W        W 2445   8.121  29.972  13.394
37285W        W 2446  10.378  23.271  12.420
37286W        W 2447  10.354  27.231   0.873
37287W        W 2448  13.920  17.114   2.292
37288W        W 2449  33.031  10.593  12.422
37289W        W 2450  18.623  32.586  12.155
37290W        W 2451  11.261  23.108   4.049
37291W        W 2452  11.622   1.919  13.341
37292W        W 2453  31.182   3.039  10.444
37293W        W 2454   1.408  44.365   0.474
37294W        W 2455  41.935  32.889   1.849
37295W        W 2456   8.837  32.241   1.630
37296W        W 2457  12.239  12.669   4.357
37297W        W 2458  33.557  20.795   5.119
37298W        W 2459  22.232  44.390  14.214
37299W        W 2460  35.358  30.496  12.849
37300W        W 2461   7.763  12.723   3.832
37301W        W 2462  24.240   0.935  14.373
37302W        W 2463  40.258  34.209   4.254
37303W        W 2464   3.419  30.380  11.906
37304W        W 2465  19.958  12.862  14.309
37305W        W 2466  13.151   3.059   3.170
37306W        W 2467  34.215  28.097  10.120
37307W        W 2468  43.408  24.298   1.674
37308W        W 2469  28.732  42.783  14.946
37309W        W 2470  26.657  31.905  14.439
37310W        W 2471  32.879  27.773   1.795
37311W        W 2472  20.511  41.251  11.212
37312W        W 2473   8.677  43.848   4.411
37313W        W 2474  36.134  41.568  13.836
37314W        W 2475  38.950  31.578   1.286
37315W        W 2476  22.043  13.251  14.795
37316W        W 2477   3.963  39.323  14.611
37317W        W 2478  35.638  37.247   1.263
37318W        W 2479  44.303  32.471   2.920
37319W        W 2480  29.042   4.018   3.889
37320W        W 2481   0.254  23.576  11.618
37321W        W 2482  34.327  18.454   4.388
37322W        W 2483  33.493  26.260  13.608
37323W        W 2484  29.421  28.290   2.831
37324W        W 2485  24.221  18.192  11.061
37325W        W 2486  26.915   0.946  11.887
37326W        W 2487  31.579  33.215  11.612
37327W        W 2488  23.191  15.682  11.575
37328W        W 2489  21.502  43.308  11.650
37329W        W 2490  41.520  26.273   1.855
37330W        W 2491  14.189   9.806  13.100
37331W        W 2492  30.110  20.884   4.732
37332W        W 2493  31.505  12.308   1.400
37333W        W 2494  18.832  38.485   2.823
37334W        W 2495   0.934  32.253  13.515
37335W        W 2496  16.243  12.714  14.861
37336W        W 2497  21.181  11.166  13.569
37337W        W 2498   0.670  36.265  13.053
37338W        W 2499  27.457  11.354  12.564
37339W        W 2500  36.034  44.016   4.530
37340W        W 2501  19.050   5.810  12.120
37341W        W 2502  15.192  11.952   1.454
37342W        W 2503  44.817  31.904   3.284
37343W        W 2504  40.521   3.648   4.241
37344W        W 2505  27.105  37.303  10.589
37345W        W 2506   2.391  38.128   3.693
37346W        W 2507  26.988   8.536   5.001
37347W        W 2508  34.991   0.915  12.454
37348W        W 2509  20.091  38.440   4.185
37349W        W 2510  37.573  29.779   3.673
37350W        W 2511  24.102  27.648   2.187
37351W        W 2512   8.992   3.189  13.888
37352W        W 2513  31.795   8.347  14.227
37353W        W 2514  20.370  30.722   1.730
37354W        W 2515  42.450  13.589  14.417
37355W        W 2516   4.773  42.394   2.271
37356W        W 2517   1.083  20.853  12.941
37357W        W 2518  19.264  36.076  14.324
37358W        W 2519  44.285  36.607  14.468
37359W        W 2520  36.611  17.471  14.041
37360W        W 2521   0.391   5.643   0.490
37361W        W 2522   0.480   8.902  12.013
37362W        W 2523  34.646  29.720   2.400
37363W        W 2524  38.919  16.375   4.345
37364W        W 2525  18.764   2.574  11.181
37365W        W 2526  24.913   0.025   2.335
37366W        W 2527  19.554  10.806   2.135
37367W        W 2528  33.336   9.844  14.295
37368W        W 2529   4.953  27.408   1.628
37369W        W 2530  33.959  29.842   3.679
37370W        W 2531  11.869  10.732   2.624
37371W        W 2532   6.928  29.597  14.712
37372W        W 2533  38.379  32.444   2.086
37373W        W 2534  34.035   8.742  14.788
37374W        W 2535  19.208  22.086   0.257
37375W        W 2536  44.175  19.900  14.612
37376W        W 2537  13.982  28.424   0.036
37377W        W 2538  30.275  43.393  14.922
37378W        W 2539  10.637  21.864  11.117
37379W        W 2540  28.890  44.379  11.217
37380W        W 2541  22.234  31.188   2.360
37381W        W 2542   7.760  44.496  11.557
37382W        W 2543   8.249   6.643  13.768
37383W        W 2544  36.906  21.864   1.827
37384W        W 2545   9.360  12.946  11.214
37385W        W 2546  21.207  22.059  14.952
37386W        W 2547  30.028   2.465  13.351
37387W        W 2548  13.815   7.026  11.869
37388W        W 2549  16.139  41.454  12.415
37389W        W 2550  42.389  36.029  12.345
37390W        W 2551  31.876  12.100   1.100
37391W        W 2552  43.317  44.313  14.945
37392W        W 2553  44.788  24.494  10.512
37393W        W 2554  39.191   4.361  12.369
37394W        W 2555  17.559  43.421  10.719
37395W        W 2556  23.785  43.836   2.213
37396W        W 2557  36.077  43.893   1.857
37397W        W 2558  34.353  11.796   1.004
37398W        W 2559  11.859   7.734  13.062
37399W        W 2560  35.177  36.881   2.424
37400W        W 2561   1.703  26.532   4.062
37401W        W 2562  31.481  17.782  13.520
37402W        W 2563  39.102  13.632   1.040
37403W        W 2564   5.136   1.949   3.796
37404W        W 2565  11.976  10.597  11.927
37405W        W 2566   8.534  28.668   0.460
37406W        W 2567  31.362  34.928   3.183
37407W        W 2568  14.608  32.150   2.243
37408W        W 2569  37.038   9.430  11.189
37409W        W 2570  33.840  44.727   0.435
37410W        W 2571  17.513   1.777  14.868
37411W        W 2572  42.068   7.646  12.601
37412W        W 2573  27.929  16.670  10.740
37413W        W 2574  37.855  44.903  10.615
37414W        W 2575  36.141  32.315  12.004
37415W        W 2576  28.503  31.524  13.020
37416W        W 2577  38.356  40.003  11.537
37417W        W 2578  44.781  10.786  13.706
37418W        W 2579  19.673   2.569  11.646
37419W        W 2580  28.553  29.490  12.113
37420W        W 2581  12.146   6.171  12.443
37421W        W 2582  30.433  13.896   2.771
37422W        W 2583   1.471  43.883  10.421
37423W        W 2584  15.355   6.627  11.128
37424W        W 2585  25.323  34.970   4.976
37425W        W 2586  39.644  15.781  10.032
37426W        W 2587  41.961  24.553  10.504
37427W        W 2588   0.402  38.346   3.707
37428W        W 2589  19.393  39.331   4.937
37429W        W 2590  20.595  34.673   0.271
37430W        W 2591  21.163   2.505   4.087
37431W        W 2592  29.995  26.505  13.508
37432W        W 2593  11.378  39.604  12.171
37433W        W 2594  23.206   8.782  12.153
37434W        W 2595  22.151  13.889   2.638
37435W        W 2596  28.243  37.850  10.194
37436W        W 2597  42.765  22.274   3.190
37437W        W 2598   7.771  37.295  13.397
37438W        W 2599  36.553  38.524  11.116
37439W        W 2600  22.808   8.704   2.966
37440W        W 2601  26.608   1.856   4.082
37441W        W 2602  41.532  25.918   1.423
37442W        W 2603  35.345   8.411   2.694
37443W        W 2604  25.442  29.453   4.566
37444W        W 2605  37.419  10.809   0.925
37445W        W 2606  21.456   8.206   1.716
37446W        W 2607  38.356  20.576   4.645
37447W        W 2608  26.743  33.047  14.866
37448W        W 2609  24.227   8.136  10.743
37449W        W 2610  15.140  12.939  14.404
37450W        W 2611  23.522  38.544   0.696
37451W        W 2612  24.366  23.452   1.354
37452W        W 2613  28.912   1.083  12.089
37453W        W 2614  35.509   6.359  12.030
37454W        W 2615   5.665  28.216  11.461
37455W        W 2616  26.550  24.470   0.907
37456W        W 2617  17.238  24.589   3.884
37457W        W 2618  40.738   9.887   0.444
37458W        W 2619  21.054  38.594   1.923
37459W        W 2620  22.375  25.419   4.856
37460W        W 2621   8.626  16.071  14.403
37461W        W 2622  44.352   7.352   1.797
37462W        W 2623   3.451  25.109  13.002
37463W        W 2624  19.549  14.113  10.640
37464W        W 2625   5.731   0.519   2.360
37465W        W 2626  41.898  16.831  11.150
37466W        W 2627   5.940  29.687  11.630
37467W        W 2628  29.277  17.628  12.195
37468W        W 2629  42.038  42.706  11.335
37469W        W 2630   6.227  21.194   0.874
37470W        W 2631  13.545  22.346  13.413
37471W        W 2632  20.754   2.152  11.204
37472W        W 2633   1.372  16.492   4.665
37473W        W 2634  29.706  10.659   0.365
37474W        W 2635   8.255  40.526   2.888
37475W        W 2636  42.903  28.591   1.848
37476W        W 2637  30.152  17.317  13.975
37477W        W 2638   7.689   7.310  13.410
37478W        W 2639   0.373   9.698  14.800
37479W        W 2640  41.314   5.268   0.263
37480W        W 2641  12.419  19.321   0.940
37481W        W 2642  31.518  30.847   1.491
37482W        W 2643   2.358  36.047  13.902
37483W        W 2644  28.526  40.009   0.189
37484W        W 2645   0.349   9.739   3.128
37485W        W 2646  10.891  28.609  12.433
37486W        W 2647  38.985  28.890   5.026
37487W        W 2648  15.322  43.032   1.902
37488W        W 2649  18.442  30.397   3.349
37489W        W 2650   0.309   7.897   3.572
37490W        W 2651  14.440  30.960   3.187
37491W        W 2652  31.602  10.661  13.016
37492W        W 2653  12.217  42.733   5.021
37493W        W 2654   0.737  24.500   4.101
37494W        W 2655  34.339  20.875   4.097
37495W        W 2656   0.339  11.920   2.233
37496W        W 2657  31.984  29.279   2.392
37497W        W 2658  32.391   6.927  12.062
37498W        W 2659  26.703  42.372   3.121
37499W        W 2660   2.236   7.014   4.469
37500W        W 2661  36.700  24.566  13.253
37501W        W 2662  36.552  27.519  12.160
37502W        W 2663   3.270  29.407   0.358
37503W        W 2664  27.010  37.774   0.292
37504W        W 2665   9.817  27.733  13.316
37505W        W 2666  31.982   3.534   3.662
37506W        W 2667  33.218  20.583   0.954
37507W        W 2668  39.639  37.203   0.911
37508W        W 2669  31.173   2.904  11.485
37509W        W 2670  40.571  21.192  14.788
37510W        W 2671   5.859  39.846   2.351
37511W        W 2672  39.868   0.583   4.867
37512W        W 2673  43.668   2.270   3.661
37513W        W 2674  24.032  35.966   3.640
37514W        W 2675   9.406  25.864   4.801
37515W        W 2676  27.009  36.558   2.783
37516W        W 2677  26.530  17.808   3.610
37517W        W 2678  11.944  30.464  11.258
37518W        W 2679  43.141  44.778  12.536
37519W        W 2680  24.628  32.896  13.614
37520W        W 2681  33.887  20.122   4.308
37521W        W 2682  36.624  36.432  13.814
37522W        W 2683  40.385   9.392  12.977
37523W        W 2684  28.240  40.998   4.482
37524W        W 2685  34.863  21.970  11.640
37525W        W 2686  35.148  40.352  13.024
37526W        W 2687  42.361   8.472   0.266
37527W        W 2688  28.454  39.925   2.109
37528W        W 2689  13.728  15.564   4.390
37529W        W 2690  30.408  43.906   3.776
37530W        W 2691  11.881  15.232   3.632
37531W        W 2692  23.065  24.221  13.988
37532W        W 2693  31.914  42.939   3.791
37533W        W 2694  24.437  14.272  11.087
37534W        W 2695   5.352  24.539  10.868
37535W        W 2696   2.163  18.163  14.327
37536W        W 2697  23.716  15.828   1.187
37537W        W 2698  13.463   6.294  13.056
37538W        W 2699   2.739  21.703  10.961
37539W        W 2700  15.312  43.927   2.137
37540W        W 2701   7.380  39.544  13.750
37541W        W 2702   6.856  34.752   3.606
37542W        W 2703  17.342  19.568   1.437
37543W        W 2704   4.279  19.543  12.651
37544W        W 2705  10.971  11.723  10.745
37545W        W 2706   8.746   9.182   3.166
37546W        W 2707  19.150   6.225  14.036
37547W        W 2708  40.540  23.244  14.816
37548W        W 2709  27.918  11.219  12.013
37549W        W 2710  33.012  37.398   0.747
37550W        W 2711  16.285  13.262  14.755
37551W        W 2712   3.523  29.643  12.899
37552W        W 2713  34.822  35.977   3.259
37553W        W 2714  13.375  42.440  10.477
37554W        W 2715  40.243   2.681  12.568
37555W        W 2716  24.101  15.861  13.539
37556W        W 2717  33.540  34.489  14.748
37557W        W 2718   2.369  26.677   4.548
37558W        W 2719  11.975  27.073   1.969
37559W        W 2720  34.515  41.753   3.032
37560W        W 2721  33.953   8.485   1.478
37561W        W 2722  10.801  28.691   2.288
37562W        W 2723   1.881  44.241  13.789
37563W        W 2724  32.140   8.109  13.944
37564W        W 2725   3.193   7.196   3.588
37565W        W 2726  24.672   6.381  11.834
37566W        W 2727  15.533   1.044   5.031
37567W        W 2728   4.312  26.574  12.657
37568W        W 2729  36.436  23.538   2.174
37569W        W 2730  19.311   5.558  10.834
37570W        W 2731   4.310   4.299  14.335
37571W        W 2732  42.193   7.335  13.502
37572W        W 2733  31.124  39.466  11.598
37573W        W 2734   5.294  12.194   3.376
37574W        W 2735   9.060   7.863   3.161
37575W        W 2736  38.814   5.566   4.098
37576W        W 2737   3.409  27.201  11.893
37577W        W 2738  15.588   0.005   2.680
37578W        W 2739  28.139  42.487  12.599
37579W        W 2740  11.871   7.706  13.691
37580W        W 2741  37.180  28.524   2.240
37581W        W 2742  18.634  24.306  12.917
37582W        W 2743  14.258  43.832   1.894
37583W        W 2744   9.075   5.191   0.428
37584W        W 2745   8.388  28.340   0.852
37585W        W 2746  19.179  30.594   2.004
37586W        W 2747  17.154  24.505   2.010
37587W        W 2748   4.219   1.357  14.104
37588W        W 2749   7.976  30.735   3.231
37589W        W 2750  25.939   4.760   3.246
37590W        W 2751   2.226  18.813  11.211
37591W        W 2752  14.294   2.130  14.750
37592W        W 2753  11.881  36.223   4.497
37593W        W 2754  25.769  40.346   2.793
37594W        W 2755  37.803  15.758   2.380
37595W        W 2756   7.950   0.566  13.774
37596W        W 2757  43.997  15.672  13.907
37597W        W 2758  42.930  17.775   2.422
37598W        W 2759  13.680  41.854  13.216
37599W        W 2760  27.756  16.921   4.333
37600W        W 2761  43.691   5.376  11.529
37601W        W 2762   4.233  25.416  13.696
37602W        W 2763  23.807  10.749  12.654
37603W        W 2764  14.319  38.758   0.867
37604W        W 2765  31.046  15.168   1.680
37605W        W 2766  22.122  44.798   4.511
37606W        W 2767   1.864  18.261  14.889
37607W        W 2768  25.141  10.477   2.483
37608W        W 2769  20.867  13.556  13.917
37609W        W 2770  10.847   6.870   4.830
37610W        W 2771  14.650  34.515   2.874
37611W        W 2772  11.206   6.381  12.462
37612W        W 2773  34.047  40.915   4.036
37613W        W 2774  31.650  30.762   1.963
37614W        W 2775  11.288  12.195   4.199
37615W        W 2776  23.560  42.059  10.402
37616W        W 2777  43.478   5.402  10.680
37617W        W 2778  13.922  14.277   3.817
37618W        W 2779  12.767  27.388   2.739
37619W        W 2780  14.831  29.917   0.414
37620W        W 2781  41.808   4.915   3.211
37621W        W 2782  43.415  15.209   2.256
37622W        W 2783   7.331  22.105   4.919
37623W        W 2784  25.131  30.883   3.801
37624W        W 2785  33.300   2.717  14.488
37625W        W 2786   2.599  10.834  12.560
37626W        W 2787   5.022  19.875   3.257
37627W        W 2788  32.723  11.129   1.218
37628W        W 2789   2.781   6.954   4.193
37629W        W 2790  10.820  44.371   1.718
37630W        W 2791  29.457  27.648   1.703
37631W        W 2792  14.166   2.043   4.563
37632W        W 2793  19.759  24.380  10.253
37633W        W 2794   3.258  32.180   0.923
37634W        W 2795  44.654  19.835  14.416
37635W        W 2796  29.047   8.427   2.189
37636W        W 2797  40.668   0.353   4.370
37637W        W 2798  32.634  44.966   4.681
37638W        W 2799  37.151   0.863  14.508
37639W        W 2800   2.373  36.022   5.244
37640W        W 2801  22.569  18.569  13.397
37641W        W 2802   4.598   4.541   5.085
37642W        W 2803  40.605   0.760  12.546
37643W        W 2804   1.314  29.878  12.096
37644W        W 2805   0.734  40.952   0.573
37645W        W 2806  26.094  22.493   0.251
37646W        W 2807  38.792  40.240   3.046
37647W        W 2808  27.324  21.297   3.584
37648W        W 2809   6.677  10.263  14.837
37649W        W 2810  20.499  43.507   1.019
37650W        W 2811  30.069  44.975   3.665
37651W        W 2812   4.271  36.924  10.662
37652W        W 2813  31.086  12.047   4.610
37653W        W 2814  34.819   8.392  14.986
37654W        W 2815  33.841  28.589   2.115
37655W        W 2816   8.377   3.315  13.559
37656W        W 2817  31.407  14.670   3.853
37657W        W 2818   5.779  25.880   3.206
37658W        W 2819  22.571   6.318   0.886
37659W        W 2820  13.822  18.141   1.414
37660W        W 2821   7.108  18.660   0.662
37661W        W 2822  10.801  16.052  10.546
37662W        W 2823  10.764  32.981   3.964
37663W        W 2824   3.429  31.498  11.478
37664W        W 2825   9.862  29.957  10.909
37665W        W 2826   5.513  38.173   0.861
37666W        W 2827  18.202   3.637  13.091
37667W        W 2828  35.620   0.576   0.927
37668W        W 2829  27.897   0.814   2.664
37669W        W 2830  16.882   2.284  14.514
37670W        W 2831  16.206  32.529   4.432
37671W        W 2832  24.545  16.178  13.025
37672W        W 2833  24.967  15.643  13.918
37673W        W 2834   4.313  35.159  14.038
37674W        W 2835  40.754  15.810   2.839
37675W        W 2836   1.913  10.518   5.079
37676W        W 2837  21.236  19.607   0.451
37677W        W 2838  43.668   1.343   2.649
37678W        W 2839  21.520  36.125  14.708
37679W        W 2840  31.672   2.530   1.763
37680W        W 2841  24.045   6.538  12.554
37681W        W 2842  39.596   9.312   4.309
37682W        W 2843  34.045  13.826  14.481
37683W        W 2844  28.068  14.588   0.087
37684W        W 2845  26.017  32.735  11.627
37685W        W 2846  34.130  37.125   1.878
37686W        W 2847  36.793  11.795  13.375
37687W        W 2848   1.183  25.136   2.919
37688W        W 2849  26.147  26.389   4.510
37689W        W 2850  41.602  30.559   0.464
37690W        W 2851  28.982  11.142   3.651
37691W        W 2852   2.300  37.889  12.862
37692W        W 2853   4.415   9.899   0.576
37693W        W 2854   3.241  20.452  12.772
37694W        W 2855   2.644  34.913  14.002
37695W        W 2856  23.627  43.490  12.121
37696W        W 2857  23.620   0.814   2.855
37697W        W 2858  26.254   6.005   0.523
37698W        W 2859  29.776  44.292   3.753
37699W        W 2860   6.442  10.733   0.785
37700W        W 2861   5.226   7.397   1.362
37701W        W 2862  44.176  23.642   4.686
37702W        W 2863  12.865  16.167  13.821
37703W        W 2864  41.510  39.261   2.290
37704W        W 2865  18.010  13.992   3.820
37705W        W 2866  15.283  40.800   0.835
37706W        W 2867  18.402   4.243   1.927
37707W        W 2868  34.842   7.704   0.900
37708W        W 2869  25.977  28.992   3.704
37709W        W 2870  41.238  14.037   3.981
37710W        W 2871  10.322   4.964   4.978
37711W        W 2872  11.893  26.139  11.151
37712W        W 2873   3.522   0.490   0.800
37713W        W 2874   1.898  10.270   0.176
37714W        W 2875   7.402  19.290   1.937
37715W        W 2876  37.974  28.056   2.398
37716W        W 2877   6.363  43.892   4.575
37717W        W 2878  28.647  38.358  12.155
37718W        W 2879  10.826  18.484  13.317
37719W        W 2880  14.902   5.933  11.462
37720W        W 2881  41.191  23.179  12.951
37721W        W 2882  34.565  26.927   1.979
37722W        W 2883  19.569  22.902   0.776
37723W        W 2884  39.329  36.672  10.801
37724W        W 2885   7.460   5.275  13.047
37725W        W 2886  19.359  42.872   2.709
37726W        W 2887  31.048  28.145  10.546
37727W        W 2888  31.095   2.862   0.250
37728W        W 2889  11.042  38.487   2.665
37729W        W 2890  44.796  32.423   3.985
37730W        W 2891  41.634  22.009  11.938
37731W        W 2892   8.787  38.677  10.363
37732W        W 2893  43.550  37.450   2.625
37733W        W 2894  15.124   6.787   0.374
37734W        W 2895   9.345  36.473   0.530
37735W        W 2896  17.593  42.348  13.880
37736W        W 2897   6.250  28.399   1.846
37737W        W 2898   8.453   1.727  11.564
37738W        W 2899  30.424  30.458  12.023
37739W        W 2900  28.944  15.471  14.762
37740W        W 2901  27.411  40.595  13.520
37741W        W 2902  18.608   6.923  13.539
37742W        W 2903  13.237  26.508   1.944
37743W        W 2904  12.126  33.468  13.270
37744W        W 2905  28.982  40.350   3.701
37745W        W 2906   3.314   4.955   4.154
37746W        W 2907  44.436   7.366  10.981
37747W        W 2908  41.517  39.497   0.584
37748W        W 2909  31.604   7.396   2.936
37749W        W 2910  18.974   8.922   3.209
37750W        W 2911   1.444  26.149  14.014
37751W        W 2912  21.676   4.206  10.613
37752W        W 2913  39.131  36.503   2.401
37753W        W 2914  14.646  21.126  12.117
37754W        W 2915  19.290  15.763  12.633
37755W        W 2916  10.285  39.754   4.457
37756W        W 2917   1.694   1.389   2.811
37757W        W 2918   4.435  32.317   2.729
37758W        W 2919  38.505   8.392  12.898
37759W        W 2920  24.093  23.726  13.895
37760W        W 2921  22.464   1.068   2.786
37761W        W 2922   7.857  17.458   4.085
37762W        W 2923  12.790   9.557   1.773
37763W        W 2924  31.686  30.118   0.465
37764W        W 2925  26.209   5.354   0.720
37765W        W 2926   7.707   0.158  12.851
37766W        W 2927  27.267  36.961   4.377
37767W        W 2928  41.548  28.904   0.773
37768W        W 2929   2.071  19.310   4.082
37769W        W 2930   5.417  13.472   1.862
37770W        W 2931  14.211  23.310   1.235
37771W        W 2932  33.965  16.812   2.276
37772W        W 2933  32.896  23.562  14.991
37773W        W 2934  26.491  26.682  13.779
37774W        W 2935  44.955  38.896   0.799
37775W        W 2936  30.750   4.870  10.778
37776W        W 2937  40.466  26.093   3.682
37777W        W 2938  42.820   3.833   3.885
37778W        W 2939  17.902   2.692  12.242
37779W        W 2940  20.070  28.640  12.566
37780W        W 2941  29.710  12.760   3.826
37781W        W 2942  42.824  28.103   3.990
37782W        W 2943  30.470   1.468   1.068
37783W        W 2944   4.526  22.593   0.519
37784W        W 2945  20.598   4.876   3.488
37785W        W 2946   1.489  15.102   4.239
37786W        W 2947  23.442  28.165  13.227
37787W        W 2948   1.965  22.217   4.497
37788W        W 2949  42.078  16.183   3.818
37789W        W 2950  26.101  43.496   9.421
37790W        W 2951  41.945  37.127  14.895
37791W        W 2952  10.756   4.765   1.842
37792W        W 2953   2.055   6.228   2.846
37793W        W 2954  29.906  28.980   1.727
37794W        W 2955  22.449  36.486  13.522
37795W        W 2956   9.101  31.863  10.845
37796W        W 2957  18.930  37.011   3.225
37797W        W 2958   1.287  21.492  12.401
37798W        W 2959  39.816  32.747   0.888
37799W        W 2960  25.174  19.062   1.405
37800W        W 2961  26.188  40.502  13.115
37801W        W 2962  36.271  38.392  14.555
37802W        W 2963   8.385  44.256  11.708
37803W        W 2964  11.552  33.485   0.578
37804W        W 2965  32.011  37.334  12.077
37805W        W 2966  26.921   9.528   3.792
37806W        W 2967  42.994  18.397   0.621
37807W        W 2968   7.645  36.512  13.986
37808W        W 2969  41.840  21.674   0.957
37809W        W 2970  10.279  15.061  14.509
37810W        W 2971  14.657   9.526  13.154
37811W        W 2972   6.936  12.368   3.693
37812W        W 2973  42.542  31.045   0.394
37813W        W 2974  17.797  19.639   1.223
37814W        W 2975  12.130  42.601   1.337
37815W        W 2976  21.832   0.327  11.087
37816W        W 2977  11.347  22.514   3.204
37817W        W 2978  43.292  30.156   3.631
37818W        W 2979  44.005  27.899   1.284
37819W        W 2980  34.299   9.175   0.497
37820W        W 2981  42.500  16.785   0.218
37821W        W 2982  21.296  32.757   0.854
37822W        W 2983  23.424   3.513  11.073
37823W        W 2984  30.780  11.655  14.520
37824W        W 2985  41.475  37.519  12.330
37825W        W 2986  19.520  21.091   4.866
37826W        W 2987  28.479  41.974   1.050
37827W        W 2988  13.536  33.349   1.878
37828W        W 2989  37.434  32.492   0.213
37829W        W 2990   1.439   0.503   3.694
37830W        W 2991   1.252   9.899  11.950
37831W        W 2992   7.871  29.536  11.542
37832W        W 2993  18.574  21.619  13.580
37833W        W 2994  41.759  22.258   0.392
37834W        W 2995   0.855  15.903  12.516
37835W        W 2996  36.379   9.594  14.669
37836W        W 2997  40.362  35.538  13.815
37837W        W 2998  22.258  27.414   3.092
37838W        W 2999  30.192  28.658   4.056
37839W        W 3000  34.011  33.911  12.836
37840W        W 3001  40.900  28.131  11.244
37841W        W 3002   6.834  13.047   4.140
37842W        W 3003  16.107  25.530   2.396
37843W        W 3004  29.971  13.360   0.340
37844W        W 3005  42.575  24.561   2.678
37845W        W 3006  29.489  19.614   1.647
37846W        W 3007   1.713  30.807   0.030
37847W        W 3008   4.703  36.608  10.637
37848W        W 3009  20.528  15.615  13.152
37849W        W 3010  13.182  11.238   3.347
37850W        W 3011  30.843  12.828  13.326
37851W        W 3012  41.831  19.476  12.018
37852W        W 3013  19.436   6.915   3.110
37853W        W 3014  25.941   3.486   4.677
37854W        W 3015  28.921  23.463  12.083
37855W        W 3016  25.991  23.713   2.161
37856W        W 3017  34.802  28.739  12.324
37857W        W 3018  19.837  31.076  13.865
37858W        W 3019  28.713   3.936   0.575
37859W        W 3020  24.473  41.128   0.853
37860W        W 3021  12.286  34.995  11.571
37861W        W 3022   1.093   6.673  12.354
37862W        W 3023  11.715  40.448  14.894
37863W        W 3024   3.847   4.689   2.324
37864W        W 3025  35.311  15.530   0.442
37865W        W 3026   4.766  27.088   2.444
37866W        W 3027  10.208  35.324   1.108
37867W        W 3028  23.708  35.814  11.975
37868W        W 3029   5.104  34.508   2.421
37869W        W 3030  34.106   3.716  11.102
37870W        W 3031  35.942  41.014   2.609
37871W        W 3032  23.495  18.724   3.156
37872W        W 3033  22.717  18.217  12.577
37873W        W 3034   9.607  12.654   1.234
37874W        W 3035  33.589   1.195   0.392
37875W        W 3036  36.027   7.530   4.597
37876W        W 3037   0.219  29.970  12.453
37877W        W 3038  31.178  25.134   1.831
37878W        W 3039  11.683  34.568   2.814
37879W        W 3040  18.043  24.606   4.555
37880W        W 3041  14.176  39.047  13.605
37881W        W 3042  41.991  25.750  13.855
37882W        W 3043  42.557  29.407   4.261
37883W        W 3044  28.198  28.175   0.555
37884W        W 3045  35.395  27.848  13.788
37885W        W 3046  26.362  40.416   1.833
37886W        W 3047  28.605  33.680   2.687
37887W        W 3048  12.806  23.269   1.147
37888W        W 3049  40.188  15.080  12.717
37889W        W 3050   7.281  21.193   4.008
37890W        W 3051  11.231  27.275  12.957
37891W        W 3052  34.281  16.027  12.066
37892W        W 3053  24.546  25.002  14.540
37893W        W 3054  39.343   7.766  13.386
37894W        W 3055  31.681  25.222   4.931
37895W        W 3056  19.683  39.837   2.195
37896W        W 3057  44.729  35.172   2.722
37897W        W 3058  24.571  43.918   0.833
37898W        W 3059  41.335   6.591   3.177
37899W        W 3060  28.682  42.393  12.386
37900W        W 3061   9.831  28.628   1.346
37901W        W 3062  14.851  24.745   0.248
37902W        W 3063  35.114  39.033  14.412
37903W        W 3064  13.913   8.438  11.277
37904W        W 3065  35.467  22.294  13.822
37905W        W 3066  39.147  31.141   1.517
37906W        W 3067  13.612   5.826  12.429
37907W        W 3068  15.249  12.287   1.041
37908W        W 3069   9.403  11.698  12.447
37909W        W 3070  37.689   0.973   3.283
37910W        W 3071   3.030  27.988  10.714
37911W        W 3072  31.444  39.593  13.095
37912W        W 3073  17.617  44.756   3.711
37913W        W 3074   0.475   0.424   3.759
37914W        W 3075  16.607  22.687   1.857
37915W        W 3076  16.068  10.153  13.253
37916W        W 3077  44.277  43.705   0.818
37917W        W 3078  14.514   1.537   0.873
37918W        W 3079  41.825  28.913   5.388
37919W        W 3080   8.925  20.988   4.251
37920W        W 3081  19.257   7.387   0.420
37921W        W 3082  22.833  33.595  13.911
37922W        W 3083  16.577  16.026  10.625
37923W        W 3084  36.354  16.516   1.753
37924W        W 3085  16.428  18.131  10.521
37925W        W 3086  36.655  20.709   0.262
37926W        W 3087  27.270  11.779  14.428
37927W        W 3088  20.883  44.423   4.929
37928W        W 3089  22.496  17.592   4.451
37929W        W 3090  28.774  35.497  12.057
37930W        W 3091  42.336  24.647  14.135
37931W        W 3092  19.967  11.306   1.367
37932W        W 3093  17.387  19.870   4.133
37933W        W 3094   1.724  44.506   4.828
37934W        W 3095  36.509   0.152   1.376
37935W        W 3096  21.730  38.383  14.903
37936W        W 3097   2.446  35.821   1.580
37937W        W 3098  36.973   0.405   3.217
37938W        W 3099  16.260  44.400   3.684
37939W        W 3100  12.359  10.152  12.154
37940W        W 3101  13.291  34.418  12.835
37941W        W 3102   8.421  16.823   3.913
37942W        W 3103   0.932  33.865   2.326
37943W        W 3104   4.269  39.591  11.183
37944W        W 3105  23.690   1.459   2.606
37945W        W 3106  10.735  26.623  14.195
37946W        W 3107  15.669  18.216  13.011
37947W        W 3108   0.946  23.148   1.262
37948W        W 3109  21.652  12.324   4.134
37949W        W 3110  26.054   7.399   4.574
37950W        W 3111  38.645  23.278  11.246
37951W        W 3112   3.736  18.668  13.771
37952W        W 3113  20.363  17.014   0.790
37953W        W 3114  40.554   4.259  11.456
37954W        W 3115  12.362  40.737   4.473
37955W        W 3116  14.104  39.715  13.210
37956W        W 3117  32.884   8.409   1.072
37957W        W 3118  12.840   5.442  14.935
37958W        W 3119  26.587  38.526   1.820
37959W        W 3120  27.113  32.152  14.394
37960W        W 3121   1.994   9.983  12.592
37961W        W 3122  21.121  31.173   4.678
37962W        W 3123  14.609  31.214  12.479
37963W        W 3124  43.798  32.364  14.798
37964W        W 3125  13.387  34.886   3.679
37965W        W 3126  20.695  12.179   0.358
37966W        W 3127  40.850  22.257   2.370
37967W        W 3128   3.464  24.305   0.841
37968W        W 3129  30.187  43.693   2.075
37969W        W 3130   8.899  24.723   2.021
37970W        W 3131  25.970  12.883  14.144
37971W        W 3132  39.687  24.615  10.911
37972W        W 3133  17.261  31.013   4.474
37973W        W 3134  13.026  24.089   4.244
37974W        W 3135  26.464  22.981   1.216
37975W        W 3136  27.515  25.124  11.581
37976W        W 3137   5.238   3.375  14.909
37977W        W 3138  41.424   3.963   4.593
37978W        W 3139   9.288  39.860   0.884
37979W        W 3140  42.438  38.322  13.848
37980W        W 3141   9.482   9.914   0.708
37981W        W 3142  32.415  29.752  13.877
37982W        W 3143  16.306   7.460  12.816
37983W        W 3144   3.159  13.651   1.362
37984W        W 3145  25.597  33.131  12.440
37985W        W 3146  13.365   4.797  14.047
37986W        W 3147  22.754  22.775   3.281
37987W        W 3148  33.362   9.764   3.642
37988W        W 3149  42.484  17.350  10.755
37989W        W 3150  18.588  21.550   2.398
37990W        W 3151  24.221  15.383  14.422
37991W        W 3152  24.955  15.915   5.061
37992W        W 3153  14.216  40.817   9.648
37993W        W 3154   9.300  44.371  13.517
37994W        W 3155  43.223  13.625   1.309
37995W        W 3156  16.058  33.881   4.060
37996W        W 3157   9.626  14.594  10.740
37997W        W 3158  24.431   0.300  12.098
37998W        W 3159  26.704  41.945   2.829
37999W        W 3160  20.756   5.305   3.753
38000W        W 3161  20.317  26.370  14.788
38001W        W 3162  17.331  25.005   0.787
38002W        W 3163  22.873  23.978   2.707
38003W        W 3164  25.587  15.578   4.683
38004W        W 3165  18.559  21.709   1.680
38005W        W 3166  23.234  12.174  13.053
38006W        W 3167   5.081   7.998   5.008
38007W        W 3168  19.629  12.192  13.515
38008W        W 3169  17.505  42.021   1.888
38009W        W 3170  33.519   3.001  14.873
38010W        W 3171  40.970  30.150   0.789
38011W        W 3172  42.848  14.653   2.727
38012W        W 3173   4.322  38.317  10.431
38013W        W 3174   6.089  42.902   0.368
38014W        W 3175  40.987  28.361   1.139
38015W        W 3176  36.357   3.212  10.678
38016W        W 3177  26.621   8.250  10.734
38017W        W 3178  25.388  17.688   1.758
38018W        W 3179   7.595  15.693  12.511
38019W        W 3180  15.314   9.444   4.686
38020W        W 3181  22.601  27.505  11.120
38021W        W 3182   2.995   9.792   4.236
38022W        W 3183   6.139   7.122   4.518
38023W        W 3184  10.796  44.172   0.655
38024W        W 3185   8.808   3.253   1.725
38025W        W 3186  30.044  14.214   2.899
38026W        W 3187  12.228  41.700   4.832
38027W        W 3188  17.507  21.445  11.200
38028W        W 3189   4.646  37.003  12.934
38029W        W 3190  25.709  33.383   2.292
38030W        W 3191  11.056  10.290  14.874
38031W        W 3192  44.898  40.970  10.161
38032W        W 3193  35.153  40.754   1.273
38033W        W 3194  21.617  16.602  12.203
38034W        W 3195  10.913  30.029   4.208
38035W        W 3196   1.538  37.322   1.197
38036W        W 3197  38.088   7.695  13.835
38037W        W 3198  22.456  24.092  11.531
38038W        W 3199   3.243   9.319   3.681
38039W        W 3200  19.611  11.128  10.682
38040W        W 3201   5.617  17.317   1.202
38041W        W 3202  16.789  29.778  13.827
38042W        W 3203  30.487  40.281  14.770
38043W        W 3204   1.385  32.217  12.370
38044W        W 3205   5.213  29.019  11.489
38045W        W 3206  16.814   7.670   1.376
38046W        W 3207  19.290  32.059   0.494
38047W        W 3208  25.822  24.080  14.069
38048W        W 3209  32.033   3.151  13.092
38049W        W 3210  39.209   2.928  14.378
38050W        W 3211  12.329  15.761  13.312
38051W        W 3212   5.224  37.907  11.210
38052W        W 3213  29.347   4.849   2.840
38053W        W 3214  21.336   2.454   1.089
38054W        W 3215  37.314  36.031  14.953
38055W        W 3216  41.141   5.178  13.333
38056W        W 3217  36.906   9.923  12.108
38057W        W 3218  34.550  26.420   1.921
38058W        W 3219  22.737  11.155   5.132
38059W        W 3220  37.377  17.226  12.493
38060W        W 3221  17.493  11.297   4.870
38061W        W 3222  41.861  36.513   1.808
38062W        W 3223  41.504   1.845  12.400
38063W        W 3224  42.700  18.873  14.376
38064W        W 3225   9.878   7.518  14.246
38065W        W 3226  40.829  33.340   2.288
38066W        W 3227   4.748  32.601  12.014
38067W        W 3228   1.308  39.695  12.356
38068W        W 3229   3.802  39.449  12.024
38069W        W 3230  32.002  12.904  13.873
38070W        W 3231  30.130  39.011  14.025
38071W        W 3232  15.149  41.389  11.561
38072W        W 3233  19.373  14.059   2.333
38073W        W 3234  17.279  43.883  10.259
38074W        W 3235   0.738  26.880  14.149
38075W        W 3236   5.815  42.067  13.441
38076W        W 3237  17.960  30.530   3.202
38077W        W 3238  24.992   8.124  14.857
38078W        W 3239   4.301  38.243  13.426
38079W        W 3240   0.834  24.250  12.587
38080W        W 3241  11.834  44.466   1.685
38081W        W 3242  12.390   0.202  11.175
38082W        W 3243  10.258  23.612  11.203
38083W        W 3244   9.323  21.294   4.351
38084W        W 3245  30.918  33.441  11.537
38085W        W 3246  39.640   0.468  12.627
38086W        W 3247  28.725   2.072  13.462
38087W        W 3248  14.806  15.708  10.945
38088W        W 3249  15.055  26.491   3.594
38089W        W 3250  39.292   5.203  14.586
38090W        W 3251  11.272   1.843  14.399
38091W        W 3252  25.668  43.536   1.300
38092W        W 3253  16.991  36.320   2.304
38093W        W 3254  42.481  39.156  14.334
38094W        W 3255  42.583  18.322  13.945
38095W        W 3256   7.304  25.172  10.283
38096W        W 3257  22.972  23.094  14.868
38097W        W 3258   4.301  32.733   1.613
38098W        W 3259  39.081  23.275   2.427
38099W        W 3260  32.007  37.885  13.405
38100W        W 3261  36.408  35.504   1.166
38101W        W 3262  25.192  29.519   2.830
38102W        W 3263  16.623  16.167  14.730
38103W        W 3264  40.245  36.738  14.511
38104W        W 3265   0.387  19.753   2.826
38105W        W 3266  44.047   8.849   0.929
38106W        W 3267  40.412  28.024   1.330
38107W        W 3268   1.988  30.062  11.419
38108W        W 3269  26.573   0.348   3.103
38109W        W 3270  33.484  24.815  10.709
38110W        W 3271  25.691  18.082  12.457
38111W        W 3272  37.872  36.949   2.879
38112W        W 3273  31.999  33.400   0.769
38113W        W 3274  34.007  12.517   3.688
38114W        W 3275  25.072  35.484  13.470
38115W        W 3276  33.953  24.339   0.229
38116W        W 3277   4.680  23.265  11.634
38117W        W 3278  22.405  39.456   1.242
38118W        W 3279  39.942   7.588   4.681
38119W        W 3280  18.629  31.629  10.465
38120W        W 3281  19.843  38.307  10.849
38121W        W 3282  33.299   9.468  11.160
38122W        W 3283  32.118  16.853   2.264
38123W        W 3284  31.257  24.618   3.120
38124W        W 3285  19.246  22.461  14.441
38125W        W 3286  17.616  38.552  11.611
38126W        W 3287  28.161  13.348  11.168
38127W        W 3288  13.306  33.513  12.333
38128W        W 3289  12.846   6.830   1.929
38129W        W 3290  17.832   4.752  13.877
38130W        W 3291  16.687   7.346   0.923
38131W        W 3292  34.560  35.008  14.476
38132W        W 3293  37.297  34.126  12.104
38133W        W 3294  27.786  27.612   3.085
38134W        W 3295  20.647  23.460  14.775
38135W        W 3296  31.356  41.808  11.243
38136W        W 3297  19.291  40.408  12.289
38137W        W 3298  39.826  28.669   3.359
38138W        W 3299  21.829   6.932  11.496
38139W        W 3300  23.662  36.832  13.043
38140W        W 3301  39.266   4.467  13.343
38141W        W 3302   9.757  29.425   4.345
38142W        W 3303  30.864  36.041   0.438
38143W        W 3304  41.547  25.203   3.710
38144W        W 3305  23.805  20.321   2.894
38145W        W 3306  18.510   0.667  14.444
38146W        W 3307  33.832   0.156  14.733
38147W        W 3308  10.362   1.976  14.023
38148W        W 3309  34.094  15.611  10.969
38149W        W 3310  28.151  28.068  10.692
38150W        W 3311  29.042  40.802   3.419
38151W        W 3312  20.707  42.859  12.758
38152W        W 3313   0.980  42.330   3.317
38153W        W 3314  41.350  18.116  13.495
38154W        W 3315   9.651  20.501   1.745
38155W        W 3316  28.442  16.635  10.696
38156W        W 3317  41.059   3.159  10.902
38157W        W 3318   8.665   7.348  12.124
38158W        W 3319  29.943  29.543  10.678
38159W        W 3320  25.298  43.421   9.777
38160W        W 3321   4.342  42.928  14.850
38161W        W 3322  21.266  15.351  14.694
38162W        W 3323  29.165  32.522   2.702
38163W        W 3324  44.321   7.352   4.519
38164W        W 3325  11.127  38.386  13.370
38165W        W 3326  42.263  44.793   3.255
38166W        W 3327  21.209   6.286   0.284
38167W        W 3328  23.204  33.947   0.668
38168W        W 3329  14.598  37.488  12.946
38169W        W 3330  11.123  41.126  12.400
38170W        W 3331  40.073   2.468  11.033
38171W        W 3332  37.982  24.258  14.808
38172W        W 3333   4.838  18.375  14.814
38173W        W 3334  24.700   2.708   2.403
38174W        W 3335  18.674  28.180  13.882
38175W        W 3336  26.973   0.083  11.114
38176W        W 3337  25.362  10.319  13.446
38177W        W 3338   2.926  27.010  14.475
38178W        W 3339  39.854  21.710   4.599
38179W        W 3340  12.932  14.324  13.946
38180W        W 3341  10.737  15.113  11.571
38181W        W 3342   0.899  37.949   1.110
38182W        W 3343   2.229  28.717  13.517
38183W        W 3344  27.708  19.606   1.773
38184W        W 3345   4.078  21.550  13.659
38185W        W 3346   6.771   1.698  14.640
38186W        W 3347   3.902  23.811   1.687
38187W        W 3348  27.126  12.369   1.315
38188W        W 3349   5.881  33.181   0.379
38189W        W 3350   3.270  21.524   1.686
38190W        W 3351  40.003  27.144   2.773
38191W        W 3352  39.797  17.780   2.164
38192W        W 3353   5.011  23.402   2.363
38193W        W 3354  39.012  44.202   2.819
38194W        W 3355  34.369  35.041   3.765
38195W        W 3356  14.936  36.159  13.889
38196W        W 3357  14.718   4.655   4.052
38197W        W 3358  44.305  39.143  11.619
38198W        W 3359  28.183   9.304  12.143
38199W        W 3360  27.629   8.161  14.554
38200W        W 3361  32.182  26.582  11.222
38201W        W 3362  16.510  36.345   3.722
38202W        W 3363  34.316  15.156   2.700
38203W        W 3364  33.021  19.557   3.497
38204W        W 3365   5.072   8.365   3.748
38205W        W 3366   7.924  37.990   3.195
38206W        W 3367   7.834  41.279  11.983
38207W        W 3368  40.875  43.540  13.013
38208W        W 3369   3.767   1.367   3.715
38209W        W 3370  22.738  31.616  11.540
38210W        W 3371  37.238  32.464   4.202
38211W        W 3372  31.050  10.192  14.359
38212W        W 3373  42.396  35.568   1.428
38213W        W 3374  42.378   7.773   1.577
38214W        W 3375  23.225  14.001  13.818
38215W        W 3376  11.848  44.440   4.154
38216W        W 3377  23.219  11.158  11.535
38217W        W 3378  34.945   9.181  13.335
38218W        W 3379  32.487   3.685   3.160
38219W        W 3380  33.158  39.380   2.626
38220W        W 3381  42.497   0.755   2.040
38221W        W 3382   6.695   3.141  13.480
38222W        W 3383   5.812  33.529  10.763
38223W        W 3384  43.533  38.941   3.388
38224W        W 3385  14.391  32.344   0.329
38225W        W 3386  32.443  29.869   0.876
38226W        W 3387   1.777  25.606  13.335
38227W        W 3388  11.265  12.696  10.731
38228W        W 3389  27.844  23.237   0.327
38229W        W 3390  38.987  12.539   3.330
38230W        W 3391  22.168  19.104   5.066
38231W        W 3392   0.322   8.672  14.584
38232W        W 3393  13.887  22.562   2.923
38233W        W 3394  27.490  20.120  10.737
38234W        W 3395   2.229  29.090   0.343
38235W        W 3396  35.886   1.225   3.540
38236W        W 3397  36.074   5.028   3.055
38237W        W 3398  37.114   5.231  13.972
38238W        W 3399   4.455  17.026  11.647
38239W        W 3400  43.241  25.719  11.553
38240W        W 3401  18.611  25.388  12.100
38241W        W 3402  31.656  16.082   4.793
38242W        W 3403  19.401   5.819   1.773
38243W        W 3404  40.769   4.348   0.405
38244W        W 3405  20.898  42.707   3.240
38245W        W 3406   3.209   0.500  11.368
38246W        W 3407   4.816  11.118  12.924
38247W        W 3408   7.796  40.988  11.404
38248W        W 3409   1.872  35.404  11.420
38249W        W 3410  29.539  42.084  10.641
38250W        W 3411  39.803  35.409   2.796
38251W        W 3412  17.070   0.340   0.847
38252W        W 3413  19.731  16.208   0.735
38253W        W 3414  21.472  13.687  10.626
38254W        W 3415  18.211  17.767  10.688
38255W        W 3416  25.291  27.578  14.212
38256W        W 3417  26.238  44.227   1.451
38257W        W 3418  19.099  10.838  12.885
38258W        W 3419  19.658  37.825  10.715
38259W        W 3420   5.933   4.147  13.892
38260W        W 3421  34.329  28.148  14.850
38261W        W 3422   7.103  21.652   4.699
38262W        W 3423  28.101  14.899   1.422
38263W        W 3424   5.998  22.659  14.943
38264W        W 3425  20.455  42.420   3.192
38265W        W 3426  25.931  33.628   0.009
38266W        W 3427   2.174   1.371  12.899
38267W        W 3428  43.671  13.355   1.123
38268W        W 3429  31.101  21.035   0.282
38269W        W 3430  11.380   1.605   9.800
38270W        W 3431  10.209  24.467  13.716
38271W        W 3432   7.762  18.247   4.593
38272W        W 3433  28.539  20.026   2.756
38273W        W 3434  10.776  31.561   1.155
38274W        W 3435   9.905  15.889   0.852
38275W        W 3436  37.385  43.025  11.555
38276W        W 3437  26.701   9.745   4.196
38277W        W 3438  25.636  21.220   0.283
38278W        W 3439  41.887  18.594  11.934
38279W        W 3440  13.740  31.484   3.307
38280W        W 3441  38.140  38.680   1.788
38281W        W 3442  40.758  39.741  13.818
38282W        W 3443  17.691  31.727  12.417
38283W        W 3444  33.556   2.698  10.404
38284W        W 3445  33.497  20.552   2.748
38285W        W 3446  38.075  29.651  11.175
38286W        W 3447   5.262  11.106   4.754
38287W        W 3448  25.588  13.931  12.569
38288W        W 3449  27.742  36.347  11.204
38289W        W 3450   0.635  24.792   4.555
38290W        W 3451  13.109   0.820  11.561
38291W        W 3452  19.591  44.310  12.547
38292W        W 3453  10.704  21.049   4.747
38293W        W 3454   1.478  17.318   0.918
38294W        W 3455   1.674  39.298  12.357
38295W        W 3456  22.038  18.745   3.751
38296W        W 3457  18.082  22.090   4.039
38297W        W 3458  32.952  21.757  14.361
38298W        W 3459  27.886  44.750  11.013
38299W        W 3460  16.020  30.348   2.805
38300W        W 3461   8.862  19.524  10.303
38301W        W 3462   8.782   9.992  11.248
38302W        W 3463  15.027  33.394  12.382
38303W        W 3464   0.257  15.293  13.884
38304W        W 3465  43.941  37.928  13.453
38305W        W 3466   6.980  12.324   2.768
38306W        W 3467  25.302   9.856   9.852
38307W        W 3468  25.134  22.408  14.234
38308W        W 3469  13.344  37.322   3.742
38309W        W 3470  36.508  36.644  13.333
38310W        W 3471  33.920  30.888  12.574
38311W        W 3472  20.829  15.415  11.124
38312W        W 3473  35.323   7.999  11.111
38313W        W 3474   4.829   4.757  10.828
38314W        W 3475  34.467   7.427  11.162
38315W        W 3476  28.078   7.188  10.918
38316W        W 3477  38.640  25.628  13.782
38317W        W 3478   7.688  41.195   2.283
38318W        W 3479  40.936  29.233  10.654
38319W        W 3480  10.792   3.369  10.703
38320W        W 3481  11.273  13.790   3.625
38321W        W 3482  27.044   1.202   4.401
38322W        W 3483   1.540  17.323   3.106
38323W        W 3484  44.105  21.722   0.003
38324W        W 3485  37.163  28.215   4.194
38325W        W 3486  31.224   2.650   2.197
38326W        W 3487  28.363  27.011   2.685
38327W        W 3488  35.843   2.208  11.231
38328W        W 3489   5.960  19.250  14.892
38329W        W 3490  43.540   5.891  10.593
38330W        W 3491  32.765  43.295   2.256
38331W        W 3492  33.785   7.423   4.522
38332W        W 3493  25.054  44.905  11.163
38333W        W 3494  41.319  13.304  13.512
38334W        W 3495  24.428   4.274  11.566
38335W        W 3496  22.756  10.672   3.837
38336W        W 3497  39.143   8.868  11.530
38337W        W 3498   7.330  18.073  13.735
38338W        W 3499  44.731  23.071  13.305
38339W        W 3500  32.106  24.456   0.017
38340W        W 3501  38.340  27.517  11.898
38341W        W 3502  20.272  42.440  14.769
38342W        W 3503  36.919  42.825   3.629
38343W        W 3504   3.259  22.047  12.120
38344W        W 3505  19.978  22.159   0.992
38345W        W 3506  25.632  25.809   0.728
38346W        W 3507  43.375  44.990  11.148
38347W        W 3508   9.512  36.105  12.831
38348W        W 3509  18.854  10.894  11.189
38349W        W 3510   7.901  25.795  14.086
38350W        W 3511  22.275  35.951   3.272
38351W        W 3512  29.862   4.176   2.712
38352W        W 3513  41.954   9.181   4.871
38353W        W 3514   8.000  34.414   0.326
38354W        W 3515  36.286  15.844  11.671
38355W        W 3516  14.837  41.914   2.276
38356W        W 3517  15.497   9.860   1.394
38357W        W 3518   7.709  42.328  12.073
38358W        W 3519  10.409  22.430   4.591
38359W        W 3520  39.357  20.077   1.679
38360W        W 3521   1.269  42.806  11.273
38361W        W 3522   0.445  15.622  14.453
38362W        W 3523  41.455  32.500   2.414
38363W        W 3524  32.147  12.965   0.697
38364W        W 3525  15.349  35.433  14.326
38365W        W 3526   7.624  40.368  12.360
38366W        W 3527  27.575  27.610   3.582
38367W        W 3528  37.349  18.542   3.712
38368W        W 3529   8.271  23.761   3.262
38369W        W 3530  23.052   4.950  12.890
38370W        W 3531  25.365  15.216   3.208
38371W        W 3532  38.548  34.023   4.751
38372W        W 3533   2.429  32.224  10.706
38373W        W 3534  34.437  21.671  11.604
38374W        W 3535  28.028  28.483   9.945
38375W        W 3536  13.815  21.431   3.711
38376W        W 3537   0.455  37.379   0.503
38377W        W 3538  15.546  37.545   0.370
38378W        W 3539  39.607   9.602   1.730
38379W        W 3540  36.596  20.251   1.158
38380W        W 3541   9.310  14.254   1.793
38381W        W 3542  21.586   2.806   4.548
38382W        W 3543   9.873   0.770  11.876
38383W        W 3544  23.779  34.192  13.840
38384W        W 3545  22.237  37.768  13.967
38385W        W 3546   7.894  41.262   3.164
38386W        W 3547  20.834  42.250  11.136
38387W        W 3548   4.823  41.535   5.018
38388W        W 3549  30.160   1.889   1.241
38389W        W 3550  20.521   3.371  10.418
38390W        W 3551  42.527  31.017  14.525
38391W        W 3552  33.434   4.854   0.425
38392W        W 3553  22.719  26.668  14.911
38393W        W 3554   6.208   6.830   3.217
38394W        W 3555  29.195  27.851  12.825
38395W        W 3556   2.485  39.978   4.578
38396W        W 3557  30.692  12.113  10.720
38397W        W 3558  36.664  24.617  11.018
38398W        W 3559  36.496  29.446   3.199
38399W        W 3560  21.184  21.415   2.536
38400W        W 3561  13.221  32.836  14.088
38401W        W 3562  25.122  36.071  10.624
38402W        W 3563   5.219  25.926  12.862
38403W        W 3564   3.276  17.958   2.409
38404W        W 3565   9.857  24.682   1.382
38405W        W 3566  18.781   5.313  12.013
38406W        W 3567  36.786  10.742  10.842
38407W        W 3568  13.701  32.645  14.019
38408W        W 3569  19.770  33.993   1.319
38409W        W 3570   7.740  25.675  12.082
38410W        W 3571  34.562  22.554  10.585
38411W        W 3572  11.625   6.901   2.847
38412W        W 3573  42.453  39.241  11.895
38413W        W 3574  30.278   9.708   1.705
38414W        W 3575  42.328  10.946   1.790
38415W        W 3576  21.557  42.935  13.729
38416W        W 3577  40.203  35.349  12.498
38417W        W 3578   6.199  23.613   4.595
38418W        W 3579   1.068  17.085  10.700
38419W        W 3580  36.670  16.135   3.773
38420W        W 3581   9.691   4.855   0.721
38421W        W 3582  25.450  21.180   4.860
38422W        W 3583  14.362  34.395  11.101
38423W        W 3584   4.572  35.427   4.376
38424W        W 3585  14.438   3.481   2.797
38425W        W 3586  40.425  44.217   0.435
38426W        W 3587  37.320   1.281  13.071
38427W        W 3588   7.371  14.738  14.847
38428W        W 3589  31.091  15.181  14.776
38429W        W 3590  10.133  42.329   3.286
38430W        W 3591  38.503  40.737   0.546
38431W        W 3592   4.675   4.344   1.923
38432W        W 3593  16.176  15.184   0.693
38433W        W 3594   2.794  30.718  12.445
38434W        W 3595   9.917  44.334  14.402
38435W        W 3596  38.745  36.486  13.427
38436W        W 3597   2.251  17.784   3.145
38437W        W 3598  39.647  44.796  11.095
38438W        W 3599  37.501  11.413   4.368
38439W        W 3600  28.109  14.607  13.904
38440W        W 3601   6.681  31.003   0.871
38441W        W 3602  35.463  12.145   3.722
38442W        W 3603   9.169  29.733   2.787
38443W        W 3604   8.546  27.385  10.184
38444W        W 3605   6.335   5.258  10.579
38445W        W 3606  18.478  11.554   3.758
38446W        W 3607   4.189   5.287   2.153
38447W        W 3608  34.315  41.309   1.250
38448W        W 3609   4.174   6.905   2.346
38449W        W 3610  18.805   3.354  14.376
38450W        W 3611  13.583  32.059  11.960
38451W        W 3612  43.972  35.459  13.617
38452W        W 3613   2.953   5.655   3.800
38453W        W 3614  27.247  28.077   2.729
38454W        W 3615  25.436  26.854   2.214
38455W        W 3616   5.431   4.133   0.274
38456W        W 3617  43.499  32.925   5.391
38457W        W 3618  25.694  27.545  11.624
38458W        W 3619  27.975  15.538   4.146
38459W        W 3620   1.739   7.808   1.824
38460W        W 3621  31.480  36.044  12.007
38461W        W 3622  40.825  11.848   0.239
38462W        W 3623   6.839   9.379   3.194
38463W        W 3624  10.475  23.037   2.224
38464W        W 3625  33.983  43.455  12.102
38465W        W 3626  19.589  43.507   3.087
38466W        W 3627  14.592  30.535  13.161
38467W        W 3628   4.912  22.506   2.398
38468W        W 3629   5.108  37.693  10.705
38469W        W 3630  19.713  25.248   0.150
38470W        W 3631   9.486  12.902  14.319
38471W        W 3632  44.783  35.385  14.593
38472W        W 3633   2.842  32.472  14.765
38473W        W 3634  42.273  20.053   0.730
38474W        W 3635  17.024  28.852  14.443
38475W        W 3636  16.316  27.175  11.009
38476W        W 3637  40.406  19.674   3.705
38477W        W 3638   1.252  23.654  12.085
38478W        W 3639   2.276  37.865  11.437
38479W        W 3640  23.667   8.405  11.272
38480W        W 3641   9.114  29.378  14.056
38481W        W 3642  35.442  36.365  12.909
38482W        W 3643  11.873  25.036  12.334
38483W        W 3644  18.453   3.324  11.543
38484W        W 3645  40.969  43.404  14.065
38485W        W 3646  34.458  10.360  13.066
38486W        W 3647  33.709  27.112   4.272
38487W        W 3648  43.759  29.848  12.598
38488W        W 3649  19.748  23.034   4.269
38489W        W 3650  37.846  12.209   3.959
38490W        W 3651  33.009   2.731   5.028
38491W        W 3652  23.713   0.332  14.712
38492W        W 3653  42.424   2.948  12.127
38493W        W 3654   7.667  43.443  11.772
38494W        W 3655   4.024   1.822   1.126
38495W        W 3656  20.570  38.063  10.639
38496W        W 3657   5.559  44.550  12.379
38497W        W 3658  43.824  34.888   4.223
38498W        W 3659  41.334  31.187   3.510
38499W        W 3660  41.723  14.459  10.359
38500W        W 3661  15.279  23.740   1.872
38501W        W 3662  22.643  37.437   1.814
38502W        W 3663  16.026  12.476  13.022
38503W        W 3664  30.945   0.997   0.447
38504W        W 3665   4.757  17.820  11.553
38505W        W 3666  29.987  18.792   1.571
38506W        W 3667  32.835  43.013  10.766
38507W        W 3668  40.495  36.818   3.279
38508W        W 3669  34.797  38.037  12.497
38509W        W 3670  20.873  39.514  11.297
38510W        W 3671   3.748  10.748  10.712
38511W        W 3672  19.399  44.501   0.199
38512W        W 3673  28.713  22.591  10.175
38513W        W 3674  11.322  10.160  10.856
38514W        W 3675  11.743   8.646  11.016
38515W        W 3676  41.008  19.601  13.764
38516W        W 3677  24.109  27.165  12.402
38517W        W 3678   4.868  16.513   0.377
38518W        W 3679  11.236   4.708  13.122
38519W        W 3680  30.149  28.829  13.532
38520W        W 3681  39.917  32.335   1.203
38521W        W 3682  40.981  11.010  12.037
38522W        W 3683  26.066  23.108  11.329
38523W        W 3684  17.617   1.677  11.455
38524W        W 3685  26.051  12.341  14.294
38525W        W 3686   3.016  32.691   1.338
38526W        W 3687   5.926  14.899  11.467
38527W        W 3688  25.698   7.277  10.773
38528W        W 3689  10.197  16.139  12.541
38529W        W 3690  42.690  21.526   1.351
38530W        W 3691   4.016   9.629  14.489
38531W        W 3692  12.673  27.438  13.854
38532W        W 3693   1.263  27.775  10.593
38533W        W 3694  31.149  42.457  10.260
38534W        W 3695  32.615  33.390  12.624
38535W        W 3696  43.328  24.002  11.182
38536W        W 3697   0.267  37.438   0.052
38537W        W 3698  40.735  43.861  14.025
38538W        W 3699  10.800  22.987   1.804
38539W        W 3700  21.987  33.004  12.142
38540W        W 3701   1.662  21.294  11.489
38541W        W 3702  23.149  11.329  10.562
38542W        W 3703  16.217  18.213   2.630
38543W        W 3704  14.711   8.423   0.903
38544W        W 3705   8.597   4.065  11.564
38545W        W 3706  30.089  34.446  14.739
38546W        W 3707  38.295  44.315   1.420
38547W        W 3708  39.034  11.739   3.653
38548W        W 3709  24.666  10.244   1.258
38549W        W 3710  24.961  10.697   1.234
38550W        W 3711  33.099  31.089   0.401
38551W        W 3712  39.846  40.070   4.214
38552W        W 3713  33.755  33.983   0.481
38553W        W 3714  17.728  41.526   2.763
38554W        W 3715  38.100  15.226  13.435
38555W        W 3716  34.250  33.706   4.770
38556W        W 3717  25.671   6.370   4.287
38557W        W 3718  27.712   1.865   0.028
38558W        W 3719  21.720   9.406  14.646
38559W        W 3720   1.497  28.188  13.465
38560W        W 3721   5.364   1.923  11.985
38561W        W 3722  25.976   4.586  10.555
38562W        W 3723  22.496   2.291  11.574
38563W        W 3724  26.704  37.503   1.779
38564W        W 3725  32.845  13.183  13.911
38565W        W 3726   9.774   3.735  12.505
38566W        W 3727  23.083   9.794  11.732
38567W        W 3728  31.049   9.264  12.392
38568W        W 3729  11.379  36.690  14.515
38569W        W 3730  36.487  25.625  10.893
38570W        W 3731  16.091  22.595  14.963
38571W        W 3732  18.677   9.676   4.084
38572W        W 3733  27.731  18.194   4.717
38573W        W 3734  28.460  27.819  14.666
38574W        W 3735  18.796  32.080  13.071
38575W        W 3736  43.961  18.426   1.576
38576W        W 3737  16.040  18.861   0.612
38577W        W 3738  35.986  15.710  14.335
38578W        W 3739  15.858   9.051  14.793
38579W        W 3740  29.293  18.268   2.796
38580W        W 3741  32.320  33.096  14.842
38581W        W 3742  33.438  19.012  13.540
38582W        W 3743  19.608  19.509  13.078
38583W        W 3744  44.019   8.366   4.623
38584W        W 3745  18.451  11.666  14.363
38585W        W 3746  41.415   8.330   4.659
38586W        W 3747   4.432  21.938  13.885
38587W        W 3748  26.640  44.190  10.945
38588W        W 3749  29.354  17.525   9.957
38589W        W 3750   6.514   3.314  10.650
38590W        W 3751  13.724   3.287  13.053
38591W        W 3752   0.691   6.432  14.294
38592W        W 3753  20.909  36.469   4.975
38593W        W 3754   9.481   1.896   2.197
38594W        W 3755  44.208  31.074  11.591
38595W        W 3756  34.845   0.994  11.156
38596W        W 3757  30.003  37.515  11.109
38597W        W 3758   9.403   9.195  14.524
38598W        W 3759  23.503  37.348   3.898
38599W        W 3760  31.324  11.550   3.971
38600W        W 3761  21.805   8.888   1.879
38601W        W 3762  23.749  28.770  14.990
38602W        W 3763   5.444  32.581   3.650
38603W        W 3764   9.186  37.946  10.438
38604W        W 3765  39.421  25.115   0.651
38605W        W 3766   4.645  30.009  10.706
38606W        W 3767  35.310  24.563   4.272
38607W        W 3768  28.853  17.666  11.402
38608W        W 3769  18.307  20.924   0.705
38609W        W 3770  24.336  30.121   1.684
38610W        W 3771   4.815  24.973  10.354
38611W        W 3772  29.086  20.013   0.022
38612W        W 3773  36.945   8.173  14.423
38613W        W 3774   6.319  22.240   4.853
38614W        W 3775  36.507   2.676   0.339
38615W        W 3776   8.342  24.621  12.964
38616W        W 3777  16.821  34.913   0.829
38617W        W 3778  16.387   5.948   3.649
38618W        W 3779   5.252   7.184   4.341
38619W        W 3780   9.202  29.885   0.802
38620W        W 3781  23.837   8.828   3.538
38621W        W 3782  27.157   0.221   3.849
38622W        W 3783  27.941   2.678   3.225
38623W        W 3784  36.941  39.573   0.247
38624W        W 3785  42.027  41.519   0.917
38625W        W 3786   1.824   7.616  13.412
38626W        W 3787   9.497  41.514   3.541
38627W        W 3788  34.296  11.121  11.678
38628W        W 3789  18.732  32.534   4.839
38629W        W 3790  40.526  44.788   4.498
38630W        W 3791   6.827  34.693  12.057
38631W        W 3792   9.730  18.313  14.818
38632W        W 3793  28.523  24.123   4.690
38633W        W 3794  29.668   9.703   1.365
38634W        W 3795  43.570   8.704  12.498
38635W        W 3796  10.904  33.869  14.359
38636W        W 3797  41.893   8.773  13.956
38637W        W 3798  19.642  18.264  13.339
38638W        W 3799   1.416   6.846  11.052
38639W        W 3800   4.347  11.816  13.777
38640W        W 3801  44.934   8.097   3.897
38641W        W 3802  36.534   7.932  10.740
38642W        W 3803   6.810  43.928  13.342
38643W        W 3804  16.637  36.593   1.331
38644W        W 3805  13.615   9.711   1.308
38645W        W 3806  40.901  29.665  13.390
38646W        W 3807   0.826  32.002   2.348
38647W        W 3808  39.343  13.187  12.478
38648W        W 3809  26.184  21.781   3.654
38649W        W 3810  11.704  25.456  11.084
38650W        W 3811  22.316   1.923  12.621
38651W        W 3812  22.994  20.740   2.824
38652W        W 3813   2.410  24.721  12.103
38653W        W 3814  35.849  21.688   0.491
38654W        W 3815  13.592  10.570  13.328
38655W        W 3816  38.444  34.400  14.363
38656W        W 3817  17.824   5.494   0.003
38657W        W 3818  25.126  30.619   0.261
38658W        W 3819  12.339   1.266   2.368
38659W        W 3820  32.378  41.352  12.922
38660W        W 3821  31.136  30.036   1.411
38661W        W 3822  29.091   9.772  11.247
38662W        W 3823   2.781  32.441  14.249
38663W        W 3824   3.883  33.793   0.239
38664W        W 3825  43.387  34.157  11.573
38665W        W 3826  25.933   7.312   1.573
38666W        W 3827  30.684  23.675   2.173
38667W        W 3828  20.081  41.516   2.350
38668W        W 3829   6.536   1.828   2.826
38669W        W 3830  13.737  37.187  10.735
38670W        W 3831  13.653  19.975   3.631
38671W        W 3832  27.160  12.109   0.444
38672W        W 3833  24.126   0.429   0.479
38673W        W 3834  28.701   3.512  14.795
38674W        W 3835  36.114  28.173  12.422
38675W        W 3836   0.722   7.067  11.283
38676W        W 3837  31.268   0.369   1.310
38677W        W 3838  31.470  20.600   3.797
38678W        W 3839  41.016   3.657  14.900
38679W        W 3840  36.366  10.727  13.943
38680W        W 3841   6.885  14.652  11.643
38681W        W 3842   3.040  12.897   0.443
38682W        W 3843  34.180  28.975   0.519
38683W        W 3844   6.007  41.680   0.317
38684W        W 3845  29.393   1.508  14.014
38685W        W 3846   7.709   1.572   2.061
38686W        W 3847  39.735  11.798   0.849
38687W        W 3848  43.339   7.106  11.546
38688W        W 3849  36.868  16.200   3.297
38689W        W 3850  18.482   9.310   2.718
38690W        W 3851  28.648  25.327  13.733
38691W        W 3852  29.134  23.343   0.440
38692W        W 3853   9.488  10.725  10.678
38693W        W 3854  40.518  16.013  13.223
38694W        W 3855  25.701  19.587  11.497
38695W        W 3856  23.478  15.926   2.026
38696W        W 3857   9.569  27.095   1.623
38697W        W 3858   1.064  37.669   2.387
38698W        W 3859  20.299  15.172   3.087
38699W        W 3860  27.899  12.843  14.219
38700W        W 3861  34.463  33.336  14.556
38701W        W 3862  32.840  36.309   5.008
38702W        W 3863  10.706  29.486  14.562
38703W        W 3864  17.348  33.064  13.102
38704W        W 3865  12.620  28.628  10.441
38705W        W 3866   0.301   2.251   4.436
38706W        W 3867   2.964   8.909   3.793
38707W        W 3868   8.739  16.284   1.482
38708W        W 3869  43.454  30.159  14.932
38709W        W 3870  27.669  12.405  13.433
38710W        W 3871  28.000  42.075   4.725
38711W        W 3872  32.628   2.758   1.688
38712W        W 3873   7.420  33.303  14.480
38713W        W 3874   3.240   2.282  11.379
38714W        W 3875  40.494   6.308  13.528
38715W        W 3876  33.045  43.449  13.490
38716W        W 3877  17.105   5.868   0.515
38717W        W 3878   1.474   7.704   2.854
38718W        W 3879  12.783  20.425   3.781
38719W        W 3880  10.731  43.874   4.303
38720W        W 3881  37.523  12.582  11.482
38721W        W 3882  28.245   8.289  11.171
38722W        W 3883   1.359   7.810  14.203
38723W        W 3884  20.760   4.953   1.860
38724W        W 3885  22.641   2.008  14.858
38725W        W 3886  35.982   6.222   4.054
38726W        W 3887  13.472  42.310   4.446
38727W        W 3888   7.653  41.562  14.708
38728W        W 3889  31.188   7.696  11.789
38729W        W 3890  10.352  12.568   1.862
38730W        W 3891   4.189  25.001  11.161
38731W        W 3892  29.700  22.499  14.279
38732W        W 3893  34.903   7.165  11.229
38733W        W 3894  33.035  19.892  11.560
38734W        W 3895  10.126  28.581  11.909
38735W        W 3896  40.762  41.275   2.764
38736W        W 3897  30.817   3.374  14.814
38737W        W 3898  17.226  23.526   0.502
38738W        W 3899  32.246  26.377   0.756
38739W        W 3900  28.902  14.870   1.710
38740W        W 3901  12.474  15.968   4.687
38741W        W 3902   6.356  21.171  13.017
38742W        W 3903   9.773  33.791   3.954
38743W        W 3904  41.743  41.832  13.491
38744W        W 3905  38.393   9.158  13.932
38745W        W 3906  43.770   7.760   4.717
38746W        W 3907  36.550  39.928  12.599
38747W        W 3908  10.182  22.166   0.946
38748W        W 3909  41.212   7.524   2.373
38749W        W 3910  24.044  11.140   0.943
38750W        W 3911  18.649   8.762  14.742
38751W        W 3912  44.454  17.777  10.790
38752W        W 3913  40.589  30.688   2.223
38753W        W 3914  24.199   8.865   0.486
38754W        W 3915  29.950  11.719  10.918
38755W        W 3916   7.808  30.395   2.872
38756W        W 3917  19.243  18.397   1.290
38757W        W 3918  29.622  31.508   4.553
38758W        W 3919  40.678  13.498   2.787
38759W        W 3920  42.336  33.401   3.882
38760W        W 3921  10.596  31.110   2.894
38761W        W 3922  44.559   2.967  13.370
38762W        W 3923  40.176   5.810   0.349
38763W        W 3924  10.318  39.427  14.443
38764W        W 3925  17.775  14.371   1.282
38765W        W 3926   7.399  24.974  12.067
38766W        W 3927  17.575   1.877  12.903
38767W        W 3928   3.791  26.798  14.276
38768W        W 3929  40.750  34.147   4.122
38769W        W 3930  43.510   1.822  10.747
38770W        W 3931  35.306  21.744   1.376
38771W        W 3932  32.904  36.485   4.030
38772W        W 3933   7.790  14.396  11.936
38773W        W 3934  14.242  32.043   3.592
38774W        W 3935  15.106  43.735   4.134
38775W        W 3936  30.936  17.768   4.315
38776W        W 3937  19.954  43.647   0.601
38777W        W 3938  26.768  15.292   2.107
38778W        W 3939  30.630  30.499   4.577
38779W        W 3940   5.870  20.587  14.488
38780W        W 3941  33.628  26.778  11.932
38781W        W 3942   0.942  34.948   3.284
38782W        W 3943  29.482   8.200  11.725
38783W        W 3944  26.308  37.881  14.090
38784W        W 3945  19.760  12.582  12.842
38785W        W 3946   4.853  28.512  14.396
38786W        W 3947  20.644  43.090   0.224
38787W        W 3948  42.775  35.473  11.057
38788W        W 3949  17.256  33.712  12.146
38789W        W 3950  17.336  44.322   3.675
38790W        W 3951   0.344  16.125  14.382
38791W        W 3952  37.532   5.237  14.573
38792W        W 3953  38.374  26.056  12.879
38793W        W 3954   9.081  24.806  11.429
38794W        W 3955   4.879  10.303   4.688
38795W        W 3956  15.460  17.809   0.957
38796W        W 3957  31.939   0.289   2.402
38797W        W 3958  20.082   5.251   0.934
38798W        W 3959  12.873   2.890  13.846
38799W        W 3960  21.216  29.865   0.474
38800W        W 3961   0.398   2.146   0.312
38801W        W 3962   1.159  25.100   0.507
38802W        W 3963  39.411  17.554   3.114
38803W        W 3964  11.898  40.934  10.815
38804W        W 3965  15.255  27.481   0.203
38805W        W 3966  16.553  20.153   0.159
38806W        W 3967   8.906   1.764  14.928
38807W        W 3968  10.786   6.426  13.524
38808W        W 3969  35.352  24.283  14.566
38809W        W 3970  15.631  38.654  13.544
38810W        W 3971  39.876  26.869   4.612
38811W        W 3972  43.772  33.326   0.226
38812W        W 3973  10.659  36.074  14.378
38813W        W 3974  37.936   3.413   3.687
38814W        W 3975  30.220   6.657   0.473
38815W        W 3976   7.734   7.861   1.820
38816W        W 3977  39.516  18.818  13.351
38817W        W 3978  36.606  43.734   3.713
38818W        W 3979   0.896  14.845  12.553
38819W        W 3980  40.060  30.709  13.368
38820W        W 3981  30.331  32.559   1.415
38821W        W 3982   9.614  19.271   1.012
38822W        W 3983  33.548  42.951  11.081
38823W        W 3984  42.858  13.576   2.751
38824W        W 3985   8.208   3.780   2.410
38825W        W 3986  28.354  39.303  11.062
38826W        W 3987  25.607  30.118  10.661
38827W        W 3988   4.884   1.876  10.775
38828W        W 3989  16.672   3.837   3.239
38829W        W 3990  27.989  20.068   3.571
38830W        W 3991  32.894  34.508   3.220
38831W        W 3992  15.881  34.458   0.005
38832W        W 3993  36.481  19.142  13.014
38833W        W 3994  40.259  43.277   3.291
38834W        W 3995  16.675  37.549  12.786
38835W        W 3996  19.359  22.627   1.448
38836W        W 3997  10.887  24.753   2.787
38837W        W 3998  22.091   0.808  14.794
38838W        W 3999   2.758  39.538   4.750
38839W        W 4000  22.966  25.589  10.710
38840W        W 4001   2.759  24.201  11.074
38841W        W 4002  26.916  39.522  12.546
38842W        W 4003   2.711  12.075   4.015
38843W        W 4004  27.674  43.047  10.730
38844W        W 4005   2.448  24.512   2.686
38845W        W 4006  24.974  10.944   2.638
38846W        W 4007   0.697  44.743  12.504
38847W        W 4008  18.794  34.405  13.949
38848W        W 4009   8.903   5.426   3.124
38849W        W 4010  18.194  39.583  14.482
38850W        W 4011  40.947  43.207  14.559
38851W        W 4012  18.572  13.861  10.444
38852W        W 4013  11.733  30.469   1.005
38853W        W 4014  12.837  34.429   1.294
38854W        W 4015  37.946   4.395  10.544
38855W        W 4016  34.106  43.526  10.644
38856W        W 4017   1.145  38.787   2.704
38857W        W 4018  30.384  35.478  14.402
38858W        W 4019  21.303  36.882   2.530
38859W        W 4020  18.644  33.008  14.929
38860W        W 4021  13.781  20.439   3.397
38861W        W 4022   7.414  38.542  14.820
38862W        W 4023  42.595  35.530  14.797
38863W        W 4024  27.970  44.233   2.825
38864W        W 4025   4.403  28.141  12.088
38865W        W 4026  31.575  27.700  10.733
38866W        W 4027  23.562  21.700   0.325
38867W        W 4028   4.934  17.604   2.839
38868W        W 4029  10.982  11.404   4.573
38869W        W 4030  25.417  23.642   0.179
38870W        W 4031  31.199  35.998  12.469
38871W        W 4032  11.889  30.781  11.662
38872W        W 4033  28.530  40.037   3.621
38873W        W 4034  11.703  25.728  14.508
38874W        W 4035  42.721  34.797  13.587
38875W        W 4036  32.107  17.988  11.120
38876W        W 4037  33.495   9.420  10.648
38877W        W 4038  40.766  42.980   2.862
38878W        W 4039  18.532  16.192   2.745
38879W        W 4040  34.841  15.751  14.397
38880W        W 4041  38.521  37.098   0.250
38881W        W 4042  25.291  38.160  12.515
38882W        W 4043  39.592  14.686  14.933
38883W        W 4044  39.751  25.575  13.953
38884W        W 4045  36.879  41.940   9.682
38885W        W 4046  22.455  36.201   3.685
38886W        W 4047  14.689  36.096   4.061
38887W        W 4048  26.114   0.610  14.469
38888W        W 4049  36.623  36.828   2.227
38889W        W 4050  13.684  34.877   4.577
38890W        W 4051  25.240   1.408   0.232
38891W        W 4052   0.046  23.547   3.247
38892W        W 4053  40.513  16.800   3.952
38893W        W 4054  41.406   6.678   0.858
38894W        W 4055  24.249  32.009   2.652
38895W        W 4056  32.858  14.915   2.368
38896W        W 4057  11.962  15.698  10.365
38897W        W 4058  23.429  30.071   1.450
38898W        W 4059  12.892   4.726  11.479
38899W        W 4060  38.295  17.120   4.334
38900W        W 4061  10.758  24.969  12.039
38901W        W 4062  35.907  42.541   4.389
38902W        W 4063  24.225  21.003   2.751
38903W        W 4064  21.139  38.559  14.185
38904W        W 4065  29.608  12.353  13.734
38905W        W 4066  35.405  18.949   3.708
38906W        W 4067  10.255   3.389   3.603
38907W        W 4068  30.416   0.666  14.469
38908W        W 4069  20.333  27.172   4.308
38909W        W 4070  11.538  13.658  10.926
38910W        W 4071  31.591  42.769  11.099
38911W        W 4072  30.057  14.648  10.723
38912W        W 4073  36.398   3.498   4.727
38913W        W 4074  21.839   1.985  12.424
38914W        W 4075  24.042  15.097   1.396
38915W        W 4076   0.850  19.532   1.602
38916W        W 4077   4.667   7.247  12.181
38917W        W 4078  15.353  16.836  14.447
38918W        W 4079  22.464  28.745   4.851
38919W        W 4080  17.262  44.109  13.895
38920W        W 4081  13.904  25.647  11.577
38921W        W 4082  35.380  13.419   3.204
38922W        W 4083  41.279  39.600  14.741
38923W        W 4084  44.443  38.641  12.456
38924W        W 4085  40.444  28.947   3.860
38925W        W 4086  17.759  18.174  14.320
38926W        W 4087  14.214  11.752  12.795
38927W        W 4088  41.738   0.921  14.659
38928W        W 4089  29.155  21.916   3.730
38929W        W 4090  42.682  12.235   3.157
38930W        W 4091  29.994  31.902   0.502
38931W        W 4092  11.922  21.572   0.373
38932W        W 4093  31.978  35.520   2.887
38933W        W 4094  19.229   5.940   4.476
38934W        W 4095  24.615  18.129   0.313
38935W        W 4096  27.189   0.653  14.756
38936W        W 4097  14.763  27.447  11.280
38937W        W 4098   3.754   8.763  12.618
38938W        W 4099   1.765  27.091   1.182
38939W        W 4100  21.823  30.578  12.970
38940W        W 4101  33.541  35.086   2.849
38941W        W 4102  21.538  40.093   4.139
38942W        W 4103  10.464  21.992  12.032
38943W        W 4104  12.333  11.943  11.671
38944W        W 4105  11.844  32.639  14.230
38945W        W 4106  26.922  33.537  13.962
38946W        W 4107   5.781  35.305  11.495
38947W        W 4108  18.391   8.522   3.687
38948W        W 4109  41.294  21.438   3.473
38949W        W 4110  35.527  10.186   2.603
38950W        W 4111  30.449   5.323  11.659
38951W        W 4112   2.693   3.682   3.585
38952W        W 4113  34.666  32.034   4.037
38953W        W 4114  38.999   1.982  14.518
38954W        W 4115  16.189  26.542  13.992
38955W        W 4116  16.589  42.943   2.662
38956W        W 4117  43.327  31.524   0.791
38957W        W 4118  43.777  22.116  12.617
38958W        W 4119  10.708   4.284  13.447
38959W        W 4120  10.265  11.366   3.086
38960W        W 4121   6.018  38.038  12.125
38961W        W 4122  35.816  43.787   0.633
38962W        W 4123  12.787   4.815   1.854
38963W        W 4124  20.618   5.500   3.237
38964W        W 4125  39.971   3.922   3.986
38965W        W 4126  31.111   7.959   0.335
38966W        W 4127  16.784  38.442   3.602
38967W        W 4128  24.968   4.540   2.178
38968W        W 4129   6.849  18.416  10.487
38969W        W 4130  38.308  38.808   4.307
38970W        W 4131  33.525  12.535   5.454
38971W        W 4132  43.091  23.175   3.461
38972W        W 4133  17.763  38.447   3.643
38973W        W 4134  20.695  18.676   2.890
38974W        W 4135   4.536  14.548  10.720
38975W        W 4136  31.715  38.053   4.598
38976W        W 4137  19.133  36.560  13.442
38977W        W 4138   7.380  18.236   0.781
38978W        W 4139  15.077   7.617  11.973
38979W        W 4140   9.277  35.957  10.363
38980W        W 4141  16.562  20.564   4.612
38981W        W 4142  34.201  39.076   1.923
38982W        W 4143   9.810  41.956   1.905
38983W        W 4144  36.172  23.701   3.642
38984W        W 4145  24.030   9.403  12.956
38985W        W 4146  13.996  25.163  12.059
38986W        W 4147  34.790  35.119  11.655
38987W        W 4148  44.378   9.876  11.204
38988W        W 4149  21.985   8.269  12.826
38989W        W 4150  19.875  43.396   1.807
38990W        W 4151   6.294  10.699  11.291
38991W        W 4152   7.778  15.721   3.715
38992W        W 4153  38.064  11.856   0.490
38993W        W 4154  25.411  15.242  11.863
38994W        W 4155  37.116  30.890   4.352
38995W        W 4156   1.348  16.076  14.382
38996W        W 4157  41.883  10.570  14.467
38997W        W 4158  42.918  42.092  11.239
38998W        W 4159  38.008  33.537  10.165
38999W        W 4160  11.663  11.197   0.463
39000W        W 4161  17.404  13.200  10.797
39001W        W 4162  29.483  32.069   3.679
39002W        W 4163  20.100  32.865  13.007
39003W        W 4164  44.716  13.874  12.948
39004W        W 4165   7.733  28.424   2.893
39005W        W 4166   3.491  18.126  14.784
39006W        W 4167  20.530  31.201  14.507
39007W        W 4168  25.919  29.979   2.874
39008W        W 4169  40.743  11.125   4.712
39009W        W 4170   2.636  43.912  14.824
39010W        W 4171  27.204   2.904   2.705
39011W        W 4172  20.711  37.362   2.238
39012W        W 4173  43.489  28.076   2.138
39013W        W 4174  32.622  34.826  13.277
39014W        W 4175   6.503  28.544  11.236
39015W        W 4176  40.193  37.796  14.853
39016W        W 4177  39.557  40.181   2.614
39017W        W 4178   4.395  11.040   4.528
39018W        W 4179   9.492  41.795  10.505
39019W        W 4180   6.396  27.565   1.909
39020W        W 4181  19.300  12.390   0.381
39021W        W 4182  30.133  13.836   4.637
39022W        W 4183  18.525  10.751  13.938
39023W        W 4184   5.162   8.763  11.636
39024W        W 4185  12.198  39.856   1.278
39025W        W 4186  18.850  20.049  12.531
39026W        W 4187  32.899   6.897   4.400
39027W        W 4188  28.114  10.884   4.693
39028W        W 4189   1.974   4.705   0.878
39029W        W 4190   1.382  12.541   2.385
39030W        W 4191  30.980  27.000   1.871
39031W        W 4192  38.989  16.662   0.019
39032W        W 4193  23.151  42.355   2.781
39033W        W 4194   1.859  28.481  14.626
39034W        W 4195  25.352   9.693  12.499
39035W        W 4196  34.614  27.255   4.288
39036W        W 4197  33.802  10.302   1.214
39037W        W 4198  43.359  35.550   1.813
39038W        W 4199  36.005  28.093  11.676
39039W        W 4200   5.379   1.010   1.798
39040W        W 4201  44.810  13.353   0.426
39041W        W 4202  28.516   9.260  14.194
39042W        W 4203  31.050  16.572  11.062
39043W        W 4204   5.784  31.332   3.223
39044W        W 4205  35.499  14.023   0.821
39045W        W 4206  22.219  18.157  10.129
39046W        W 4207   0.202  30.592   2.175
39047W        W 4208  38.836  17.101  11.611
39048W        W 4209  37.992  17.845   3.404
39049W        W 4210  29.204  19.102  13.428
39050W        W 4211  39.012  22.946  10.683
39051W        W 4212  16.316  33.149  12.048
39052W        W 4213  27.118  12.216  14.122
39053W        W 4214  24.637   1.405   2.618
39054W        W 4215  31.622  14.645  11.121
39055W        W 4216   4.506   9.155   4.175
39056W        W 4217   7.133   3.163  11.501
39057W        W 4218  14.904  41.913  14.780
39058W        W 4219   1.052  29.675   9.993
39059W        W 4220  22.083  30.082  14.936
39060W        W 4221  36.251   6.996   1.836
39061W        W 4222  16.796  40.866   5.775
39062W        W 4223   6.210  36.384   3.111
39063W        W 4224  23.269  19.505  13.719
39064W        W 4225  44.365   4.084  11.633
39065W        W 4226  24.776  31.676   0.260
39066W        W 4227  23.416  38.627  13.720
39067W        W 4228  41.821  38.592  11.723
39068W        W 4229  40.922  22.955  11.437
39069W        W 4230  19.466  22.220   5.302
39070W        W 4231   5.492  31.248  10.573
39071W        W 4232  26.515  26.234   4.842
39072W        W 4233   2.905  44.462  13.097
39073W        W 4234  16.079  15.939   2.905
39074W        W 4235  12.240  38.569   0.752
39075W        W 4236  26.032  39.997   0.935
39076W        W 4237  43.044  16.178  11.045
39077W        W 4238  42.773  38.317   1.404
39078W        W 4239   0.707  24.460   2.038
39079W        W 4240  25.446   2.273  11.169
39080W        W 4241  18.325  19.144  13.496
39081W        W 4242  40.881  38.815  10.808
39082W        W 4243   0.312   2.343   2.500
39083W        W 4244   8.940  25.170   4.949
39084W        W 4245  19.581  35.659   4.040
39085W        W 4246  20.977  13.039  13.980
39086W        W 4247  10.624  30.699  13.983
39087W        W 4248  37.405  38.870   2.751
39088W        W 4249  16.987  42.178   5.398
39089W        W 4250  38.617  43.014   4.927
39090W        W 4251   4.108   6.988  13.991
39091W        W 4252  21.576  40.816   0.608
39092W        W 4253   6.457  26.217  11.777
39093W        W 4254  25.472  43.676   3.602
39094W        W 4255   4.034  11.163  10.371
39095W        W 4256  16.984  33.920   3.597
39096W        W 4257  33.339  18.699   4.400
39097W        W 4258   6.390  29.985  12.029
39098W        W 4259   6.438  18.622   4.598
39099W        W 4260   2.649   9.919  13.861
39100W        W 4261  23.983  17.317   2.743
39101W        W 4262   4.779  22.444   0.935
39102W        W 4263  34.777   3.873  12.629
39103W        W 4264  42.397   5.374   2.837
39104W        W 4265   7.138  15.580   3.021
39105W        W 4266  27.431  15.141  12.044
39106W        W 4267  33.499  35.547  11.085
39107W        W 4268  34.893  18.532   2.940
39108W        W 4269  37.709   9.712  13.046
39109W        W 4270  12.838  14.783   1.325
39110W        W 4271  11.369  38.968   1.814
39111W        W 4272   5.906  15.737   2.542
39112W        W 4273  16.226  31.023  13.914
39113W        W 4274   7.766  23.695  10.081
39114W        W 4275  14.737  10.045   3.313
39115W        W 4276  21.417  35.945  12.809
39116W        W 4277  32.303  15.838   1.652
39117W        W 4278   9.986  19.667  12.463
39118W        W 4279  27.661   3.553  12.923
39119W        W 4280  18.941   5.592  13.587
39120W        W 4281   6.792   5.900   2.889
39121W        W 4282  32.031  24.670  12.932
39122W        W 4283  43.648  40.763   4.889
39123W        W 4284   4.990   1.439  12.653
39124W        W 4285   5.360  25.674   4.064
39125W        W 4286  13.384  39.455  12.675
39126W        W 4287  18.313  26.604  13.487
39127W        W 4288  12.250   7.683   2.725
39128W        W 4289   6.241  41.944   2.144
39129W        W 4290   0.695  24.201   2.935
39130W        W 4291  17.335  42.785  13.655
39131W        W 4292   3.331  41.992  13.836
39132W        W 4293  29.120  31.871  11.554
39133W        W 4294  44.749  27.971   4.632
39134W        W 4295  23.458  25.691  14.873
39135W        W 4296  43.925  16.688  12.415
39136W        W 4297  34.180  40.577  13.873
39137W        W 4298   3.418  14.403   5.091
39138W        W 4299  38.942  18.820   0.202
39139W        W 4300  35.773  17.774   1.836
39140W        W 4301  41.884  17.371   2.462
39141W        W 4302   9.379   8.198   0.333
39142W        W 4303  11.602   6.146   3.251
39143W        W 4304  38.279  24.737  13.370
39144W        W 4305  21.560  43.420   4.814
39145W        W 4306   3.354   6.467  13.467
39146W        W 4307  39.596  26.597   1.165
39147W        W 4308  39.111  37.101   0.960
39148W        W 4309  29.458  39.341   3.202
39149W        W 4310  33.912  40.295   2.334
39150W        W 4311  31.997   4.745  10.546
39151W        W 4312  14.173  44.682   0.625
39152W        W 4313   9.796  18.132  12.914
39153W        W 4314  37.242  43.377   1.804
39154W        W 4315  30.909   4.713   4.101
39155W        W 4316  14.032  41.617   4.110
39156W        W 4317  18.704   7.871   0.937
39157W        W 4318   0.736   3.526   4.875
39158W        W 4319  12.334  33.916   4.565
39159W        W 4320   8.448  17.143   1.673
39160W        W 4321  40.988  36.074   4.288
39161W        W 4322   4.328  13.396  14.740
39162W        W 4323  35.817   2.878  12.591
39163W        W 4324  12.847   9.088   2.745
39164W        W 4325  22.687  24.680   4.335
39165W        W 4326  30.151  23.643   1.285
39166W        W 4327  34.605  24.487  11.142
39167W        W 4328  18.803  10.584   3.859
39168W        W 4329  44.842  14.597  10.699
39169W        W 4330  14.563  28.538  10.732
39170W        W 4331  16.606  26.866   2.100
39171W        W 4332  18.413  39.801  12.499
39172W        W 4333  30.702   3.895   4.471
39173W        W 4334  29.947  33.178   0.015
39174W        W 4335   5.314  11.264  14.983
39175W        W 4336  10.858   2.983  12.846
39176W        W 4337   6.457  42.076   3.011
39177W        W 4338  14.124  17.348  14.043
39178W        W 4339  14.623  43.803  13.136
39179W        W 4340  24.239  36.078  11.542
39180W        W 4341   2.828   9.111  13.005
39181W        W 4342  12.269  16.882   3.995
39182W        W 4343  40.104  29.909   2.688
39183W        W 4344  21.131  39.954   2.235
39184W        W 4345  27.778  37.491   3.111
39185W        W 4346  42.900  21.905   2.848
39186W        W 4347  10.655  16.793  10.526
39187W        W 4348  23.036   8.738  10.308
39188W        W 4349  27.032  33.391  10.274
39189W        W 4350  31.092  15.085  13.450
39190W        W 4351  10.604  15.734   3.153
39191W        W 4352  41.434  33.624   2.414
39192W        W 4353  15.626  32.529   1.511
39193W        W 4354  43.557  20.489   4.267
39194W        W 4355   1.271  37.582   3.466
39195W        W 4356  37.178   8.354   0.818
39196W        W 4357   6.303   9.489  10.680
39197W        W 4358   1.175  25.100   2.406
39198W        W 4359  34.553  26.969  13.626
39199W        W 4360  34.101  34.104  11.939
39200W        W 4361  42.103  42.396   4.703
39201W        W 4362  29.586  17.100  14.874
39202W        W 4363  14.157  31.398  11.540
39203W        W 4364  19.500  44.929  11.105
39204W        W 4365  13.704  42.202   1.328
39205W        W 4366  18.218  10.218  12.833
39206W        W 4367  11.133   1.449  14.984
39207W        W 4368  15.630  12.007   1.860
39208W        W 4369  22.624  25.739  11.977
39209W        W 4370  24.488  18.912   4.581
39210W        W 4371  34.429  28.393  13.099
39211W        W 4372  11.491   7.847  10.855
39212W        W 4373  20.944  12.579  13.469
39213W        W 4374  42.390   8.260  11.277
39214W        W 4375  29.371  43.626  11.131
39215W        W 4376  30.008  40.223  14.945
39216W        W 4377   1.213   7.900   1.821
39217W        W 4378   5.031  34.612   1.003
39218W        W 4379  11.797  20.647   0.410
39219W        W 4380  23.002   9.671   4.092
39220W        W 4381  39.869  12.757   4.472
39221W        W 4382  13.805  42.006   0.425
39222W        W 4383   4.821  36.244   4.606
39223W        W 4384   8.807  19.505  14.855
39224W        W 4385   3.811  19.263  13.077
39225W        W 4386  38.550  22.042  13.972
39226W        W 4387  33.909   4.849  13.209
39227W        W 4388  13.557   7.777   4.218
39228W        W 4389  43.231   6.607  14.193
39229W        W 4390   0.157   0.517   1.827
39230W        W 4391  37.582  44.830   3.566
39231W        W 4392   0.739  24.386   0.227
39232W        W 4393  41.492   2.775  12.911
39233W        W 4394  14.564  10.770   4.680
39234W        W 4395  44.281  44.408   3.835
39235W        W 4396  10.198   8.946  14.572
39236W        W 4397   5.773  38.638  14.197
39237W        W 4398  34.115  22.638   4.592
39238W        W 4399  24.459   8.227  14.860
39239W        W 4400  32.170  19.111  13.987
39240W        W 4401  28.507  16.521   4.904
39241W        W 4402   0.723   1.575   0.727
39242W        W 4403  35.464  25.642   2.780
39243W        W 4404  38.960   9.806   0.511
39244W        W 4405  29.750  13.297   3.486
39245W        W 4406  11.897  39.954  14.966
39246W        W 4407  15.125  18.836  11.970
39247W        W 4408   7.282  37.533  11.491
39248W        W 4409  31.140  31.796   1.797
39249W        W 4410  41.788   0.023   1.991
39250W        W 4411   1.708  29.494   4.137
39251W        W 4412  12.188  18.748   4.472
39252W        W 4413  27.180  23.939   2.238
39253W        W 4414  37.010   1.839  13.587
39254W        W 4415   4.968  20.750  13.341
39255W        W 4416  18.764   5.483  14.082
39256W        W 4417  24.229  20.132   1.202
39257W        W 4418  39.259  16.480   2.326
39258W        W 4419  31.953   9.084  11.558
39259W        W 4420  10.561  33.127   1.253
39260W        W 4421  35.982  30.339  11.005
39261W        W 4422   4.208  43.067   2.643
39262W        W 4423  27.906   2.485   1.412
39263W        W 4424   4.674   3.360   0.725
39264W        W 4425  11.242  20.219   2.310
39265W        W 4426  22.322  14.143   0.294
39266W        W 4427  18.385  32.583   0.114
39267W        W 4428   9.554  10.164   1.145
39268W        W 4429  19.665  37.409   3.554
39269W        W 4430  21.974  16.730   4.631
39270W        W 4431   7.869  43.314  14.311
39271W        W 4432   6.960  39.947  12.040
39272W        W 4433  22.254  41.519   4.219
39273W        W 4434   3.055  36.505   1.079
39274W        W 4435   7.474  23.440   2.228
39275W        W 4436  14.587  12.614   0.668
39276W        W 4437  27.052  13.156  13.757
39277W        W 4438  35.989  17.776  10.507
39278W        W 4439   1.641  44.595  11.147
39279W        W 4440  42.324  22.620   3.848
39280W        W 4441   6.327  18.181  13.998
39281W        W 4442  39.344  20.314  11.565
39282W        W 4443  23.246  23.075  10.936
39283W        W 4444  38.394   6.816  14.964
39284W        W 4445  12.585   8.957   4.730
39285W        W 4446  20.084  44.995   2.863
39286W        W 4447  17.525  36.437  14.291
39287W        W 4448  15.682  42.358  14.436
39288W        W 4449  20.040   7.696  14.989
39289W        W 4450  22.161  21.703  12.028
39290W        W 4451  31.928  14.827   1.296
39291W        W 4452  30.790  40.861   5.449
39292W        W 4453  40.790  35.479   2.768
39293W        W 4454  14.891  39.309  11.541
39294W        W 4455  27.059  21.158  14.307
39295W        W 4456  26.426  12.150   2.377
39296W        W 4457  38.597  39.001  13.456
39297W        W 4458   7.648   3.317  10.526
39298W        W 4459  10.770  14.622  12.365
39299W        W 4460   4.414  12.865   3.212
39300W        W 4461  33.728  26.527  11.026
39301W        W 4462  34.374   5.490  11.668
39302W        W 4463  11.637  38.800  13.826
39303W        W 4464  40.269  10.893  14.994
39304W        W 4465   6.876  41.378   4.899
39305W        W 4466  13.769  37.672  11.704
39306W        W 4467   2.868  14.336   5.044
39307W        W 4468   9.660  24.394   2.363
39308W        W 4469  11.142  15.621   4.707
39309W        W 4470  32.466  15.311   2.183
39310W        W 4471  35.362  21.360  11.240
39311W        W 4472  14.475  12.998  11.102
39312W        W 4473  25.666  26.459  10.683
39313W        W 4474  35.144  14.557  14.909
39314W        W 4475   2.402  19.761   3.379
39315W        W 4476  42.444   3.892  14.292
39316W        W 4477  17.504   2.381   1.284
39317W        W 4478  37.659  36.847   1.485
39318W        W 4479  13.778  40.939   0.230
39319W        W 4480   7.756  42.263  14.351
39320W        W 4481   2.365  34.673  10.365
39321W        W 4482   8.704  41.384  11.543
39322W        W 4483  37.806   8.131   2.993
39323W        W 4484   4.445   8.046   1.281
39324W        W 4485  33.542  18.960  14.445
39325W        W 4486  44.868  36.236   2.794
39326W        W 4487  11.494  39.230   2.830
39327W        W 4488  21.548  17.254  13.872
39328W        W 4489  21.676   6.062   0.334
39329W        W 4490  40.490  12.588  11.768
39330W        W 4491  44.382  36.542  11.994
39331W        W 4492  31.835  26.162  11.920
39332W        W 4493  38.054  16.770  14.063
39333W        W 4494   9.167   2.929   4.625
39334W        W 4495  44.668  11.899   1.170
39335W        W 4496  14.669  26.648   2.242
39336W        W 4497  44.219   8.428   3.642
39337W        W 4498  39.656  15.023  10.814
39338W        W 4499  26.431   5.970   3.677
39339W        W 4500   3.481  37.341   4.335
39340W        W 4501   0.021  15.920   1.271
39341W        W 4502  22.234   2.888  13.958
39342W        W 4503  35.679  22.183   0.600
39343W        W 4504  16.739  35.595   3.278
39344W        W 4505  37.593   3.372   0.219
39345W        W 4506  19.718  35.800  14.364
39346W        W 4507   1.336  30.551  12.418
39347W        W 4508  41.322  15.930   4.603
39348W        W 4509  10.611  42.515  13.456
39349W        W 4510  27.958  31.308  11.090
39350W        W 4511  24.105  38.383  13.971
39351W        W 4512  30.632  18.286  12.828
39352W        W 4513   5.164  29.413   3.345
39353W        W 4514  12.254   4.880   4.587
39354W        W 4515  37.620  17.310   0.804
39355W        W 4516   9.035  21.289   5.157
39356W        W 4517  37.931  32.373  13.991
39357W        W 4518  36.501  18.991  12.087
39358W        W 4519  19.152  40.256   2.600
39359W        W 4520  33.847  36.254  11.991
39360W        W 4521  30.386   2.219   4.086
39361W        W 4522  39.477   4.286   4.215
39362W        W 4523  30.983  33.223   3.164
39363W        W 4524  36.871  32.679   2.179
39364W        W 4525   0.999  33.019   1.170
39365W        W 4526  18.124  13.107  14.904
39366W        W 4527  16.619  35.432   1.986
39367W        W 4528  19.401  16.375  10.521
39368W        W 4529   8.319  42.445   0.279
39369W        W 4530  20.217  13.691  14.758
39370W        W 4531   0.239  37.873   2.938
39371W        W 4532  29.629  43.425   1.297
39372W        W 4533  32.659  43.783  11.770
39373W        W 4534  33.583  11.859   0.013
39374W        W 4535  10.796  25.427   3.709
39375W        W 4536  17.638  31.118  11.151
39376W        W 4537   2.070  11.680   4.478
39377W        W 4538   9.673  33.237   2.698
39378W        W 4539  41.407  36.866  13.052
39379W        W 4540  24.063   5.796  11.699
39380W        W 4541  15.056   9.829  11.718
39381W        W 4542  32.327  36.807  12.890
39382W        W 4543  30.885  17.090   0.242
39383W        W 4544  43.403  10.803  13.481
39384W        W 4545   9.606  43.185  10.180
39385W        W 4546  22.961   2.628  14.239
39386W        W 4547  28.951  18.057   2.338
39387W        W 4548  44.505   7.756  14.439
39388W        W 4549   0.493   2.420  12.019
39389W        W 4550  10.748  14.923   2.616
39390W        W 4551  14.258   5.840  13.920
39391W        W 4552  11.657  21.696  12.174
39392W        W 4553  27.182   9.396   1.236
39393W        W 4554   9.095  40.800   2.913
39394W        W 4555  36.997  41.354   0.831
39395W        W 4556   6.431  12.211  12.493
39396W        W 4557  33.655   8.893  11.084
39397W        W 4558  24.569  31.781  12.630
39398W        W 4559  23.537  31.529   1.201
39399W        W 4560  11.305  11.149   1.762
39400W        W 4561  28.526  19.074   0.962
39401W        W 4562  38.925   7.683   5.008
39402W        W 4563  28.694  28.225   4.093
39403W        W 4564  18.095  24.648   0.239
39404W        W 4565  24.398   0.022   4.522
39405W        W 4566  26.499  44.853  11.139
39406W        W 4567  15.249  13.850  10.479
39407W        W 4568  29.810   2.703  14.815
39408W        W 4569  30.322   8.842   1.801
39409W        W 4570  10.895  35.168   4.567
39410W        W 4571  43.638  31.573  12.115
39411W        W 4572  22.433  32.991   3.537
39412W        W 4573  43.066  23.302   1.739
39413W        W 4574  12.569  12.570   2.296
39414W        W 4575  12.858  33.338  13.481
39415W        W 4576   5.311  29.062   4.314
39416W        W 4577  16.453  34.090  13.215
39417W        W 4578  10.965  15.868   4.094
39418W        W 4579  26.571   6.170   4.122
39419W        W 4580  32.905   1.260   1.730
39420W        W 4581  31.602  20.722   1.705
39421W        W 4582   3.118  15.393  14.571
39422W        W 4583  37.941   6.147  11.613
39423W        W 4584  24.012  14.448   2.153
39424W        W 4585   0.065  19.375   3.607
39425W        W 4586  20.626  22.700  13.417
39426W        W 4587  42.532   2.893   3.353
39427W        W 4588   4.340   0.983   4.563
39428W        W 4589  14.587   6.802  12.503
39429W        W 4590  42.923   8.679  10.650
39430W        W 4591  43.913  11.866  13.975
39431W        W 4592  33.461   4.750   2.432
39432W        W 4593  12.953   4.528   4.878
39433W        W 4594  24.892  27.666   2.688
39434W        W 4595   6.891  34.814  12.573
39435W        W 4596  35.777  33.607   1.504
39436W        W 4597   0.493  17.604  12.122
39437W        W 4598  39.903  28.387   0.215
39438W        W 4599  36.584  15.043  12.537
39439W        W 4600  29.886  28.959  13.099
39440W        W 4601  15.458  13.427   2.823
39441W        W 4602  32.235  17.216   0.842
39442W        W 4603  34.555   1.890  12.742
39443W        W 4604   0.098  17.007   2.332
39444W        W 4605  10.791  26.222  13.865
39445W        W 4606   5.578   8.272   0.288
39446W        W 4607  38.376  26.249   1.367
39447W        W 4608  43.430  12.380  10.451
39448W        W 4609  32.025  32.929   3.358
39449W        W 4610   5.620  36.342   1.902
39450W        W 4611  11.355  29.161   3.644
39451W        W 4612  10.766  38.390   0.939
39452W        W 4613  36.386  10.140   4.566
39453W        W 4614  16.502   4.820   4.108
39454W        W 4615   2.702  19.290   1.374
39455W        W 4616  27.699  34.065   2.886
39456W        W 4617  26.907  26.261   0.713
39457W        W 4618  20.089   7.803  11.570
39458W        W 4619  31.875   0.983   4.174
39459W        W 4620  33.531  25.756   4.108
39460W        W 4621  44.448   8.669  12.615
39461W        W 4622   9.089  38.982  10.672
39462W        W 4623  17.545  29.801   4.420
39463W        W 4624  11.323  37.516   1.239
39464W        W 4625   3.928  35.533  13.979
39465W        W 4626   6.470  11.322  14.726
39466W        W 4627  31.054  12.059  11.083
39467W        W 4628  40.347  29.871   4.832
39468W        W 4629  16.144  28.416   1.629
39469W        W 4630  22.969  16.943  11.150
39470W        W 4631  22.188  40.059  14.409
39471W        W 4632  15.812  33.449   2.357
39472W        W 4633  37.861  32.821   0.335
39473W        W 4634  31.069  13.092  12.594
39474W        W 4635  29.271  27.689   4.730
39475W        W 4636  38.263   8.107  14.086
39476W        W 4637   3.841  40.363  12.463
39477W        W 4638  18.337   9.293   0.785
39478W        W 4639  28.192   3.243  14.057
39479W        W 4640  21.489  24.162   9.469
39480W        W 4641  18.592  40.235  12.738
39481W        W 4642   1.879  16.153   4.489
39482W        W 4643   2.939  11.310   3.189
39483W        W 4644   0.008  16.348   2.158
39484W        W 4645   0.292   2.362   1.990
39485W        W 4646  43.202  32.155  11.496
39486W        W 4647  42.348  28.438   4.662
39487W        W 4648  38.414  24.499  14.348
39488W        W 4649  34.826  18.155  13.846
39489W        W 4650  34.922  17.507  12.544
39490W        W 4651   2.866  41.419   4.137
39491W        W 4652  23.728   2.550   0.819
39492W        W 4653  26.416  28.886   1.867
39493W        W 4654   6.572  15.750   0.384
39494W        W 4655  27.204   4.480   1.839
39495W        W 4656   0.997  11.735  13.951
39496W        W 4657  21.962  29.178   2.737
39497W        W 4658   3.249  34.080   1.371
39498W        W 4659  38.310  25.056  13.820
39499W        W 4660  16.798  36.548   2.746
39500W        W 4661  29.151  41.620   3.681
39501W        W 4662  38.890  15.341  10.272
39502W        W 4663  43.499  26.652  14.965
39503W        W 4664   6.401  23.675   0.743
39504W        W 4665  33.120  24.535  12.071
39505W        W 4666  37.182  17.354   0.541
39506W        W 4667   9.217  16.497   1.456
39507W        W 4668  13.794   1.216  12.520
39508W        W 4669  34.291   6.752   3.536
39509W        W 4670  42.823  44.198  11.557
39510W        W 4671  15.998  30.599  12.938
39511W        W 4672  42.744  38.953   0.001
39512W        W 4673  18.841  39.556  12.344
39513W        W 4674  19.995  44.885   1.295
39514W        W 4675   4.351  30.700  14.786
39515W        W 4676  37.453  16.038  13.272
39516W        W 4677  22.799  41.772   9.818
39517W        W 4678   7.260   3.693  13.794
39518W        W 4679   9.891   3.318   1.709
39519W        W 4680  30.918  10.666   1.346
39520W        W 4681  37.445  22.083   0.824
39521W        W 4682   2.946   0.759   2.215
39522W        W 4683  31.889  39.557   1.417
39523W        W 4684  41.968  14.154   3.418
39524W        W 4685  34.818  19.810   3.227
39525W        W 4686  24.648  34.298   1.935
39526W        W 4687  14.768  39.736   0.408
39527W        W 4688  21.693  44.557   3.715
39528W        W 4689  35.500   5.851   2.364
39529W        W 4690   3.036  34.185   0.169
39530W        W 4691  12.147  37.932   3.271
39531W        W 4692  42.566  25.984   2.814
39532W        W 4693  12.205   5.672  12.449
39533W        W 4694  35.333  10.246  12.009
39534W        W 4695  30.797  39.983   0.535
39535W        W 4696  29.837   5.793   0.345
39536W        W 4697  40.092  29.451  11.127
39537W        W 4698  28.678  25.393  12.090
39538W        W 4699   9.299  23.793  11.619
39539W        W 4700  30.726  29.358  11.730
39540W        W 4701   8.727  17.134   3.643
39541W        W 4702  26.652  37.991   1.962
39542W        W 4703  24.257  13.343  11.418
39543W        W 4704  25.339  10.558   4.015
39544W        W 4705  33.174  12.132  14.384
39545W        W 4706   3.445  32.141  13.094
39546W        W 4707   0.788  34.114  10.583
39547W        W 4708   1.964  11.288   0.232
39548W        W 4709  44.939  21.551  14.795
39549W        W 4710  29.239   1.139   2.787
39550W        W 4711  15.519  26.769  13.002
39551W        W 4712  32.398  34.493   3.421
39552W        W 4713  14.578  33.999   4.624
39553W        W 4714   1.698  30.407   1.374
39554W        W 4715   9.827  25.149   1.980
39555W        W 4716  41.852  25.774  10.757
39556W        W 4717  34.834   0.822   4.385
39557W        W 4718  19.989  13.353   0.788
39558W        W 4719  44.247  44.416   0.219
39559W        W 4720  25.721   0.339  11.103
39560W        W 4721   3.402  22.528   2.188
39561W        W 4722  18.021  39.619   1.245
39562W        W 4723  12.851  26.157   0.890
39563W        W 4724  34.609  29.210   2.317
39564W        W 4725  32.123  32.887   4.719
39565W        W 4726  21.799  27.865  12.628
39566W        W 4727   9.896  32.565  13.524
39567W        W 4728  33.552  24.848  14.296
39568W        W 4729  37.321  44.967  12.145
39569W        W 4730  20.731  12.078   1.248
39570W        W 4731   1.005  44.513  12.907
39571W        W 4732  20.326   0.837   2.212
39572W        W 4733  28.255   3.699   2.625
39573W        W 4734   7.411  38.017  14.879
39574W        W 4735  17.276  43.503   4.174
39575W        W 4736  41.399  29.137  14.358
39576W        W 4737  13.401  38.715  14.507
39577W        W 4738   6.812   7.495   1.922
39578W        W 4739  27.092   4.719   0.753
39579W        W 4740  14.409  14.811  14.353
39580W        W 4741   6.848  29.425  10.688
39581W        W 4742  32.876   1.041   2.653
39582W        W 4743  43.250   7.833   2.227
39583W        W 4744  21.136  31.672  13.914
39584W        W 4745   1.911  35.231   3.222
39585W        W 4746  11.519  33.599   3.632
39586W        W 4747  34.392  26.705   4.578
39587W        W 4748  28.541  16.774   3.931
39588W        W 4749  13.708  44.255  11.632
39589W        W 4750   3.957  13.109  10.514
39590W        W 4751  24.314  11.650  12.291
39591W        W 4752  16.050  13.258   2.281
39592W        W 4753  28.668  42.419   0.340
39593W        W 4754   0.896  20.087  12.589
39594W        W 4755  31.564  29.034  14.363
39595W        W 4756   0.989  11.192  13.948
39596W        W 4757  26.997   7.276  13.458
39597W        W 4758   8.747   9.239  14.915
39598W        W 4759  16.705  29.955   2.883
39599W        W 4760  23.260  10.154  12.071
39600W        W 4761  18.426  41.091   9.565
39601W        W 4762  15.693   9.187  10.608
39602W        W 4763  10.815  16.863   4.046
39603W        W 4764  31.168  29.135   1.262
39604W        W 4765  34.874  25.068  12.023
39605W        W 4766   9.651   7.358   0.797
39606W        W 4767   6.767  32.331  13.475
39607W        W 4768   2.820   2.713   2.880
39608W        W 4769  12.431  43.042  12.564
39609W        W 4770  41.464  22.603   1.249
39610W        W 4771   5.938  18.566  13.398
39611W        W 4772  18.102   9.050  12.050
39612W        W 4773  30.412  23.453   0.882
39613W        W 4774  32.374  27.243  14.315
39614W        W 4775  36.819  40.453   0.875
39615W        W 4776  33.346  34.153   1.442
39616W        W 4777   7.589  38.212  11.936
39617W        W 4778  41.941  16.766  12.517
39618W        W 4779  32.145  41.914  13.577
39619W        W 4780   9.107  27.089  13.835
39620W        W 4781  35.410  31.497   4.705
39621W        W 4782  18.145  16.950   1.276
39622W        W 4783  23.510  44.832   0.405
39623W        W 4784  22.917  11.331   1.126
39624W        W 4785  21.488  17.084  12.335
39625W        W 4786   2.273  40.352  10.645
39626W        W 4787  40.923  26.789  12.463
39627W        W 4788   2.269  16.147  11.631
39628W        W 4789  22.977  31.179   1.667
39629W        W 4790  27.507  38.441  13.004
39630W        W 4791  30.719  19.564  11.688
39631W        W 4792  13.068  44.127  10.950
39632W        W 4793  21.310   5.916   1.885
39633W        W 4794  25.758  26.799  13.726
39634W        W 4795  16.609  31.709  13.682
39635W        W 4796  11.832  17.576   3.674
39636W        W 4797  28.933  19.384   1.004
39637W        W 4798  26.995  18.335  11.587
39638W        W 4799   3.253  16.188  12.842
39639W        W 4800  23.585  26.844  13.354
39640W        W 4801   6.385  32.094  14.833
39641W        W 4802  29.235  13.425   4.216
39642W        W 4803  43.799  23.706   1.718
39643W        W 4804  18.890  44.326   1.445
39644W        W 4805  36.469   5.737   4.544
39645W        W 4806  40.588   5.585   0.046
39646W        W 4807  39.712  19.298   2.085
39647W        W 4808   4.398  11.678  10.806
39648W        W 4809  38.675  34.832  11.629
39649W        W 4810   7.407   9.293  11.722
39650W        W 4811  20.622  24.448   3.304
39651W        W 4812  16.784   0.829  13.712
39652W        W 4813   0.715  13.533  14.784
39653W        W 4814  17.168  26.337   1.359
39654W        W 4815  43.784   7.638  12.158
39655W        W 4816  36.545   0.735  13.633
39656W        W 4817  43.640  26.993   2.781
39657W        W 4818  44.369  31.304   4.192
39658W        W 4819   3.793  24.706  12.424
39659W        W 4820   4.724  12.141   0.024
39660W        W 4821  37.133   5.681   1.703
39661W        W 4822  10.417  42.604   1.033
39662W        W 4823   5.820  12.740  13.914
39663W        W 4824   2.333  39.231   3.089
39664W        W 4825  31.644  43.138  14.714
39665W        W 4826   0.799   1.704   2.413
39666W        W 4827   8.273   2.796   4.419
39667W        W 4828  32.865   7.318  12.383
39668W        W 4829  12.868  43.530   1.346
39669W        W 4830  44.098   9.361   0.889
39670W        W 4831  22.690  27.171  14.010
39671W        W 4832   5.699   7.002  11.386
39672W        W 4833  31.994  23.007   2.160
39673W        W 4834   4.247  37.284  14.330
39674W        W 4835   3.367  29.112  13.963
39675W        W 4836  22.962  42.818   3.631
39676W        W 4837  21.176  35.069  14.441
39677W        W 4838  26.520  44.667  14.430
39678W        W 4839  29.169  37.064  11.111
39679W        W 4840   9.440  10.741   3.125
39680W        W 4841  38.905  11.183  12.605
39681W        W 4842  14.555  10.132  14.434
39682W        W 4843   1.210  18.886  14.934
39683W        W 4844  35.090  12.787  11.583
39684W        W 4845   2.421  41.379  14.760
39685W        W 4846  15.127  36.636  13.836
39686W        W 4847  19.914  21.063  12.892
39687W        W 4848   4.557  23.854   9.613
39688W        W 4849  42.718   5.324   3.294
39689W        W 4850  43.026  20.938  10.444
39690W        W 4851  13.930   2.832   0.873
39691W        W 4852  33.062  20.943   5.129
39692W        W 4853  22.767   6.490  14.979
39693W        W 4854  10.949  31.564  14.418
39694W        W 4855  14.548   2.989   2.682
39695W        W 4856  24.974  23.503   0.475
39696W        W 4857   3.010   4.958  13.330
39697W        W 4858  24.490   1.642   1.812
39698W        W 4859   8.177  21.643   3.120
39699W        W 4860  42.992   2.063   2.281
39700W        W 4861   4.268   9.684  12.093
39701W        W 4862  13.370  35.833  10.547
39702W        W 4863  35.528  12.287   0.900
39703W        W 4864  26.102  31.576   3.902
39704W        W 4865   6.638  16.100   4.049
39705W        W 4866  34.313   3.074   1.137
39706W        W 4867  14.268  25.121   0.989
39707W        W 4868   3.877  37.044  12.633
39708W        W 4869  12.594  38.308  11.297
39709W        W 4870   4.617  32.912   0.604
39710W        W 4871  18.113  33.690  10.628
39711W        W 4872  36.892  35.609   4.590
39712W        W 4873   4.728  43.663   4.698
39713W        W 4874  28.945  13.215  11.732
39714W        W 4875   8.689  35.980  14.820
39715W        W 4876  26.024   5.192   0.268
39716W        W 4877   5.692  36.121   2.373
39717W        W 4878  36.324   2.255  12.968
39718W        W 4879  40.871  14.311   0.692
39719W        W 4880  17.870  31.161  11.612
39720W        W 4881   6.019  28.756  11.198
39721W        W 4882  41.838  44.053   1.990
39722W        W 4883  17.621   9.750  13.878
39723W        W 4884  14.223   1.463   1.878
39724W        W 4885  31.586  20.045  11.932
39725W        W 4886   9.727  14.305  13.308
39726W        W 4887  30.218  31.587  14.896
39727W        W 4888   7.774  25.790   2.469
39728W        W 4889   6.727  24.176   0.953
39729W        W 4890  34.351  43.257  13.997
39730W        W 4891  38.295  40.400   1.876
39731W        W 4892  29.026  26.964   1.851
39732W        W 4893   3.338  37.938  10.521
39733W        W 4894  21.734  30.656  13.473
39734W        W 4895  20.839  12.333  12.047
39735W        W 4896  31.428  39.475   0.314
39736W        W 4897  30.495   9.410   3.423
39737W        W 4898  26.065  24.683  14.366
39738W        W 4899  42.482  34.847  14.074
39739W        W 4900  38.712   7.278   0.923
39740W        W 4901  12.703  26.448   0.172
39741W        W 4902  22.991  11.792   2.738
39742W        W 4903  32.248  36.806  11.106
39743W        W 4904   7.762  36.460   1.262
39744W        W 4905  37.465   3.799  10.351
39745W        W 4906  18.220  42.468  11.525
39746W        W 4907  14.017  27.937   2.334
39747W        W 4908  10.968  39.436   2.704
39748W        W 4909  23.010  39.362   3.425
39749W        W 4910   5.339  14.981   0.889
39750W        W 4911  29.021  11.933   9.957
39751W        W 4912  23.694  25.493   0.358
39752W        W 4913  23.774   7.158   2.769
39753W        W 4914  40.963  20.096  13.105
39754W        W 4915  15.857   6.008   2.752
39755W        W 4916  28.103  10.824  14.488
39756W        W 4917  16.243   3.011  13.906
39757W        W 4918  10.181   5.634  10.053
39758W        W 4919   9.300  11.362   0.561
39759W        W 4920  21.898  42.951  13.336
39760W        W 4921  40.050  35.018  12.890
39761W        W 4922  41.560   1.365  11.132
39762W        W 4923  29.172  38.785   1.917
39763W        W 4924  42.039  29.974   3.443
39764W        W 4925  39.130  26.225   0.477
39765W        W 4926  24.155  36.364   1.175
39766W        W 4927  39.282  37.430  14.775
39767W        W 4928   2.507  20.468  13.444
39768W        W 4929  12.564   7.000   0.740
39769W        W 4930  35.653   1.806  14.850
39770W        W 4931  11.610   5.282   3.541
39771W        W 4932  31.815  38.966   5.383
39772W        W 4933   5.709  11.113   2.643
39773W        W 4934  37.432   8.862  14.933
39774W        W 4935  15.995   2.512   1.069
39775W        W 4936  11.453  37.814   0.067
39776W        W 4937  16.013   4.395   3.756
39777W        W 4938   6.374   0.897  12.023
39778W        W 4939  11.672   4.743   5.023
39779W        W 4940  39.369  10.769   2.568
39780W        W 4941   3.850  23.142  11.191
39781W        W 4942  22.617  16.735  11.919
39782W        W 4943  28.720  15.239   2.859
39783W        W 4944   0.837  41.630  11.452
39784W        W 4945  23.102  41.502  13.735
39785W        W 4946  17.041  27.532  10.724
39786W        W 4947  22.703  33.090  12.555
39787W        W 4948  29.198  22.718   3.147
39788W        W 4949   3.509   4.770   5.173
39789W        W 4950  43.277  31.656   1.315
39790W        W 4951   1.429  21.204  13.158
39791W        W 4952   8.870  27.888  12.894
39792W        W 4953   4.105  37.447  10.761
39793W        W 4954   6.563  38.363   4.117
39794W        W 4955  40.985  43.479  13.531
39795W        W 4956   3.326  16.881   3.615
39796W        W 4957  39.608  36.092   0.071
39797W        W 4958  22.702  33.603  12.599
39798W        W 4959  18.704   0.353  13.082
39799W        W 4960  22.116  43.005  14.827
39800W        W 4961  22.777  27.953  14.516
39801W        W 4962  19.193   5.931   2.253
39802W        W 4963  35.168  12.772  13.558
39803W        W 4964  42.132  12.054   2.582
39804W        W 4965  23.199  23.478  13.597
39805W        W 4966  25.165   3.258   3.540
39806W        W 4967   6.669  33.148   0.510
39807W        W 4968  29.004   9.411   3.442
39808W        W 4969  34.211  13.745   1.874
39809W        W 4970  35.351   6.700   1.196
39810W        W 4971  40.583   5.573   1.807
39811W        W 4972  23.692   0.542   0.741
39812W        W 4973   2.685   1.469  13.430
39813W        W 4974  17.236   7.331   0.241
39814W        W 4975  38.804  39.464  13.364
39815W        W 4976  36.434  22.076   0.051
39816W        W 4977  27.169  31.607   4.614
39817W        W 4978   9.217  44.778  14.272
39818W        W 4979  16.602  37.187  13.742
39819W        W 4980   0.981  28.719   3.700
39820W        W 4981  39.577   6.587   4.349
39821W        W 4982  31.095  26.883  13.019
39822W        W 4983  41.839  11.073  14.299
39823W        W 4984  29.689  39.879  12.469
39824W        W 4985  32.184  30.692  12.927
39825W        W 4986  19.843  22.699   1.259
39826W        W 4987  32.503  11.087  11.354
39827W        W 4988  15.772   7.998   5.180
39828W        W 4989  42.263   3.557  11.553
39829W        W 4990  25.070   4.422   3.665
39830W        W 4991  44.807  34.426   1.020
39831W        W 4992  15.523   2.479  10.616
39832W        W 4993  17.558   0.179   1.926
39833W        W 4994  32.895  14.765  14.752
39834W        W 4995   8.314   2.380   4.781
39835W        W 4996  42.719  28.468   2.328
39836W        W 4997  22.415  34.330  10.290
39837W        W 4998  34.510  26.441  12.931
39838W        W 4999  37.228  31.561   3.087
39839W        W 5000  43.950  20.926  10.401
39840W        W 5001  31.722   2.259   3.914
39841W        W 5002  26.381   1.682  12.466
39842W        W 5003  31.351   8.286  14.004
39843W        W 5004   1.337  17.310  12.385
39844W        W 5005   6.212   8.881  13.934
39845W        W 5006  30.590  24.980  12.116
39846W        W 5007  15.859  28.818  11.062
39847W        W 5008  23.220  43.759   0.737
39848W        W 5009  32.591  42.762   1.051
39849W        W 5010  20.813  42.764   1.137
39850W        W 5011  35.798  33.327  10.072
39851W        W 5012  20.279  12.369   2.436
39852W        W 5013   3.245   6.297   4.567
39853W        W 5014   8.354  34.857  11.106
39854W        W 5015  41.348  44.261   4.197
39855W        W 5016  19.195  11.379   4.076
39856W        W 5017  15.646  30.986   3.694
39857W        W 5018  37.986  22.239   0.718
39858W        W 5019  22.650  41.210   4.287
39859W        W 5020   3.921   4.791  11.121
39860W        W 5021  17.322  12.593  13.475
39861W        W 5022  30.428  35.250  12.349
39862W        W 5023  35.534  36.437  14.849
39863W        W 5024  43.548   2.632   2.841
39864W        W 5025  15.648  15.198   2.088
39865W        W 5026  18.731  27.095   3.036
39866W        W 5027  30.121  42.794  14.038
39867W        W 5028  31.942  33.394   3.147
39868W        W 5029  10.054  29.082  12.512
39869W        W 5030  28.068  17.008   0.412
39870W        W 5031   1.445  28.218  14.839
39871W        W 5032  42.260  40.962  12.449
39872W        W 5033  36.357  29.592  12.124
39873W        W 5034  43.865  44.008  13.710
39874W        W 5035  10.365  34.314  12.656
39875W        W 5036  13.425  13.825  10.728
39876W        W 5037   2.373  33.574   0.394
39877W        W 5038  41.371  10.703   2.684
39878W        W 5039   1.060  33.451  14.205
39879W        W 5040  34.882   2.779   1.841
39880W        W 5041  40.302  10.711   4.099
39881W        W 5042  30.694  26.281   4.164
39882W        W 5043  31.376  28.595  10.573
39883W        W 5044  11.630  21.013  12.690
39884W        W 5045   9.367  35.819  11.227
39885W        W 5046  18.657  18.137   0.971
39886W        W 5047  12.902  15.772  14.868
39887W        W 5048   7.222   9.031  13.922
39888W        W 5049  27.251  38.225  11.495
39889W        W 5050  19.858  38.596   2.739
39890W        W 5051  38.966  43.762   0.082
39891W        W 5052  36.349  43.443  13.014
39892W        W 5053   4.448   0.486  13.579
39893W        W 5054  24.652  15.674  11.028
39894W        W 5055  31.901  24.321  14.561
39895W        W 5056   1.800  42.851   2.753
39896W        W 5057  12.186  37.538   0.608
39897W        W 5058  16.347   6.855  11.976
39898W        W 5059  26.276  19.661   2.245
39899W        W 5060  40.674  18.199  11.975
39900W        W 5061  44.487  14.500   1.193
39901W        W 5062   2.482  11.562   3.098
39902W        W 5063  36.059  29.734   3.279
39903W        W 5064   7.281   7.394   3.179
39904W        W 5065   5.894  41.935   4.175
39905W        W 5066  35.466  25.076  13.567
39906W        W 5067  23.421  12.347  11.342
39907W        W 5068  43.366  42.604   0.404
39908W        W 5069  10.859  20.266   1.976
39909W        W 5070  21.645  35.267  12.046
39910W        W 5071  33.863  34.891   4.651
39911W        W 5072  44.883  42.796   2.287
39912W        W 5073  14.101   9.749   4.604
39913W        W 5074  16.460  36.446  14.983
39914W        W 5075  43.854  39.949   9.557
39915W        W 5076  37.344  19.763   2.505
39916W        W 5077  35.416  14.963  14.698
39917W        W 5078  32.054  43.035   1.389
39918W        W 5079  29.562  26.634  14.819
39919W        W 5080  19.098  17.936  11.553
39920W        W 5081   2.930  33.176   2.106
39921W        W 5082  22.459  17.027  12.321
39922W        W 5083   1.719   5.536   0.524
39923W        W 5084  20.545  12.049   2.739
39924W        W 5085   5.014   6.276   4.623
39925W        W 5086  16.079  24.969   1.277
39926W        W 5087  38.694   7.253   4.662
39927W        W 5088  33.456  19.788   0.092
39928W        W 5089  19.980  30.871  13.363
39929W        W 5090  33.551   9.402  14.773
39930W        W 5091  30.390   9.579  10.746
39931W        W 5092  39.914   4.713  10.787
39932W        W 5093  14.083  16.655  12.970
39933W        W 5094  18.215   8.697  14.358
39934W        W 5095   6.861  24.418  13.056
39935W        W 5096  28.435  37.107  10.745
39936W        W 5097  31.951  32.084   1.371
39937W        W 5098  23.112  30.967   4.934
39938W        W 5099  30.919  15.814  13.914
39939W        W 5100  35.343  39.879   5.462
39940W        W 5101  41.418   8.288  11.600
39941W        W 5102   7.435  27.666   4.576
39942W        W 5103  20.817  22.887   3.190
39943W        W 5104  10.120  34.219   1.207
39944W        W 5105   4.820  16.349  12.502
39945W        W 5106  22.707   1.697  14.365
39946W        W 5107   7.453   8.558  13.730
39947W        W 5108  15.257  19.680   4.129
39948W        W 5109  39.893  23.743  11.314
39949W        W 5110  25.173  41.036   1.848
39950W        W 5111  19.840  12.733  14.783
39951W        W 5112  20.936   0.203  13.490
39952W        W 5113  32.531  25.452  11.888
39953W        W 5114   8.520   4.160   1.424
39954W        W 5115  11.607  17.225   9.912
39955W        W 5116  12.778  19.031   1.356
39956W        W 5117  42.515  23.822   2.234
39957W        W 5118  20.239  23.661  13.388
39958W        W 5119  38.938  34.581   4.125
39959W        W 5120  41.150  27.657   3.249
39960W        W 5121  28.959  27.705  11.967
39961W        W 5122   3.922  34.840  11.123
39962W        W 5123  22.598   3.517  11.113
39963W        W 5124  28.242  26.337  13.002
39964W        W 5125  12.301   2.625  14.833
39965W        W 5126  32.616  13.303  12.165
39966W        W 5127  22.940  27.977  11.095
39967W        W 5128  42.082  12.790   2.866
39968W        W 5129  24.447   9.276  12.262
39969W        W 5130  30.286  39.730   1.695
39970W        W 5131   8.743  37.529  10.925
39971W        W 5132  30.978  10.230   3.463
39972W        W 5133   9.152  13.737  13.202
39973W        W 5134  13.045   1.430  13.072
39974W        W 5135  21.559  30.686  12.073
39975W        W 5136  44.788  35.346  13.345
39976W        W 5137  27.957  16.580  13.616
39977W        W 5138  35.032  24.022   3.192
39978W        W 5139  23.844  24.644   3.311
39979W        W 5140  23.978   0.280  12.353
39980W        W 5141  13.451  29.394   4.093
39981W        W 5142   1.546  23.140   2.887
39982W        W 5143  30.355  16.898  12.022
39983W        W 5144  38.075   4.722   1.911
39984W        W 5145   0.047  40.355  14.380
39985W        W 5146   7.488  17.613  13.935
39986W        W 5147  10.640  38.934   4.501
39987W        W 5148  40.936  17.306  11.317
39988W        W 5149  25.131  21.655  14.875
39989W        W 5150  43.538   1.191   1.292
39990W        W 5151  41.044   5.796  12.924
39991W        W 5152  44.904  27.023   2.235
39992W        W 5153  11.811  21.321   2.741
39993W        W 5154  36.818  12.821  11.144
39994W        W 5155  14.124  19.387  14.712
39995W        W 5156  34.232  37.813   3.329
39996W        W 5157  20.974  43.489   4.212
39997W        W 5158  43.070  11.253   1.302
39998W        W 5159  43.243   4.601  13.512
39999W        W 5160  35.832  38.903   2.846
40000W        W 5161  43.886  43.004   3.257
40001W        W 5162  23.706  31.058   3.698
40002W        W 5163  13.683  42.169  12.795
40003W        W 5164  15.154  18.011  12.985
40004W        W 5165  27.828   3.274  13.658
40005W        W 5166  19.903   4.904  12.961
40006W        W 5167  20.676  14.171   2.917
40007W        W 5168  18.782  22.164  11.362
40008W        W 5169  36.220  29.100  12.081
40009W        W 5170  37.947   2.743  13.618
40010W        W 5171   8.405  33.934   0.615
40011W        W 5172  43.712  15.512   4.438
40012W        W 5173  25.078  33.049  12.575
40013W        W 5174   6.640   1.404  11.199
40014W        W 5175  18.521  25.052   3.119
40015W        W 5176   0.397  14.981   1.256
40016W        W 5177  10.099  23.690  14.915
40017W        W 5178  14.887   9.775   1.861
40018W        W 5179  22.227   7.401   4.429
40019W        W 5180  14.945  30.759   0.302
40020W        W 5181  34.945  13.689  13.079
40021W        W 5182  39.492   9.909   2.524
40022W        W 5183   5.315  28.702   2.166
40023W        W 5184  26.133  15.159   1.291
40024W        W 5185   1.422  24.407  12.522
40025W        W 5186  15.030  41.099   0.353
40026W        W 5187  23.773   9.591   4.115
40027W        W 5188   8.730  16.976   2.269
40028W        W 5189   2.886  21.760   0.836
40029W        W 5190  37.243  34.590   1.949
40030W        W 5191  21.331  22.516  14.763
40031W        W 5192  19.312   1.445   1.375
40032W        W 5193  28.286  37.846   5.067
40033W        W 5194  30.071   5.373  12.907
40034W        W 5195  37.396  31.932   3.414
40035W        W 5196   1.253  26.684  14.015
40036W        W 5197  15.394  26.419   2.695
40037W        W 5198  25.231   5.441   3.142
40038W        W 5199  40.940  41.623  13.252
40039W        W 5200   8.903  11.233   3.221
40040W        W 5201  26.154   8.965   2.715
40041W        W 5202   3.684  31.570  13.992
40042W        W 5203  16.688  17.486   0.475
40043W        W 5204  35.443  33.887   3.003
40044W        W 5205  38.559  33.408  13.592
40045W        W 5206   2.331  20.135  10.931
40046W        W 5207  42.982   7.219   2.766
40047W        W 5208   9.597  34.816  10.678
40048W        W 5209  44.923   4.669   3.808
40049W        W 5210  29.508   7.180   1.634
40050W        W 5211  10.401  32.707  13.477
40051W        W 5212  11.747   5.307  13.541
40052W        W 5213  14.432  21.078  14.220
40053W        W 5214  16.789  25.110   4.879
40054W        W 5215   4.791  28.993   0.277
40055W        W 5216  34.181  37.005   3.032
40056W        W 5217  32.331  38.338   4.016
40057W        W 5218   3.312   2.675   1.188
40058W        W 5219  33.584  19.699   4.528
40059W        W 5220  28.860  37.857   5.586
40060W        W 5221  19.160  33.301  12.814
40061W        W 5222  28.691  43.182  11.534
40062W        W 5223  43.127  28.517  14.274
40063W        W 5224   7.727  10.354  10.292
40064W        W 5225  18.126  40.045   0.287
40065W        W 5226  28.918  24.990   3.826
40066W        W 5227  10.443  22.348  11.202
40067W        W 5228  31.008   7.639   4.463
40068W        W 5229  32.864  40.544  13.808
40069W        W 5230  15.414  43.494   2.414
40070W        W 5231  12.308  24.124  14.531
40071W        W 5232  19.366  25.716  11.715
40072W        W 5233  31.674   8.408  10.446
40073W        W 5234  21.582  39.517   3.141
40074W        W 5235  28.364  33.326  13.325
40075W        W 5236  40.352   0.042   1.780
40076W        W 5237  15.602  10.367  13.541
40077W        W 5238  10.328  39.750  14.946
40078W        W 5239  22.693  20.214   2.018
40079W        W 5240   8.602  23.453  14.813
40080W        W 5241  39.966   7.099   4.834
40081W        W 5242  24.578  23.640  14.089
40082W        W 5243  24.861  22.082  13.930
40083W        W 5244  18.293  33.899   0.473
40084W        W 5245  43.237  28.437  13.603
40085W        W 5246  36.031  22.697  10.772
40086W        W 5247  30.999  12.568  12.344
40087W        W 5248  25.094  17.190   4.956
40088W        W 5249  26.977  26.881  13.799
40089W        W 5250  12.628  15.263  12.527
40090W        W 5251   6.847  28.259  11.513
40091W        W 5252  37.425  11.488   4.897
40092W        W 5253  39.823  11.403   1.744
40093W        W 5254  24.710  13.133  14.460
40094W        W 5255  29.232  11.423   1.323
40095W        W 5256  31.581  21.711   1.141
40096W        W 5257  43.927  29.372   2.081
40097W        W 5258  15.688   8.211   0.002
40098W        W 5259  22.997  33.569  11.882
40099W        W 5260  43.489  19.984  12.934
40100W        W 5261  29.433   7.652   3.550
40101W        W 5262  22.093  20.304   4.479
40102W        W 5263  37.834   7.901   0.257
40103W        W 5264  25.504   1.270   4.577
40104W        W 5265  16.906   8.384   3.834
40105W        W 5266  23.292   3.951   4.630
40106W        W 5267   1.107  44.168   2.576
40107W        W 5268  20.046  21.676   2.801
40108W        W 5269   2.127  36.976   5.386
40109W        W 5270  18.638   5.472  11.551
40110W        W 5271   3.762  15.275   1.470
40111W        W 5272  38.842  31.812  11.632
40112W        W 5273  20.768  13.731   0.752
40113W        W 5274  38.475  18.523   3.159
40114W        W 5275  23.338   7.819  12.915
40115W        W 5276  33.176  32.388  13.124
40116W        W 5277  35.679   7.420  11.877
40117W        W 5278  22.327  10.853   1.455
40118W        W 5279  41.866  39.901  10.951
40119W        W 5280  16.574  23.552  12.090
40120W        W 5281  42.939  12.654   3.287
40121W        W 5282  23.675   7.467   2.012
40122W        W 5283  16.653  24.753   0.028
40123W        W 5284  30.442  36.827   0.735
40124W        W 5285  19.852  38.066   0.470
40125W        W 5286   6.763  10.352  12.417
40126W        W 5287   2.505  43.836  13.344
40127W        W 5288  12.659  40.798  12.962
40128W        W 5289  35.082  42.441  12.613
40129W        W 5290  10.088   0.426  12.806
40130W        W 5291  10.336  32.586  11.746
40131W        W 5292   3.017  26.632  12.964
40132W        W 5293  19.112  26.013  13.468
40133W        W 5294   1.834  40.073  11.620
40134W        W 5295   4.587   3.374  13.814
40135W        W 5296  34.389  30.669   3.858
40136W        W 5297   7.844  34.548   3.597
40137W        W 5298  25.985  27.194  14.978
40138W        W 5299  16.121  35.528   2.939
40139W        W 5300  11.068  37.793   2.530
40140W        W 5301  17.906  10.264   1.319
40141W        W 5302  34.634  40.731   2.239
40142W        W 5303  38.010  41.866  12.529
40143W        W 5304  42.781  41.975  14.408
40144W        W 5305  17.806  32.995   2.763
40145W        W 5306  44.583  38.962  11.211
40146W        W 5307  22.509   5.299   0.986
40147W        W 5308  17.514  32.433  14.816
40148W        W 5309   6.844  37.090  10.496
40149W        W 5310  29.895   1.325  12.107
40150W        W 5311  30.228  27.585  14.009
40151W        W 5312  35.462  15.837  14.101
40152W        W 5313   7.928   5.203   2.017
40153W        W 5314  22.975  37.855   0.795
40154W        W 5315  36.174  40.071   0.311
40155W        W 5316  43.485  27.155  14.932
40156W        W 5317   0.375  20.002  11.939
40157W        W 5318   6.684  29.212   1.496
40158W        W 5319  37.631  34.124   3.742
40159W        W 5320  21.996  19.231  14.262
40160W        W 5321  37.676  29.118   0.279
40161W        W 5322  12.395  16.647  12.140
40162W        W 5323  18.053  44.179  11.488
40163W        W 5324   8.183  29.598   3.127
40164W        W 5325  25.044  44.785  10.671
40165W        W 5326  10.989  11.638   0.058
40166W        W 5327  44.953  26.581   2.819
40167W        W 5328  23.075  37.351  12.845
40168W        W 5329   0.752  15.298  11.640
40169W        W 5330  21.671   0.843  13.405
40170W        W 5331  17.020  12.722   1.376
40171W        W 5332  24.705  40.015  11.987
40172W        W 5333  19.485  13.088  14.901
40173W        W 5334  20.327  14.681  13.854
40174W        W 5335  27.843  36.506   3.178
40175W        W 5336  26.190  31.004   0.914
40176W        W 5337  30.190  38.055  12.770
40177W        W 5338  18.253  14.760  13.866
40178W        W 5339  29.463   6.367   0.061
40179W        W 5340   7.661   8.969   2.619
40180W        W 5341   4.278  11.551  11.325
40181W        W 5342  20.741  11.347  13.367
40182W        W 5343   1.794  44.531  14.500
40183W        W 5344  12.124  38.260  12.422
40184W        W 5345   9.615  27.728  12.377
40185W        W 5346  16.641  42.424  10.247
40186W        W 5347  23.294  30.485   3.118
40187W        W 5348  16.347  40.966  13.324
40188W        W 5349  41.800  13.275  12.137
40189W        W 5350  40.489  12.100  11.578
40190W        W 5351  20.720  28.847   3.325
40191W        W 5352  12.458  17.525  12.651
40192W        W 5353   6.450   7.553  12.637
40193W        W 5354   4.965  12.252  10.523
40194W        W 5355   2.295  31.307  13.478
40195W        W 5356   4.327  27.595   4.465
40196W        W 5357  12.893   4.394  13.044
40197W        W 5358  20.764  25.512   3.258
40198W        W 5359   8.868  22.517  10.743
40199W        W 5360   5.857   1.911  11.218
40200W        W 5361  24.291   2.309   3.081
40201W        W 5362  39.958  27.652  12.499
40202W        W 5363  27.136  34.336  10.587
40203W        W 5364  17.919  36.396  13.355
40204W        W 5365  38.773  40.459   0.233
40205W        W 5366  12.797  37.607  14.798
40206W        W 5367   5.657   0.529   4.126
40207W        W 5368  39.405  44.769  14.467
40208W        W 5369   4.836  27.856  11.995
40209W        W 5370  44.018  37.123   0.293
40210W        W 5371  17.188  16.801  14.334
40211W        W 5372  22.103  23.631  12.232
40212W        W 5373  43.317   8.734   2.128
40213W        W 5374   1.747   2.237   4.124
40214W        W 5375  27.915  15.057  10.694
40215W        W 5376  22.025  14.151  13.317
40216W        W 5377  27.331  38.294  12.507
40217W        W 5378  23.657  31.192   4.590
40218W        W 5379  16.848  11.186   4.064
40219W        W 5380  41.992  11.883  12.992
40220W        W 5381  22.243  19.449  11.097
40221W        W 5382  30.203  32.630   2.914
40222W        W 5383  42.474  14.259   4.656
40223W        W 5384  44.063  18.782  13.053
40224W        W 5385  26.638  17.295   3.750
40225W        W 5386  39.807  36.060  12.071
40226W        W 5387  18.730  13.392  14.552
40227W        W 5388  18.484   1.340  11.003
40228W        W 5389  28.559  39.074   0.738
40229W        W 5390  34.468  38.159   3.055
40230W        W 5391  26.488  11.626   2.294
40231W        W 5392  10.070  44.162  11.953
40232W        W 5393  41.490  28.521   4.252
40233W        W 5394   7.214  20.763   4.360
40234W        W 5395   5.433  27.529   0.049
40235W        W 5396  21.625  36.369  11.145
40236W        W 5397  36.571  43.463   0.422
40237W        W 5398  17.423  11.331  13.104
40238W        W 5399  38.565  24.061   3.930
40239W        W 5400   3.717  13.726   2.421
40240W        W 5401   5.910  43.014  13.096
40241W        W 5402  42.945  20.485   1.398
40242W        W 5403   9.662  21.247   2.190
40243W        W 5404   3.241   7.403  11.285
40244W        W 5405  30.182  32.889   2.377
40245W        W 5406  16.718  31.850  12.317
40246W        W 5407  15.003   3.290   1.569
40247W        W 5408  33.039   7.605   4.657
40248W        W 5409  36.100  39.985   5.029
40249W        W 5410  42.270  28.233  14.405
40250W        W 5411   7.896  34.951   3.233
40251W        W 5412  21.681  20.265   3.931
40252W        W 5413   7.023  23.191   2.330
40253W        W 5414  37.461  38.685   5.444
40254W        W 5415   2.858  36.115   2.380
40255W        W 5416   2.636  11.928   2.744
40256W        W 5417  16.317  26.685  14.481
40257W        W 5418  22.195  34.981   4.460
40258W        W 5419  26.033  21.497   4.077
40259W        W 5420  15.029  13.470   4.437
40260W        W 5421  29.908  35.924   1.612
40261W        W 5422   2.922  30.729   3.814
40262W        W 5423  24.603   6.139   0.734
40263W        W 5424  10.231  10.262  14.290
40264W        W 5425  21.971  42.559  14.617
40265W        W 5426  26.730  42.301  13.769
40266W        W 5427   1.431  43.521   3.304
40267W        W 5428  28.914   0.821  13.452
40268W        W 5429  19.109  27.409  14.114
40269W        W 5430  11.446  12.290  12.536
40270W        W 5431  10.737   9.941  13.574
40271W        W 5432  44.802  40.348   0.781
40272W        W 5433  19.866   6.524   5.060
40273W        W 5434  43.540   7.883   3.200
40274W        W 5435  12.778  11.220   2.741
40275W        W 5436  30.688   3.915   0.283
40276W        W 5437   2.287  24.962  12.532
40277W        W 5438  32.994  34.829  14.062
40278W        W 5439  39.765  43.407   4.098
40279W        W 5440  42.289  10.329   0.220
40280W        W 5441  24.575   3.690  12.758
40281W        W 5442  12.149  10.368  14.361
40282W        W 5443  34.767  14.312  10.774
40283W        W 5444   4.843  19.578   0.365
40284W        W 5445   5.338  21.695  13.247
40285W        W 5446   4.442  42.785  10.678
40286W        W 5447   8.846   8.254  12.174
40287W        W 5448  33.515  26.661   4.417
40288W        W 5449  34.578  28.554   3.668
40289W        W 5450  33.664  33.869   3.281
40290W        W 5451  28.476   6.989  12.414
40291W        W 5452  44.928  30.554   1.743
40292W        W 5453  42.326  24.465  10.877
40293W        W 5454  43.854  38.595   3.180
40294W        W 5455  10.870  34.573   1.190
40295W        W 5456  20.966  21.305   5.333
40296W        W 5457   2.088   1.741   2.719
40297W        W 5458  33.911  10.565  13.903
40298W        W 5459  19.886   0.414   2.664
40299W        W 5460  21.462  29.839  11.213
40300W        W 5461   3.396   1.442   3.367
40301W        W 5462  27.708  21.780   4.682
40302W        W 5463   6.201  38.351   1.807
40303W        W 5464  22.567  25.920  14.420
40304W        W 5465   8.701  23.024  10.720
40305W        W 5466   5.140  39.471  12.096
40306W        W 5467   3.279  40.397  14.958
40307W        W 5468   6.689  24.756  10.973
40308W        W 5469  39.926  21.253   2.333
40309W        W 5470  44.943  43.069   0.876
40310W        W 5471   6.196   5.067   2.926
40311W        W 5472   8.877  10.584   2.113
40312W        W 5473  33.502  30.669   3.602
40313W        W 5474   9.587  23.377   3.990
40314W        W 5475  24.874  40.876  11.481
40315W        W 5476  10.980  43.316  11.593
40316W        W 5477  19.362  36.053  12.037
40317W        W 5478  33.933   9.681   0.007
40318W        W 5479  27.685  41.366  12.421
40319W        W 5480  38.326   1.457   2.352
40320W        W 5481  30.054  17.735   3.850
40321W        W 5482  24.507  30.092  13.211
40322W        W 5483  11.199  19.903  12.715
40323W        W 5484  14.672  22.696   2.285
40324W        W 5485  12.181   9.227  10.730
40325W        W 5486   2.890  38.856   3.783
40326W        W 5487  28.170  29.955  11.263
40327W        W 5488  40.969  35.896  12.429
40328W        W 5489  27.924  30.969  11.476
40329W        W 5490   2.417   7.485  12.585
40330W        W 5491  22.541  29.021  11.945
40331W        W 5492  36.789   3.154   3.717
40332W        W 5493   8.685  15.022  14.900
40333W        W 5494  10.920   4.739   0.969
40334W        W 5495   8.348  16.046  12.596
40335W        W 5496  25.174  27.173   0.746
40336W        W 5497  10.816  36.206   4.350
40337W        W 5498  23.173   1.667   3.174
40338W        W 5499  25.995  30.772  14.361
40339W        W 5500  12.062   6.345   1.799
40340W        W 5501  29.781  21.506  10.309
40341W        W 5502  27.860  23.539  10.177
40342W        W 5503  26.582  19.253   2.439
40343W        W 5504   2.883  38.954   1.725
40344W        W 5505  12.833  18.910  11.061
40345W        W 5506  35.366  41.044   1.662
40346W        W 5507  30.927  11.233   0.784
40347W        W 5508  26.253   8.985  12.093
40348W        W 5509  21.293  34.424   1.266
40349W        W 5510   0.040   1.670  10.778
40350W        W 5511  31.059  12.863   3.297
40351W        W 5512   3.251  17.312   3.883
40352W        W 5513   5.314  23.240   2.801
40353W        W 5514  39.011  33.816   4.562
40354W        W 5515   5.295  36.815   0.033
40355W        W 5516   6.190   5.883  11.269
40356W        W 5517  12.398  23.539   1.348
40357W        W 5518   9.264   7.673  12.676
40358W        W 5519  19.704  29.909   3.708
40359W        W 5520  38.373  43.582  13.842
40360W        W 5521  30.916  24.229   3.267
40361W        W 5522  39.731   4.943   1.186
40362W        W 5523  21.206  11.515  12.458
40363W        W 5524  41.251  25.639   3.629
40364W        W 5525  23.072  17.162   2.206
40365W        W 5526  23.460   5.144   0.191
40366W        W 5527  22.471   0.808   3.398
40367W        W 5528  29.376  33.113   1.940
40368W        W 5529  10.784   7.344  12.351
40369W        W 5530   5.886  22.441   3.589
40370W        W 5531  30.211   3.428  12.317
40371W        W 5532  44.949  36.594  13.445
40372W        W 5533   7.388  14.611   4.405
40373W        W 5534  18.750   4.542  10.336
40374W        W 5535  29.207  33.356   3.218
40375W        W 5536  21.118  41.165  14.816
40376W        W 5537   3.545  29.712  11.962
40377W        W 5538  21.713  28.388  13.262
40378W        W 5539  38.305  37.479  11.016
40379W        W 5540  28.237  19.215  13.268
40380W        W 5541  15.094  20.899  11.865
40381W        W 5542  44.020  23.425   4.231
40382W        W 5543  36.460   0.859   3.681
40383W        W 5544  24.926   8.231  11.531
40384W        W 5545  14.027   7.851  10.704
40385W        W 5546  37.985  23.291   0.898
40386W        W 5547  19.565  15.187  13.914
40387W        W 5548   2.254  21.383  14.440
40388W        W 5549  34.251  42.712  12.517
40389W        W 5550  33.451  11.484   2.456
40390W        W 5551  36.859   4.973  10.713
40391W        W 5552   0.309  24.148  14.425
40392W        W 5553  34.915  37.611   4.118
40393W        W 5554  21.066  40.880  13.496
40394W        W 5555  34.815  30.609   2.967
40395W        W 5556   1.361  40.738   3.911
40396W        W 5557  17.088   8.797  10.993
40397W        W 5558  13.596  39.092  14.926
40398W        W 5559  17.936  31.107   1.762
40399W        W 5560  35.133  41.708  10.680
40400W        W 5561  28.906   8.846   3.943
40401W        W 5562  27.365  14.014  13.508
40402W        W 5563  37.127   4.712  11.139
40403W        W 5564   2.849  16.816   1.361
40404W        W 5565  19.765  38.396   3.753
40405W        W 5566  18.769  14.640   3.692
40406W        W 5567  38.335  23.523  14.344
40407W        W 5568  40.742  44.930  14.865
40408W        W 5569  40.256  22.736  11.282
40409W        W 5570   6.028  16.075   1.003
40410W        W 5571  36.808   1.986  12.853
40411W        W 5572  25.459  11.654   1.330
40412W        W 5573  39.508   3.944   2.228
40413W        W 5574  13.270  42.800  10.958
40414W        W 5575  16.571  25.561   2.179
40415W        W 5576   9.366  20.683   0.936
40416W        W 5577  39.054  43.233   1.192
40417W        W 5578  34.939   1.378   0.511
40418W        W 5579  14.849  21.737  11.450
40419W        W 5580  20.777  43.988   1.013
40420W        W 5581  42.926  32.935  12.613
40421W        W 5582  13.225  36.274   2.661
40422W        W 5583  31.143  21.290   1.141
40423W        W 5584  32.870  37.409  14.433
40424W        W 5585  12.790  43.784  14.967
40425W        W 5586  20.072  38.467   2.284
40426W        W 5587  33.069  28.661  13.420
40427W        W 5588  25.674   6.679   0.775
40428W        W 5589  35.465  33.608  11.943
40429W        W 5590   8.910   2.687  13.868
40430W        W 5591  20.513  34.817  13.853
40431W        W 5592   8.714  13.283  13.758
40432W        W 5593  20.900  29.479  14.054
40433W        W 5594  29.292  17.620   2.266
40434W        W 5595  16.870  21.620  14.210
40435W        W 5596  23.451   2.642   2.888
40436W        W 5597  24.617  44.459  12.374
40437W        W 5598   7.193  16.821  11.627
40438W        W 5599  34.205  24.578  13.822
40439W        W 5600   6.899  13.792   0.818
40440W        W 5601  17.167  29.165   1.864
40441W        W 5602  29.596  37.357  14.287
40442W        W 5603  28.051  19.173  14.223
40443W        W 5604   8.923  44.932   1.997
40444W        W 5605  12.331  10.762  13.644
40445W        W 5606  34.731  42.028  10.716
40446W        W 5607  30.243  19.129  12.338
40447W        W 5608   5.047  35.145  12.037
40448W        W 5609  22.736  30.708  14.868
40449W        W 5610  26.241  17.267  14.803
40450W        W 5611  36.045  43.031  13.903
40451W        W 5612   6.705  10.687   4.348
40452W        W 5613  42.961  32.217   3.201
40453W        W 5614  31.186  24.184   1.892
40454W        W 5615   3.423  15.323   1.881
40455W        W 5616   9.991  40.795  10.599
40456W        W 5617  27.280  21.175  10.657
40457W        W 5618  42.418   1.796  13.318
40458W        W 5619  36.070  42.853  14.814
40459W        W 5620  32.659  37.673   2.355
40460W        W 5621  29.187  34.864   0.886
40461W        W 5622  30.837  40.382  12.029
40462W        W 5623   4.876   1.605   2.184
40463W        W 5624  42.562  30.515  11.977
40464W        W 5625  43.803   5.123  12.927
40465W        W 5626   1.525  24.120  12.115
40466W        W 5627  23.413   4.260  11.603
40467W        W 5628  21.193  34.222  12.503
40468W        W 5629  43.599  15.044  11.075
40469W        W 5630  23.478   0.787  14.881
40470W        W 5631   1.620  40.355   3.629
40471W        W 5632   2.612  41.036  11.056
40472W        W 5633  34.307  25.892  11.116
40473W        W 5634  42.675  13.681  13.959
40474W        W 5635  18.702  42.186  13.014
40475W        W 5636  15.389  19.002  13.038
40476W        W 5637  43.461  23.454  13.108
40477W        W 5638  33.421  29.279   2.661
40478W        W 5639  25.510  11.110   3.141
40479W        W 5640  35.492   5.265  14.959
40480W        W 5641  35.381   1.120  13.801
40481W        W 5642  10.620  20.734   3.887
40482W        W 5643  31.381  44.062  11.156
40483W        W 5644   0.326  16.715  10.454
40484W        W 5645  28.073  25.907   0.083
40485W        W 5646  23.431  27.607  14.435
40486W        W 5647  21.508   6.270  13.879
40487W        W 5648  43.067  17.342   3.236
40488W        W 5649  33.152  22.261  11.003
40489W        W 5650  43.128   1.287  11.046
40490W        W 5651  18.082   4.635  13.392
40491W        W 5652  10.507  17.101  11.973
40492W        W 5653  42.962  28.696  12.029
40493W        W 5654  11.549  11.098  11.009
40494W        W 5655   5.693  31.697  12.040
40495W        W 5656   9.333  28.434   1.079
40496W        W 5657  17.531  33.979  12.508
40497W        W 5658  19.174  35.309  12.981
40498W        W 5659  19.578  29.571  14.338
40499W        W 5660   1.444   4.221   0.013
40500W        W 5661  26.455   3.084  10.868
40501W        W 5662   9.268  26.547   1.141
40502W        W 5663  19.211  29.242   3.482
40503W        W 5664  41.845   6.630   0.295
40504W        W 5665  10.455  13.673  13.813
40505W        W 5666  31.921  19.980   0.226
40506W        W 5667  16.319  37.253  14.935
40507W        W 5668  20.591  10.632  12.607
40508W        W 5669  20.852  16.834   1.404
40509W        W 5670  37.331  19.572  11.189
40510W        W 5671  36.355  35.198  14.516
40511W        W 5672  37.585  10.732  11.981
40512W        W 5673  13.289  23.265   0.867
40513W        W 5674  14.160  24.558   2.378
40514W        W 5675  27.869  26.849   1.780
40515W        W 5676  11.528  10.765  13.994
40516W        W 5677   1.479  35.484   0.880
40517W        W 5678  42.983  28.418  14.882
40518W        W 5679  13.604  12.407   4.583
40519W        W 5680  33.609   7.817  12.442
40520W        W 5681  42.866  17.122  14.439
40521W        W 5682  35.085  30.466  14.457
40522W        W 5683  14.551  43.909   2.760
40523W        W 5684  32.323  40.632   4.922
40524W        W 5685  34.095   7.172  13.016
40525W        W 5686  13.779   5.465   2.209
40526W        W 5687  18.268  33.493  12.133
40527W        W 5688  25.165  44.849  12.973
40528W        W 5689  35.364  37.674  14.446
40529W        W 5690  13.242  33.725  10.607
40530W        W 5691   4.564  40.601  12.815
40531W        W 5692   4.932  11.665  14.106
40532W        W 5693  35.107  15.088   2.101
40533W        W 5694  13.261  33.370  11.850
40534W        W 5695  35.558  36.222  14.292
40535W        W 5696  42.366  12.402   4.555
40536W        W 5697  41.875  19.952   3.498
40537W        W 5698   1.364  34.886   0.219
40538W        W 5699  28.762  16.102  11.520
40539W        W 5700  13.793  32.270   2.308
40540W        W 5701  42.027  29.468   4.234
40541W        W 5702  31.173  33.129   2.247
40542W        W 5703   6.330  35.288  13.838
40543W        W 5704  35.583  32.520   1.728
40544W        W 5705   2.417  36.948   9.952
40545W        W 5706   3.646  31.445   2.087
40546W        W 5707  29.620  11.833   4.552
40547W        W 5708  39.518   2.573  10.430
40548W        W 5709  25.259  44.278  10.707
40549W        W 5710  12.187   4.267   1.395
40550W        W 5711   8.868  11.264  11.221
40551W        W 5712  35.954  25.053   2.850
40552W        W 5713  34.367  40.001   9.777
40553W        W 5714  24.591  28.547   3.900
40554W        W 5715  33.566  23.729   3.292
40555W        W 5716  32.464  15.761   3.919
40556W        W 5717  11.829  32.027   3.774
40557W        W 5718   7.487   3.662  14.790
40558W        W 5719  34.257  37.977   4.706
40559W        W 5720  28.577  44.743   2.406
40560W        W 5721  40.624  39.743   2.001
40561W        W 5722   6.320   5.946   1.281
40562W        W 5723  41.503   1.556  14.298
40563W        W 5724  38.090  37.442  12.892
40564W        W 5725  27.462   3.370   2.350
40565W        W 5726  16.094  24.569  13.433
40566W        W 5727   1.334  16.379   1.894
40567W        W 5728   0.978   9.239   2.828
40568W        W 5729  40.617  24.931  11.708
40569W        W 5730   3.736  39.411   3.779
40570W        W 5731  39.979  18.689   4.790
40571W        W 5732  35.086  10.098   4.844
40572W        W 5733  33.284  27.439   1.819
40573W        W 5734  42.776  10.187  14.802
40574W        W 5735  23.089  36.401   1.237
40575W        W 5736   6.443  33.437   2.780
40576W        W 5737  23.655  41.471  14.042
40577W        W 5738  24.979  17.586   2.705
40578W        W 5739  12.272  22.662  14.356
40579W        W 5740  12.362   5.472  11.221
40580W        W 5741  20.070  21.960   3.775
40581W        W 5742  28.624  30.685   2.884
40582W        W 5743  13.102  38.882   0.481
40583W        W 5744   1.756  16.628  11.096
40584W        W 5745  16.439   7.592   0.492
40585W        W 5746  20.262  40.961  13.924
40586W        W 5747  20.844   7.315  10.651
40587W        W 5748  28.980  19.012   2.354
40588W        W 5749   3.627  26.936  13.797
40589W        W 5750  16.682  24.984  12.232
40590W        W 5751  17.859  23.451  12.121
40591W        W 5752   4.005  41.604  14.675
40592W        W 5753   1.477  41.864   3.347
40593W        W 5754  27.034  43.279   2.598
40594W        W 5755   0.970  36.508   0.379
40595W        W 5756  37.603  41.443   3.741
40596W        W 5757   6.931  42.334  11.185
40597W        W 5758  42.888   9.851  14.351
40598W        W 5759  33.671   7.505   0.004
40599W        W 5760  30.015  19.567  12.575
40600W        W 5761  30.610  15.804  11.186
40601W        W 5762  28.664  24.501  14.339
40602W        W 5763  32.751  31.527  14.440
40603W        W 5764  42.031   6.199   0.560
40604W        W 5765  15.458  13.784   1.268
40605W        W 5766  11.917   8.353   3.052
40606W        W 5767   0.755  10.916   5.369
40607W        W 5768  35.041  41.333   0.011
40608W        W 5769  43.555   7.547  11.420
40609W        W 5770  24.153  41.965  11.925
40610W        W 5771  38.492  18.415   3.902
40611W        W 5772  36.400  26.295   0.644
40612W        W 5773  15.827   6.751   4.727
40613W        W 5774  20.970  42.708  12.334
40614W        W 5775   9.249  22.116  13.345
40615W        W 5776  33.036  32.208  10.090
40616W        W 5777   6.086  44.968   2.618
40617W        W 5778  43.489  25.515  12.986
40618W        W 5779   5.285  11.445  12.834
40619W        W 5780  22.197  37.857   1.195
40620W        W 5781   2.158  31.400  11.627
40621W        W 5782  38.417  22.582   1.423
40622W        W 5783  26.328  14.801   3.302
40623W        W 5784  20.151  20.463  11.177
40624W        W 5785  35.909  23.790  14.676
40625W        W 5786  26.699  19.075   2.913
40626W        W 5787  19.219   3.467   4.600
40627W        W 5788  39.045  21.948  13.912
40628W        W 5789  40.567  16.754  10.979
40629W        W 5790  11.862   0.180  14.051
40630W        W 5791   9.780  43.026   4.220
40631W        W 5792   6.547  37.692  14.908
40632W        W 5793  41.280  14.826   0.680
40633W        W 5794  23.150  28.685   4.254
40634W        W 5795  22.940  43.989  12.290
40635W        W 5796  25.061  25.860  10.445
40636W        W 5797   4.691   4.318   0.868
40637W        W 5798  18.264  31.537   3.951
40638W        W 5799  19.545   8.694  14.461
40639W        W 5800   5.687  43.440   1.284
40640W        W 5801  39.344   5.368   0.756
40641W        W 5802  42.460  36.392  14.926
40642W        W 5803  23.212  33.493  12.922
40643W        W 5804  41.424   1.889  13.912
40644W        W 5805  35.889  17.567   2.307
40645W        W 5806  27.577   2.641   3.647
40646W        W 5807  25.657  20.172  12.594
40647W        W 5808  27.507  24.004  14.706
40648W        W 5809  30.154  44.194  12.789
40649W        W 5810  15.173  25.108  12.961
40650W        W 5811  20.576  25.958   4.096
40651W        W 5812  12.771  44.873   1.356
40652W        W 5813  42.332  21.196   1.845
40653W        W 5814  23.193  31.147  13.950
40654W        W 5815   4.228  13.608  11.617
40655W        W 5816   4.883  15.821   3.259
40656W        W 5817  44.755  42.836  13.537
40657W        W 5818  44.486  38.547   1.771
40658W        W 5819  15.183   9.118   2.502
40659W        W 5820   5.470  41.909   3.867
40660W        W 5821  13.765  17.063  13.842
40661W        W 5822   4.221  39.284   4.564
40662W        W 5823   6.718  37.169  14.892
40663W        W 5824  37.012  18.591   1.434
40664W        W 5825   5.506  28.179   3.729
40665W        W 5826  20.544   2.415   0.397
40666W        W 5827  14.368  44.944  14.148
40667W        W 5828  32.524  19.470   2.712
40668W        W 5829  35.392  16.216   1.183
40669W        W 5830  36.613  22.534  11.574
40670W        W 5831  32.031   0.330   1.854
40671W        W 5832   5.306  44.722   1.420
40672W        W 5833   3.964  41.714   3.705
40673W        W 5834  25.121  14.757  10.639
40674W        W 5835  19.248  28.692  14.994
40675W        W 5836   7.369   7.449   1.319
40676W        W 5837  43.008  12.069   2.381
40677W        W 5838  11.300  37.522  13.874
40678W        W 5839   9.802   0.665  13.996
40679W        W 5840  28.558  19.504   2.768
40680W        W 5841  12.808  36.564   2.510
40681W        W 5842   0.973  26.484   1.482
40682W        W 5843  39.520  31.424   2.792
40683W        W 5844  30.949  25.094   0.350
40684W        W 5845  34.900  30.594  13.086
40685W        W 5846  35.006   9.395  11.054
40686W        W 5847  44.907   0.416   0.462
40687W        W 5848  13.986  22.731  14.389
40688W        W 5849   3.359   6.224  13.000
40689W        W 5850  42.456  40.403  14.953
40690W        W 5851  34.763  15.091   0.853
40691W        W 5852   4.095  40.778   0.292
40692W        W 5853  40.083  31.010   0.994
40693W        W 5854   8.812  33.562  10.994
40694W        W 5855  27.183  37.845  13.456
40695W        W 5856  11.746  44.043   1.390
40696W        W 5857  28.684  40.434   1.377
40697W        W 5858   1.758  38.140   0.455
40698W        W 5859  28.545   8.597   1.483
40699W        W 5860   5.659  40.044   3.705
40700W        W 5861   5.652   1.472   2.699
40701W        W 5862   4.501  43.017  13.034
40702W        W 5863  40.888  34.886   3.090
40703W        W 5864  25.095   8.541   4.533
40704W        W 5865   2.690  25.112   1.397
40705W        W 5866  34.127  41.626  10.306
40706W        W 5867  27.207   6.801  14.324
40707W        W 5868  39.401   2.713  12.500
40708W        W 5869  42.805  32.383  10.747
40709W        W 5870   2.407  20.747  11.754
40710W        W 5871  24.707  16.590   0.400
40711W        W 5872  21.747   0.684   2.380
40712W        W 5873  18.035  33.946  13.539
40713W        W 5874  15.572   0.404   1.881
40714W        W 5875   3.805   9.678  13.048
40715W        W 5876  24.655   5.838   2.810
40716W        W 5877  15.639  12.027  12.019
40717W        W 5878   2.752  11.316  14.414
40718W        W 5879  17.773   7.983   3.060
40719W        W 5880  30.939   6.781   4.733
40720W        W 5881  34.349   5.234   4.491
40721W        W 5882   7.106  28.884  14.399
40722W        W 5883   2.018  17.490  10.654
40723W        W 5884  22.766  30.629   0.812
40724W        W 5885   6.970   4.825  12.615
40725W        W 5886  44.997   6.659  13.242
40726W        W 5887  43.870   7.211   1.647
40727W        W 5888  44.175  16.384  11.565
40728W        W 5889  42.671  14.888  12.122
40729W        W 5890  11.088  16.707  11.568
40730W        W 5891  16.175  43.044   9.858
40731W        W 5892  14.660  18.059  12.848
40732W        W 5893   3.898  44.799   1.332
40733W        W 5894  34.399   1.321  14.949
40734W        W 5895   5.500  44.374   0.533
40735W        W 5896  25.181  43.465  13.624
40736W        W 5897  36.901  41.877   0.925
40737W        W 5898  32.526  37.725  14.682
40738W        W 5899  11.241   9.218  11.370
40739W        W 5900  21.768   1.032   4.676
40740W        W 5901   7.651  26.143  14.391
40741W        W 5902   1.847   0.071  11.227
40742W        W 5903  20.684  20.692   1.353
40743W        W 5904  44.829  21.021  12.482
40744W        W 5905  26.457  36.328   3.286
40745W        W 5906  15.848  44.899  10.940
40746W        W 5907  39.819  32.091   3.670
40747W        W 5908  35.201  41.475  13.023
40748W        W 5909  27.668   8.797   1.280
40749W        W 5910  12.834   4.114   3.112
40750W        W 5911  40.486  10.360   2.311
40751W        W 5912  14.177  36.856  10.696
40752W        W 5913  40.231  42.337  13.575
40753W        W 5914  24.000  21.928  12.964
40754W        W 5915  33.489  37.109  11.948
40755W        W 5916  12.168  11.457  11.598
40756W        W 5917  21.298   7.202   4.330
40757W        W 5918  26.338  43.913   3.384
40758W        W 5919   4.041   3.232   3.043
40759W        W 5920   6.311  34.323   4.105
40760W        W 5921  31.852  28.212  12.683
40761W        W 5922  15.087  24.030   4.137
40762W        W 5923  32.064  29.428  10.787
40763W        W 5924   4.870  44.831   2.233
40764W        W 5925  40.938  36.352   4.703
40765W        W 5926  30.842  44.768   1.469
40766W        W 5927  32.649  41.404   3.875
40767W        W 5928  28.009  37.906   5.656
40768W        W 5929  25.078  25.157   3.634
40769W        W 5930  30.494   1.772  13.668
40770W        W 5931  38.299  41.226  13.363
40771W        W 5932   7.946  43.724   0.203
40772W        W 5933  35.458  10.973  13.369
40773W        W 5934  33.631   1.810  13.083
40774W        W 5935   1.236  14.886   0.787
40775W        W 5936  33.646  14.359   4.296
40776W        W 5937   7.028  33.222  11.953
40777W        W 5938  39.020  24.988  12.472
40778W        W 5939  20.306  19.615  13.960
40779W        W 5940  37.632   3.648  12.817
40780W        W 5941  34.058  15.146  11.555
40781W        W 5942  26.068   9.480  11.034
40782W        W 5943  22.734  26.501   3.144
40783W        W 5944  36.388  30.921  10.474
40784W        W 5945   3.717   5.285   4.180
40785W        W 5946  32.549   1.853  10.225
40786W        W 5947  26.933  37.835  14.290
40787W        W 5948   5.955  11.746   4.087
40788W        W 5949  11.675  15.016  11.096
40789W        W 5950  36.038   6.919  10.700
40790W        W 5951   8.515  24.789   3.441
40791W        W 5952  35.636  31.860   0.467
40792W        W 5953  30.905   7.192   0.294
40793W        W 5954  21.958  42.018   0.313
40794W        W 5955  37.438  17.732   4.091
40795W        W 5956  41.493  23.967   2.448
40796W        W 5957   4.418  28.231   0.039
40797W        W 5958  34.315  16.241  10.745
40798W        W 5959  32.553   4.951   0.217
40799W        W 5960   5.152   8.579   0.278
40800W        W 5961   8.949  17.346  14.913
40801W        W 5962  10.207  21.543   2.863
40802W        W 5963  44.832  30.878  12.491
40803W        W 5964  17.252   7.163  12.870
40804W        W 5965   6.143   5.130  12.786
40805W        W 5966  20.488  11.334   3.579
40806W        W 5967  16.851  43.498  14.710
40807W        W 5968   8.337  12.336   1.177
40808W        W 5969  23.487   6.694   4.477
40809W        W 5970   1.973  23.780  14.976
40810W        W 5971  10.827   9.911  12.625
40811W        W 5972  24.606  36.325  12.682
40812W        W 5973   2.740  34.024   2.660
40813W        W 5974  39.801  37.120   2.822
40814W        W 5975   5.226  21.144  14.925
40815W        W 5976  31.703  18.253  11.359
40816W        W 5977  26.661   7.695  13.503
40817W        W 5978   9.379  29.373   0.840
40818W        W 5979  31.785  35.880  11.063
40819W        W 5980  43.640   7.757  14.750
40820W        W 5981  24.023   1.872   2.573
40821W        W 5982  16.641  29.726   3.338
40822W        W 5983  22.944  42.546   2.340
40823W        W 5984  23.415  36.532   2.207
40824W        W 5985  42.322  37.886  11.947
40825W        W 5986  25.550  23.603   4.304
40826W        W 5987  27.852   3.068  14.547
40827W        W 5988   6.155  41.366  12.131
40828W        W 5989  10.679  41.477  14.937
40829W        W 5990  19.504  17.725   1.976
40830W        W 5991  13.579  26.836  12.114
40831W        W 5992  19.726   2.955   1.302
40832W        W 5993  19.764  12.587   3.153
40833W        W 5994  38.572  11.869   0.583
40834W        W 5995   5.620   4.821   4.102
40835W        W 5996  36.522  12.330  12.001
40836W        W 5997   9.392  28.574   4.074
40837W        W 5998  12.339  41.362   0.996
40838W        W 5999  13.342   3.442  14.998
40839W        W 6000  11.206  34.488  11.163
40840W        W 6001  42.332  20.589  14.852
40841W        W 6002   7.671  23.124  12.105
40842W        W 6003  43.314  30.699  10.692
40843W        W 6004   2.855  23.742  11.863
40844W        W 6005  31.987  44.676  12.541
40845W        W 6006  18.148  12.860  14.429
40846W        W 6007  19.996  12.159   3.330
40847W        W 6008  17.278   5.181  13.168
40848W        W 6009  18.472  15.393   1.888
40849W        W 6010  11.743  21.453   1.741
40850W        W 6011  13.366   4.922  11.477
40851W        W 6012   3.223  44.701  13.748
40852W        W 6013   6.173  34.425  14.192
40853W        W 6014  18.597  33.854   2.948
40854W        W 6015  12.681  31.583  14.220
40855W        W 6016  33.848  30.457   1.896
40856W        W 6017   0.761   8.673   3.705
40857W        W 6018   8.460  35.986   4.588
40858W        W 6019  40.018  21.964  14.047
40859W        W 6020  41.840  39.994  10.443
40860W        W 6021  33.185  10.439  13.368
40861W        W 6022  33.035   3.896  13.457
40862W        W 6023  30.579  41.298  14.764
40863W        W 6024  19.066   4.682   0.441
40864W        W 6025  40.960  11.890   5.015
40865W        W 6026   8.750  19.172   4.538
40866W        W 6027  38.112   8.188  11.650
40867W        W 6028   1.803  12.838   2.274
40868W        W 6029  24.737  22.407   3.516
40869W        W 6030  15.100  33.411  11.483
40870W        W 6031   9.281  21.526   0.390
40871W        W 6032  35.853  16.833  11.443
40872W        W 6033  19.656   3.420   2.197
40873W        W 6034  41.742  44.040  13.896
40874W        W 6035  21.972  21.012  14.491
40875W        W 6036  32.209   7.336  11.752
40876W        W 6037  17.151  35.216   4.907
40877W        W 6038  36.751  39.522   3.678
40878W        W 6039  34.959   7.807   4.213
40879W        W 6040  42.326  19.531   0.596
40880W        W 6041  34.713  44.850   1.312
40881W        W 6042  38.895  32.465   4.900
40882W        W 6043  19.191  37.076   0.124
40883W        W 6044  42.959  42.159   5.152
40884W        W 6045  21.625  44.847  13.988
40885W        W 6046  20.585  10.589   2.429
40886W        W 6047  16.585  22.813  11.144
40887W        W 6048   4.333  19.406  11.570
40888W        W 6049  36.821  35.887  11.592
40889W        W 6050  12.210  30.934   3.543
40890W        W 6051   2.667  14.107   0.769
40891W        W 6052  12.957  13.734   4.497
40892W        W 6053  33.431  16.448   1.306
40893W        W 6054   3.944  36.337   3.772
40894W        W 6055  39.300  34.801   2.697
40895W        W 6056  19.071  32.056   1.427
40896W        W 6057   4.385  36.205  12.058
40897W        W 6058  32.923  39.396   0.285
40898W        W 6059  44.958   5.968   0.357
40899W        W 6060  25.658  36.349   2.551
40900W        W 6061  42.557  15.615   4.110
40901W        W 6062  37.138   8.905  12.057
40902W        W 6063  29.438  23.400  12.157
40903W        W 6064  14.541  20.142  12.117
40904W        W 6065  39.640  40.422  13.544
40905W        W 6066  29.141   4.788  14.995
40906W        W 6067  36.602   8.511  14.542
40907W        W 6068  18.671   0.417   1.881
40908W        W 6069   1.567  30.484   3.243
40909W        W 6070  41.834  36.069   9.708
40910W        W 6071  21.122  17.880   4.455
40911W        W 6072  29.264  36.387  13.206
40912W        W 6073  20.925  10.394   4.585
40913W        W 6074   5.929   8.889  11.151
40914W        W 6075  19.873  16.682   3.548
40915W        W 6076   0.786  34.843   2.003
40916W        W 6077   2.293   8.589  10.535
40917W        W 6078  43.356   0.547   2.944
40918W        W 6079  23.186  20.964  11.539
40919W        W 6080  30.430  14.350   3.751
40920W        W 6081   0.229  18.513  12.486
40921W        W 6082  41.136  10.005  13.423
40922W        W 6083  17.839  13.330  10.510
40923W        W 6084  30.006  38.478   0.450
40924W        W 6085  11.636   6.405  12.104
40925W        W 6086  17.299  19.049  14.458
40926W        W 6087   3.487  17.658  14.543
40927W        W 6088  15.328  43.552   3.676
40928W        W 6089   6.639   2.959  11.459
40929W        W 6090   8.170  39.981  10.937
40930W        W 6091   2.962  17.576   0.986
40931W        W 6092  37.750  20.228  13.862
40932W        W 6093  16.899  23.882   1.168
40933W        W 6094  44.667  38.127  14.770
40934W        W 6095  36.440  30.779   3.860
40935W        W 6096  32.963   2.310   4.718
40936W        W 6097  25.248   0.197  14.448
40937W        W 6098  30.430  10.911  11.159
40938W        W 6099  26.836   9.054   4.610
40939W        W 6100  37.245  10.948   4.131
40940W        W 6101  38.600  38.480   1.743
40941W        W 6102   5.248  28.046   1.334
40942W        W 6103  20.231  43.043  13.551
40943W        W 6104   2.979  18.764  12.923
40944W        W 6105   3.368   9.050  13.289
40945W        W 6106  12.727  37.824  11.721
40946W        W 6107  33.885   4.495   4.174
40947W        W 6108  28.938  31.686   0.914
40948W        W 6109  40.979  30.355   2.091
40949W        W 6110  25.614  15.745   3.865
40950W        W 6111   0.016  15.633   1.715
40951W        W 6112  43.757  27.963   4.654
40952W        W 6113  17.816  17.274  11.691
40953W        W 6114   8.027  44.110  13.417
40954W        W 6115  41.497  26.958  10.375
40955W        W 6116  21.800  17.507   3.354
40956W        W 6117  11.106  22.998   0.497
40957W        W 6118   0.020   9.424  10.627
40958W        W 6119  16.721   8.559  14.426
40959W        W 6120  32.438  40.891   4.063
40960W        W 6121   8.850  19.231  13.041
40961W        W 6122   2.132  32.561   3.326
40962W        W 6123  37.268   3.658   1.045
40963W        W 6124  38.404  41.862  12.857
40964W        W 6125  37.942  18.672   0.276
40965W        W 6126  36.419  35.960   1.506
40966W        W 6127  33.304  26.119   2.258
40967W        W 6128  20.281  37.419   4.152
40968W        W 6129   6.716  23.674  13.584
40969W        W 6130  37.785  25.185   0.878
40970W        W 6131  16.268  43.082  14.422
40971W        W 6132  10.786  13.158   2.372
40972W        W 6133  17.008  15.167  13.817
40973W        W 6134  40.500   3.858   4.735
40974W        W 6135  24.729  17.883   4.551
40975W        W 6136  19.774  18.471  14.281
40976W        W 6137  24.545   9.611  10.815
40977W        W 6138  10.951  33.861   4.253
40978W        W 6139  15.673  18.779  11.218
40979W        W 6140  16.172  11.742   0.734
40980W        W 6141  38.592  44.526   0.251
40981W        W 6142   4.287  41.000   1.623
40982W        W 6143  41.031   8.345   0.008
40983W        W 6144  29.529  24.890  12.185
40984W        W 6145  29.992  29.156  14.786
40985W        W 6146  28.046  22.691   4.760
40986W        W 6147  37.142  40.861   2.779
40987W        W 6148  40.398  24.931   4.480
40988W        W 6149  12.904  41.099   4.846
40989W        W 6150  35.612  30.635  13.732
40990W        W 6151  42.505  22.133   4.015
40991W        W 6152  16.240   4.552  13.762
40992W        W 6153   9.956  35.792   5.257
40993W        W 6154  43.885  22.133   2.137
40994W        W 6155   8.526  28.076  14.072
40995W        W 6156   7.960  34.515   2.586
40996W        W 6157  32.535  16.390  10.831
40997W        W 6158   4.375  13.280  12.914
40998W        W 6159   0.905  40.908  11.160
40999W        W 6160   1.775  20.333  11.171
41000W        W 6161  27.889  18.085  12.927
41001W        W 6162  22.186  14.428   9.808
41002W        W 6163  26.021  16.812  12.414
41003W        W 6164  16.695  37.607  14.013
41004W        W 6165  37.456  30.958  11.666
41005W        W 6166   0.201  17.090   0.347
41006W        W 6167  19.691  11.113  12.642
41007W        W 6168   8.607  33.921  14.856
41008W        W 6169  27.593  44.559   1.624
41009W        W 6170   4.757  37.113   3.730
41010W        W 6171  40.435  11.820   1.390
41011W        W 6172  30.441  36.062  11.568
41012W        W 6173  41.972  15.282   3.835
41013W        W 6174  18.529  26.544   0.836
41014W        W 6175  39.321  20.532   4.417
41015W        W 6176  18.642   8.743  10.520
41016W        W 6177  30.963  30.194  14.806
41017W        W 6178  21.003  24.057   1.326
41018W        W 6179  28.379  24.253   2.361
41019W        W 6180  22.145  22.585  12.570
41020W        W 6181  12.282  40.639  14.293
41021W        W 6182  39.849  26.212   2.672
41022W        W 6183  16.443   2.721  12.074
41023W        W 6184  29.081  24.449  13.054
41024W        W 6185  31.499   1.423   4.128
41025W        W 6186  17.738  22.711   2.904
41026W        W 6187  37.923   2.802   0.365
41027W        W 6188  15.796   3.233  13.935
41028W        W 6189  22.605   3.444  11.998
41029W        W 6190  42.093   5.518  13.418
41030W        W 6191  14.856  33.521   3.716
41031W        W 6192   5.821  27.587  14.394
41032W        W 6193  29.438  39.260  14.462
41033W        W 6194  11.955  35.532  14.427
41034W        W 6195  32.106  24.018  13.621
41035W        W 6196  40.772  31.595   1.859
41036W        W 6197   7.647   3.797  11.092
41037W        W 6198  37.114  25.247  12.569
41038W        W 6199  43.091  21.357  14.543
41039W        W 6200  12.353  33.183  10.822
41040W        W 6201  15.355  40.093   1.235
41041W        W 6202  26.425  36.415  14.971
41042W        W 6203  11.789   1.090   0.799
41043W        W 6204  13.586  39.541   4.695
41044W        W 6205  27.320  19.614   0.796
41045W        W 6206  19.170  42.860   1.254
41046W        W 6207  44.805   6.283   2.321
41047W        W 6208  35.909   2.962   3.156
41048W        W 6209   4.254  40.374  10.688
41049W        W 6210  21.650  36.334   4.212
41050W        W 6211  15.348   0.808   3.256
41051W        W 6212  30.779  36.299   2.252
41052W        W 6213  23.239  43.318   2.769
41053W        W 6214   2.812  43.589  12.029
41054W        W 6215  14.092   6.724  12.668
41055W        W 6216  32.218  41.343   1.958
41056W        W 6217   0.876   3.446   0.103
41057W        W 6218  20.310  23.498   1.491
41058W        W 6219  29.709  13.933  12.832
41059W        W 6220   6.714  40.805  11.600
41060W        W 6221  11.003  29.052   3.997
41061W        W 6222  29.534  32.526   0.739
41062W        W 6223   0.439  15.205  14.802
41063W        W 6224  37.349  34.064   4.205
41064W        W 6225  28.978  28.995  11.497
41065W        W 6226   3.023  33.986   0.650
41066W        W 6227  42.399   9.207   0.860
41067W        W 6228  38.421   8.398   3.586
41068W        W 6229  43.554  12.341  12.581
41069W        W 6230   5.886  23.292  10.264
41070W        W 6231  31.615   6.916   2.322
41071W        W 6232  22.520  35.550  11.575
41072W        W 6233  43.767  39.335  13.401
41073W        W 6234  22.131  29.718  14.530
41074W        W 6235   9.121  21.880  14.422
41075W        W 6236  11.163  23.693   2.221
41076W        W 6237  18.765  22.616  11.633
41077W        W 6238   2.168  30.871  13.782
41078W        W 6239  34.263  39.124  14.855
41079W        W 6240  44.536  23.463   3.264
41080W        W 6241   1.760  35.762  13.301
41081W        W 6242  14.790  31.681   4.131
41082W        W 6243   0.866  12.123   2.267
41083W        W 6244  37.816   2.243   3.445
41084W        W 6245  19.670   7.418  13.289
41085W        W 6246  34.350  11.640   3.346
41086W        W 6247  20.195  41.851  14.080
41087W        W 6248  20.454  12.746  14.208
41088W        W 6249  39.492  27.106  13.820
41089W        W 6250  34.983  35.302  14.284
41090W        W 6251  40.915   6.265   3.117
41091W        W 6252  44.960  20.636  14.716
41092W        W 6253   2.257  13.826   1.077
41093W        W 6254  40.911  15.161   1.224
41094W        W 6255  40.926  32.411   1.212
41095W        W 6256  15.825   7.915   1.383
41096W        W 6257   1.538   4.976   0.753
41097W        W 6258   2.314  36.334   3.156
41098W        W 6259  29.786   7.319  14.033
41099W        W 6260  14.845   8.160   3.466
41100W        W 6261  14.812  27.792   3.676
41101W        W 6262  37.137   8.677   1.374
41102W        W 6263  10.221   1.739  13.226
41103W        W 6264  44.896  30.122  14.198
41104W        W 6265  37.502  34.577  13.933
41105W        W 6266  40.122  44.340   2.179
41106W        W 6267  17.266  36.367   0.573
41107W        W 6268   7.439   8.168   4.472
41108W        W 6269  36.276  10.520  13.462
41109W        W 6270  33.918  22.268  13.493
41110W        W 6271   8.661  34.913  10.705
41111W        W 6272  23.057  11.895   1.854
41112W        W 6273   5.067   6.365  13.470
41113W        W 6274  26.119  30.744  12.762
41114W        W 6275  34.650  36.105   1.939
41115W        W 6276  36.501  23.688  10.728
41116W        W 6277  44.570  44.512   0.620
41117W        W 6278  13.584  19.345  10.426
41118W        W 6279  40.058  15.559   1.662
41119W        W 6280  14.861  23.488   3.347
41120W        W 6281  13.180  27.560  11.636
41121W        W 6282   6.268  11.925  12.902
41122W        W 6283  41.828  19.189   4.971
41123W        W 6284  28.906   4.964   1.396
41124W        W 6285  24.660   2.735   3.748
41125W        W 6286  33.477   4.649   1.340
41126W        W 6287  37.084  37.982  10.530
41127W        W 6288  39.533  22.104  12.388
41128W        W 6289  39.681   8.663   1.594
41129W        W 6290   8.735  40.241   2.270
41130W        W 6291  25.744   2.009   1.233
41131W        W 6292   8.668  35.884  13.855
41132W        W 6293  16.891  19.197   1.631
41133W        W 6294  13.863  22.398   0.333
41134W        W 6295  13.769   3.738   0.908
41135W        W 6296  12.588  28.098   2.185
41136W        W 6297  25.291  29.081   2.518
41137W        W 6298  44.512  32.391  13.815
41138W        W 6299  35.253  15.052   0.197
41139W        W 6300  35.543   0.324   3.349
41140W        W 6301  17.685  44.014  14.705
41141W        W 6302  13.023  41.851  11.144
41142W        W 6303  34.154  24.888   1.343
41143W        W 6304   1.467  21.057  12.652
41144W        W 6305   8.933  25.666   3.607
41145W        W 6306   8.274  34.665  14.941
41146W        W 6307  29.413  22.466  13.333
41147W        W 6308  28.644  39.195  14.261
41148W        W 6309   2.834   3.638  11.542
41149W        W 6310   3.779  37.853  10.931
41150W        W 6311  26.081  25.453  11.189
41151W        W 6312  41.818  42.465   1.010
41152W        W 6313   8.456   7.801  11.538
41153W        W 6314  37.399  12.324  13.545
41154W        W 6315  24.852  15.530   2.779
41155W        W 6316  35.517  12.761  14.454
41156W        W 6317  15.103  33.390   0.268
41157W        W 6318  22.551  28.926  13.006
41158W        W 6319  41.042  16.810   0.804
41159W        W 6320  19.850   6.744  11.161
41160W        W 6321  29.677  41.548   1.450
41161W        W 6322  30.640  44.555  14.950
41162W        W 6323  30.927  26.054  10.796
41163W        W 6324  33.540  22.731   2.403
41164W        W 6325  20.535  42.102   0.400
41165W        W 6326   8.201  24.873  10.319
41166W        W 6327  24.682  34.445   4.103
41167W        W 6328  35.578  35.082   3.533
41168W        W 6329   0.009   9.452   1.451
41169W        W 6330   2.453  41.488  13.900
41170W        W 6331  32.847  27.348   4.887
41171W        W 6332  11.231  31.748   4.534
41172W        W 6333  22.146  37.405  10.320
41173W        W 6334  32.915  33.834   3.740
41174W        W 6335   0.522  14.850  11.701
41175W        W 6336   0.804   5.668  14.493
41176W        W 6337  34.345   6.216   3.441
41177W        W 6338  12.582  21.280  10.662
41178W        W 6339  44.327   7.130   0.756
41179W        W 6340  43.241  37.521  13.916
41180W        W 6341  25.527  43.065  11.937
41181W        W 6342   6.665   1.280   1.289
41182W        W 6343   4.956  12.999  13.592
41183W        W 6344   3.251  41.526  13.427
41184W        W 6345  24.834  34.642   1.453
41185W        W 6346  24.925  23.094  12.036
41186W        W 6347  23.312  27.397  11.636
41187W        W 6348   5.175  36.917   1.365
41188W        W 6349  33.610  32.455  12.846
41189W        W 6350  43.460  16.024  12.009
41190W        W 6351  28.955  36.824   2.203
41191W        W 6352  25.476  33.205   1.794
41192W        W 6353  41.749  37.049  12.364
41193W        W 6354   9.198   4.146  12.166
41194W        W 6355  28.699  28.278   4.937
41195W        W 6356  39.533  40.763   3.198
41196W        W 6357  32.648  12.789   1.936
41197W        W 6358  15.342  29.999   0.293
41198W        W 6359  23.106  27.550   3.603
41199W        W 6360  18.066  37.877  12.215
41200W        W 6361   6.888  22.719   3.260
41201W        W 6362  35.479  25.729  12.356
41202W        W 6363  23.163  18.587  11.991
41203W        W 6364  37.937  26.646  14.041
41204W        W 6365  40.789  23.209   1.508
41205W        W 6366  38.814  43.237  10.662
41206W        W 6367  24.613   8.650   5.282
41207W        W 6368   9.853  42.837   4.782
41208W        W 6369  28.376   7.760   2.791
41209W        W 6370  30.991  33.718   3.007
41210W        W 6371  13.732   8.822  10.457
41211W        W 6372  11.367  28.953  10.667
41212W        W 6373  43.914  43.323   0.780
41213W        W 6374  35.937  38.991   1.464
41214W        W 6375  41.203  36.822   4.666
41215W        W 6376  11.405  15.281  10.728
41216W        W 6377  31.494  21.535   3.729
41217W        W 6378  13.262  20.601  13.062
41218W        W 6379   7.367  21.305  10.637
41219W        W 6380  25.770  12.344   3.666
41220W        W 6381  27.089  39.741  12.106
41221W        W 6382  33.369  16.383   2.260
41222W        W 6383  18.196  32.830   4.481
41223W        W 6384  39.027   8.138   4.543
41224W        W 6385  20.135  35.527  12.727
41225W        W 6386   0.044  24.636  13.508
41226W        W 6387  44.595  12.759   5.350
41227W        W 6388  19.634   0.194  12.064
41228W        W 6389  30.503   2.638   1.787
41229W        W 6390  19.614  28.482   0.360
41230W        W 6391  13.058   4.002  14.436
41231W        W 6392   6.593  34.838  13.862
41232W        W 6393   7.813  15.737   2.554
41233W        W 6394  31.735  16.189   1.655
41234W        W 6395  33.587  17.813  10.280
41235W        W 6396  17.815  21.195  11.548
41236W        W 6397  27.315  10.642  12.408
41237W        W 6398  43.916  37.451  12.676
41238W        W 6399   8.539  34.476   5.036
41239W        W 6400   0.465   9.183   1.527
41240W        W 6401  24.003  10.800  12.166
41241W        W 6402  14.273   1.546  11.596
41242W        W 6403  38.236  43.300  14.302
41243W        W 6404  14.728   7.258  12.706
41244W        W 6405  32.570  40.554  10.929
41245W        W 6406  18.649  16.689  14.060
41246W        W 6407  35.146   7.470   0.033
41247W        W 6408  21.438  10.315  12.868
41248W        W 6409  25.018  35.368   3.694
41249W        W 6410  30.404  31.409  13.882
41250W        W 6411  30.711  40.083  11.611
41251W        W 6412   5.334  14.735   4.581
41252W        W 6413  35.925  21.797   4.700
41253W        W 6414  34.018   4.892  14.709
41254W        W 6415   0.423  25.011  13.588
41255W        W 6416  34.497   1.423  12.490
41256W        W 6417  13.349  24.997  14.894
41257W        W 6418  25.500  18.198  12.939
41258W        W 6419  12.107  31.938   2.645
41259W        W 6420  33.257  31.475   0.731
41260W        W 6421  22.848  35.850  12.468
41261W        W 6422  44.245   3.406  14.287
41262W        W 6423  44.055  31.505   4.538
41263W        W 6424  41.272  13.057  14.772
41264W        W 6425   6.154  22.760   2.471
41265W        W 6426  13.587  42.936  13.029
41266W        W 6427  31.469  32.228   1.666
41267W        W 6428   9.408  15.805  11.724
41268W        W 6429   7.191  40.045   3.775
41269W        W 6430  37.371   5.264   1.431
41270W        W 6431  12.149   4.238  11.591
41271W        W 6432   4.924  21.295   1.754
41272W        W 6433  16.340  30.627   2.419
41273W        W 6434   3.464  14.697   3.191
41274W        W 6435   0.247  21.748   1.444
41275W        W 6436  29.485  28.899   0.941
41276W        W 6437  24.781   4.895   1.202
41277W        W 6438   9.183  29.403  12.987
41278W        W 6439  41.578  39.478  11.567
41279W        W 6440  30.878   2.957   5.056
41280W        W 6441  34.812  28.379  10.997
41281W        W 6442  44.345   5.909  11.706
41282W        W 6443  42.475  27.493  11.123
41283W        W 6444  42.256   6.923   1.043
41284W        W 6445  23.414  20.994   0.692
41285W        W 6446  30.517  25.599  10.732
41286W        W 6447  19.031   3.831  14.225
41287W        W 6448  41.142  15.195  10.853
41288W        W 6449  43.343  35.806   0.270
41289W        W 6450  37.594  12.173  11.178
41290W        W 6451   4.446  29.888   0.433
41291W        W 6452  42.564   2.718   4.776
41292W        W 6453  25.919   5.622  11.518
41293W        W 6454   3.703  13.555   1.396
41294W        W 6455  17.253   8.276   2.297
41295W        W 6456   2.401  14.051   0.229
41296W        W 6457   9.088   3.674  13.066
41297W        W 6458  34.188  34.596   0.312
41298W        W 6459  40.916   6.045  11.126
41299W        W 6460  42.505  31.998   1.990
41300W        W 6461  25.713   9.364  11.589
41301W        W 6462  38.964  20.934  13.179
41302W        W 6463   3.923  16.054  13.671
41303W        W 6464  43.077  36.890  14.910
41304W        W 6465  25.885  15.250  10.880
41305W        W 6466  32.973  23.252   1.739
41306W        W 6467  33.590  28.521   1.018
41307W        W 6468  23.059  17.030   1.725
41308W        W 6469  20.958  23.181  12.132
41309W        W 6470  19.722  39.101  14.319
41310W        W 6471  17.723  34.032  10.391
41311W        W 6472   0.317   4.223  12.579
41312W        W 6473  41.848  37.729   0.639
41313W        W 6474   5.499   0.309  12.808
41314W        W 6475   2.696  39.778  12.633
41315W        W 6476  14.321  31.965  12.220
41316W        W 6477  42.633  37.091   1.267
41317W        W 6478  44.504  21.136  11.140
41318W        W 6479  27.272  14.302  13.969
41319W        W 6480  44.589  34.062   2.624
41320W        W 6481  20.363   8.047  11.930
41321W        W 6482  26.785  23.832   3.637
41322W        W 6483  22.787   4.572   3.326
41323W        W 6484  18.804  27.741  13.057
41324W        W 6485   2.185  25.951   2.788
41325W        W 6486  37.406  23.344   4.386
41326W        W 6487  42.124  13.783  11.542
41327W        W 6488   1.070  17.223   2.183
41328W        W 6489  44.200  13.354  10.217
41329W        W 6490  39.866  35.074   3.607
41330W        W 6491  21.805  24.254   0.798
41331W        W 6492  29.187  43.165   0.819
41332W        W 6493   7.283  27.891   0.245
41333W        W 6494  22.522  27.452  14.478
41334W        W 6495  31.013   5.487  14.865
41335W        W 6496  21.558  24.564  12.108
41336W        W 6497   5.224  35.970   2.193
41337W        W 6498   2.733  41.126   2.277
41338W        W 6499  14.838   5.417  12.160
41339W        W 6500   1.540  10.410  11.054
41340W        W 6501  23.545  43.496  11.245
41341W        W 6502  26.408   4.871  10.635
41342W        W 6503   6.275  37.981  14.417
41343W        W 6504  16.840   1.852   5.130
41344W        W 6505  40.286  42.962  13.874
41345W        W 6506   0.629   6.703   1.293
41346W        W 6507  36.005  36.581   0.585
41347W        W 6508  32.446  19.048   3.192
41348W        W 6509  20.235  43.078  10.166
41349W        W 6510  44.256  34.034  11.499
41350W        W 6511   9.630  11.924   2.697
41351W        W 6512  28.385  31.291   3.719
41352W        W 6513  28.786  22.957   0.441
41353W        W 6514   8.351  19.299  12.926
41354W        W 6515   3.175   7.760  10.930
41355W        W 6516  16.992   1.643  14.929
41356W        W 6517  33.356  25.073  12.916
41357W        W 6518  42.288   6.909  14.466
41358W        W 6519  13.908  26.958   3.319
41359W        W 6520  39.789   3.317   1.781
41360W        W 6521  31.152  42.837   2.112
41361W        W 6522  17.850  41.247  12.973
41362W        W 6523  34.572  25.419   3.308
41363W        W 6524  43.386  22.706   0.743
41364W        W 6525   4.771  20.096   0.337
41365W        W 6526  34.533   4.991  11.518
41366W        W 6527  20.161  23.443   4.913
41367W        W 6528   0.502  40.320   2.729
41368W        W 6529  28.081  36.579  12.930
41369W        W 6530   7.867  15.163   0.295
41370W        W 6531  28.928  33.330  13.926
41371W        W 6532  40.343  22.014   2.300
41372W        W 6533   9.361  42.224   4.369
41373W        W 6534  10.580  34.874   4.271
41374W        W 6535  22.891  32.817  12.991
41375W        W 6536  26.128  29.597   0.826
41376W        W 6537  35.477  21.224   1.289
41377W        W 6538  40.009   6.875   4.367
41378W        W 6539  43.716   3.726   4.889
41379W        W 6540  34.953   5.867   1.732
41380W        W 6541  12.094  42.731   0.012
41381W        W 6542   7.408  21.183  13.897
41382W        W 6543   1.728  37.884   1.922
41383W        W 6544  37.718   0.972  10.864
41384W        W 6545   8.493  12.750  14.876
41385W        W 6546  27.692  14.448  11.587
41386W        W 6547  17.135  23.974   3.110
41387W        W 6548  21.114  26.356   1.422
41388W        W 6549  19.218  16.548   0.504
41389W        W 6550  16.354  33.061   1.879
41390W        W 6551  40.437   4.548  11.873
41391W        W 6552  16.519  42.259   1.959
41392W        W 6553  28.692  21.183   3.866
41393W        W 6554   8.756  26.973  11.631
41394W        W 6555  41.862  32.945   0.091
41395W        W 6556  44.547  12.175  14.868
41396W        W 6557  12.049  35.202   3.313
41397W        W 6558  19.410  38.949  10.594
41398W        W 6559   7.362  21.011   0.413
41399W        W 6560  44.064  34.357   5.059
41400W        W 6561  11.948  42.880   1.905
41401W        W 6562  43.936  34.094   4.615
41402W        W 6563   2.796  29.648   0.385
41403W        W 6564  12.092  13.993   0.891
41404W        W 6565  11.331  24.173   2.106
41405W        W 6566   4.198  31.047   1.486
41406W        W 6567  26.959   8.908  12.905
41407W        W 6568  36.802  37.003   0.740
41408W        W 6569   1.913   5.430  13.815
41409W        W 6570   6.738  22.007  10.564
41410W        W 6571   3.727  11.862   4.676
41411W        W 6572  38.977   8.665   9.903
41412W        W 6573  37.952   8.675   4.250
41413W        W 6574  43.840  22.592  12.827
41414W        W 6575  15.591   6.576   0.192
41415W        W 6576  19.966   2.212  11.429
41416W        W 6577   4.859  35.637  10.595
41417W        W 6578   3.396  44.499   3.728
41418W        W 6579  16.793  11.572   5.038
41419W        W 6580  32.416  18.549   1.084
41420W        W 6581  36.525  32.553   0.865
41421W        W 6582  30.576   8.152  10.808
41422W        W 6583  14.247   0.486   1.126
41423W        W 6584  32.912  20.080   1.790
41424W        W 6585   2.927  24.621  10.810
41425W        W 6586   3.843  32.206  14.354
41426W        W 6587  26.014  17.012   1.339
41427W        W 6588  34.456  44.396  14.813
41428W        W 6589   6.944  30.113   0.440
41429W        W 6590  24.495  12.626  11.985
41430W        W 6591  30.429  35.881   3.686
41431W        W 6592  33.121  28.387   0.115
41432W        W 6593  27.162  25.048  13.874
41433W        W 6594  26.157  23.221  10.338
41434W        W 6595  43.894  12.324  12.144
41435W        W 6596  30.479  24.660  14.228
41436W        W 6597   7.491  35.065   0.816
41437W        W 6598  17.666  28.288   1.474
41438W        W 6599  21.818   0.165   0.307
41439W        W 6600  30.685  10.895  11.935
41440W        W 6601  26.216   3.197   5.000
41441W        W 6602  15.301  43.948   4.594
41442W        W 6603  30.384  30.982  14.156
41443W        W 6604  29.157  23.473  14.032
41444W        W 6605  26.990  27.406   1.217
41445W        W 6606  11.277  23.224   1.834
41446W        W 6607  16.054  25.684   0.869
41447W        W 6608  42.851   1.219  10.626
41448W        W 6609   9.193   2.490  10.693
41449W        W 6610  24.085  37.133  10.689
41450W        W 6611   6.481  25.766  13.544
41451W        W 6612  22.972  23.435  14.486
41452W        W 6613  20.068   7.280  12.995
41453W        W 6614  15.088   4.666   1.335
41454W        W 6615  31.423  13.292   1.878
41455W        W 6616  17.327  27.563  12.940
41456W        W 6617   5.454  35.511   2.159
41457W        W 6618  28.022   4.221   1.360
41458W        W 6619  40.795  29.733  10.671
41459W        W 6620  35.896  11.767   0.904
41460W        W 6621  38.889  33.842   2.844
41461W        W 6622  15.149  12.605  14.825
41462W        W 6623  39.160  42.402   4.489
41463W        W 6624  44.442   8.182  14.793
41464W        W 6625  23.143  26.025   0.085
41465W        W 6626  25.036   1.198  11.220
41466W        W 6627  42.651  19.709  13.431
41467W        W 6628  26.365  18.747   2.250
41468W        W 6629  11.008  41.079  14.785
41469W        W 6630  13.290  32.152  11.501
41470W        W 6631  24.640  33.545  14.740
41471W        W 6632  29.167  10.432   1.348
41472W        W 6633  22.531  44.774  14.638
41473W        W 6634  12.734   1.556   0.821
41474W        W 6635   2.504  28.607   4.598
41475W        W 6636  40.281  24.746   3.496
41476W        W 6637   3.406   8.918   4.035
41477W        W 6638  25.061   5.429  14.416
41478W        W 6639  38.999  37.016   0.021
41479W        W 6640   6.005  31.123  10.316
41480W        W 6641  33.156   7.827   1.724
41481W        W 6642   3.697  24.142   0.401
41482W        W 6643  42.226  20.813  12.991
41483W        W 6644  43.060   6.401  11.915
41484W        W 6645   1.219  27.617  12.917
41485W        W 6646  38.109  28.308   4.201
41486W        W 6647  38.386  19.683  12.006
41487W        W 6648  41.567  19.099   2.771
41488W        W 6649  18.262  39.221   2.638
41489W        W 6650   0.206  11.616   5.163
41490W        W 6651  42.364  16.071  11.470
41491W        W 6652   9.237  18.868   0.321
41492W        W 6653  22.149   8.009   0.853
41493W        W 6654  30.402  22.660  12.645
41494W        W 6655   7.078  24.506  11.204
41495W        W 6656  24.166  26.407   1.873
41496W        W 6657  43.282  16.699   4.616
41497W        W 6658  33.405  30.053  13.895
41498W        W 6659  32.957  21.118  12.906
41499W        W 6660   2.582  11.613  11.598
41500W        W 6661  41.942   5.778   4.198
41501W        W 6662  30.509  19.555   4.767
41502W        W 6663  28.192  43.650   1.403
41503W        W 6664  25.196   0.416  11.853
41504W        W 6665  36.067  29.709   1.838
41505W        W 6666  36.528  24.384   2.768
41506W        W 6667  30.962  25.919  12.127
41507W        W 6668   1.650  12.792   4.362
41508W        W 6669  41.772  27.898   0.793
41509W        W 6670  24.595  36.024  11.923
41510W        W 6671   9.773  34.996   4.802
41511W        W 6672   8.613  31.896  11.019
41512W        W 6673  34.404   2.003   3.578
41513W        W 6674  27.213   0.383  14.296
41514W        W 6675  41.814  28.658  13.045
41515W        W 6676   2.992  25.243  13.200
41516W        W 6677  18.403  44.392  10.161
41517W        W 6678   2.383  38.006   1.194
41518W        W 6679  32.239   0.070   2.793
41519W        W 6680   6.268   7.858   1.863
41520W        W 6681   6.152  18.653  13.871
41521W        W 6682  38.431  29.410   1.372
41522W        W 6683   6.932   5.959  11.645
41523W        W 6684  14.156  24.191  14.099
41524W        W 6685   0.832  24.682  11.379
41525W        W 6686  12.009  18.695   0.071
41526W        W 6687  44.968  10.822  13.222
41527W        W 6688   7.908  24.596  12.003
41528W        W 6689  19.300  14.564  10.277
41529W        W 6690  35.371  41.956  13.226
41530W        W 6691  39.958  39.075  12.027
41531W        W 6692  34.024  40.667   0.909
41532W        W 6693   8.371  15.278  10.433
41533W        W 6694  20.939  28.986   2.075
41534W        W 6695   8.871  20.744   3.812
41535W        W 6696  13.163  35.413   2.670
41536W        W 6697  27.453   5.730   3.650
41537W        W 6698  20.022  24.973   3.962
41538W        W 6699  25.592   8.338  12.705
41539W        W 6700  38.566   8.246  11.444
41540W        W 6701  17.030  23.697  14.660
41541W        W 6702  12.085  35.696   4.378
41542W        W 6703  42.371  39.124  12.418
41543W        W 6704  31.032  11.287  14.792
41544W        W 6705   8.118  27.422   1.259
41545W        W 6706  15.807  36.082   0.387
41546W        W 6707   8.762  19.450  12.577
41547W        W 6708  36.508   0.588   3.074
41548W        W 6709  27.770  29.918  11.585
41549W        W 6710  26.491  34.975  12.879
41550W        W 6711   7.416  13.673   2.686
41551W        W 6712   1.887  21.275  12.857
41552W        W 6713  41.182  27.779  11.032
41553W        W 6714  27.230   7.906   1.805
41554W        W 6715  33.215  31.399  11.601
41555W        W 6716   6.122  24.104   3.121
41556W        W 6717  32.186  41.835  11.709
41557W        W 6718  43.461  29.707   4.611
41558W        W 6719   1.727  30.154   2.288
41559W        W 6720   5.961  37.069   3.484
41560W        W 6721   5.175   9.251   0.871
41561W        W 6722  28.555  34.499  12.684
41562W        W 6723  13.998  23.082  13.546
41563W        W 6724   1.364   9.506   4.468
41564W        W 6725  17.287   1.701   0.748
41565W        W 6726  25.287   4.357   1.816
41566W        W 6727  15.361   8.359   2.216
41567W        W 6728   0.522  28.739   3.921
41568W        W 6729  12.966  26.651   0.624
41569W        W 6730   4.323  40.075  13.889
41570W        W 6731  40.246  38.109  11.600
41571W        W 6732  33.018  38.789  12.828
41572W        W 6733  44.272  11.743  14.966
41573W        W 6734   9.645  38.810   4.892
41574W        W 6735  31.041  24.163  11.929
41575W        W 6736  40.893  12.296  13.206
41576W        W 6737  16.693   9.169   3.407
41577W        W 6738  34.916  31.472   4.843
41578W        W 6739  20.162  11.039   0.908
41579W        W 6740  10.998  17.278  12.580
41580W        W 6741  44.444   6.357  14.504
41581W        W 6742  38.951  17.714   4.534
41582W        W 6743  25.265  24.073  11.496
41583W        W 6744  28.912  36.576   0.298
41584W        W 6745  28.572   8.089  10.813
41585W        W 6746  35.360  32.065  13.382
41586W        W 6747   2.301  33.693  11.009
41587W        W 6748  40.445  33.969   1.828
41588W        W 6749  31.417  32.301   4.701
41589W        W 6750   5.416   6.894  13.668
41590W        W 6751  38.355  35.801  14.801
41591W        W 6752  13.130  38.529   0.887
41592W        W 6753   9.262  21.714   4.043
41593W        W 6754   4.360  17.046   0.074
41594W        W 6755   7.652  31.073   4.769
41595W        W 6756  21.325   2.462  14.246
41596W        W 6757  37.602  37.384  12.518
41597W        W 6758  37.737  36.028   9.975
41598W        W 6759  33.600  14.684   0.857
41599W        W 6760   8.697   2.590  10.658
41600W        W 6761  12.576  29.413  11.004
41601W        W 6762  16.481  23.668  11.607
41602W        W 6763  17.613  20.262  12.116
41603W        W 6764  24.233   1.165  10.716
41604W        W 6765   6.804  28.079  12.000
41605W        W 6766   7.313  41.246  14.933
41606W        W 6767  43.894  44.988  12.411
41607W        W 6768   3.818   1.266  11.096
41608W        W 6769   7.166  38.597   2.800
41609W        W 6770  23.502  14.708  13.799
41610W        W 6771  29.482   2.659  12.106
41611W        W 6772   6.228  19.416  12.457
41612W        W 6773  43.728  33.855   0.129
41613W        W 6774  11.364  17.731   3.532
41614W        W 6775  16.139  22.014   4.356
41615W        W 6776   8.464   6.027   3.729
41616W        W 6777   4.791  41.856   1.473
41617W        W 6778  42.453  35.632  11.438
41618W        W 6779  26.190  25.665  13.072
41619W        W 6780   2.251  18.316  10.994
41620W        W 6781  14.671  12.611   3.206
41621W        W 6782  27.517  26.015  11.247
41622W        W 6783  36.023   9.310   3.413
41623W        W 6784  30.351  23.148   1.365
41624W        W 6785  23.919  42.353  14.182
41625W        W 6786  12.913  21.781   2.604
41626W        W 6787  12.832  44.029  11.393
41627W        W 6788  14.920  36.416  11.984
41628W        W 6789  37.072  43.312  11.871
41629W        W 6790  24.984  32.557   1.150
41630W        W 6791  18.483   2.417  13.482
41631W        W 6792  11.207   6.114  11.535
41632W        W 6793  30.086  12.552   1.951
41633W        W 6794   1.967   0.849   0.054
41634W        W 6795   0.901  16.368   2.675
41635W        W 6796  42.445  22.442   1.167
41636W        W 6797  24.067  19.577   2.847
41637W        W 6798   1.412  40.259  12.427
41638W        W 6799  25.444  32.102   4.169
41639W        W 6800  22.075  38.811   3.205
41640W        W 6801   9.808  29.622  12.043
41641W        W 6802   6.814  16.200   1.692
41642W        W 6803  43.051  32.888  11.715
41643W        W 6804  32.418  23.196  14.301
41644W        W 6805  33.991  29.132  10.415
41645W        W 6806   9.785  16.022   3.885
41646W        W 6807  20.884  41.983   3.982
41647W        W 6808   9.833  33.936  11.809
41648W        W 6809  42.452  17.251  12.112
41649W        W 6810   7.665  33.631   2.206
41650W        W 6811   7.151   6.903   3.188
41651W        W 6812  43.094  15.144  13.493
41652W        W 6813  14.306  37.385   0.907
41653W        W 6814  24.249   5.869  13.735
41654W        W 6815  33.793  43.415  11.070
41655W        W 6816  38.931  43.663   2.937
41656W        W 6817   0.202  14.819  13.059
41657W        W 6818   9.639   7.909  12.433
41658W        W 6819  16.295  26.488  12.088
41659W        W 6820  17.551  15.965  10.290
41660W        W 6821  35.332  21.045   1.758
41661W        W 6822  36.964  32.123  14.759
41662W        W 6823  37.135   7.781   1.297
41663W        W 6824  19.663  28.405  14.839
41664W        W 6825  21.701  16.926  11.823
41665W        W 6826  10.108   7.514  10.821
41666W        W 6827  28.201  37.246  11.211
41667W        W 6828  27.059   6.630  12.630
41668W        W 6829   0.283   5.895  12.502
41669W        W 6830  40.009  24.271  13.146
41670W        W 6831  12.594  33.557   3.625
41671W        W 6832   7.767   6.919   0.920
41672W        W 6833  28.143  41.588   4.563
41673W        W 6834  39.456  43.771   3.195
41674W        W 6835  40.858   6.326   4.927
41675W        W 6836  32.352  14.888  10.555
41676W        W 6837  17.241  12.262   5.168
41677W        W 6838  28.014  28.519   3.707
41678W        W 6839  43.974  39.445  13.861
41679W        W 6840  26.973  31.065  13.816
41680W        W 6841  43.971  32.462  11.698
41681W        W 6842  13.276  33.937   0.523
41682W        W 6843  41.944  30.126  10.455
41683W        W 6844  44.645  34.025   1.714
41684W        W 6845  36.941  37.294   4.105
41685W        W 6846  14.677   0.413   2.421
41686W        W 6847  18.751   3.370   0.448
41687W        W 6848  35.855  31.876   0.987
41688W        W 6849  27.541  36.929   0.422
41689W        W 6850   5.343  44.638  11.153
41690W        W 6851  26.845  27.707  13.434
41691W        W 6852  16.879  17.343  11.742
41692W        W 6853  40.096   9.322   4.144
41693W        W 6854  24.789  12.281  13.832
41694W        W 6855  41.519  31.435  12.256
41695W        W 6856  22.181  37.039   2.696
41696W        W 6857  13.903  16.815  14.289
41697W        W 6858  14.447  26.034   2.448
41698W        W 6859  16.704  29.686   0.636
41699W        W 6860   9.341  21.466  13.599
41700W        W 6861   6.699  32.991   2.707
41701W        W 6862   7.698   9.140   4.751
41702W        W 6863   4.795  31.305  10.310
41703W        W 6864  31.997  32.041   3.212
41704W        W 6865   7.630  19.266   2.723
41705W        W 6866  41.264   8.707   4.315
41706W        W 6867  31.440  15.996   1.258
41707W        W 6868  27.130  12.470   4.926
41708W        W 6869  22.410  28.911  12.447
41709W        W 6870  11.685  34.470  10.683
41710W        W 6871   8.396   7.064   1.768
41711W        W 6872   8.734  42.883  14.254
41712W        W 6873  32.450  43.012  11.113
41713W        W 6874  25.419  40.584   0.800
41714W        W 6875  20.009  41.782  13.550
41715W        W 6876  22.698  14.084  13.997
41716W        W 6877  12.701  19.266  12.445
41717W        W 6878  36.109  13.374   1.862
41718W        W 6879  20.210  24.514   0.272
41719W        W 6880  37.337  33.992  11.620
41720W        W 6881  17.101  38.488   2.565
41721W        W 6882  42.785  23.233   3.036
41722W        W 6883   0.447  29.446  14.808
41723W        W 6884  13.288  12.143  14.233
41724W        W 6885  15.335  31.775   2.853
41725W        W 6886  26.852  11.193   2.264
41726W        W 6887  32.511  12.771  10.755
41727W        W 6888  21.217   3.155   5.389
41728W        W 6889  24.190  41.959   2.323
41729W        W 6890  42.540  24.624   4.211
41730W        W 6891  21.977  15.960   5.331
41731W        W 6892  36.376  13.080  11.091
41732W        W 6893  24.913   9.343   4.864
41733W        W 6894  12.087  44.378   0.871
41734W        W 6895  40.464   6.939  14.873
41735W        W 6896  27.480   0.500   2.678
41736W        W 6897  22.983  37.310  13.394
41737W        W 6898   6.411  12.457   3.702
41738W        W 6899  32.439  25.962   3.758
41739W        W 6900  42.619  28.102  11.607
41740W        W 6901  11.434  39.981  13.591
41741W        W 6902  35.507  44.558   4.074
41742W        W 6903   8.426  20.092  12.317
41743W        W 6904  33.265  36.900  10.897
41744W        W 6905  24.568   1.549   3.170
41745W        W 6906  37.927  11.240   3.556
41746W        W 6907  42.097   3.899   2.847
41747W        W 6908  25.236  28.576  13.496
41748W        W 6909   3.170  35.920  11.481
41749W        W 6910   5.665  43.985   2.766
41750W        W 6911  13.667   1.925   4.396
41751W        W 6912  36.169  28.938   3.768
41752W        W 6913  25.263  21.948  11.185
41753W        W 6914   7.927  33.647  13.373
41754W        W 6915  34.920  34.037  13.455
41755W        W 6916  30.311  34.533   0.725
41756W        W 6917  42.425  26.458   1.415
41757W        W 6918   7.079  27.814  11.645
41758W        W 6919  14.058   7.838   0.461
41759W        W 6920  43.656  32.350   3.340
41760W        W 6921  23.133  15.144  10.583
41761W        W 6922  31.144   4.299   1.807
41762W        W 6923  20.579  10.700   3.937
41763W        W 6924  13.063   3.115   0.939
41764W        W 6925  31.605  20.392   1.278
41765W        W 6926  39.939  44.472   0.757
41766W        W 6927  29.406   1.047  14.816
41767W        W 6928  14.778  20.170   2.746
41768W        W 6929   3.289  16.913  10.149
41769W        W 6930  13.742  35.582  12.454
41770W        W 6931  43.499  14.220  10.749
41771W        W 6932  29.318  18.651   0.019
41772W        W 6933  28.529  25.970  14.364
41773W        W 6934  37.916   5.949   0.503
41774W        W 6935  28.464   7.998  12.515
41775W        W 6936  18.186  13.654  10.734
41776W        W 6937   1.717  33.488  13.205
41777W        W 6938  18.496  37.941  13.900
41778W        W 6939  29.991  28.216  10.765
41779W        W 6940  29.197  36.533  14.112
41780W        W 6941   7.893  35.975  10.591
41781W        W 6942  18.283   0.105  12.394
41782W        W 6943  16.772  14.595   4.535
41783W        W 6944   6.727  36.207   1.255
41784W        W 6945  14.589  16.792   9.933
41785W        W 6946  15.193  32.629   2.364
41786W        W 6947  14.991  22.392   1.886
41787W        W 6948  26.741  34.090   2.758
41788W        W 6949  42.356  40.229   0.430
41789W        W 6950   4.857  21.134  11.947
41790W        W 6951  21.071  33.137  13.273
41791W        W 6952  27.971  31.274   4.097
41792W        W 6953  18.544  13.930  14.901
41793W        W 6954  34.382  12.376   4.020
41794W        W 6955  42.511  16.218  11.994
41795W        W 6956  37.959  29.365   0.647
41796W        W 6957   5.343  18.979   3.024
41797W        W 6958  43.571  42.449  12.682
41798W        W 6959  35.072  26.275   0.281
41799W        W 6960  42.438  36.459   2.610
41800W        W 6961  27.108  28.731   4.089
41801W        W 6962  44.470   7.222   2.285
41802W        W 6963   6.506  19.162   4.482
41803W        W 6964  18.007  23.168  10.693
41804W        W 6965  13.563  25.375  12.317
41805W        W 6966  43.022  14.231   4.746
41806W        W 6967   6.756   3.436   2.040
41807W        W 6968   7.209  12.230   2.272
41808W        W 6969  42.631  10.661   0.029
41809W        W 6970   7.752  36.613   3.642
41810W        W 6971  18.671  24.353  12.001
41811W        W 6972  24.048   0.234   3.709
41812W        W 6973  27.245  39.926  10.616
41813W        W 6974   6.803   8.388   0.409
41814W        W 6975  25.759   3.425   0.960
41815W        W 6976  28.154  12.395  14.787
41816W        W 6977  13.309  44.954   0.023
41817W        W 6978  22.366  18.928   4.165
41818W        W 6979   9.509  24.962  13.298
41819W        W 6980  22.270   1.963  14.413
41820W        W 6981  23.720  44.887   1.261
41821W        W 6982  37.769  20.163   4.185
41822W        W 6983  34.427  28.452   1.229
41823W        W 6984  22.184  26.754  12.928
41824W        W 6985  29.573   3.337   4.636
41825W        W 6986  25.249  16.598  11.929
41826W        W 6987  27.605  24.609  10.858
41827W        W 6988   6.134  13.095   2.851
41828W        W 6989  40.492  19.606   1.800
41829W        W 6990   8.592  35.290   3.934
41830W        W 6991  43.323   6.504   4.576
41831W        W 6992  32.954  18.161  12.624
41832W        W 6993   5.321  43.853   2.195
41833W        W 6994  35.476  32.063  13.918
41834W        W 6995  43.183  15.418   4.916
41835W        W 6996  38.075   1.810  13.497
41836W        W 6997   7.852   2.494   3.192
41837W        W 6998   1.006   8.204   2.199
41838W        W 6999  40.113  24.492  10.669
41839W        W 7000  42.333  26.599   4.561
41840W        W 7001  41.739  27.389  10.164
41841W        W 7002  26.193  42.994   3.600
41842W        W 7003  11.371  40.781   0.694
41843W        W 7004  39.512  31.094   0.679
41844W        W 7005  30.066   6.005   4.272
41845W        W 7006   6.361  25.766  12.588
41846W        W 7007  17.094   4.285  14.818
41847W        W 7008  40.097  20.176  12.024
41848W        W 7009  36.932  37.082  10.375
41849W        W 7010  31.092  21.795   1.004
41850W        W 7011  43.035   4.293   3.830
41851W        W 7012   9.124  31.939  14.307
41852W        W 7013  36.074  42.762   2.988
41853W        W 7014   0.624  13.225  14.364
41854W        W 7015  15.359  38.997  12.463
41855W        W 7016  23.064  17.121   4.201
41856W        W 7017  33.934  15.009   3.731
41857W        W 7018   3.670   2.249   5.120
41858W        W 7019  27.653  44.247  12.000
41859W        W 7020  31.394  44.766  13.941
41860W        W 7021  28.950  24.905   2.762
41861W        W 7022  35.601  37.513   1.939
41862W        W 7023  39.506  20.487   0.380
41863W        W 7024  17.272  23.468   1.883
41864W        W 7025  34.355  37.772   4.240
41865W        W 7026  26.447  33.623  10.712
41866W        W 7027  16.174  37.539   1.270
41867W        W 7028  43.693   6.321  13.375
41868W        W 7029   9.692  15.693   4.698
41869W        W 7030  40.026  18.822   1.173
41870W        W 7031  30.436   4.481   4.472
41871W        W 7032   2.485  16.167   4.083
41872W        W 7033   4.192   8.177  13.260
41873W        W 7034  20.623   5.129   4.223
41874W        W 7035  18.676  32.455  11.638
41875W        W 7036  43.318   6.773   1.707
41876W        W 7037  19.753   4.576  11.541
41877W        W 7038  39.387  34.223   3.293
41878W        W 7039  42.290  14.666  11.028
41879W        W 7040  24.771   8.932   3.792
41880W        W 7041  39.844   2.999  12.501
41881W        W 7042   9.874  10.948   4.126
41882W        W 7043   3.784  35.660  14.494
41883W        W 7044   8.038  39.883  10.455
41884W        W 7045  44.837   2.406   2.747
41885W        W 7046  17.193   8.838   9.930
41886W        W 7047  22.248  11.307  14.727
41887W        W 7048  39.862  44.151   1.365
41888W        W 7049  36.887  25.018   3.686
41889W        W 7050  41.040  24.400  13.584
41890W        W 7051  35.606  40.928   0.203
41891W        W 7052  24.988   8.836   4.971
41892W        W 7053   1.985  43.042  14.181
41893W        W 7054  26.605   0.665  10.589
41894W        W 7055  21.329   3.517  10.218
41895W        W 7056  35.099  44.261   0.738
41896W        W 7057  36.468  13.948  12.792
41897W        W 7058  36.893  43.143  12.316
41898W        W 7059  27.020  16.303  10.338
41899W        W 7060  24.586  21.176  10.252
41900W        W 7061  22.548  32.431  10.554
41901W        W 7062  19.102  18.871  11.965
41902W        W 7063  13.109  36.813  11.491
41903W        W 7064  23.594  22.028  11.971
41904W        W 7065  42.324  21.189   3.678
41905W        W 7066   0.924  10.643  14.432
41906W        W 7067  40.451  29.830  11.221
41907W        W 7068  27.234  38.513   2.201
41908W        W 7069  17.644  10.556   0.377
41909W        W 7070  17.523  15.356   1.908
41910W        W 7071  27.484  11.028   2.178
41911W        W 7072  26.647  37.098   0.490
41912W        W 7073  37.850  30.186  13.422
41913W        W 7074  41.098  34.407   0.656
41914W        W 7075  22.621   1.949  11.211
41915W        W 7076  43.076  18.233  14.915
41916W        W 7077  23.193  13.778   2.843
41917W        W 7078   1.248  43.953   4.630
41918W        W 7079   1.002   4.220   4.105
41919W        W 7080   2.112  24.975   0.500
41920W        W 7081  44.223  33.554   4.295
41921W        W 7082  36.625  34.085   0.908
41922W        W 7083  30.120  10.142   3.294
41923W        W 7084  15.764   1.465   4.790
41924W        W 7085  25.607  21.573  11.130
41925W        W 7086  15.118  26.564  14.819
41926W        W 7087   0.273  28.505  12.354
41927W        W 7088   7.628  41.805  11.166
41928W        W 7089  42.894  34.492   0.906
41929W        W 7090  27.200   8.278   4.242
41930W        W 7091   1.683  17.716  11.613
41931W        W 7092  41.655  32.968  11.087
41932W        W 7093  28.136   5.229   3.218
41933W        W 7094   2.357  15.619  11.649
41934W        W 7095   4.123  26.465   3.031
41935W        W 7096  18.295  24.537  14.389
41936W        W 7097  39.967   9.155   2.340
41937W        W 7098  23.256  39.245  14.749
41938W        W 7099  14.189  19.490  12.580
41939W        W 7100   4.420  19.163   3.757
41940W        W 7101  28.954  13.760   1.769
41941W        W 7102   4.983  30.652  11.202
41942W        W 7103  25.577  31.641  10.264
41943W        W 7104  43.808  36.743   1.622
41944W        W 7105  12.108  36.559   4.152
41945W        W 7106  27.724  36.110  12.500
41946W        W 7107  22.899   5.427  13.911
41947W        W 7108  12.275  16.195  11.219
41948W        W 7109  41.238   0.839  14.746
41949W        W 7110  41.985  31.960   1.937
41950W        W 7111  41.381  26.904   4.715
41951W        W 7112   3.916  11.718   1.226
41952W        W 7113   2.517  31.120   2.296
41953W        W 7114   1.856  37.222  11.110
41954W        W 7115  40.811  39.859  13.318
41955W        W 7116  37.584  23.765   1.693
41956W        W 7117  13.302  27.506   4.292
41957W        W 7118  18.663  30.796  10.564
41958W        W 7119  26.663   7.098  14.799
41959W        W 7120  44.375   2.121   4.619
41960W        W 7121  28.969   3.527  13.369
41961W        W 7122  37.796   3.816   0.463
41962W        W 7123   8.780  27.512  13.897
41963W        W 7124   4.297   2.270  14.024
41964W        W 7125  14.376  30.969   4.322
41965W        W 7126  44.269   6.623   0.871
41966W        W 7127  10.358   3.304  13.254
41967W        W 7128  21.293   7.817   3.376
41968W        W 7129  12.081  27.557   1.863
41969W        W 7130  20.285  25.614  14.397
41970W        W 7131  26.609  36.267   1.507
41971W        W 7132  15.110  27.766   4.119
41972W        W 7133  29.540   2.250  14.964
41973W        W 7134  34.604  40.609  14.235
41974W        W 7135  21.183   1.309  14.825
41975W        W 7136   9.703  17.580  11.124
41976W        W 7137  19.724  41.119   2.413
41977W        W 7138  17.621  38.854  14.791
41978W        W 7139  16.640  38.355  12.243
41979W        W 7140  44.834  20.707  10.392
41980W        W 7141  38.741  12.197   3.641
41981W        W 7142  42.131  44.458   1.646
41982W        W 7143  22.031   9.580  11.278
41983W        W 7144   5.047  31.501  13.392
41984W        W 7145   7.609  21.644   4.858
41985W        W 7146  37.210  10.580   1.383
41986W        W 7147  15.519   0.636   4.711
41987W        W 7148  27.487   4.208  11.166
41988W        W 7149  30.230  23.534  13.348
41989W        W 7150  32.550   3.753   3.671
41990W        W 7151   8.758   1.339  11.336
41991W        W 7152  34.510  10.285  11.238
41992W        W 7153   8.760  37.042  10.758
41993W        W 7154  32.492  14.426   0.429
41994W        W 7155  18.742  36.894  13.411
41995W        W 7156  30.518  26.727  12.868
41996W        W 7157  24.768  44.443  10.958
41997W        W 7158   3.476  29.661  14.967
41998W        W 7159  33.170  26.981  11.091
41999W        W 7160  27.518  41.751   0.048
42000W        W 7161  38.941  26.629  13.495
42001W        W 7162  44.755  12.552  11.509
42002W        W 7163   5.444  14.491   5.029
42003W        W 7164  25.029  33.371  14.460
42004W        W 7165   2.816  19.478  14.579
42005W        W 7166   1.002  14.340  12.568
42006W        W 7167  13.253   3.424  11.958
42007W        W 7168  18.759   6.450  10.722
42008W        W 7169   5.622  11.416  14.411
42009W        W 7170  37.876  25.963  13.024
42010W        W 7171  33.099  36.759  14.526
42011W        W 7172  16.115   2.855   4.635
42012W        W 7173  27.596  21.523  14.373
42013W        W 7174  39.463  30.423   4.138
42014W        W 7175   9.808  30.107  10.417
42015W        W 7176  35.349  14.668  13.671
42016W        W 7177  42.061   0.008   2.825
42017W        W 7178  43.522   0.939  14.433
42018W        W 7179  24.041  24.527   0.441
42019W        W 7180  10.370  26.520   2.870
42020W        W 7181  14.223  41.971   4.453
42021W        W 7182  42.221   7.674  10.698
42022W        W 7183   0.283  26.713  13.877
42023W        W 7184  37.303  29.911  14.858
42024W        W 7185   1.820  11.126  10.560
42025W        W 7186  38.169  19.111   0.496
42026W        W 7187  14.678  34.920   0.728
42027W        W 7188  42.305  40.120   4.148
42028W        W 7189  15.663  31.856  10.863
42029W        W 7190  26.943  29.767   2.425
42030W        W 7191  44.881   3.187   0.958
42031W        W 7192  16.177  23.221  13.532
42032W        W 7193  13.622   3.207  11.176
42033W        W 7194   1.379  33.324  11.078
42034W        W 7195  12.807   9.418  14.584
42035W        W 7196  39.498  16.128   0.417
42036W        W 7197  13.117  22.994   2.682
42037W        W 7198   4.044   7.137  14.495
42038W        W 7199  14.741  32.387  10.779
42039W        W 7200   2.890   0.512   0.278
42040W        W 7201  25.916  17.189  14.370
42041W        W 7202  37.888  28.486   5.006
42042W        W 7203  33.799  24.698   4.085
42043W        W 7204   5.602  34.779  12.950
42044W        W 7205  20.509  10.708   2.958
42045W        W 7206  41.242  22.001  10.660
42046W        W 7207  10.352  10.769  13.426
42047W        W 7208  29.473  35.897   1.903
42048W        W 7209  20.471  28.779   1.961
42049W        W 7210   9.302  30.904  12.643
42050W        W 7211  43.298  32.527   2.318
42051W        W 7212  12.274  16.695   1.261
42052W        W 7213   9.157  14.585  13.809
42053W        W 7214  38.366  41.201  11.977
42054W        W 7215  23.617  34.150   5.078
42055W        W 7216   3.226  25.999   5.077
42056W        W 7217  11.732  22.914   1.727
42057W        W 7218  32.824  35.394  13.972
42058W        W 7219  19.500  15.094   2.569
42059W        W 7220  26.959  13.958   3.311
42060W        W 7221  19.531  25.757  13.857
42061W        W 7222   5.801  33.701   0.289
42062W        W 7223   9.750  23.647  13.404
42063W        W 7224   3.816  40.765   1.713
42064W        W 7225  13.730  17.951   3.600
42065W        W 7226   3.194   2.764   3.267
42066W        W 7227  24.004  34.148   1.799
42067W        W 7228  14.062  23.580  14.830
42068W        W 7229   8.321   3.006   1.926
42069W        W 7230  20.946  10.855   4.322
42070W        W 7231  12.357  25.249   1.933
42071W        W 7232   5.174  12.642   3.562
42072W        W 7233  44.668  33.720   5.158
42073W        W 7234  29.144   6.290  12.960
42074W        W 7235  29.004  16.662   4.109
42075W        W 7236  29.000  22.723   1.623
42076W        W 7237  39.565  34.886  12.153
42077W        W 7238  24.557  18.031  13.870
42078W        W 7239  30.131   2.780  11.489
42079W        W 7240  19.570  23.467   3.242
42080W        W 7241   1.995  34.176  13.741
42081W        W 7242  33.231  35.507  12.812
42082W        W 7243  14.109  16.365  13.515
42083W        W 7244  36.382  11.088   4.193
42084W        W 7245  12.375  19.098   2.285
42085W        W 7246  42.508  24.442   0.123
42086W        W 7247  39.019  24.913   4.092
42087W        W 7248  19.037   8.187   2.800
42088W        W 7249   4.175  41.135   5.057
42089W        W 7250  40.259  34.193  13.493
42090W        W 7251  18.779  16.248   0.827
42091W        W 7252  35.149   6.520   3.638
42092W        W 7253   1.203  15.671  10.832
42093W        W 7254  27.425  26.885  11.311
42094W        W 7255  24.635  40.920  11.022
42095W        W 7256   6.262  31.874   1.283
42096W        W 7257   8.734  27.003   9.855
42097W        W 7258  13.153  11.404  14.306
42098W        W 7259  41.870  32.421   4.583
42099W        W 7260  40.056  43.040  14.394
42100W        W 7261  28.479  32.428   3.751
42101W        W 7262  21.735  31.900   2.258
42102W        W 7263  15.563  15.321   1.585
42103W        W 7264  12.475  18.061  11.272
42104W        W 7265  23.070   9.083   9.899
42105W        W 7266   5.424  37.432  11.391
42106W        W 7267   7.639  43.783   2.269
42107W        W 7268  15.410  24.351  10.943
42108W        W 7269  10.532   2.839   2.767
42109W        W 7270   7.325  28.138  11.978
42110W        W 7271  24.806  35.411   5.432
42111W        W 7272  18.089  38.727  12.418
42112W        W 7273   1.230  34.622   4.073
42113W        W 7274  18.798  32.302  12.570
42114W        W 7275  31.859   2.768   3.152
42115W        W 7276  41.586  19.530   1.870
42116W        W 7277  21.814  33.787   3.499
42117W        W 7278  21.997  37.462  12.487
42118W        W 7279  27.580   9.674  13.343
42119W        W 7280   3.036  33.681   4.989
42120W        W 7281  20.020  12.641   1.191
42121W        W 7282  12.009  13.570  14.878
42122W        W 7283   5.486  30.120   0.017
42123W        W 7284  44.493   1.854   3.241
42124W        W 7285  15.651  16.065  11.557
42125W        W 7286  23.163  12.273   2.653
42126W        W 7287  25.082  17.069  12.936
42127W        W 7288  35.048  38.617   0.850
42128W        W 7289  26.449  35.811  11.129
42129W        W 7290   2.255  26.051   1.019
42130W        W 7291   2.436  25.383   0.349
42131W        W 7292  43.018  22.843  14.821
42132W        W 7293  14.750  18.301   5.063
42133W        W 7294  39.901  12.300   0.893
42134W        W 7295  11.403  19.363  12.069
42135W        W 7296   3.880  37.678   1.190
42136W        W 7297   9.765  10.341   4.746
42137W        W 7298   2.506  26.620   2.790
42138W        W 7299  26.622  32.036  11.273
42139W        W 7300  41.730  32.608   3.138
42140W        W 7301   0.557  33.531  14.364
42141W        W 7302  34.779  12.819  11.965
42142W        W 7303  26.208  42.984   3.077
42143W        W 7304   0.627   0.260   1.761
42144W        W 7305  14.658   2.894  11.980
42145W        W 7306  27.643  36.547   4.602
42146W        W 7307   2.047  31.612  12.072
42147W        W 7308  44.334  18.117   1.808
42148W        W 7309  23.817  10.472  10.254
42149W        W 7310  18.713  26.618   1.310
42150W        W 7311  18.646  29.534  10.970
42151W        W 7312  11.679  44.381   2.193
42152W        W 7313  35.228  38.437   3.591
42153W        W 7314  34.747  36.937  10.515
42154W        W 7315   2.381  16.974   1.182
42155W        W 7316  20.042  31.551   4.243
42156W        W 7317  24.304  33.573   2.461
42157W        W 7318   3.713  35.126   4.647
42158W        W 7319  34.196  43.833  11.482
42159W        W 7320  31.772   7.381  14.924
42160W        W 7321  25.204  20.096   1.174
42161W        W 7322  13.134  37.053   3.356
42162W        W 7323  12.748  27.457  14.761
42163W        W 7324   5.649  11.195  10.237
42164W        W 7325  13.734  18.296   2.277
42165W        W 7326  11.829  33.574   3.111
42166W        W 7327   7.170   9.159  12.553
42167W        W 7328  17.981  12.073   0.898
42168W        W 7329   8.215   9.099  11.207
42169W        W 7330  31.944   4.333   1.240
42170W        W 7331   1.955   4.188  13.057
42171W        W 7332  17.353  26.170   5.012
42172W        W 7333  41.075   8.393  13.477
42173W        W 7334  14.863  26.117  14.840
42174W        W 7335  18.637  37.934   4.013
42175W        W 7336  33.692   7.485  12.070
42176W        W 7337  23.124   6.839   0.276
42177W        W 7338  38.859  21.202   4.015
42178W        W 7339  17.702  29.404  11.028
42179W        W 7340  33.541  29.074  14.040
42180W        W 7341  16.761  31.054   3.595
42181W        W 7342  14.697  27.279   3.789
42182W        W 7343  16.929  19.686   0.357
42183W        W 7344  26.513  23.716  12.539
42184W        W 7345   5.685  25.063  14.285
42185W        W 7346  14.058  41.819  14.977
42186W        W 7347  30.535  20.142   2.205
42187W        W 7348  27.052  44.168  14.804
42188W        W 7349   1.972  24.869   4.552
42189W        W 7350  20.844  39.543   3.595
42190W        W 7351  24.637  11.185   0.342
42191W        W 7352  37.247  41.932  12.078
42192W        W 7353  26.145   7.202   2.043
42193W        W 7354   4.244  41.669  11.956
42194W        W 7355  39.951  31.981   1.608
42195W        W 7356   3.746  20.156  14.917
42196W        W 7357   4.687   1.749   3.633
42197W        W 7358  39.268  13.847   4.538
42198W        W 7359   4.866  41.781  13.549
42199W        W 7360  33.373  41.314  12.117
42200W        W 7361   4.774  11.179  10.604
42201W        W 7362  18.001  44.387  14.828
42202W        W 7363  27.940  10.364   1.731
42203W        W 7364  14.373  22.168   3.603
42204W        W 7365  24.007  38.773   0.957
42205W        W 7366  22.711  22.032   2.566
42206W        W 7367  28.679   1.912   2.197
42207W        W 7368  20.768  21.791   0.008
42208W        W 7369   4.365  14.002   4.969
42209W        W 7370  14.609  35.978  13.100
42210W        W 7371  24.059   8.336   3.082
42211W        W 7372  23.931  29.231   1.373
42212W        W 7373  25.114  36.286  13.044
42213W        W 7374  11.323  43.479  11.999
42214W        W 7375   7.764  37.478  12.582
42215W        W 7376  35.825  40.564   3.692
42216W        W 7377  37.594  44.015  11.473
42217W        W 7378  20.831  18.225   4.103
42218W        W 7379   7.519  42.040  13.084
42219W        W 7380  25.746   8.373   4.771
42220W        W 7381  38.820   7.237  13.824
42221W        W 7382  21.305  30.566   1.589
42222W        W 7383   6.413  37.566   0.880
42223W        W 7384  33.543  41.536  11.247
42224W        W 7385  39.444  34.004  13.820
42225W        W 7386   0.790  14.747  11.234
42226W        W 7387  38.934  17.033   1.825
42227W        W 7388  10.231  18.467  13.561
42228W        W 7389  15.549  29.630   3.278
42229W        W 7390  30.811  19.585   3.668
42230W        W 7391  29.030  24.265  13.540
42231W        W 7392   4.310   0.730   2.259
42232W        W 7393   8.341  43.515   1.637
42233W        W 7394  16.206   9.930   0.593
42234W        W 7395  39.579   9.798   3.014
42235W        W 7396  17.254  24.391  11.175
42236W        W 7397  27.165  10.231  10.527
42237W        W 7398  21.704  26.577   3.188
42238W        W 7399   5.147  11.754   1.356
42239W        W 7400   8.288  32.371  13.515
42240W        W 7401  37.371  11.046  11.520
42241W        W 7402  31.688  41.206  14.026
42242W        W 7403  41.885  12.873  13.978
42243W        W 7404  13.073   5.650  12.460
42244W        W 7405   6.785  24.541  13.983
42245W        W 7406  17.709  35.096   3.229
42246W        W 7407  13.438   1.248   1.239
42247W        W 7408  31.837  40.079   1.775
42248W        W 7409   3.899  32.953   3.114
42249W        W 7410  23.110  24.454  11.990
42250W        W 7411  26.531  18.235   0.662
42251W        W 7412  36.492  42.233  11.662
42252W        W 7413  30.217  19.927   1.576
42253W        W 7414   7.198   8.313  11.550
42254W        W 7415  28.888  23.914   2.633
42255W        W 7416  36.507  23.803  12.101
42256W        W 7417  18.474  10.471   3.458
42257W        W 7418  37.798   2.575  11.591
42258W        W 7419  19.652  38.541   0.219
42259W        W 7420  31.438  11.866   0.366
42260W        W 7421  20.523   4.948  13.966
42261W        W 7422  15.797   8.412  11.314
42262W        W 7423  17.713  22.075  12.846
42263W        W 7424  36.037  35.124   2.301
42264W        W 7425  34.102  23.261  10.621
42265W        W 7426  29.897  21.741   4.449
42266W        W 7427  24.581  44.199   3.198
42267W        W 7428  16.255  25.537   1.327
42268W        W 7429  33.997   4.250   2.001
42269W        W 7430  34.876  42.942   0.503
42270W        W 7431  33.781  27.653   0.551
42271W        W 7432  28.708  43.806   1.321
42272W        W 7433  18.840  22.534   1.374
42273W        W 7434   0.224  40.086   9.895
42274W        W 7435  19.164  42.843  14.266
42275W        W 7436  44.774  27.632   3.225
42276W        W 7437  41.523  15.006   3.270
42277W        W 7438  14.198  40.323   3.600
42278W        W 7439  26.076  19.609   4.028
42279W        W 7440  23.935   3.896   2.732
42280W        W 7441  28.621  20.811  13.926
42281W        W 7442  19.831   0.705   3.436
42282W        W 7443   1.808  38.033  10.734
42283W        W 7444  34.552  30.509   4.851
42284W        W 7445   0.862  42.902   4.795
42285W        W 7446  14.588  36.373  10.722
42286W        W 7447  24.417  29.405  12.050
42287W        W 7448  28.032  32.192  14.352
42288W        W 7449  26.131  13.640   0.209
42289W        W 7450  31.900  37.903  12.464
42290W        W 7451  13.764   4.720  13.337
42291W        W 7452   5.071  44.320   2.278
42292W        W 7453  32.434  19.473  13.733
42293W        W 7454   6.227  32.550   4.366
42294W        W 7455   4.962  21.968  13.962
42295W        W 7456  42.904  42.368   0.307
42296W        W 7457  10.390  31.691  11.172
42297W        W 7458  44.251  19.254  12.927
42298W        W 7459  20.245  10.310   3.197
42299W        W 7460   9.132  26.264  11.429
42300W        W 7461  28.504   3.649  11.694
42301W        W 7462  40.502  26.252  11.055
42302W        W 7463  24.024  39.748  14.946
42303W        W 7464   2.377  33.684  10.418
42304W        W 7465  41.787  20.469   3.338
42305W        W 7466  44.088  21.305  13.682
42306W        W 7467  34.837  42.980   2.651
42307W        W 7468   9.475   7.904   4.287
42308W        W 7469  36.314  18.140  11.612
42309W        W 7470  31.503   0.417   0.841
42310W        W 7471   7.006   7.482  13.947
42311W        W 7472   9.066  10.390  11.073
42312W        W 7473  44.667  41.904  11.553
42313W        W 7474  42.645  39.349   1.419
42314W        W 7475   8.131  17.215   0.185
42315W        W 7476  15.063   6.764   4.252
42316W        W 7477  23.749  11.271   0.060
42317W        W 7478  43.351  34.421  13.408
42318W        W 7479  22.793  21.152  14.866
42319W        W 7480  31.018  11.429   0.305
42320W        W 7481  22.029  31.016   4.414
42321W        W 7482  33.152  33.004  11.699
42322W        W 7483  37.996  27.392  10.623
42323W        W 7484   1.850  42.563   0.292
42324W        W 7485  42.024  31.036  12.618
42325W        W 7486  15.159  13.130   4.819
42326W        W 7487   8.318   8.190  13.584
42327W        W 7488  39.874  44.034   0.466
42328W        W 7489   2.650  12.357   1.266
42329W        W 7490  26.422  19.438   3.658
42330W        W 7491  31.922  18.302  14.416
42331W        W 7492  34.826  28.203  14.941
42332W        W 7493   7.449  43.840   0.034
42333W        W 7494  21.736   4.943  11.642
42334W        W 7495  33.349  12.187  10.609
42335W        W 7496   6.429   4.421   2.248
42336W        W 7497  24.633  34.370  14.835
42337W        W 7498  17.764   0.025  12.424
42338W        W 7499  26.042   0.947  11.514
42339W        W 7500  40.728  24.722   3.737
42340W        W 7501  12.847   5.303   0.503
42341W        W 7502   6.891   1.835  11.220
42342W        W 7503  39.238   2.144   1.277
42343W        W 7504  35.763  34.993  11.537
42344W        W 7505  20.371  30.440  11.614
42345W        W 7506  29.849  17.230   0.298
42346W        W 7507  39.521  30.451   2.947
42347W        W 7508  17.077  40.601  13.825
42348W        W 7509  42.965  38.698   2.744
42349W        W 7510  28.622   6.509   2.353
42350W        W 7511   3.763  27.921  13.381
42351W        W 7512   9.311  30.459  13.375
42352W        W 7513   4.388  16.125  13.436
42353W        W 7514  22.537  13.609   4.312
42354W        W 7515   4.786  37.616   1.363
42355W        W 7516  38.039  19.207   3.366
42356W        W 7517  42.446   5.058   1.602
42357W        W 7518   2.145  26.590  11.354
42358W        W 7519  24.429   9.214   4.121
42359W        W 7520   6.711  17.755   3.563
42360W        W 7521  31.427  24.117   3.229
42361W        W 7522  14.106  16.316   2.158
42362W        W 7523  37.930  29.568   4.297
42363W        W 7524   6.847  32.696   3.644
42364W        W 7525  43.952   1.884   4.346
42365W        W 7526  27.211   6.968  14.807
42366W        W 7527  18.755  21.292   4.075
42367W        W 7528  27.132  41.224   3.723
42368W        W 7529  37.601   0.259   4.366
42369W        W 7530  22.019   9.870   4.108
42370W        W 7531   5.954  35.215  11.970
42371W        W 7532  15.985  44.293  12.601
42372W        W 7533  14.577  20.609  14.419
42373W        W 7534  41.446  24.241   2.890
42374W        W 7535  34.314  30.475   2.872
42375W        W 7536  38.014  30.737   4.832
42376W        W 7537  43.198  23.526  14.035
42377W        W 7538  38.384  14.152  12.025
42378W        W 7539  37.821  37.668   1.315
42379W        W 7540  23.208  28.673  11.978
42380W        W 7541  16.581   1.698  11.157
42381W        W 7542  19.188  12.361  14.501
42382W        W 7543   6.603  43.044   0.429
42383W        W 7544  32.268   4.846   1.652
42384W        W 7545  13.285   2.853   2.718
42385W        W 7546  13.217  11.851  11.833
42386W        W 7547  24.874  41.591   4.289
42387W        W 7548  17.810  11.283   2.315
42388W        W 7549  29.653  10.068  14.570
42389W        W 7550  21.538   6.744   2.403
42390W        W 7551  41.292  32.534   3.424
42391W        W 7552  18.579  16.556  14.562
42392W        W 7553   9.436  29.075   2.671
42393W        W 7554   4.515  39.376   3.930
42394W        W 7555  33.965   8.207  13.521
42395W        W 7556  33.089  30.378   4.897
42396W        W 7557  35.626   8.561  14.474
42397W        W 7558  13.213  44.819  13.420
42398W        W 7559   9.932  40.469  11.013
42399W        W 7560   6.940  33.391   0.898
42400W        W 7561  18.183  21.244   1.082
42401W        W 7562   5.130  22.014   3.879
42402W        W 7563  39.856  37.122  12.368
42403W        W 7564  40.140  43.851  14.774
42404W        W 7565  43.918  34.950  10.692
42405W        W 7566  27.643  42.151   1.254
42406W        W 7567   8.990   2.111   2.176
42407W        W 7568  14.271  31.923   4.646
42408W        W 7569  14.354   1.899  13.041
42409W        W 7570  41.611  21.086  14.902
42410W        W 7571  31.702   8.934  14.627
42411W        W 7572  27.474   4.788  11.184
42412W        W 7573  18.443  34.824  11.548
42413W        W 7574  17.128   1.600   9.960
42414W        W 7575  34.461  25.440  14.316
42415W        W 7576  20.566  14.194   1.001
42416W        W 7577  26.048  38.025  12.030
42417W        W 7578   0.167  41.265  14.892
42418W        W 7579  33.839  23.575  12.478
42419W        W 7580  39.732   1.264   0.811
42420W        W 7581  38.414  24.885  10.831
42421W        W 7582  27.837  33.781   0.501
42422W        W 7583   9.821   9.465   1.802
42423W        W 7584  38.455  31.758   0.018
42424W        W 7585   9.019   1.430   4.991
42425W        W 7586  11.640  18.454  12.447
42426W        W 7587  10.194  43.930   1.430
42427W        W 7588  44.728  42.915   2.776
42428W        W 7589  24.173  27.527  12.814
42429W        W 7590   8.063  12.342   0.712
42430W        W 7591   8.351  36.455   1.204
42431W        W 7592  39.471  15.383   3.780
42432W        W 7593  30.947  17.641   0.837
42433W        W 7594   4.719  36.630  11.965
42434W        W 7595   8.925  26.989   5.785
42435W        W 7596   5.231  16.529   2.395
42436W        W 7597  36.033  25.505  10.630
42437W        W 7598  35.076  13.198  13.830
42438W        W 7599  26.532  39.606  14.524
42439W        W 7600  39.054  26.763  10.740
42440W        W 7601   4.236  13.792   2.387
42441W        W 7602  41.513  36.466   9.825
42442W        W 7603   9.755   8.416  13.289
42443W        W 7604  12.663  24.453  12.122
42444W        W 7605  41.104  36.271   2.253
42445W        W 7606  23.745  43.951   1.293
42446W        W 7607  35.423   5.804  14.097
42447W        W 7608  30.882  24.013  13.901
42448W        W 7609  42.957   1.263  13.290
42449W        W 7610  17.596  35.761  11.067
42450W        W 7611  15.158  15.836  11.985
42451W        W 7612  20.042   2.401  12.458
42452W        W 7613  21.478   5.423  10.924
42453W        W 7614  23.088   9.975  13.590
42454W        W 7615  14.840  11.339  10.729
42455W        W 7616   4.918  42.833  13.411
42456W        W 7617  22.400  22.752   2.904
42457W        W 7618  17.272  27.230   4.586
42458W        W 7619  35.283  42.759  13.432
42459W        W 7620  25.695  15.511   0.870
42460W        W 7621  22.052  38.882   1.831
42461W        W 7622  19.293  36.102   4.084
42462W        W 7623  30.074  15.546   3.289
42463W        W 7624   7.161  14.371  12.371
42464W        W 7625  15.349   3.381   2.843
42465W        W 7626  16.549  42.343  13.736
42466W        W 7627  31.617   4.193  11.561
42467W        W 7628   0.465   4.291  10.523
42468W        W 7629   3.738  28.214   0.885
42469W        W 7630   6.452  40.643   4.893
42470W        W 7631  36.920  30.172   0.211
42471W        W 7632  40.010  34.521  13.102
42472W        W 7633  43.267  21.597   2.682
42473W        W 7634  43.943   6.359   1.208
42474W        W 7635  11.644   5.373  14.542
42475W        W 7636  11.156  19.265  11.562
42476W        W 7637  41.724   2.507   1.853
42477W        W 7638  34.126  16.831  12.570
42478W        W 7639   7.292  40.445  14.644
42479W        W 7640   5.739  40.783   4.508
42480W        W 7641  15.369  35.350   0.769
42481W        W 7642  44.812  40.895   0.569
42482W        W 7643   8.008   3.825  14.339
42483W        W 7644  43.693  35.106   4.660
42484W        W 7645  40.124   4.955   4.108
42485W        W 7646  36.478  14.308  10.752
42486W        W 7647  19.034  30.695  13.565
42487W        W 7648  21.954  35.857  12.784
42488W        W 7649  19.158   1.427   4.844
42489W        W 7650   3.556  42.029  11.640
42490W        W 7651  16.928   7.744   3.161
42491W        W 7652  17.027   5.928   4.749
42492W        W 7653   6.635   8.262  10.758
42493W        W 7654  37.423   5.954   2.333
42494W        W 7655  13.569  26.187   0.370
42495W        W 7656  21.345   5.296  12.323
42496W        W 7657   0.251  22.478  12.547
42497W        W 7658   6.693  17.548   4.045
42498W        W 7659  23.259  18.033   4.243
42499W        W 7660  29.016  15.722  13.810
42500W        W 7661  30.430  22.830  11.116
42501W        W 7662  11.332  25.617   0.447
42502W        W 7663   9.369  40.461   4.451
42503W        W 7664  20.231  33.658  13.345
42504W        W 7665   9.375  11.270  14.066
42505W        W 7666  33.510   4.766  13.505
42506W        W 7667  41.529  31.854  11.956
42507W        W 7668   2.077  34.549   2.259
42508W        W 7669  16.375  10.710   3.028
42509W        W 7670  22.137  29.286  11.723
42510W        W 7671  29.792  12.579   2.869
42511W        W 7672  43.837  29.847  12.056
42512W        W 7673  37.172   0.457   4.128
42513W        W 7674   5.033   9.382   0.373
42514W        W 7675   3.471   6.420   5.033
42515W        W 7676  39.613  40.930  11.941
42516W        W 7677  28.292  20.601   1.722
42517W        W 7678   8.660  16.633   2.953
42518W        W 7679  17.043  24.457  14.079
42519W        W 7680  33.220  41.925  11.488
42520W        W 7681   1.829  11.058  13.526
42521W        W 7682  24.150  11.753  12.909
42522W        W 7683  43.528  11.306  12.411
42523W        W 7684   3.673  26.769   2.267
42524W        W 7685  43.341  31.567   3.976
42525W        W 7686  29.395  19.837   4.363
42526W        W 7687  33.439  38.019   2.819
42527W        W 7688  34.146   9.673  13.822
42528W        W 7689  37.858  17.105   3.751
42529W        W 7690  18.521  36.674   3.214
42530W        W 7691  39.388  44.226   4.616
42531W        W 7692  11.736  11.341  10.557
42532W        W 7693  39.593  17.933  13.028
42533W        W 7694  35.498  34.125  12.048
42534W        W 7695  34.078  15.364  13.800
42535W        W 7696  32.360  15.305   0.712
42536W        W 7697  39.036  27.040   3.344
42537W        W 7698  13.158  28.603   2.869
42538W        W 7699  17.740  32.609   4.484
42539W        W 7700  25.517  20.713   2.077
42540W        W 7701  43.150   9.779   1.530
42541W        W 7702  27.159  36.858  11.436
42542W        W 7703  31.825  38.075  13.855
42543W        W 7704  20.744  11.837  11.156
42544W        W 7705  40.013  35.558   4.358
42545W        W 7706   6.400  44.808  12.490
42546W        W 7707  30.027  26.792  12.746
42547W        W 7708  15.775  35.737  14.014
42548W        W 7709  24.595   4.107   1.980
42549W        W 7710   7.437  20.283   4.701
42550W        W 7711   5.542  28.929  14.934
42551W        W 7712  12.676  19.991   2.565
42552W        W 7713  22.975  35.907   4.703
42553W        W 7714  21.915   8.730   0.485
42554W        W 7715  11.231   9.079  12.886
42555W        W 7716  40.045  21.286   4.837
42556W        W 7717  41.784   9.876   1.722
42557W        W 7718  21.830  13.141  11.330
42558W        W 7719  20.316  21.596   2.369
42559W        W 7720  13.010   0.078   3.555
42560W        W 7721   9.060  24.204  14.374
42561W        W 7722  39.906  38.561   2.207
42562W        W 7723  15.091  37.512  13.942
42563W        W 7724   9.673   1.296   0.770
42564W        W 7725  43.466   7.888  11.811
42565W        W 7726  32.071  42.022  11.210
42566W        W 7727   4.865  13.715   3.831
42567W        W 7728  19.729  37.169   0.748
42568W        W 7729  10.600  38.588   2.901
42569W        W 7730  40.733  11.388   2.719
42570W        W 7731  29.065  10.608   2.778
42571W        W 7732  43.485  12.260   0.725
42572W        W 7733  41.877  36.522   9.455
42573W        W 7734  34.587  26.905  12.636
42574W        W 7735  42.631  39.876   1.453
42575W        W 7736  30.377  17.178   0.267
42576W        W 7737  17.076  18.343   3.255
42577W        W 7738   0.190   8.216   2.630
42578W        W 7739  42.124   5.289  11.941
42579W        W 7740  10.201  29.056  14.851
42580W        W 7741  36.378  40.619   1.798
42581W        W 7742  23.396  12.035   0.131
42582W        W 7743   2.074  19.810   2.469
42583W        W 7744  35.627  28.132   1.416
42584W        W 7745  34.450  14.860  10.582
42585W        W 7746  24.569  44.289   1.379
42586W        W 7747   5.411  17.137  14.290
42587W        W 7748  37.939  44.551   4.760
42588W        W 7749  44.336   3.786   2.700
42589W        W 7750  39.060   7.287   3.873
42590W        W 7751   3.832  35.103   0.733
42591W        W 7752  44.470  27.534   4.554
42592W        W 7753  25.260  43.422   4.712
42593W        W 7754  31.255  19.969   3.012
42594W        W 7755  29.107   8.777   5.147
42595W        W 7756  18.193  41.359   1.040
42596W        W 7757  11.043   4.676  13.601
42597W        W 7758  16.778  18.800  13.890
42598W        W 7759   6.009  15.274   2.307
42599W        W 7760  33.950  30.678  13.477
42600W        W 7761  18.293  36.908  11.152
42601W        W 7762   4.884  17.894   0.738
42602W        W 7763  28.100  10.900  12.896
42603W        W 7764  26.720  33.046   1.297
42604W        W 7765  32.999  25.641   1.633
42605W        W 7766  33.926  38.555   2.600
42606W        W 7767  19.002  11.848  10.921
42607W        W 7768  43.811  40.858  14.590
42608W        W 7769  27.296  18.544   2.617
42609W        W 7770  21.635  28.875  11.086
42610W        W 7771  37.129  41.914   2.749
42611W        W 7772   9.805  36.631   1.321
42612W        W 7773  27.231   7.155  10.765
42613W        W 7774   7.803  41.751   1.298
42614W        W 7775  20.302   4.722  12.327
42615W        W 7776  35.906  43.362  11.416
42616W        W 7777   9.851  17.237  10.373
42617W        W 7778  34.495  31.158   4.077
42618W        W 7779   4.449   3.898   3.371
42619W        W 7780  43.948  11.631  10.917
42620W        W 7781  33.550   5.258  12.676
42621W        W 7782  16.360  26.962   1.464
42622W        W 7783  31.275  40.858  14.150
42623W        W 7784  41.484  44.753  11.181
42624W        W 7785  34.536  16.097   4.485
42625W        W 7786  31.211  22.152  14.922
42626W        W 7787  28.444   7.095  11.510
42627W        W 7788  23.193  16.649   1.407
42628W        W 7789   7.725  20.437  14.237
42629W        W 7790  12.124   6.436  11.117
42630W        W 7791  10.858  27.545  13.513
42631W        W 7792  39.959  29.109  10.645
42632W        W 7793  23.997   8.949  14.646
42633W        W 7794   8.802  33.244   4.110
42634W        W 7795  13.189   3.338   4.373
42635W        W 7796  31.382   6.412  14.936
42636W        W 7797   8.851   1.929  12.984
42637W        W 7798  41.413   7.923   0.401
42638W        W 7799   7.320  21.792  12.751
42639W        W 7800  19.306   8.421  12.518
42640W        W 7801   8.394  37.429  10.552
42641W        W 7802  36.461  21.102  11.162
42642W        W 7803   7.388   3.370   0.197
42643W        W 7804  32.876  40.528   2.567
42644W        W 7805  17.599  28.681  12.355
42645W        W 7806  11.770  17.753  10.773
42646W        W 7807  30.663   5.337   0.346
42647W        W 7808  18.492   2.455   3.253
42648W        W 7809  42.450  34.630  12.817
42649W        W 7810  42.415  16.159  13.026
42650W        W 7811   6.440   8.412   3.300
42651W        W 7812  11.581  37.082  12.920
42652W        W 7813  10.075  39.517   0.822
42653W        W 7814  20.786  23.204   0.242
42654W        W 7815  10.638  39.231  13.911
42655W        W 7816  10.839  35.825   3.940
42656W        W 7817  28.167   1.013  13.964
42657W        W 7818  35.402  43.263  11.553
42658W        W 7819  25.419  10.829   3.572
42659W        W 7820  25.953  25.245  12.124
42660W        W 7821  18.194   6.642   1.818
42661W        W 7822   7.685   6.262  11.238
42662W        W 7823   1.855  22.276   0.024
42663W        W 7824  35.457  34.448   0.196
42664W        W 7825  14.212  19.894  13.792
42665W        W 7826  11.268   3.757   2.448
42666W        W 7827   9.783  30.461  14.077
42667W        W 7828  34.574   2.932  12.001
42668W        W 7829   5.200  30.478   3.646
42669W        W 7830  28.700  28.049   0.491
42670W        W 7831  44.887  12.364   1.004
42671W        W 7832  27.111  11.669  13.382
42672W        W 7833  17.529   0.168   0.723
42673W        W 7834  32.921   2.300   4.179
42674W        W 7835  38.940  20.787  14.520
42675W        W 7836  18.031   3.109  11.325
42676W        W 7837  14.356  29.218  14.158
42677W        W 7838  31.422  27.381  13.374
42678W        W 7839  16.054  22.078   0.417
42679W        W 7840   1.472  30.897  12.043
42680W        W 7841  31.221   4.623  14.884
42681W        W 7842   2.887  25.215  14.204
42682W        W 7843  23.565   8.841  12.511
42683W        W 7844  31.409  14.547  12.440
42684W        W 7845  22.697   4.543   2.358
42685W        W 7846  31.183  14.037  12.768
42686W        W 7847  12.195   9.728  13.128
42687W        W 7848  38.919  25.477   3.256
42688W        W 7849   7.905   1.596  11.777
42689W        W 7850   7.704  40.763  10.546
42690W        W 7851   7.189  42.672  13.579
42691W        W 7852   5.895  39.787  13.098
42692W        W 7853  10.218  16.283  13.049
42693W        W 7854  40.922   4.316   4.292
42694W        W 7855  19.292  12.352   1.749
42695W        W 7856   0.844  40.179  10.628
42696W        W 7857  12.472   3.300   1.206
42697W        W 7858  16.343   0.627  11.159
42698W        W 7859  37.253  35.406   4.928
42699W        W 7860  34.078  16.620  13.425
42700W        W 7861  13.107  35.370   3.828
42701W        W 7862  23.735  34.456  10.699
42702W        W 7863   3.423  40.969  10.732
42703W        W 7864  10.333  15.821  11.942
42704W        W 7865   2.353   5.193  13.847
42705W        W 7866  19.140  24.510   3.794
42706W        W 7867  36.555  33.663   1.672
42707W        W 7868  32.970  27.603   0.810
42708W        W 7869  14.139   8.194  11.668
42709W        W 7870  26.131  11.816  12.403
42710W        W 7871   7.442  17.714  14.846
42711W        W 7872  29.621  18.019  14.934
42712W        W 7873   5.896   7.758  10.664
42713W        W 7874  27.415  34.365  12.099
42714W        W 7875   7.758  38.807  13.487
42715W        W 7876  36.673  37.805   1.417
42716W        W 7877  15.619  38.379   0.110
42717W        W 7878  35.860   5.228  11.182
42718W        W 7879  36.879   0.492   1.486
42719W        W 7880  25.291  43.374  14.525
42720W        W 7881  20.092   5.542  14.347
42721W        W 7882   1.458  17.820   1.829
42722W        W 7883  34.555  27.397  12.805
42723W        W 7884  11.599  11.768   4.121
42724W        W 7885  11.966  28.269  11.599
42725W        W 7886  34.220  33.415   3.581
42726W        W 7887  13.602  22.308  11.211
42727W        W 7888   9.279  18.437   3.593
42728W        W 7889   3.757  20.988   3.788
42729W        W 7890  11.210   9.186  11.872
42730W        W 7891  39.908  23.942   0.649
42731W        W 7892   7.997  32.424  14.498
42732W        W 7893  36.623  30.980   4.294
42733W        W 7894  44.400  28.988  12.883
42734W        W 7895  13.268   7.116   2.229
42735W        W 7896   4.887   4.742   1.115
42736W        W 7897   1.678  17.332   4.706
42737W        W 7898  25.497  39.404   0.442
42738W        W 7899  37.646  41.955   0.538
42739W        W 7900  24.247  18.884   2.778
42740W        W 7901  28.406  21.025   0.324
42741W        W 7902   9.660  34.502  13.685
42742W        W 7903  27.462  16.102   1.803
42743W        W 7904  29.689   5.726   1.367
42744W        W 7905   8.706  28.467   2.290
42745W        W 7906  42.227   9.781   1.487
42746W        W 7907  41.268  12.081   2.682
42747W        W 7908  22.264  36.921   4.059
42748W        W 7909  32.112  29.676   3.710
42749W        W 7910  30.076  29.436   1.900
42750W        W 7911  29.176  14.677   0.912
42751W        W 7912  35.725  15.089   0.414
42752W        W 7913  42.786  21.070  14.222
42753W        W 7914  27.092  23.263  11.235
42754W        W 7915  40.188  15.111   4.370
42755W        W 7916  39.739  19.978  11.533
42756W        W 7917  18.053  21.698  13.917
42757W        W 7918  23.758  33.440   0.206
42758W        W 7919  44.264  10.503  12.595
42759W        W 7920  31.005  28.999  14.015
42760W        W 7921  11.848   4.339  11.983
42761W        W 7922  25.197  16.516  10.617
42762W        W 7923  30.217  15.221   1.464
42763W        W 7924   1.659  43.947   0.830
42764W        W 7925  11.776  29.684  14.087
42765W        W 7926   6.543  33.918   0.074
42766W        W 7927  31.002  31.767  14.283
42767W        W 7928  18.124   5.564   0.433
42768W        W 7929  12.828  37.298   2.294
42769W        W 7930  21.275  32.468   4.146
42770W        W 7931  11.287  40.315  14.371
42771W        W 7932  37.812  31.124  14.634
42772W        W 7933  20.623  26.752  14.906
42773W        W 7934  33.151   8.975  12.737
42774W        W 7935  10.540  15.060   4.259
42775W        W 7936  35.582  35.070  12.553
42776W        W 7937  12.861   6.142  10.395
42777W        W 7938  32.340  10.775  14.947
42778W        W 7939  42.986  35.059  12.370
42779W        W 7940  10.023  15.839   0.103
42780W        W 7941   9.572  37.611   4.185
42781W        W 7942  13.754  24.127  12.949
42782W        W 7943  27.347  41.501   4.121
42783W        W 7944   9.361   2.097   4.044
42784W        W 7945  34.878  44.795   0.320
42785W        W 7946   3.361  13.342   3.538
42786W        W 7947  26.749  42.918  12.388
42787W        W 7948  30.533  11.616   1.408
42788W        W 7949   2.540  25.079  14.575
42789W        W 7950   5.771  37.022  14.938
42790W        W 7951   2.715  23.232   3.721
42791W        W 7952  37.431   8.001  10.674
42792W        W 7953   9.390  28.612   0.595
42793W        W 7954  12.681  34.605   0.181
42794W        W 7955  39.407  12.716  10.467
42795W        W 7956  22.207  40.692  13.101
42796W        W 7957  16.032  22.025   1.298
42797W        W 7958  18.647  35.995  14.366
42798W        W 7959   7.966  21.838   1.714
42799W        W 7960  23.214  22.064   2.690
42800W        W 7961  28.612  10.863  13.116
42801W        W 7962  22.946  27.617  10.714
42802W        W 7963   6.177  22.784  12.576
42803W        W 7964  27.946   8.467  13.404
42804W        W 7965   0.291  32.319   4.079
42805W        W 7966   0.315  23.932   2.695
42806W        W 7967  15.138  43.782  13.999
42807W        W 7968  21.684   4.831  14.895
42808W        W 7969  43.056  28.729  12.945
42809W        W 7970  24.287  10.874   3.542
42810W        W 7971  10.363  19.552   1.130
42811W        W 7972  36.546   2.290  12.491
42812W        W 7973  25.230  30.495   2.969
42813W        W 7974  14.338  15.493   1.783
42814W        W 7975  34.888  24.649  12.404
42815W        W 7976   4.567  13.779   9.959
42816W        W 7977  31.127  28.576  13.106
42817W        W 7978   1.467  11.052   4.222
42818W        W 7979  41.381  15.803  12.209
42819W        W 7980  44.545  44.330   2.809
42820W        W 7981  21.703  14.595   5.071
42821W        W 7982  26.350   6.989   3.749
42822W        W 7983   7.487  37.786   2.202
42823W        W 7984  43.940  12.074  11.691
42824W        W 7985   5.928   0.627  14.568
42825W        W 7986  20.808  22.034  11.501
42826W        W 7987  43.277  23.003   0.342
42827W        W 7988  35.569  10.691   3.192
42828W        W 7989   5.682  19.162   2.218
42829W        W 7990  35.313   5.405  12.131
42830W        W 7991   8.515   6.847  14.752
42831W        W 7992  15.409  13.273  11.932
42832W        W 7993  33.878   4.734   0.180
42833W        W 7994  36.359   7.136  11.169
42834W        W 7995  21.332  22.302  12.257
42835W        W 7996  39.285  40.148  13.267
42836W        W 7997  29.685  29.793   2.790
42837W        W 7998  23.851  15.527   3.250
42838W        W 7999  35.883  27.752  13.927
42839W        W 8000  38.070  35.135   0.914
42840W        W 8001  28.649  11.664  13.278
42841W        W 8002  17.768  23.991   1.299
42842W        W 8003  38.690  31.300  12.388
42843W        W 8004  27.844  30.521   0.092
42844W        W 8005  43.446  14.578  10.363
42845W        W 8006  29.512  29.963  11.117
42846W        W 8007   5.218  26.405  11.375
42847W        W 8008  35.004  15.722  10.555
42848W        W 8009  41.875  40.002   1.225
42849W        W 8010  37.337  22.096  12.118
42850W        W 8011  36.081  34.615  11.734
42851W        W 8012  41.012  18.536  12.860
42852W        W 8013  26.114  30.666   3.513
42853W        W 8014  24.189  44.913   3.320
42854W        W 8015  44.961  25.669   3.168
42855W        W 8016  42.835   2.411   3.435
42856W        W 8017   4.421  17.835   1.439
42857W        W 8018   7.322  18.350  10.688
42858W        W 8019  26.616  40.959  12.047
42859W        W 8020  43.868  11.583  10.412
42860W        W 8021   2.931  35.449  11.552
42861W        W 8022  25.964   5.138   4.510
42862W        W 8023   7.777  44.345   1.557
42863W        W 8024  13.618  40.119   2.790
42864W        W 8025  15.622  22.610   0.993
42865W        W 8026  38.677   2.510  12.519
42866W        W 8027  25.306  36.471   4.132
42867W        W 8028  13.384  35.112   4.163
42868W        W 8029  14.334  23.115   2.342
42869W        W 8030  27.453  32.428   0.554
42870W        W 8031  36.746  31.174  10.756
42871W        W 8032   8.708  23.245   1.170
42872W        W 8033  10.252  41.362   0.888
42873W        W 8034  26.513   2.936   2.064
42874W        W 8035   7.664  24.086  14.695
42875W        W 8036  33.384  19.242   3.680
42876W        W 8037  43.246  43.357  11.412
42877W        W 8038   1.747  30.109  11.958
42878W        W 8039   8.799  26.642  14.799
42879W        W 8040  18.645  31.411  12.473
42880W        W 8041  28.652  17.310  10.202
42881W        W 8042   3.676  35.495   3.446
42882W        W 8043   2.953  29.320   0.770
42883W        W 8044   4.023   9.319   4.128
42884W        W 8045   4.054  12.611   1.406
42885W        W 8046  43.810  32.528  10.869
42886W        W 8047   8.666  42.811  13.230
42887W        W 8048  35.266  34.405  11.345
42888W        W 8049   0.499  26.435   5.173
42889W        W 8050  37.473  26.666  13.220
42890W        W 8051  42.381  10.715  11.470
42891W        W 8052  18.065  32.749   1.309
42892W        W 8053  11.412  41.078   4.140
42893W        W 8054  22.074  37.510  13.533
42894W        W 8055  39.816  42.359   1.823
42895W        W 8056   5.395  29.271   0.752
42896W        W 8057  34.325  26.795  14.497
42897W        W 8058   2.261  28.009  11.141
42898W        W 8059  30.543  25.313  11.153
42899W        W 8060  43.998  18.826   1.908
42900W        W 8061   4.981  31.649   3.612
42901W        W 8062  14.372  11.039  10.349
42902W        W 8063   4.153   3.990  10.987
42903W        W 8064  22.991  17.315  10.175
42904W        W 8065   1.807  38.544  12.529
42905W        W 8066  44.805  16.846  10.968
42906W        W 8067  12.587  39.334  13.776
42907W        W 8068  36.917  36.444  12.033
42908W        W 8069   8.200  23.448  13.669
42909W        W 8070  33.516  33.848   4.191
42910W        W 8071   8.326  41.748  11.652
42911W        W 8072   9.495   8.867  13.187
42912W        W 8073  27.232  23.100  10.772
42913W        W 8074  12.358  42.482  13.112
42914W        W 8075  23.327  13.818  13.350
42915W        W 8076  14.325  21.512   4.108
42916W        W 8077   7.663   0.935   3.306
42917W        W 8078   7.284  39.995   4.298
42918W        W 8079  20.713  40.947   4.764
42919W        W 8080  20.636  27.736  13.976
42920W        W 8081   0.333  29.010  12.461
42921W        W 8082  41.113   9.519   2.820
42922W        W 8083  38.792  28.833   1.786
42923W        W 8084   9.682  39.445  12.444
42924W        W 8085  42.522   0.386   2.587
42925W        W 8086  18.765  34.219   3.331
42926W        W 8087   9.302  21.175  14.977
42927W        W 8088   5.671  14.314  14.424
42928W        W 8089   0.734  20.194   0.446
42929W        W 8090   4.709   7.251   4.559
42930W        W 8091  25.732  31.335   0.499
42931W        W 8092  27.997  34.028  13.120
42932W        W 8093  39.311  43.006  10.654
42933W        W 8094   5.936  30.089   0.297
42934W        W 8095   5.149  33.047   3.802
42935W        W 8096  35.170   5.184  11.683
42936W        W 8097  18.888  43.313   4.465
42937W        W 8098  32.175  23.133  12.996
42938W        W 8099  34.502  30.766  14.934
42939W        W 8100  25.929  43.901   3.680
42940W        W 8101  24.476  37.934   1.148
42941W        W 8102  44.693  36.120  12.421
42942W        W 8103  30.766   1.768   3.242
42943W        W 8104  31.922  16.575  14.998
42944W        W 8105   3.798   5.790  13.907
42945W        W 8106  12.807  29.144  11.811
42946W        W 8107   3.854  27.232   0.834
42947W        W 8108  32.710  31.394   2.704
42948W        W 8109  39.121  30.266  14.166
42949W        W 8110  37.166  11.566   3.134
42950W        W 8111   1.940   6.345  14.360
42951W        W 8112  32.577  43.397   4.076
42952W        W 8113  40.356   6.414  12.957
42953W        W 8114  20.051  34.111  13.472
42954W        W 8115  25.811  32.074   1.130
42955W        W 8116  42.811  35.410   1.721
42956W        W 8117   5.728  30.135  13.361
42957W        W 8118   4.410  11.565   1.259
42958W        W 8119  25.171   2.843   3.829
42959W        W 8120  43.784  15.065   3.206
42960W        W 8121   2.089  38.355   0.820
42961W        W 8122  26.618  44.868  13.579
42962W        W 8123  28.162   4.217  13.043
42963W        W 8124  36.302  36.868   2.669
42964W        W 8125   9.220  39.070   4.685
42965W        W 8126  29.937  18.053  11.118
42966W        W 8127  25.919  19.102   0.874
42967W        W 8128  24.167   5.228  11.574
42968W        W 8129  34.550  33.950   0.967
42969W        W 8130   0.302  21.538   0.152
42970W        W 8131  21.682   0.513   4.734
42971W        W 8132   8.443  27.486   0.768
42972W        W 8133  27.121  15.430   4.965
42973W        W 8134  30.241   7.898   3.781
42974W        W 8135   0.403  17.569   0.447
42975W        W 8136  40.108   0.092   3.188
42976W        W 8137   5.981   8.761  12.051
42977W        W 8138  29.862  16.021   3.241
42978W        W 8139  10.334   5.290  13.514
42979W        W 8140  35.924   3.946   0.114
42980W        W 8141  26.681  41.227  13.301
42981W        W 8142  29.116  41.177  14.042
42982W        W 8143   0.591  40.012   9.528
42983W        W 8144  19.377  23.885   0.563
42984W        W 8145  33.956  11.363  11.081
42985W        W 8146   0.215  13.381   3.137
42986W        W 8147  29.034  20.934  12.893
42987W        W 8148  20.709  15.928   3.239
42988W        W 8149   2.894  16.287   5.381
42989W        W 8150  18.055   3.084  14.328
42990W        W 8151  17.178  38.358  11.449
42991W        W 8152  19.225  20.810   4.505
42992W        W 8153  23.198   7.912  14.219
42993W        W 8154  11.177  44.819  13.431
42994W        W 8155  44.305  38.871   2.165
42995W        W 8156  40.555  16.292   2.769
42996W        W 8157   7.376   3.888  12.008
42997W        W 8158  12.070   9.847   3.272
42998W        W 8159   9.660  19.300  11.617
42999W        W 8160  30.005  17.311   3.468
43000W        W 8161  32.031  26.030  12.579
43001W        W 8162  25.517  43.780   1.745
43002W        W 8163   9.470  35.115  13.361
43003W        W 8164  32.990  43.054  12.028
43004W        W 8165  37.426  34.944  12.380
43005W        W 8166  24.435  40.070   2.783
43006W        W 8167  39.839  10.889   1.711
43007W        W 8168  35.624  38.297  12.714
43008W        W 8169   9.426  27.529   4.222
43009W        W 8170  33.480  37.936  11.593
43010W        W 8171   8.066  35.439   3.896
43011W        W 8172  42.435  40.711  11.563
43012W        W 8173  10.705   3.145   3.712
43013W        W 8174  16.523  27.478  10.635
43014W        W 8175  31.900  30.859  12.429
43015W        W 8176   0.371  39.864  11.364
43016W        W 8177  21.501  30.481  14.338
43017W        W 8178  35.363  30.046   3.732
43018W        W 8179   0.425  21.935  13.456
43019W        W 8180  39.052   3.727   3.652
43020W        W 8181  12.319  11.770   0.324
43021W        W 8182  21.463  29.367  10.164
43022W        W 8183  32.363  40.419   2.447
43023W        W 8184  36.893  14.498   1.915
43024W        W 8185  38.473  15.188   2.654
43025W        W 8186   6.372   2.810   2.697
43026W        W 8187  17.394  27.240   1.007
43027W        W 8188  13.508   6.263   3.811
43028W        W 8189   3.807   5.488  12.075
43029W        W 8190  41.895   7.910  13.078
43030W        W 8191  14.415  11.539  10.541
43031W        W 8192  16.132  43.109  11.252
43032W        W 8193  20.564  14.721  14.524
43033W        W 8194  18.592  27.508   3.295
43034W        W 8195  15.039   3.155  12.242
43035W        W 8196  36.496   0.396   2.276
43036W        W 8197  41.806  10.918  12.953
43037W        W 8198  38.513  40.876   4.197
43038W        W 8199  27.009  34.463  13.850
43039W        W 8200  35.142  39.257   2.664
43040W        W 8201   1.888   3.709   0.927
43041W        W 8202  40.132  36.007  13.452
43042W        W 8203  33.816  10.756   1.933
43043W        W 8204   9.376  31.656  11.244
43044W        W 8205  44.547  20.453  13.799
43045W        W 8206  21.155  37.971   4.086
43046W        W 8207  30.683  39.695   0.953
43047W        W 8208  35.045   4.763  10.747
43048W        W 8209   6.860  29.893  13.012
43049W        W 8210  31.864  43.763   3.518
43050W        W 8211  31.085   1.845  14.750
43051W        W 8212  40.431  23.573  11.034
43052W        W 8213  19.828  32.854   4.087
43053W        W 8214  22.747  23.519   2.469
43054W        W 8215  38.753  22.111  12.053
43055W        W 8216   6.897  17.380   2.370
43056W        W 8217  11.070  22.139   3.426
43057W        W 8218  29.640   8.520   0.495
43058W        W 8219  14.878   5.098   1.501
43059W        W 8220  42.970  21.219   4.145
43060W        W 8221  34.036  37.464  10.744
43061W        W 8222  24.159  13.212   0.213
43062W        W 8223  10.291  39.641   3.872
43063W        W 8224  24.607  35.458   4.594
43064W        W 8225   1.294  39.807   4.194
43065W        W 8226  17.491  17.111   2.380
43066W        W 8227  17.277  40.487   0.356
43067W        W 8228  13.850  30.210   1.608
43068W        W 8229  39.395  35.350   3.809
43069W        W 8230  17.275  40.925   4.998
43070W        W 8231   7.785   9.771   0.311
43071W        W 8232  16.144  12.180  14.894
43072W        W 8233  35.934  22.752   2.180
43073W        W 8234   4.719  40.067  10.785
43074W        W 8235  19.626  40.898   3.401
43075W        W 8236  17.081  14.153   4.300
43076W        W 8237  20.630   2.234  14.387
43077W        W 8238  41.033  15.090  12.365
43078W        W 8239  21.025  17.542   2.261
43079W        W 8240  39.464  35.940   2.333
43080W        W 8241  11.718  10.116  14.536
43081W        W 8242   9.362  20.935  13.599
43082W        W 8243  30.787  42.883  12.041
43083W        W 8244  44.796  30.050  10.508
43084W        W 8245   1.229  27.511  12.404
43085W        W 8246  37.443   1.870   2.763
43086W        W 8247   3.133   5.194  12.808
43087W        W 8248  15.642  43.001  11.376
43088W        W 8249  12.300   8.910  14.276
43089W        W 8250  18.126  44.637   0.655
43090W        W 8251  37.804  18.695  13.903
43091W        W 8252  32.457   7.972   3.676
43092W        W 8253  35.353  27.174   1.033
43093W        W 8254  19.605   5.586   2.190
43094W        W 8255  13.693  42.852   1.950
43095W        W 8256   4.429  43.142  11.092
43096W        W 8257   1.749  20.903   1.675
43097W        W 8258   4.724  13.894   0.405
43098W        W 8259  41.999  24.355  11.330
43099W        W 8260   8.637   2.196  14.963
43100W        W 8261  44.772  43.486  14.442
43101W        W 8262  15.252   2.423  13.354
43102W        W 8263  28.150  19.217   4.869
43103W        W 8264  23.665  29.178  14.168
43104W        W 8265  35.120  38.920   3.340
43105W        W 8266  13.309  24.596   4.887
43106W        W 8267  13.344  16.209  12.929
43107W        W 8268  17.483   4.865   1.307
43108W        W 8269  15.668  41.450   2.208
43109W        W 8270  42.484  26.193  14.360
43110W        W 8271  32.056  26.339   2.893
43111W        W 8272  33.970  21.294   4.160
43112W        W 8273  36.618  16.701  10.743
43113W        W 8274  35.406  13.818   0.315
43114W        W 8275   8.020  42.117  12.979
43115W        W 8276  33.143  24.391   0.934
43116W        W 8277  23.692  34.082  11.533
43117W        W 8278  14.129   7.038  13.393
43118W        W 8279  10.789  10.930  14.455
43119W        W 8280  25.600  17.219  12.992
43120W        W 8281  11.311   9.287   2.918
43121W        W 8282   9.822   4.523  14.319
43122W        W 8283  21.813  39.111   4.208
43123W        W 8284  15.922  36.338  14.955
43124W        W 8285  28.521  28.319  14.778
43125W        W 8286  38.781   0.780  12.108
43126W        W 8287  34.582   8.081  11.762
43127W        W 8288  23.937  30.916  13.465
43128W        W 8289  30.094  25.549  11.125
43129W        W 8290  22.749  18.558  11.167
43130W        W 8291  17.319  23.800   0.072
43131W        W 8292  18.007   8.823  13.541
43132W        W 8293  27.862  32.034   2.738
43133W        W 8294  41.509   6.887   4.600
43134W        W 8295  29.178  18.829   4.222
43135W        W 8296  15.233   1.714  13.915
43136W        W 8297  31.916  28.101  13.535
43137W        W 8298  19.486  25.314  14.674
43138W        W 8299   3.327  33.609   0.432
43139W        W 8300   9.748   9.904  13.385
43140W        W 8301  13.227  12.645  14.059
43141W        W 8302  33.542  30.380   3.139
43142W        W 8303  31.188  29.572  11.290
43143W        W 8304   3.768   8.474  11.202
43144W        W 8305  26.430  21.380   9.842
43145W        W 8306   2.727  26.528   2.083
43146W        W 8307  38.932  24.675   3.659
43147W        W 8308  21.659  16.119   4.966
43148W        W 8309  23.262   4.576   2.878
43149W        W 8310   0.384  40.535   4.190
43150W        W 8311  28.613   4.494   4.572
43151W        W 8312  24.277  10.945  13.083
43152W        W 8313  38.324  23.932  12.106
43153W        W 8314  21.271  41.063  13.031
43154W        W 8315  40.304  36.510   0.239
43155W        W 8316  11.212  24.549   4.287
43156W        W 8317  40.755  40.977  14.888
43157W        W 8318  33.946   0.389   4.378
43158W        W 8319  39.774  23.633  12.430
43159W        W 8320  27.585   1.292   1.244
43160W        W 8321   0.015  31.050   1.923
43161W        W 8322  18.210  29.429   4.150
43162W        W 8323  23.837  19.117   3.063
43163W        W 8324  12.264   5.902  12.899
43164W        W 8325  36.874   8.753  11.637
43165W        W 8326  40.333  15.172   3.872
43166W        W 8327  10.367  44.251   0.317
43167W        W 8328  34.051  39.320  14.375
43168W        W 8329  37.263  18.079   2.612
43169W        W 8330  13.831  39.671   2.955
43170W        W 8331  41.401   1.612  11.549
43171W        W 8332  11.196   9.793   4.712
43172W        W 8333  14.586  32.631   4.525
43173W        W 8334  15.903   4.464   2.863
43174W        W 8335  43.919  33.507   1.181
43175W        W 8336  37.329  30.118  11.488
43176W        W 8337  37.609  34.909   0.832
43177W        W 8338   0.907  35.834  11.551
43178W        W 8339   6.737  30.350  12.140
43179W        W 8340   0.474  40.093  14.253
43180W        W 8341   3.549  18.751  14.537
43181W        W 8342   4.478  13.680   2.853
43182W        W 8343  44.267   5.146   3.272
43183W        W 8344   3.622  32.527   3.153
43184W        W 8345  30.522  12.893  12.554
43185W        W 8346  38.002   8.350   1.417
43186W        W 8347   6.302   6.389  13.910
43187W        W 8348  16.112  24.824   5.112
43188W        W 8349   7.548   9.445  14.035
43189W        W 8350  24.229  26.984   2.735
43190W        W 8351  20.105  18.883  12.155
43191W        W 8352   8.278  27.706  10.704
43192W        W 8353  27.923  18.697   4.569
43193W        W 8354   3.508  44.221   4.155
43194W        W 8355  37.514  23.532   4.863
43195W        W 8356  28.371  10.061   2.900
43196W        W 8357  31.917  43.376   2.889
43197W        W 8358  15.630  43.526   4.552
43198W        W 8359  43.025  11.626   3.349
43199W        W 8360  43.686  41.074  13.427
43200W        W 8361  44.274  36.322  14.036
43201W        W 8362  22.087  38.841   4.536
43202W        W 8363  21.269  26.486   4.565
43203W        W 8364  12.433  39.868  14.957
43204W        W 8365  36.572  25.487  13.975
43205W        W 8366  38.567  43.007  11.996
43206W        W 8367   1.412  25.980   3.218
43207W        W 8368  14.340  14.168   0.953
43208W        W 8369  23.517  26.331  13.417
43209W        W 8370  18.940   4.179   0.566
43210W        W 8371  28.410  19.552  14.114
43211W        W 8372  23.289  24.125  11.618
43212W        W 8373  17.197  18.018   3.652
43213W        W 8374   8.975  37.814   1.464
43214W        W 8375   4.393  36.294  12.874
43215W        W 8376   9.522  32.497   1.033
43216W        W 8377  15.124  17.381  12.071
43217W        W 8378   9.946  38.571  14.423
43218W        W 8379  41.493  17.556   2.743
43219W        W 8380   6.474  25.292   0.271
43220W        W 8381   6.608   2.336   1.781
43221W        W 8382  23.756  32.088   2.868
43222W        W 8383  28.170  15.715   1.014
43223W        W 8384  12.729  39.196   4.214
43224W        W 8385  27.678   5.874  13.496
43225W        W 8386  36.914  20.050   3.765
43226W        W 8387  24.469  42.401  12.953
43227W        W 8388   3.435  38.356  13.010
43228W        W 8389  20.504  30.632   3.648
43229W        W 8390  13.316  40.306   3.282
43230W        W 8391  17.720  12.567   3.635
43231W        W 8392  28.898  25.496   3.721
43232W        W 8393  31.276   8.200  11.960
43233W        W 8394  19.149  18.779   4.550
43234W        W 8395  20.584  10.323  11.263
43235W        W 8396  17.248  32.486   2.275
43236W        W 8397  37.792   1.477  12.366
43237W        W 8398   3.839  34.670  10.638
43238W        W 8399  20.469   8.087   2.395
43239W        W 8400  19.145   9.784   3.146
43240W        W 8401  38.952  41.025  14.410
43241W        W 8402  15.897  33.045  12.788
43242W        W 8403  19.557  44.466   3.225
43243W        W 8404  15.099  25.191  11.235
43244W        W 8405   8.444   5.080   1.832
43245W        W 8406  42.677  30.089  13.562
43246W        W 8407  34.034   3.867   1.487
43247W        W 8408  31.861  41.320  12.025
43248W        W 8409   5.201  24.146   4.190
43249W        W 8410  29.357  42.604  14.977
43250W        W 8411   6.652  42.269  13.038
43251W        W 8412  30.272  36.946   0.242
43252W        W 8413  21.207  27.886   1.141
43253W        W 8414  31.697  36.751  11.151
43254W        W 8415  36.875  34.853   2.887
43255W        W 8416  41.718  41.244   2.476
43256W        W 8417   5.167  21.402   4.702
43257W        W 8418   2.256   2.457   1.309
43258W        W 8419  21.178  18.804  14.293
43259W        W 8420  25.605  43.086  12.418
43260W        W 8421   3.833  41.987   2.356
43261W        W 8422  22.751  34.237   4.645
43262W        W 8423  31.649   5.698  10.802
43263W        W 8424  37.959  20.468  14.295
43264W        W 8425  30.351   8.857  14.430
43265W        W 8426  16.502  35.806  12.191
43266W        W 8427   1.498  15.818  11.729
43267W        W 8428  14.244  32.836   4.187
43268W        W 8429  37.861  37.555   3.883
43269W        W 8430   1.753  32.071   4.148
43270W        W 8431   2.229  42.295  13.340
43271W        W 8432   6.751  27.987   3.170
43272W        W 8433  17.464  13.354  12.424
43273W        W 8434  17.369  20.529   4.966
43274W        W 8435  38.283  11.482   0.784
43275W        W 8436  40.983   1.568   3.374
43276W        W 8437  13.768  21.091   0.911
43277W        W 8438  41.869  43.839   2.895
43278W        W 8439  39.669  41.793  11.101
43279W        W 8440  12.763  25.872  11.174
43280W        W 8441  41.502   2.974   1.856
43281W        W 8442  14.051  28.083   0.594
43282W        W 8443  31.043  41.510  14.885
43283W        W 8444   4.166  10.179   0.223
43284W        W 8445  36.274   9.340  12.464
43285W        W 8446  17.179   6.069   1.919
43286W        W 8447  41.594  14.219  10.795
43287W        W 8448  21.660  29.149  13.789
43288W        W 8449  18.641  41.403   2.309
43289W        W 8450  42.705  14.766   0.536
43290W        W 8451  37.991   0.410   0.201
43291W        W 8452  40.545  37.032  12.527
43292W        W 8453  13.169  22.319  12.050
43293W        W 8454  17.686   8.465   3.232
43294W        W 8455   1.420  44.989  13.763
43295W        W 8456  26.119  33.531  14.521
43296W        W 8457   1.836  15.095   0.037
43297W        W 8458  34.028  33.946   0.993
43298W        W 8459  41.957   7.332   2.037
43299W        W 8460  40.896   8.416  14.481
43300W        W 8461  37.269  20.955  10.768
43301W        W 8462  37.127  41.511  14.020
43302W        W 8463   0.972  39.940  13.065
43303W        W 8464  27.980  17.497   0.907
43304W        W 8465  20.759  40.360   3.301
43305W        W 8466  22.590  22.096   2.049
43306W        W 8467  21.490   9.853  12.089
43307W        W 8468  17.692  30.998   3.675
43308W        W 8469  29.713  37.098   0.128
43309W        W 8470  35.616  43.524  12.487
43310W        W 8471  14.668  24.307   4.999
43311W        W 8472  23.172   4.900   3.283
43312W        W 8473  19.721   8.119  12.478
43313W        W 8474  10.489   3.352   4.997
43314W        W 8475  15.245  22.505  11.981
43315W        W 8476  12.314   7.392   3.181
43316W        W 8477   5.871   2.347   1.323
43317W        W 8478  40.201   2.432   0.345
43318W        W 8479  30.578   5.845  14.527
43319W        W 8480  27.316  26.032   4.570
43320W        W 8481   8.258  15.914   3.687
43321W        W 8482  14.844   6.502  11.070
43322W        W 8483  24.667  29.419   4.072
43323W        W 8484  32.897  21.905   0.428
43324W        W 8485  29.617  23.035   3.224
43325W        W 8486  34.839  14.975  12.662
43326W        W 8487   7.852  16.246   1.893
43327W        W 8488   0.239  31.448   0.836
43328W        W 8489  17.926   7.732   0.447
43329W        W 8490   5.674  30.367  12.054
43330W        W 8491  25.172  44.938  12.078
43331W        W 8492  42.351   3.703   3.708
43332W        W 8493   5.358   4.600   1.318
43333W        W 8494   2.686  21.589   1.331
43334W        W 8495  43.721  20.069   0.843
43335W        W 8496   8.222  18.825  10.588
43336W        W 8497  40.762  25.912  10.779
43337W        W 8498   4.909  16.707  13.689
43338W        W 8499  39.037  21.021   2.697
43339W        W 8500   3.854   9.467   1.902
43340W        W 8501   3.454  17.725   0.977
43341W        W 8502  10.509  18.356  11.062
43342W        W 8503  44.410   3.315  13.018
43343W        W 8504  16.334  32.626  12.021
43344W        W 8505  26.072  15.661   1.196
43345W        W 8506  28.243  12.709   4.475
43346W        W 8507  41.936   8.974   1.912
43347W        W 8508  31.939  18.884   3.236
43348W        W 8509  23.509  13.277   1.193
43349W        W 8510  37.608  25.497   3.503
43350W        W 8511  19.742   9.774   4.948
43351W        W 8512   1.886  20.867  14.549
43352W        W 8513  25.920  22.234  13.947
43353W        W 8514  31.635  21.652  11.920
43354W        W 8515   8.290  12.024  11.957
43355W        W 8516  10.704  30.930  11.283
43356W        W 8517  29.170  25.071  14.888
43357W        W 8518   7.832   8.761   0.790
43358W        W 8519  14.731  12.391  12.075
43359W        W 8520  42.476  19.711   0.096
43360W        W 8521  20.734  40.433   4.646
43361W        W 8522  21.005  10.418   3.703
43362W        W 8523  35.166  17.484  14.845
43363W        W 8524  26.765  10.397   0.253
43364W        W 8525  28.022  28.195  12.002
43365W        W 8526  31.606  20.421  13.213
43366W        W 8527   4.374  34.950   2.347
43367W        W 8528  42.883  27.683   4.236
43368W        W 8529  40.653  11.945  10.297
43369W        W 8530  34.616   9.264   1.801
43370W        W 8531  38.886  29.548   2.891
43371W        W 8532  37.129  12.761  13.564
43372W        W 8533  41.245  20.135   4.729
43373W        W 8534  28.706  26.165   2.744
43374W        W 8535   1.744   6.293  14.962
43375W        W 8536   9.208   4.827   1.204
43376W        W 8537  33.791  41.059   1.852
43377W        W 8538  39.963  20.744   2.373
43378W        W 8539  44.995   3.067  14.920
43379W        W 8540  38.376  17.398  11.672
43380W        W 8541  40.800   7.317   4.128
43381W        W 8542  12.420  21.735   4.376
43382W        W 8543  13.458  32.412   4.500
43383W        W 8544  29.036  41.875   4.624
43384W        W 8545  44.367  33.115   4.087
43385W        W 8546  33.128   4.227   1.982
43386W        W 8547  32.547  11.907   1.938
43387W        W 8548   3.814   1.811   4.429
43388W        W 8549  21.635  14.050   3.332
43389W        W 8550   8.609  40.326   1.434
43390W        W 8551  18.292   6.430   3.651
43391W        W 8552  17.161  39.333   0.354
43392W        W 8553  25.444  11.254   1.681
43393W        W 8554  44.944  35.368  10.270
43394W        W 8555  40.518  20.183  14.831
43395W        W 8556  39.642  14.622   1.858
43396W        W 8557   8.690   4.442  10.692
43397W        W 8558  20.331   1.939  14.715
43398W        W 8559   5.145   3.362  13.932
43399W        W 8560  12.711  17.899   4.861
43400W        W 8561  35.443  26.494  10.730
43401W        W 8562  15.265  15.490  11.590
43402W        W 8563  43.756  30.836  14.952
43403W        W 8564  26.088  16.514  12.815
43404W        W 8565  39.836  25.709   3.580
43405W        W 8566  36.434  22.643   4.088
43406W        W 8567   0.677  39.167  13.537
43407W        W 8568   4.605  37.474   0.131
43408W        W 8569   1.012  23.805  14.688
43409W        W 8570  22.642   7.290   0.954
43410W        W 8571  19.482   7.638  12.491
43411W        W 8572  19.747   9.709   3.904
43412W        W 8573  33.430  21.323  12.940
43413W        W 8574  43.747  30.150  10.702
43414W        W 8575  31.308  41.269  12.089
43415W        W 8576  11.245  23.920  12.473
43416W        W 8577  21.911  24.716   3.577
43417W        W 8578  43.465  42.034  11.114
43418W        W 8579  29.537  16.368   1.447
43419W        W 8580  39.812  36.664   0.307
43420W        W 8581   1.239   0.788   2.210
43421W        W 8582   6.401   3.842  10.578
43422W        W 8583   8.429  34.415   2.389
43423W        W 8584   7.762  11.057  12.843
43424W        W 8585  27.484  26.876  14.548
43425W        W 8586  17.675  43.837  11.626
43426W        W 8587   6.619  20.313  13.382
43427W        W 8588  28.307   5.748  14.412
43428W        W 8589  11.759   5.090  11.959
43429W        W 8590  36.140  32.169   2.343
43430W        W 8591  17.113  27.653   3.880
43431W        W 8592  17.539   3.384   4.893
43432W        W 8593  27.662  37.582  13.515
43433W        W 8594  36.122   4.961   3.571
43434W        W 8595  32.961   7.906  11.651
43435W        W 8596  23.045  32.978   1.223
43436W        W 8597   4.910   7.544   4.160
43437W        W 8598   5.533   6.265  11.145
43438W        W 8599  23.651   6.860  12.477
43439W        W 8600  36.268  29.968   1.406
43440W        W 8601  16.233  16.846   5.454
43441W        W 8602  26.642  27.657  13.994
43442W        W 8603  26.978  14.001   3.995
43443W        W 8604  12.118  36.134  10.779
43444W        W 8605  32.996  18.555  12.025
43445W        W 8606   9.093  37.003  13.316
43446W        W 8607  29.615   9.996  11.827
43447W        W 8608  34.101  22.064  11.127
43448W        W 8609  19.807   7.725  11.138
43449W        W 8610   9.852  33.570   0.636
43450W        W 8611  15.124  12.072  12.030
43451W        W 8612   3.812  17.375   0.841
43452W        W 8613  43.468   1.414  14.206
43453W        W 8614  32.086  22.894   0.502
43454W        W 8615   7.871   2.259  12.475
43455W        W 8616  37.547  11.925  10.731
43456W        W 8617  42.831   8.827   1.956
43457W        W 8618  42.837  29.131   1.412
43458W        W 8619   0.150  27.018   3.666
43459W        W 8620  42.492  22.013  12.346
43460W        W 8621  40.780   2.413   3.227
43461W        W 8622  30.000  19.197   3.178
43462W        W 8623  12.660  38.331   4.158
43463W        W 8624  14.693  38.019   2.088
43464W        W 8625  27.173  16.098  14.405
43465W        W 8626   7.256  30.170   5.884
43466W        W 8627  41.068  31.484  11.999
43467W        W 8628  19.022  23.414  11.261
43468W        W 8629  41.527  41.940  13.047
43469W        W 8630  33.936  44.261  11.610
43470W        W 8631  40.302  23.124   0.269
43471W        W 8632  37.418  24.783  10.278
43472W        W 8633  39.206  30.370  11.489
43473W        W 8634  44.304  43.710   4.224
43474W        W 8635  25.460  37.540  13.599
43475W        W 8636  40.563  18.569  11.626
43476W        W 8637  35.094   8.415   3.588
43477W        W 8638   7.200  17.854  11.523
43478W        W 8639  13.761  28.945  13.429
43479W        W 8640  10.811  20.569   1.022
43480W        W 8641  44.351  28.607   2.700
43481W        W 8642   5.800   3.891   2.552
43482W        W 8643  21.777  21.051  12.961
43483W        W 8644  30.362   7.232  12.340
43484W        W 8645  12.221  18.072  10.833
43485W        W 8646  18.317   3.448   3.046
43486W        W 8647  12.860  12.176   4.071
43487W        W 8648  12.231  35.528   0.799
43488W        W 8649  32.897  10.078  14.124
43489W        W 8650  34.117  32.543  13.074
43490W        W 8651  14.541  44.354   4.505
43491W        W 8652  35.024  17.567   4.114
43492W        W 8653  30.545  21.393   9.841
43493W        W 8654  19.710   1.283  13.858
43494W        W 8655  38.095  41.455   3.566
43495W        W 8656  16.711  40.797   9.730
43496W        W 8657  29.478  22.254  14.695
43497W        W 8658   2.242  19.772   1.995
43498W        W 8659  41.277  44.875  13.390
43499W        W 8660  10.206  32.977  10.963
43500W        W 8661  19.527   4.347  12.503
43501W        W 8662   3.344  23.645  11.505
43502W        W 8663  44.047  13.503  11.632
43503W        W 8664  41.534  14.310   3.679
43504W        W 8665  15.502   3.183  13.530
43505W        W 8666  41.372  16.115   2.427
43506W        W 8667   9.016   9.678   0.663
43507W        W 8668   2.053  32.233  14.062
43508W        W 8669  17.173   8.622  14.761
43509W        W 8670   5.340   2.372  12.299
43510W        W 8671  15.885  26.069  14.983
43511W        W 8672  21.397  11.194  13.050
43512W        W 8673   8.600  27.014  13.856
43513W        W 8674   9.124  25.202  10.588
43514W        W 8675  28.839  37.123   9.837
43515W        W 8676  36.246  18.769   5.106
43516W        W 8677  33.550  24.196   4.196
43517W        W 8678  20.715  18.731   0.659
43518W        W 8679  15.701  36.849   4.662
43519W        W 8680  41.436  33.082   4.764
43520W        W 8681  26.638   0.547   1.297
43521W        W 8682  16.717  39.795  13.002
43522W        W 8683  30.471  30.120  14.087
43523W        W 8684  42.465  13.125  12.919
43524W        W 8685   2.503  31.963   1.348
43525W        W 8686  42.064  35.862   0.449
43526W        W 8687  20.241  26.032  11.642
43527W        W 8688  13.488  31.628  13.141
43528W        W 8689  26.211  36.756   5.067
43529W        W 8690  16.782  27.196   0.538
43530W        W 8691  36.408  21.764  10.598
43531W        W 8692  16.566   2.701   0.223
43532W        W 8693  13.647  32.397  10.712
43533W        W 8694   5.160  14.867  12.855
43534W        W 8695   3.903  38.879   3.672
43535W        W 8696  11.072   0.269   4.882
43536W        W 8697  21.168   3.398  14.475
43537W        W 8698   3.304  15.539   1.394
43538W        W 8699  31.108  14.612  11.983
43539W        W 8700   3.158  43.309   1.392
43540W        W 8701  38.613  40.760  11.898
43541W        W 8702  29.716   0.878  12.310
43542W        W 8703   8.829  16.284  13.957
43543W        W 8704  19.846  23.065   4.772
43544W        W 8705  22.068  38.551   5.480
43545W        W 8706  20.715   2.741   3.927
43546W        W 8707  28.251  18.845   0.014
43547W        W 8708   1.340  25.455  12.576
43548W        W 8709  36.015  10.380   2.003
43549W        W 8710  39.866   8.163  13.097
43550W        W 8711  26.323  36.669   1.340
43551W        W 8712  31.629  17.309  12.171
43552W        W 8713  44.028  30.472   4.700
43553W        W 8714   7.552  14.727   0.337
43554W        W 8715  30.853  24.576  10.936
43555W        W 8716  43.490   5.324  14.016
43556W        W 8717  43.344  25.697   3.192
43557W        W 8718  15.551   0.864  11.055
43558W        W 8719  41.543   0.328   0.858
43559W        W 8720  29.520  20.718  12.050
43560W        W 8721  30.123  33.758   1.002
43561W        W 8722   6.455  23.425   4.176
43562W        W 8723  39.275  35.935  11.222
43563W        W 8724  32.588  22.368   2.722
43564W        W 8725  13.382  38.371  11.187
43565W        W 8726  33.351   3.234  14.435
43566W        W 8727  42.524  12.082  13.939
43567W        W 8728  28.345  42.706   2.694
43568W        W 8729   3.439   9.354  14.798
43569W        W 8730  44.322  28.177  14.844
43570W        W 8731  10.855  26.492  13.313
43571W        W 8732  37.053  40.608   3.261
43572W        W 8733  12.082  39.408   4.793
43573W        W 8734  34.460  40.764  12.983
43574W        W 8735   0.492  34.057   3.252
43575W        W 8736  33.583  42.470  14.685
43576W        W 8737   4.503  44.923  11.380
43577W        W 8738  30.935  36.914  10.435
43578W        W 8739   1.147   8.162  13.880
43579W        W 8740  32.971  44.507  10.577
43580W        W 8741   2.692  24.506  10.348
43581W        W 8742   6.623  13.341   3.623
43582W        W 8743  42.743  40.372  12.877
43583W        W 8744  12.360  37.954   0.977
43584W        W 8745  22.107  32.081   1.884
43585W        W 8746  11.282   6.931  14.303
43586W        W 8747   7.045   6.917  11.597
43587W        W 8748   2.999  16.657  13.513
43588W        W 8749  28.517  14.546  10.895
43589W        W 8750  28.007   6.419  12.005
43590W        W 8751  21.270  39.882  10.539
43591W        W 8752  18.529  33.683   3.908
43592W        W 8753  31.955  12.968   4.330
43593W        W 8754  31.041   1.904  13.733
43594W        W 8755  32.992   4.964  14.501
43595W        W 8756  44.490  15.230   0.788
43596W        W 8757  32.471   0.477  13.854
43597W        W 8758   2.914  40.291   3.652
43598W        W 8759  19.582  32.733  12.122
43599W        W 8760  41.301  14.595   2.381
43600W        W 8761  44.941   9.960  13.117
43601W        W 8762   0.564  10.437  13.379
43602W        W 8763  41.838  16.870   2.396
43603W        W 8764  29.978  27.700  10.444
43604W        W 8765   9.316  24.059   0.433
43605W        W 8766  40.862  34.864  11.375
43606W        W 8767  19.201  36.330  14.759
43607W        W 8768  40.392  36.975   1.688
43608W        W 8769  32.378  40.444  13.958
43609W        W 8770  42.860  15.296   3.798
43610W        W 8771   5.465   1.210  13.875
43611W        W 8772  41.176  21.770  14.899
43612W        W 8773  26.057   5.061   1.138
43613W        W 8774   8.641  14.077  12.496
43614W        W 8775  40.888  15.280  14.270
43615W        W 8776  28.458  19.938  14.489
43616W        W 8777   3.213  15.683  11.582
43617W        W 8778   2.731  38.318  14.384
43618W        W 8779  42.435  28.261  11.157
43619W        W 8780  37.160  17.254   1.578
43620W        W 8781  25.064  36.893   2.789
43621W        W 8782  36.566  43.981   4.634
43622W        W 8783  28.501  34.875  14.007
43623W        W 8784  30.018   3.729   2.978
43624W        W 8785   4.859  33.613  13.403
43625W        W 8786  28.017   0.570   3.936
43626W        W 8787  43.326   4.706   3.639
43627W        W 8788  25.654  31.400  13.316
43628W        W 8789  21.605  12.801   1.927
43629W        W 8790  27.639  35.015  14.542
43630W        W 8791  37.019  40.614  12.827
43631W        W 8792  15.239   5.798  10.608
43632W        W 8793  44.703   5.462  11.649
43633W        W 8794   8.485   4.991  12.489
43634W        W 8795  16.606  42.976  11.538
43635W        W 8796   3.996  18.682  11.945
43636W        W 8797  39.085  18.991  11.107
43637W        W 8798  37.648  38.227  11.916
43638W        W 8799  41.810   6.122  14.214
43639W        W 8800  11.164  26.329   3.899
43640W        W 8801  30.935  40.717   2.270
43641W        W 8802  10.335  26.439   2.387
43642W        W 8803  19.448  43.932  10.211
43643W        W 8804  36.457  24.941  11.405
43644W        W 8805  27.085  35.978   2.667
43645W        W 8806  44.972   6.689   1.950
43646W        W 8807  13.372  23.960   3.712
43647W        W 8808   7.826  22.695  10.687
43648W        W 8809   3.738  19.594  14.352
43649W        W 8810  16.318  20.297  11.105
43650W        W 8811   5.086   2.173  14.373
43651W        W 8812   7.927  33.691   0.698
43652W        W 8813  35.401  29.207  11.418
43653W        W 8814  29.690  16.263  11.192
43654W        W 8815  33.210  39.225  12.635
43655W        W 8816  18.265   6.279  13.854
43656W        W 8817  29.213  41.485   1.225
43657W        W 8818  29.338   1.837   4.941
43658W        W 8819  22.079  44.427  13.269
43659W        W 8820  41.977  18.660   1.445
43660W        W 8821  33.579   3.436  13.985
43661W        W 8822  10.121   2.086  13.585
43662W        W 8823   5.216  35.520  12.396
43663W        W 8824  11.700  29.714   1.552
43664W        W 8825  44.503  38.066  13.470
43665W        W 8826  33.632   7.584  10.733
43666W        W 8827  36.919  25.047  13.365
43667W        W 8828  29.080  34.145  11.922
43668W        W 8829  11.019  32.249   4.502
43669W        W 8830  27.551  15.865   4.160
43670W        W 8831  41.620   3.841   0.984
43671W        W 8832  29.336  26.218  13.274
43672W        W 8833  32.272  31.921   5.028
43673W        W 8834  22.661  22.611   0.364
43674W        W 8835  37.080  31.431   3.625
43675W        W 8836  33.484  16.590   0.798
43676W        W 8837  44.001  16.218   0.415
43677W        W 8838  16.235   5.437   1.951
43678W        W 8839  39.507  10.284  13.534
43679W        W 8840   2.005  15.715  14.440
43680W        W 8841  30.387   3.682   0.655
43681W        W 8842   8.880  15.161  10.643
43682W        W 8843   9.674   1.400  13.113
43683W        W 8844  35.404   9.758   1.792
43684W        W 8845  37.318   9.900  14.333
43685W        W 8846  24.694  23.597   2.717
43686W        W 8847  24.064   5.721  12.208
43687W        W 8848   4.282  36.587  13.744
43688W        W 8849  27.070  14.765  14.763
43689W        W 8850  39.398  38.536  14.937
43690W        W 8851  40.556   4.363  10.670
43691W        W 8852  19.069  31.089  14.874
43692W        W 8853  12.668  20.957   2.690
43693W        W 8854  12.594  22.193   1.195
43694W        W 8855   4.910   2.511   1.268
43695W        W 8856  15.344  41.729  12.598
43696W        W 8857  26.627  11.239   0.509
43697W        W 8858  14.327   1.427   3.817
43698W        W 8859   4.457  33.427  12.833
43699W        W 8860  30.252  14.446  11.163
43700W        W 8861  20.301  18.086   2.150
43701W        W 8862  13.873  42.231  14.097
43702W        W 8863  26.489   3.484   3.587
43703W        W 8864  40.257  24.047  14.288
43704W        W 8865   7.824  18.777   4.604
43705W        W 8866  24.224   0.252   1.519
43706W        W 8867  28.067  34.920   3.202
43707W        W 8868  30.473  37.033  11.560
43708W        W 8869  12.301  35.123  10.692
43709W        W 8870  12.384  22.585  10.745
43710W        W 8871   1.989  18.735   1.174
43711W        W 8872  19.243  33.535   2.813
43712W        W 8873  34.991  41.799  11.172
43713W        W 8874  36.493  15.709  14.505
43714W        W 8875  40.255  31.248   0.541
43715W        W 8876  14.610  21.098   0.740
43716W        W 8877  21.856  24.496   1.299
43717W        W 8878  16.219  44.394   4.712
43718W        W 8879  40.485   2.206   4.198
43719W        W 8880   4.671  42.401  14.445
43720W        W 8881  24.006  31.522   2.739
43721W        W 8882  41.768  39.885  12.393
43722W        W 8883  38.052  17.524  12.877
43723W        W 8884  27.753  32.421  12.958
43724W        W 8885  38.970   9.600   3.380
43725W        W 8886   1.422  21.214   1.403
43726W        W 8887  33.102  10.205  11.576
43727W        W 8888  31.662  22.112   1.814
43728W        W 8889  29.299  35.469  13.319
43729W        W 8890  39.959  11.113   4.062
43730W        W 8891   8.889  41.029   4.225
43731W        W 8892  28.420  11.240  13.402
43732W        W 8893   3.550  15.229   3.269
43733W        W 8894  18.027   4.949  14.995
43734W        W 8895  36.931  21.453  12.850
43735W        W 8896   8.153  31.390   4.155
43736W        W 8897  25.653   2.392   2.205
43737W        W 8898  32.983  27.171   0.436
43738W        W 8899  37.336   2.776  11.587
43739W        W 8900  20.025   6.448   2.211
43740W        W 8901   5.163  33.575   4.119
43741W        W 8902  39.488  27.021   1.548
43742W        W 8903  28.936  41.756  13.398
43743W        W 8904  14.596  27.639   4.135
43744W        W 8905   6.218  12.320   3.247
43745W        W 8906   5.266   0.535   0.253
43746W        W 8907  36.416  27.529   3.447
43747W        W 8908  23.762  10.827   3.676
43748W        W 8909  33.144  12.784   1.894
43749W        W 8910  24.239  29.553   0.435
43750W        W 8911  44.527  33.032  12.907
43751W        W 8912  43.371  21.504   3.221
43752W        W 8913  33.624   6.164  14.559
43753W        W 8914  28.192  29.594   1.765
43754W        W 8915  11.298  16.366   2.284
43755W        W 8916  15.343  43.312   0.009
43756W        W 8917  18.645  23.380   4.082
43757W        W 8918  25.686  15.382   4.209
43758W        W 8919  22.216   2.714   1.270
43759W        W 8920   9.770  27.320  12.044
43760W        W 8921  32.399  11.555  11.073
43761W        W 8922   7.749  21.826  14.393
43762W        W 8923  27.703  27.159  11.665
43763W        W 8924  20.127  22.220  10.850
43764W        W 8925  24.994  42.377   3.111
43765W        W 8926  34.403  44.241   2.629
43766W        W 8927  11.095  13.986   4.536
43767W        W 8928  10.230  12.795  12.556
43768W        W 8929  24.138  25.037  11.818
43769W        W 8930  42.763   4.680   3.660
43770W        W 8931  22.274  30.833  11.576
43771W        W 8932  23.256  25.500  12.010
43772W        W 8933  42.409   9.847  12.008
43773W        W 8934  23.869   9.024   0.141
43774W        W 8935  19.903  30.075  12.792
43775W        W 8936  15.493  18.692   9.703
43776W        W 8937  43.596  21.244  13.487
43777W        W 8938  21.525  27.514  10.913
43778W        W 8939  16.913   6.599   3.996
43779W        W 8940   6.016   1.701   4.987
43780W        W 8941  10.212  15.497  10.057
43781W        W 8942  27.631  27.158   4.155
43782W        W 8943   9.786   5.177   1.814
43783W        W 8944  16.045   9.108  14.164
43784W        W 8945  38.608  14.577  11.857
43785W        W 8946  30.579  18.058   0.995
43786W        W 8947  27.467   6.694  11.427
43787W        W 8948  20.010  42.718   3.190
43788W        W 8949  11.364  24.982  12.495
43789W        W 8950  41.771   1.252   2.243
43790W        W 8951   3.777  21.626   4.618
43791W        W 8952  15.848  25.907   2.128
43792W        W 8953  42.226  39.362   3.619
43793W        W 8954  15.303  11.868   3.322
43794W        W 8955  30.656  40.259   0.929
43795W        W 8956  11.118  19.457   1.890
43796W        W 8957  23.566  17.653  13.231
43797W        W 8958  39.812  43.470  12.996
43798W        W 8959  23.421  42.981  12.395
43799W        W 8960  29.640  43.552  13.108
43800W        W 8961  23.159  10.618   0.833
43801W        W 8962  16.405  44.696  13.892
43802W        W 8963  29.351  33.943   3.779
43803W        W 8964   6.139  40.703   0.642
43804W        W 8965  35.955  27.123   4.140
43805W        W 8966   8.688   6.789  10.568
43806W        W 8967  36.150   6.367  12.968
43807W        W 8968  36.570  35.985   2.915
43808W        W 8969  14.112  41.325  11.486
43809W        W 8970  33.912  13.357  10.579
43810W        W 8971   6.646  37.457   3.240
43811W        W 8972  42.322  38.050   1.283
43812W        W 8973   2.334  29.712  14.556
43813W        W 8974   2.272   7.926   2.233
43814W        W 8975  35.447  18.008   4.584
43815W        W 8976  18.183  37.369  14.929
43816W        W 8977  29.355  24.594  14.815
43817W        W 8978  30.069  37.865  10.553
43818W        W 8979  19.273  40.989   3.752
43819W        W 8980  40.515  34.556   3.246
43820W        W 8981  28.023  36.512   2.590
43821W        W 8982  42.768  21.061   2.744
43822W        W 8983  16.751  30.697  11.585
43823W        W 8984  10.887   8.532   1.421
43824W        W 8985   0.435   8.438  13.414
43825W        W 8986  39.823  18.521  10.552
43826W        W 8987  23.684  13.719  14.008
43827W        W 8988  11.925  28.746  11.464
43828W        W 8989  14.718  10.761  12.447
43829W        W 8990  13.698  12.510  10.755
43830W        W 8991  18.977  41.243  13.986
43831W        W 8992  30.681  27.417   3.784
43832W        W 8993   1.261  40.327  14.726
43833W        W 8994   9.357  38.505   0.956
43834W        W 8995   6.237   4.000   4.187
43835W        W 8996   9.556  11.397  12.840
43836W        W 8997  18.479  20.198  11.643
43837W        W 8998  41.348  15.304   0.953
43838W        W 8999  34.856  44.025   2.492
43839W        W 9000  28.613  36.329   4.692
43840W        W 9001  35.927  35.406  14.328
43841W        W 9002  39.641  28.637   2.857
43842W        W 9003  35.553   4.863   3.878
43843W        W 9004  27.223  11.935   1.900
43844W        W 9005  39.883  15.799  10.503
43845W        W 9006   7.698  29.052  13.546
43846W        W 9007   2.622   3.620   0.213
43847W        W 9008  26.133  39.238   3.304
43848W        W 9009  39.388  39.816   4.246
43849W        W 9010  24.721  24.530  11.665
43850W        W 9011  25.553   8.674   1.869
43851W        W 9012  15.437   5.978  13.354
43852W        W 9013   3.434  37.243  13.817
43853W        W 9014  21.479  40.434   2.788
43854W        W 9015  10.006  17.651   2.569
43855W        W 9016   2.148  44.883   2.656
43856W        W 9017  43.042  29.235  13.064
43857W        W 9018  13.281  11.408   2.868
43858W        W 9019  38.465  25.150   3.231
43859W        W 9020   6.681  17.711   0.627
43860W        W 9021  35.354  19.076   1.403
43861W        W 9022  44.884  32.584  10.680
43862W        W 9023   7.800  39.991  11.302
43863W        W 9024  16.619  24.926   1.226
43864W        W 9025   0.323  18.947   2.352
43865W        W 9026  16.567  37.453   0.352
43866W        W 9027   2.394   3.358  13.527
43867W        W 9028  34.041  32.541   0.140
43868W        W 9029   0.319   8.916   3.801
43869W        W 9030   8.180  24.962   0.060
43870W        W 9031  32.389  27.765  14.229
43871W        W 9032  20.628  30.206   0.831
43872W        W 9033  33.911   0.016  12.071
43873W        W 9034  16.056  14.627  14.410
43874W        W 9035  25.119  22.487  13.697
43875W        W 9036  17.530  34.176  14.335
43876W        W 9037  22.584  13.110  13.829
43877W        W 9038   1.524  44.143  12.341
43878W        W 9039  22.192  32.104   2.420
43879W        W 9040   1.205  25.284   4.633
43880W        W 9041   5.314   9.802   4.205
43881W        W 9042  25.727  22.670  10.142
43882W        W 9043  41.910  28.692  11.701
43883W        W 9044  42.851  27.717   3.623
43884W        W 9045  20.023  28.080  14.245
43885W        W 9046  24.601  30.596   0.975
43886W        W 9047  42.042  20.093   4.207
43887W        W 9048  32.509  43.797  10.460
43888W        W 9049  23.088  37.766  11.935
43889W        W 9050   2.112  27.390   1.854
43890W        W 9051  10.301  11.934  11.819
43891W        W 9052   2.100  41.321   0.454
43892W        W 9053  31.641  10.280  12.628
43893W        W 9054  43.433  11.814   2.558
43894W        W 9055  25.691  20.172   2.755
43895W        W 9056  17.903  11.799   1.321
43896W        W 9057  40.520  23.761  14.840
43897W        W 9058   5.342   2.096   1.528
43898W        W 9059  11.423   3.638   4.667
43899W        W 9060   9.913   5.047   0.262
43900W        W 9061  34.006  21.926   5.410
43901W        W 9062  20.555  25.325   4.563
43902W        W 9063   6.253  44.541  10.247
43903W        W 9064   7.119   1.768  12.516
43904W        W 9065  24.047  39.538  14.452
43905W        W 9066   9.225  35.626  10.767
43906W        W 9067   6.979  12.294  14.075
43907W        W 9068   4.430  24.600  13.940
43908W        W 9069  43.852  11.328  12.008
43909W        W 9070   0.926   8.450   3.246
43910W        W 9071  13.813  20.601  11.257
43911W        W 9072  37.436  29.607   4.173
43912W        W 9073  32.000  34.107   1.502
43913W        W 9074  30.895  12.184   0.835
43914W        W 9075  44.845  10.758  11.915
43915W        W 9076  31.156  44.451   1.714
43916W        W 9077  30.124  31.357  11.082
43917W        W 9078  23.907  20.995   0.845
43918W        W 9079  26.002  20.700   2.314
43919W        W 9080   3.121   7.236  13.065
43920W        W 9081  41.563  33.880   0.220
43921W        W 9082  14.617   7.388   2.695
43922W        W 9083  31.718  24.225  10.853
43923W        W 9084  34.418  31.600   4.676
43924W        W 9085  29.105  25.670  11.048
43925W        W 9086  35.992  21.509   4.266
43926W        W 9087  32.578  10.232   2.696
43927W        W 9088  42.471  30.541  13.398
43928W        W 9089  34.188  20.979  14.573
43929W        W 9090  12.400  38.558  12.090
43930W        W 9091  17.092  44.666  10.607
43931W        W 9092   7.083  15.561  10.113
43932W        W 9093   3.963  16.444   0.614
43933W        W 9094   4.424  12.907   1.148
43934W        W 9095   4.139   5.757  13.396
43935W        W 9096  42.322  28.437   0.271
43936W        W 9097  28.138   2.842   0.508
43937W        W 9098  30.400  19.549   2.886
43938W        W 9099  27.716  13.215  13.352
43939W        W 9100  36.805  25.626   0.383
43940W        W 9101  17.664  15.844   1.937
43941W        W 9102  22.977  35.972   0.819
43942W        W 9103  31.331  12.373  13.604
43943W        W 9104  15.234  28.559   2.937
43944W        W 9105   1.009  44.046  13.709
43945W        W 9106  10.298  27.755   1.696
43946W        W 9107  20.126  35.019  12.616
43947W        W 9108   3.843   6.466  10.594
43948W        W 9109  22.971  32.358  13.832
43949W        W 9110  25.252   8.098  12.404
43950W        W 9111   1.039   6.355   2.839
43951W        W 9112  10.333  36.752  13.623
43952W        W 9113  16.315  22.532   0.433
43953W        W 9114   2.499  16.292  12.061
43954W        W 9115   8.243   8.431  10.752
43955W        W 9116  35.413  40.464   1.831
43956W        W 9117   3.029  25.059  12.700
43957W        W 9118  25.559  43.927  11.019
43958W        W 9119   2.521  25.402   0.987
43959W        W 9120  21.167  33.613   2.375
43960W        W 9121  15.705   3.396   3.633
43961W        W 9122  30.637  12.246  13.074
43962W        W 9123  10.834  10.417   0.591
43963W        W 9124   1.060  23.169  11.907
43964W        W 9125  27.411  32.513  11.681
43965W        W 9126   0.235  42.282   2.825
43966W        W 9127  33.612  27.558  14.552
43967W        W 9128  36.748   8.590   4.933
43968W        W 9129  14.583  11.283   4.839
43969W        W 9130  33.911  36.601   1.672
43970W        W 9131  14.206  16.675   1.198
43971W        W 9132   4.968  22.469  13.810
43972W        W 9133  33.154  37.552  11.674
43973W        W 9134  25.544  25.003   1.804
43974W        W 9135  22.609  32.915  10.780
43975W        W 9136  22.134   4.502  14.849
43976W        W 9137  27.725  23.574  14.465
43977W        W 9138  33.945  29.994  12.120
43978W        W 9139  25.496  16.234   0.289
43979W        W 9140  23.176  20.639   3.792
43980W        W 9141  43.422  20.775  13.319
43981W        W 9142   2.175  21.679   3.211
43982W        W 9143   1.531  28.640  12.968
43983W        W 9144  19.645   3.441  10.746
43984W        W 9145   7.480  37.328   1.891
43985W        W 9146  11.161  19.841   1.278
43986W        W 9147  23.052  39.833   4.410
43987W        W 9148  39.594  29.717  12.030
43988W        W 9149   1.740  44.698   1.433
43989W        W 9150  18.546  25.432   4.680
43990W        W 9151  32.677  28.230   2.447
43991W        W 9152  37.301  32.076   1.666
43992W        W 9153   8.720  25.223  12.175
43993W        W 9154  38.831  16.785   1.378
43994W        W 9155   8.026   9.239   0.877
43995W        W 9156  23.148  35.696   1.238
43996W        W 9157  24.657  25.070   0.040
43997W        W 9158   9.800  32.118  10.658
43998W        W 9159   2.826  37.048   3.279
43999W        W 9160  22.583  44.457  13.466
44000W        W 9161  36.590  38.327  10.630
44001W        W 9162  19.499   7.889  13.820
44002W        W 9163  32.536   9.996   3.574
44003W        W 9164  41.904  11.718  13.475
44004W        W 9165  26.603   7.433  12.521
44005W        W 9166  13.649   7.805   3.386
44006W        W 9167  13.681   9.405   1.745
44007W        W 9168  18.576  10.687  13.406
44008W        W 9169  22.583  29.522   3.621
44009W        W 9170  40.612  44.508  13.114
44010W        W 9171  15.600  15.633  12.891
44011W        W 9172   8.866  24.632  12.898
44012W        W 9173   2.481   6.536  12.551
44013W        W 9174  34.031  18.717  12.468
44014W        W 9175   2.517  24.142   3.209
44015W        W 9176  22.136  27.170   2.659
44016W        W 9177  34.832  44.557   3.357
44017W        W 9178  22.632  35.413  11.102
44018W        W 9179  11.717   0.116   0.935
44019W        W 9180  42.098  22.721   2.805
44020W        W 9181   5.372  15.676   1.638
44021W        W 9182  39.526  12.185   4.230
44022W        W 9183  32.857   9.170   2.213
44023W        W 9184  29.563  26.281  13.740
44024W        W 9185   4.753  41.239  13.474
44025W        W 9186   0.526  25.661  10.132
44026W        W 9187   5.732  29.116  12.564
44027W        W 9188   9.438  10.715   2.588
44028W        W 9189  19.073  13.139  13.994
44029W        W 9190  19.698   3.554  12.909
44030W        W 9191  23.343  12.725  12.827
44031W        W 9192  20.922  42.444  13.801
44032W        W 9193  37.752   5.291  11.557
44033W        W 9194  19.697  39.713   9.632
44034W        W 9195  34.777  29.051   2.783
44035W        W 9196  21.742   7.068   3.677
44036W        W 9197  10.022   8.800   3.436
44037W        W 9198  11.582   6.257  11.126
44038W        W 9199  17.178  20.461  11.535
44039W        W 9200  44.873  10.465   0.884
44040W        W 9201  14.247  29.717   2.829
44041W        W 9202  29.239  36.587   2.615
44042W        W 9203  37.346  40.035  14.680
44043W        W 9204  32.447  11.567   2.485
44044W        W 9205  14.542   9.946  14.944
44045W        W 9206  39.484  26.056   3.740
44046W        W 9207  12.140  18.173  13.278
44047W        W 9208  13.522  22.931   0.115
44048W        W 9209   0.917  20.125  13.455
44049W        W 9210  28.079  41.724  11.981
44050W        W 9211  20.374  15.769  14.951
44051W        W 9212  23.263   7.555   1.725
44052W        W 9213   5.242  29.296   0.238
44053W        W 9214  31.370  29.896   0.828
44054W        W 9215  13.143   9.952  10.837
44055W        W 9216   9.221  33.612  13.737
44056W        W 9217  35.041  27.723   3.875
44057W        W 9218  37.611  38.047  14.468
44058W        W 9219   6.037  16.294  10.525
44059W        W 9220  23.935  35.730  11.195
44060W        W 9221  32.146  31.380   4.323
44061W        W 9222   9.663  22.874   2.921
44062W        W 9223  36.435  27.627  14.611
44063W        W 9224  15.843  33.135   2.787
44064W        W 9225  19.829  26.278  14.911
44065W        W 9226  19.050   4.676  13.589
44066W        W 9227  26.102  40.897   1.885
44067W        W 9228   1.119  43.066  12.613
44068W        W 9229  31.512  31.564   2.073
44069W        W 9230  12.636  34.181  13.868
44070W        W 9231  13.219  10.467  13.718
44071W        W 9232  20.439  24.348  12.460
44072W        W 9233  13.701  39.513   2.450
44073W        W 9234  31.475   8.047  14.525
44074W        W 9235  34.562  15.766   4.073
44075W        W 9236  20.079  42.724   1.872
44076W        W 9237   6.356  17.060  14.552
44077W        W 9238  35.694   5.264   2.782
44078W        W 9239  17.818  13.357   0.990
44079W        W 9240  12.662  28.568  14.051
44080W        W 9241  39.204  20.030   4.485
44081W        W 9242   8.669  29.629  14.058
44082W        W 9243  34.120  37.507  11.647
44083W        W 9244   3.714  16.331  10.252
44084W        W 9245   2.054  25.641   3.922
44085W        W 9246  41.453  12.140   4.128
44086W        W 9247  19.251   3.683   2.421
44087W        W 9248  14.984  40.387   2.592
44088W        W 9249  16.756  30.516  13.448
44089W        W 9250  25.666  31.000   2.608
44090W        W 9251  39.978  38.569  12.069
44091W        W 9252  23.611  23.931   3.698
44092W        W 9253  13.823  42.388  11.843
44093W        W 9254  26.665  36.858   4.185
44094W        W 9255  10.255  11.759   2.221
44095W        W 9256  21.783  17.565   0.995
44096W        W 9257  35.599  38.630   0.180
44097W        W 9258   9.947   6.979   0.379
44098W        W 9259  29.040  10.306  10.584
44099W        W 9260  16.031   3.506   4.880
44100W        W 9261  33.828  34.976   3.662
44101W        W 9262  30.281  10.376   2.454
44102W        W 9263  40.462   2.543   2.838
44103W        W 9264  43.897   0.278   0.461
44104W        W 9265  43.031  40.836  12.924
44105W        W 9266   5.995  15.417   1.340
44106W        W 9267  42.031   6.914  13.247
44107W        W 9268   5.222  27.979  11.166
44108W        W 9269  17.489  17.892  14.883
44109W        W 9270  18.764   2.858   0.551
44110W        W 9271  20.148  34.601  13.557
44111W        W 9272  33.310  21.275   3.831
44112W        W 9273  27.151  25.718  14.360
44113W        W 9274  16.260  23.058  10.819
44114W        W 9275  43.900   9.374  10.603
44115W        W 9276  37.812  44.432  10.245
44116W        W 9277  24.741  23.316  10.793
44117W        W 9278  27.923   0.683   4.504
44118W        W 9279  10.139  15.779  12.909
44119W        W 9280  27.789  37.550  12.406
44120W        W 9281  44.435  27.486   3.646
44121W        W 9282   5.749  41.602  12.590
44122W        W 9283  12.561  39.017  10.284
44123W        W 9284   3.812  25.556   3.488
44124W        W 9285  34.991  28.176  13.025
44125W        W 9286   5.432  40.514   3.720
44126W        W 9287  31.930  43.231  10.486
44127W        W 9288  28.064  26.020  10.476
44128W        W 9289  30.196  41.100   4.042
44129W        W 9290  38.729  39.556  10.342
44130W        W 9291  32.586  44.383   1.683
44131W        W 9292  35.960  35.310   2.781
44132W        W 9293  17.538   3.042   0.880
44133W        W 9294  23.017   9.437  14.449
44134W        W 9295  38.996  32.872  10.762
44135W        W 9296  40.924  42.057  14.831
44136W        W 9297  26.814   8.367  14.671
44137W        W 9298   5.849  41.816  12.122
44138W        W 9299   2.148  37.387  13.612
44139W        W 9300  25.887  10.387   0.946
44140W        W 9301  40.079  24.215   4.333
44141W        W 9302   4.284  14.352   2.323
44142W        W 9303  15.034  34.149  14.704
44143W        W 9304  28.181  10.082  10.720
44144W        W 9305  36.094  30.063  12.090
44145W        W 9306   4.901   1.896   0.188
44146W        W 9307  10.125  10.579  13.892
44147W        W 9308   6.985  17.640  13.967
44148W        W 9309  36.246  16.161  13.849
44149W        W 9310  43.453  24.967  12.981
44150W        W 9311  11.169   5.786   3.662
44151W        W 9312  13.655  27.650  12.974
44152W        W 9313  15.068  32.408   4.525
44153W        W 9314   0.850   1.021  12.593
44154W        W 9315  41.130  43.904   0.811
44155W        W 9316  39.446  15.793  11.621
44156W        W 9317   9.670  38.620   3.272
44157W        W 9318  21.165  35.148  13.406
44158W        W 9319  40.041   8.719  10.599
44159W        W 9320  39.937  34.712   0.237
44160W        W 9321  13.446  40.124   0.497
44161W        W 9322  19.114   3.823  11.406
44162W        W 9323  14.441  44.193   2.274
44163W        W 9324  26.738  22.269   2.928
44164W        W 9325  10.824  20.713  13.458
44165W        W 9326  34.872  18.664   0.860
44166W        W 9327  16.883  17.428  13.718
44167W        W 9328  36.836  27.328   3.068
44168W        W 9329  25.413  30.977  11.654
44169W        W 9330  36.351  12.552   2.697
44170W        W 9331   9.339  13.182  12.486
44171W        W 9332  21.391  21.549   2.977
44172W        W 9333   2.146  44.544   4.173
44173W        W 9334  34.193  42.811   2.283
44174W        W 9335  39.413   9.856   3.515
44175W        W 9336   4.486  13.080  10.561
44176W        W 9337  26.177   4.469  13.302
44177W        W 9338   6.416   9.602  13.425
44178W        W 9339  16.169  31.906  13.438
44179W        W 9340  43.550  19.598   0.717
44180W        W 9341  18.871  34.240   1.779
44181W        W 9342  34.847  39.789  12.922
44182W        W 9343  35.921  39.903  12.556
44183W        W 9344  35.994  29.040   1.074
44184W        W 9345  13.609  44.000  11.172
44185W        W 9346  34.340  40.311   0.226
44186W        W 9347  35.888   3.990   3.337
44187W        W 9348  31.742  25.589  12.569
44188W        W 9349  19.157  40.737   2.843
44189W        W 9350   2.797  30.691   2.426
44190W        W 9351  13.267  24.127  13.125
44191W        W 9352  28.799  24.051   4.076
44192W        W 9353  29.379  44.509  12.388
44193W        W 9354  24.686   5.048  12.485
44194W        W 9355  41.822   6.453  14.648
44195W        W 9356  38.974  15.549  11.561
44196W        W 9357   4.881   3.805  13.808
44197W        W 9358  36.183  25.025  10.466
44198W        W 9359  29.177   5.779  12.152
44199W        W 9360  30.117   5.082   3.082
44200W        W 9361  13.804   5.911   0.408
44201W        W 9362   3.669  16.185   0.949
44202W        W 9363  22.986   6.890  14.754
44203W        W 9364  38.882  27.571  11.626
44204W        W 9365  30.078  27.090  14.049
44205W        W 9366   9.156   9.858   4.122
44206W        W 9367  34.269  44.229   0.676
44207W        W 9368  12.334  39.608   1.738
44208W        W 9369   1.650  28.024  10.286
44209W        W 9370  15.801  20.660   4.193
44210W        W 9371  13.274  40.986   0.397
44211W        W 9372  18.686  39.594   2.391
44212W        W 9373  21.735  29.858  13.775
44213W        W 9374  42.112  28.229  11.581
44214W        W 9375  40.795  12.848   4.152
44215W        W 9376   8.599  10.636  13.898
44216W        W 9377   3.601   9.756  10.668
44217W        W 9378  18.298   4.673   0.908
44218W        W 9379  25.507   9.244   4.193
44219W        W 9380  17.562  25.723   1.453
44220W        W 9381  30.846  13.208   0.007
44221W        W 9382   5.311  23.659   1.254
44222W        W 9383   6.369   5.833   0.752
44223W        W 9384  39.918  28.194   2.131
44224W        W 9385  34.650  10.218   9.779
44225W        W 9386  11.584  16.729  12.984
44226W        W 9387  34.984  12.743   3.374
44227W        W 9388  21.276   0.826   4.627
44228W        W 9389  41.771  16.160   4.239
44229W        W 9390  15.090  35.862   2.854
44230W        W 9391  39.979  16.781   0.402
44231W        W 9392  24.140   4.698  11.704
44232W        W 9393  26.886  29.145  13.784
44233W        W 9394   4.817  35.236  14.227
44234W        W 9395  16.692  25.223  14.133
44235W        W 9396  23.177  30.673   2.594
44236W        W 9397  25.134  15.349   3.643
44237W        W 9398  44.813  40.438   0.274
44238W        W 9399  42.011   6.842  11.893
44239W        W 9400  40.690  24.221  14.931
44240W        W 9401  11.151  17.684  14.737
44241W        W 9402  34.262   5.669   1.607
44242W        W 9403  11.703  11.255  11.542
44243W        W 9404  34.055   1.424   2.973
44244W        W 9405  39.051  38.241   0.172
44245W        W 9406  23.694  28.011   2.158
44246W        W 9407  13.599  27.363  12.099
44247W        W 9408  39.000  39.954   0.874
44248W        W 9409  32.838  21.608   3.104
44249W        W 9410  24.998  10.684  13.433
44250W        W 9411  22.253  25.566   1.272
44251W        W 9412  34.406   2.551  11.113
44252W        W 9413  18.171  11.907  12.605
44253W        W 9414   4.341   7.949  12.822
44254W        W 9415  27.345  25.417  14.758
44255W        W 9416   5.965  22.717   3.138
44256W        W 9417  40.424  21.010   5.040
44257W        W 9418  34.860   3.894  14.879
44258W        W 9419  20.980  16.177  12.507
44259W        W 9420  34.897  14.081  13.919
44260W        W 9421  42.742  33.209  13.001
44261W        W 9422  16.301  17.516   1.676
44262W        W 9423   6.174  13.179   1.683
44263W        W 9424  26.847  36.647   3.302
44264W        W 9425  31.869  43.411   0.099
44265W        W 9426  10.329  41.898  12.275
44266W        W 9427  37.434  15.634  13.635
44267W        W 9428  28.672  21.560   2.565
44268W        W 9429  26.091  13.627   1.217
44269W        W 9430  34.969  31.425   0.329
44270W        W 9431  29.199   0.957  12.494
44271W        W 9432   4.295  28.098   1.506
44272W        W 9433   1.453  40.940  11.901
44273W        W 9434   8.211  30.091   2.171
44274W        W 9435  41.023  17.502   2.219
44275W        W 9436  35.886  16.369  14.923
44276W        W 9437  10.159  35.234   0.204
44277W        W 9438  37.716  30.953  12.689
44278W        W 9439   4.827  15.612  12.949
44279W        W 9440  13.669  33.420  10.643
44280W        W 9441   1.775   9.789   0.004
44281W        W 9442  13.057  18.576   3.906
44282W        W 9443   4.205  17.141  14.065
44283W        W 9444  34.615  30.267   4.200
44284W        W 9445  20.256  27.211   1.286
44285W        W 9446  31.963   9.219   1.532
44286W        W 9447  18.315  26.997   1.995
44287W        W 9448  36.115  32.615  12.837
44288W        W 9449  15.645  31.328   2.226
44289W        W 9450   5.458  32.918   0.346
44290W        W 9451  44.576  35.797  14.105
44291W        W 9452  35.351  20.159  14.583
44292W        W 9453  42.416  26.973   1.365
44293W        W 9454  38.990  44.558   4.537
44294W        W 9455   7.310  30.430  14.832
44295W        W 9456  40.117  16.878  11.179
44296W        W 9457  19.798   4.367   0.016
44297W        W 9458  18.194  30.073  14.408
44298W        W 9459   7.331  30.516  13.836
44299W        W 9460  25.047  16.154  13.822
44300W        W 9461  28.377  38.754   2.868
44301W        W 9462  24.504  16.986  13.865
44302W        W 9463  43.288  42.081   3.635
44303W        W 9464  30.479  42.020   1.377
44304W        W 9465  39.508   7.875   4.568
44305W        W 9466  23.506  30.996  13.097
44306W        W 9467   3.870  26.917   2.713
44307W        W 9468  29.914  38.019  13.578
44308W        W 9469  39.109  11.156   0.323
44309W        W 9470  26.422  26.299   5.351
44310W        W 9471   7.236   4.686   1.279
44311W        W 9472  42.343  28.963   1.337
44312W        W 9473  38.951  21.792   2.275
44313W        W 9474  33.387  10.835   3.541
44314W        W 9475  39.992  28.945  11.142
44315W        W 9476  35.719  38.360  10.392
44316W        W 9477   0.772  24.529  13.043
44317W        W 9478   9.958  41.787  14.533
44318W        W 9479  39.927   5.004  12.705
44319W        W 9480  32.694  22.237   0.043
44320W        W 9481  21.596  33.274   3.311
44321W        W 9482  33.820  25.536   2.766
44322W        W 9483   5.813  17.882   2.464
44323W        W 9484   6.789  37.578  12.279
44324W        W 9485  32.335  28.459   1.376
44325W        W 9486  38.476  41.922   4.744
44326W        W 9487  40.869   3.858  14.428
44327W        W 9488  30.610   0.519  11.533
44328W        W 9489  13.814   4.953  13.805
44329W        W 9490   6.117  29.930  12.574
44330W        W 9491  28.342  33.558  14.360
44331W        W 9492  13.268  34.921   4.879
44332W        W 9493  29.940  34.885   0.416
44333W        W 9494  22.827  22.694   4.187
44334W        W 9495  44.360  16.493   1.174
44335W        W 9496  13.614  16.703  11.641
44336W        W 9497   0.795  17.318   2.644
44337W        W 9498  37.530   5.376   0.585
44338W        W 9499  12.494   8.107   1.948
44339W        W 9500  18.094  37.913  14.921
44340W        W 9501  42.429  25.253   1.285
44341W        W 9502  19.750  44.646  11.790
44342W        W 9503  28.849  34.602   1.813
44343W        W 9504   7.235  43.182  13.556
44344W        W 9505  18.097  30.458  14.829
44345W        W 9506  13.597  15.711   3.343
44346W        W 9507   6.071  37.006  11.466
44347W        W 9508  13.846  42.310  14.999
44348W        W 9509  38.844   6.428  10.647
44349W        W 9510   5.232  36.572   4.597
44350W        W 9511  42.231  25.611  11.068
44351W        W 9512   8.267  25.201   4.110
44352W        W 9513  28.665  16.560   0.382
44353W        W 9514  37.959   6.977  13.051
44354W        W 9515  32.746  23.469   2.411
44355W        W 9516  32.510  33.994   2.182
44356W        W 9517  30.469  12.124  14.881
44357W        W 9518   0.207  29.819  13.326
44358W        W 9519   8.393  42.453  12.899
44359W        W 9520  35.559  35.907   4.480
44360W        W 9521  32.059  19.789   3.603
44361W        W 9522  16.680   1.323   0.927
44362W        W 9523  10.850  33.055   1.684
44363W        W 9524  24.447  31.911  14.080
44364W        W 9525  28.236   3.324  10.998
44365W        W 9526  30.721  25.062   2.078
44366W        W 9527  40.423  18.642   4.512
44367W        W 9528  19.287  26.098   2.282
44368W        W 9529  11.298  26.166  13.859
44369W        W 9530  14.333  15.495  12.615
44370W        W 9531  31.972   7.730   3.636
44371W        W 9532   6.777   2.177  11.628
44372W        W 9533  44.132  29.781   5.048
44373W        W 9534  22.203   4.294   2.227
44374W        W 9535  25.141  26.008   4.569
44375W        W 9536  11.724  16.871   1.913
44376W        W 9537  38.676  20.497  14.853
44377W        W 9538  41.953  39.555   2.220
44378W        W 9539  12.033  18.038  12.388
44379W        W 9540  36.082   8.312  14.827
44380W        W 9541  23.945  10.270  13.851
44381W        W 9542   7.836  30.542  12.785
44382W        W 9543   8.648   1.331   1.182
44383W        W 9544   3.112   9.885  10.696
44384W        W 9545  41.614  26.974  10.872
44385W        W 9546   8.184  11.350  12.912
44386W        W 9547  20.809  33.961  11.202
44387W        W 9548   8.392  10.884   4.035
44388W        W 9549  44.667   0.570   4.135
44389W        W 9550  11.103  37.049   1.346
44390W        W 9551  13.943  21.157   2.322
44391W        W 9552   7.823   0.989   2.704
44392W        W 9553   9.404  42.413   2.158
44393W        W 9554  28.162  28.816   2.921
44394W        W 9555   3.008  42.769  10.761
44395W        W 9556  37.740  38.059   3.351
44396W        W 9557  15.784  38.204  14.100
44397W        W 9558  12.397   4.836  14.289
44398W        W 9559  26.177  43.103  13.611
44399W        W 9560  26.144  30.775   2.514
44400W        W 9561  26.436   0.720   0.339
44401W        W 9562  15.603  12.367  13.402
44402W        W 9563  44.137  27.931   3.640
44403W        W 9564  40.864  24.545  13.020
44404W        W 9565  37.797  10.423   0.012
44405W        W 9566  42.025  39.403  13.568
44406W        W 9567  13.887  42.228   2.331
44407W        W 9568  32.110  31.448  11.663
44408W        W 9569  19.640  38.119   2.784
44409W        W 9570  35.581  26.980   0.032
44410W        W 9571   5.413  23.011   4.623
44411W        W 9572   1.576  17.155  10.725
44412W        W 9573  10.402  33.928  14.418
44413W        W 9574   5.213  36.885  14.125
44414W        W 9575  27.641  12.333   0.426
44415W        W 9576  18.529  38.984  13.869
44416W        W 9577   6.985  32.190   2.242
44417W        W 9578   2.409  26.947   3.685
44418W        W 9579  34.979  38.380   1.814
44419W        W 9580  38.764  37.243   3.899
44420W        W 9581  18.237   1.997  12.650
44421W        W 9582  32.406  20.988   2.687
44422W        W 9583  26.023   9.238   3.154
44423W        W 9584  37.344  39.923   4.250
44424W        W 9585  16.584  35.258   0.277
44425W        W 9586  27.365  30.587  14.918
44426W        W 9587   7.510  13.613   4.013
44427W        W 9588  11.616  24.071  11.741
44428W        W 9589   1.935   3.863  13.941
44429W        W 9590  17.115  18.835  13.339
44430W        W 9591  12.721  16.846   1.013
44431W        W 9592   4.177  30.515  13.889
44432W        W 9593  10.859  34.694  14.753
44433W        W 9594  35.886  44.920   0.244
44434W        W 9595  35.290  26.562  14.902
44435W        W 9596  31.983  29.810  10.444
44436W        W 9597  29.756   2.309  11.203
44437W        W 9598  12.176  38.589   1.695
44438W        W 9599  16.252  21.998  11.572
44439W        W 9600  30.645  12.684   4.028
44440W        W 9601   0.088  17.712   0.904
44441W        W 9602  41.411   4.896  10.695
44442W        W 9603  21.005   2.061   3.893
44443W        W 9604  33.429   5.856  11.960
44444W        W 9605  19.571  40.422   0.926
44445W        W 9606  13.267  43.144   4.192
44446W        W 9607  30.911  22.085  13.981
44447W        W 9608  34.389  38.471   3.501
44448W        W 9609  12.832  25.453  14.373
44449W        W 9610  22.667  29.973  13.989
44450W        W 9611  31.421  30.357   1.728
44451W        W 9612  43.478   4.168   3.637
44452W        W 9613  17.799  18.556  11.582
44453W        W 9614  36.836  26.500   2.820
44454W        W 9615  10.137  38.440  11.031
44455W        W 9616  34.935  36.272   3.695
44456W        W 9617  38.656  37.151   4.392
44457W        W 9618  23.221  37.625  12.443
44458W        W 9619  29.448   6.097   3.922
44459W        W 9620   0.806   0.937  10.508
44460W        W 9621  36.856  32.210   0.704
44461W        W 9622  25.270  41.944  14.484
44462W        W 9623  38.965  10.421  14.283
44463W        W 9624  27.700  29.946   3.367
44464W        W 9625   8.119  22.932   4.566
44465W        W 9626  24.444  32.762   0.379
44466W        W 9627  22.167  43.793   0.433
44467W        W 9628   4.568   6.224  13.466
44468W        W 9629  29.153   5.206   1.791
44469W        W 9630  19.319  30.103   1.456
44470W        W 9631  34.318   9.460  11.111
44471W        W 9632  43.923   1.506  14.936
44472W        W 9633  27.190  26.160   1.154
44473W        W 9634   4.736  24.171   2.508
44474W        W 9635  26.146   3.246  13.010
44475W        W 9636   4.397  38.157  12.889
44476W        W 9637   4.338  18.194  14.855
44477W        W 9638  42.103  35.372  12.803
44478W        W 9639   9.149   4.588   4.503
44479W        W 9640  15.810  19.303  13.121
44480W        W 9641  44.417  36.840  14.011
44481W        W 9642  22.246  28.947   2.030
44482W        W 9643  15.468  24.881  11.019
44483W        W 9644   8.541  22.658   4.491
44484W        W 9645  23.968  32.585  10.692
44485W        W 9646   4.512  25.091   2.193
44486W        W 9647   4.256  34.138  13.892
44487W        W 9648   3.980  32.694  12.431
44488W        W 9649  23.741  29.683   3.660
44489W        W 9650  14.151  37.261   2.661
44490W        W 9651  13.609   8.372   1.774
44491W        W 9652  24.176  27.609  11.479
44492W        W 9653  42.258  37.993   4.742
44493W        W 9654  22.931  21.607   2.829
44494W        W 9655  24.644  43.456   2.655
44495W        W 9656   1.696  41.612  10.524
44496W        W 9657  36.536  33.459  13.847
44497W        W 9658  36.168  16.513   2.687
44498W        W 9659  17.480  31.516   2.418
44499W        W 9660  19.639  23.001  13.317
44500W        W 9661  32.032  35.334   4.229
44501W        W 9662  30.377   4.969   3.559
44502W        W 9663  32.314  41.838  13.082
44503W        W 9664  10.690  16.872  13.070
44504W        W 9665   7.600  21.470  11.067
44505W        W 9666  24.792  40.356  13.253
44506W        W 9667  39.660  18.007   0.453
44507W        W 9668  37.318   1.398   3.431
44508W        W 9669  40.356  32.671   3.278
44509W        W 9670   6.200  27.136   2.077
44510W        W 9671  13.070  10.249   2.300
44511W        W 9672   9.772  44.942  12.225
44512W        W 9673  44.660  31.049  10.655
44513W        W 9674  32.922  30.030   3.632
44514W        W 9675  24.521   7.931  13.405
44515W        W 9676  24.621  33.741  11.013
44516W        W 9677   2.436   4.187   0.482
44517W        W 9678   2.646  30.103  12.159
44518W        W 9679  15.676  22.963   4.539
44519W        W 9680  28.959  21.149  11.642
44520W        W 9681  15.753  42.307   1.488
44521W        W 9682  21.281   3.851   3.634
44522W        W 9683  16.251  12.638   1.820
44523W        W 9684  38.469   0.628  10.775
44524W        W 9685  17.997  29.202   2.744
44525W        W 9686  26.157  15.960   2.321
44526W        W 9687  17.719  11.817  12.363
44527W        W 9688   0.809   0.035   1.320
44528W        W 9689  11.807   0.731  13.935
44529W        W 9690  37.098  33.120   2.298
44530W        W 9691  21.003  30.937  11.094
44531W        W 9692  25.729  25.408   2.029
44532W        W 9693   1.243   2.865   4.493
44533W        W 9694   5.652  14.330  13.906
44534W        W 9695  40.818  15.536   2.429
44535W        W 9696  25.994  19.763   2.676
44536W        W 9697  43.927  36.000   2.845
44537W        W 9698  42.373   4.895  14.270
44538W        W 9699  32.691  10.686  11.119
44539W        W 9700  41.598  35.334  11.568
44540W        W 9701   8.548  15.612   2.091
44541W        W 9702   2.700   1.662   3.974
44542W        W 9703   2.895  22.288   1.768
44543W        W 9704   8.495  40.140  12.358
44544W        W 9705  33.630  40.600   4.900
44545W        W 9706  43.833   7.172   4.679
44546W        W 9707   3.661  24.320  12.058
44547W        W 9708  21.629  23.424  12.341
44548W        W 9709   7.464   6.661   2.862
44549W        W 9710  22.198  39.781  10.432
44550W        W 9711  35.467   4.321   2.105
44551W        W 9712  35.406   2.819   3.318
44552W        W 9713  24.259  43.884   1.257
44553W        W 9714  36.916  10.608   2.291
44554W        W 9715  24.237  29.666   4.240
44555W        W 9716  34.005   8.259   0.067
44556W        W 9717   4.715  28.038   2.310
44557W        W 9718  12.654  31.051  14.254
44558W        W 9719  44.261  12.552  13.376
44559W        W 9720   7.951  36.278  11.011
44560W        W 9721  30.552   1.539  10.828
44561W        W 9722  31.492  27.093  14.355
44562W        W 9723   1.384  24.003   2.266
44563W        W 9724  25.742  19.306  14.419
44564W        W 9725   7.867  35.866   3.701
44565W        W 9726  10.744  24.631  10.938
44566W        W 9727  26.476  32.892  11.455
44567W        W 9728   8.897  40.300  13.681
44568W        W 9729   9.670  43.747   0.274
44569W        W 9730  27.386  44.791  11.039
44570W        W 9731  43.879  14.392  14.711
44571W        W 9732  32.076   7.276   0.887
44572W        W 9733  28.480  16.682  13.537
44573W        W 9734  10.301  10.790  14.343
44574W        W 9735  42.067  23.751  13.031
44575W        W 9736  44.758  20.340  12.133
44576W        W 9737   9.279  11.881   1.838
44577W        W 9738  32.534  27.282   4.065
44578W        W 9739  35.512  35.888  11.560
44579W        W 9740  42.233  19.336   1.855
44580W        W 9741  19.613  26.434  11.164
44581W        W 9742  23.616  15.425   2.177
44582W        W 9743  26.602  12.042  12.374
44583W        W 9744  20.041  21.121  13.732
44584W        W 9745  23.527  40.070   2.693
44585W        W 9746  28.138   2.962   3.611
44586W        W 9747  13.352  22.543  14.239
44587W        W 9748  25.421  23.036   3.608
44588W        W 9749  19.050  34.967   2.906
44589W        W 9750   2.293  24.060  14.103
44590W        W 9751  11.201   2.554   0.920
44591W        W 9752  36.000  38.867  11.879
44592W        W 9753  26.418   8.625  13.888
44593W        W 9754  21.675  42.225  11.499
44594W        W 9755  29.413  15.206  13.088
44595W        W 9756  20.598   1.788   4.167
44596W        W 9757   8.310  22.955   3.231
44597W        W 9758  15.338   2.046  14.317
44598W        W 9759  34.052  32.017   1.789
44599W        W 9760   7.671   0.979   4.929
44600W        W 9761  27.496  19.476   4.963
44601W        W 9762  38.474  42.808   1.791
44602W        W 9763  25.726  43.420  13.072
44603W        W 9764  23.737  14.192  12.438
44604W        W 9765  21.649  10.285  13.357
44605W        W 9766  12.079   8.994  11.176
44606W        W 9767  19.297  36.846   0.663
44607W        W 9768  18.145   6.778  12.524
44608W        W 9769  38.027  34.853  14.868
44609W        W 9770  30.895  35.499   1.671
44610W        W 9771  10.159  19.874  12.011
44611W        W 9772  22.721   2.216  14.405
44612W        W 9773   4.723  13.261   1.577
44613W        W 9774  12.322  40.432   2.693
44614W        W 9775  20.151  42.340   2.770
44615W        W 9776  23.488  29.750  14.298
44616W        W 9777  14.621  15.441   1.327
44617W        W 9778  26.241  26.234   2.819
44618W        W 9779  41.572  24.565  11.618
44619W        W 9780  10.099   3.141   2.643
44620W        W 9781  44.840  16.571   0.500
44621W        W 9782  16.515  11.280   4.439
44622W        W 9783  23.811  17.581  11.703
44623W        W 9784   3.727  14.488   0.407
44624W        W 9785  31.777  18.256  10.843
44625W        W 9786   1.305  19.553   4.531
44626W        W 9787  10.517  12.651   9.799
44627W        W 9788  43.954  21.606  14.444
44628W        W 9789  30.777   4.178  13.471
44629W        W 9790  23.580   6.203   0.321
44630W        W 9791  11.632  27.440   3.915
44631W        W 9792  18.617  17.054   1.751
44632W        W 9793  39.858  30.508   4.668
44633W        W 9794   0.269  26.179   3.090
44634W        W 9795  21.811  31.951   3.303
44635W        W 9796  28.210  24.745  14.286
44636W        W 9797   3.450  44.761   3.283
44637W        W 9798  31.288   4.751  11.702
44638W        W 9799  16.226  12.647  13.489
44639W        W 9800   5.796  20.263  14.053
44640W        W 9801  34.791  33.926   0.489
44641W        W 9802  19.606  17.555   1.500
44642W        W 9803  30.958  16.199  11.998
44643W        W 9804  20.003  29.397   1.290
44644W        W 9805   7.901  16.695  13.576
44645W        W 9806  32.378  10.765  14.407
44646W        W 9807   1.678   1.286  13.480
44647W        W 9808  14.595  14.207   1.457
44648W        W 9809   0.439  25.759   4.226
44649W        W 9810   7.887  39.449   2.694
44650W        W 9811  16.457  25.248  14.995
44651W        W 9812  38.464  13.124  12.864
44652W        W 9813  23.700   8.424   2.208
44653W        W 9814  31.847  25.615   0.388
44654W        W 9815  22.637  18.477   2.187
44655W        W 9816  40.843   0.029   2.359
44656W        W 9817  30.668  42.372   0.278
44657W        W 9818  33.168  42.191  14.508
44658W        W 9819  42.290   7.804   4.658
44659W        W 9820  20.285  37.577   1.489
44660W        W 9821  36.875   3.340   4.786
44661W        W 9822  30.560  39.364   2.426
44662W        W 9823  17.644  35.679   3.810
44663W        W 9824   7.134   1.437  12.029
44664W        W 9825  22.669  15.677  14.423
44665W        W 9826  14.802  26.626  11.654
44666W        W 9827  30.479  13.599  14.945
44667W        W 9828  23.938  43.457   1.323
44668W        W 9829  23.058  10.129  10.775
44669W        W 9830  39.812  44.186   3.440
44670W        W 9831  33.458  20.021  14.637
44671W        W 9832  33.509  24.306  10.789
44672W        W 9833  42.568  32.556   1.341
44673W        W 9834  19.109  34.001   0.003
44674W        W 9835  30.838  39.925   1.790
44675W        W 9836  19.921  11.013   4.618
44676W        W 9837  44.764  38.157   1.539
44677W        W 9838  29.861  20.820   0.503
44678W        W 9839   3.218  23.169  14.818
44679W        W 9840  15.130  22.542  13.807
44680W        W 9841  44.013  16.035  12.374
44681W        W 9842   3.715  12.124   3.325
44682W        W 9843   3.371  31.855   2.773
44683W        W 9844  33.133  17.766  11.592
44684W        W 9845   3.601  24.394  12.781
44685W        W 9846   1.327  23.957   0.494
44686W        W 9847   6.369  24.294   1.922
44687W        W 9848  38.322  43.422   4.859
44688W        W 9849  30.385  12.768  13.562
44689W        W 9850   3.374  18.045  13.892
44690W        W 9851  43.510  20.813  12.581
44691W        W 9852   0.224  34.157  13.249
44692W        W 9853   0.850  25.704  13.459
44693W        W 9854  20.142  30.882   1.279
44694W        W 9855  39.328   7.744  11.171
44695W        W 9856  15.137  34.525   1.436
44696W        W 9857  25.993  39.982   2.402
44697W        W 9858  43.505  23.504  12.595
44698W        W 9859  19.225  41.775   2.624
44699W        W 9860   7.373  34.980   3.277
44700W        W 9861  20.587   2.313   4.178
44701W        W 9862  24.719  35.945  14.994
44702W        W 9863  33.804  32.194   3.630
44703W        W 9864  10.182  33.561  11.707
44704W        W 9865  21.572  33.512   0.550
44705W        W 9866  11.679   1.839  11.475
44706W        W 9867  10.243  24.522   0.322
44707W        W 9868  32.261  24.478   3.232
44708W        W 9869   1.676  32.482  11.072
44709W        W 9870  15.006  21.061   4.085
44710W        W 9871  20.535  21.692  13.327
44711W        W 9872  22.300  26.010   2.244
44712W        W 9873  10.992  19.060  12.023
44713W        W 9874  17.047  25.557   3.692
44714W        W 9875  31.957  17.554   4.196
44715W        W 9876   4.883  37.858   1.805
44716W        W 9877  13.378  27.689  13.423
44717W        W 9878  26.835  20.947   0.035
44718W        W 9879   7.388  22.113   0.441
44719W        W 9880  23.809   1.604  13.740
44720W        W 9881  10.379  40.492   2.865
44721W        W 9882  29.316   4.970  12.684
44722W        W 9883  21.024  32.590   3.137
44723W        W 9884  40.885  15.611   0.990
44724W        W 9885  40.433  18.981  13.998
44725W        W 9886  21.452  38.567  13.542
44726W        W 9887  11.840  38.518   2.367
44727W        W 9888  11.706  28.974   0.990
44728W        W 9889  23.612  14.498  12.004
44729W        W 9890  24.595  13.050   4.965
44730W        W 9891  12.148  36.032   2.321
44731W        W 9892   8.652  13.494   1.940
44732W        W 9893  19.829  36.848  13.455
44733W        W 9894  19.004   1.178  12.267
44734W        W 9895   5.434  29.810   3.163
44735W        W 9896  22.762  39.448   4.282
44736W        W 9897  11.934  16.279   2.766
44737W        W 9898   0.432   2.208   3.833
44738W        W 9899   1.392  41.339   3.336
44739W        W 9900  18.286  24.703  11.713
44740W        W 9901  43.879  39.075  12.918
44741W        W 9902   9.614  39.013   0.243
44742W        W 9903  25.899  21.665   2.298
44743W        W 9904  40.798  14.626  13.132
44744W        W 9905  29.194   1.898   2.294
44745W        W 9906  34.110   4.473  12.447
44746W        W 9907  30.359  43.998  11.068
44747W        W 9908   8.300  21.133   1.266
44748W        W 9909   7.331  30.500   3.612
44749W        W 9910  27.080  33.530   4.394
44750W        W 9911   8.872  38.005  12.140
44751W        W 9912  37.522   9.300  12.043
44752W        W 9913  28.945   9.094  13.892
44753W        W 9914  11.828  12.464   5.087
44754W        W 9915  44.785  27.704  12.757
44755W        W 9916  42.901   9.811   3.114
44756W        W 9917  24.102   2.876  13.302
44757W        W 9918  25.025   1.450   4.537
44758W        W 9919   8.800  18.791   1.513
44759W        W 9920  15.493  15.956   2.273
44760W        W 9921   9.376   1.177   3.743
44761W        W 9922  16.453   5.150  13.030
44762W        W 9923  17.068  12.059   2.279
44763W        W 9924   5.017   7.809  11.089
44764W        W 9925  12.726  37.010   4.199
44765W        W 9926  11.836  14.164   1.940
44766W        W 9927  32.975  43.910   1.543
44767W        W 9928  41.379  12.645   0.536
44768W        W 9929  10.121  11.224   4.489
44769W        W 9930   2.455  31.169  12.113
44770W        W 9931  24.649  20.510  13.861
44771W        W 9932   4.715  32.134   3.681
44772W        W 9933  26.847  25.873   4.658
44773W        W 9934   3.409  36.828   2.195
44774W        W 9935  14.087  42.682   9.901
44775W        W 9936   2.159  39.487  12.449
44776W        W 9937  14.136   0.202   0.704
44777W        W 9938  37.840  23.402  12.521
44778W        W 9939  34.960  13.965   1.458
44779W        W 9940  39.461   1.149   1.851
44780W        W 9941  22.684  34.224   3.693
44781W        W 9942  13.923  28.004   3.721
44782W        W 9943  18.444   5.923   1.400
44783W        W 9944  27.470  17.919  14.875
44784W        W 9945   1.472  43.027   3.112
44785W        W 9946   6.639  16.286  13.260
44786W        W 9947  18.070  42.998   1.972
44787W        W 9948  31.880  21.938  11.409
44788W        W 9949   5.800  21.547  13.456
44789W        W 9950   5.437   6.555   0.270
44790W        W 9951  29.946  17.215   2.936
44791W        W 9952   5.943  18.958   0.318
44792W        W 9953  27.603  27.178  14.960
44793W        W 9954  40.385  37.115   3.682
44794W        W 9955  22.188  33.066   2.594
44795W        W 9956   5.803  13.103   0.808
44796W        W 9957  40.956   0.884  11.581
44797W        W 9958   7.591  25.411   2.801
44798W        W 9959  26.121  13.782  14.163
44799W        W 9960  31.592  14.944  13.441
44800W        W 9961  20.763  42.852   2.640
44801W        W 9962  18.585  35.628   4.354
44802W        W 9963  14.693  26.187  12.040
44803W        W 9964  19.655  19.544   4.290
44804W        W 9965   0.874  41.995   4.777
44805W        W 9966  33.121  32.547  10.490
44806W        W 9967   4.812  33.895  11.505
44807W        W 9968  32.323  43.555  13.046
44808W        W 9969   1.739  29.128  12.943
44809W        W 9970  43.879  28.350   3.752
44810W        W 9971   6.745  37.986   3.290
44811W        W 9972  27.498   5.122   0.751
44812W        W 9973  23.469  42.760   0.939
44813W        W 9974  39.378  28.641   0.172
44814W        W 9975  22.999  42.931   1.112
44815W        W 9976  43.570   0.997  13.877
44816W        W 9977  35.024  38.516  12.588
44817W        W 9978   5.061  15.574  14.409
44818W        W 9979   8.786  33.495  11.902
44819W        W 9980  20.693  39.612  13.601
44820W        W 9981   3.966  43.506   2.440
44821W        W 9982  24.503  43.767   3.585
44822W        W 9983  29.108  27.552   3.471
44823W        W 9984   7.261  13.333  11.720
44824W        W 9985  15.634  19.137   0.314
44825W        W 9986   5.523  18.970  13.299
44826W        W 9987  32.039  17.123   1.839
44827W        W 9988   7.868  34.848  10.926
44828W        W 9989  31.926  25.202   4.469
44829W        W 9990   8.722   3.762   1.672
44830W        W 9991   1.713   1.071   3.576
44831W        W 9992   5.675   4.438   0.639
44832W        W 9993  31.543  34.393  10.446
44833W        W 9994   2.410  34.368   1.467
44834W        W 9995  22.785  10.744  13.095
44835W        W 9996  24.025  16.709  13.806
44836W        W 9997   1.428  32.147  14.333
44837W        W 9998  12.608  31.958   0.296
44838W        W 9999  10.780  15.846  11.610
44839W        W10000  11.469  23.013   1.304
44840W        W10001  31.856  30.517   4.247
44841W        W10002  40.383   1.273  14.958
44842W        W10003  30.055   8.829   0.312
44843W        W10004  27.961  19.896   2.195
44844W        W10005  33.194  37.826   9.907
44845W        W10006  14.011   5.393  14.025
44846W        W10007  37.429  14.682  14.881
44847W        W10008  22.246  42.556   1.829
44848W        W10009  43.364  25.418   1.435
44849W        W10010  25.980  44.377   3.404
44850W        W10011  26.003  41.404   2.268
44851W        W10012  15.331   8.414   3.703
44852W        W10013  16.322  41.525   1.171
44853W        W10014   4.732   1.467   1.255
44854W        W10015  10.912  20.374   3.634
44855W        W10016  44.154   6.682   2.304
44856W        W10017   5.536  17.721  12.135
44857W        W10018  25.389  21.003  11.181
44858W        W10019  41.534   8.344   3.659
44859W        W10020  43.448   7.434   2.973
44860W        W10021   5.670  18.122  12.528
44861W        W10022  33.019  21.283   4.292
44862W        W10023  31.569  15.202   3.700
44863W        W10024   4.636  13.165  11.072
44864W        W10025   8.825   0.901   0.952
44865W        W10026   6.287   9.754   4.639
44866W        W10027  37.437  22.219  12.971
44867W        W10028  33.274  35.013  12.030
44868W        W10029  26.250  23.600  14.841
44869W        W10030  36.070  32.365  11.188
44870W        W10031  42.803   9.896   0.269
44871W        W10032  15.561  34.332  13.348
44872W        W10033  44.461  19.154   1.359
44873W        W10034   8.246   0.456   2.193
44874W        W10035  36.330  12.611  13.760
44875W        W10036  32.428   4.459   0.412
44876W        W10037   9.219  44.769   0.697
44877W        W10038   5.851  30.551  13.082
44878W        W10039  29.435  40.568   2.802
44879W        W10040  20.685  12.564   2.825
44880W        W10041  11.824  43.031   3.219
44881W        W10042  41.314  23.501   2.178
44882W        W10043  26.453  28.088   0.813
44883W        W10044  30.863  40.346  13.962
44884W        W10045   3.890  42.784  13.400
44885W        W10046  35.208   5.340  12.657
44886W        W10047   4.575  34.491   2.462
44887W        W10048   5.212  40.836  14.548
44888W        W10049   8.922  33.054   1.416
44889W        W10050  37.632  18.284  13.001
44890W        W10051  18.857  15.640   3.619
44891W        W10052  30.918  40.296   4.596
44892W        W10053   8.204  37.846   0.306
44893W        W10054   5.733  36.367   3.327
44894W        W10055   3.644  33.428   2.164
44895W        W10056  31.047   0.519  13.744
44896W        W10057  35.135   8.422  14.556
44897W        W10058  16.194   8.614  13.470
44898W        W10059  16.150  27.082   1.934
44899W        W10060  41.894  24.899   0.648
44900W        W10061  39.192  17.121   0.177
44901W        W10062  44.508  28.093   2.320
44902W        W10063  24.085   3.421   2.169
44903W        W10064  33.101  24.931  13.439
44904W        W10065  30.938  22.284   0.934
44905W        W10066   1.195  31.119   2.732
44906W        W10067  43.252  24.249  14.249
44907W        W10068  13.856   0.280   3.406
44908W        W10069   2.624  32.487  11.101
44909W        W10070  13.790  40.038   4.730
44910W        W10071   4.226  34.591   0.353
44911W        W10072  40.950   2.929  14.394
44912W        W10073   1.365  29.981   3.250
44913W        W10074  25.496   8.456   3.191
44914W        W10075  28.503  40.538   3.730
44915W        W10076  39.485   6.750  14.127
44916W        W10077  25.364   9.256   5.080
44917W        W10078   4.134  20.307  11.191
44918W        W10079  16.088  23.363   4.416
44919W        W10080  13.855  17.569  11.137
44920W        W10081  21.142   4.371  10.655
44921W        W10082  34.732  22.121   2.841
44922W        W10083  19.900  14.321   4.136
44923W        W10084  30.300   2.958   4.652
44924W        W10085  36.681  18.739  11.431
44925W        W10086  15.594   6.791   0.658
44926W        W10087  27.103  24.410  12.973
44927W        W10088  16.383  21.998   3.079
44928W        W10089   9.952  36.454  11.627
44929W        W10090  16.185  42.052   4.686
44930W        W10091  21.767  27.764   2.398
44931W        W10092  11.375  39.489   1.306
44932W        W10093  28.407  22.274  11.619
44933W        W10094  11.747  23.547   1.411
44934W        W10095  26.708  22.587   3.797
44935W        W10096  25.739  14.822  12.554
44936W        W10097  12.337  15.424  11.548
44937W        W10098  33.766   4.809   3.314
44938W        W10099  39.908  41.100   3.405
44939W        W10100  29.437   9.528   1.804
44940W        W10101  16.345  23.776   2.744
44941W        W10102   2.479  18.550  14.468
44942W        W10103   6.301  35.840   2.622
44943W        W10104  43.452  16.091   2.823
44944W        W10105  25.922  10.524  14.874
44945W        W10106  15.443  21.283  14.302
44946W        W10107  14.872  10.378   0.762
44947W        W10108  34.349  28.669   4.121
44948W        W10109   6.935  17.614  14.809
44949W        W10110  14.721  13.587   3.566
44950W        W10111  37.516  20.757  14.343
44951W        W10112  24.647  29.023  11.376
44952W        W10113  36.344  33.664  11.018
44953W        W10114  44.210  18.054   2.305
44954W        W10115  28.141  26.657  12.245
44955W        W10116  40.044  40.978   2.424
44956W        W10117  43.227  43.866   1.794
44957W        W10118  22.634  23.484   1.953
44958W        W10119  37.079  26.631  14.447
44959W        W10120  29.445   3.682  12.159
44960W        W10121  33.665  15.459  12.528
44961W        W10122  27.430  42.263   1.713
44962W        W10123   9.758  21.693   0.326
44963W        W10124  36.402  10.288  12.850
44964W        W10125  14.745  21.309   3.694
44965W        W10126  44.894  43.013  10.845
44966W        W10127  27.505  35.112  10.827
44967W        W10128  24.074   5.184   3.137
44968W        W10129  38.052   0.024   4.512
44969W        W10130  16.028   5.424  11.142
44970W        W10131  44.488  31.064  14.347
44971W        W10132  41.648  38.618   4.116
44972W        W10133  14.179  13.217   4.777
44973W        W10134  41.498  24.597  13.518
44974W        W10135  32.201  24.257  11.085
44975W        W10136  25.413  35.381  11.597
44976W        W10137  14.649  41.509  14.499
44977W        W10138   3.582  37.764  13.743
44978W        W10139  17.819   1.395   0.037
44979W        W10140  43.764  26.457  13.837
44980W        W10141   4.471  33.986  12.532
44981W        W10142  17.012  29.678   4.554
44982W        W10143   4.799  10.356  14.455
44983W        W10144  44.046  40.477  14.284
44984W        W10145  20.840  42.481  14.721
44985W        W10146  10.589  14.927  13.252
44986W        W10147  35.705   5.250   1.882
44987W        W10148  20.136  43.486   4.914
44988W        W10149   8.470  14.304  12.936
44989W        W10150  12.095  26.687   4.499
44990W        W10151  30.724  35.477  10.795
44991W        W10152  40.382  39.969  14.972
44992W        W10153  26.697  44.271   3.803
44993W        W10154  28.957   3.657  11.972
44994W        W10155  10.221  28.394  14.404
44995W        W10156  11.165  38.413   1.721
44996W        W10157  23.648  29.613   1.670
44997W        W10158  10.666   8.357  13.394
44998W        W10159  22.520  44.936  12.917
44999W        W10160  32.597  40.191   4.803
45000W        W10161  33.525  39.654  11.331
45001W        W10162  32.144   2.433   0.413
45002W        W10163  34.058  31.476  13.791
45003W        W10164  19.479  11.328   3.180
45004W        W10165   7.538  42.559  14.717
45005W        W10166  40.288  40.303   4.114
45006W        W10167  15.789  21.203  10.488
45007W        W10168  21.742   2.276  12.014
45008W        W10169  35.427  31.191   1.477
45009W        W10170   1.752  10.047  14.169
45010W        W10171  26.004  36.573   3.314
45011W        W10172  24.876  15.164  10.950
45012W        W10173  31.005  33.492   1.485
45013W        W10174  25.588  37.471   3.384
45014W        W10175  37.593  14.415  11.663
45015W        W10176  38.112  29.179   2.931
45016W        W10177  26.678   8.130  12.083
45017W        W10178  20.348  22.617  10.573
45018W        W10179  23.047   1.699  11.077
45019W        W10180  24.091  27.435   1.650
45020W        W10181  10.735  15.964  11.091
45021W        W10182  35.634  20.149  14.116
45022W        W10183  39.164  29.017  11.565
45023W        W10184  12.748  41.864  13.709
45024W        W10185   6.291   2.860   3.918
45025W        W10186  31.613   0.534   2.071
45026W        W10187   1.620   2.727   4.131
45027W        W10188  18.436  41.020   5.510
45028W        W10189  27.612  33.118   3.245
45029W        W10190  36.062  25.488  14.032
45030W        W10191  36.642  17.031  10.333
45031W        W10192  42.709  11.159   0.913
45032W        W10193   8.241   5.941  10.614
45033W        W10194  19.028  31.091  10.771
45034W        W10195  38.163  37.122   3.665
45035W        W10196  33.086  15.694   0.927
45036W        W10197  25.750  14.173  13.991
45037W        W10198  20.691  13.049   2.301
45038W        W10199  34.331  38.928  12.188
45039W        W10200  24.381   7.063   3.129
45040W        W10201   2.458  22.941  11.465
45041W        W10202  30.925  22.005   3.595
45042W        W10203  42.433   7.185  14.873
45043W        W10204  44.483   2.248   0.408
45044W        W10205  20.861  40.472   5.146
45045W        W10206   0.866   6.278   0.815
45046W        W10207   7.654  37.849   1.182
45047W        W10208   5.931  30.561  13.598
45048W        W10209  16.377  43.555  10.668
45049W        W10210  37.762  13.928  12.459
45050W        W10211   6.598  30.849   3.337
45051W        W10212  29.974  27.141  14.903
45052W        W10213  44.339  34.948   2.361
45053W        W10214  41.577   8.198  10.849
45054W        W10215   2.431  11.119   0.333
45055W        W10216  24.885  40.205   1.536
45056W        W10217   0.420   7.238   0.087
45057W        W10218  30.032  18.998   4.714
45058W        W10219  33.830  44.447   4.350
45059W        W10220   7.930  16.533   0.538
45060W        W10221  37.078  13.267   2.749
45061W        W10222  27.656  40.103  14.987
45062W        W10223  26.275  22.961  12.611
45063W        W10224  10.703  43.049   2.248
45064W        W10225  22.779   6.489   2.361
45065W        W10226  32.049  17.800   3.740
45066W        W10227   1.703  31.097   3.222
45067W        W10228  13.621  44.457   0.500
45068W        W10229  18.927  31.178   0.826
45069W        W10230  37.774  43.389   1.850
45070W        W10231  35.011   3.661   1.885
45071W        W10232   7.818  22.007   4.143
45072W        W10233  40.842  19.592  13.273
45073W        W10234   0.803  27.005   4.591
45074W        W10235   0.439  20.091   0.004
45075W        W10236   8.045  21.626  11.978
45076W        W10237   1.975  26.671   3.635
45077W        W10238  18.912  33.525   4.213
45078W        W10239  39.980  27.953  10.537
45079W        W10240  17.779  38.936   2.303
45080W        W10241   1.720  11.739  12.980
45081W        W10242  44.338  24.240  10.520
45082W        W10243  43.923   1.529  10.626
45083W        W10244  26.139  40.409   4.218
45084W        W10245   7.928  17.259   5.041
45085W        W10246  16.657   2.058  13.076
45086W        W10247   8.552  23.303   1.667
45087W        W10248  42.354  10.190   1.203
45088W        W10249  39.583  39.484   0.851
45089W        W10250  19.277  28.948  12.406
45090W        W10251  18.930  19.216  10.713
45091W        W10252  32.910  10.792   3.317
45092W        W10253  31.121  14.535  11.070
45093W        W10254  32.179  17.505   2.854
45094W        W10255  14.638  13.822  12.081
45095W        W10256   8.842   2.478   1.241
45096W        W10257   8.779  15.415   4.300
45097W        W10258  37.940   7.379   0.420
45098W        W10259  20.113   0.277   1.610
45099W        W10260   5.451  26.493   0.386
45100W        W10261  18.048  44.841   2.808
45101W        W10262  27.548  33.439   4.072
45102W        W10263  19.999  39.537   1.359
45103W        W10264  27.702  15.605  14.698
45104W        W10265  13.979  17.686  13.609
45105W        W10266  28.576  35.914  14.429
45106W        W10267  39.944  10.120   2.334
45107W        W10268  30.049  35.497  12.606
45108W        W10269  11.303  27.990   1.649
45109W        W10270  43.751  10.540   4.139
45110W        W10271  42.787  15.120  10.681
45111W        W10272   2.985   3.876   2.172
45112W        W10273  29.042   6.237   2.171
45113W        W10274   8.324  41.519   0.346
45114W        W10275   4.751  40.731  13.303
45115W        W10276   7.908  24.172   3.177
45116W        W10277  14.748  20.804  10.949
45117W        W10278  23.048  21.331  12.977
45118W        W10279  37.709   0.791   1.372
45119W        W10280  20.557  35.849  13.837
45120W        W10281  17.194  29.095  11.384
45121W        W10282   7.275  10.755   1.203
45122W        W10283  41.715  26.660  12.157
45123W        W10284  10.921  28.897   2.775
45124W        W10285  32.416  30.140  11.163
45125W        W10286  39.195  44.528  14.884
45126W        W10287   1.902  12.565  12.463
45127W        W10288  34.440  42.225   2.884
45128W        W10289  28.285   5.237   4.946
45129W        W10290  31.431  43.215   2.759
45130W        W10291   5.939  14.214  10.753
45131W        W10292  44.749  22.639   1.326
45132W        W10293   8.257  32.216   3.228
45133W        W10294   9.497  37.523  10.331
45134W        W10295  30.373   6.688   1.816
45135W        W10296  18.833   9.420   2.327
45136W        W10297  23.086  15.875  14.954
45137W        W10298  33.018  35.207  14.440
45138W        W10299   4.773  18.373  14.001
45139W        W10300  38.863  34.082  11.213
45140W        W10301  41.971  24.019  13.463
45141W        W10302  12.658  11.149  14.337
45142W        W10303  37.600  19.596   2.920
45143W        W10304  34.529   0.014   0.830
45144W        W10305  18.593  22.529  13.579
45145W        W10306  16.601   0.441   1.044
45146W        W10307  39.017  11.658   2.319
45147W        W10308   5.826  22.546  11.644
45148W        W10309  29.505  18.616  12.433
45149W        W10310  39.128  41.977   2.832
45150W        W10311  43.762  28.047   0.832
45151W        W10312   3.828  35.635   1.920
45152W        W10313   3.237  14.423  14.492
45153W        W10314  10.660  33.414  14.406
45154W        W10315  38.750  27.618   2.449
45155W        W10316  20.919  12.316   0.799
45156W        W10317  40.811  43.480   0.941
45157W        W10318  18.302  41.795  13.993
45158W        W10319  12.213   5.768   3.718
45159W        W10320  34.706  39.546  10.687
45160W        W10321  16.257   4.882   4.570
45161W        W10322  19.516  24.210  13.449
45162W        W10323   6.802  39.492   2.051
45163W        W10324  35.369  31.754  12.501
45164W        W10325  13.346   9.578  14.458
45165W        W10326  43.779  29.400  12.334
45166W        W10327  22.466  15.628  11.982
45167W        W10328  24.193  26.204  10.784
45168W        W10329   7.364  16.771  14.369
45169W        W10330  33.425  27.109   1.368
45170W        W10331  33.645   9.891  11.221
45171W        W10332  35.187  32.336   1.285
45172W        W10333  17.418   8.542   1.866
45173W        W10334  38.907  33.220   0.803
45174W        W10335  18.541  14.583   2.368
45175W        W10336  34.819   4.141  14.419
45176W        W10337  15.830  37.270  10.848
45177W        W10338  30.515  20.651  14.264
45178W        W10339  28.503  34.109  14.920
45179W        W10340  18.794  20.605  13.453
45180W        W10341  35.775  29.982   1.214
45181W        W10342   3.162  32.651  11.095
45182W        W10343  42.931  34.598  12.648
45183W        W10344   7.269  43.985  11.906
45184W        W10345   7.910  35.631  12.934
45185W        W10346  44.962  37.488   2.715
45186W        W10347  25.803  41.968   3.237
45187W        W10348  40.568  29.402  12.089
45188W        W10349  27.473  42.997   4.258
45189W        W10350  27.608  21.535  13.482
45190W        W10351   9.251  38.877   1.805
45191W        W10352  36.821   7.589   3.202
45192W        W10353   1.825  12.287   2.244
45193W        W10354  21.179   4.918  13.439
45194W        W10355  40.527  16.988  11.453
45195W        W10356   7.007  15.833  13.359
45196W        W10357  43.943  18.767   2.934
45197W        W10358  25.603  26.294  13.748
45198W        W10359  16.552  19.118   2.051
45199W        W10360  14.830  15.742   0.266
45200W        W10361   1.776   9.673   0.999
45201W        W10362  14.469  42.378   0.954
45202W        W10363  22.149  10.305  14.313
45203W        W10364  32.000  14.658   1.788
45204W        W10365  24.224  33.422   0.002
45205W        W10366   0.692   2.889   4.232
45206W        W10367   5.290  42.160  10.492
45207W        W10368  18.845   8.760   3.756
45208W        W10369  37.921  36.399   1.398
45209W        W10370  43.660  40.841   2.217
45210W        W10371  19.086  18.785  13.139
45211W        W10372   1.898  25.175  11.464
45212W        W10373  27.299  35.837  13.818
45213W        W10374  33.397  19.201   4.571
45214W        W10375   4.383  10.338  10.469
45215W        W10376  24.443  16.557  12.473
45216W        W10377  32.624  22.331   5.009
45217W        W10378  32.883  27.658  11.707
45218W        W10379  26.185  15.997   0.164
45219W        W10380  41.217  17.213   4.531
45220W        W10381  30.925  29.545   4.061
45221W        W10382   2.281  14.948   5.423
45222W        W10383  17.152  17.178   2.013
45223W        W10384   2.037  25.515  10.955
45224W        W10385   0.437  22.622  12.999
45225W        W10386  33.477   0.437  14.957
45226W        W10387  36.354   9.677   2.724
45227W        W10388   8.314  20.714   2.637
45228W        W10389  16.460   1.263  12.463
45229W        W10390  31.859  10.469   5.169
45230W        W10391   0.102  42.952   3.157
45231W        W10392  15.852   5.872  11.390
45232W        W10393  35.596  42.319  13.528
45233W        W10394  38.766  13.629  11.522
45234W        W10395   7.386  27.605   0.763
45235W        W10396  10.265  38.492   1.142
45236W        W10397  17.144  38.013   5.232
45237W        W10398  37.894  37.915  13.063
45238W        W10399   1.976  40.573   1.694
45239W        W10400  26.488   3.763  13.510
45240W        W10401  22.186   7.858   3.404
45241W        W10402  36.416  25.072  12.182
45242W        W10403  16.380  35.525  14.460
45243W        W10404  21.589   3.399   1.224
45244W        W10405  12.306  33.903   2.709
45245W        W10406   7.677  38.312   2.313
45246W        W10407  22.798   1.292   4.677
45247W        W10408  21.949  13.552  11.654
45248W        W10409  12.762  10.897  13.362
45249W        W10410  20.351  13.846   2.601
45250W        W10411  10.536  24.942  10.270
45251W        W10412  28.242  36.050   2.561
45252W        W10413  41.409   3.637  13.398
45253W        W10414   0.989  32.195  11.622
45254W        W10415  22.758  17.432   1.585
45255W        W10416  36.662  23.910  13.096
45256W        W10417   8.715  14.306  10.237
45257W        W10418  13.796  35.812   0.851
45258W        W10419  18.501  10.365  10.252
45259W        W10420  21.507  26.129   2.970
45260W        W10421  14.984  19.679   2.709
45261W        W10422  36.955   1.904   2.117
45262W        W10423   8.669  28.977   5.011
45263W        W10424   1.015  36.395   1.262
45264W        W10425   4.399  35.876   1.689
45265W        W10426  33.374  27.458  12.537
45266W        W10427  13.466   3.326   2.630
45267W        W10428  33.887  14.544   0.433
45268W        W10429  23.516  28.034  12.658
45269W        W10430  34.271  14.716   2.146
45270W        W10431  32.802   1.142  11.124
45271W        W10432   2.453  26.992   1.977
45272W        W10433  14.702   1.247  10.697
45273W        W10434  43.438  23.438  12.068
45274W        W10435  41.279   7.384  12.476
45275W        W10436  43.766  44.696   2.244
45276W        W10437  13.642  21.097   2.778
45277W        W10438  17.666  43.717  14.292
45278W        W10439  31.595  22.632   1.378
45279W        W10440  23.550  30.085  12.992
45280W        W10441  27.546  16.750  11.062
45281W        W10442   3.515  10.643   0.791
45282W        W10443  21.528  41.038   0.158
45283W        W10444  11.874  14.472   1.196
45284W        W10445  31.441  13.502   0.664
45285W        W10446  25.615  12.321   0.449
45286W        W10447   8.807  36.979   3.650
45287W        W10448  16.500  17.285   5.410
45288W        W10449  33.892  23.565  10.131
45289W        W10450  23.166  25.425   1.522
45290W        W10451  23.816   9.055   4.031
45291W        W10452  11.624  14.664  11.476
45292W        W10453  35.491  14.976  12.782
45293W        W10454  30.430  41.112  13.919
45294W        W10455  43.548  33.940   2.362
45295W        W10456  22.736  34.650  11.960
45296W        W10457  16.436  11.753   4.690
45297W        W10458  37.642   2.188  14.847
45298W        W10459   2.979   0.870   0.976
45299W        W10460  20.467  10.112   4.527
45300W        W10461   6.453  10.329  12.004
45301W        W10462  11.408  44.847   2.218
45302W        W10463  43.907  27.034   4.192
45303W        W10464   8.383  30.063   3.061
45304W        W10465   7.159  18.123   1.801
45305W        W10466  38.313  32.066  13.188
45306W        W10467  12.725  18.626   0.072
45307W        W10468  15.353  13.311   0.421
45308W        W10469  13.075  21.032  11.415
45309W        W10470   5.212  37.858   3.192
45310W        W10471  16.689  24.060   3.378
45311W        W10472   4.286  26.924  12.065
45312W        W10473   4.909  24.946   3.480
45313W        W10474   0.026  37.321  12.942
45314W        W10475  28.154  20.497  14.924
45315W        W10476   5.732   4.903  14.418
45316W        W10477  37.998  11.112  12.524
45317W        W10478  43.297   3.312  14.618
45318W        W10479  12.945  29.677   3.968
45319W        W10480  38.027  38.224   4.567
45320W        W10481  11.009  33.676   3.739
45321W        W10482  15.370   9.781  14.500
45322W        W10483  20.640  14.511  12.115
45323W        W10484  38.951  42.877   0.826
45324W        W10485   5.134   4.363   1.713
45325W        W10486  18.380   8.202  13.467
45326W        W10487  24.175  13.261  13.355
45327W        W10488  35.970  44.050  11.613
45328W        W10489  41.778  23.385  12.831
45329W        W10490  26.534  18.801  13.102
45330W        W10491   1.353   9.404  11.142
45331W        W10492  43.242  41.944   0.919
45332W        W10493  20.341  28.480   3.309
45333W        W10494   7.377   4.701  13.980
45334W        W10495   8.176  41.843  12.529
45335W        W10496   4.479  30.789  11.169
45336W        W10497   6.493  39.242   2.880
45337W        W10498  20.937  22.105  11.991
45338W        W10499  24.783  16.579   4.541
45339W        W10500  43.845  28.240   2.843
45340W        W10501  40.986  27.477   1.768
45341W        W10502   3.836  33.551  13.429
45342W        W10503  41.662  37.577   4.515
45343W        W10504  17.508  24.218   1.710
45344W        W10505  44.748  11.837  13.318
45345W        W10506  38.121  43.295   0.383
45346W        W10507  33.675  32.853  11.567
45347W        W10508  23.615  37.981  14.914
45348W        W10509   3.875  39.822  13.908
45349W        W10510  42.837  15.865  11.395
45350W        W10511   9.303  26.994  12.014
45351W        W10512  31.010  23.231   2.831
45352W        W10513  22.977  29.964   1.869
45353W        W10514  21.558  23.979   3.692
45354W        W10515  19.177   9.713  12.184
45355W        W10516  28.022   9.241   0.024
45356W        W10517   8.582  22.079   3.042
45357W        W10518  19.253   3.112   2.323
45358W        W10519   9.268  21.072   2.504
45359W        W10520  27.584  41.269  12.922
45360W        W10521  24.059   3.526  10.659
45361W        W10522  43.432  37.297  11.956
45362W        W10523  21.817  40.477   3.189
45363W        W10524  33.461  36.420  14.683
45364W        W10525   2.775  36.922  14.454
45365W        W10526  43.772  11.970   1.062
45366W        W10527   6.707   9.861   0.461
45367W        W10528  28.406  31.429   2.315
45368W        W10529  12.061  37.693  14.233
45369W        W10530  33.930  22.226   3.225
45370W        W10531  37.976  31.571   1.963
45371W        W10532  25.756  23.937   0.519
45372W        W10533  18.814  23.571  10.323
45373W        W10534  27.721  16.676  11.562
45374W        W10535  29.420  44.061   5.128
45375W        W10536  26.019  29.764   2.400
45376W        W10537  41.489  34.661   3.083
45377W        W10538  37.044  38.828   5.050
45378W        W10539  15.078  18.225   2.179
45379W        W10540  15.088  39.815   0.876
45380W        W10541  12.179  39.517  13.411
45381W        W10542   1.756   3.310  13.068
45382W        W10543  20.785  30.962   3.309
45383W        W10544  21.003  39.713   9.369
45384W        W10545  19.007  24.644  14.896
45385W        W10546   2.236  20.123  11.418
45386W        W10547  25.585  24.517  14.248
45387W        W10548  13.213   3.166  11.492
45388W        W10549  23.333   9.269  11.062
45389W        W10550   4.328   2.729  12.523
45390W        W10551  42.981  36.357  14.932
45391W        W10552  35.888  39.578   2.258
45392W        W10553   4.435  36.908   0.682
45393W        W10554   8.932  10.208   3.784
45394W        W10555  24.202  27.367  13.800
45395W        W10556  21.225  16.377  14.014
45396W        W10557  27.343  23.853  13.476
45397W        W10558   9.704  28.109   4.790
45398W        W10559   5.202  29.365  11.107
45399W        W10560  39.048  11.998   1.913
45400W        W10561  10.061   2.269   0.992
45401W        W10562  22.190  41.449  13.851
45402W        W10563  39.306  13.648  13.731
45403W        W10564  37.853  22.261  10.571
45404W        W10565  41.016  43.402   1.948
45405W        W10566  43.022  25.240   4.617
45406W        W10567   4.397  31.846   1.344
45407W        W10568  40.125  23.255  12.083
45408W        W10569  22.399  28.634   9.963
45409W        W10570   0.811   0.721   1.914
45410W        W10571  24.049   8.410   0.690
45411W        W10572   3.674  29.842  10.016
45412W        W10573  27.107   6.983   1.418
45413W        W10574  29.939  21.459  11.156
45414W        W10575  41.011  10.200   0.133
45415W        W10576  21.001  40.112  13.811
45416W        W10577  20.099  11.414  12.547
45417W        W10578  23.613  19.984   4.721
45418W        W10579  32.200  29.145   1.227
45419W        W10580  15.172  19.170   2.253
45420W        W10581  29.168  24.765  10.672
45421W        W10582  35.253   9.669   1.282
45422W        W10583  15.085  40.574   2.108
45423W        W10584  35.370  24.509  12.362
45424W        W10585   5.440  42.901  13.443
45425W        W10586  18.995   3.335   5.044
45426W        W10587  33.866  24.977  11.107
45427W        W10588  15.871  32.620  11.011
45428W        W10589  31.852  36.552  12.920
45429W        W10590  30.299  37.576   4.977
45430W        W10591  36.885  13.742   4.119
45431W        W10592   7.741   6.617   1.343
45432W        W10593  34.484  44.173   4.106
45433W        W10594  16.777   2.849   1.375
45434W        W10595  11.176  38.621  14.755
45435W        W10596  26.508  25.579  14.254
45436W        W10597   1.718  14.164   0.962
45437W        W10598  43.833  44.753   0.264
45438W        W10599  41.404  42.018  11.281
45439W        W10600  40.990  23.622  14.637
45440W        W10601   2.641  22.961   1.290
45441W        W10602  14.202  43.940   3.151
45442W        W10603  39.046  22.272   3.208
45443W        W10604  23.909   9.572   0.828
45444W        W10605  40.799   6.423   1.804
45445W        W10606  24.977  29.075   4.397
45446W        W10607   5.377  14.169  10.875
45447W        W10608  38.992   3.058   4.766
45448W        W10609  44.845   3.119  11.880
45449W        W10610  22.752  22.181  14.846
45450W        W10611  22.092  13.320   3.168
45451W        W10612  18.179  13.095  13.051
45452W        W10613  39.810   7.233  12.606
45453W        W10614  12.037   9.645  12.100
45454W        W10615  22.532  22.731   3.750
45455W        W10616   3.066   3.846  14.760
45456W        W10617  31.662  26.661  14.844
45457W        W10618  21.214   5.434  14.421
45458W        W10619  11.065  19.345   0.370
45459W        W10620  32.398   1.444  10.972
45460W        W10621  20.280  41.854   3.378
45461W        W10622  27.497  37.807   0.005
45462W        W10623  24.417  26.428  13.522
45463W        W10624  29.429   6.102   4.463
45464W        W10625  19.699  36.306  14.531
45465W        W10626  33.869  29.138  14.804
45466W        W10627  37.354   8.482  12.285
45467W        W10628  37.559   7.374  11.654
45468W        W10629  16.845   6.996  12.081
45469W        W10630  35.693  33.128   0.839
45470W        W10631  19.691   2.928   0.343
45471W        W10632   9.438  20.020   1.720
45472W        W10633  44.529  20.997  14.425
45473W        W10634  17.281   4.420  12.425
45474W        W10635  16.745  27.232  13.914
45475W        W10636   1.898  27.589  10.404
45476W        W10637  29.398   8.768   4.127
45477W        W10638  44.753   3.474   1.379
45478W        W10639  38.111  20.592   0.521
45479W        W10640   6.866  18.303  11.988
45480W        W10641   4.262   0.007  13.424
45481W        W10642  28.632  26.643   2.905
45482W        W10643   0.347  22.656  11.532
45483W        W10644  10.378  39.127   1.909
45484W        W10645  40.393  18.074   2.268
45485W        W10646   8.887  12.365  13.547
45486W        W10647  36.941  38.533   0.692
45487W        W10648  13.628  40.219   4.262
45488W        W10649  42.879   7.987   1.474
45489W        W10650   0.766  39.645  11.609
45490W        W10651  27.236  23.104   3.238
45491W        W10652   8.838   5.634   0.828
45492W        W10653   7.292  38.397   1.490
45493W        W10654  18.681  34.291   0.342
45494W        W10655   3.610   3.246  12.634
45495W        W10656  31.999  29.988  11.443
45496W        W10657  24.655  16.592   1.770
45497W        W10658  38.063  32.897  13.053
45498W        W10659  23.216  11.156   0.718
45499W        W10660  44.581  16.713  11.635
45500W        W10661   4.809   3.603  12.859
45501W        W10662  19.222   7.636  13.444
45502W        W10663  17.320  35.929  14.785
45503W        W10664   3.470  40.658   0.401
45504W        W10665  10.788  43.521  10.454
45505W        W10666   0.663  11.096   3.007
45506W        W10667  27.209  32.041  13.766
45507W        W10668  23.202  37.750   4.660
45508W        W10669  17.351  26.596   0.365
45509W        W10670  35.882  27.177   0.797
45510W        W10671  25.919  43.449  12.587
45511W        W10672   0.272  21.411   4.536
45512W        W10673   7.480  20.629  11.049
45513W        W10674  14.972  24.734  12.090
45514W        W10675  21.304  16.548   0.312
45515W        W10676  24.551   0.012   3.661
45516W        W10677  22.541   2.905  14.367
45517W        W10678  23.036  32.173  10.750
45518W        W10679  12.299  42.341   0.923
45519W        W10680  22.939  36.555  14.952
45520W        W10681  13.498  36.985  12.842
45521W        W10682  37.757  35.408   1.354
45522W        W10683  24.151  10.275   1.297
45523W        W10684  39.000  32.740   4.445
45524W        W10685  40.274  26.433   2.908
45525W        W10686  15.123  33.385   1.708
45526W        W10687  43.836  11.093  10.601
45527W        W10688  42.040  33.477  13.335
45528W        W10689   4.780  44.759   1.688
45529W        W10690  20.760  33.913   1.627
45530W        W10691  24.374   8.152  12.499
45531W        W10692  40.316   8.337  12.895
45532W        W10693  16.070  35.806   2.286
45533W        W10694   0.808   1.436   1.628
45534W        W10695  44.391  44.096   2.369
45535W        W10696  28.741  41.743   1.940
45536W        W10697  14.731  24.923  10.998
45537W        W10698  18.370  32.026  11.580
45538W        W10699  34.637   3.254  12.409
45539W        W10700   7.752  22.971   1.341
45540W        W10701   7.838   0.958  14.699
45541W        W10702  12.117  15.899  11.614
45542W        W10703  17.164   9.800   4.444
45543W        W10704  42.267  10.645  14.103
45544W        W10705  42.731  14.550   5.051
45545W        W10706  12.793  40.914  14.388
45546W        W10707  26.432   0.529   2.582
45547W        W10708  10.178   2.841   1.738
45548W        W10709  36.443  40.445  10.953
45549W        W10710   5.882   2.157  14.192
45550W        W10711  22.563  39.882  13.458
45551W        W10712  36.551   5.823  12.507
45552W        W10713  20.157  42.197   4.986
45553W        W10714  10.690  42.546  12.078
45554W        W10715  25.727  12.400  11.830
45555W        W10716  17.745   7.808  13.501
45556W        W10717  20.643   7.296  13.744
45557W        W10718   5.960   6.145  10.877
45558W        W10719  16.876  20.590   3.285
45559W        W10720  34.628  14.730  11.047
45560W        W10721  43.446  27.715   1.737
45561W        W10722  34.303  13.032  14.830
45562W        W10723  14.256  29.227  13.572
45563W        W10724   2.039  10.355  11.089
45564W        W10725  38.407  34.526   4.314
45565W        W10726  41.506  37.769  10.768
45566W        W10727  19.254  41.100  11.219
45567W        W10728  39.727  41.389  12.178
45568W        W10729   0.129   6.772   1.460
45569W        W10730  39.757  13.796   2.001
45570W        W10731  13.994  35.943  14.952
45571W        W10732  13.664   6.408   0.352
45572W        W10733  37.607  32.480   1.715
45573W        W10734  17.483   6.856  10.720
45574W        W10735  18.808  23.797   2.804
45575W        W10736   9.144   1.778   1.798
45576W        W10737  44.548  33.635   0.027
45577W        W10738  27.643  11.623  14.985
45578W        W10739  11.235  23.129   2.738
45579W        W10740  15.339  10.905   1.390
45580W        W10741  19.106  36.488  12.150
45581W        W10742  42.766  43.316   1.251
45582W        W10743   4.215  12.345   2.376
45583W        W10744  37.081  30.668   1.693
45584W        W10745  40.946  12.868   3.568
45585W        W10746   8.274  27.174  14.552
45586W        W10747  33.446  28.976   0.757
45587W        W10748  27.031   7.456  14.807
45588W        W10749  30.653  17.571   0.419
45589W        W10750  16.705  26.051   1.986
45590W        W10751  11.826  43.334  14.650
45591W        W10752  26.250  12.550  13.863
45592W        W10753  32.901  10.276  12.963
45593W        W10754   4.501  27.418  12.701
45594W        W10755  35.811  41.916   3.139
45595W        W10756  36.519  12.739  14.712
45596W        W10757  33.062  31.009   3.367
45597W        W10758  12.370   3.908  11.279
45598W        W10759   9.343   0.822   3.348
45599W        W10760  27.982   6.895   3.734
45600W        W10761  12.573  38.828  13.853
45601W        W10762  25.129  35.450   2.717
45602W        W10763  11.748  12.078  13.442
45603W        W10764   9.829  37.941  13.662
45604W        W10765   2.513  32.962  12.956
45605W        W10766  33.979  31.908  11.521
45606W        W10767  11.684  24.644  13.618
45607W        W10768  44.359  12.132  12.145
45608W        W10769   3.336  23.954  11.920
45609W        W10770  27.231  29.113   1.738
45610W        W10771  13.010  43.257   4.625
45611W        W10772  14.035   6.705   0.674
45612W        W10773  27.907  26.627  13.336
45613W        W10774  28.381  24.742   4.084
45614W        W10775  39.359  32.944   1.804
45615W        W10776  40.302  28.608  10.919
45616W        W10777  30.048  22.709   3.150
45617W        W10778  34.685  38.568   0.454
45618W        W10779  22.675  39.356  13.427
45619W        W10780  15.821  32.037  13.014
45620W        W10781  36.010  36.875  11.973
45621W        W10782  33.962   7.132   2.251
45622W        W10783  21.789   6.660  11.947
45623W        W10784  29.104  34.392   3.604
45624W        W10785   5.419  31.786   4.862
45625W        W10786  16.932  11.699   4.535
45626W        W10787  33.823   9.845  10.715
45627W        W10788   0.850  23.762   1.428
45628W        W10789  41.515   2.287   3.081
45629W        W10790  26.689  21.581   0.102
45630W        W10791   9.220  39.545  14.443
45631W        W10792  12.610   6.424  11.817
45632W        W10793  12.252  43.441  10.706
45633W        W10794  39.494   1.007  10.660
45634W        W10795  17.122  41.453  13.308
45635W        W10796  24.651  28.408   2.241
45636W        W10797  14.868  31.692   1.922
45637W        W10798  10.616  34.570  13.046
45638W        W10799   1.494   7.299  14.075
45639W        W10800  43.450  42.028  11.861
45640W        W10801   8.248   0.285   1.144
45641W        W10802  21.973  38.196   9.995
45642W        W10803  24.601  24.106  13.345
45643W        W10804  24.660  36.858  11.038
45644W        W10805   9.415  17.519   3.636
45645W        W10806   7.617   4.218   3.788
45646W        W10807  40.956   3.786  13.866
45647W        W10808  17.852  41.260   3.197
45648W        W10809  16.724  13.647  12.844
45649W        W10810  31.620  35.585  14.879
45650W        W10811  14.741   7.171   3.575
45651W        W10812  34.575  41.632   4.062
45652W        W10813  17.048  32.846  10.850
45653W        W10814  37.890   3.467   4.185
45654W        W10815   9.295  23.020  13.987
45655W        W10816  22.959  43.859   1.651
45656W        W10817  31.071   7.736  14.386
45657W        W10818  20.919   9.839  14.384
45658W        W10819  31.689  20.237   2.505
45659W        W10820   1.285   5.702   0.310
45660W        W10821   1.292  35.883  11.173
45661W        W10822  31.510  26.912   0.292
45662W        W10823  44.878  43.806  12.976
45663W        W10824  34.197  32.158  11.930
45664W        W10825  27.361  29.592   1.486
45665W        W10826  38.699  43.868   1.092
45666W        W10827  30.885  18.253  10.724
45667W        W10828  24.109  11.207  12.652
45668W        W10829  28.605  40.874  14.805
45669W        W10830  34.132  26.131  11.575
45670W        W10831   6.706  24.575   4.807
45671W        W10832  25.822  34.490  10.732
45672W        W10833  42.263   9.734  13.938
45673W        W10834  11.918  38.752  12.463
45674W        W10835  11.052  27.024   1.963
45675W        W10836  24.178   8.560   5.024
45676W        W10837  20.028  31.678  14.506
45677W        W10838  39.832  17.537   1.680
45678W        W10839  32.112   3.870   2.349
45679W        W10840  37.976  37.857  11.084
45680W        W10841  14.165  42.750  11.627
45681W        W10842  13.140   1.919  13.996
45682W        W10843   5.285  37.874   2.606
45683W        W10844  19.954   9.979  14.139
45684W        W10845  40.582  39.302   0.271
45685W        W10846   3.361  23.865  13.456
45686W        W10847  26.132   4.897  13.635
45687W        W10848  40.518  28.254   3.202
45688W        W10849  21.134  24.699  10.986
45689W        W10850   3.683   0.383  13.359
45690W        W10851   4.781  38.872  11.164
45691W        W10852  30.692   5.952   2.200
45692W        W10853  26.021  30.071   4.121
45693W        W10854   1.720   8.643  12.228
45694W        W10855  27.526  29.650  11.975
45695W        W10856   0.192  12.132   5.058
45696W        W10857  14.166  20.028  12.486
45697W        W10858  23.607  24.160   3.228
45698W        W10859  33.502  12.892   2.314
45699W        W10860  37.489  16.312  12.826
45700W        W10861  20.979  23.701   4.878
45701W        W10862  32.068  12.276  12.894
45702W        W10863  12.708  24.448   1.697
45703W        W10864   7.794  32.247  12.587
45704W        W10865  26.063  43.477  13.966
45705W        W10866  36.608   5.485  14.399
45706W        W10867  11.421  41.453   4.532
45707W        W10868  38.538   1.734  14.794
45708W        W10869  11.809  20.971   3.194
45709W        W10870  40.457   8.533   0.982
45710W        W10871  29.929  26.111  12.351
45711W        W10872  17.945   7.792  10.762
45712W        W10873  17.849  38.768   4.208
45713W        W10874  35.323  37.954   1.853
45714W        W10875  12.590   7.561   4.022
45715W        W10876  14.284   6.818   1.383
45716W        W10877   5.242  44.455  13.938
45717W        W10878  43.494  27.611   0.820
45718W        W10879   5.338  14.718   9.817
45719W        W10880  31.050  23.195  13.298
45720W        W10881  34.181  38.020   3.790
45721W        W10882   1.791  24.818   3.351
45722W        W10883  31.224   1.729  11.513
45723W        W10884   6.336  13.751  13.568
45724W        W10885  26.716  20.543   3.698
45725W        W10886   1.393  28.470   2.938
45726W        W10887   5.196  24.065   0.531
45727W        W10888  27.653  29.141   3.626
45728W        W10889  34.522  38.002   1.356
45729W        W10890   5.411   9.292  13.506
45730W        W10891   9.381   5.493   1.745
45731W        W10892   5.709   3.526   0.928
45732W        W10893   8.406  36.877  14.077
45733W        W10894  36.825  14.071  14.244
45734W        W10895  38.955   4.718   5.020
45735W        W10896  38.470   7.331  12.076
45736W        W10897  31.579   2.960  14.421
45737W        W10898  22.478  15.582   4.087
45738W        W10899  29.632  16.088  11.681
45739W        W10900  41.992  16.998  12.973
45740W        W10901  15.670  35.214   3.642
45741W        W10902  41.888  35.565   4.612
45742W        W10903  30.351   5.370   4.723
45743W        W10904  18.475  12.167   0.800
45744W        W10905  12.466  21.556  11.496
45745W        W10906  14.850   1.994  14.508
45746W        W10907  11.352  35.594   0.534
45747W        W10908   2.952   1.740  13.813
45748W        W10909   5.257  15.969   0.685
45749W        W10910   8.160  22.213  14.923
45750W        W10911  18.761  21.591   4.509
45751W        W10912  21.481  21.200   3.357
45752W        W10913  10.340   1.916  12.728
45753W        W10914  17.980  35.583   2.822
45754W        W10915  43.346  31.567   2.260
45755W        W10916  10.540  33.839   3.503
45756W        W10917  32.294  13.817  13.484
45757W        W10918  16.276  28.407   0.269
45758W        W10919  36.886  38.514  12.787
45759W        W10920  11.588  39.733  14.065
45760W        W10921  37.065  26.195  11.518
45761W        W10922  17.476   1.432  14.316
45762W        W10923  40.447  14.397   0.424
45763W        W10924  40.391  24.066   1.287
45764W        W10925   8.859  24.199   2.101
45765W        W10926  42.224   1.222   0.866
45766W        W10927  29.243  20.539  11.598
45767W        W10928  37.710  28.445   4.485
45768W        W10929  14.605  34.081  14.978
45769W        W10930  10.389  42.440  12.985
45770W        W10931  35.084  10.405   0.808
45771W        W10932   1.540   3.401   0.722
45772W        W10933  36.124  12.857   1.949
45773W        W10934  42.069   0.518  10.271
45774W        W10935  21.672  42.537   3.722
45775W        W10936  42.795  18.431  10.452
45776W        W10937  31.167   1.116  12.593
45777W        W10938  12.685  13.007  13.464
45778W        W10939  37.392  38.435   3.421
45779W        W10940  34.610  37.321  13.916
45780W        W10941  26.671  21.550  13.870
45781W        W10942  36.556   3.487   0.821
45782W        W10943  42.997  42.181  14.832
45783W        W10944  12.547   8.577   1.775
45784W        W10945   8.709  18.639   4.423
45785W        W10946  23.681  19.679  11.736
45786W        W10947  22.920  42.938  10.066
45787W        W10948  35.733  26.021   4.796
45788W        W10949  43.351  31.932   3.360
45789W        W10950   4.183  13.927  10.284
45790W        W10951  12.766  32.918  10.661
45791W        W10952  15.702  19.124   4.878
45792W        W10953  37.603   6.999  12.668
45793W        W10954  41.873   1.044   4.141
45794W        W10955  10.621  11.020   4.547
45795W        W10956  18.198  40.941   0.728
45796W        W10957  31.262  23.622   9.839
45797W        W10958  39.447  10.370  11.037
45798W        W10959  39.053  44.121  10.643
45799W        W10960  17.681  43.760   2.242
45800W        W10961  21.213  12.644  12.129
45801W        W10962   3.070  23.165  13.919
45802W        W10963  11.363  23.653   2.690
45803W        W10964   7.310  41.879   1.354
45804W        W10965  11.334  39.142  13.416
45805W        W10966  16.461  17.676  12.844
45806W        W10967  20.656   8.525  12.817
45807W        W10968   0.037   0.455   3.274
45808W        W10969   8.544  30.428   4.203
45809W        W10970  16.636  26.765  14.905
45810W        W10971  10.352  23.487   4.243
45811W        W10972  35.257  27.469   0.336
45812W        W10973  11.270  41.026  11.900
45813W        W10974   9.670  20.215   3.472
45814W        W10975  35.606  34.968   4.020
45815W        W10976  29.059   8.433   1.367
45816W        W10977  15.355  17.155   1.754
45817W        W10978   0.424  35.122  12.304
45818W        W10979  32.568  42.119  11.382
45819W        W10980  13.909  10.733  12.948
45820W        W10981  43.489  43.545  12.884
45821W        W10982   8.794  10.906   1.229
45822W        W10983  27.449  28.610  13.382
45823W        W10984  20.254  26.560   2.898
45824W        W10985  12.844  24.776   1.293
45825W        W10986   2.139  33.534   4.109
45826W        W10987  38.949   7.082   9.722
45827W        W10988  24.351   1.702  10.749
45828W        W10989   8.793  24.745   1.512
45829W        W10990  36.987  28.589  14.367
45830W        W10991  10.098  44.364   2.216
45831W        W10992   2.686   6.992   2.198
45832W        W10993  27.695  35.342  12.067
45833W        W10994  43.851  36.096   1.838
45834W        W10995  35.481  32.167  14.440
45835W        W10996  13.060   1.895   3.739
45836W        W10997   7.486  35.514   3.733
45837W        W10998  21.908   6.964   4.199
45838W        W10999  23.528  24.578   2.182
45839W        W11000  14.830   8.303  11.167
45840W        W11001  44.084  26.193   0.952
45841W        W11002  17.587   2.990  11.045
45842W        W11003  13.863  10.275   4.439
45843W        W11004  31.875  35.635   4.618
45844W        W11005  16.221   6.395   1.789
45845W        W11006  42.805  13.858   3.630
45846W        W11007  10.383  23.812  14.506
45847W        W11008  44.037  33.024   3.705
45848W        W11009  36.782  36.927  12.098
45849W        W11010  24.297  22.150   1.749
45850W        W11011   0.292  26.982   1.528
45851W        W11012  27.938   1.405  11.514
45852W        W11013  24.678   7.589   4.312
45853W        W11014  21.458  15.005   4.405
45854W        W11015  24.337  20.601  12.708
45855W        W11016  12.387  11.624  12.565
45856W        W11017  37.350  18.231  11.502
45857W        W11018  12.785   9.285   2.236
45858W        W11019  13.974  30.642  11.996
45859W        W11020  32.671   2.300   1.917
45860W        W11021  16.046  41.638  11.951
45861W        W11022  32.241   9.939   1.744
45862W        W11023   0.560   9.981  12.443
45863W        W11024  18.191   6.763  13.029
45864W        W11025   3.057  18.787  12.404
45865W        W11026  22.717  32.108  12.739
45866W        W11027   0.926  40.123   2.512
45867W        W11028   1.198  26.529   4.118
45868W        W11029   3.434  44.034  14.578
45869W        W11030   3.511   0.268   3.274
45870W        W11031  36.838   5.219   4.199
45871W        W11032  38.893  18.379   1.395
45872W        W11033  16.032  18.764  11.956
45873W        W11034  22.654  37.933  12.121
45874W        W11035  18.972  16.840  13.035
45875W        W11036  31.550  20.750   0.355
45876W        W11037  24.697  37.012  14.479
45877W        W11038  19.656   1.220   2.691
45878W        W11039  12.775  42.594   9.732
45879W        W11040  12.550  10.271   2.246
45880W        W11041  22.561  11.241  14.324
45881W        W11042  27.491   5.756   1.922
45882W        W11043  14.204  16.563   0.312
45883W        W11044  15.882  24.659  11.721
45884W        W11045  26.977  20.822   3.365
45885W        W11046  25.987  13.208  11.185
45886W        W11047  37.707  36.051   4.997
45887W        W11048  42.319  16.280   4.291
45888W        W11049  31.153  43.914  12.562
45889W        W11050   8.431  43.997  10.757
45890W        W11051  34.087  26.725   0.836
45891W        W11052  14.954  21.339   2.360
45892W        W11053  39.035   0.078   1.289
45893W        W11054  16.138  35.368  13.974
45894W        W11055  28.512  16.124   4.566
45895W        W11056  22.943  29.651   0.631
45896W        W11057   4.504   3.351   3.226
45897W        W11058   1.307  18.126  14.396
45898W        W11059  15.745  19.572  12.624
45899W        W11060  23.031  14.635  10.577
45900W        W11061  12.562  29.120   0.802
45901W        W11062  24.033  17.653  13.445
45902W        W11063   1.729   1.875   0.661
45903W        W11064  30.040  23.553  13.852
45904W        W11065  22.565  26.572   1.252
45905W        W11066   8.329  13.917  10.750
45906W        W11067  35.355   4.348  13.567
45907W        W11068  17.017  14.229  10.650
45908W        W11069  40.935  15.138   1.746
45909W        W11070  40.361  22.148  14.893
45910W        W11071  40.876   8.821   3.984
45911W        W11072  20.580  17.417  10.230
45912W        W11073  26.803  37.234   4.509
45913W        W11074  32.078  30.120  14.152
45914W        W11075  19.807  41.506   1.344
45915W        W11076  11.604   2.256  10.978
45916W        W11077  42.782   0.772   2.853
45917W        W11078  28.552  12.437  12.634
45918W        W11079  12.107   1.851  13.561
45919W        W11080  40.329  10.134  14.476
45920W        W11081  16.929  43.114   4.020
45921W        W11082  12.703  39.813   0.396
45922W        W11083  19.830   3.362   3.620
45923W        W11084  37.052  37.846   3.475
45924W        W11085  14.256  24.871  11.712
45925W        W11086  43.072   9.269  12.925
45926W        W11087  43.552  34.421  14.292
45927W        W11088  32.122  32.312  13.435
45928W        W11089   2.958   5.405  10.611
45929W        W11090  40.174  37.281  12.790
45930W        W11091  33.711  41.966   3.262
45931W        W11092  29.150  13.208  12.613
45932W        W11093  34.890   2.825   0.797
45933W        W11094  30.545  30.947   1.597
45934W        W11095  38.548  18.902   4.077
45935W        W11096  21.060   2.885  14.428
45936W        W11097   1.573  37.573  10.875
45937W        W11098  17.542  13.275   2.757
45938W        W11099  21.745  31.587   1.798
45939W        W11100  35.538  43.358   2.268
45940W        W11101  41.785   7.257  13.859
45941W        W11102  25.774   5.587  12.005
45942W        W11103  27.324  24.678  10.067
45943W        W11104  29.095   0.447   2.243
45944W        W11105  44.452  14.091   0.876
45945W        W11106  26.589   1.254   0.209
45946W        W11107  11.196   7.434  14.250
45947W        W11108  19.936  42.383  14.363
45948W        W11109  11.968  12.372   1.495
45949W        W11110  30.210  20.082   4.230
45950W        W11111   3.480  43.283  13.361
45951W        W11112  17.273   6.949  11.487
45952W        W11113  32.877  16.964  10.995
45953W        W11114   6.278   7.283  13.030
45954W        W11115   1.762  29.944   3.580
45955W        W11116  14.708  30.717   3.980
45956W        W11117  11.366  13.753  14.085
45957W        W11118  38.985  14.576   3.879
45958W        W11119  27.007  27.118  11.004
45959W        W11120  31.306  10.466  13.485
45960W        W11121  25.790   6.082  10.031
45961W        W11122  30.186  30.555   1.378
45962W        W11123   5.150   1.387  10.668
45963W        W11124  27.299  16.304   3.819
45964W        W11125  44.457   5.715  10.273
45965W        W11126  24.038  29.261  13.366
45966W        W11127  32.571  20.213   3.086
45967W        W11128   8.618  41.744  11.188
45968W        W11129  20.161  30.650  12.069
45969W        W11130   7.378  21.244   4.533
45970W        W11131   3.450   4.511   4.380
45971W        W11132  12.145  23.659  11.238
45972W        W11133  43.875  14.423  12.873
45973W        W11134  20.546   9.772  12.186
45974W        W11135   7.659  39.275   4.528
45975W        W11136  29.454  43.890  10.697
45976W        W11137  21.905  23.209  10.381
45977W        W11138   6.030  28.129   3.751
45978W        W11139  38.782  40.425   0.844
45979W        W11140  27.821  23.693   3.627
45980W        W11141  36.442  32.043   0.952
45981W        W11142  19.619  34.170   5.000
45982W        W11143  12.294  43.182  12.087
45983W        W11144   0.034   9.196  13.014
45984W        W11145  40.756  28.210  13.529
45985W        W11146  10.823  22.246   4.848
45986W        W11147  34.862  16.059   2.309
45987W        W11148  29.174  22.529  14.326
45988W        W11149   2.889  34.412   1.610
45989W        W11150  21.261  38.753   2.731
45990W        W11151  19.609  31.038   2.622
45991W        W11152   5.327  33.450  11.002
45992W        W11153   5.834  24.710   5.424
45993W        W11154  38.880  35.132   3.180
45994W        W11155  43.040   2.882  12.472
45995W        W11156  36.531  40.924  12.184
45996W        W11157  39.011  42.962  13.351
45997W        W11158   8.408  44.855   1.398
45998W        W11159  29.929  39.010  14.525
45999W        W11160   4.893  37.025  14.512
46000W        W11161   1.797   0.034  12.065
46001W        W11162   0.747  40.099   4.173
46002W        W11163   7.297  15.266  12.450
46003W        W11164  37.805  12.545  12.429
46004W        W11165  12.687  33.197   2.335
46005W        W11166  16.580  39.376   3.666
46006W        W11167  13.609  22.985   1.610
46007W        W11168  17.761  34.319  14.792
46008W        W11169  40.995  16.595   1.698
46009W        W11170   0.263   7.579   1.843
46010W        W11171  44.232  20.308   2.646
46011W        W11172  40.168  12.865  12.482
46012W        W11173   3.737  33.712   0.736
46013W        W11174  13.969  33.621   5.004
46014W        W11175  41.330   4.094  14.766
46015W        W11176  27.396   9.730  11.669
46016W        W11177   2.377   3.484   2.726
46017W        W11178   5.382  11.674  10.141
46018W        W11179   3.815  16.840  10.238
46019W        W11180  23.881  20.175   3.379
46020W        W11181  29.960  25.252  12.917
46021W        W11182  25.725  35.009  11.432
46022W        W11183  29.800   1.502  11.164
46023W        W11184  21.083  10.496  12.503
46024W        W11185  25.105  12.911  13.347
46025W        W11186  37.475  19.751   1.494
46026W        W11187  37.293  15.077  12.959
46027W        W11188   0.562  17.163   2.178
46028W        W11189   9.763  43.097   0.005
46029W        W11190  16.843  19.668   3.274
46030W        W11191  40.415   4.901   3.362
46031W        W11192  13.764  37.873   0.646
46032W        W11193  11.441  13.415   0.750
46033W        W11194  19.891  35.644   2.258
46034W        W11195  33.949  27.900  11.396
46035W        W11196  33.583  27.004  11.398
46036W        W11197  25.122  40.449  11.331
46037W        W11198  11.342  16.844   3.229
46038W        W11199  13.712  19.687  12.535
46039W        W11200  28.057  18.093  13.836
46040W        W11201   7.353  10.194   3.914
46041W        W11202  44.090  38.376  13.282
46042W        W11203  30.229   1.837   3.297
46043W        W11204  10.701  30.606  10.389
46044W        W11205  13.597  41.956  11.997
46045W        W11206  42.466  37.197  14.522
46046W        W11207  41.733   2.885  13.811
46047W        W11208  30.224  23.021  13.108
46048W        W11209  21.073   9.106  11.559
46049W        W11210   9.069  10.872  13.897
46050W        W11211  34.479  12.367   3.521
46051W        W11212  32.697  41.879   0.900
46052W        W11213  25.390  40.751  11.643
46053W        W11214  42.929  10.867   0.545
46054W        W11215  43.933  11.158  11.103
46055W        W11216  32.687  31.001  11.178
46056W        W11217  42.956   4.439  14.793
46057W        W11218  43.764  14.909  12.943
46058W        W11219  10.321  25.989   4.264
46059W        W11220   2.452  34.858   3.848
46060W        W11221  31.178  34.475  14.944
46061W        W11222   6.286  34.391   0.691
46062W        W11223   5.121  11.192  14.480
46063W        W11224  40.473  43.054   0.624
46064W        W11225   7.417  12.312  13.840
46065W        W11226   4.489   8.827  14.412
46066W        W11227  30.875  15.641  14.862
46067W        W11228  38.425  20.760  10.840
46068W        W11229  37.414  32.061   3.930
46069W        W11230  19.237  17.375  12.504
46070W        W11231  12.748  24.959   1.766
46071W        W11232  30.026  43.575  14.516
46072W        W11233  14.603  30.974  11.260
46073W        W11234  14.585  15.105  13.565
46074W        W11235   0.794   3.891  10.413
46075W        W11236   5.408   0.127  11.112
46076W        W11237   1.429  40.012  13.339
46077W        W11238  44.118  42.466   0.826
46078W        W11239   7.577  27.256   2.299
46079W        W11240  40.104  40.378  14.756
46080W        W11241  33.571  31.262  14.752
46081W        W11242  27.536  30.434   1.960
46082W        W11243  17.722  21.850  14.346
46083W        W11244   2.019  14.243   1.845
46084W        W11245   5.704   3.482  13.378
46085W        W11246  10.777  30.044  12.892
46086W        W11247  21.457  32.170   4.905
46087W        W11248  43.330  37.920  14.233
46088W        W11249  23.668   5.961  11.234
46089W        W11250  22.178  37.388   3.860
46090W        W11251  14.183  21.959  14.483
46091W        W11252   5.393  12.855   3.173
46092W        W11253   6.289  26.168   0.409
46093W        W11254   1.717  10.260   0.665
46094W        W11255  35.929  31.864   2.691
46095W        W11256   3.966  17.106   2.166
46096W        W11257  30.066  40.068  11.004
46097W        W11258  43.819  44.253   0.448
46098W        W11259  18.582  10.895   2.422
46099W        W11260  39.090  12.825  14.888
46100W        W11261   6.639  22.533   0.812
46101W        W11262  16.995  32.777   4.031
46102W        W11263   3.322  44.433   5.029
46103W        W11264  19.095   1.972  14.825
46104W        W11265   1.038  33.640  10.825
46105W        W11266  13.937   3.752  11.748
46106W        W11267  22.596  37.620  11.657
46107W        W11268  27.912  15.776  11.610
46108W        W11269   9.229  42.549  11.057
46109W        W11270  17.098   4.206  13.233
46110W        W11271   7.887  37.060   3.365
46111W        W11272   1.199  44.012   1.067
46112W        W11273  13.407   7.731  14.725
46113W        W11274  28.521  22.439  10.635
46114W        W11275  26.896   7.209  14.350
46115W        W11276  34.633  37.553  13.147
46116W        W11277   4.855  18.317   4.588
46117W        W11278  36.829   2.903  14.751
46118W        W11279  11.273  21.049  10.336
46119W        W11280  43.847  14.325  12.034
46120W        W11281   2.253  26.940  12.557
46121W        W11282  29.155   7.265   2.826
46122W        W11283  15.371  31.992   0.561
46123W        W11284  38.085  26.729  11.246
46124W        W11285  40.159  17.707   3.224
46125W        W11286   0.839  43.680   0.241
46126W        W11287  27.890  22.780  11.561
46127W        W11288   6.852  43.278   3.737
46128W        W11289  42.437  20.712   1.013
46129W        W11290  41.328  22.705   4.275
46130W        W11291   2.391   5.759  13.722
46131W        W11292  17.264   9.065   1.780
46132W        W11293   5.465  12.721   2.166
46133W        W11294  24.372  40.212  13.906
46134W        W11295  21.459  10.868   4.239
46135W        W11296  13.852  16.199  12.937
46136W        W11297  15.970   5.362   3.951
46137W        W11298   7.305  15.999   0.415
46138W        W11299   2.797  25.874  12.399
46139W        W11300  27.723  44.108  11.502
46140W        W11301  12.018  28.997   0.355
46141W        W11302   1.339  17.829   9.714
46142W        W11303  19.781  36.427  12.703
46143W        W11304  41.466  38.385  14.002
46144W        W11305   3.242  16.466  11.536
46145W        W11306  11.552  35.354   3.437
46146W        W11307  19.503  36.767  14.817
46147W        W11308   7.236  31.870  13.094
46148W        W11309   3.428   2.165   2.712
46149W        W11310  33.572  19.096   1.303
46150W        W11311  22.223  35.401   4.777
46151W        W11312   2.056  33.994   0.487
46152W        W11313  21.975  20.649  12.085
46153W        W11314  21.154   8.723   3.468
46154W        W11315   3.714   5.273  13.942
46155W        W11316  40.809   9.491   1.314
46156W        W11317  40.049  19.740   3.322
46157W        W11318  24.564   0.777  12.364
46158W        W11319   5.396  39.855   3.129
46159W        W11320  39.540  15.196   0.998
46160W        W11321   5.308  33.016  12.429
46161W        W11322   0.247  17.189   4.165
46162W        W11323  13.736  23.243  11.953
46163W        W11324  36.827   4.468  14.268
46164W        W11325  44.326   6.232   3.193
46165W        W11326  38.310   0.464   1.065
46166W        W11327  13.760  27.097   3.938
46167W        W11328  35.071  44.856  12.450
46168W        W11329   7.740  24.439   3.746
46169W        W11330  26.759  43.637  12.930
46170W        W11331  26.897   9.611  11.722
46171W        W11332  18.758   9.739   2.810
46172W        W11333  29.939   1.684  12.945
46173W        W11334  16.054   5.182   2.376
46174W        W11335  10.615  44.398   2.183
46175W        W11336  29.832  31.243  11.675
46176W        W11337  42.415  27.645  11.608
46177W        W11338   8.200   5.726   0.393
46178W        W11339  32.149  11.517   0.701
46179W        W11340   1.273  34.865   1.779
46180W        W11341  34.080  34.403  14.825
46181W        W11342  25.896  21.118  14.869
46182W        W11343   1.466  32.635  10.631
46183W        W11344  41.803  35.547  11.129
46184W        W11345  15.897  41.506   3.720
46185W        W11346  37.134  36.295  11.598
46186W        W11347  22.175  16.837   1.258
46187W        W11348  33.366  22.220  11.612
46188W        W11349  37.294   4.949   0.454
46189W        W11350  21.785  38.408   2.024
46190W        W11351  44.159   2.933   5.117
46191W        W11352   1.483  20.834  14.037
46192W        W11353  32.425  33.538   0.439
46193W        W11354   3.205   0.268   4.143
46194W        W11355  32.554   6.257   1.414
46195W        W11356  39.738  40.997  10.619
46196W        W11357  31.113  39.907  13.917
46197W        W11358   1.298  27.580   2.284
46198W        W11359  34.180  22.008  12.025
46199W        W11360   9.745  14.100   4.370
46200W        W11361  34.839  28.046   3.185
46201W        W11362  42.585  24.464   3.381
46202W        W11363  22.185   0.792   2.132
46203W        W11364   1.372   1.905   4.041
46204W        W11365   3.404   0.398  12.357
46205W        W11366  34.384  33.772   3.939
46206W        W11367  41.265  40.345   0.313
46207W        W11368   6.700  12.159   0.543
46208W        W11369  13.096   6.415   1.708
46209W        W11370   4.852  10.114  10.614
46210W        W11371  36.466  34.745  12.050
46211W        W11372  38.018   1.060   4.047
46212W        W11373  24.622  23.082  13.901
46213W        W11374  24.575   2.763   4.695
46214W        W11375  40.927  42.993   2.333
46215W        W11376  24.201  17.684  12.121
46216W        W11377  35.044  39.808   1.340
46217W        W11378   6.357  27.994  12.293
46218W        W11379  15.714   6.312  10.927
46219W        W11380   6.172  13.778   0.389
46220W        W11381  13.721  27.149   0.858
46221W        W11382  32.870  17.091   4.623
46222W        W11383  25.970  11.650   1.291
46223W        W11384  44.000  42.412  13.503
46224W        W11385   0.852   4.668   1.870
46225W        W11386  44.538  19.024   1.915
46226W        W11387  33.429  15.916   4.623
46227W        W11388   6.853  31.549   3.756
46228W        W11389  36.257  12.251   2.271
46229W        W11390   5.735  23.753  10.902
46230W        W11391   1.471   8.008  14.699
46231W        W11392  25.444  44.407  13.002
46232W        W11393  23.925  26.030   1.614
46233W        W11394  26.417  18.345   2.689
46234W        W11395  15.082   2.641   0.102
46235W        W11396   5.782  43.990   0.877
46236W        W11397   2.685  24.006   1.846
46237W        W11398  24.999  18.109   3.690
46238W        W11399   6.944  43.882  10.570
46239W        W11400  14.811  30.533   0.754
46240W        W11401  22.923  44.800   0.791
46241W        W11402  26.527  22.082  13.919
46242W        W11403  16.339  30.481  12.478
46243W        W11404   5.317   2.744   2.193
46244W        W11405  36.096   7.764   4.122
46245W        W11406  34.548   8.398  13.737
46246W        W11407  35.318  27.968   0.984
46247W        W11408  19.108  32.915   3.651
46248W        W11409  37.919  15.669   3.778
46249W        W11410   1.719   5.357   4.116
46250W        W11411  31.237  19.706   1.754
46251W        W11412  12.292   8.018  13.773
46252W        W11413  17.667  25.274  12.352
46253W        W11414   9.604  23.573  14.856
46254W        W11415  26.078  25.627   0.920
46255W        W11416  14.052  17.267  14.545
46256W        W11417  13.663   6.988   0.974
46257W        W11418  15.072  27.212  10.940
46258W        W11419  12.907   3.653   3.366
46259W        W11420  30.501  31.453   2.363
46260W        W11421   1.054  22.498   0.368
46261W        W11422  43.925   3.881   4.442
46262W        W11423  24.457  26.258  12.934
46263W        W11424  11.026  14.626  14.017
46264W        W11425   2.276  31.469   1.976
46265W        W11426  14.176   3.429   1.816
46266W        W11427  29.731  41.134  13.347
46267W        W11428  34.400  36.297  11.306
46268W        W11429  29.119  23.742   3.093
46269W        W11430  33.101  24.663   2.227
46270W        W11431  42.546   1.596  10.894
46271W        W11432  16.026  38.794   3.646
46272W        W11433  30.371   9.715   4.119
46273W        W11434  18.197  40.517   3.196
46274W        W11435   9.157  35.119  10.650
46275W        W11436  11.392  16.168  14.009
46276W        W11437  27.696  23.001  11.967
46277W        W11438  33.636  36.239  12.463
46278W        W11439  20.963  38.626  13.679
46279W        W11440  36.396  29.050   2.409
46280W        W11441   8.345   3.816  12.374
46281W        W11442  39.831  33.939  12.819
46282W        W11443  24.332  21.282  13.538
46283W        W11444   1.665  27.636  10.865
46284W        W11445  23.000  14.525   2.892
46285W        W11446  31.708  32.353   2.114
46286W        W11447  21.057   4.626   0.407
46287W        W11448  10.185   4.027   0.023
46288W        W11449  30.014  41.956   4.363
46289W        W11450  25.426  39.364   1.925
46290W        W11451  11.090  14.238  12.838
46291W        W11452  30.211  33.969  14.581
46292W        W11453  21.651  10.989  13.939
46293W        W11454  27.687  14.682  12.039
46294W        W11455  31.165  35.566  10.521
46295W        W11456  12.151  12.830   1.336
46296W        W11457  39.317  19.138   2.433
46297W        W11458  10.876  10.954  13.382
46298W        W11459  13.067  22.186  14.865
46299W        W11460  29.039  27.072  12.622
46300W        W11461  11.492  29.016   0.449
46301W        W11462   0.030  33.646  14.840
46302W        W11463   0.735  25.403   0.358
46303W        W11464   3.821  18.269   4.509
46304W        W11465   0.409  39.113  10.750
46305W        W11466   7.843   1.499   0.532
46306W        W11467   6.583  39.836  13.737
46307W        W11468  34.496  13.798  12.842
46308W        W11469   6.340  27.056  12.349
46309W        W11470  29.991  42.540   3.136
46310W        W11471   7.707  36.831  11.013
46311W        W11472  20.592  27.435   3.544
46312W        W11473  11.209  39.136  12.048
46313W        W11474  11.670  28.879   4.537
46314W        W11475  30.426  28.246   1.311
46315W        W11476  12.115  33.818   1.465
46316W        W11477  19.356  20.110  12.415
46317W        W11478   0.874  40.507   2.107
46318W        W11479  11.665  41.403  13.276
46319W        W11480  20.225  26.653   0.241
46320W        W11481  36.141  34.362   3.800
46321W        W11482  24.394  13.350  12.516
46322W        W11483  26.552  26.471  10.556
46323W        W11484  16.974  17.775  12.884
46324W        W11485  29.121  11.126  12.540
46325W        W11486   6.280  20.597   3.638
46326W        W11487  21.638  32.985  12.572
46327W        W11488   0.172  13.620   5.480
46328W        W11489  30.020   5.741   3.392
46329W        W11490  17.984  36.249   1.739
46330W        W11491  11.257  37.940  12.210
46331W        W11492  20.214  29.718   3.734
46332W        W11493  42.823  44.208  14.759
46333W        W11494   3.733   5.519  10.955
46334W        W11495  40.983   3.217  13.928
46335W        W11496  43.058  12.395   0.447
46336W        W11497  26.195  14.568   0.672
46337W        W11498  43.500  15.674  14.901
46338W        W11499  35.484  30.918  13.142
46339W        W11500   8.916  28.394   4.198
46340W        W11501  41.395   5.299   3.133
46341W        W11502   7.668  29.102   0.013
46342W        W11503  42.918  21.870  11.558
46343W        W11504   4.362   4.175  11.429
46344W        W11505  41.179   0.784   3.676
46345W        W11506  30.523  22.260  13.712
46346W        W11507  27.617  41.533  10.914
46347W        W11508  39.107  44.739   0.896
46348W        W11509   4.659   8.456   0.392
46349W        W11510   5.178  24.160   1.040
46350W        W11511   9.854  31.901   2.618
46351W        W11512  40.702  41.798  14.442
46352W        W11513   1.142  30.007   0.022
46353W        W11514  29.596  42.966  13.806
46354W        W11515  23.433  22.025  14.014
46355W        W11516  27.280  30.441  13.379
46356W        W11517  42.385  17.258  14.993
46357W        W11518  44.161  26.938   2.822
46358W        W11519  29.153  24.766  13.502
46359W        W11520  18.938  35.583   1.016
46360W        W11521  10.713  19.548   4.445
46361W        W11522  37.725   8.816  12.119
46362W        W11523  30.638  13.160   4.294
46363W        W11524   9.826  21.184  13.846
46364W        W11525  19.174  39.794   2.333
46365W        W11526  13.315  40.363  10.722
46366W        W11527  10.254  41.945  13.319
46367W        W11528   6.972   4.486   4.230
46368W        W11529  23.205  44.820   4.479
46369W        W11530  38.760  39.930   2.415
46370W        W11531  13.735  12.154   4.141
46371W        W11532  20.181  11.385  11.460
46372W        W11533  21.475  37.887  10.614
46373W        W11534  18.249  28.534   4.155
46374W        W11535   7.744  10.180  13.104
46375W        W11536  32.659   2.423  13.361
46376W        W11537   1.674  32.581   4.101
46377W        W11538   5.751  15.642   3.784
46378W        W11539  19.498   2.748   3.246
46379W        W11540  33.698  21.207  12.517
46380W        W11541  38.642  19.572  10.685
46381W        W11542  43.815  43.731  13.280
46382W        W11543  22.527  21.828   3.721
46383W        W11544  21.138  33.528  11.104
46384W        W11545  24.402  25.584  13.326
46385W        W11546  21.119  14.925  13.821
46386W        W11547  25.962  10.816  13.531
46387W        W11548  26.664  37.797   0.995
46388W        W11549   9.918   3.980  10.787
46389W        W11550  20.391  34.398   4.606
46390W        W11551  30.580  41.904  12.549
46391W        W11552  37.481   3.369  14.278
46392W        W11553  42.341  11.915   4.382
46393W        W11554  37.362   1.993   0.372
46394W        W11555  18.543  43.815  11.433
46395W        W11556  19.374  37.898   2.344
46396W        W11557  30.365  30.944  11.951
46397W        W11558  12.744  37.783  11.215
46398W        W11559  11.845  35.764   3.562
46399W        W11560   7.652  12.678   4.811
46400W        W11561  34.884  41.065  14.313
46401W        W11562  35.991  36.624  10.238
46402W        W11563  34.591  42.797  13.849
46403W        W11564  17.686  27.531   2.198
46404W        W11565  20.694  41.493  11.653
46405W        W11566  27.410  26.565  13.112
46406W        W11567  22.984  15.407  14.724
46407W        W11568  19.807  20.527  11.606
46408W        W11569  10.545  22.427   2.572
46409W        W11570   2.396  37.349   3.346
46410W        W11571   3.279  27.542  12.509
46411W        W11572  28.098  43.342  14.999
46412W        W11573  31.420  37.200  11.252
46413W        W11574  15.689  35.041  14.430
46414W        W11575   9.428  24.119  12.013
46415W        W11576  23.195  23.245   4.539
46416W        W11577  27.052  35.163   3.269
46417W        W11578   6.473  30.717   5.007
46418W        W11579  43.427   1.400  14.745
46419W        W11580  27.946  34.198   3.749
46420W        W11581  26.583  20.384   1.649
46421W        W11582  13.489   3.953  11.905
46422W        W11583  16.215   7.184   1.098
46423W        W11584  27.721   7.919  11.926
46424W        W11585  43.929   3.655  10.393
46425W        W11586  37.943  11.132   1.285
46426W        W11587  40.078  15.090  13.579
46427W        W11588  28.729  40.580   4.167
46428W        W11589  14.415  40.743   4.220
46429W        W11590  40.795  11.505  12.573
46430W        W11591  13.303  26.581  12.476
46431W        W11592   2.322  26.515   1.332
46432W        W11593   0.149  40.073   4.167
46433W        W11594   4.069  18.808  13.404
46434W        W11595  34.514  17.684   2.390
46435W        W11596   8.180  34.641  13.343
46436W        W11597   7.803   1.962   2.428
46437W        W11598   2.834  43.058  11.143
46438W        W11599  30.889  26.737   2.826
46439W        W11600  24.722  20.595  13.070
46440W        W11601  38.159  24.287   4.129
46441W        W11602  30.787  19.400   9.964
46442W        W11603  39.340  40.788   0.587
46443W        W11604  42.233   4.445   0.176
46444W        W11605  44.860  24.611   3.927
46445W        W11606   8.179  39.234   4.544
46446W        W11607  40.343   6.859  13.816
46447W        W11608  28.708  34.204   2.743
46448W        W11609   0.365   7.635  14.766
46449W        W11610  19.173  22.128  13.118
46450W        W11611  23.126   4.205   3.229
46451W        W11612  42.392  34.119   0.193
46452W        W11613  30.063   7.357  10.776
46453W        W11614  43.567   2.874   0.973
46454W        W11615  37.638  28.563   1.436
46455W        W11616  32.984   9.807   0.431
46456W        W11617  17.322  42.399  11.862
46457W        W11618   9.110  24.525   0.630
46458W        W11619  13.685  18.531   0.859
46459W        W11620  16.086  32.972   2.339
46460W        W11621  32.176  31.134  14.374
46461W        W11622   8.092  12.773   1.385
46462W        W11623  44.869  33.600   2.595
46463W        W11624   4.722   7.253   1.017
46464W        W11625  22.259  30.396  10.871
46465W        W11626  40.289  28.358   9.341
46466W        W11627  42.438  12.678   3.281
46467W        W11628  41.042  24.132  11.496
46468W        W11629  30.600  36.300  14.445
46469W        W11630   9.483   2.250   4.571
46470W        W11631  39.389  24.319  14.050
46471W        W11632  19.560   6.940   4.507
46472W        W11633  22.723  41.814   4.990
46473W        W11634  20.783  31.223  11.575
46474W        W11635  12.735  16.680  14.008
46475W        W11636   3.648  29.940  10.798
46476W        W11637  34.825  26.700  11.537
46477W        W11638  29.932  27.562   4.189
46478W        W11639  43.940  37.580   1.362
46479W        W11640  21.607   5.489   1.721
46480W        W11641  27.762  17.479   1.416
46481W        W11642  11.438  18.143   4.897
46482W        W11643  39.023  23.027   0.951
46483W        W11644   6.566  36.689  10.677
46484W        W11645   2.650   0.421   4.988
46485W        W11646  14.637  17.769  12.428
46486W        W11647  26.373  21.430   4.486
46487W        W11648  32.149   7.862   0.364
46488W        W11649  21.152  40.915   4.996
46489W        W11650   9.424  13.725   3.673
46490W        W11651  19.370  28.084  12.444
46491W        W11652  32.027   5.977  11.058
46492W        W11653  34.473  36.220   1.454
46493W        W11654  17.522   4.832   4.088
46494W        W11655   0.513  23.762  14.155
46495W        W11656  35.943   3.689  13.389
46496W        W11657  22.786  14.188  12.134
46497W        W11658  23.504  11.652  13.260
46498W        W11659  30.592  21.470  11.604
46499W        W11660  15.537   1.839   4.005
46500W        W11661  16.963   1.165   0.163
46501W        W11662  33.964  12.556  13.854
46502W        W11663  13.622  15.815  14.216
46503W        W11664  20.518  25.574   3.704
46504W        W11665  26.231  41.399  13.768
46505W        W11666  15.412   8.934  13.471
46506W        W11667   5.033   9.756  13.498
46507W        W11668  23.210  33.949   1.180
46508W        W11669  33.940  38.787   3.413
46509W        W11670  27.159  41.042   1.951
46510W        W11671   9.278  13.388   4.933
46511W        W11672  18.570  17.602  12.050
46512W        W11673  27.517  34.825  11.253
46513W        W11674  20.164  19.733   0.385
46514W        W11675   3.888  32.391  10.661
46515W        W11676  15.801  36.183  11.714
46516W        W11677  23.039  19.702  12.408
46517W        W11678   5.412  13.061  14.004
46518W        W11679  41.325  34.153  14.726
46519W        W11680  43.995   2.871   4.629
46520W        W11681  38.369  12.261  14.402
46521W        W11682  11.750  10.405  10.090
46522W        W11683  19.024  42.280  14.310
46523W        W11684  25.197  33.491   0.841
46524W        W11685  20.790  24.956  12.979
46525W        W11686  20.036  14.913  11.774
46526W        W11687   5.292   3.343   4.707
46527W        W11688  26.984  24.918  12.980
46528W        W11689  42.801  41.548   1.381
46529W        W11690  25.641   1.218   2.628
46530W        W11691  12.285  38.578  11.597
46531W        W11692  44.787   6.879  12.818
46532W        W11693   5.314  42.816   3.385
46533W        W11694   3.110  18.265  12.181
46534W        W11695  33.386  23.569  10.166
46535W        W11696  41.745  19.982   4.617
46536W        W11697  21.258  13.487  13.523
46537W        W11698  14.123  12.191   2.206
46538W        W11699  19.080  38.598  12.670
46539W        W11700  31.493   2.701  10.709
46540W        W11701   7.639   3.276   0.910
46541W        W11702  40.944  25.979   0.351
46542W        W11703  29.994  19.644   2.552
46543W        W11704  10.274  30.639   2.766
46544W        W11705  44.247  12.249   1.805
46545W        W11706  42.344   3.724   4.639
46546W        W11707   5.270  27.159   2.272
46547W        W11708  21.558  26.148   4.859
46548W        W11709  44.334  14.673   2.100
46549W        W11710  34.065  26.763   3.697
46550W        W11711  16.625   6.617   2.606
46551W        W11712  39.310  26.196   1.421
46552W        W11713   4.817  44.270   1.828
46553W        W11714   7.775  12.687   0.965
46554W        W11715  18.774  19.903   4.137
46555W        W11716  24.645  28.725  10.976
46556W        W11717   5.874  19.795  14.940
46557W        W11718  26.582   6.415   0.879
46558W        W11719  36.418  39.103   3.646
46559W        W11720   8.698  31.495  10.723
46560W        W11721  12.588  26.913   0.392
46561W        W11722  37.714  17.788  10.422
46562W        W11723  13.412  11.081   3.788
46563W        W11724   6.436  44.411  13.883
46564W        W11725  21.333  26.626   1.825
46565W        W11726   5.130  42.684   2.901
46566W        W11727   7.755  20.510   4.299
46567W        W11728  14.290  33.423  11.907
46568W        W11729   7.327  44.289  11.412
46569W        W11730  44.702   4.547   2.518
46570W        W11731  15.076  23.558  12.812
46571W        W11732  34.376  26.437  14.893
46572W        W11733   4.099   0.541   4.470
46573W        W11734  35.100   9.240   0.103
46574W        W11735  27.528  43.943   4.343
46575W        W11736  22.725  18.080   2.838
46576W        W11737  22.490  31.963   0.349
46577W        W11738  13.625  29.212   3.310
46578W        W11739  14.908   8.289  14.412
46579W        W11740  39.063  23.181   0.462
46580W        W11741  43.027  31.213   4.251
46581W        W11742  15.357  26.991   0.028
46582W        W11743  10.912  25.470  11.650
46583W        W11744  32.625  25.535   0.765
46584W        W11745  34.108  12.705   0.920
46585W        W11746  35.114  14.753   1.031
46586W        W11747   7.879  28.614  13.110
46587W        W11748  14.815  23.645  10.257
46588W        W11749   4.372  11.287   3.158
46589W        W11750   8.461  44.978  12.203
46590W        W11751  12.239  43.850  13.785
46591W        W11752   6.206  21.768   4.601
46592W        W11753   9.866   1.304   1.262
46593W        W11754  37.125   5.546  14.392
46594W        W11755  35.416  42.113  11.115
46595W        W11756   6.280   6.771  12.997
46596W        W11757   6.349   7.333   2.625
46597W        W11758  22.038   8.506   0.922
46598W        W11759  41.756   0.207  11.602
46599W        W11760   2.242  39.996  12.450
46600W        W11761   6.799  23.974  12.632
46601W        W11762  14.565  30.705  12.656
46602W        W11763  43.835  38.816  13.356
46603W        W11764   4.936  40.963   2.971
46604W        W11765  23.392  37.815  10.767
46605W        W11766   4.988  31.432   1.622
46606W        W11767  15.834  29.327  10.980
46607W        W11768  29.284  39.905   4.584
46608W        W11769  24.530  44.717   2.138
46609W        W11770  33.439   6.741   3.124
46610W        W11771  43.943  31.663  13.024
46611W        W11772  30.136  15.834  10.385
46612W        W11773  32.500   6.073  12.601
46613W        W11774  33.774   4.346  13.320
46614W        W11775  25.777   3.671   1.698
46615W        W11776  26.093   2.509   2.893
46616W        W11777   7.269  37.631  13.517
46617W        W11778  11.317  19.034  11.119
46618W        W11779  30.539  41.371  10.316
46619W        W11780  15.291  10.596  13.177
46620W        W11781  19.441  26.638  14.813
46621W        W11782  29.073  22.261   4.103
46622W        W11783  17.003  44.823   3.672
46623W        W11784  12.406  37.488  13.417
46624W        W11785  19.209  34.469  10.773
46625W        W11786   5.278  12.829  10.930
46626W        W11787  37.510  34.325  14.398
46627W        W11788  40.780  13.941  14.069
46628W        W11789  22.058  44.700   1.519
46629W        W11790  10.319  15.101  12.356
46630W        W11791  21.331  24.705  12.557
46631W        W11792  37.222  26.658   4.265
46632W        W11793  29.862   7.870  14.014
46633W        W11794  28.554  30.841  13.576
46634W        W11795  10.263  28.088   2.640
46635W        W11796  25.402   4.888   1.934
46636W        W11797  23.125  13.840   0.734
46637W        W11798  19.527  20.591   4.134
46638W        W11799  39.497  22.614  10.653
46639W        W11800  29.463   1.471   0.240
46640W        W11801  44.998  44.029  11.467
46641W        W11802   2.311  28.442  12.637
46642W        W11803   8.359  13.082  11.137
46643W        W11804  38.847  39.827  11.087
46644W        W11805  10.291  42.277   4.197
46645W        W11806   9.810  37.705  10.702
46646W        W11807  23.746  25.991   0.236
46647W        W11808  14.637  20.091   0.131
46648W        W11809  33.952  36.359   0.851
46649W        W11810  26.455  24.452   2.859
46650W        W11811  16.758  41.175  13.607
46651W        W11812  36.667  20.744   1.214
46652W        W11813  13.753   8.057   4.690
46653W        W11814   8.624  24.976  14.812
46654W        W11815  34.177   1.710   4.291
46655W        W11816  10.496  32.408   0.948
46656W        W11817  25.629   6.485   3.280
46657W        W11818  27.224  24.760   1.001
46658W        W11819  40.929  32.290   0.691
46659W        W11820  38.131  26.484  12.095
46660W        W11821   2.707  15.563  10.288
46661W        W11822  36.739  18.237  12.956
46662W        W11823  20.167   0.472   3.142
46663W        W11824  36.311  23.528  12.988
46664W        W11825  19.065  35.534   3.606
46665W        W11826   6.771   7.393  11.709
46666W        W11827   7.627  38.781   1.376
46667W        W11828   8.452  10.868  10.418
46668W        W11829  28.421  13.398  13.863
46669W        W11830  22.966   5.033  14.289
46670W        W11831  12.455  26.716  12.026
46671W        W11832  41.602   0.806  11.184
46672W        W11833  17.899   3.354   4.500
46673W        W11834  27.698  31.076  12.192
46674W        W11835   4.091  26.556   3.534
46675W        W11836  22.224  26.752   4.747
46676W        W11837  27.689  16.733   0.681
46677W        W11838  35.695  20.091  13.603
46678W        W11839  22.002  27.694  10.744
46679W        W11840   2.915   2.553  13.367
46680W        W11841  10.757  44.379  11.052
46681W        W11842  17.393   5.631  12.875
46682W        W11843  35.386  12.403   3.238
46683W        W11844  33.207  13.708   2.727
46684W        W11845  39.608  24.229  12.829
46685W        W11846  28.255  30.938   2.215
46686W        W11847   7.166   4.884   0.234
46687W        W11848  20.971  17.284   3.225
46688W        W11849   6.587  19.469   1.823
46689W        W11850  15.306  24.040  12.158
46690W        W11851  37.649   0.207  11.165
46691W        W11852  27.774  24.482   9.864
46692W        W11853  13.748   3.791  12.609
46693W        W11854  41.002   3.516  12.940
46694W        W11855  39.339  18.741  12.879
46695W        W11856  17.802   8.197   1.762
46696W        W11857  18.484  21.217   3.634
46697W        W11858  28.802  12.111  13.476
46698W        W11859  38.945  12.128   1.024
46699W        W11860  17.339  21.957  11.655
46700W        W11861   8.104  25.444   2.643
46701W        W11862  41.764  14.970   0.847
46702W        W11863  22.478   8.739   3.392
46703W        W11864  35.141  37.936   0.278
46704W        W11865   8.365   9.744   5.082
46705W        W11866  15.158  35.927  14.297
46706W        W11867  20.134   5.123  12.565
46707W        W11868  44.958  23.804   0.029
46708W        W11869  26.403  32.210   1.714
46709W        W11870   9.300  22.940  10.055
46710W        W11871  15.263  32.974  12.163
46711W        W11872  11.148  16.246  11.912
46712W        W11873  11.612  27.343   4.427
46713W        W11874  44.777  16.397  12.068
46714W        W11875   7.101  35.599  12.479
46715W        W11876  29.731  18.739  12.925
46716W        W11877   2.811   2.566  14.422
46717W        W11878  40.518  12.702   3.312
46718W        W11879  12.847  27.713   4.182
46719W        W11880   7.907  11.782  10.757
46720W        W11881  37.787  10.609  13.954
46721W        W11882  16.590  32.596   0.585
46722W        W11883  44.815  22.181   3.679
46723W        W11884  43.177  30.072  11.489
46724W        W11885  19.514  14.344  12.967
46725W        W11886  13.249  24.413   2.883
46726W        W11887  16.961  17.490   5.306
46727W        W11888  32.977   8.398   0.568
46728W        W11889  25.470  30.191  13.954
46729W        W11890  33.533  39.832  14.043
46730W        W11891  27.747  17.022  14.656
46731W        W11892  38.291  27.575  13.940
46732W        W11893  37.110   0.469  12.318
46733W        W11894  34.273  32.955   0.906
46734W        W11895   1.572  20.721  13.072
46735W        W11896  44.960  34.015  11.502
46736W        W11897  35.084   2.886  13.425
46737W        W11898  27.503   4.472  12.506
46738W        W11899  30.657  24.283   2.784
46739W        W11900   9.335  29.559  11.504
46740W        W11901  15.602  39.437  13.847
46741W        W11902  20.660  42.743  13.451
46742W        W11903  30.077  44.215  10.621
46743W        W11904   2.837  28.509  11.862
46744W        W11905   2.845  29.967  14.528
46745W        W11906   7.006  16.553  12.651
46746W        W11907   2.281  43.200   1.880
46747W        W11908   4.672  16.613   4.169
46748W        W11909  21.057  24.180   4.538
46749W        W11910  37.599  38.102   1.126
46750W        W11911  24.106   9.832  14.562
46751W        W11912   5.660  38.147  10.651
46752W        W11913  31.163  11.857   1.953
46753W        W11914  39.065  24.049  11.594
46754W        W11915  12.009  39.491  10.711
46755W        W11916  26.928   7.172  11.200
46756W        W11917  14.795   0.628   0.631
46757W        W11918  20.244   8.533  14.033
46758W        W11919   9.143  33.226  14.719
46759W        W11920  41.883  15.361   3.331
46760W        W11921   4.888  35.530   2.154
46761W        W11922  40.928  28.617  11.059
46762W        W11923  35.605  34.693  11.020
46763W        W11924   6.372   4.290  11.372
46764W        W11925  31.828  27.110   3.643
46765W        W11926  41.283  25.937  14.957
46766W        W11927  36.370  38.116   2.780
46767W        W11928  35.727  25.079  10.722
46768W        W11929  12.169  16.506  10.766
46769W        W11930  24.565  16.303   4.156
46770W        W11931  33.014  20.347   2.824
46771W        W11932  30.954  39.334  13.288
46772W        W11933   5.802  23.690   1.484
46773W        W11934   5.408   3.880  13.895
46774W        W11935  44.628   8.298  13.316
46775W        W11936  19.146  14.657   1.254
46776W        W11937  26.497   2.291   4.630
46777W        W11938   7.470   4.173  14.816
46778W        W11939  31.856  18.748  10.671
46779W        W11940  40.545  36.508  12.486
46780W        W11941  42.223  26.671   2.350
46781W        W11942  29.525   1.658  10.178
46782W        W11943  34.972  26.647  13.918
46783W        W11944  43.195  43.894  12.597
46784W        W11945  21.962   2.753  13.501
46785W        W11946  14.602  21.711   2.337
46786W        W11947  31.939  43.268   3.393
46787W        W11948   2.772  41.575  12.213
46788W        W11949  17.191  21.614  10.524
46789W        W11950  24.057   4.825  12.218
46790W        W11951  37.852   7.236  13.911
46791W        W11952  23.041   6.416   1.462
46792W        W11953   1.486  25.922  11.126
46793W        W11954   5.857   9.892   0.076
46794W        W11955  18.151  16.312  13.321
46795W        W11956  17.060  27.571   0.789
46796W        W11957  42.265   7.263   4.001
46797W        W11958  19.989  35.974  11.024
46798W        W11959  29.616  31.219   2.868
46799W        W11960  10.438  38.865  11.011
46800W        W11961  13.595   2.637  14.285
46801W        W11962  28.588   7.529   3.236
46802W        W11963  39.637  26.192   0.456
46803W        W11964  18.813   2.459   4.212
46804W        W11965   8.261  13.335   2.778
46805W        W11966  21.182   3.806  14.924
46806W        W11967   0.038  39.998  14.008
46807W        W11968  37.841  44.516  12.789
46808W        W11969  20.059  21.652   1.923
46809W        W11970  40.120  29.913  12.135
46810W        W11971  40.453   5.801  11.234
46811W        W11972   7.944   6.187  12.997
46812W        W11973  17.022   9.727   4.948
46813W        W11974   2.005  26.934   2.789
46814W        W11975  38.893  23.545  14.357
46815W        W11976  36.293  35.616  11.064
46816W        W11977  28.527  35.866  11.166
46817W        W11978  27.917  27.077  12.540
46818W        W11979  34.595  30.953   1.771
46819W        W11980   4.718   5.718  12.008
46820W        W11981  19.278  25.754   4.074
46821W        W11982  19.147  33.015   0.106
46822W        W11983  34.434  25.047  14.667
46823W        W11984  31.161  29.087   2.137
46824W        W11985   4.909  43.951   4.312
46825W        W11986   0.766  14.381  10.861
46826W        W11987  41.489  11.898  13.832
46827W        W11988  17.800   7.398  14.479
46828W        W11989  11.903   4.166  14.836
46829W        W11990  42.420  29.092  14.481
46830W        W11991  27.896   6.014   3.627
46831W        W11992   7.578  34.157   3.327
46832W        W11993  19.871  35.281  14.552
46833W        W11994  21.757  12.965   0.344
46834W        W11995  43.513  21.169  12.965
46835W        W11996  19.634  37.261  14.715
46836W        W11997  14.442   8.990   1.315
46837W        W11998  15.546  37.539  11.185
46838W        W11999   9.208   6.935  10.551
46839W        W12000  34.474  24.001   2.377
46840W        W12001  13.298  12.879  14.578
46841W        W12002  43.027  15.758   3.994
46842W        W12003   5.901  23.919  11.486
46843W        W12004  34.997   2.421  10.639
46844W        W12005   7.762  34.946   1.267
46845W        W12006  13.166  23.635  13.368
46846W        W12007  44.443   0.990   0.988
46847W        W12008   3.557  15.256  14.323
46848W        W12009  36.460   6.792   0.253
46849W        W12010  19.983  22.749   3.369
46850W        W12011  15.561  20.764  14.145
46851W        W12012  10.666  42.001   4.457
46852W        W12013   9.880  23.637  14.427
46853W        W12014   7.345   7.141  12.876
46854W        W12015  35.658  13.786   2.014
46855W        W12016  14.165  40.569   1.385
46856W        W12017  20.668   1.366   1.413
46857W        W12018  15.373  37.698   2.423
46858W        W12019  11.722  19.273   2.780
46859W        W12020  37.977   3.618  14.989
46860W        W12021   5.959  13.589   0.812
46861W        W12022  39.286  17.830  13.424
46862W        W12023  30.692  23.254  11.218
46863W        W12024  33.699  21.659  10.924
46864W        W12025  39.018  36.711   4.715
46865W        W12026  28.140  18.611  13.992
46866W        W12027  10.589  28.241  14.073
46867W        W12028   1.280  15.833  14.837
46868W        W12029  38.552  32.810  14.925
46869W        W12030  31.810  44.790   2.619
46870W        W12031  29.551  11.098  10.904
46871W        W12032   2.224  14.548   0.343
46872W        W12033  28.323  19.030   3.211
46873W        W12034  31.998  31.929   0.404
46874W        W12035  21.541  30.882   4.537
46875W        W12036  33.867  14.912   1.270
46876W        W12037   1.923  28.516   2.874
46877W        W12038   3.747   8.204   2.284
46878W        W12039  16.787   2.531  11.552
46879W        W12040  37.982  20.785   3.275
46880W        W12041  43.788  25.737   0.715
46881W        W12042   6.848  38.824  13.456
46882W        W12043  28.959  26.052   3.190
46883W        W12044   6.649  23.393   1.950
46884W        W12045  11.273  43.785  11.594
46885W        W12046   9.149  25.662  12.647
46886W        W12047  41.974  15.055  13.395
46887W        W12048  35.060  35.002  12.509
46888W        W12049  11.845  38.017   2.304
46889W        W12050  32.474  30.375   0.775
46890W        W12051  14.756  25.910  11.066
46891W        W12052  30.436  15.125  11.581
46892W        W12053  30.559  11.873   2.861
46893W        W12054  34.065  16.640   1.771
46894W        W12055  37.255  31.061  14.378
46895W        W12056   4.799  12.884   4.474
46896W        W12057  34.624  13.648   0.024
46897W        W12058  38.439  42.727   0.778
46898W        W12059  15.419  12.077   0.591
46899W        W12060  43.439  25.985  11.965
46900W        W12061  23.084  12.419   3.156
46901W        W12062  17.727  19.768   2.848
46902W        W12063  12.833   8.635   1.342
46903W        W12064  33.832  19.786   0.903
46904W        W12065   1.344  30.815   1.916
46905W        W12066  33.960  37.995   0.478
46906W        W12067  38.060  10.870  14.360
46907W        W12068  15.708  33.679  14.352
46908W        W12069  34.001  25.546   4.173
46909W        W12070  18.239   6.436  14.864
46910W        W12071  23.633   3.826  10.695
46911W        W12072  27.474  27.546   4.479
46912W        W12073  33.375  23.747  12.631
46913W        W12074  37.012  25.005   0.826
46914W        W12075  28.468   4.428  13.437
46915W        W12076   5.312  26.395  13.107
46916W        W12077  17.744  31.966  12.888
46917W        W12078  23.509  28.004   3.603
46918W        W12079  21.261  36.994  14.450
46919W        W12080  36.538  37.262   9.985
46920W        W12081  14.634  25.215   2.778
46921W        W12082   5.257  18.147   1.383
46922W        W12083   6.076  28.953  13.449
46923W        W12084  36.360  42.878   1.614
46924W        W12085   2.481  19.256   0.898
46925W        W12086  33.975  38.246  10.062
46926W        W12087  28.610  43.344  12.333
46927W        W12088   3.327  31.094  13.365
46928W        W12089   7.796  30.417  12.235
46929W        W12090  15.617  24.219   4.644
46930W        W12091   0.657   3.415   4.353
46931W        W12092  14.757  42.542  12.211
46932W        W12093  31.505  28.393  13.417
46933W        W12094  32.315  18.597  13.285
46934W        W12095  35.652  21.743  13.418
46935W        W12096  43.552  24.690  13.415
46936W        W12097  10.157  42.984   2.161
46937W        W12098   5.438  12.403   1.034
46938W        W12099  44.762  41.478  11.875
46939W        W12100  31.662  17.241   1.014
46940W        W12101  36.400   9.666   0.224
46941W        W12102  16.349  15.782  13.340
46942W        W12103   0.693  18.323  13.286
46943W        W12104  31.347  15.522   1.422
46944W        W12105   8.407  26.946   2.592
46945W        W12106   9.261   5.507  14.843
46946W        W12107  15.801   5.373  11.614
46947W        W12108  14.317   2.762  12.813
46948W        W12109  43.100  34.122  12.886
46949W        W12110  39.933  36.160   0.473
46950W        W12111  33.726  11.235   1.145
46951W        W12112  37.867  31.940  12.360
46952W        W12113  44.455  39.859  12.195
46953W        W12114  18.840  37.451   4.141
46954W        W12115  31.141   5.759  12.587
46955W        W12116  35.091   9.287   2.919
46956W        W12117  44.466   9.421   2.183
46957W        W12118  22.315  33.899   3.577
46958W        W12119   2.019  29.489   1.224
46959W        W12120  15.069  14.343  14.436
46960W        W12121  30.147   6.760  13.639
46961W        W12122  34.482   9.052   0.977
46962W        W12123   2.811  15.413  11.794
46963W        W12124  11.188  44.757  10.720
46964W        W12125   8.579   4.923  10.834
46965W        W12126  41.712  35.608   0.731
46966W        W12127  24.764  42.579  13.860
46967W        W12128  38.367   2.685   1.325
46968W        W12129  38.085  43.120  11.106
46969W        W12130  32.436  12.078  11.011
46970W        W12131  18.948  21.682   5.240
46971W        W12132  37.054   6.213   3.552
46972W        W12133  26.728   7.254  10.732
46973W        W12134   1.344  19.782   3.275
46974W        W12135  24.870  44.930  12.507
46975W        W12136  14.469  10.013  12.252
46976W        W12137   1.361  36.030   4.059
46977W        W12138  30.854  31.074  13.945
46978W        W12139  22.694  13.884   3.724
46979W        W12140  22.580   3.625   2.925
46980W        W12141  12.102   5.152  12.362
46981W        W12142  34.412  16.121  14.103
46982W        W12143  38.321  14.826  13.773
46983W        W12144   6.404  26.643  12.058
46984W        W12145  37.053  20.741   2.450
46985W        W12146   6.229  42.271  14.399
46986W        W12147  43.725  24.259  13.145
46987W        W12148   1.880  32.925  10.819
46988W        W12149  26.444  29.217  14.771
46989W        W12150  34.553  42.479   3.309
46990W        W12151  11.577  26.598  13.916
46991W        W12152  30.470   1.947   2.860
46992W        W12153  33.206   1.741  12.416
46993W        W12154  15.771   2.336   3.826
46994W        W12155  19.105   2.452  12.514
46995W        W12156   8.369  16.750  13.351
46996W        W12157  29.896  22.592  12.530
46997W        W12158  42.934  31.527  10.462
46998W        W12159  39.508  16.267   3.636
46999W        W12160  24.049  42.678  10.733
47000W        W12161   3.768  29.669  12.425
47001W        W12162  23.945  17.161   1.665
47002W        W12163   4.802   9.135  14.777
47003W        W12164  21.819  28.919   2.315
47004W        W12165   5.157  35.962   1.289
47005W        W12166  14.554  40.522   4.716
47006W        W12167  37.372  37.182   3.037
47007W        W12168   3.730  33.285  10.171
47008W        W12169   0.904  16.180   4.551
47009W        W12170  44.383   0.689  11.536
47010W        W12171  12.233  20.173   2.362
47011W        W12172  30.583   8.754  13.960
47012W        W12173  24.964  28.590  12.050
47013W        W12174  24.618  14.464   0.818
47014W        W12175  22.573   1.483  10.991
47015W        W12176  17.028  11.048   2.098
47016W        W12177   1.505  13.778  13.502
47017W        W12178  19.134  10.243  13.958
47018W        W12179  43.304  34.931  13.456
47019W        W12180  38.171  37.886  14.541
47020W        W12181  38.618  21.032  12.805
47021W        W12182  26.275   1.851   2.199
47022W        W12183  32.228  23.482   1.256
47023W        W12184  20.645  40.231   1.388
47024W        W12185  15.633   2.792  12.764
47025W        W12186   8.414  33.617   2.960
47026W        W12187  33.162  24.685   1.719
47027W        W12188  10.236  10.072   0.145
47028W        W12189  17.269  32.314  11.983
47029W        W12190  31.942  38.483  14.981
47030W        W12191  11.817  41.778   3.760
47031W        W12192  25.011   2.910  13.165
47032W        W12193  23.795  39.451   2.301
47033W        W12194   4.483  10.664   3.738
47034W        W12195   9.103   5.303   1.343
47035W        W12196   9.166   8.689  11.759
47036W        W12197  22.322  14.145  12.373
47037W        W12198  39.338  12.195  13.484
47038W        W12199  28.877  15.233  13.978
47039W        W12200  13.532   5.255   1.771
47040W        W12201  32.079   1.451   4.112
47041W        W12202  14.816  28.940   1.882
47042W        W12203   1.043  38.529  12.157
47043W        W12204   0.568  31.222  12.037
47044W        W12205  15.100   7.299   0.165
47045W        W12206  35.526  24.886   3.534
47046W        W12207   2.857  11.405   0.287
47047W        W12208  25.721  28.904   2.268
47048W        W12209  17.743  29.929  11.095
47049W        W12210  17.832   1.396   1.445
47050W        W12211  11.155  21.120  13.329
47051W        W12212   6.806  30.912   4.637
47052W        W12213  23.132  26.052  13.611
47053W        W12214  16.891  31.386  12.468
47054W        W12215  33.723  13.550   1.002
47055W        W12216  11.510   0.220  13.378
47056W        W12217  15.681  32.643  11.471
47057W        W12218  27.025  18.195  13.910
47058W        W12219   4.712   8.483   1.258
47059W        W12220  35.641   7.380   0.972
47060W        W12221   2.699  13.733  13.099
47061W        W12222  33.369  40.950   4.170
47062W        W12223  22.585  27.617   1.384
47063W        W12224   1.455  31.547   2.869
47064W        W12225  37.320   4.337  14.271
47065W        W12226  40.987  24.691  10.776
47066W        W12227  25.753  37.528   1.353
47067W        W12228   7.778  18.053  14.014
47068W        W12229  33.887  20.052   3.786
47069W        W12230  24.251  42.865   2.355
47070W        W12231  18.196  23.248   3.186
47071W        W12232  25.018  38.884  11.975
47072W        W12233  35.308   7.369   1.383
47073W        W12234  17.117   2.160  11.769
47074W        W12235  10.035   4.840   2.782
47075W        W12236  36.291   9.934   0.672
47076W        W12237   4.944  41.954  14.425
47077W        W12238   7.798   0.790  14.216
47078W        W12239  25.145   9.019  10.488
47079W        W12240  38.466  15.080   0.545
47080W        W12241  20.014   4.430   2.789
47081W        W12242   6.240  33.336  12.444
47082W        W12243  26.349  34.034   1.378
47083W        W12244  23.160   1.767   1.641
47084W        W12245  41.705  24.104  10.384
47085W        W12246   9.610  11.658   3.624
47086W        W12247  36.653  27.808   4.313
47087W        W12248   7.788  16.103  10.408
47088W        W12249  26.612  15.211  10.253
47089W        W12250  13.268  28.061  11.648
47090W        W12251  15.491   7.887   4.569
47091W        W12252  18.050  43.805   3.726
47092W        W12253  35.569  36.337   0.358
47093W        W12254  25.419  25.056   4.114
47094W        W12255  10.281   2.275   3.899
47095W        W12256   3.876  21.069  12.352
47096W        W12257  30.037   4.177  14.232
47097W        W12258  39.003   6.751   4.727
47098W        W12259  22.609   8.609  13.332
47099W        W12260  21.972  43.334   3.366
47100W        W12261  32.926  16.985  12.057
47101W        W12262  44.034  44.403   2.954
47102W        W12263  25.787  30.192  12.144
47103W        W12264  33.538  28.870  14.499
47104W        W12265  28.177  21.552  14.777
47105W        W12266  22.142  26.514  12.023
47106W        W12267  17.161  19.665  11.966
47107W        W12268  36.635  44.016   1.070
47108W        W12269   7.153   0.131  11.088
47109W        W12270  29.407   8.447  13.477
47110W        W12271  39.100   7.777   3.148
47111W        W12272   0.911  44.310   4.007
47112W        W12273  41.933   0.226  12.454
47113W        W12274  35.823  38.548   2.183
47114W        W12275   7.365   1.781   2.647
47115W        W12276  42.708  38.833   1.308
47116W        W12277   0.376  10.504   2.399
47117W        W12278  29.880   4.271   3.697
47118W        W12279   2.393  14.433   5.333
47119W        W12280  40.822  11.742  10.804
47120W        W12281  31.148  13.698   3.651
47121W        W12282  10.359  39.446   1.297
47122W        W12283  32.779  32.311   1.020
47123W        W12284   3.703   0.891   3.872
47124W        W12285  34.602   4.155  12.224
47125W        W12286  35.606  36.046  10.685
47126W        W12287  20.605  34.903  13.354
47127W        W12288  26.169   3.969   4.671
47128W        W12289  28.881   8.388  13.396
47129W        W12290  15.675  26.802   3.177
47130W        W12291  35.990  26.221   0.987
47131W        W12292   8.058  27.004  11.135
47132W        W12293   6.866  30.158   9.826
47133W        W12294  10.034  41.250  14.501
47134W        W12295  23.617  13.676   3.777
47135W        W12296   0.792   6.886   0.081
47136W        W12297  22.995  43.503   0.340
47137W        W12298  22.994  18.304   4.585
47138W        W12299   9.533   7.244  12.804
47139W        W12300   9.436  43.768  10.595
47140W        W12301   6.064  21.013   0.410
47141W        W12302  13.889  27.104  13.896
47142W        W12303  39.331  43.972   2.214
47143W        W12304  21.860  25.946   5.245
47144W        W12305  22.988  23.989  13.533
47145W        W12306  22.416  43.772  12.603
47146W        W12307  10.162   2.256   1.505
47147W        W12308  22.200  36.820  11.656
47148W        W12309  40.601  31.661   0.540
47149W        W12310  31.337  38.936   3.681
47150W        W12311  41.378  17.576  11.450
47151W        W12312  22.256  20.250  13.957
47152W        W12313  39.460  36.909   4.534
47153W        W12314  38.918  12.743  11.852
47154W        W12315  20.780  20.143   4.011
47155W        W12316   8.888  35.411  13.795
47156W        W12317  11.869  12.795   2.705
47157W        W12318  35.814  11.639  13.879
47158W        W12319  35.706  18.252  11.848
47159W        W12320  29.039  42.889  10.699
47160W        W12321  15.093  12.700   0.746
47161W        W12322  14.329  42.428  14.876
47162W        W12323  10.676  13.647   2.598
47163W        W12324  36.888   8.408  13.010
47164W        W12325  37.841  12.699   4.706
47165W        W12326  31.992   6.838  14.412
47166W        W12327  26.909   0.005  14.511
47167W        W12328   7.453  15.270  12.973
47168W        W12329  34.203  14.376   1.192
47169W        W12330  16.124  38.196   0.056
47170W        W12331  10.894  32.614   3.046
47171W        W12332  20.170  43.812  11.547
47172W        W12333  36.619  30.094   0.996
47173W        W12334   2.204  23.330   0.430
47174W        W12335  40.466  25.019   1.478
47175W        W12336   7.771   7.161  11.471
47176W        W12337  43.345  10.615   1.822
47177W        W12338   2.279  14.241   3.322
47178W        W12339  41.876  10.104   0.504
47179W        W12340  12.709  12.493  13.389
47180W        W12341  28.008  21.645   3.118
47181W        W12342  37.843  32.609  13.553
47182W        W12343  11.760  16.006  11.190
47183W        W12344   8.878  26.122  14.864
47184W        W12345  14.801  16.758   2.458
47185W        W12346  28.369  28.156   1.806
47186W        W12347   6.459  34.000   0.993
47187W        W12348   9.635  21.596  11.214
47188W        W12349   6.753  29.310  14.299
47189W        W12350  29.413  40.126  10.645
47190W        W12351  29.669  33.144   4.548
47191W        W12352   8.677  29.282  12.037
47192W        W12353  11.696  22.051   4.605
47193W        W12354  18.273  42.559   3.184
47194W        W12355  24.155  37.170  12.294
47195W        W12356  17.339   7.685   1.456
47196W        W12357  28.904  28.254   2.662
47197W        W12358  44.087  31.489   3.314
47198W        W12359  29.301  12.135  13.371
47199W        W12360  14.282  20.770  11.979
47200W        W12361  12.537   9.756   2.215
47201W        W12362  14.610   7.943  11.922
47202W        W12363   9.678  44.903   4.329
47203W        W12364  29.807  21.619   3.209
47204W        W12365  31.658  22.447  13.073
47205W        W12366  35.164  44.813   2.790
47206W        W12367   8.762  12.252   2.330
47207W        W12368   2.690  21.737  12.319
47208W        W12369  39.581  41.586   3.644
47209W        W12370   9.060  38.429   9.826
47210W        W12371   0.181   7.818  10.493
47211W        W12372  34.690   1.163  10.692
47212W        W12373   4.347  33.549  11.963
47213W        W12374  37.522   3.765   2.530
47214W        W12375  32.518  31.638   2.282
47215W        W12376  26.107  25.016  12.560
47216W        W12377  30.864  29.184   4.828
47217W        W12378  28.117  39.168   2.630
47218W        W12379  13.411  34.023  13.551
47219W        W12380  39.328  27.568  10.614
47220W        W12381  11.638  20.644   1.322
47221W        W12382  10.290  24.008   2.386
47222W        W12383  17.361  41.080   3.066
47223W        W12384  23.881  30.434   3.915
47224W        W12385  13.099  24.928  13.898
47225W        W12386  36.794  17.720  10.769
47226W        W12387  10.690  18.477  13.811
47227W        W12388  27.336  41.316   0.694
47228W        W12389   8.973   8.907  13.238
47229W        W12390  17.694   0.920   0.104
47230W        W12391   9.111  27.995   1.263
47231W        W12392   7.288  27.375   1.228
47232W        W12393  22.284  44.245  11.082
47233W        W12394  16.422   5.421  12.041
47234W        W12395  35.396  11.821  12.113
47235W        W12396  19.772   4.201   0.871
47236W        W12397  15.262  12.357  11.621
47237W        W12398  24.569  24.583  14.065
47238W        W12399  36.493  23.187   0.419
47239W        W12400  35.893   1.688  12.354
47240W        W12401   2.792   0.317  11.090
47241W        W12402  18.107  44.853   1.492
47242W        W12403  13.244  23.420   2.935
47243W        W12404  40.370  29.974  14.944
47244W        W12405  43.875  26.193   3.757
47245W        W12406  38.556  17.581  12.995
47246W        W12407  27.490  33.356  14.461
47247W        W12408  19.347   1.501   3.855
47248W        W12409  36.855  13.087  11.969
47249W        W12410  36.563  40.840   3.392
47250W        W12411  27.272  10.829  13.767
47251W        W12412   4.665  44.401  10.701
47252W        W12413  36.850  17.989   2.907
47253W        W12414  30.045  33.163   4.166
47254W        W12415  16.211  36.795   1.929
47255W        W12416   4.258  35.703   4.106
47256W        W12417  36.849  29.481  12.022
47257W        W12418  11.408  27.726   2.550
47258W        W12419  12.370   8.380   3.282
47259W        W12420  36.041  43.287  13.419
47260W        W12421   7.699  22.592  11.959
47261W        W12422  20.313  20.268   4.210
47262W        W12423  43.505   3.155   2.786
47263W        W12424   7.463   8.131  14.042
47264W        W12425  16.788  16.554  13.782
47265W        W12426  29.162   9.314  10.933
47266W        W12427  43.683  31.065  11.538
47267W        W12428  15.325   5.066   3.475
47268W        W12429  38.543  37.469   2.191
47269W        W12430  41.557  35.485  14.916
47270W        W12431  44.796   2.839   4.306
47271W        W12432   5.789  44.240   4.012
47272W        W12433  42.881  39.973   3.312
47273W        W12434   0.210  39.382  13.375
47274W        W12435  37.941   6.045   1.589
47275W        W12436  25.347  40.431  12.697
47276W        W12437  40.259  39.483   1.743
47277W        W12438  44.376   7.476   3.630
47278W        W12439  37.507  36.409  12.644
47279W        W12440   0.304  36.043   2.617
47280W        W12441  40.360  20.733   0.727
47281W        W12442  40.322  10.341   3.745
47282W        W12443  14.302  16.753  12.130
47283W        W12444  28.150  34.190  12.517
47284W        W12445   1.771  19.654  12.153
47285W        W12446  16.970   5.647  12.080
47286W        W12447  44.442  16.066   4.364
47287W        W12448  37.670  43.948  10.090
47288W        W12449  19.066   6.707  13.371
47289W        W12450  16.257   9.226  12.459
47290W        W12451   1.024  13.165  13.039
47291W        W12452  27.065  36.095  12.988
47292W        W12453  14.449  31.489   4.918
47293W        W12454   1.404   9.160  12.868
47294W        W12455  44.372  24.700   4.127
47295W        W12456  20.154  11.931  14.380
47296W        W12457  40.725   4.152   1.804
47297W        W12458  33.075   2.410  10.708
47298W        W12459   2.778  31.344   1.893
47299W        W12460  30.474  22.501  11.503
47300W        W12461  39.842  21.657   3.186
47301W        W12462  21.171  42.354   4.943
47302W        W12463  33.131  11.362  14.893
47303W        W12464  11.334  21.018  11.852
47304W        W12465  28.055  18.054  10.429
47305W        W12466  44.220  31.426   0.925
47306W        W12467  18.081  30.033  11.932
47307W        W12468   4.780   2.493   0.315
47308W        W12469  27.314  33.905  11.909
47309W        W12470  17.629   7.288  12.476
47310W        W12471  38.520  40.631   4.687
47311W        W12472  44.238  44.265  10.066
47312W        W12473   6.672  39.693  12.387
47313W        W12474  30.507  22.738   9.918
47314W        W12475  27.950  13.255  12.876
47315W        W12476   7.711  39.319  11.910
47316W        W12477  27.855  33.369  12.447
47317W        W12478  40.063   9.068  12.067
47318W        W12479  10.784  43.250  13.919
47319W        W12480  21.660  10.491  10.764
47320W        W12481   4.166  17.115  13.042
47321W        W12482  26.198  25.734   2.922
47322W        W12483  38.721  33.036   4.132
47323W        W12484  28.114  22.296   1.234
47324W        W12485  40.880   1.238  13.478
47325W        W12486  36.643  34.629  13.416
47326W        W12487  15.276   0.843   4.282
47327W        W12488  30.631   3.797  10.698
47328W        W12489  13.565  19.516  12.992
47329W        W12490   7.837  14.598  10.386
47330W        W12491  29.802  36.599   2.605
47331W        W12492  16.969  22.451  11.164
47332W        W12493   2.430  40.832   2.618
47333W        W12494  28.381  22.233  13.057
47334W        W12495   1.689   3.232   1.216
47335W        W12496   4.162  23.047   2.199
47336W        W12497  36.656  42.426  10.451
47337W        W12498  29.085   7.915   1.215
47338W        W12499  24.049  21.785   0.510
47339W        W12500  41.211   6.940  10.724
47340W        W12501  35.561  30.091  11.151
47341W        W12502  13.285   0.876  14.868
47342W        W12503  30.095  18.602   2.475
47343W        W12504   6.242  15.338  11.511
47344W        W12505  14.122  32.958  13.911
47345W        W12506  39.482   4.065   0.049
47346W        W12507  17.341  34.369   2.478
47347W        W12508  43.071  43.381  10.915
47348W        W12509  32.072   8.049   2.196
47349W        W12510  26.615  29.874   3.279
47350W        W12511  22.724   2.965   0.298
47351W        W12512   8.856   7.184  11.196
47352W        W12513  18.802  12.104  13.766
47353W        W12514  19.623  36.462  12.218
47354W        W12515  16.232   7.603  11.162
47355W        W12516  19.340  34.823  11.148
47356W        W12517  43.813   3.986   2.504
47357W        W12518  34.304  42.366  13.744
47358W        W12519   5.683  44.356   3.532
47359W        W12520  13.556  42.972   5.032
47360W        W12521  20.606  31.575  13.010
47361W        W12522  29.576  32.784  14.729
47362W        W12523   3.699   2.489  11.557
47363W        W12524  10.431  12.805   3.747
47364W        W12525   3.641  33.513  11.582
47365W        W12526  41.396  16.309   1.422
47366W        W12527  38.063  41.504   2.127
47367W        W12528  35.499  41.443  13.451
47368W        W12529  38.480  38.133  11.439
47369W        W12530   2.967   7.253  12.562
47370W        W12531  31.989  34.178  12.422
47371W        W12532  14.973  21.775  12.415
47372W        W12533  22.561  19.773   3.257
47373W        W12534   6.274   9.630   0.305
47374W        W12535   5.800  10.400   4.814
47375W        W12536  15.390   9.694  13.485
47376W        W12537  33.493  43.737   0.235
47377W        W12538  25.671   8.824  12.821
47378W        W12539  11.536  32.029  12.878
47379W        W12540  25.443  43.030  12.885
47380W        W12541  20.296  33.454   0.783
47381W        W12542  29.431  39.197   4.113
47382W        W12543  16.795  31.030   0.189
47383W        W12544  31.064  23.726  10.821
47384W        W12545  24.967  12.770  11.833
47385W        W12546  28.285  21.205   2.440
47386W        W12547   7.323  42.450   4.248
47387W        W12548  31.624  11.726   4.382
47388W        W12549  24.209  36.661  12.068
47389W        W12550   1.734  15.061   5.550
47390W        W12551  30.485  27.165   0.418
47391W        W12552  29.899   0.182   4.519
47392W        W12553  37.735  14.612   3.366
47393W        W12554  29.233  26.656  12.346
47394W        W12555   1.920  37.913   1.447
47395W        W12556  18.244  31.381  12.147
47396W        W12557  38.196  32.963  11.040
47397W        W12558  10.708  13.778   3.610
47398W        W12559   9.334   0.897  14.845
47399W        W12560   5.235  30.294   3.167
47400W        W12561  40.397  34.972   1.773
47401W        W12562  15.006   9.645  11.205
47402W        W12563  25.573  41.387   5.015
47403W        W12564  32.709  41.125   3.435
47404W        W12565  12.626   6.922   3.212
47405W        W12566  22.387  12.959   9.824
47406W        W12567  26.342  35.953   0.691
47407W        W12568  33.101  10.191  14.642
47408W        W12569   0.729  22.041   3.566
47409W        W12570  10.761  23.462  11.979
47410W        W12571  10.399  44.014   1.887
47411W        W12572  24.362  31.487  11.921
47412W        W12573   5.398   1.006  11.063
47413W        W12574   9.109  42.863   0.482
47414W        W12575   0.203  36.118  13.423
47415W        W12576   9.547  34.776  11.189
47416W        W12577  21.633  31.026   4.053
47417W        W12578  44.452  18.683  14.008
47418W        W12579  15.589  24.923   1.437
47419W        W12580  30.902   8.715   2.377
47420W        W12581   5.339  25.364  12.469
47421W        W12582   2.011  37.045  12.503
47422W        W12583  26.470  20.456  10.810
47423W        W12584  28.413  28.029  11.134
47424W        W12585   8.212  25.704  11.608
47425W        W12586  22.889  29.625  13.657
47426W        W12587  13.395  25.693  11.546
47427W        W12588  25.581  13.423  12.652
47428W        W12589  41.081   8.430   1.860
47429W        W12590   3.298   6.267  12.104
47430W        W12591  44.171  19.296   5.044
47431W        W12592  37.111  11.355  11.217
47432W        W12593  42.055  30.441  13.118
47433W        W12594  38.379  36.551  11.231
47434W        W12595  29.544   9.642  10.987
47435W        W12596   7.843   2.529  11.586
47436W        W12597  40.283  32.046  10.894
47437W        W12598   1.516  26.771  13.020
47438W        W12599  36.550  14.423   4.747
47439W        W12600   1.029  35.798  10.722
47440W        W12601  36.406  31.896  11.577
47441W        W12602  18.714  34.081  12.980
47442W        W12603  18.717  29.711  14.081
47443W        W12604   9.540  22.987   4.581
47444W        W12605   5.492  36.852   3.277
47445W        W12606  10.203   5.194  11.804
47446W        W12607   7.569   9.022   1.451
47447W        W12608  39.520  42.429   4.114
47448W        W12609   4.832  35.222   3.603
47449W        W12610  36.501  36.053   1.013
47450W        W12611  26.746  25.156   0.429
47451W        W12612  27.722   9.161  13.226
47452W        W12613  33.912  14.238  14.796
47453W        W12614  33.462  36.587   0.714
47454W        W12615   0.367  38.325  11.607
47455W        W12616  33.829  17.717   1.724
47456W        W12617  16.962   4.242   2.139
47457W        W12618  37.817  19.731   2.324
47458W        W12619  34.712  19.295  14.280
47459W        W12620  17.254   5.406  14.125
47460W        W12621  44.365  43.202   3.285
47461W        W12622  28.707  23.562   1.270
47462W        W12623  42.843  28.217  12.059
47463W        W12624  37.079  10.763  11.851
47464W        W12625   0.964  40.045  12.540
47465W        W12626  14.676  14.651   3.859
47466W        W12627  17.295  16.533  13.913
47467W        W12628  26.316  20.864   1.714
47468W        W12629  41.236  29.010   2.546
47469W        W12630  29.382  25.540   2.784
47470W        W12631  17.074  34.181  12.032
47471W        W12632  33.249  42.680  14.351
47472W        W12633  12.055  36.923  12.711
47473W        W12634   5.917  33.426   2.827
47474W        W12635  19.802  40.286   1.833
47475W        W12636  38.723  38.001  14.809
47476W        W12637  37.453  11.693   2.706
47477W        W12638  16.732  18.632   2.178
47478W        W12639   8.601  28.779  12.018
47479W        W12640   0.968  29.015   3.069
47480W        W12641  31.702  44.529  11.059
47481W        W12642  34.197  12.720   2.717
47482W        W12643  27.754  19.484  12.853
47483W        W12644  15.253  18.525  12.941
47484W        W12645   1.334  24.191   4.163
47485W        W12646   3.602  33.003  13.577
47486W        W12647  38.358  36.233  13.826
47487W        W12648  10.494  42.916   1.749
47488W        W12649  28.725  29.011  13.466
47489W        W12650  35.150   2.485   2.784
47490W        W12651  20.068  14.243   4.986
47491W        W12652  27.100  22.017  11.459
47492W        W12653  34.380  27.047   2.439
47493W        W12654  17.074  42.367  13.824
47494W        W12655   2.802  13.088   0.963
47495W        W12656  34.459  11.916  14.558
47496W        W12657  29.169  34.819  11.535
47497W        W12658  34.057  34.511  13.348
47498W        W12659   8.400  39.956  11.902
47499W        W12660   9.687   8.353  13.787
47500W        W12661  34.306   1.210   4.248
47501W        W12662  20.579   0.352  12.480
47502W        W12663  11.082  11.836  13.362
47503W        W12664  31.417  34.910  10.599
47504W        W12665  21.918   6.388  10.621
47505W        W12666  20.923  43.936  11.162
47506W        W12667  12.137  14.159   2.400
47507W        W12668  12.244   4.274  13.449
47508W        W12669  13.938  18.449   2.730
47509W        W12670  27.540  41.271   3.198
47510W        W12671  10.227  26.879   2.180
47511W        W12672   2.967  13.658  12.665
47512W        W12673  28.665  19.547   0.429
47513W        W12674   2.887  18.140   1.774
47514W        W12675  21.676  32.878   2.695
47515W        W12676  16.675  37.613   1.411
47516W        W12677   9.807  29.119  14.287
47517W        W12678  28.462  18.005   2.581
47518W        W12679  24.930  20.972   3.127
47519W        W12680  34.365  16.177   2.186
47520W        W12681  24.192  16.808  14.282
47521W        W12682   2.795  30.898   3.316
47522W        W12683  40.750  36.167  12.814
47523W        W12684  41.865  30.516  12.649
47524W        W12685   0.362  22.192   1.694
47525W        W12686  34.904  23.220   1.494
47526W        W12687  26.648  35.033  10.706
47527W        W12688  16.733  30.185   4.740
47528W        W12689  38.646  25.264   0.286
47529W        W12690  36.590  33.321   1.291
47530W        W12691  27.779  10.382  12.397
47531W        W12692  34.664  41.600  10.379
47532W        W12693   6.935  33.129  13.173
47533W        W12694  38.158  18.729  11.600
47534W        W12695  21.301  18.322   4.290
47535W        W12696  43.142   3.907   1.791
47536W        W12697  31.037  18.755   3.569
47537W        W12698  41.378   7.849   3.644
47538W        W12699  20.200   3.930   0.714
47539W        W12700  14.812   0.769   0.091
47540W        W12701  33.987   4.294  14.911
47541W        W12702  12.624  10.597   3.357
47542W        W12703  21.979  32.671  13.036
47543W        W12704   2.318  11.254  12.332
47544W        W12705  12.628   1.603  14.886
47545W        W12706  36.756  19.446   4.733
47546W        W12707  14.302  13.151  12.411
47547W        W12708   5.736   2.147  11.674
47548W        W12709   3.015  26.610   0.596
47549W        W12710  18.760  14.348  14.506
47550W        W12711   2.501  38.329  12.996
47551W        W12712  37.990  43.982   1.691
47552W        W12713  35.796   9.320   4.896
47553W        W12714   6.087  23.971  11.978
47554W        W12715  15.092  42.230  11.902
47555W        W12716  22.258  11.136  11.058
47556W        W12717  20.915  37.337   0.221
47557W        W12718  12.326   1.334   2.880
47558W        W12719   5.807  21.197  10.680
47559W        W12720  21.804  17.112  14.940
47560W        W12721  26.418  44.686   3.581
47561W        W12722  15.275  30.443  12.582
47562W        W12723  24.056  18.989   5.386
47563W        W12724  31.818   6.802  13.919
47564W        W12725  14.044  35.621   0.367
47565W        W12726  32.491  44.246  13.410
47566W        W12727   3.308  40.830   4.372
47567W        W12728  23.979  22.992   0.096
47568W        W12729  37.940  35.643   0.924
47569W        W12730  18.298  17.315   0.942
47570W        W12731  18.588  32.133  10.281
47571W        W12732  39.921  21.482   1.822
47572W        W12733   2.481  16.773   9.904
47573W        W12734  38.884  37.657   1.403
47574W        W12735   5.960  32.140   2.255
47575W        W12736   5.986  32.131  12.020
47576W        W12737   4.040   8.665  14.647
47577W        W12738  22.505  20.289  10.884
47578W        W12739   7.888  31.902   1.888
47579W        W12740  41.093  44.561  12.957
47580W        W12741  14.772  25.416   4.062
47581W        W12742  35.611  19.500   1.281
47582W        W12743  31.825  26.054  13.982
47583W        W12744  15.508  22.749  14.090
47584W        W12745   5.626   5.907  14.486
47585W        W12746  16.490  42.497   1.009
47586W        W12747  10.616  10.423   0.100
47587W        W12748  33.498   0.779  13.510
47588W        W12749  19.666  38.964  11.034
47589W        W12750  39.877  10.710   2.312
47590W        W12751   0.413  44.566   4.767
47591W        W12752   7.468   8.488   1.394
47592W        W12753  42.074   1.421  13.466
47593W        W12754  26.990   3.972  13.825
47594W        W12755   5.340  11.515  13.784
47595W        W12756   8.402  13.418  10.747
47596W        W12757  27.568  23.579   4.050
47597W        W12758  29.157  27.504  14.006
47598W        W12759  10.859  37.619   1.463
47599W        W12760  21.046  30.106   4.613
47600W        W12761   9.348  27.595  14.541
47601W        W12762  19.536  33.320  12.463
47602W        W12763  36.233  42.111   4.519
47603W        W12764   7.916   0.232   3.744
47604W        W12765  16.597  14.088   4.542
47605W        W12766   3.682  32.817  14.084
47606W        W12767  35.637  15.395  13.062
47607W        W12768  34.570  31.191   0.158
47608W        W12769   3.172   5.728  11.288
47609W        W12770  22.258   6.600  12.230
47610W        W12771  19.174  23.014   0.422
47611W        W12772  35.936  29.448  13.448
47612W        W12773  27.528  22.871  12.814
47613W        W12774  28.812  36.028   3.800
47614W        W12775   5.338  15.687   3.049
47615W        W12776  22.087  12.346  14.771
47616W        W12777  35.896   7.095   0.424
47617W        W12778  14.797  22.649   4.776
47618W        W12779   6.255   6.703  10.773
47619W        W12780   3.773  44.240   4.602
47620W        W12781  14.140   3.781  13.031
47621W        W12782  31.432  38.744  14.047
47622W        W12783  12.995  43.338   1.801
47623W        W12784   4.871  42.724   3.686
47624W        W12785  14.140  31.517  10.641
47625W        W12786   2.241  40.671  11.061
47626W        W12787  18.212  30.139   4.471
47627W        W12788  27.386  26.532   4.740
47628W        W12789   9.474   3.765   1.129
47629W        W12790  32.569   3.349  13.262
47630W        W12791   2.394   4.633   3.286
47631W        W12792   0.259  17.569   3.243
47632W        W12793  19.919  36.536  10.490
47633W        W12794  27.817  30.024   4.121
47634W        W12795  16.366   5.306   4.276
47635W        W12796  41.381   0.237  12.001
47636W        W12797   3.139  11.136  11.884
47637W        W12798  29.242  43.886   0.294
47638W        W12799   0.211  12.821   0.948
47639W        W12800  31.584   7.538   4.436
47640W        W12801  33.449  43.724   1.631
47641W        W12802  12.887  23.119   3.153
47642W        W12803  14.303  39.270  14.660
47643W        W12804  28.128  38.811   1.243
47644W        W12805   7.163   7.862   4.088
47645W        W12806  14.252   2.504  13.710
47646W        W12807  17.339  20.737   0.905
47647W        W12808  11.262  28.953   2.309
47648W        W12809  35.506  19.357   4.046
47649W        W12810   0.713  25.122   2.644
47650W        W12811  26.473  25.132  11.333
47651W        W12812  28.562  16.866  13.052
47652W        W12813   3.087  13.094  11.989
47653W        W12814   6.168  36.456   0.873
47654W        W12815   9.887  27.456   1.767
47655W        W12816  37.473  16.671   2.210
47656W        W12817  26.923  14.773  10.333
47657W        W12818  34.116   9.865  11.946
47658W        W12819  11.621  20.036   4.456
47659W        W12820  14.689   7.192  12.158
47660W        W12821  21.689   8.870   3.273
47661W        W12822   3.945  14.585   3.729
47662W        W12823   2.895  26.138  11.948
47663W        W12824  44.853   4.473  13.815
47664W        W12825  20.760  17.590  13.329
47665W        W12826  25.293  32.102   1.137
47666W        W12827  11.047  20.616   3.200
47667W        W12828  31.066  28.902  14.518
47668W        W12829   6.299   3.247  10.156
47669W        W12830  34.614   7.181   1.752
47670W        W12831  16.358  11.747  11.164
47671W        W12832  21.080  31.019  11.976
47672W        W12833  11.397   3.071   0.200
47673W        W12834  28.515  27.499   5.020
47674W        W12835  40.982  42.639   1.378
47675W        W12836  42.623  20.981  14.692
47676W        W12837  27.727   2.733  12.531
47677W        W12838  30.913  42.128   2.438
47678W        W12839  14.849  41.029   3.204
47679W        W12840  25.690  21.325  14.418
47680W        W12841  31.132  21.050   3.123
47681W        W12842  21.556  20.558  14.448
47682W        W12843  25.637   2.259   2.698
47683W        W12844   6.035  31.558   0.688
47684W        W12845  16.132  12.179   0.435
47685W        W12846  34.512  10.177  12.594
47686W        W12847  10.192  41.453  13.058
47687W        W12848  18.524  30.521   0.108
47688W        W12849  28.576  26.383  12.033
47689W        W12850  19.340   0.862  12.556
47690W        W12851  35.817  25.753   1.077
47691W        W12852  38.449  30.755   3.276
47692W        W12853  15.547  23.892   0.001
47693W        W12854  32.523  22.584  11.717
47694W        W12855   2.385  36.350   1.688
47695W        W12856  41.982  26.208   3.312
47696W        W12857  16.778  42.810  12.016
47697W        W12858  17.720  19.799  14.954
47698W        W12859  34.914  27.861   4.495
47699W        W12860  41.361  34.373   1.799
47700W        W12861   0.277  23.535  12.125
47701W        W12862  31.444  13.230   3.260
47702W        W12863  38.977  19.318  11.844
47703W        W12864   9.828  22.195   0.489
47704W        W12865   2.424  40.207  12.882
47705W        W12866  39.294  34.451  12.101
47706W        W12867  15.923   1.690   0.857
47707W        W12868  18.762  11.884  14.755
47708W        W12869  31.076   9.721   2.888
47709W        W12870  25.014  14.776   4.401
47710W        W12871  31.004  11.233  11.100
47711W        W12872  36.497  35.027   1.964
47712W        W12873  40.776   9.567   3.411
47713W        W12874  42.320  12.954   1.504
47714W        W12875  36.099  23.046  12.898
47715W        W12876  11.647  41.927   0.053
47716W        W12877  39.847   2.913  14.466
47717W        W12878  18.217  41.418   0.535
47718W        W12879  25.298  33.548  12.994
47719W        W12880   1.093  10.958   3.241
47720W        W12881   2.813  20.703   1.778
47721W        W12882  10.807  36.061  12.402
47722W        W12883   5.077   3.560   1.374
47723W        W12884   5.664  42.368   2.440
47724W        W12885   6.459   7.637   0.004
47725W        W12886   7.035  36.158  11.393
47726W        W12887  15.228  31.986  13.870
47727W        W12888  15.146  24.486   3.905
47728W        W12889  23.073  12.843  11.971
47729W        W12890   2.196  43.219   2.764
47730W        W12891  14.362  26.241   2.908
47731W        W12892  44.214   7.769  13.919
47732W        W12893   8.364  11.773  12.436
47733W        W12894  33.572  12.739  14.115
47734W        W12895  37.929  34.832   2.220
47735W        W12896  16.771  10.163  11.044
47736W        W12897  11.865  31.336   0.311
47737W        W12898  18.663  20.129   0.304
47738W        W12899  42.069  29.026  14.915
47739W        W12900  40.526  29.052  14.906
47740W        W12901   8.430   4.668  14.761
47741W        W12902  30.550   8.851  11.161
47742W        W12903  18.537  33.302  12.549
47743W        W12904  36.382  24.977   4.209
47744W        W12905   3.091  27.158  12.814
47745W        W12906  30.014  20.230   3.234
47746W        W12907   4.374  26.749   1.719
47747W        W12908  40.052  18.193   4.559
47748W        W12909  42.817   9.074  11.625
47749W        W12910   4.221  21.616   4.357
47750W        W12911  11.101  25.651   0.920
47751W        W12912  37.370  16.569  14.774
47752W        W12913  34.927   4.826   0.245
47753W        W12914   7.558  22.435  11.106
47754W        W12915  27.215  33.862  10.420
47755W        W12916  34.466  44.792  11.670
47756W        W12917   6.045  43.972   3.601
47757W        W12918  33.570   2.820   2.203
47758W        W12919  22.076  16.907  14.500
47759W        W12920  21.778  30.463  10.764
47760W        W12921  36.805   1.345  13.622
47761W        W12922  25.987  22.226   0.707
47762W        W12923  17.496  13.930   4.565
47763W        W12924  26.553  16.239  12.881
47764W        W12925  42.395  24.897   3.582
47765W        W12926  12.691  25.464  12.121
47766W        W12927  16.036  40.090  14.828
47767W        W12928   0.768  29.500  11.636
47768W        W12929  32.874  22.762   1.814
47769W        W12930  37.330  16.357   0.774
47770W        W12931  17.932  43.110  12.871
47771W        W12932   9.260  16.620  13.355
47772W        W12933  29.708  11.750   3.593
47773W        W12934  14.681  34.469   1.827
47774W        W12935  12.067  16.538   1.690
47775W        W12936  16.788  44.457   4.542
47776W        W12937  34.867  20.517  12.508
47777W        W12938  21.157  18.813  14.818
47778W        W12939  17.579  40.278  12.787
47779W        W12940  13.933  22.269   3.349
47780W        W12941  21.774  15.240  13.999
47781W        W12942  11.761   5.901  12.842
47782W        W12943  32.324  20.691   2.221
47783W        W12944  22.114  22.197  11.805
47784W        W12945  22.946   6.491  10.715
47785W        W12946  41.792   3.229  11.615
47786W        W12947  28.594   3.027  10.658
47787W        W12948   6.372   8.661   3.751
47788W        W12949   4.274  20.971   0.035
47789W        W12950  12.378  12.645  12.400
47790W        W12951   4.776  23.108  10.242
47791W        W12952   3.719  17.108  11.966
47792W        W12953  39.949  18.223   0.813
47793W        W12954  27.874  30.393  11.357
47794W        W12955  14.735  36.018  11.683
47795W        W12956  16.982  31.985   3.641
47796W        W12957  10.435  35.342  14.325
47797W        W12958  29.103  42.436  12.724
47798W        W12959  16.665  29.033   1.157
47799W        W12960  26.326  39.954  12.949
47800W        W12961  41.224  38.118   3.290
47801W        W12962   1.223  37.182  14.453
47802W        W12963  15.704   4.845   4.609
47803W        W12964  21.580  26.946  10.707
47804W        W12965  13.896   8.935  13.983
47805W        W12966  35.500   6.099  11.066
47806W        W12967   1.970  24.050  11.031
47807W        W12968   6.809   8.142   3.041
47808W        W12969   2.011  13.232  12.010
47809W        W12970   5.317  18.680   4.165
47810W        W12971  31.279  19.535  12.613
47811W        W12972  22.759  18.000   4.208
47812W        W12973  41.935  26.676  10.286
47813W        W12974  19.362  37.660  11.570
47814W        W12975   1.932   4.853   3.235
47815W        W12976   3.666  10.338   4.580
47816W        W12977  25.857  13.029  10.719
47817W        W12978  17.257  40.328  11.608
47818W        W12979  10.344  41.003  13.303
47819W        W12980   7.717  10.228   1.784
47820W        W12981  40.572   1.245  11.983
47821W        W12982  37.050  14.947   0.522
47822W        W12983  36.567  31.775   2.462
47823W        W12984  30.934   6.331  13.828
47824W        W12985  22.165  16.564  10.960
47825W        W12986   4.880  40.652  14.915
47826W        W12987  17.093  12.574  10.271
47827W        W12988  43.311   5.506   4.056
47828W        W12989   4.964  38.324   3.284
47829W        W12990  40.109  36.382   2.454
47830W        W12991  10.649  41.449   5.291
47831W        W12992  40.148  35.709   1.302
47832W        W12993  44.303  26.451   0.498
47833W        W12994  28.876  10.130  11.525
47834W        W12995  24.635   8.902   2.434
47835W        W12996  15.401  16.943  13.083
47836W        W12997  10.817  34.362  13.502
47837W        W12998  13.044   3.713   0.333
47838W        W12999  17.706  32.081  12.046
47839W        W13000  29.925  37.277  12.123
47840W        W13001  42.969  12.671   1.775
47841W        W13002  31.653  26.663   4.125
47842W        W13003  32.421  36.281  13.749
47843W        W13004  23.500  36.081   1.270
47844W        W13005  41.323  41.134   3.194
47845W        W13006  40.482  24.273   3.353
47846W        W13007  23.173  19.008  11.688
47847W        W13008  16.134  21.261   0.915
47848W        W13009   3.633   0.695  10.516
47849W        W13010  19.566  22.518   3.188
47850W        W13011  37.691  33.085  13.495
47851W        W13012  13.361  28.079   1.762
47852W        W13013  10.038  18.293   4.527
47853W        W13014  37.409  33.601  12.093
47854W        W13015  44.856  17.863  11.143
47855W        W13016   4.377   1.030   1.838
47856W        W13017  30.452   3.226   5.135
47857W        W13018  35.520  26.718   3.521
47858W        W13019  25.161   4.813   4.836
47859W        W13020  28.097   9.823   4.654
47860W        W13021   4.156  38.738  13.455
47861W        W13022   6.681  26.773  13.445
47862W        W13023   0.355  40.749   3.715
47863W        W13024   3.738  19.166  13.576
47864W        W13025  23.115  43.018   4.517
47865W        W13026  12.542  27.429   3.889
47866W        W13027  42.077  22.665  13.861
47867W        W13028  26.947  10.303  12.192
47868W        W13029  25.207  34.920   0.729
47869W        W13030  23.982   6.213  12.957
47870W        W13031  23.522   7.265   3.248
47871W        W13032  15.198  23.024  12.065
47872W        W13033   0.315   5.210  12.995
47873W        W13034  39.118   6.665   2.276
47874W        W13035  16.670  14.054  12.242
47875W        W13036  33.925   9.192  14.009
47876W        W13037  10.881  32.758   2.533
47877W        W13038  26.451  13.212   3.791
47878W        W13039  43.380  27.116   0.850
47879W        W13040  43.869  34.473   0.880
47880W        W13041  43.772  16.144  14.907
47881W        W13042  15.627  29.536   4.570
47882W        W13043  21.040  40.925   0.293
47883W        W13044  44.031  13.587   3.310
47884W        W13045  17.992   6.911  10.806
47885W        W13046  13.315  23.490   1.336
47886W        W13047  37.554  24.549  14.759
47887W        W13048   1.981  43.363   3.634
47888W        W13049  31.451  41.320   0.897
47889W        W13050  40.310   9.339   1.282
47890W        W13051  25.636   9.922  13.572
47891W        W13052   2.839   8.663   2.914
47892W        W13053  34.818  11.186  10.756
47893W        W13054   6.290  33.330  10.713
47894W        W13055   1.367  31.673  10.559
47895W        W13056  41.505  29.948   4.197
47896W        W13057  34.535   1.391   4.687
47897W        W13058   8.147  39.960   4.038
47898W        W13059  38.874  28.664   2.351
47899W        W13060  11.118  39.150   4.696
47900W        W13061  10.169   8.243  10.642
47901W        W13062  38.484  20.074  11.460
47902W        W13063  36.788  38.958   0.000
47903W        W13064   2.697   4.344   2.915
47904W        W13065   0.728  42.865   2.677
47905W        W13066  17.238   5.204   3.711
47906W        W13067  39.292  34.860  14.271
47907W        W13068  32.574  33.789  13.502
47908W        W13069  21.348  23.770  11.465
47909W        W13070   2.292   7.591  14.246
47910W        W13071  36.515  19.375   3.228
47911W        W13072  16.147   1.995  14.819
47912W        W13073  15.267  36.389   1.727
47913W        W13074  35.140  27.100  11.371
47914W        W13075  39.081  21.224   4.502
47915W        W13076  11.119  42.831   4.161
47916W        W13077  38.286  18.267   2.637
47917W        W13078  23.768  36.855   1.723
47918W        W13079  14.270  21.509   0.445
47919W        W13080  11.358  21.102   2.545
47920W        W13081   2.993  12.321  13.514
47921W        W13082  21.822  40.581   0.232
47922W        W13083  32.956  14.522  13.768
47923W        W13084  21.210  16.325   5.116
47924W        W13085   0.006  18.887  11.279
47925W        W13086  30.608  41.324  10.831
47926W        W13087   3.009   5.940   1.355
47927W        W13088  23.717   9.421   2.235
47928W        W13089   2.922  41.678   3.281
47929W        W13090  34.077  37.896  10.442
47930W        W13091  29.677  17.387   4.118
47931W        W13092  38.003   1.822  11.121
47932W        W13093   4.437  21.973  14.809
47933W        W13094  30.685  32.235  11.021
47934W        W13095   5.862  44.918  12.601
47935W        W13096  12.982  37.519   0.394
47936W        W13097  10.811  41.182   3.475
47937W        W13098  13.278   8.945   5.019
47938W        W13099   9.059  29.460   3.237
47939W        W13100  27.300  32.351   1.344
47940W        W13101  29.188  35.174  14.483
47941W        W13102  39.487  16.676   0.255
47942W        W13103   0.746   7.256  14.676
47943W        W13104   2.299  11.892   0.735
47944W        W13105  11.119  41.775   2.714
47945W        W13106  38.731  30.463   0.749
47946W        W13107  25.647  37.170  11.121
47947W        W13108  12.883  21.674   4.694
47948W        W13109  43.461  15.013   1.029
47949W        W13110  34.223  32.919  11.447
47950W        W13111  40.121  42.518  13.101
47951W        W13112  32.746  30.064   2.618
47952W        W13113   4.507  16.190  12.119
47953W        W13114  26.545  22.791  14.534
47954W        W13115  17.709   4.638   2.546
47955W        W13116  40.596   9.892  14.912
47956W        W13117  36.648  41.759   2.806
47957W        W13118   8.234  41.878   2.821
47958W        W13119   6.409   8.240   2.716
47959W        W13120  39.578   6.194   0.715
47960W        W13121  29.027   8.781  11.498
47961W        W13122  11.441   3.747  13.271
47962W        W13123  35.922   1.234  12.596
47963W        W13124   5.767  37.533   4.597
47964W        W13125  13.770  19.122   3.363
47965W        W13126  27.095  30.968   0.220
47966W        W13127  20.057  39.272   2.868
47967W        W13128   8.273  29.488   0.776
47968W        W13129  40.854  14.128   0.222
47969W        W13130   8.762  24.836   9.826
47970W        W13131  20.173   7.906  12.394
47971W        W13132  18.733  41.916   0.710
47972W        W13133  44.994   2.820   3.051
47973W        W13134   5.441  20.487  10.678
47974W        W13135  44.383  36.942  11.632
47975W        W13136  26.932  30.897   5.032
47976W        W13137  25.212  42.888   4.178
47977W        W13138   5.825   9.361   0.272
47978W        W13139  26.103   1.287  11.135
47979W        W13140  12.389   7.481  13.807
47980W        W13141  12.582   0.228  11.894
47981W        W13142   6.897   6.996   1.907
47982W        W13143  21.836  31.050  11.426
47983W        W13144  41.286  34.602   0.016
47984W        W13145  23.601  25.794  13.444
47985W        W13146  21.049  38.963  13.115
47986W        W13147  23.649  16.252   9.801
47987W        W13148  12.777  14.597  11.860
47988W        W13149   4.743  17.801  13.535
47989W        W13150   0.443  40.208   4.603
47990W        W13151  17.270  39.549  14.876
47991W        W13152  31.584  32.165   2.910
47992W        W13153  44.453  36.549  14.957
47993W        W13154   4.384  16.181  14.552
47994W        W13155  39.008   3.812  13.906
47995W        W13156   4.530  34.106   1.663
47996W        W13157  30.119  22.015   0.846
47997W        W13158  15.111  34.111  10.575
47998W        W13159  25.091  28.000  14.878
47999W        W13160  39.429  12.354   0.305
48000W        W13161  24.203  19.576   2.326
48001W        W13162   1.741  21.613   1.314
48002W        W13163   3.889   5.427  12.991
48003W        W13164  11.302   0.919  13.918
48004W        W13165  20.332  40.394  13.345
48005W        W13166  15.142  20.035   0.246
48006W        W13167  14.480  37.121   4.870
48007W        W13168  23.710  12.888   0.333
48008W        W13169  17.330  28.753  13.215
48009W        W13170   8.179  33.881  12.030
48010W        W13171  10.840   9.288   5.156
48011W        W13172  31.226  16.840  11.483
48012W        W13173  34.512  20.119  14.139
48013W        W13174  23.247  14.357  12.348
48014W        W13175  16.806  16.952  13.462
48015W        W13176  37.299  25.680  12.941
48016W        W13177   5.900  18.965   1.760
48017W        W13178  38.699   9.799   1.376
48018W        W13179  12.969  40.239   0.299
48019W        W13180  27.539  43.913  13.990
48020W        W13181   0.715   4.900  11.839
48021W        W13182  12.655  28.916  12.655
48022W        W13183  21.898  21.547  13.840
48023W        W13184  13.044  23.132   4.575
48024W        W13185   5.345  25.465  10.917
48025W        W13186   9.330   2.558   1.367
48026W        W13187  25.702  11.123  12.362
48027W        W13188  33.097  25.244  11.540
48028W        W13189  29.260   8.864   2.669
48029W        W13190   2.160  42.016   4.041
48030W        W13191  13.515  38.444   3.193
48031W        W13192  13.440  38.477   2.255
48032W        W13193  30.568  23.439   3.916
48033W        W13194   4.715  22.832  14.063
48034W        W13195  39.472  32.686   3.133
48035W        W13196   4.892  41.389   2.653
48036W        W13197   9.254  16.689  10.836
48037W        W13198   1.262   7.366   1.810
48038W        W13199  21.662  32.436  10.810
48039W        W13200  29.540   2.724  13.449
48040W        W13201  12.825  36.603  11.942
48041W        W13202  30.612  30.505  10.736
48042W        W13203   6.656   8.085   3.670
48043W        W13204  32.740   4.644   1.802
48044W        W13205  20.690  32.534   4.922
48045W        W13206  41.420  29.142   3.544
48046W        W13207  11.293  33.122   2.271
48047W        W13208   3.413  11.617  14.182
48048W        W13209  28.825   7.125  11.940
48049W        W13210  33.099  41.937  13.293
48050W        W13211  36.560  39.973  10.738
48051W        W13212  39.084  39.445   0.809
48052W        W13213  36.631  40.435  12.469
48053W        W13214   6.446   1.758   0.849
48054W        W13215  15.379  21.478  12.577
48055W        W13216  36.645  27.975   9.880
48056W        W13217   7.657  26.820   4.939
48057W        W13218   9.178  20.362  12.657
48058W        W13219  44.923  20.800  11.963
48059W        W13220  30.048  16.087  12.586
48060W        W13221  21.269  13.895   3.647
48061W        W13222  16.103  23.790   0.735
48062W        W13223  22.600  17.088   2.419
48063W        W13224  24.259   8.652  11.604
48064W        W13225   4.356   5.272   2.665
48065W        W13226  26.845  13.852  11.271
48066W        W13227   0.470  35.887   1.624
48067W        W13228  15.614  30.382  14.001
48068W        W13229  41.232  36.867  14.329
48069W        W13230  44.267  39.132   2.605
48070W        W13231  11.234  36.328  11.360
48071W        W13232  34.112   6.273   4.438
48072W        W13233  26.934  11.371  14.269
48073W        W13234  22.674  27.926   4.286
48074W        W13235  34.961  18.040  11.193
48075W        W13236  29.891  23.582   2.638
48076W        W13237  24.041  19.790  10.921
48077W        W13238  20.433   9.257  14.854
48078W        W13239   8.262   7.126  14.041
48079W        W13240  33.007  24.321   3.115
48080W        W13241   8.257  30.886   4.090
48081W        W13242  24.185  12.880   4.640
48082W        W13243  10.828  16.198   2.379
48083W        W13244   2.893  21.542   0.292
48084W        W13245  39.566   4.464   3.691
48085W        W13246  37.934  32.171  10.824
48086W        W13247  20.460  16.701   2.399
48087W        W13248  42.770  28.584  13.354
48088W        W13249  34.324  21.344  12.000
48089W        W13250  20.726  25.183   1.328
48090W        W13251  27.983  38.621  14.805
48091W        W13252  11.587   3.091   1.511
48092W        W13253  10.587  29.924  11.457
48093W        W13254  15.145  40.122  13.629
48094W        W13255  28.146  41.251  12.202
48095W        W13256  10.688   0.663  12.477
48096W        W13257  39.284   9.341  12.429
48097W        W13258  35.440  12.687   3.680
48098W        W13259  38.498  28.431   1.894
48099W        W13260  37.984  17.615  12.353
48100W        W13261  10.395   6.770  11.266
48101W        W13262  22.729   6.357  12.999
48102W        W13263  35.056  16.486  12.485
48103W        W13264   6.442  14.053  12.000
48104W        W13265  22.278   6.724  11.339
48105W        W13266  21.564   6.977  14.462
48106W        W13267  29.547   0.246   1.702
48107W        W13268  28.464   3.304   0.680
48108W        W13269  31.390   2.790  12.535
48109W        W13270  21.043  12.953  10.802
48110W        W13271  37.197   6.726  12.490
48111W        W13272  25.552  14.655  13.002
48112W        W13273   2.663  33.656   4.111
48113W        W13274  19.054  42.931  11.151
48114W        W13275  24.929   9.153  14.370
48115W        W13276  40.922  36.823   1.751
48116W        W13277  38.480  28.075  10.771
48117W        W13278  38.552  16.170   4.053
48118W        W13279   5.431   0.417   3.641
48119W        W13280   2.990  28.971   1.964
48120W        W13281  34.564  36.795   0.296
48121W        W13282  32.057  21.106  11.119
48122W        W13283  42.972  14.375  11.389
48123W        W13284   2.056   2.452   2.153
48124W        W13285  42.149  40.610   4.096
48125W        W13286  31.674   1.950   3.139
48126W        W13287  23.079  22.935   0.369
48127W        W13288  13.415  12.106   1.425
48128W        W13289   7.131   6.234  14.073
48129W        W13290  14.577  23.674  14.080
48130W        W13291  10.955  18.342   3.295
48131W        W13292  35.163  15.843   1.871
48132W        W13293  35.150  28.412  11.399
48133W        W13294  29.168  33.874   3.318
48134W        W13295  38.887  36.350  12.960
48135W        W13296  25.254  42.949   3.258
48136W        W13297  25.973  35.480   3.897
48137W        W13298  10.676  27.017   3.259
48138W        W13299  23.535  11.980   0.628
48139W        W13300  32.572  10.997   3.820
48140W        W13301  42.450  33.168   2.658
48141W        W13302  19.791  17.070   0.728
48142W        W13303  36.445  11.647   2.894
48143W        W13304  22.587  22.307  12.497
48144W        W13305  38.546   8.245  11.939
48145W        W13306  20.143  44.828   3.743
48146W        W13307  23.941  23.938   4.149
48147W        W13308   7.769  38.791  11.758
48148W        W13309   0.376  37.565   1.018
48149W        W13310  17.158  21.183  14.377
48150W        W13311  26.619   0.881   2.233
48151W        W13312  19.829  14.263   2.162
48152W        W13313  11.205  26.764  13.004
48153W        W13314  26.499   7.103  12.909
48154W        W13315  25.628  25.002   2.355
48155W        W13316  17.669  15.080   0.617
48156W        W13317   4.827  34.052   2.491
48157W        W13318  30.748  37.754   2.269
48158W        W13319   2.344  40.805   3.167
48159W        W13320  39.353  36.405   1.413
48160W        W13321  42.061  14.412   2.950
48161W        W13322   7.157  29.438   0.295
48162W        W13323  42.922  11.382  11.124
48163W        W13324  24.128  11.187  13.547
48164W        W13325   3.270  20.512   1.648
48165W        W13326  12.069  20.728  13.698
48166W        W13327  28.463  15.615   0.378
48167W        W13328  16.369  37.939  12.015
48168W        W13329  10.903   8.441   2.820
48169W        W13330  36.590  37.811  10.607
48170W        W13331  36.004   4.721   1.321
48171W        W13332  43.917  37.511   2.251
48172W        W13333  36.999  38.486  13.823
48173W        W13334   8.425   9.702  13.782
48174W        W13335  10.219   1.265  13.003
48175W        W13336  36.963  19.690  13.677
48176W        W13337  31.001  31.530   1.373
48177W        W13338  35.148   0.473  14.584
48178W        W13339  36.386  16.209   2.325
48179W        W13340  42.508  22.114   0.766
48180W        W13341   6.909  25.602   0.984
48181W        W13342  28.950   5.944   3.887
48182W        W13343  24.660  34.288  13.855
48183W        W13344   3.406  35.036   0.448
48184W        W13345   7.831  38.418  10.939
48185W        W13346  28.912  26.045   0.856
48186W        W13347  11.133   3.785   1.959
48187W        W13348  28.605  11.669   4.099
48188W        W13349  39.910   3.568   3.592
48189W        W13350  28.571  16.734   4.434
48190W        W13351  15.102  15.702  12.908
48191W        W13352  28.000   5.466   4.583
48192W        W13353   1.778  37.278  12.018
48193W        W13354   3.705  31.211   4.750
48194W        W13355  29.696  26.055  12.829
48195W        W13356  25.472   9.630   5.444
48196W        W13357   1.948  44.739   3.723
48197W        W13358  26.878  40.543  14.966
48198W        W13359  19.064  24.215  13.658
48199W        W13360  15.273  15.521   1.989
48200W        W13361  39.568  31.206   3.694
48201W        W13362  34.341  28.626  11.109
48202W        W13363  23.203  30.052  11.763
48203W        W13364  10.694  44.770  14.001
48204W        W13365  29.942  12.727  12.823
48205W        W13366  13.195  17.262   2.774
48206W        W13367  13.224   6.641  12.406
48207W        W13368   0.191  20.205   1.869
48208W        W13369   8.612   5.374  11.158
48209W        W13370  16.112   3.425  14.965
48210W        W13371  36.932  36.127   4.434
48211W        W13372  30.345  26.869   2.185
48212W        W13373  15.669  18.832   4.182
48213W        W13374  10.220  28.098  14.851
48214W        W13375  33.771  38.231  10.699
48215W        W13376  36.149  32.133  12.981
48216W        W13377  43.387   8.295   2.920
48217W        W13378   2.422   1.656   4.421
48218W        W13379   9.620  44.804   4.838
48219W        W13380  27.950  38.945  11.251
48220W        W13381  13.322   8.929  14.972
48221W        W13382  34.525  23.234  12.383
48222W        W13383  41.407  13.862   2.715
48223W        W13384  16.297  44.719   0.884
48224W        W13385  33.443  31.072   1.332
48225W        W13386   6.683   5.951   1.884
48226W        W13387   1.007  28.733  11.085
48227W        W13388  20.705  39.176   0.280
48228W        W13389  24.040  25.761  14.121
48229W        W13390   3.168  39.604  12.815
48230W        W13391   6.612   9.366   0.655
48231W        W13392   6.896  37.355  14.437
48232W        W13393  34.553  25.346  13.809
48233W        W13394  27.140  23.226   0.703
48234W        W13395  35.931   3.615   2.127
48235W        W13396  14.320  33.890   3.900
48236W        W13397   4.682  24.646   2.355
48237W        W13398  38.767  20.389  13.314
48238W        W13399  29.109  36.019   4.276
48239W        W13400   1.847   4.479  14.803
48240W        W13401  41.446  27.836  13.505
48241W        W13402  44.403   5.134   2.372
48242W        W13403  21.934  36.967   3.645
48243W        W13404  38.541  21.231  13.306
48244W        W13405  36.813  17.193  10.792
48245W        W13406  21.246  17.770  11.753
48246W        W13407   1.298  10.238   3.905
48247W        W13408  42.098   5.349   1.914
48248W        W13409  27.643   4.671  11.667
48249W        W13410  37.558  17.009   0.363
48250W        W13411  39.545   1.981   0.808
48251W        W13412   6.644  19.744   1.389
48252W        W13413  11.329  38.426   1.140
48253W        W13414  43.028  44.821   4.626
48254W        W13415  25.429  17.343  14.375
48255W        W13416  43.072  14.112   1.961
48256W        W13417  39.333  28.581   3.275
48257W        W13418  10.764   1.337   1.952
48258W        W13419  20.589  24.831   0.452
48259W        W13420  21.151  41.232   2.960
48260W        W13421  20.022  16.647  14.968
48261W        W13422  13.479  37.273  12.244
48262W        W13423  36.690  39.459   2.720
48263W        W13424   3.233   9.664  12.153
48264W        W13425   0.894  30.635  13.334
48265W        W13426   0.375  33.877   3.768
48266W        W13427  11.276  34.454   3.244
48267W        W13428   7.305  10.864  13.576
48268W        W13429   1.961   4.297  10.704
48269W        W13430  44.504  22.035   2.732
48270W        W13431  24.218   9.713   3.906
48271W        W13432   3.020  19.626  13.321
48272W        W13433  25.468  34.605   1.348
48273W        W13434  34.789   7.195  12.073
48274W        W13435  23.283  35.210   3.601
48275W        W13436  19.600   1.379   4.550
48276W        W13437  11.956   6.874  12.683
48277W        W13438  27.596  20.792  12.304
48278W        W13439  20.645  30.460  12.038
48279W        W13440   0.925   3.428  10.159
48280W        W13441  44.181  21.189  15.000
48281W        W13442  19.724   6.675   2.759
48282W        W13443  44.934  36.582   0.381
48283W        W13444  20.251  21.737  14.970
48284W        W13445   9.396  27.289   0.625
48285W        W13446   6.563  27.009  14.865
48286W        W13447   6.602  15.716  12.443
48287W        W13448  14.917  17.869   0.786
48288W        W13449  21.030  13.273   0.785
48289W        W13450   4.379  18.968   3.228
48290W        W13451  25.286  37.655  12.218
48291W        W13452  37.079  38.771   3.685
48292W        W13453  12.499  18.815   0.945
48293W        W13454   7.280   8.922   4.987
48294W        W13455   6.616  36.425   1.819
48295W        W13456  38.282   1.648   1.390
48296W        W13457   8.423   8.699  13.507
48297W        W13458  14.518  23.699   1.451
48298W        W13459  42.684  28.724  11.032
48299W        W13460  19.046  40.558  12.709
48300W        W13461  12.548  23.598  14.001
48301W        W13462  25.228  39.797   4.062
48302W        W13463  41.065  29.680   4.194
48303W        W13464  30.462  26.037   2.179
48304W        W13465   3.163   8.630  13.512
48305W        W13466  19.327  11.270   2.166
48306W        W13467  38.904  18.347   2.345
48307W        W13468  32.624   8.276   3.289
48308W        W13469  12.823   3.898   4.319
48309W        W13470  10.411  41.576   2.276
48310W        W13471   7.135  16.598   3.341
48311W        W13472  11.229  22.610   2.708
48312W        W13473  33.920  22.474  11.913
48313W        W13474   8.484  31.475  10.256
48314W        W13475  40.837  28.263  12.742
48315W        W13476  35.989  21.928  12.019
48316W        W13477   4.265  31.680  11.146
48317W        W13478   4.142  15.830  11.973
48318W        W13479  37.333  43.468   4.210
48319W        W13480  31.222   8.361   2.202
48320W        W13481   2.754  37.008  11.646
48321W        W13482  29.089  30.668   1.724
48322W        W13483  29.522  20.535   3.116
48323W        W13484  31.153  14.849  11.503
48324W        W13485  18.133  38.675  11.100
48325W        W13486  20.756  26.074   3.647
48326W        W13487  44.239  14.643  12.505
48327W        W13488  39.371  30.982  13.524
48328W        W13489  30.715   9.297  11.999
48329W        W13490  33.126  22.833   1.362
48330W        W13491  40.704  30.678  11.768
48331W        W13492  20.782  13.855   3.355
48332W        W13493  43.370  19.475  10.935
48333W        W13494  18.645  26.964  14.674
48334W        W13495  30.351  36.103   0.406
48335W        W13496  29.596  11.152   0.397
48336W        W13497  23.593  32.161  11.592
48337W        W13498   7.725  40.153  14.467
48338W        W13499  29.906  42.420   4.171
48339W        W13500  35.599  39.991   2.114
48340W        W13501   2.210  31.940   1.765
48341W        W13502  25.627  26.990  12.509
48342W        W13503  20.312   1.557   3.355
48343W        W13504   4.881  19.338   1.017
48344W        W13505  16.693  42.115  12.432
48345W        W13506  11.222  13.003  14.490
48346W        W13507  41.717  27.551   2.425
48347W        W13508   5.017  32.087  11.142
48348W        W13509  25.620  39.812   2.785
48349W        W13510  20.753  17.333   0.018
48350W        W13511   1.773  11.266   4.598
48351W        W13512  38.089  15.674   0.880
48352W        W13513  32.198  12.169   3.251
48353W        W13514  13.109  13.224   4.542
48354W        W13515  14.021  32.564   3.666
48355W        W13516   5.379  33.452  14.457
48356W        W13517  15.997  42.274  11.610
48357W        W13518  32.383  43.357   2.619
48358W        W13519  21.366   4.952  12.949
48359W        W13520  44.941  10.179   3.608
48360W        W13521  39.282  17.660   3.613
48361W        W13522  36.436  22.749  13.903
48362W        W13523   1.367  11.933  13.459
48363W        W13524   5.734  38.890   3.280
48364W        W13525  30.470  30.463   1.829
48365W        W13526  43.934   6.167  10.783
48366W        W13527  41.057   9.690   0.081
48367W        W13528   5.768  43.118  12.601
48368W        W13529   6.638  44.415   4.527
48369W        W13530   2.687  40.214  12.369
48370W        W13531   6.236  33.102  12.938
48371W        W13532  17.813  27.745   0.309
48372W        W13533  12.831  11.911  12.550
48373W        W13534  44.806   4.759   0.847
48374W        W13535  43.091   3.160  10.810
48375W        W13536  20.676   4.577   4.428
48376W        W13537  13.112   7.312  14.884
48377W        W13538  10.894  32.712   0.820
48378W        W13539  29.684  38.756   4.035
48379W        W13540  14.941   0.327  14.870
48380W        W13541  25.502   0.216   4.618
48381W        W13542  10.938  36.485   1.212
48382W        W13543  21.796  16.475   0.432
48383W        W13544  32.931  33.887  10.683
48384W        W13545  30.743  36.657   3.269
48385W        W13546   8.600   6.453   1.474
48386W        W13547  42.225  16.306  13.957
48387W        W13548  34.658  43.517  10.195
48388W        W13549  12.299  43.022   1.563
48389W        W13550  41.752  17.125   0.385
48390W        W13551   8.584  39.683  11.096
48391W        W13552  10.629  39.743  12.564
48392W        W13553  13.670  20.947  13.122
48393W        W13554   4.372  26.135   3.386
48394W        W13555  28.418  13.820   0.728
48395W        W13556  17.130  40.122  13.035
48396W        W13557   5.616  37.637  10.534
48397W        W13558  20.127  27.980  13.241
48398W        W13559  21.247  43.927   0.808
48399W        W13560  40.315  34.701  11.105
48400W        W13561  23.229  20.762   2.376
48401W        W13562  44.934  32.590   1.765
48402W        W13563  44.458   1.647  14.096
48403W        W13564  33.648  12.989   1.005
48404W        W13565  13.533  42.909   3.818
48405W        W13566  13.931  14.028  13.816
48406W        W13567  34.143   5.809  10.628
48407W        W13568  17.354  42.348  13.380
48408W        W13569   4.768  21.608   3.461
48409W        W13570  26.588  20.356   0.690
48410W        W13571  41.033  35.485   3.247
48411W        W13572  13.784  20.180   2.657
48412W        W13573  11.119  11.534  12.845
48413W        W13574  40.062  37.575   4.467
48414W        W13575   4.149  25.069   4.018
48415W        W13576  12.374  32.450   2.408
48416W        W13577   3.405  38.588   4.550
48417W        W13578  39.913  41.402   1.660
48418W        W13579  20.677  14.785   1.692
48419W        W13580   8.340  31.214   1.402
48420W        W13581  41.074  32.871   2.190
48421W        W13582  13.643  15.293   1.171
48422W        W13583  10.186   8.603  13.598
48423W        W13584   3.804  42.221   2.811
48424W        W13585  40.226  18.664   0.715
48425W        W13586  24.929  39.321   1.797
48426W        W13587  36.999  21.745   0.560
48427W        W13588   7.635  24.462  12.414
48428W        W13589  42.509  10.591   3.901
48429W        W13590  19.033  20.295  13.787
48430W        W13591   1.088  30.015   1.947
48431W        W13592  39.881  44.903  10.484
48432W        W13593  41.044  40.458  11.617
48433W        W13594  44.819  44.774   2.200
48434W        W13595  36.952  18.522   1.999
48435W        W13596  17.764  33.530   2.428
48436W        W13597  44.751   8.412  11.562
48437W        W13598   2.364   6.523  13.057
48438W        W13599  36.333  13.451   3.219
48439W        W13600  11.449  22.419  11.417
48440W        W13601  34.946  41.925   2.732
48441W        W13602   1.717  31.839  14.022
48442W        W13603  33.489  23.404   4.593
48443W        W13604  11.174   3.728  14.232
48444W        W13605  25.020  23.309   4.980
48445W        W13606  35.876  31.998  13.398
48446W        W13607  37.078  30.388  11.106
48447W        W13608  25.704  31.592  14.500
48448W        W13609  23.684  28.570   3.370
48449W        W13610  28.229  15.323   4.560
48450W        W13611  11.155   2.889   1.773
48451W        W13612  13.311   9.432   4.772
48452W        W13613  12.773   0.614   3.295
48453W        W13614  38.494  30.464   4.313
48454W        W13615  34.867  22.469  14.462
48455W        W13616  33.488   7.129   9.911
48456W        W13617   5.817  27.858   2.227
48457W        W13618  16.640  35.617  14.898
48458W        W13619  18.904   8.047   4.935
48459W        W13620  14.127   4.464  12.383
48460W        W13621  31.426   9.007  13.652
48461W        W13622  34.152  32.254   1.256
48462W        W13623  28.993   9.143  11.929
48463W        W13624  36.544  43.806  13.380
48464W        W13625  31.979  20.662   2.665
48465W        W13626   7.321  36.687  11.741
48466W        W13627  41.911  33.900   3.276
48467W        W13628  19.328   0.777   3.315
48468W        W13629   4.479  14.534  11.589
48469W        W13630  42.010  22.511  14.893
48470W        W13631  19.092  14.285   0.438
48471W        W13632   7.135  22.374   0.825
48472W        W13633   1.297  43.798   2.870
48473W        W13634  34.572  17.543   2.883
48474W        W13635  17.255  44.462  13.492
48475W        W13636   1.559  23.724   4.151
48476W        W13637  27.509  10.315   3.131
48477W        W13638  12.142  39.592   0.845
48478W        W13639  33.031  25.634  11.204
48479W        W13640  43.029   3.334   2.616
48480W        W13641   4.396  10.225  11.380
48481W        W13642  15.234  20.016  13.865
48482W        W13643  41.075  23.504   4.187
48483W        W13644  15.169  24.549   4.932
48484W        W13645  35.953  29.003  11.197
48485W        W13646  29.022  26.986   2.800
48486W        W13647  42.441  28.049   2.218
48487W        W13648  36.018  36.501   0.082
48488W        W13649  33.935  17.826  11.030
48489W        W13650  18.805  19.073  14.491
48490W        W13651  33.374   7.337  12.488
48491W        W13652  16.015  14.841   3.642
48492W        W13653  40.618  12.480  14.030
48493W        W13654  24.844   5.817   3.319
48494W        W13655  14.908  31.174   3.164
48495W        W13656  18.530  41.041   0.335
48496W        W13657  12.361  36.434   1.264
48497W        W13658  12.436  16.115   2.762
48498W        W13659  10.341   2.686   0.384
48499W        W13660   8.695  31.713  12.462
48500W        W13661   0.437  16.568  11.459
48501W        W13662  41.093  19.075   2.959
48502W        W13663   4.036  34.796  12.002
48503W        W13664  32.629   5.535  10.346
48504W        W13665   1.655  24.073   4.561
48505W        W13666  38.022  21.840   3.103
48506W        W13667  27.733  35.513  14.308
48507W        W13668  30.424  44.266  11.492
48508W        W13669  11.172   1.898   2.725
48509W        W13670   9.062  41.635  11.799
48510W        W13671  23.470   0.042  10.637
48511W        W13672  36.096   9.840  11.769
48512W        W13673  27.494  21.123   4.624
48513W        W13674   2.212  34.609  13.975
48514W        W13675  32.588  32.076   4.598
48515W        W13676  37.582  34.288   4.905
48516W        W13677   0.485  44.346   1.815
48517W        W13678   7.120  10.693   0.292
48518W        W13679  22.915  27.834   1.785
48519W        W13680  36.987  36.970   3.293
48520W        W13681  36.832  22.664   3.161
48521W        W13682  24.295  44.444  11.153
48522W        W13683  41.121  37.454  14.353
48523W        W13684   5.434  14.297  13.331
48524W        W13685   0.519   3.442   1.916
48525W        W13686  16.590   3.046  13.035
48526W        W13687   2.806  38.815   0.261
48527W        W13688  19.531   2.740  11.172
48528W        W13689  25.227  38.213   0.519
48529W        W13690   5.529   4.936  10.757
48530W        W13691  11.181  26.063   4.674
48531W        W13692  33.569  34.572  11.939
48532W        W13693   1.698  31.635  11.654
48533W        W13694  42.914  26.514  14.541
48534W        W13695   3.808  25.469   4.113
48535W        W13696  29.613  40.967  12.394
48536W        W13697  12.319  37.031  10.708
48537W        W13698  25.367  14.376  10.027
48538W        W13699   0.191  20.237   0.455
48539W        W13700  29.491  38.570   4.496
48540W        W13701  27.228  20.092  13.720
48541W        W13702  43.981  22.562  13.335
48542W        W13703  23.007  19.841  13.306
48543W        W13704  21.747  42.001  13.872
48544W        W13705  22.555  41.342   2.371
48545W        W13706  20.605   0.828   0.324
48546W        W13707  25.423  28.348   3.852
48547W        W13708  16.243  23.295  14.769
48548W        W13709  35.335  36.392   4.502
48549W        W13710  30.440  25.510  12.830
48550W        W13711  26.062   5.968   2.681
48551W        W13712  33.921  13.658   3.248
48552W        W13713  37.677  22.062  14.740
48553W        W13714  30.379  12.180   0.750
48554W        W13715  44.722  30.210   4.061
48555W        W13716  36.357   7.918   0.814
48556W        W13717  24.090  31.000  12.467
48557W        W13718   0.057  37.744   0.639
48558W        W13719   9.380   1.860  10.146
48559W        W13720   1.899  19.685  14.389
48560W        W13721  30.652  27.500  14.567
48561W        W13722  44.581  28.697   1.673
48562W        W13723  41.993  33.848  10.521
48563W        W13724  22.676  21.136   2.709
48564W        W13725   8.444  18.650   3.786
48565W        W13726  43.469  39.829  11.950
48566W        W13727   7.044  16.811   2.841
48567W        W13728  23.896  18.236   9.687
48568W        W13729  12.226  23.272  12.542
48569W        W13730  33.309  35.217  13.991
48570W        W13731   6.792  41.041   3.711
48571W        W13732   6.775   3.983   2.073
48572W        W13733  17.817  10.785  11.472
48573W        W13734  12.771  32.404  10.774
48574W        W13735   3.939  24.172  12.475
48575W        W13736  43.558  14.610   1.430
48576W        W13737   8.225  36.902   3.730
48577W        W13738  27.508  11.872  12.589
48578W        W13739  15.216  25.898  11.430
48579W        W13740  14.530  16.005   3.539
48580W        W13741  32.004  41.781  12.238
48581W        W13742  15.719  10.738   0.507
48582W        W13743  34.903  19.960  14.902
48583W        W13744  38.889  16.092   2.835
48584W        W13745  40.584  17.658  14.505
48585W        W13746  32.361  20.655   1.311
48586W        W13747  27.378  10.854   3.180
48587W        W13748  10.147  10.420  14.768
48588W        W13749  14.745  13.592  14.124
48589W        W13750   9.820  26.521   1.714
48590W        W13751  21.715   3.284  11.178
48591W        W13752   5.335  37.084   4.502
48592W        W13753  34.313   9.358  12.084
48593W        W13754  28.197  23.013  12.111
48594W        W13755  32.240  35.590  11.671
48595W        W13756   1.833  24.950  12.178
48596W        W13757  19.939   6.962   3.204
48597W        W13758  41.239   9.846   0.578
48598W        W13759  38.055   0.892   0.431
48599W        W13760  39.256  32.766   2.277
48600W        W13761  34.598  22.266  14.058
48601W        W13762  25.632   3.937   1.244
48602W        W13763  44.143   6.403   4.497
48603W        W13764  27.560  26.425  14.800
48604W        W13765  30.589  41.258   4.353
48605W        W13766  43.247   7.644   1.739
48606W        W13767   3.451   4.202  12.955
48607W        W13768   4.848  25.424   3.274
48608W        W13769  13.664  37.910  12.952
48609W        W13770   3.230  35.679  13.058
48610W        W13771  31.104  15.899   4.558
48611W        W13772  12.034  15.071   3.151
48612W        W13773  40.049  25.548  10.740
48613W        W13774   8.380  19.291   3.338
48614W        W13775   4.897  15.553  10.258
48615W        W13776  16.498  40.209  11.284
48616W        W13777   3.761  25.493  13.987
48617W        W13778  12.548  28.899   0.347
48618W        W13779  19.794   4.073  11.718
48619W        W13780  27.045  22.657   3.014
48620W        W13781  13.560  17.973   1.890
48621W        W13782  26.616  29.574   3.823
48622W        W13783  20.148  23.008   1.520
48623W        W13784  23.963  34.069  12.472
48624W        W13785   1.005   1.952  12.983
48625W        W13786  27.685  44.468   0.750
48626W        W13787  10.438  23.130   3.415
48627W        W13788  31.035   8.400   5.024
48628W        W13789   5.740  40.412   4.129
48629W        W13790  20.312  25.649  12.429
48630W        W13791  38.474  41.099   3.624
48631W        W13792  36.475  27.182   2.148
48632W        W13793   3.875  10.568   0.032
48633W        W13794  18.732  12.013   3.709
48634W        W13795   0.888  15.289   1.970
48635W        W13796  13.735  17.876  10.738
48636W        W13797  28.386  39.161   4.995
48637W        W13798  38.463   7.924   2.222
48638W        W13799  15.038   0.703  13.932
48639W        W13800  29.055   1.126   4.501
48640W        W13801   4.277  22.947  11.718
48641W        W13802  11.336  16.226   1.343
48642W        W13803   4.730  40.277   5.060
48643W        W13804  41.901  29.745  14.483
48644W        W13805  37.195  18.161  11.993
48645W        W13806  22.528   9.841   1.768
48646W        W13807  22.686  39.852   2.304
48647W        W13808  14.368  22.274   4.664
48648W        W13809  29.409  34.889  13.541
48649W        W13810   4.429  22.547   4.129
48650W        W13811  30.636  27.476   2.334
48651W        W13812  12.660  35.157   4.064
48652W        W13813  20.911  39.440  14.451
48653W        W13814  22.547  18.497   4.403
48654W        W13815   9.241  10.426   0.549
48655W        W13816  41.520  39.203  10.629
48656W        W13817  27.167  11.896  14.949
48657W        W13818  14.658   3.751  11.566
48658W        W13819  14.662  11.744   0.723
48659W        W13820   9.346  30.883  10.768
48660W        W13821  33.069  34.371  13.811
48661W        W13822  39.496   9.766  11.860
48662W        W13823   5.924  35.958   1.735
48663W        W13824   3.849  43.704   3.761
48664W        W13825  32.013  43.907  10.540
48665W        W13826   2.272  20.122  14.872
48666W        W13827  27.287   6.723   0.265
48667W        W13828  44.688  40.938   5.584
48668W        W13829   8.803  17.297   1.311
48669W        W13830  23.746   7.076   4.235
48670W        W13831  25.187   5.233  13.514
48671W        W13832  30.947  44.312  10.746
48672W        W13833   9.481  13.797  13.781
48673W        W13834  16.227  37.073   0.417
48674W        W13835  33.309  23.162   4.175
48675W        W13836   2.476  20.998  11.016
48676W        W13837  44.572   0.846  14.637
48677W        W13838  15.173  25.669  10.903
48678W        W13839   6.737  32.654   1.413
48679W        W13840  22.079  11.837  12.337
48680W        W13841   2.147  20.148   1.658
48681W        W13842   5.321  20.295   4.538
48682W        W13843  25.661  10.265   1.377
48683W        W13844   5.788  42.779   4.177
48684W        W13845   5.240  11.613   4.609
48685W        W13846   5.939  34.038   3.243
48686W        W13847   4.550   5.434  11.104
48687W        W13848  36.584  22.132   0.910
48688W        W13849  30.598  44.957   3.672
48689W        W13850  30.411  41.468   2.110
48690W        W13851  18.278   5.819   0.907
48691W        W13852   5.370   7.413  12.920
48692W        W13853  18.195  35.410   3.263
48693W        W13854   9.745   4.690   1.930
48694W        W13855  41.889  27.626   0.337
48695W        W13856  31.485  20.482  12.203
48696W        W13857  30.275  31.334   1.888
48697W        W13858   9.415  32.122   2.327
48698W        W13859  36.031  36.820  13.456
48699W        W13860  38.840  24.224  14.707
48700W        W13861  40.980  41.783   0.302
48701W        W13862  31.566  28.085   2.560
48702W        W13863  22.729  39.073   1.378
48703W        W13864  16.915  14.461  12.474
48704W        W13865  36.996  44.342   2.061
48705W        W13866   6.443  18.975   1.760
48706W        W13867  14.667   2.712   4.196
48707W        W13868  16.073  23.475  13.058
48708W        W13869  36.599  27.749  12.918
48709W        W13870  42.886  14.847   4.077
48710W        W13871  26.450  21.089  12.952
48711W        W13872   7.638  32.984  12.065
48712W        W13873   5.477  34.429   3.679
48713W        W13874  17.214  12.973  12.131
48714W        W13875   8.940  27.424   0.851
48715W        W13876   1.397  36.361   3.228
48716W        W13877   8.279  14.251  14.913
48717W        W13878  41.372  37.096   1.735
48718W        W13879  41.352  27.790  14.531
48719W        W13880  29.188  22.439   2.432
48720W        W13881   6.740   9.449  11.046
48721W        W13882  18.037  34.120   3.744
48722W        W13883  16.215  29.952   1.915
48723W        W13884  31.691  37.769  14.321
48724W        W13885  33.185   4.999  11.095
48725W        W13886  19.207   8.696  14.068
48726W        W13887  16.268  11.082  11.646
48727W        W13888  37.782  10.389   0.839
48728W        W13889   0.678  29.042  14.180
48729W        W13890  44.325  12.147   2.334
48730W        W13891  30.723  25.265   2.556
48731W        W13892  31.468  37.557   2.806
48732W        W13893  35.512   1.699  13.638
48733W        W13894  12.388  30.527  14.355
48734W        W13895  27.068  17.233   4.755
48735W        W13896  12.349  32.099   4.080
48736W        W13897   4.508  33.315  10.492
48737W        W13898  10.421  21.717  11.578
48738W        W13899  37.066  17.007  11.207
48739W        W13900   1.544  34.034  13.932
48740W        W13901  12.792  37.987  13.910
48741W        W13902  34.511   0.624   1.677
48742W        W13903   7.221  33.893   2.654
48743W        W13904   8.126  36.045  12.670
48744W        W13905  12.402  25.035  12.364
48745W        W13906  18.437  31.046   1.858
48746W        W13907  23.772  32.391   1.778
48747W        W13908  29.629  28.087   4.797
48748W        W13909  12.381  44.980  14.357
48749W        W13910  26.496  39.195  13.657
48750W        W13911  16.719   3.600   4.599
48751W        W13912  25.128  23.918  14.050
48752W        W13913   4.805   7.167  11.698
48753W        W13914  13.728   0.917  14.221
48754W        W13915  32.001   7.359  14.443
48755W        W13916  24.087   1.933   4.483
48756W        W13917  39.802   5.394  13.049
48757W        W13918  22.031  26.376  11.141
48758W        W13919  30.398  10.576  13.744
48759W        W13920   0.365  24.786   2.380
48760W        W13921  23.921  10.267  14.841
48761W        W13922   4.342   0.313  12.128
48762W        W13923  42.323  10.644   2.212
48763W        W13924  18.622   7.324  10.927
48764W        W13925  43.866  31.561  10.713
48765W        W13926   5.455   7.930  13.022
48766W        W13927   0.928  20.598   3.606
48767W        W13928  10.243  39.040   0.966
48768W        W13929  10.401   4.431   3.251
48769W        W13930  11.590   1.334  11.169
48770W        W13931   8.496  19.146  13.439
48771W        W13932  25.552  14.640  13.882
48772W        W13933  39.323  21.809   3.590
48773W        W13934  22.025   4.163  11.582
48774W        W13935  16.427  41.495   3.699
48775W        W13936  13.911   1.871  14.525
48776W        W13937  21.555  40.835   1.121
48777W        W13938  30.313  15.330  12.628
48778W        W13939  11.026   8.309   0.969
48779W        W13940  41.334  10.450   3.674
48780W        W13941   8.802   8.825   1.244
48781W        W13942  36.396  40.447  14.527
48782W        W13943  44.986   8.133  11.211
48783W        W13944   7.987  25.022  12.916
48784W        W13945  36.507   7.840   3.615
48785W        W13946  33.889   6.995  12.109
48786W        W13947  20.900  12.096   3.635
48787W        W13948  30.395  14.569  14.754
48788W        W13949  18.997   2.132  11.249
48789W        W13950  36.034  35.329  13.414
48790W        W13951  31.011   1.332  14.617
48791W        W13952  36.471  44.279  11.687
48792W        W13953   7.401  42.376  10.969
48793W        W13954   6.940  14.172   0.001
48794W        W13955  31.914   9.383   2.003
48795W        W13956  22.718  18.590   2.697
48796W        W13957   9.576   0.344  11.962
48797W        W13958  26.274  40.332  12.615
48798W        W13959   4.862  15.826  11.632
48799W        W13960  23.461  26.250   1.599
48800W        W13961   0.720  20.968   5.010
48801W        W13962  27.287  26.535  12.203
48802W        W13963  38.504  32.634   4.625
48803W        W13964   3.539  12.667   1.314
48804W        W13965  32.433  37.064  11.987
48805W        W13966  19.499   9.880  13.900
48806W        W13967  15.057  22.774   1.030
48807W        W13968  43.784  31.988   5.097
48808W        W13969  30.024  37.224  12.839
48809W        W13970  39.777  38.065   2.313
48810W        W13971  18.656  18.024  10.629
48811W        W13972  39.270  28.920  13.440
48812W        W13973   1.894  32.467   2.890
48813W        W13974   2.422  24.500  13.801
48814W        W13975  27.743  16.016  14.316
48815W        W13976   0.319  25.638   4.716
48816W        W13977  13.351   2.501  14.733
48817W        W13978  22.131  40.009  12.366
48818W        W13979  23.024  30.993  13.351
48819W        W13980  10.388   0.378   4.459
48820W        W13981  33.886  15.124   1.769
48821W        W13982  22.975  19.335  13.325
48822W        W13983  20.141  11.922   4.086
48823W        W13984  25.733   4.935   2.449
48824W        W13985  27.146  10.365  13.994
48825W        W13986  14.369  30.491  14.462
48826W        W13987  39.277  33.567  14.033
48827W        W13988  34.370   7.207  14.365
48828W        W13989  39.484   2.701  14.789
48829W        W13990  14.600  26.554  14.738
48830W        W13991  12.330   7.151  12.471
48831W        W13992  26.622  25.108  14.914
48832W        W13993  39.752  30.171   3.724
48833W        W13994  29.241  20.422   3.556
48834W        W13995  31.593  34.744   1.869
48835W        W13996  12.739  44.655   3.317
48836W        W13997  30.044  37.626  12.486
48837W        W13998  43.418  31.553   0.267
48838W        W13999  16.100   7.751  14.003
48839W        W14000  29.395   2.383   2.253
48840W        W14001  14.758  35.204  11.224
48841W        W14002  44.438  35.470   9.788
48842W        W14003  14.060  32.333  11.970
48843W        W14004   6.471   3.981   1.654
48844W        W14005  11.791  35.545  12.438
48845W        W14006  19.795  14.000  14.754
48846W        W14007  35.124  23.539   1.830
48847W        W14008  39.198  43.147   4.923
48848W        W14009  35.121  17.213   1.892
48849W        W14010  37.423  18.473   2.290
48850W        W14011  42.766   4.963  13.910
48851W        W14012  44.134  21.219   1.629
48852W        W14013   3.458   6.912  14.285
48853W        W14014   0.545  40.069  12.835
48854W        W14015  28.528  37.803  14.418
48855W        W14016   4.927  43.545   0.017
48856W        W14017  19.053  33.422   3.721
48857W        W14018  19.528  41.499  13.589
48858W        W14019  12.097  42.530   2.732
48859W        W14020   3.186  12.080  14.295
48860W        W14021  43.272  27.058   3.129
48861W        W14022  34.671   4.194   3.303
48862W        W14023   0.080  41.431   2.944
48863W        W14024   5.704  34.500   3.210
48864W        W14025   2.668  20.431  14.335
48865W        W14026   8.670  41.814   4.692
48866W        W14027  14.046   0.123  13.235
48867W        W14028   9.339  38.332  12.961
48868W        W14029  10.236   0.971  14.858
48869W        W14030  15.124   8.410  11.621
48870W        W14031  20.337  30.395   3.199
48871W        W14032  28.123  26.298   0.456
48872W        W14033  19.666  38.953   4.730
48873W        W14034  33.989  27.407  12.058
48874W        W14035  40.882  29.381   1.261
48875W        W14036  38.152  12.940  13.564
48876W        W14037  14.071  14.720   2.659
48877W        W14038  35.391  11.449  13.548
48878W        W14039  18.003  13.249   3.259
48879W        W14040  40.337  40.802   4.149
48880W        W14041  20.664  11.612  10.679
48881W        W14042  41.353  20.906  13.272
48882W        W14043  15.249   6.852  14.872
48883W        W14044  39.795  34.463   2.015
48884W        W14045  25.126  41.473   5.275
48885W        W14046  39.852  31.457   0.899
48886W        W14047   1.753  13.839   4.189
48887W        W14048  44.460  22.698   0.804
48888W        W14049  21.602  19.051  14.573
48889W        W14050  21.596  40.933  13.476
48890W        W14051  27.356  40.585   1.773
48891W        W14052   4.772  23.075   4.542
48892W        W14053  23.093  15.016  13.930
48893W        W14054  10.680   4.052  11.253
48894W        W14055  15.197  29.946  12.838
48895W        W14056  18.569  21.627  14.655
48896W        W14057  34.819   4.422  13.460
48897W        W14058  25.066  36.443   3.671
48898W        W14059  44.203  12.488  11.354
48899W        W14060  32.685  42.501  12.806
48900W        W14061  39.956  35.180   4.698
48901W        W14062  33.503  28.636   3.911
48902W        W14063  28.727  41.205   2.107
48903W        W14064  11.087  14.098   1.392
48904W        W14065  22.319  21.577  11.538
48905W        W14066  20.175  37.908  12.937
48906W        W14067  35.110   4.342   3.058
48907W        W14068  13.017  31.370  14.560
48908W        W14069  29.426  19.162  12.962
48909W        W14070   2.283  44.240   1.936
48910W        W14071  28.722  17.119   2.681
48911W        W14072   4.721  12.388  12.766
48912W        W14073  29.044  41.790   3.208
48913W        W14074   7.821  27.450  10.708
48914W        W14075   0.962  12.431   2.685
48915W        W14076   8.353  42.352   2.989
48916W        W14077  14.240  14.550   4.162
48917W        W14078   3.681  32.613  11.070
48918W        W14079  17.333  23.505   2.397
48919W        W14080  44.206  17.382   4.587
48920W        W14081  28.363   4.749   0.395
48921W        W14082   2.528  36.840   1.942
48922W        W14083  14.413  11.713  14.856
48923W        W14084  26.366  25.705  11.585
48924W        W14085  20.533  33.159  14.439
48925W        W14086  26.489  13.881  10.733
48926W        W14087  26.651  31.908  11.775
48927W        W14088  29.005   1.467  11.482
48928W        W14089   7.047  43.525  12.600
48929W        W14090  39.150  21.325   3.572
48930W        W14091  12.847  18.046  11.640
48931W        W14092  25.488  35.026  10.955
48932W        W14093  10.844   6.311  14.073
48933W        W14094  40.787  30.699  14.012
48934W        W14095  15.559  34.076  12.824
48935W        W14096  40.976  21.711  13.414
48936W        W14097  42.201   9.418  14.798
48937W        W14098  16.763  39.805  13.786
48938W        W14099  18.834  18.006  11.117
48939W        W14100  23.914  15.198   2.853
48940W        W14101  25.078   3.972  13.297
48941W        W14102  20.546  22.934  14.858
48942W        W14103  20.788  28.332   3.052
48943W        W14104  39.864  34.317  14.905
48944W        W14105  28.508  25.142   0.490
48945W        W14106  14.723  36.159   4.947
48946W        W14107   7.633  16.215   2.365
48947W        W14108  11.185  17.620  11.404
48948W        W14109  16.267  21.475  10.754
48949W        W14110  39.468  11.837   0.402
48950W        W14111  28.372  25.497   3.673
48951W        W14112   2.605  29.375   4.930
48952W        W14113  36.434  12.908  12.894
48953W        W14114  31.465  14.371  10.712
48954W        W14115  14.869  25.572  13.033
48955W        W14116   5.801  11.129  12.825
48956W        W14117   3.916   6.879  10.889
48957W        W14118  17.045  21.562  11.026
48958W        W14119   5.749  37.105   4.892
48959W        W14120  31.597  38.202  13.351
48960W        W14121   7.239  29.898   0.072
48961W        W14122   2.015  27.132  12.122
48962W        W14123   1.421   7.263  13.471
48963W        W14124  36.459  11.220   4.720
48964W        W14125  24.128  10.315   0.336
48965W        W14126  35.952   7.625  12.634
48966W        W14127   5.025  39.613   3.827
48967W        W14128  10.403  32.385  14.020
48968W        W14129   9.394  31.731   1.515
48969W        W14130   0.821  35.658  14.984
48970W        W14131  27.533   4.441   4.439
48971W        W14132   4.991  35.404  11.565
48972W        W14133  41.738  13.916  14.973
48973W        W14134  42.749  40.446   2.114
48974W        W14135  37.095  24.184  13.180
48975W        W14136  44.937   8.255   0.844
48976W        W14137  35.393   9.169   1.291
48977W        W14138  23.458  43.924  14.960
48978W        W14139  26.767   1.324  13.463
48979W        W14140   4.493  19.430  13.870
48980W        W14141  12.216  29.773   0.778
48981W        W14142  43.758  27.005   3.304
48982W        W14143  17.429   3.875   4.021
48983W        W14144   2.202  41.788  12.027
48984W        W14145  10.746   9.696  11.891
48985W        W14146  40.549  40.308   1.276
48986W        W14147  21.162  29.348  14.469
48987W        W14148   2.246  22.499   4.109
48988W        W14149  31.933  15.697  12.307
48989W        W14150  24.511  25.547  11.610
48990W        W14151   4.225  12.239   4.295
48991W        W14152  43.366  13.139   4.120
48992W        W14153  19.758  28.570   2.192
48993W        W14154   4.468  41.835   4.699
48994W        W14155   7.467  24.723   1.843
48995W        W14156  41.903   7.738   3.730
48996W        W14157  16.803  21.259  10.459
48997W        W14158  28.210  22.565  10.215
48998W        W14159   3.752  24.052   2.119
48999W        W14160  12.266  25.748  11.909
49000W        W14161  13.975  32.128  13.364
49001W        W14162  32.923  21.168   0.707
49002W        W14163  27.400  15.151  10.650
49003W        W14164  10.245   3.248  14.503
49004W        W14165  44.917  22.216   4.659
49005W        W14166   6.182  19.260   2.121
49006W        W14167   7.460  13.061   0.763
49007W        W14168  18.552  15.107   1.475
49008W        W14169  27.165   9.820  14.064
49009W        W14170  43.875  12.371  13.027
49010W        W14171   5.727   8.634  13.952
49011W        W14172  13.214  40.511   1.159
49012W        W14173  10.372  40.474  13.517
49013W        W14174  21.936  35.710  12.123
49014W        W14175  34.627   6.457  12.058
49015W        W14176   6.403  29.474  11.556
49016W        W14177  11.632  27.629  14.350
49017W        W14178  26.407  28.492   0.491
49018W        W14179  23.992  39.436  12.056
49019W        W14180  33.578  42.145   9.852
49020W        W14181  18.669  20.044  13.449
49021W        W14182  35.990  23.114   2.562
49022W        W14183  26.561  15.511   3.716
49023W        W14184  44.283   6.784   0.363
49024W        W14185  38.916  12.354   2.863
49025W        W14186  14.536  11.586  14.371
49026W        W14187   2.971  11.955   4.479
49027W        W14188  23.723  24.156   5.032
49028W        W14189  40.814  44.602   0.455
49029W        W14190  18.120  16.136   3.059
49030W        W14191  29.842  37.858  11.479
49031W        W14192  13.857  29.201  12.008
49032W        W14193  38.385   3.845  14.744
49033W        W14194  22.256   9.191   4.180
49034W        W14195  35.808   3.431  13.836
49035W        W14196  30.233   8.618   4.559
49036W        W14197  23.366  18.822  14.359
49037W        W14198   9.676  15.687  14.163
49038W        W14199   0.232  28.937   0.485
49039W        W14200  21.197  39.541  10.895
49040W        W14201   2.981  24.641   2.674
49041W        W14202   6.850  27.955  14.478
49042W        W14203  36.012  10.860   2.164
49043W        W14204   7.842  11.530   2.668
49044W        W14205  26.496  25.078  12.894
49045W        W14206  36.094  17.233  11.174
49046W        W14207  20.517   5.988  12.449
49047W        W14208   4.755  14.218   1.232
49048W        W14209  37.156  20.231   2.426
49049W        W14210  34.762  36.677  13.133
49050W        W14211  15.264  36.366   2.838
49051W        W14212  35.847  36.349   4.547
49052W        W14213   8.916   6.880   4.114
49053W        W14214  37.396   1.447   3.984
49054W        W14215  35.677   7.661  14.059
49055W        W14216  44.223   9.402   3.092
49056W        W14217  33.021  42.386  11.496
49057W        W14218  35.602  25.974  11.501
49058W        W14219  27.309  38.259   4.085
49059W        W14220  15.503   4.270   4.642
49060W        W14221   8.922  30.377  13.033
49061W        W14222  25.934  27.225  11.197
49062W        W14223   8.982  26.088  10.657
49063W        W14224  13.010   2.682  10.633
49064W        W14225  42.275  42.895   2.801
49065W        W14226  11.251  44.034   1.231
49066W        W14227  26.500  20.673   2.672
49067W        W14228  21.501   8.684   1.492
49068W        W14229  21.675   4.777  12.574
49069W        W14230  35.647  44.271   2.296
49070W        W14231   0.007  39.879  13.514
49071W        W14232  29.673   0.479   0.401
49072W        W14233  37.482  44.720  11.138
49073W        W14234  29.482  24.424   0.710
49074W        W14235  12.737  35.365   0.752
49075W        W14236  16.371  44.406   1.722
49076W        W14237  24.479  26.101   2.986
49077W        W14238  39.511  39.374   2.236
49078W        W14239   7.203  26.981  13.540
49079W        W14240  23.169  40.286   3.145
49080W        W14241  15.362  33.842  11.520
49081W        W14242  20.125  42.295  11.549
49082W        W14243  32.722  13.172   1.136
49083W        W14244  41.185  19.243   4.400
49084W        W14245   0.250  42.939  13.446
49085W        W14246   1.660  15.617  12.207
49086W        W14247  31.592  16.703   4.045
49087W        W14248   3.090   3.841   4.548
49088W        W14249   6.039   5.039   3.718
49089W        W14250  26.707  33.299   4.111
49090W        W14251  42.228  18.966   0.799
49091W        W14252  39.316  38.088   3.539
49092W        W14253  25.177   8.596  14.987
49093W        W14254  37.121   2.281  12.520
49094W        W14255  12.561  37.052  11.944
49095W        W14256  29.959  24.570  13.965
49096W        W14257  13.725   2.783  14.967
49097W        W14258  38.386  15.611   3.390
49098W        W14259  34.982  21.621   2.847
49099W        W14260  10.764  22.666   4.302
49100W        W14261  17.440  15.019  14.133
49101W        W14262   0.899   5.394  12.918
49102W        W14263  26.411  13.861  12.049
49103W        W14264  21.295  31.034  11.499
49104W        W14265   4.926  23.709   0.905
49105W        W14266  44.216  39.636  13.426
49106W        W14267   1.477  26.467   2.847
49107W        W14268   7.704  12.237   3.182
49108W        W14269  37.354  35.552   3.899
49109W        W14270  41.421   6.404  14.336
49110W        W14271  35.520  29.026   3.314
49111W        W14272  22.896  23.612   4.923
49112W        W14273  19.211  16.282  12.546
49113W        W14274  30.663  29.129   1.243
49114W        W14275  38.428  28.776  12.556
49115W        W14276   6.236  33.194   1.785
49116W        W14277  29.100  27.871   4.034
49117W        W14278  38.780   6.877   2.626
49118W        W14279   3.417  41.944   0.866
49119W        W14280  20.695  30.873  10.693
49120W        W14281   5.262  43.256   3.911
49121W        W14282  25.721  34.852   0.929
49122W        W14283  39.489  40.057   3.809
49123W        W14284  19.299  16.099  14.276
49124W        W14285  22.751  33.989   0.381
49125W        W14286   6.639   3.907   0.439
49126W        W14287  32.798   0.002  10.506
49127W        W14288  19.528  26.580   4.062
49128W        W14289  33.464   8.165   4.176
49129W        W14290  16.546  41.931   0.372
49130W        W14291   6.872  14.538   4.278
49131W        W14292   3.631  23.694   2.482
49132W        W14293  34.321   4.700  12.949
49133W        W14294  39.013  44.739   2.785
49134W        W14295  26.693  13.373  14.091
49135W        W14296  25.954   2.713  14.436
49136W        W14297  36.879  27.811  13.393
49137W        W14298  41.216  28.589  10.634
49138W        W14299  13.294  36.467  12.824
49139W        W14300  22.768  20.951   3.606
49140W        W14301  44.775  14.532  12.860
49141W        W14302  34.893  13.626  12.533
49142W        W14303  11.712  11.483   1.890
49143W        W14304   3.405   7.375   1.722
49144W        W14305  20.950  18.288  12.274
49145W        W14306   0.844  43.529  10.913
49146W        W14307   1.311  33.632   0.414
49147W        W14308   2.481   9.954  10.288
49148W        W14309  38.463  26.729  13.770
49149W        W14310   5.454  37.070  14.531
49150W        W14311  33.264  41.337  13.780
49151W        W14312  14.388  20.443   0.848
49152W        W14313  42.413  35.139   2.361
49153W        W14314  43.891  11.564   1.388
49154W        W14315  18.971  21.146   1.685
49155W        W14316  16.840  42.605  12.497
49156W        W14317  24.927  32.972   2.313
49157W        W14318  24.429  36.644  14.210
49158W        W14319  33.009  13.407   3.665
49159W        W14320  27.651  11.819  14.065
49160W        W14321  22.580  13.970   4.682
49161W        W14322  43.414  17.826  11.599
49162W        W14323   2.156  10.612  13.423
49163W        W14324  19.550   0.608  10.706
49164W        W14325  17.925   5.861   1.345
49165W        W14326  40.752  25.041   4.132
49166W        W14327   7.269  28.431   1.125
49167W        W14328  17.231  29.556  11.155
49168W        W14329  15.581  12.690   4.178
49169W        W14330  44.888  16.812  14.982
49170W        W14331   1.974   8.331   2.322
49171W        W14332   4.654  43.296   0.474
49172W        W14333   9.793  20.941   4.038
49173W        W14334   5.963  25.391   3.353
49174W        W14335   4.694   5.900  11.169
49175W        W14336  17.264  32.101  13.017
49176W        W14337  41.413  37.752  14.657
49177W        W14338  27.965  39.404  13.424
49178W        W14339  43.392  26.288  14.597
49179W        W14340  41.014  37.192   0.803
49180W        W14341  11.720  18.955  14.258
49181W        W14342  18.600  23.932   4.085
49182W        W14343  12.084   5.175   3.645
49183W        W14344  40.939  35.281   0.747
49184W        W14345  36.976  18.194  10.710
49185W        W14346  24.279   8.899  11.141
49186W        W14347  27.431   3.715   4.229
49187W        W14348  10.689  28.627  12.918
49188W        W14349  25.653  16.384   4.546
49189W        W14350   7.181  43.974   2.430
49190W        W14351  42.912  14.303   1.411
49191W        W14352  28.156  31.178  14.345
49192W        W14353  16.792   9.907   2.730
49193W        W14354  18.108  28.364  13.981
49194W        W14355   3.786   5.366   2.843
49195W        W14356  28.133  27.048   1.352
49196W        W14357  14.395   1.546   0.334
49197W        W14358  38.476  29.872   4.955
49198W        W14359  40.936   7.116   1.157
49199W        W14360  31.322  14.354   4.571
49200W        W14361  13.708  24.689   3.125
49201W        W14362  20.395   9.900  14.394
49202W        W14363   7.196  31.662   2.148
49203W        W14364  26.579  32.050   5.135
49204W        W14365  20.973  43.057  13.175
49205W        W14366  29.416  26.926  11.900
49206W        W14367  22.642  23.665  12.203
49207W        W14368  23.721  20.954  10.705
49208W        W14369  15.801  11.943   5.217
49209W        W14370  21.666  43.791  12.515
49210W        W14371  27.158  24.322   4.489
49211W        W14372  30.149  30.693  14.866
49212W        W14373  29.564  32.632  13.785
49213W        W14374  28.056  32.509   3.448
49214W        W14375  39.748  38.011  13.342
49215W        W14376  31.246  19.175   1.843
49216W        W14377   0.049  38.677  11.351
49217W        W14378  30.699   7.271   4.732
49218W        W14379  34.879  27.998  11.526
49219W        W14380   5.466  37.352   3.505
49220W        W14381  13.912  29.402   0.421
49221W        W14382  25.453  12.836  12.003
49222W        W14383  44.516  15.020  13.478
49223W        W14384  25.777  22.173   1.656
49224W        W14385   8.584   1.164   4.103
49225W        W14386   1.337  20.904  11.648
49226W        W14387  28.590  16.805  11.999
49227W        W14388  23.448  33.861   3.512
49228W        W14389  17.985  29.408   0.590
49229W        W14390  42.392  11.748  13.309
49230W        W14391  26.046  16.408   4.885
49231W        W14392  27.911  11.361  12.784
49232W        W14393  37.429   5.835  12.781
49233W        W14394   0.675  32.486   4.375
49234W        W14395  17.414  41.237   5.421
49235W        W14396  10.881  28.149  11.642
49236W        W14397  41.199  41.081  13.007
49237W        W14398  34.971  33.981   3.255
49238W        W14399   8.921  23.048   1.969
49239W        W14400  27.872  34.858   4.159
49240W        W14401  24.154  28.557  12.152
49241W        W14402  34.203  19.661  13.357
49242W        W14403  26.395  30.399  14.378
49243W        W14404   9.763  16.670  11.080
49244W        W14405   9.483  43.400   4.432
49245W        W14406  26.879  30.027   2.859
49246W        W14407  30.577  14.567   4.206
49247W        W14408  39.382  32.515   4.716
49248W        W14409   4.434  43.722   4.269
49249W        W14410  25.024   2.025   0.641
49250W        W14411  36.592  18.618   4.148
49251W        W14412   9.356  16.173  13.610
49252W        W14413  35.206  19.396  14.399
49253W        W14414  11.634  37.543   4.139
49254W        W14415  26.574   4.523   1.487
49255W        W14416  20.161  37.397  14.736
49256W        W14417  30.857  44.047  11.197
49257W        W14418  23.711  34.403   4.622
49258W        W14419   8.961  20.732   4.712
49259W        W14420  24.188   6.193  12.000
49260W        W14421   7.115  30.126   5.019
49261W        W14422  26.818  36.807   1.520
49262W        W14423   2.225  15.894  14.878
49263W        W14424   7.872  32.994   4.545
49264W        W14425  43.149  35.201  10.837
49265W        W14426   5.876  44.492   2.706
49266W        W14427  38.322  20.953   4.043
49267W        W14428  19.037  37.586   2.868
49268W        W14429  10.233   1.325   1.860
49269W        W14430  35.842   4.314   0.909
49270W        W14431  26.112  14.662   1.163
49271W        W14432  31.497  23.465  11.501
49272W        W14433  22.780  26.143   2.303
49273W        W14434  44.344  17.982   0.316
49274W        W14435  33.001  42.043  11.937
49275W        W14436   5.169  22.911   3.748
49276W        W14437  33.173  20.306  13.910
49277W        W14438  27.576  28.272   3.773
49278W        W14439  33.193  35.462  13.469
49279W        W14440   1.869  32.426   4.582
49280W        W14441  44.200  30.110   3.192
49281W        W14442  11.086  13.716   2.269
49282W        W14443  17.881  25.066   4.241
49283W        W14444  42.264  24.634   4.747
49284W        W14445  24.507  27.091  11.779
49285W        W14446  18.810   1.526   5.250
49286W        W14447  22.956  17.104  12.079
49287W        W14448  35.552  27.560   0.753
49288W        W14449  28.455   9.692   3.885
49289W        W14450  20.204  33.154  13.429
49290W        W14451  16.811  33.453  12.086
49291W        W14452  11.442  17.628   4.753
49292W        W14453  28.134  31.955  13.863
49293W        W14454  15.715  42.976   4.522
49294W        W14455  30.219  20.663  10.713
49295W        W14456   7.966  20.616  11.177
49296W        W14457  15.998  11.322   3.556
49297W        W14458  16.051  11.043   4.262
49298W        W14459  15.408   4.310  12.898
49299W        W14460  20.938  39.418  10.385
49300W        W14461  14.121  24.137  13.579
49301W        W14462  18.208  36.687   0.858
49302W        W14463  28.065   4.217   3.260
49303W        W14464  24.546  42.550  10.736
49304W        W14465  41.822  19.544   2.707
49305W        W14466  35.871  34.075   1.264
49306W        W14467  11.197  28.697  12.863
49307W        W14468  12.603   0.923  12.429
49308W        W14469  19.678  19.838   0.974
49309W        W14470   5.821   4.093  14.783
49310W        W14471  13.528  18.056   0.995
49311W        W14472  18.574  37.924  12.391
49312W        W14473  16.286   3.249  12.039
49313W        W14474  13.566  30.149  14.299
49314W        W14475   1.761   1.789   1.455
49315W        W14476   5.807  29.644  13.484
49316W        W14477   3.420   8.759  13.990
49317W        W14478  10.936   3.202   4.636
49318W        W14479  35.420  23.668   4.093
49319W        W14480   6.818  28.945   3.221
49320W        W14481  44.393  32.815  11.099
49321W        W14482  41.846  28.015   1.703
49322W        W14483  13.905  40.160   3.209
49323W        W14484   0.341   4.984  11.042
49324W        W14485  28.493  19.605  11.465
49325W        W14486  34.891  18.085   3.247
49326W        W14487  17.946  15.777   1.026
49327W        W14488  40.931  36.342  11.567
49328W        W14489  27.177  21.386  13.853
49329W        W14490  44.053  28.072  14.393
49330W        W14491  13.876  26.092   3.058
49331W        W14492  31.503  43.075  11.995
49332W        W14493  30.807  37.069   0.338
49333W        W14494  23.648   4.690   0.406
49334W        W14495  24.785  36.804  13.888
49335W        W14496   8.259  31.032  14.523
49336W        W14497  29.577   7.616   2.238
49337W        W14498  39.399  32.336  13.066
49338W        W14499  36.018  36.674  12.632
49339W        W14500  30.511  18.519   0.213
49340W        W14501  24.760  29.529   0.414
49341W        W14502  41.936  34.112  13.989
49342W        W14503  10.497  35.269   0.596
49343W        W14504   5.740  31.981  11.566
49344W        W14505  21.653  44.681   0.243
49345W        W14506  23.881  40.432   1.360
49346W        W14507  10.097  39.891   1.360
49347W        W14508  10.539  13.807  11.103
49348W        W14509  44.535   1.040   1.503
49349W        W14510   6.536   4.851   3.836
49350W        W14511  11.207   9.318  14.842
49351W        W14512  39.937   3.690   0.573
49352W        W14513  13.108  13.275  14.293
49353W        W14514  15.931  39.729  14.465
49354W        W14515   9.767  17.106  12.911
49355W        W14516  33.721  31.587   0.558
49356W        W14517  42.554  28.541   3.316
49357W        W14518  16.291  14.739   0.944
49358W        W14519  16.671  11.620   0.576
49359W        W14520  42.816  36.464  14.008
49360W        W14521  29.215  19.050  12.508
49361W        W14522  39.228  39.860   4.748
49362W        W14523  29.606  11.338   2.233
49363W        W14524  32.489  14.331   1.835
49364W        W14525  28.540  31.317  10.575
49365W        W14526  11.181   0.785   4.693
49366W        W14527  23.692   8.560  12.100
49367W        W14528  27.535  33.538  11.590
49368W        W14529  30.453  26.493   4.573
49369W        W14530  37.894  38.309   0.763
49370W        W14531  37.104  31.485   2.158
49371W        W14532  28.075  42.757  12.161
49372W        W14533  26.686   0.048  13.083
49373W        W14534   8.240  37.745   4.250
49374W        W14535   5.425  34.294  12.933
49375W        W14536  42.404  33.385  12.050
49376W        W14537  38.160  43.325  13.449
49377W        W14538   7.665  41.018   0.499
49378W        W14539  24.134  26.619  13.128
49379W        W14540  42.442   7.187  10.417
49380W        W14541  32.552  24.659  13.002
49381W        W14542  18.852  27.131  10.820
49382W        W14543  25.137  11.714   0.000
49383W        W14544  16.228  19.300   0.809
49384W        W14545  37.045  16.864   4.332
49385W        W14546  40.371  10.857   2.427
49386W        W14547  27.557  14.668  14.950
49387W        W14548   9.293  31.399   1.933
49388W        W14549  21.701  28.241   1.483
49389W        W14550  11.742  25.405   2.838
49390W        W14551   3.268  29.453  11.608
49391W        W14552  27.562  35.949   2.850
49392W        W14553  42.970   6.278   3.089
49393W        W14554  10.336  36.008   1.684
49394W        W14555  36.410  42.494   4.196
49395W        W14556   0.389  16.611  13.493
49396W        W14557  35.563  38.684   0.711
49397W        W14558  39.094  39.101  14.381
49398W        W14559  28.270  23.492   5.430
49399W        W14560  31.134  26.634   0.547
49400W        W14561  42.980   9.403   0.243
49401W        W14562   9.337   8.913   4.605
49402W        W14563  21.190  42.784  14.480
49403W        W14564  12.626  36.535   5.002
49404W        W14565  34.060   0.904   1.641
49405W        W14566   7.502  35.853   3.344
49406W        W14567   3.229  14.814   4.459
49407W        W14568  15.471  15.137  14.038
49408W        W14569   8.871  11.471  14.205
49409W        W14570  19.922  18.516   1.779
49410W        W14571   5.176   9.938   2.153
49411W        W14572  25.936  34.578  14.496
49412W        W14573  10.229  22.050   2.367
49413W        W14574  36.535   4.309   4.686
49414W        W14575  14.192  33.864   0.279
49415W        W14576  15.594  26.921   4.656
49416W        W14577  30.712   6.808  11.294
49417W        W14578  29.500  37.114   1.291
49418W        W14579   0.477  21.475   3.959
49419W        W14580  36.778  28.976  14.617
49420W        W14581  33.207  43.804  10.563
49421W        W14582   2.251  29.857  12.445
49422W        W14583  44.254   4.069   3.340
49423W        W14584  17.747  36.435   0.775
49424W        W14585  40.930  13.863   2.543
49425W        W14586  32.236  14.473  12.884
49426W        W14587   0.922  37.612  11.848
49427W        W14588   2.738  41.051  12.081
49428W        W14589  14.747   1.387   3.506
49429W        W14590  15.157  36.163   3.346
49430W        W14591   6.495  35.992  13.329
49431W        W14592  10.220  20.488  12.624
49432W        W14593  23.379  40.563   1.320
49433W        W14594  17.056  16.651  13.073
49434W        W14595  44.930  14.369   2.008
49435W        W14596  36.573  32.630   1.755
49436W        W14597  18.187   3.862   4.486
49437W        W14598  42.096  25.688  12.126
49438W        W14599  42.247  17.712   0.763
49439W        W14600  36.624  31.878   0.370
49440W        W14601  22.035  30.239   0.437
49441W        W14602  20.001  29.470  14.067
49442W        W14603   0.678  33.025   2.401
49443W        W14604   5.942   8.378   3.188
49444W        W14605   1.023  40.927   1.827
49445W        W14606   9.267  21.579   4.797
49446W        W14607  29.616  16.611  11.548
49447W        W14608  15.349  43.922   0.242
49448W        W14609  44.891  15.398  12.059
49449W        W14610  24.612  30.161   3.679
49450W        W14611  41.466  43.544  14.876
49451W        W14612   6.294  25.819   3.243
49452W        W14613  19.890  32.536   2.186
49453W        W14614  44.023  10.056  13.484
49454W        W14615  14.048   9.782  14.986
49455W        W14616   4.053  39.573   4.165
49456W        W14617  32.222  31.648  14.444
49457W        W14618  41.673  38.114  14.936
49458W        W14619  33.274  31.383  14.325
49459W        W14620  43.293   4.675   4.537
49460W        W14621  23.867  18.664   4.107
49461W        W14622   8.062  19.732  12.995
49462W        W14623  28.066  44.109  14.376
49463W        W14624  41.650  42.065   4.308
49464W        W14625  26.475  15.638  13.743
49465W        W14626  39.915  26.170   2.116
49466W        W14627   1.801  11.776  11.990
49467W        W14628  17.794   6.026   0.884
49468W        W14629  36.382  32.099   2.821
49469W        W14630  17.324  25.590  13.395
49470W        W14631  41.377  33.751  12.132
49471W        W14632  33.868  24.678  12.522
49472W        W14633   5.738  25.222   5.266
49473W        W14634   8.174  30.860   2.747
49474W        W14635   9.782  22.415  12.458
49475W        W14636  30.048  15.659   1.199
49476W        W14637  41.971   7.404  14.804
49477W        W14638  44.527   2.424   1.449
49478W        W14639  28.443  13.782   1.829
49479W        W14640  33.017  14.182   2.016
49480W        W14641  39.569  15.574  11.168
49481W        W14642   9.448  31.544   0.369
49482W        W14643  13.954  40.431  11.587
49483W        W14644   5.236  12.017   0.091
49484W        W14645  43.843  16.391  13.306
49485W        W14646   3.123   7.809   1.876
49486W        W14647  33.678   3.537  12.565
49487W        W14648  22.556  14.259  13.512
49488W        W14649  44.557  24.748  12.689
49489W        W14650  35.340  24.597   0.731
49490W        W14651   3.183  16.288   0.772
49491W        W14652  18.093   5.236  11.046
49492W        W14653  35.417  44.036  11.922
49493W        W14654   2.680  43.093  12.913
49494W        W14655  25.587  19.528  14.862
49495W        W14656  31.525  43.726   2.774
49496W        W14657   9.918  14.331  11.995
49497W        W14658  12.343   0.692  12.039
49498W        W14659   5.157  31.078  14.947
49499W        W14660  35.315  37.489  12.058
49500W        W14661  15.498   4.102   0.065
49501W        W14662   3.134  35.078  11.213
49502W        W14663   8.905  24.688  10.737
49503W        W14664  19.806   6.459  10.713
49504W        W14665  37.352  13.676   0.428
49505W        W14666  41.553  15.297  12.985
49506W        W14667  18.022  20.971  11.130
49507W        W14668  42.554  17.239  13.534
49508W        W14669  40.596  37.424   0.572
49509W        W14670  29.760  36.733  12.019
49510W        W14671  37.756  44.231   4.372
49511W        W14672  15.856  40.030   1.278
49512W        W14673  33.436   7.628  14.550
49513W        W14674  27.913  44.563   0.296
49514W        W14675   6.198  43.489   1.269
49515W        W14676   9.258  13.644   0.303
49516W        W14677  37.506  28.970  12.453
49517W        W14678  31.491  21.087   0.819
49518W        W14679  20.707  43.270   2.949
49519W        W14680  36.398  22.242  11.925
49520W        W14681  33.088  22.592  13.070
49521W        W14682  36.306  24.197   3.717
49522W        W14683  26.318   1.906  12.951
49523W        W14684  33.827   5.590   3.733
49524W        W14685   8.281   5.308  11.631
49525W        W14686  26.191  24.237  12.905
49526W        W14687  37.448  44.204  12.496
49527W        W14688  40.326  41.043   4.608
49528W        W14689  13.372  34.051   2.733
49529W        W14690   8.210  26.131  14.337
49530W        W14691  33.667  39.375   2.563
49531W        W14692  29.627  12.723   1.711
49532W        W14693  28.623  38.545  11.681
49533W        W14694  32.897  40.296   1.103
49534W        W14695   6.303  28.219   3.177
49535W        W14696  21.439  35.961  12.033
49536W        W14697  26.220  37.543  12.143
49537W        W14698  13.095  25.180  10.453
49538W        W14699  27.108  19.148   1.205
49539W        W14700  29.199  35.135   3.676
49540W        W14701  25.250   2.959  14.814
49541W        W14702  18.127  10.923   1.415
49542W        W14703  25.485  20.243  12.125
49543W        W14704  29.166  25.933   3.746
49544W        W14705   3.576   7.865   1.568
49545W        W14706  38.462  28.941  13.530
49546W        W14707  22.666   1.842   3.240
49547W        W14708  37.731  25.224   2.741
49548W        W14709  19.256  40.846  13.814
49549W        W14710  20.477  35.714  13.061
49550W        W14711  18.542  36.378   1.414
49551W        W14712  11.159   1.757  12.935
49552W        W14713  30.466  17.157  11.600
49553W        W14714  24.024  34.670   0.584
49554W        W14715  33.028  28.391  12.973
49555W        W14716  12.947  39.105  13.325
49556W        W14717  33.035   2.696  14.018
49557W        W14718  26.543  36.603  13.447
49558W        W14719  13.358   1.202  14.460
49559W        W14720   7.083  34.997  13.988
49560W        W14721  28.622  39.364  12.932
49561W        W14722  15.717   5.757  10.040
49562W        W14723  27.664  17.090  11.921
49563W        W14724  29.621   4.278  12.046
49564W        W14725   1.179  16.327  12.599
49565W        W14726  21.436   1.878   0.908
49566W        W14727  44.957  12.186  13.727
49567W        W14728   5.966  41.987   3.147
49568W        W14729  34.074  30.335  11.349
49569W        W14730  20.104   7.712  13.372
49570W        W14731  12.193  31.523   1.830
49571W        W14732   5.298  11.081   0.468
49572W        W14733  22.963  28.049   3.709
49573W        W14734   5.785  18.992  12.101
49574W        W14735   8.366  14.270  11.110
49575W        W14736  15.360  17.283   3.069
49576W        W14737  32.340  15.367  10.738
49577W        W14738  17.499  29.950   2.135
49578W        W14739  32.099  30.605   3.311
49579W        W14740  39.039  39.367   4.714
49580W        W14741  19.406  12.182  12.962
49581W        W14742  35.799  28.655   1.865
49582W        W14743   4.407  17.055  12.547
49583W        W14744  14.248  30.247   2.802
49584W        W14745  44.516  32.974   2.677
49585W        W14746  18.090  26.515  12.998
49586W        W14747   2.488  34.533  12.603
49587W        W14748  19.229  23.351  12.613
49588W        W14749  29.767   1.817  14.336
49589W        W14750  21.362   9.990  11.616
49590W        W14751  22.232  34.645  10.681
49591W        W14752   0.429  18.644  11.474
49592W        W14753   3.201  35.742  14.835
49593W        W14754  22.186  19.044  10.737
49594W        W14755  34.658  21.109   4.946
49595W        W14756   5.526  42.984   1.474
49596W        W14757  13.329  26.597   1.417
49597W        W14758  29.922   4.839   0.342
49598W        W14759  29.980   2.784  13.783
49599W        W14760  39.349  15.185  14.989
49600W        W14761   4.137   4.432  13.860
49601W        W14762  19.816  16.697  10.514
49602W        W14763  36.632  39.065   1.855
49603W        W14764  27.691  11.226   3.719
49604W        W14765  23.209  35.618   2.350
49605W        W14766  14.967   2.293   3.286
49606W        W14767  30.414   7.369  11.319
49607W        W14768   0.861   9.118  11.082
49608W        W14769  15.584  17.296   3.861
49609W        W14770  20.651   8.050  12.537
49610W        W14771  44.867   0.311  14.431
49611W        W14772  39.626  23.107  12.122
49612W        W14773  20.140  22.748   4.473
49613W        W14774   7.743  14.996  13.498
49614W        W14775   0.119   1.737  13.181
49615W        W14776  36.359  21.246   5.161
49616W        W14777  11.558  38.671  13.324
49617W        W14778  12.217  16.017   3.248
49618W        W14779  19.555  43.954   3.342
49619W        W14780   0.546   4.673  14.532
49620W        W14781   9.279  38.161  14.780
49621W        W14782  43.970   2.397   1.209
49622W        W14783  17.053   8.686   0.746
49623W        W14784  20.805   5.294   2.262
49624W        W14785  34.610  11.339   2.164
49625W        W14786  29.446  44.472   0.479
49626W        W14787  38.063  44.302   2.876
49627W        W14788   4.263   3.944   2.448
49628W        W14789   7.875  11.850  12.567
49629W        W14790  21.061  43.743  11.622
49630W        W14791  26.885  44.857  11.569
49631W        W14792  17.101  30.531  11.084
49632W        W14793  30.788  30.007   3.843
49633W        W14794  42.361  30.978  12.080
49634W        W14795  11.729  39.499  14.525
49635W        W14796  41.077  19.613   3.210
49636W        W14797  38.589   0.483   2.447
49637W        W14798  38.746  40.835  10.575
49638W        W14799  38.631  13.535   1.228
49639W        W14800  10.179  14.611  13.175
49640W        W14801   9.029  21.209  14.470
49641W        W14802  35.509   3.677  14.913
49642W        W14803   2.541   5.199  12.088
49643W        W14804  18.598  36.527  12.108
49644W        W14805   7.308   0.484  12.662
49645W        W14806  42.438   2.080  12.417
49646W        W14807  42.909  33.968  14.046
49647W        W14808  44.550  37.082  13.555
49648W        W14809  16.388  37.461   3.641
49649W        W14810  32.812  14.640  10.670
49650W        W14811  39.940  19.403  12.902
49651W        W14812  33.012  29.596   2.486
49652W        W14813  22.857   2.790  12.624
49653W        W14814  36.091  44.820   3.033
49654W        W14815  17.100  20.941   2.975
49655W        W14816  35.939  40.297  14.875
49656W        W14817  15.624  30.217   1.182
49657W        W14818  38.796   2.409   1.272
49658W        W14819  16.239  12.086  11.560
49659W        W14820  20.931  16.844   0.801
49660W        W14821   9.173  31.613   2.382
49661W        W14822  18.589  30.076  11.161
49662W        W14823   2.786  33.608   2.369
49663W        W14824  15.628  35.840   0.814
49664W        W14825  41.564   4.225  11.644
49665W        W14826  28.639  40.231  11.205
49666W        W14827  26.476  36.541  10.788
49667W        W14828  26.687  20.120   1.155
49668W        W14829  44.410  42.947   1.500
49669W        W14830  26.244  43.415   4.699
49670W        W14831  17.702   5.946   3.618
49671W        W14832  42.078  20.730  13.770
49672W        W14833  31.431  16.395  12.192
49673W        W14834  15.816   3.438   2.704
49674W        W14835  19.541  27.475   0.918
49675W        W14836   5.221   0.860  11.944
49676W        W14837  35.523  21.060   0.787
49677W        W14838  26.742  30.905   1.903
49678W        W14839  28.956  14.972   3.463
49679W        W14840  32.825  42.599   4.970
49680W        W14841  18.528  21.415   0.701
49681W        W14842  28.094   7.775   0.652
49682W        W14843  26.425  28.269  13.889
49683W        W14844  39.901  12.494   4.028
49684W        W14845  22.967  43.947  14.775
49685W        W14846  44.862  17.054   2.800
49686W        W14847  25.221   2.546  13.971
49687W        W14848  11.628   9.370  13.895
49688W        W14849  27.737  31.054  13.198
49689W        W14850   2.227   1.392  11.897
49690W        W14851   0.987   0.951   1.486
49691W        W14852  40.325  38.004   2.733
49692W        W14853   3.390  43.017  14.456
49693W        W14854  27.929   5.240   1.479
49694W        W14855   3.687  17.742   0.490
49695W        W14856  20.872   6.813   1.749
49696W        W14857  24.290   7.837  12.938
49697W        W14858  39.472  32.028  12.369
49698W        W14859   1.700  22.176  10.603
49699W        W14860   9.716  33.603   3.107
49700W        W14861  41.785   1.867   3.793
49701W        W14862  39.395  24.598  14.511
49702W        W14863  24.598  36.187   3.700
49703W        W14864  38.318  22.721   4.742
49704W        W14865  18.718  18.752  10.660
49705W        W14866   3.868  32.074   3.300
49706W        W14867  33.965  18.854   3.236
49707W        W14868  29.147  20.272   4.186
49708W        W14869   5.522  44.835  10.708
49709W        W14870  16.226  31.884   2.741
49710W        W14871  25.565  13.110   2.734
49711W        W14872  17.792  33.894  13.988
49712W        W14873  16.166   1.787  14.338
49713W        W14874  27.419   2.621  13.879
49714W        W14875  39.989  26.479   0.817
49715W        W14876  43.940  33.861   3.360
49716W        W14877  10.692  27.823  14.859
49717W        W14878  16.192  12.055   4.349
49718W        W14879  22.600  14.405   2.309
49719W        W14880  31.245  38.058   1.049
49720W        W14881  37.012   0.474  10.572
49721W        W14882  38.361   6.853   0.847
49722W        W14883  27.438  41.708   2.250
49723W        W14884  19.601  37.077  11.491
49724W        W14885  24.538  27.247   1.811
49725W        W14886  10.201  42.486  10.306
49726W        W14887  31.070  44.958   3.915
49727W        W14888  21.440  32.837  14.577
49728W        W14889  11.810   9.445   3.667
49729W        W14890  40.361  12.559   4.609
49730W        W14891  29.967  34.011  11.681
49731W        W14892  34.426  12.057  11.594
49732W        W14893   7.034  22.878  13.587
49733W        W14894  36.440  26.693   3.789
49734W        W14895   0.759   0.717   2.435
49735W        W14896  29.455  16.435  10.733
49736W        W14897   2.343  22.428  10.675
49737W        W14898   1.927  24.612   0.176
49738W        W14899   5.171  18.216   0.371
49739W        W14900  25.627  41.059   4.277
49740W        W14901  23.134   7.138  11.941
49741W        W14902  12.207  21.260   1.945
49742W        W14903  15.502  28.953  10.731
49743W        W14904  21.852  19.505  10.218
49744W        W14905  38.477  16.765   1.770
49745W        W14906   5.738  21.635  10.966
49746W        W14907   0.456  30.333   0.699
49747W        W14908  39.295  35.064  13.371
49748W        W14909  19.178   0.353  13.359
49749W        W14910  13.630  36.867  11.393
49750W        W14911  18.091  13.719  12.196
49751W        W14912  20.279  38.808   0.437
49752W        W14913  17.008   0.246   1.850
49753W        W14914  29.012  26.889  10.605
49754W        W14915  31.958  23.789  11.009
49755W        W14916  43.235  36.577   2.664
49756W        W14917  21.136   1.289   3.481
49757W        W14918  35.113  13.138   4.722
49758W        W14919   6.749  17.658  10.571
49759W        W14920  35.808  39.730  13.974
49760W        W14921  34.146  40.626   4.885
49761W        W14922  19.493  13.593  14.840
49762W        W14923  44.542   6.325   0.438
49763W        W14924   8.408  10.657  13.395
49764W        W14925  43.489   6.946   4.300
49765W        W14926  17.944  26.004   1.235
49766W        W14927  19.574   3.734  14.928
49767W        W14928  35.166   0.290   3.703
49768W        W14929  11.807  26.936   4.142
49769W        W14930  14.697  27.687   1.312
49770W        W14931   3.159  33.879  12.498
49771W        W14932  42.518  42.385   0.792
49772W        W14933  36.679  17.478  11.195
49773W        W14934   0.678  13.633  13.863
49774W        W14935   3.159  38.522  13.434
49775W        W14936   1.076   4.627  12.111
49776W        W14937   3.337  31.415   0.438
49777W        W14938  23.152  36.064  10.667
49778W        W14939  33.153   2.557   2.782
49779W        W14940   9.146  28.984  14.924
49780W        W14941  33.009  26.571   1.119
49781W        W14942  14.279  13.250  13.289
49782W        W14943   4.807   8.623  14.863
49783W        W14944  39.044  22.039   1.832
49784W        W14945   1.567  21.306   4.110
49785W        W14946  17.976   0.511   3.407
49786W        W14947  44.007  19.211  13.361
49787W        W14948  36.350  44.771  12.928
49788W        W14949  23.613  14.648   4.181
49789W        W14950  12.839  31.149  12.857
49790W        W14951  21.782   6.219   3.253
49791W        W14952   2.202  31.563   2.473
49792W        W14953  36.179   0.514  14.612
49793W        W14954  22.235  27.034  14.325
49794W        W14955  26.631  42.117   4.796
49795W        W14956  23.107  33.473   2.467
49796W        W14957  38.523  37.579   0.438
49797W        W14958   3.832   9.757  10.191
49798W        W14959   5.190  33.892  13.133
49799W        W14960  38.956  10.936   4.013
49800W        W14961  25.868  19.367  12.144
49801W        W14962  36.725   6.751   1.920
49802W        W14963   0.452  16.159   2.875
49803W        W14964  29.970  37.370   0.471
49804W        W14965  26.767  18.652   0.822
49805W        W14966  27.671   8.658  11.151
49806W        W14967  11.664  18.010  14.441
49807W        W14968  38.640   2.373  11.415
49808W        W14969  30.872  34.990   1.424
49809W        W14970  42.018   0.492  11.147
49810W        W14971  18.602  37.826  14.857
49811W        W14972  42.093  27.992   4.634
49812W        W14973  38.286   6.769   2.811
49813W        W14974  16.079  10.783  14.722
49814W        W14975   1.691  37.102  13.416
49815W        W14976  23.928  37.248   0.237
49816W        W14977  13.153  41.368  13.378
49817W        W14978  17.625  21.968  13.821
49818W        W14979   5.638  24.207   0.791
49819W        W14980  22.926  40.134   4.044
49820W        W14981   5.755  40.915   0.928
49821W        W14982   8.388  12.834   2.799
49822W        W14983  20.671  27.249  13.024
49823W        W14984  11.338   0.180   4.422
49824W        W14985   3.918  10.143   2.753
49825W        W14986  36.541   2.462   3.637
49826W        W14987   5.834  24.539   3.108
49827W        W14988  17.763   1.275   2.735
49828W        W14989  27.005  27.534   2.732
49829W        W14990  12.383  25.774   1.804
49830W        W14991  40.745  18.610  13.787
49831W        W14992   0.830  21.048  13.786
49832W        W14993  41.460  33.121   1.208
49833W        W14994  33.226  24.742   3.318
49834W        W14995  19.964   6.917  12.595
49835W        W14996  37.005  11.398   3.596
49836W        W14997  40.319  27.916   0.827
49837W        W14998  32.830  25.087   2.468
49838W        W14999   3.176   4.387  12.443
49839W        W15000   6.776   1.724   1.561
49840W        W15001  33.328  10.024   2.282
49841W        W15002  15.613  29.046   1.844
49842W        W15003  11.290  13.373  13.369
49843W        W15004  43.718  26.000   4.217
49844W        W15005   0.930  20.832  11.064
49845W        W15006  14.797   2.441  11.741
49846W        W15007   1.722  23.541   3.692
49847W        W15008  23.154  43.878  11.040
49848W        W15009  44.195  44.605  11.369
49849W        W15010   5.218  19.972  11.045
49850W        W15011  26.335  28.063   4.185
49851W        W15012  30.825  11.408   4.040
49852W        W15013   0.484  21.082  11.086
49853W        W15014   6.916  10.636   2.149
49854W        W15015  16.088  34.283   0.438
49855W        W15016   7.718   3.398  12.951
49856W        W15017  16.830  38.070  11.120
49857W        W15018   1.974  29.591  12.836
49858W        W15019   5.679   6.181   3.263
49859W        W15020   6.124   0.770  12.450
49860W        W15021  17.119   8.217  14.369
49861W        W15022  16.293  18.249   2.112
49862W        W15023  38.477  42.828   3.391
49863W        W15024  42.395  38.733   2.244
49864W        W15025  26.402  14.714  10.312
49865W        W15026  12.964  14.632  14.364
49866W        W15027  18.154  21.277   0.364
49867W        W15028  20.497  11.536   2.657
49868W        W15029  21.652  41.307   0.746
49869W        W15030   3.182  28.868   0.372
49870W        W15031  39.404  24.980  14.888
49871W        W15032  43.544  19.083  12.368
49872W        W15033  26.608  36.071   3.733
49873W        W15034  10.628  39.968   1.394
49874W        W15035  42.701  27.207   4.892
49875W        W15036  32.569  17.278  14.921
49876W        W15037   8.850  33.804  11.493
49877W        W15038   3.209  39.061   1.312
49878W        W15039  23.951   9.239   1.243
49879W        W15040  35.310  25.443   4.155
49880W        W15041  30.998   0.996   2.793
49881W        W15042  41.155   0.563   4.530
49882W        W15043  39.574  11.043  14.274
49883W        W15044  33.973  42.967   0.240
49884W        W15045  43.568  13.925  12.490
49885W        W15046  20.540  13.308  13.070
49886W        W15047  36.090  13.376   3.670
49887W        W15048  20.229  31.902  14.035
49888W        W15049  25.534  13.950  13.456
49889W        W15050  29.385   1.748   0.839
49890W        W15051  28.175  35.810  12.501
49891W        W15052  32.651   3.630   1.642
49892W        W15053  40.068  17.569   2.590
49893W        W15054  10.305   7.400  14.505
49894W        W15055  28.982  26.358  11.441
49895W        W15056   8.570  23.891   1.722
49896W        W15057  21.992   8.994   2.816
49897W        W15058   0.912  14.919  14.530
49898W        W15059  23.197  31.386  12.429
49899W        W15060  24.135   1.423   2.316
49900W        W15061  43.808  39.499   3.676
49901W        W15062  40.551  32.913   2.238
49902W        W15063   0.557  23.005  14.844
49903W        W15064  30.689  19.170   2.578
49904W        W15065  33.488  13.912   3.657
49905W        W15066  10.119  18.986   0.339
49906W        W15067  21.961  10.208  13.838
49907W        W15068   7.441  25.478  11.194
49908W        W15069  11.578  15.730   5.004
49909W        W15070  10.177  15.103   0.846
49910W        W15071  28.435  15.085   1.803
49911W        W15072   3.208   0.402   1.230
49912W        W15073  11.725   6.209   1.362
49913W        W15074  41.025  31.617   2.768
49914W        W15075  24.063  43.065  13.412
49915W        W15076  44.074  18.498  10.348
49916W        W15077  38.614   9.625  13.887
49917W        W15078   2.301  18.704   3.140
49918W        W15079  33.114  27.032  12.532
49919W        W15080  35.222  19.497   3.299
49920W        W15081  11.299   5.738  12.632
49921W        W15082  30.997  20.467  12.557
49922W        W15083  38.348   7.686  14.395
49923W        W15084  16.500  24.214  13.340
49924W        W15085   2.293  36.822  11.472
49925W        W15086  26.526   4.980  11.517
49926W        W15087  26.598   9.454   0.370
49927W        W15088  34.833  36.378  10.190
49928W        W15089  16.364  42.418   3.221
49929W        W15090  13.747   4.269   1.755
49930W        W15091  10.327   9.740   1.251
49931W        W15092  31.021  19.345  14.351
49932W        W15093  32.845  23.613  13.990
49933W        W15094  11.305   8.761   0.236
49934W        W15095  37.979  16.237   2.361
49935W        W15096  29.571  32.641  10.695
49936W        W15097  21.208  35.494  12.012
49937W        W15098   1.321  44.952   1.253
49938W        W15099   3.094  10.768  12.461
49939W        W15100  43.072  43.491   2.169
49940W        W15101  30.582   7.053   3.672
49941W        W15102  18.538  36.901  10.688
49942W        W15103  37.856  44.832  13.914
49943W        W15104  27.432  19.048  12.887
49944W        W15105  34.537   1.436   2.775
49945W        W15106  24.512  43.806   4.510
49946W        W15107  16.556  10.389  14.493
49947W        W15108  41.024  19.512   1.874
49948W        W15109  22.815  15.140  12.088
49949W        W15110  15.447  39.576  14.427
49950W        W15111  33.325  33.386  13.059
49951W        W15112  44.467  15.086  12.084
49952W        W15113   7.392  34.093   2.189
49953W        W15114  22.008   4.468   3.583
49954W        W15115  36.447   5.141   1.245
49955W        W15116  17.352  31.887  11.648
49956W        W15117  44.778   3.318   4.552
49957W        W15118  29.024  12.264  12.888
49958W        W15119   3.131   5.466  13.261
49959W        W15120   2.579  26.898  11.463
49960W        W15121  38.128  30.893  13.006
49961W        W15122  37.551  33.019  12.105
49962W        W15123  13.296   5.383   0.251
49963W        W15124  36.673  25.851  11.611
49964W        W15125  27.450  36.467  11.633
49965W        W15126  19.023  23.027   1.419
49966W        W15127  44.427  43.292   1.900
49967W        W15128  38.757   1.564   1.882
49968W        W15129  11.194  25.717  14.386
49969W        W15130  18.313  29.169  11.500
49970W        W15131  38.194  42.317   4.514
49971W        W15132  29.873  10.883   2.388
49972W        W15133  28.911   7.594   1.884
49973W        W15134  16.421  15.012   0.260
49974W        W15135  29.202  29.125  12.540
49975W        W15136   7.303  36.140   4.348
49976W        W15137   5.781  38.066   2.786
49977W        W15138   0.728  15.604   4.159
49978W        W15139  14.457  39.979  13.959
49979W        W15140  27.532  41.753   0.930
49980W        W15141  39.785  20.440   4.137
49981W        W15142   6.667  26.261  13.603
49982W        W15143  37.371  10.758  14.968
49983W        W15144  11.348  17.751  13.733
49984W        W15145  10.167  34.077   2.699
49985W        W15146  19.209  18.620   4.005
49986W        W15147   8.539  35.973   1.048
49987W        W15148  36.168   3.848  10.660
49988W        W15149  11.687  11.768  10.229
49989W        W15150  35.958   9.152  11.226
49990W        W15151  15.108  26.539  10.473
49991W        W15152  12.775  18.584  11.468
49992W        W15153  39.011  20.534  10.677
49993W        W15154  13.734  37.588   3.937
49994W        W15155  23.224  44.301   1.675
49995W        W15156  32.329  27.423  12.322
49996W        W15157  29.741   7.169   1.165
49997W        W15158  27.126  27.226   2.229
49998W        W15159  13.637  42.462  13.209
49999W        W15160   7.312  20.486   0.406
50000W        W15161  23.885  28.180  11.548
50001W        W15162  34.374   5.762  14.278
50002W        W15163  28.087  27.155  12.030
50003W        W15164  35.412  33.068   4.470
50004W        W15165  34.581  41.203   0.279
50005W        W15166   9.666  21.142  10.920
50006W        W15167  42.865   8.911  12.154
50007W        W15168  41.947   2.763  14.255
50008W        W15169  10.303   7.558   3.753
50009W        W15170  31.043  41.281   1.236
50010W        W15171  27.444  36.264   0.989
50011W        W15172  19.883  30.845  12.466
50012W        W15173  29.400  24.106  12.723
50013W        W15174  38.378  34.140   3.238
50014W        W15175  44.302  14.766  13.015
50015W        W15176  26.440  15.171   1.715
50016W        W15177  24.010  21.891  14.123
50017W        W15178  31.133  29.635  10.786
50018W        W15179  10.543   7.100   3.666
50019W        W15180  16.216  19.603  12.988
50020W        W15181  38.850  22.637   3.537
50021W        W15182  10.716  16.268  12.398
50022W        W15183  23.012  29.081  14.300
50023W        W15184  17.621  37.152  11.994
50024W        W15185  37.770   2.359   2.154
50025W        W15186  16.026  10.722  11.886
50026W        W15187  12.739   5.119   3.332
50027W        W15188   7.330  32.545  13.877
50028W        W15189  12.902  32.648   3.266
50029W        W15190  28.789  14.883  12.299
50030W        W15191  33.356  44.232  10.770
50031W        W15192  21.755  28.193   0.971
50032W        W15193  16.971   3.485  14.954
50033W        W15194   8.360   1.260  12.466
50034W        W15195   6.798  12.836   0.774
50035W        W15196  11.754   0.422  10.768
50036W        W15197  39.453   1.756  12.131
50037W        W15198  44.923  24.975   4.947
50038W        W15199  12.220  22.018  11.574
50039W        W15200  26.897   4.270   0.515
50040W        W15201  30.261  12.244  13.562
50041W        W15202  24.265  33.253   0.516
50042W        W15203  11.851   9.635  14.330
50043W        W15204  14.526  43.000  10.208
50044W        W15205   4.862  15.227  14.864
50045W        W15206   4.312  31.901   4.173
50046W        W15207  21.280   3.784   2.701
50047W        W15208  33.917  12.583  11.508
50048W        W15209   8.621  11.682  13.802
50049W        W15210   9.316   3.515   0.224
50050W        W15211  16.193  36.649  12.517
50051W        W15212   5.669  25.989   0.405
50052W        W15213   8.566   2.257   5.250
50053W        W15214   2.806  25.008  10.435
50054W        W15215   0.067  42.538   0.916
50055W        W15216  35.754  31.101   4.792
50056W        W15217  34.381  21.083   3.602
50057W        W15218  21.008  39.832   1.368
50058W        W15219  14.531   5.379  13.938
50059W        W15220  19.603  19.593  13.600
50060W        W15221  15.432  35.050   4.948
50061W        W15222  22.988  24.245  14.892
50062W        W15223  22.625  31.486  10.624
50063W        W15224  28.073  39.938   4.091
50064W        W15225  42.338   6.682  13.934
50065W        W15226  18.259  36.545  13.719
50066W        W15227  31.591  16.642  13.983
50067W        W15228  26.118   9.976  12.086
50068W        W15229   6.523  20.591  11.496
50069W        W15230  28.280  32.833   2.697
50070W        W15231  11.025  17.364   0.351
50071W        W15232   3.785  40.475   2.157
50072W        W15233  12.661  23.326  12.978
50073W        W15234  35.016  40.289   1.535
50074W        W15235  20.832   4.334   2.183
50075W        W15236  23.722  15.107  14.733
50076W        W15237  21.238  15.405  13.709
50077W        W15238   2.191  15.385  10.013
50078W        W15239  30.149  10.337  12.238
50079W        W15240  39.334   8.845   0.005
50080W        W15241  22.987  11.169   0.236
50081W        W15242  27.652  30.730   4.564
50082W        W15243   3.306  38.525   2.383
50083W        W15244  42.558  35.580   2.158
50084W        W15245  40.547  40.545  11.454
50085W        W15246  23.190  39.867  11.053
50086W        W15247  27.565  17.144  11.412
50087W        W15248  13.765   8.369   4.274
50088W        W15249  35.965  38.804   3.719
50089W        W15250  43.683  40.813   4.371
50090W        W15251  11.757  15.753   3.693
50091W        W15252  25.710  25.249   4.482
50092W        W15253  21.685  24.551   3.117
50093W        W15254  12.601  23.649   0.842
50094W        W15255  37.339  31.540  13.808
50095W        W15256  33.985  33.002   3.273
50096W        W15257  26.570  11.042  12.256
50097W        W15258   3.308   5.097   1.231
50098W        W15259   9.176   5.909  12.730
50099W        W15260  26.949  22.009  14.789
50100W        W15261  26.883   1.566  12.428
50101W        W15262  13.757  40.082   3.746
50102W        W15263   8.270  19.300  11.175
50103W        W15264  11.325   7.656   4.667
50104W        W15265  40.365  37.335   3.222
50105W        W15266  19.636   4.344   4.623
50106W        W15267  25.101  23.012  13.677
50107W        W15268  23.869  40.032   3.709
50108W        W15269  17.131  38.038   4.247
50109W        W15270   2.185  44.015  11.169
50110W        W15271   4.979  31.846   4.580
50111W        W15272   3.954  18.239   3.640
50112W        W15273  15.802  23.721   2.836
50113W        W15274  40.957   6.508  12.441
50114W        W15275   2.562   3.766  14.727
50115W        W15276  11.216  22.042  10.548
50116W        W15277  26.479  25.928   0.803
50117W        W15278  33.582  12.793   3.761
50118W        W15279  10.197   0.234  10.296
50119W        W15280   2.461  41.291   1.882
50120W        W15281  36.551  40.482  12.997
50121W        W15282   5.207  38.334  13.750
50122W        W15283  14.821   0.242  11.624
50123W        W15284   8.823   6.768   1.811
50124W        W15285  36.981   7.913   5.020
50125W        W15286  30.004  41.132   2.290
50126W        W15287  28.400  24.593   4.912
50127W        W15288   5.746  44.009  13.106
50128W        W15289  10.483  24.087  13.464
50129W        W15290  23.601  37.664  14.038
50130W        W15291  14.741   3.250  10.158
50131W        W15292  30.743  20.985  13.370
50132W        W15293  21.232  38.441  11.821
50133W        W15294  17.688   5.251   0.447
50134W        W15295  36.374  25.524  14.456
50135W        W15296   8.804  16.608  10.586
50136W        W15297  30.502  39.835  14.343
50137W        W15298  22.837  20.645  11.729
50138W        W15299  11.382   4.753  12.023
50139W        W15300   9.834   4.023  14.437
50140W        W15301  38.064  36.674   3.280
50141W        W15302   1.887  11.436   2.800
50142W        W15303   8.556  31.866   0.679
50143W        W15304  24.267  35.777   4.875
50144W        W15305  38.467  42.266  11.930
50145W        W15306  28.017  33.874   0.027
50146W        W15307   4.398  35.767  12.940
50147W        W15308  42.954   8.104   3.166
50148W        W15309  29.281  24.594   3.047
50149W        W15310  37.997  34.395  13.923
50150W        W15311   3.943  37.408   0.754
50151W        W15312  13.738  39.853  12.863
50152W        W15313  12.823  37.172  13.458
50153W        W15314  38.212   3.692   3.282
50154W        W15315  34.943  15.093  11.264
50155W        W15316  34.112  13.073  12.962
50156W        W15317  28.135  34.059  10.941
50157W        W15318  14.155   3.207   1.124
50158W        W15319  20.959  38.681   4.651
50159W        W15320  37.966   2.087   4.235
50160W        W15321   7.346  29.554  11.392
50161W        W15322   2.545   1.746  12.180
50162W        W15323  24.960  28.140   4.103
50163W        W15324  36.178  28.975  13.520
50164W        W15325  19.228  20.180   3.307
50165W        W15326  19.692  19.482  14.573
50166W        W15327  12.551  40.652   3.513
50167W        W15328   8.625   6.892   2.322
50168W        W15329  42.793  16.148   0.837
50169W        W15330  44.381  26.632   0.023
50170W        W15331   5.417  29.953   4.472
50171W        W15332  17.799  18.950  13.715
50172W        W15333  25.310  40.275  13.188
50173W        W15334  14.979  43.957  10.714
50174W        W15335  29.645  44.971   2.339
50175W        W15336  15.129   2.873  10.583
50176W        W15337  26.218  41.458  14.720
50177W        W15338  29.563  12.629   0.825
50178W        W15339  35.808  36.008   3.286
50179W        W15340   7.915  36.169   3.278
50180W        W15341  36.388  19.425  11.170
50181W        W15342  42.450  35.536   4.214
50182W        W15343   7.597   4.281   2.874
50183W        W15344  26.642  25.410   2.926
50184W        W15345  15.902   7.696  12.442
50185W        W15346  13.717  10.403  12.577
50186W        W15347  24.545  43.299   3.342
50187W        W15348  31.037  12.080   2.819
50188W        W15349  34.621  13.183   4.584
50189W        W15350  18.520  12.724  13.012
50190W        W15351  28.498  37.025   3.657
50191W        W15352  30.324  16.814   2.940
50192W        W15353  25.326  18.233   2.045
50193W        W15354  34.058  37.532   5.450
50194W        W15355  35.619  19.500  11.671
50195W        W15356  43.984  44.549  13.852
50196W        W15357  30.340  12.180   2.255
50197W        W15358   9.492  19.947   3.890
50198W        W15359  12.217  15.348   0.906
50199W        W15360  13.898   7.421   3.154
50200W        W15361  39.055  12.621  13.268
50201W        W15362   1.188  12.645  12.016
50202W        W15363  17.198   9.188   2.312
50203W        W15364  31.458  40.934   3.930
50204W        W15365  12.092  13.212   0.432
50205W        W15366  43.743  12.256  14.378
50206W        W15367  20.517  16.529  14.997
50207W        W15368  17.322   6.416  12.421
50208W        W15369  26.049  15.791  13.507
50209W        W15370  38.037  40.137  10.414
50210W        W15371  33.120  31.143   4.677
50211W        W15372   8.874  19.609  13.377
50212W        W15373  23.159   5.430   4.202
50213W        W15374  28.927  14.858   4.051
50214W        W15375   7.631   1.472   4.174
50215W        W15376  16.665  19.433   2.849
50216W        W15377  44.394  12.220   0.867
50217W        W15378  14.563  15.520   3.139
50218W        W15379  11.301   3.542  10.722
50219W        W15380   3.651  10.810   4.096
50220W        W15381   5.934   6.387   0.329
50221W        W15382  27.920  27.778   0.331
50222W        W15383   8.331  10.644   2.292
50223W        W15384   9.745   2.723  12.376
50224W        W15385  43.302   8.684   3.740
50225W        W15386   5.369  23.945  10.116
50226W        W15387  24.625  24.093   3.162
50227W        W15388  12.124  36.790  14.965
50228W        W15389   8.453  28.803  12.918
50229W        W15390  43.728  34.058  14.646
50230W        W15391   1.513  36.350   2.725
50231W        W15392  29.716  23.198  13.020
50232W        W15393  12.259  14.227   0.444
50233W        W15394  10.777  17.143   4.885
50234W        W15395  20.587  16.142  14.685
50235W        W15396   1.834  27.850   0.867
50236W        W15397   2.835  33.416  10.115
50237W        W15398  15.667  34.601   3.543
50238W        W15399  39.828   5.856   3.329
50239W        W15400   9.904  13.902   0.899
50240W        W15401  35.642  35.766   3.997
50241W        W15402  17.764  31.414  14.496
50242W        W15403  16.668  25.235  13.070
50243W        W15404  20.509  42.378  12.892
50244W        W15405  12.872   0.908  11.124
50245W        W15406  36.841  13.239   1.055
50246W        W15407  40.391  31.879  12.024
50247W        W15408  10.602   8.599   0.977
50248W        W15409  39.974  42.484   4.994
50249W        W15410  10.913  32.213   1.743
50250W        W15411   0.804  38.681  13.427
50251W        W15412  20.691  28.515   0.339
50252W        W15413   9.834  25.994  14.899
50253W        W15414  30.684  20.329   4.260
50254W        W15415  40.267  34.135   2.878
50255W        W15416  35.395  18.692  13.353
50256W        W15417  41.677  31.002   1.637
50257W        W15418  17.613  39.863   0.942
50258W        W15419  25.025  25.681   3.584
50259W        W15420  39.966  20.647   3.672
50260W        W15421   4.902  14.211   4.111
50261W        W15422  39.788  10.000  11.029
50262W        W15423  25.173   0.970   4.236
50263W        W15424  37.473   5.649   4.602
50264W        W15425  22.360  25.677  14.831
50265W        W15426  21.128   8.573   1.933
50266W        W15427   7.845   2.858  10.846
50267W        W15428  23.716  43.639   0.878
50268W        W15429   1.574  24.423  13.388
50269W        W15430  18.742  24.716   1.865
50270W        W15431  43.740  26.649  12.591
50271W        W15432   5.478   9.197   3.747
50272W        W15433  35.621  10.196   1.719
50273W        W15434  37.424  22.189  11.177
50274W        W15435  41.478  28.002   4.067
50275W        W15436  42.586   8.234  12.198
50276W        W15437   8.118  38.819   0.266
50277W        W15438  17.060  12.650   2.874
50278W        W15439  30.136  37.187   0.920
50279W        W15440  36.640  42.272  13.526
50280W        W15441  33.549  10.736   1.098
50281W        W15442  28.228  16.151  11.426
50282W        W15443  35.614  19.983   1.107
50283W        W15444  23.753  24.507  14.402
50284W        W15445  17.740  41.760   2.296
50285W        W15446   1.751  28.403   4.178
50286W        W15447   4.615   9.991   4.362
50287W        W15448   9.667  26.034   0.777
50288W        W15449  17.232  27.410  11.186
50289W        W15450  31.970  17.647   0.951
50290W        W15451   2.718   3.410  13.932
50291W        W15452   3.174   3.374  11.841
50292W        W15453  36.409  36.320   0.373
50293W        W15454  39.885  31.032   2.477
50294W        W15455  15.666  28.515   1.809
50295W        W15456  14.890   9.694  13.564
50296W        W15457  16.585  38.979   9.832
50297W        W15458  25.823  34.780   2.266
50298W        W15459   3.741   0.807   0.447
50299W        W15460  43.244  27.586   2.274
50300W        W15461   0.539  43.874  13.981
50301W        W15462  15.675  33.981   3.287
50302W        W15463  16.937  42.452   0.733
50303W        W15464  26.720  17.583  10.642
50304W        W15465  36.105   7.440   0.769
50305W        W15466  42.343  24.150  14.327
50306W        W15467  11.818  28.920   3.670
50307W        W15468  41.530   3.316  10.813
50308W        W15469  16.518  38.547   0.266
50309W        W15470  30.891  42.132   1.045
50310W        W15471  28.551  37.117   2.352
50311W        W15472   8.762  42.013  11.597
50312W        W15473  17.086  31.452   4.283
50313W        W15474   2.808   9.724  13.393
50314W        W15475  35.935  34.605   1.398
50315W        W15476  32.949  31.643   4.630
50316W        W15477  36.826  13.551   2.335
50317W        W15478  14.275   5.899   4.831
50318W        W15479   2.349  28.939   4.028
50319W        W15480  17.064  27.987  14.989
50320W        W15481  39.774  44.931  13.976
50321W        W15482  17.997  13.759  13.571
50322W        W15483   0.917  42.358  12.915
50323W        W15484  28.478  17.251  11.243
50324W        W15485  11.612  20.636  13.992
50325W        W15486  23.723   0.234   2.280
50326W        W15487  44.689  30.059  11.492
50327W        W15488  43.586  40.420  12.558
50328W        W15489   4.860   3.720   3.100
50329W        W15490  42.784  25.695   3.684
50330W        W15491  38.004  34.505   3.736
50331W        W15492  11.126  18.823   0.373
50332W        W15493  35.152  35.967   1.988
50333W        W15494  26.449   2.705   2.541
50334W        W15495  25.148  12.073   1.241
50335W        W15496  35.943   2.840   2.426
50336W        W15497  27.756  32.522  12.175
50337W        W15498  12.442  15.236   0.451
50338W        W15499  10.333  17.944   2.850
50339W        W15500  26.442   8.724  10.593
50340W        W15501  38.284   0.142   3.202
50341W        W15502  19.309  42.036  11.199
50342W        W15503  17.525  25.771  14.299
50343W        W15504   7.771  26.627  14.205
50344W        W15505  25.088  36.994   3.343
50345W        W15506  17.853  12.826   0.337
50346W        W15507  16.310  34.197  13.683
50347W        W15508  11.655  42.806   2.746
50348W        W15509  42.491  40.058   2.881
50349W        W15510   7.057  41.917  12.896
50350W        W15511  13.844  33.912   3.656
50351W        W15512  19.247  20.756   1.434
50352W        W15513  32.584  16.670   2.382
50353W        W15514   3.051  36.451  14.388
50354W        W15515  12.371  28.568  10.903
50355W        W15516   0.262  14.754  14.279
50356W        W15517  36.456  21.276   4.342
50357W        W15518  33.731  33.817   4.721
50358W        W15519  27.503  27.626   2.656
50359W        W15520  26.947  18.049  14.783
50360W        W15521  38.990  33.092  12.911
50361W        W15522  34.213  18.683  10.878
50362W        W15523  23.963  28.064   3.874
50363W        W15524  37.891  15.041   1.993
50364W        W15525   9.370  25.138  12.228
50365W        W15526   4.328  43.460  12.829
50366W        W15527  36.075  12.053  11.947
50367W        W15528   3.179  41.502  12.534
50368W        W15529  17.772   7.647  14.943
50369W        W15530  25.639  32.129   3.692
50370W        W15531  21.073  19.331  14.210
50371W        W15532  35.472  41.353   2.451
50372W        W15533   7.690  10.269  11.606
50373W        W15534  44.315  39.346  12.116
50374W        W15535   8.670  10.727  14.844
50375W        W15536  31.359   7.812   0.818
50376W        W15537  12.171  38.419   4.362
50377W        W15538  42.442   4.251  13.863
50378W        W15539  27.051   4.468  14.412
50379W        W15540  41.038  36.807  13.835
50380W        W15541   0.039   9.204   4.328
50381W        W15542  44.841  14.265   1.521
50382W        W15543  39.990  32.873  10.712
50383W        W15544  26.628   4.899  12.463
50384W        W15545  14.370  10.886   2.359
50385W        W15546  44.297  28.038   1.842
50386W        W15547  30.025  13.083  10.907
50387W        W15548  19.415  32.106  10.787
50388W        W15549  24.676  12.279   2.834
50389W        W15550  44.266  32.567   2.399
50390W        W15551  36.365  42.763  10.737
50391W        W15552   6.312  18.239   0.004
50392W        W15553  21.686  14.317   2.360
50393W        W15554  23.980  32.105  13.220
50394W        W15555  43.232  35.264   2.680
50395W        W15556  35.646  38.989   1.905
50396W        W15557   8.290   9.680   2.586
50397W        W15558   4.589  20.473  10.550
50398W        W15559   6.447  44.867  14.997
50399W        W15560  37.518  14.587  13.463
50400W        W15561  37.884  21.691  10.593
50401W        W15562  26.360  14.662   5.068
50402W        W15563   3.898   1.296   1.887
50403W        W15564  16.620  32.168  13.453
50404W        W15565  22.608  18.980   2.368
50405W        W15566  26.172   1.475   4.820
50406W        W15567  30.553  38.803   5.011
50407W        W15568   9.260  34.102  13.941
50408W        W15569  39.476  41.452  13.854
50409W        W15570  32.985  28.575   0.595
50410W        W15571  43.380  11.069  13.929
50411W        W15572  29.785  21.430  14.469
50412W        W15573  21.269  21.913   2.608
50413W        W15574  15.402   2.473  11.509
50414W        W15575  29.226   1.935  11.593
50415W        W15576  37.968   6.005  10.444
50416W        W15577   6.736  15.051  14.461
50417W        W15578  27.916  32.686  13.384
50418W        W15579  30.089  14.464   1.539
50419W        W15580  23.749  37.529  12.493
50420W        W15581  19.855   0.315   0.285
50421W        W15582  31.175   3.237  12.601
50422W        W15583  24.589  32.415   0.779
50423W        W15584  38.543  15.910   0.783
50424W        W15585  13.567  30.517   5.182
50425W        W15586  22.694  17.627   4.933
50426W        W15587  43.453  17.270  14.293
50427W        W15588  32.155   9.263  12.023
50428W        W15589  29.069  37.397   1.469
50429W        W15590   5.122  28.906   3.251
50430W        W15591   0.469  40.108  13.740
50431W        W15592  12.051  41.436  11.059
50432W        W15593   0.347  32.358  10.657
50433W        W15594  16.388  14.391   2.849
50434W        W15595  38.051  39.176   1.756
50435W        W15596  14.333  21.826   1.891
50436W        W15597  34.769   8.170  12.990
50437W        W15598  32.969  30.856  10.764
50438W        W15599   4.224   0.366   0.006
50439W        W15600  15.703  25.026  14.108
50440W        W15601  34.902  20.260  10.454
50441W        W15602   0.386  22.663   3.218
50442W        W15603  22.262   9.762   0.418
50443W        W15604   5.514  21.172   5.006
50444W        W15605   9.031  22.865  11.099
50445W        W15606  27.274  16.065  10.744
50446W        W15607  18.050  28.604  12.088
50447W        W15608   4.420   5.119  12.671
50448W        W15609  37.626   1.304  13.970
50449W        W15610  20.524  20.958   3.103
50450W        W15611  28.938  12.042   2.185
50451W        W15612  19.129  31.393   2.611
50452W        W15613  20.213   0.443  12.843
50453W        W15614  11.123  11.542   2.629
50454W        W15615  17.107  15.166  11.098
50455W        W15616  36.512  14.324  13.127
50456W        W15617  29.501   5.612   0.899
50457W        W15618  30.100  15.094  14.844
50458W        W15619  19.575  14.068  12.523
50459W        W15620  35.451  20.086  11.172
50460W        W15621  37.112  31.245   0.813
50461W        W15622  28.415  41.535   0.794
50462W        W15623  26.150  34.362   2.206
50463W        W15624  18.742  30.983   4.684
50464W        W15625  33.473  15.949  12.543
50465W        W15626   1.367  38.367   2.975
50466W        W15627  31.707  43.508   1.362
50467W        W15628  22.618  27.623   2.338
50468W        W15629  28.087  37.401   1.503
50469W        W15630   8.869  38.685   1.188
50470W        W15631  32.496  10.663   3.042
50471W        W15632  30.409  28.901  14.917
50472W        W15633  44.523   7.172  12.479
50473W        W15634   4.316  10.907  14.796
50474W        W15635   9.546  42.582   4.029
50475W        W15636  37.746  20.770   4.830
50476W        W15637  18.569   1.795  11.519
50477W        W15638  32.679  34.431   2.452
50478W        W15639  30.947   0.403   2.203
50479W        W15640  40.385   0.442   4.828
50480W        W15641  40.772  40.537   4.433
50481W        W15642   3.975  13.802  13.419
50482W        W15643  38.420  29.115   0.541
50483W        W15644  20.699  20.001   3.056
50484W        W15645  35.312  29.826   1.920
50485W        W15646  35.103  20.026   0.882
50486W        W15647  19.117   0.345   3.181
50487W        W15648   2.882  32.043   2.744
50488W        W15649  14.641   0.211   1.380
50489W        W15650  41.330   5.678  13.354
50490W        W15651  36.234   9.312  11.648
50491W        W15652  10.201   2.929  13.614
50492W        W15653  30.204  31.694   4.071
50493W        W15654  43.250  43.333   1.420
50494W        W15655  16.294   8.845  14.516
50495W        W15656  25.838   1.321  10.706
50496W        W15657  16.022  20.479  10.646
50497W        W15658   4.352  26.106   2.224
50498W        W15659  36.874   2.856   0.679
50499W        W15660  27.491  11.206   1.428
50500W        W15661  22.612  23.150   0.277
50501W        W15662  20.103  41.056   2.077
50502W        W15663  11.723  34.012  13.975
50503W        W15664  10.879   0.752   0.803
50504W        W15665   4.218  36.002  11.612
50505W        W15666   3.650  34.690   0.998
50506W        W15667  23.796   1.978  13.328
50507W        W15668  20.523   6.836   4.701
50508W        W15669  39.863  12.621   0.400
50509W        W15670  15.698   7.140  10.346
50510W        W15671  16.902  34.477   2.180
50511W        W15672  41.302   5.965   4.375
50512W        W15673  21.301  24.624   2.143
50513W        W15674  33.557  20.212   3.164
50514W        W15675  44.518  37.623  14.537
50515W        W15676   3.905   3.475  14.594
50516W        W15677  13.884   4.751   3.830
50517W        W15678  37.477   1.184  11.424
50518W        W15679  25.695   4.094  14.418
50519W        W15680   8.659  11.619   4.553
50520W        W15681  22.223  38.152  11.963
50521W        W15682  28.161  40.372   1.333
50522W        W15683   1.968  16.635   1.288
50523W        W15684   2.746   6.622  14.936
50524W        W15685   8.389   2.202   0.410
50525W        W15686  44.440  17.271   0.838
50526W        W15687  10.589   9.463  11.091
50527W        W15688  13.866   8.714   2.134
50528W        W15689  43.257  23.951  12.445
50529W        W15690   8.695  39.993   4.061
50530W        W15691  22.897  27.557  13.686
50531W        W15692  44.915  12.584  14.738
50532W        W15693   4.736  14.676  11.986
50533W        W15694  39.402  28.393   4.132
50534W        W15695  29.387  18.732  14.259
50535W        W15696   3.510  34.367  13.436
50536W        W15697   4.593  38.350   0.017
50537W        W15698  29.073  35.340   0.709
50538W        W15699  15.123  42.793  13.863
50539W        W15700   6.244  29.501  12.057
50540W        W15701   7.475  13.728  14.005
50541W        W15702  17.155   0.867   4.049
50542W        W15703   9.785  36.933  12.310
50543W        W15704  42.334  39.825  10.596
50544W        W15705  27.114  33.805   1.824
50545W        W15706  21.836  14.335  11.130
50546W        W15707   8.805  16.202  11.860
50547W        W15708  22.156   9.663  14.913
50548W        W15709  32.373  22.104  11.455
50549W        W15710   4.601  37.322  11.565
50550W        W15711  38.553  10.636   1.897
50551W        W15712  18.263   0.698  13.939
50552W        W15713  26.198   9.539   4.934
50553W        W15714  29.440  35.829  10.684
50554W        W15715  11.310  14.049   1.883
50555W        W15716  43.933  36.919  11.354
50556W        W15717  26.150  39.709   1.407
50557W        W15718  23.807  23.591   3.040
50558W        W15719   1.129  16.094   4.078
50559W        W15720  13.624  40.006   2.269
50560W        W15721  13.766  29.466  13.445
50561W        W15722  40.409  37.493  13.845
50562W        W15723  21.127   8.259  12.555
50563W        W15724  36.094  22.886   0.114
50564W        W15725  12.570   7.588   0.230
50565W        W15726   8.841  42.956  13.731
50566W        W15727  35.121   2.905  11.400
50567W        W15728   2.862  15.473  10.786
50568W        W15729  20.140  10.937  12.376
50569W        W15730   6.182   6.945  12.125
50570W        W15731   6.932  20.318  13.881
50571W        W15732  40.664  10.925   3.791
50572W        W15733  38.197  24.587  11.345
50573W        W15734  40.873   1.187  14.001
50574W        W15735  31.116  28.662  11.155
50575W        W15736  44.999   9.961  14.581
50576W        W15737  40.870  19.823  14.952
50577W        W15738  18.939  32.232   2.378
50578W        W15739   8.234  16.029   2.207
50579W        W15740   5.384  38.898  12.976
50580W        W15741   5.710  30.611   3.653
50581W        W15742   4.445  32.473  10.745
50582W        W15743  14.253   3.869  10.342
50583W        W15744  29.472   3.331  12.565
50584W        W15745  29.663   6.594  13.503
50585W        W15746  11.796  34.868   0.771
50586W        W15747  25.257  34.995  13.386
50587W        W15748   5.420  16.149   4.535
50588W        W15749  17.627  29.737   1.268
50589W        W15750   9.695  16.562  13.630
50590W        W15751  18.125  29.896   1.482
50591W        W15752  18.080  11.379  11.565
50592W        W15753   9.796  35.788  14.043
50593W        W15754  15.060   2.118   0.764
50594W        W15755  13.712  19.246  11.436
50595W        W15756   1.786  36.307  14.978
50596W        W15757   8.268  14.215  12.028
50597W        W15758  14.541  30.973   0.833
50598W        W15759  37.571  11.123  11.055
50599W        W15760  39.839  40.254   4.696
50600W        W15761   9.828  23.644  11.525
50601W        W15762  18.747   0.866  13.983
50602W        W15763  23.443  40.015   0.708
50603W        W15764  27.288  21.535   4.955
50604W        W15765  37.460  27.918  11.545
50605W        W15766  31.668  25.631  11.469
50606W        W15767  23.982  24.115  13.587
50607W        W15768   8.118  15.727  11.382
50608W        W15769   2.558  28.650  13.079
50609W        W15770  38.009  13.208   3.141
50610W        W15771  34.956  10.736   0.436
50611W        W15772  22.493  22.091   1.529
50612W        W15773   7.955   5.343   4.126
50613W        W15774  33.087  43.585  12.143
50614W        W15775  44.917  39.421  12.905
50615W        W15776  38.476  30.408  10.724
50616W        W15777  36.021  15.255  14.050
50617W        W15778   7.912  12.302  13.898
50618W        W15779  27.080  16.759   4.524
50619W        W15780   2.042   6.138   3.717
50620W        W15781  44.806  25.696   0.898
50621W        W15782  33.342  25.437   3.722
50622W        W15783  10.299  22.758   1.796
50623W        W15784   3.912  30.520  11.930
50624W        W15785  13.875  23.538   3.691
50625W        W15786  24.980  28.658   0.286
50626W        W15787  32.909  18.357   2.272
50627W        W15788  39.650  27.425   4.008
50628W        W15789   0.997  25.957   2.247
50629W        W15790  22.423  30.576  12.166
50630W        W15791  33.096  26.955  14.791
50631W        W15792   9.056  10.115   0.931
50632W        W15793  39.485  10.225   4.168
50633W        W15794  12.822   4.236  11.111
50634W        W15795  37.054  28.358  13.293
50635W        W15796   2.533  31.623  11.896
50636W        W15797   7.622  23.580  13.954
50637W        W15798  35.052  34.129   0.929
50638W        W15799  17.464   1.844  12.039
50639W        W15800  23.104  38.478   0.346
50640W        W15801  11.574  41.245   1.493
50641W        W15802  31.654  25.073   2.123
50642W        W15803   6.169  25.960   1.420
50643W        W15804  39.265   3.871   3.208
50644W        W15805  40.180  18.305  11.841
50645W        W15806  28.176  38.347  12.496
50646W        W15807  22.520   7.357   3.116
50647W        W15808  38.769  23.586   0.303
50648W        W15809  14.058  37.101   1.312
50649W        W15810  18.282  21.241  13.933
50650W        W15811  17.589  39.589   0.501
50651W        W15812  11.199   9.477   4.303
50652W        W15813   7.440   9.808   1.607
50653W        W15814  29.494  20.166   4.773
50654W        W15815  21.120  22.691  12.579
50655W        W15816  39.829  37.772  11.663
50656W        W15817  28.600  38.272  14.642
50657W        W15818   1.027  21.207  11.945
50658W        W15819   0.148   1.346   2.918
50659W        W15820   7.391  16.110   4.575
50660W        W15821  41.930  10.329   1.516
50661W        W15822   2.511   0.317   3.255
50662W        W15823  23.040   6.106   2.911
50663W        W15824  29.590  15.050  14.868
50664W        W15825  29.591  40.677   5.021
50665W        W15826  22.110  40.022   3.116
50666W        W15827   4.916  10.457   2.738
50667W        W15828  25.963  30.351  14.071
50668W        W15829  42.531   6.299  11.377
50669W        W15830  30.847  21.542  13.399
50670W        W15831  16.490  33.452  10.986
50671W        W15832  40.082  16.060   2.842
50672W        W15833  28.134  21.531   0.758
50673W        W15834  43.250  31.075  14.986
50674W        W15835   8.484  13.652   4.437
50675W        W15836  10.867  26.023   2.967
50676W        W15837  40.007  11.841  14.039
50677W        W15838  36.240   9.799  12.807
50678W        W15839  38.853   3.800   0.325
50679W        W15840  35.058  31.880   3.121
50680W        W15841  17.043  23.062   2.633
50681W        W15842   2.317  16.687  11.786
50682W        W15843  24.404  34.621  14.411
50683W        W15844  31.445  22.634  14.976
50684W        W15845  12.219  25.183   2.826
50685W        W15846  15.593  12.801  11.698
50686W        W15847  36.970  31.462   4.658
50687W        W15848   8.823  41.720   1.623
50688W        W15849   4.209  25.975   2.921
50689W        W15850  36.039   4.345  10.597
50690W        W15851   1.380   3.410  11.829
50691W        W15852  19.335  36.630  14.339
50692W        W15853  30.126  39.127  12.410
50693W        W15854   5.495  12.400   5.116
50694W        W15855   0.913  11.177  10.678
50695W        W15856  18.701  29.658   1.764
50696W        W15857  21.726  33.974  14.258
50697W        W15858  35.505  27.748   1.757
50698W        W15859  31.414  40.475  12.930
50699W        W15860   4.311  19.009  10.642
50700W        W15861   0.464  38.326   1.746
50701W        W15862  24.031  14.598   1.270
50702W        W15863  23.281  38.003   0.383
50703W        W15864  16.465  18.916   2.896
50704W        W15865  32.869  31.886  12.366
50705W        W15866  16.795  22.944   1.290
50706W        W15867  40.587   8.668  13.427
50707W        W15868  36.318  20.780   3.657
50708W        W15869  37.119  21.348  14.808
50709W        W15870  19.111  29.601  10.634
50710W        W15871  13.389   9.225   2.873
50711W        W15872  23.509  36.117  13.717
50712W        W15873  34.799   5.236   4.186
50713W        W15874  29.327   2.037  14.511
50714W        W15875   1.311  16.584  14.372
50715W        W15876  11.705  29.564  10.184
50716W        W15877   5.783  15.090   3.756
50717W        W15878  13.862  38.389  12.954
50718W        W15879  37.403  16.554   3.565
50719W        W15880  30.345   4.134   2.543
50720W        W15881  16.681  15.553  12.066
50721W        W15882   2.855  23.174  14.410
50722W        W15883  42.187  36.863  12.032
50723W        W15884  33.059   0.578   1.016
50724W        W15885  34.866  11.856   1.055
50725W        W15886   3.284  30.851   1.309
50726W        W15887   5.400  10.231   4.506
50727W        W15888  35.119  33.614  12.619
50728W        W15889  31.211  38.930   0.791
50729W        W15890  18.134  43.719   0.390
50730W        W15891  44.369  24.724  14.996
50731W        W15892  40.395  27.789  13.544
50732W        W15893  27.252   0.507  11.138
50733W        W15894  15.717  18.940  14.362
50734W        W15895  19.964  27.260  12.437
50735W        W15896   9.891   9.362  14.530
50736W        W15897  16.112  26.559  10.624
50737W        W15898  11.581  33.083   3.883
50738W        W15899  15.378   6.774  11.619
50739W        W15900  21.780  33.336   3.815
50740W        W15901   7.064   0.327   3.071
50741W        W15902  11.132   3.457   1.003
50742W        W15903  38.477  31.651  13.719
50743W        W15904   2.401   0.532  11.878
50744W        W15905  33.968  33.636  13.735
50745W        W15906  34.610   2.681   0.311
50746W        W15907  30.336   8.658  10.735
50747W        W15908  20.170  15.647   2.894
50748W        W15909   8.246   5.296  12.147
50749W        W15910  35.465  18.091   1.485
50750W        W15911   0.056  37.102  13.409
50751W        W15912  15.124  40.388  14.896
50752W        W15913  20.557   7.793  14.320
50753W        W15914   3.861  26.482  13.893
50754W        W15915  41.014  32.363   2.187
50755W        W15916  39.788  30.463   0.256
50756W        W15917  40.900   5.919   2.655
50757W        W15918  23.505  29.346  11.236
50758W        W15919  33.501   2.813  11.928
50759W        W15920  11.918  28.401  11.095
50760W        W15921   1.444   7.491  14.604
50761W        W15922  33.180  42.888  11.579
50762W        W15923  39.267  25.064   1.601
50763W        W15924  20.981  24.213   2.183
50764W        W15925  12.893   5.387   2.464
50765W        W15926  17.217  19.004   0.154
50766W        W15927  33.525  44.288   1.684
50767W        W15928  38.434   9.642   3.253
50768W        W15929  33.500  44.064   1.231
50769W        W15930  20.002  20.254  10.749
50770W        W15931  19.209  25.951   2.766
50771W        W15932  27.397   9.190  12.810
50772W        W15933  29.238  40.580   4.143
50773W        W15934   2.263  11.188  10.795
50774W        W15935  43.578   9.477   1.660
50775W        W15936  28.582  20.863   0.812
50776W        W15937   4.462  32.136  12.015
50777W        W15938  43.711  15.391   3.647
50778W        W15939  21.150  38.054  14.363
50779W        W15940  20.235  30.948  12.813
50780W        W15941   3.257   6.604  11.657
50781W        W15942  21.966  36.413   2.463
50782W        W15943   9.409  37.814  12.969
50783W        W15944  14.806  24.579   1.153
50784W        W15945   6.451  43.847  10.732
50785W        W15946  19.496  17.169  11.144
50786W        W15947   0.290  16.849   3.672
50787W        W15948   7.879  28.955   1.831
50788W        W15949  14.368  17.204   3.187
50789W        W15950  29.660  14.279  12.014
50790W        W15951  10.725  26.485  11.931
50791W        W15952   9.235  18.821  14.335
50792W        W15953  38.389  15.211   1.803
50793W        W15954  11.832  38.281   4.737
50794W        W15955  29.564  43.288  14.516
50795W        W15956  12.668  41.316  14.071
50796W        W15957   6.184  29.786   4.048
50797W        W15958  27.433  33.420  12.086
50798W        W15959  30.420  37.598  12.905
50799W        W15960  21.396  30.931  12.937
50800W        W15961   9.450   4.930   3.596
50801W        W15962  19.873  37.465   4.580
50802W        W15963  42.006  35.177   0.789
50803W        W15964  33.429  36.137   1.318
50804W        W15965  25.991  37.100   2.674
50805W        W15966  18.923  21.719   0.486
50806W        W15967  32.973  41.824   4.158
50807W        W15968   1.989  33.305   2.730
50808W        W15969   6.064  29.001  14.899
50809W        W15970   1.230  30.492   0.270
50810W        W15971  13.627   2.186  11.640
50811W        W15972   6.809  43.699  11.052
50812W        W15973  33.730  25.098   0.132
50813W        W15974  12.876  17.150   1.449
50814W        W15975   1.298  18.994   3.693
50815W        W15976  29.602  34.868  10.772
50816W        W15977  22.769  29.070   2.375
50817W        W15978  35.028  26.921   3.296
50818W        W15979   0.800  23.285   3.596
50819W        W15980  14.258  38.411   2.712
50820W        W15981  17.513  36.477   2.325
50821W        W15982  22.692   2.471  11.130
50822W        W15983  31.492   2.712  13.983
50823W        W15984  35.588   7.346   4.755
50824W        W15985  16.513  32.662   1.597
50825W        W15986  20.315  30.211   1.788
50826W        W15987   4.362  34.890  14.476
50827W        W15988  14.949  26.464   4.236
50828W        W15989  37.159  24.757  14.497
50829W        W15990  23.620  34.652  14.765
50830W        W15991   8.127   4.240   3.771
50831W        W15992  42.408   4.088  11.459
50832W        W15993  41.959   1.913  12.149
50833W        W15994  34.159  19.573   2.771
50834W        W15995   2.366  40.271   1.885
50835W        W15996   4.213  36.766  12.882
50836W        W15997  30.098   5.441   1.693
50837W        W15998  25.053   6.304  10.823
50838W        W15999   2.035  22.545   3.646
50839W        W16000  18.149  12.577   0.782
50840W        W16001  35.061  13.248  12.823
50841W        W16002   1.727  34.955   2.819
50842W        W16003  40.936  24.887  13.453
50843W        W16004  31.152  40.515  12.458
50844W        W16005   0.006  44.576   1.756
50845W        W16006  12.114  40.244  12.496
50846W        W16007  39.392  33.419  14.970
50847W        W16008   7.973  21.536   1.282
50848W        W16009   2.773   7.735  13.404
50849W        W16010  31.509  38.537  12.925
50850W        W16011  31.900  18.369   3.167
50851W        W16012  11.298   6.004   2.872
50852W        W16013  43.959  39.868   0.172
50853W        W16014  16.113  43.709  13.920
50854W        W16015  15.180  29.966  13.782
50855W        W16016  15.778  16.590   3.097
50856W        W16017  17.945  10.180  13.273
50857W        W16018  38.733   4.434  12.084
50858W        W16019  24.159   7.805   1.319
50859W        W16020   6.875  17.772  12.978
50860W        W16021  28.563  44.253   4.952
50861W        W16022  29.376  13.249  12.117
50862W        W16023  16.479  23.731   4.440
50863W        W16024  43.886  16.514  10.625
50864W        W16025  15.219  32.517  14.011
50865W        W16026  44.257  16.530  10.259
50866W        W16027   9.007  15.818  13.728
50867W        W16028  40.801  18.256  11.098
50868W        W16029  13.193  36.945   0.310
50869W        W16030  35.872  23.744   0.672
50870W        W16031   9.403  36.341   3.952
50871W        W16032  33.952  21.116   0.017
50872W        W16033  11.153   8.660   4.687
50873W        W16034  12.169  10.404   1.270
50874W        W16035   3.063   2.275   3.392
50875W        W16036  11.143  40.032   2.453
50876W        W16037  11.395   9.786   1.750
50877W        W16038  13.038  42.907   2.900
50878W        W16039  20.072  15.681  14.499
50879W        W16040  17.305  37.852  13.835
50880W        W16041  38.440   0.349  14.415
50881W        W16042  42.511  17.120   3.882
50882W        W16043  26.035  27.516  12.005
50883W        W16044  16.226  30.574  13.426
50884W        W16045  29.659   5.700   2.668
50885W        W16046   8.779  41.330  10.959
50886W        W16047  23.738  37.138   0.882
50887W        W16048  25.450  25.513  10.398
50888W        W16049  33.811  11.329   2.810
50889W        W16050   6.915  15.357   3.477
50890W        W16051  28.492  13.395   0.248
50891W        W16052  43.979  31.135  12.997
50892W        W16053  10.661  18.755   3.408
50893W        W16054  14.838  44.835   0.051
50894W        W16055   8.769  14.501  14.921
50895W        W16056  22.998  36.042   2.568
50896W        W16057  38.598   2.476   1.753
50897W        W16058  38.506   9.770   2.274
50898W        W16059  21.181  16.985  12.843
50899W        W16060   6.974  40.361   0.035
50900W        W16061  38.612  15.853  12.080
50901W        W16062  29.167  33.569   0.318
50902W        W16063  43.886  41.974  14.789
50903W        W16064  44.779  30.342   2.330
50904W        W16065   8.699  29.271  11.153
50905W        W16066  30.615  24.999   4.476
50906W        W16067  42.276  13.322  14.850
50907W        W16068  32.415  29.624   0.283
50908W        W16069  28.053  14.203  12.439
50909W        W16070  36.956  44.307   3.109
50910W        W16071   1.491   2.792   1.400
50911W        W16072  18.551  44.048   0.257
50912W        W16073  17.104  19.701  13.399
50913W        W16074   7.841  12.749  11.692
50914W        W16075   8.471  38.012   2.340
50915W        W16076  33.960  44.488   1.885
50916W        W16077  27.707  32.057   1.368
50917W        W16078  24.539  35.656  11.548
50918W        W16079   9.326  28.345   4.529
50919W        W16080  14.275   1.350   3.323
50920W        W16081   2.180  41.536  12.883
50921W        W16082   8.827  21.519  11.644
50922W        W16083  27.999  42.507  10.301
50923W        W16084  25.452   1.758   1.707
50924W        W16085  43.244  13.256  12.056
50925W        W16086  32.560  34.370  11.780
50926W        W16087  44.752   4.055  14.831
50927W        W16088  34.950   7.724   3.118
50928W        W16089   6.319  29.455  13.432
50929W        W16090   8.833  43.956   3.400
50930W        W16091  14.354  12.343   1.369
50931W        W16092   8.128  21.267   3.939
50932W        W16093  26.953  17.109   3.346
50933W        W16094   2.007  15.815   0.367
50934W        W16095  12.249  26.423   2.288
50935W        W16096  26.706   0.283   0.391
50936W        W16097  28.325  17.447   2.350
50937W        W16098   5.128   3.222   0.953
50938W        W16099  33.903  44.738   3.184
50939W        W16100  30.942  35.790   2.111
50940W        W16101  20.788  27.209   3.982
50941W        W16102  36.557  17.987  11.162
50942W        W16103   9.897  33.909  11.304
50943W        W16104   4.724  20.931  11.455
50944W        W16105  21.180  25.379  10.288
50945W        W16106   7.877  27.061   0.459
50946W        W16107  12.843  44.339   2.696
50947W        W16108  35.478  30.023   0.200
50948W        W16109  21.413  28.599   4.115
50949W        W16110  35.820  17.319  10.721
50950W        W16111  31.365  26.623  11.583
50951W        W16112  35.633   2.207   2.122
50952W        W16113  17.102  14.002  12.973
50953W        W16114  13.843  37.959   4.285
50954W        W16115   8.603  22.797  12.951
50955W        W16116  12.091  34.632  12.535
50956W        W16117  17.647  32.377  13.252
50957W        W16118  44.057   8.341   1.041
50958W        W16119  10.898  10.942  10.482
50959W        W16120  11.950  40.343   0.345
50960W        W16121  22.136  26.882   1.262
50961W        W16122   6.169  40.034   3.629
50962W        W16123  32.542  21.800   1.741
50963W        W16124  40.661   2.849  14.828
50964W        W16125  29.983   3.798   2.378
50965W        W16126   3.718  22.276   3.948
50966W        W16127  36.374  17.609  12.040
50967W        W16128  43.778  22.098  12.104
50968W        W16129  38.989   0.708  11.625
50969W        W16130   6.246  34.759   4.866
50970W        W16131   0.343  16.338  14.854
50971W        W16132   0.736  35.964   1.171
50972W        W16133  40.926  39.972   2.348
50973W        W16134   0.939  42.126  11.556
50974W        W16135   1.440   8.898   0.932
50975W        W16136  31.019  37.533  11.228
50976W        W16137  27.393  16.041  13.908
50977W        W16138  23.252  39.444  13.738
50978W        W16139  30.017  18.682  12.495
50979W        W16140  26.979  26.915   4.675
50980W        W16141  31.570  13.122  11.390
50981W        W16142  21.942  10.860   2.636
50982W        W16143  33.345   1.247   4.333
50983W        W16144  12.493  34.084  11.033
50984W        W16145  19.704   9.611   1.266
50985W        W16146  18.255   1.480  12.688
50986W        W16147  20.691  44.276   4.232
50987W        W16148   1.222  28.892   1.242
50988W        W16149  31.880   3.584   4.178
50989W        W16150  43.726  35.580   0.523
50990W        W16151  24.244   8.397  12.057
50991W        W16152  44.719  28.400  11.568
50992W        W16153  36.071  37.932  14.482
50993W        W16154  34.571  27.434  13.304
50994W        W16155  32.608  17.145   2.185
50995W        W16156  38.358  41.078  10.847
50996W        W16157  16.651   3.026  11.542
50997W        W16158  22.056  12.199  14.252
50998W        W16159  35.367  15.551  11.829
50999W        W16160  29.994  36.561   2.066
51000W        W16161  29.043  23.851   0.395
51001W        W16162   7.608  36.426  12.125
51002W        W16163  25.119  31.080  14.875
51003W        W16164  43.328  30.078  12.883
51004W        W16165  24.562  30.821  12.305
51005W        W16166   0.014  23.241   0.534
51006W        W16167   3.849   9.357  11.994
51007W        W16168  35.826  41.134   2.113
51008W        W16169  29.676  43.312   2.736
51009W        W16170  25.858  21.487   3.197
51010W        W16171  21.202  23.563  13.566
51011W        W16172  43.824  32.165  13.069
51012W        W16173  19.762  27.638   2.624
51013W        W16174  27.047  29.269   2.425
51014W        W16175   3.135   1.989   0.544
51015W        W16176   9.474  43.789   1.987
51016W        W16177  22.772  28.364  10.732
51017W        W16178  27.966  23.928   4.057
51018W        W16179  31.250   9.301  11.482
51019W        W16180   4.305  38.821   0.805
51020W        W16181   4.063  36.384   0.949
51021W        W16182  19.583  36.551  10.886
51022W        W16183  31.555  26.042  12.362
51023W        W16184   1.296  41.277  12.248
51024W        W16185  33.514   2.651   1.264
51025W        W16186  18.700   0.216   4.341
51026W        W16187  29.893  28.471   1.786
51027W        W16188  17.163  25.037  12.956
51028W        W16189   7.481  16.389  11.628
51029W        W16190  20.945  23.731  12.067
51030W        W16191  40.872  34.610   4.327
51031W        W16192  40.901   3.921   3.970
51032W        W16193  40.778   1.340   1.812
51033W        W16194  21.165  33.852   0.441
51034W        W16195   0.497   7.815   2.545
51035W        W16196   1.340  30.400  11.914
51036W        W16197  14.669  40.131   0.772
51037W        W16198  34.640  24.951  11.589
51038W        W16199  30.625  17.264   4.917
51039W        W16200  29.378  34.965   2.258
51040W        W16201   9.444  29.674   3.509
51041W        W16202   9.729   9.174  12.858
51042W        W16203  26.271  29.545   4.916
51043W        W16204  29.134  13.800  13.639
51044W        W16205  33.833  11.296  12.024
51045W        W16206   8.825  27.291  12.023
51046W        W16207  29.146   5.829  14.093
51047W        W16208  32.295  23.581  13.962
51048W        W16209  15.572  44.758   2.226
51049W        W16210  43.330   7.726   1.244
51050W        W16211  16.073  44.544   3.133
51051W        W16212   3.528  36.532  13.353
51052W        W16213  18.085  36.396   3.126
51053W        W16214  28.025  13.732  13.061
51054W        W16215  14.778   6.736   3.826
51055W        W16216  25.286  29.626   1.209
51056W        W16217   7.838  20.949   2.699
51057W        W16218  36.258  25.653  13.570
51058W        W16219   8.837  23.720   1.333
51059W        W16220  29.929  39.771  11.438
51060W        W16221  34.483  17.329  11.484
51061W        W16222   5.508  34.408   4.563
51062W        W16223   1.496  31.123   4.522
51063W        W16224   9.653  19.602  12.860
51064W        W16225   0.888  35.302   2.229
51065W        W16226  16.655  36.028  12.634
51066W        W16227  24.199  13.555  14.759
51067W        W16228  30.096   8.928   4.985
51068W        W16229  13.139  17.160   0.945
51069W        W16230  44.264  19.160  13.970
51070W        W16231  38.774  34.858   2.724
51071W        W16232   0.328  16.585   0.324
51072W        W16233   9.783   0.025  12.728
51073W        W16234  31.022  39.526   5.483
51074W        W16235  23.619  10.786   1.968
51075W        W16236  38.367  36.364  13.011
51076W        W16237  10.386  43.593   2.749
51077W        W16238  35.172   5.780  13.293
51078W        W16239  31.415  19.967  12.933
51079W        W16240  41.369   3.845   0.230
51080W        W16241  13.088  27.520   3.765
51081W        W16242  27.916  35.792   5.051
51082W        W16243  11.264  41.951  14.258
51083W        W16244  30.169   7.369   3.866
51084W        W16245  13.954   8.280  13.477
51085W        W16246  31.197   3.871   0.487
51086W        W16247  31.150  26.745  14.898
51087W        W16248  13.259  36.855  13.275
51088W        W16249  34.493  38.658  14.896
51089W        W16250  31.578   0.862  12.268
51090W        W16251  40.769   2.920  13.489
51091W        W16252  25.099   2.563  11.401
51092W        W16253  28.226  16.440  12.260
51093W        W16254   4.360  44.001   1.740
51094W        W16255  23.729  29.474   2.671
51095W        W16256  30.243  35.965  12.451
51096W        W16257  14.780  17.315   1.228
51097W        W16258   7.370  19.102  14.443
51098W        W16259  30.188  42.794   1.759
51099W        W16260  30.160  13.037   2.185
51100W        W16261  14.999  21.577   4.675
51101W        W16262   9.172  34.884   0.439
51102W        W16263  15.422  34.601  10.278
51103W        W16264  36.681  18.061  12.034
51104W        W16265  12.885   0.955  12.872
51105W        W16266  43.174  20.835  14.461
51106W        W16267   4.565  10.994  12.478
51107W        W16268  29.463  34.375   1.206
51108W        W16269  34.106  32.085   3.229
51109W        W16270  23.342   3.815   3.504
51110W        W16271  27.557  12.399   1.747
51111W        W16272  18.767  31.551   4.673
51112W        W16273  21.749  29.960   2.162
51113W        W16274  28.682  14.666   0.710
51114W        W16275  42.851  14.800  13.150
51115W        W16276   8.888  12.626   4.581
51116W        W16277  21.540  38.066  13.474
51117W        W16278  15.884  23.619   3.868
51118W        W16279  40.020   8.244  13.994
51119W        W16280   9.780  20.088  14.901
51120W        W16281  10.848  20.291  10.710
51121W        W16282  11.786  18.243   1.419
51122W        W16283  21.551  13.980  13.487
51123W        W16284   6.288  36.101   5.067
51124W        W16285  28.010  21.499  11.696
51125W        W16286  30.122  41.875  12.324
51126W        W16287  26.173  21.743   1.835
51127W        W16288  13.583  31.047   0.416
51128W        W16289  18.943  29.197   0.343
51129W        W16290  41.712  19.758  10.899
51130W        W16291  31.584   9.583   2.776
51131W        W16292  35.663  23.009  13.154
51132W        W16293  31.804  18.422   0.301
51133W        W16294  26.943  16.335   2.126
51134W        W16295  44.301  30.661   0.221
51135W        W16296  23.502  34.858   4.862
51136W        W16297  20.067  20.151  10.259
51137W        W16298  32.367  36.106   3.373
51138W        W16299  39.565  21.246   4.670
51139W        W16300  29.872  38.749  13.104
51140W        W16301  10.040   0.837   1.131
51141W        W16302  38.431  30.180   0.456
51142W        W16303  20.986  32.566   1.215
51143W        W16304  36.378  29.507  10.669
51144W        W16305  22.633  27.662   0.866
51145W        W16306  20.062   6.925   0.573
51146W        W16307  36.437  39.817   0.694
51147W        W16308  19.604  18.715   4.823
51148W        W16309  13.196  39.155   2.139
51149W        W16310  27.714  38.420   3.032
51150W        W16311  26.521   9.694  11.382
51151W        W16312   4.301   1.789  11.662
51152W        W16313   2.332  11.547   2.570
51153W        W16314  39.939  22.785   0.404
51154W        W16315  31.595  38.981  11.975
51155W        W16316   5.340   6.680   4.495
51156W        W16317  25.642  16.585   2.140
51157W        W16318  43.820  23.985  11.283
51158W        W16319   5.113   9.297   4.766
51159W        W16320  43.800  18.044   1.919
51160W        W16321  25.185  26.820  13.841
51161W        W16322  29.484   8.856   0.854
51162W        W16323  25.657  18.976   9.825
51163W        W16324  22.137  24.260  11.143
51164W        W16325  30.347  11.941  14.398
51165W        W16326   7.339   9.695  14.992
51166W        W16327   6.464  18.021  12.149
51167W        W16328  22.034  12.057   1.650
51168W        W16329  26.890   6.724   0.578
51169W        W16330  31.945  33.803   4.354
51170W        W16331   9.810  19.112  12.935
51171W        W16332  13.607  11.200  12.970
51172W        W16333   7.262   7.752   0.881
51173W        W16334  38.584   9.184   3.413
51174W        W16335  19.791  19.828  10.558
51175W        W16336   9.262  15.060  11.514
51176W        W16337   9.879   5.947  12.010
51177W        W16338  42.971  24.662  11.997
51178W        W16339   5.722  33.036   1.724
51179W        W16340  33.828  43.412   3.338
51180W        W16341  26.522  21.507  10.745
51181W        W16342  38.748  24.468  10.797
51182W        W16343  15.644  27.829  11.144
51183W        W16344   5.785  34.598   0.758
51184W        W16345  13.602  40.134  14.173
51185W        W16346  44.433  40.635  10.129
51186W        W16347  13.609  13.411  11.897
51187W        W16348  18.292  16.810   0.761
51188W        W16349  11.517  17.427  14.516
51189W        W16350  17.428  38.391   0.061
51190W        W16351  44.459  37.252   1.348
51191W        W16352  18.228  27.364  13.875
51192W        W16353  15.198  19.001   4.343
51193W        W16354   5.208  31.716   2.025
51194W        W16355  42.676  19.667  11.652
51195W        W16356  24.754  41.575  13.903
51196W        W16357   8.792   5.060   2.293
51197W        W16358   3.681   6.906  14.791
51198W        W16359   8.986   3.159  12.321
51199W        W16360  36.930  28.009  10.811
51200W        W16361   2.977  24.540   4.486
51201W        W16362  37.026  26.429  13.360
51202W        W16363   6.732  27.487   3.007
51203W        W16364  10.945  44.504  14.393
51204W        W16365  30.458  16.011  14.011
51205W        W16366  10.651  39.536   3.199
51206W        W16367   3.652  43.580  11.588
51207W        W16368  10.650  41.311  12.482
51208W        W16369   7.454  10.099  10.688
51209W        W16370  32.507  19.585   0.867
51210W        W16371  40.392   7.684   4.039
51211W        W16372  27.652  40.543   1.284
51212W        W16373  42.006   7.960  11.077
51213W        W16374   7.169   3.738   4.076
51214W        W16375  29.155  11.559   4.587
51215W        W16376  14.582  43.258  13.113
51216W        W16377  42.713  21.014  10.849
51217W        W16378  33.157  34.639  10.565
51218W        W16379  27.999  22.031   0.785
51219W        W16380  23.784  12.424   2.400
51220W        W16381  31.922  24.039   3.304
51221W        W16382  44.515  19.635  12.717
51222W        W16383  34.113  37.447  14.002
51223W        W16384  11.279  29.510   1.283
51224W        W16385  35.055  42.370   3.616
51225W        W16386  15.598  13.803  10.870
51226W        W16387  23.569  37.601   0.263
51227W        W16388  29.842  40.936  10.666
51228W        W16389  33.324   6.401  12.558
51229W        W16390  27.094  25.441  12.922
51230W        W16391  43.891  27.077   1.030
51231W        W16392  14.383  35.810   1.620
51232W        W16393  16.800   1.849   0.926
51233W        W16394  12.226   8.240   0.052
51234W        W16395  26.439  10.612  14.746
51235W        W16396  19.185  42.491  11.463
51236W        W16397  42.991   2.978   2.168
51237W        W16398  32.142  10.968  12.080
51238W        W16399  27.635   8.095  11.183
51239W        W16400  15.313  11.670  11.077
51240W        W16401   0.334  11.397   3.787
51241W        W16402  41.879  18.187   1.204
51242W        W16403  17.711  18.213   3.697
51243W        W16404   0.440  35.031  11.777
51244W        W16405  40.478   3.774  11.731
51245W        W16406   7.105  16.985   3.701
51246W        W16407  38.528  40.741   3.248
51247W        W16408  18.091  30.993  14.478
51248W        W16409  36.896  41.808  14.481
51249W        W16410   0.728   9.389   3.252
51250W        W16411  29.556   4.277  14.407
51251W        W16412   3.462  11.493  11.655
51252W        W16413  34.334   8.677  12.317
51253W        W16414  39.886  18.367   3.769
51254W        W16415  30.641   8.441   4.298
51255W        W16416   7.388  17.567  11.122
51256W        W16417  10.841  18.559   1.680
51257W        W16418  43.824  24.624   0.021
51258W        W16419  17.538  23.571  14.631
51259W        W16420  39.790  26.124   1.204
51260W        W16421  31.845  31.046  11.454
51261W        W16422   5.283  20.139   3.609
51262W        W16423  33.068  21.448   0.272
51263W        W16424  41.649   8.816   4.658
51264W        W16425  41.469   5.138  14.758
51265W        W16426  10.063  24.216   1.579
51266W        W16427  40.825  11.731  11.334
51267W        W16428   3.276  43.807   1.311
51268W        W16429   0.703  23.240  13.408
51269W        W16430  33.361  19.745   1.540
51270W        W16431  29.424  41.053   1.420
51271W        W16432   4.813   7.657  11.549
51272W        W16433   5.128   0.518   4.103
51273W        W16434  22.943  32.908  11.215
51274W        W16435   5.357  18.178   2.362
51275W        W16436  43.506  15.482  11.922
51276W        W16437  18.950  27.738   1.789
51277W        W16438   7.061  28.447  11.067
51278W        W16439  10.809  23.113  12.727
51279W        W16440  26.913  21.976  13.027
51280W        W16441   2.005  31.127   2.275
51281W        W16442  20.822   6.240  11.566
51282W        W16443   6.244  21.181   1.818
51283W        W16444   5.298  25.434  14.397
51284W        W16445  29.434  28.686   0.252
51285W        W16446   8.344  18.809  11.404
51286W        W16447  20.769  17.692  13.836
51287W        W16448   9.725   3.740  14.890
51288W        W16449  33.408   3.859   3.264
51289W        W16450  27.477  36.027   3.898
51290W        W16451  16.149   6.318  10.649
51291W        W16452  34.367  39.611  11.107
51292W        W16453  30.787  37.882   0.844
51293W        W16454  30.091  21.344   3.555
51294W        W16455  37.645  18.587  12.556
51295W        W16456  34.046  22.080   9.754
51296W        W16457  16.075  14.051  10.991
51297W        W16458  28.899  26.357  10.676
51298W        W16459  38.621  34.996   4.084
51299W        W16460   7.359   7.642   4.502
51300W        W16461  40.354  15.774  10.724
51301W        W16462  36.425  35.470   1.687
51302W        W16463  31.992  12.788   1.254
51303W        W16464  44.424  12.989   3.822
51304W        W16465  25.444  36.385  11.525
51305W        W16466  11.772  22.045  13.802
51306W        W16467  24.713  34.128  11.367
51307W        W16468  30.959  24.589  14.820
51308W        W16469   9.302  12.196   0.949
51309W        W16470  22.011  34.898  13.860
51310W        W16471  12.697  40.405   4.678
51311W        W16472  14.894   2.047   1.769
51312W        W16473   6.340  24.561  14.281
51313W        W16474  10.395  17.771   3.349
51314W        W16475  42.000  22.771  10.225
51315W        W16476   0.895   6.678   3.681
51316W        W16477  36.497  12.098   1.723
51317W        W16478  16.701   2.800  13.850
51318W        W16479   7.309  42.711   4.727
51319W        W16480  43.759  36.949   0.732
51320W        W16481  22.602  44.455  10.703
51321W        W16482   2.466   7.380   4.131
51322W        W16483  16.659  23.134   2.992
51323W        W16484  44.296   7.878  10.999
51324W        W16485  17.948  26.660  12.136
51325W        W16486   2.760  22.008   4.848
51326W        W16487  36.553  15.727   2.190
51327W        W16488  42.864  33.769  10.676
51328W        W16489  40.099  26.581  13.185
51329W        W16490  43.288  27.859  13.570
51330W        W16491   8.815  19.626  11.261
51331W        W16492   8.183  31.594  10.658
51332W        W16493  18.920  37.107   0.936
51333W        W16494   6.941   5.399  13.077
51334W        W16495  32.944  10.486  13.828
51335W        W16496  34.551  41.242   2.308
51336W        W16497   5.685  37.133   3.907
51337W        W16498   3.954  24.097   0.860
51338W        W16499  40.753  43.853   2.783
51339W        W16500  19.799  22.642  14.827
51340W        W16501   1.778  38.588   3.132
51341W        W16502   6.468   6.136  12.532
51342W        W16503   3.228  13.689  10.412
51343W        W16504  26.634  29.337   0.239
51344W        W16505  43.488  16.516  10.993
51345W        W16506   5.198  28.372   1.782
51346W        W16507   2.839  27.748  13.763
51347W        W16508  19.778  30.614   2.342
51348W        W16509  25.745   5.864   4.196
51349W        W16510   9.814  44.340   0.304
51350W        W16511   2.437  37.329   5.043
51351W        W16512  39.898  40.808   4.820
51352W        W16513  14.896   3.895   2.130
51353W        W16514  10.337   9.405   4.114
51354W        W16515  29.691  44.548  12.821
51355W        W16516   3.695  41.605  11.956
51356W        W16517  19.309  31.431  12.692
51357W        W16518  22.663  16.432   9.721
51358W        W16519   5.971  14.158  14.826
51359W        W16520  18.312   0.210  13.758
51360W        W16521  33.007  23.013   2.271
51361W        W16522  16.141  39.871   0.769
51362W        W16523  34.624  32.177   3.227
51363W        W16524  37.406  42.262  13.886
51364W        W16525  42.479  27.640   4.588
51365W        W16526  42.610  21.174  12.991
51366W        W16527  24.391  33.420   3.817
51367W        W16528  30.841  34.050   0.439
51368W        W16529  18.018  26.673   0.836
51369W        W16530  22.338  20.741   9.836
51370W        W16531  13.703   0.411  12.984
51371W        W16532   5.144   9.367   3.357
51372W        W16533   9.085  31.147   3.680
51373W        W16534  10.324  38.009  13.962
51374W        W16535   1.441  22.317  11.668
51375W        W16536  40.822  42.834   4.855
51376W        W16537  19.618  26.504   2.235
51377W        W16538  21.654  17.523  11.001
51378W        W16539  21.380  40.939   2.029
51379W        W16540  32.201  19.285   4.659
51380W        W16541  42.744   9.356  12.495
51381W        W16542  30.446  35.648  11.202
51382W        W16543   5.522   7.841   1.426
51383W        W16544   8.226  10.820  12.933
51384W        W16545  30.612  23.771  11.091
51385W        W16546  35.325   8.450   4.556
51386W        W16547  16.772  26.638  10.529
51387W        W16548  39.174  18.246  12.975
51388W        W16549  16.539  43.007  12.446
51389W        W16550  25.040  20.592  14.521
51390W        W16551  16.772   1.328   3.594
51391W        W16552   8.182   5.991  12.488
51392W        W16553  33.177  24.285   4.985
51393W        W16554  10.975  44.417  11.988
51394W        W16555  39.977  30.190  12.565
51395W        W16556  19.423  42.473  14.569
51396W        W16557  21.240  23.785  12.491
51397W        W16558  13.132   9.163   1.383
51398W        W16559  11.256  34.958  10.943
51399W        W16560  33.071   3.174   0.916
51400W        W16561   5.717  23.296  11.123
51401W        W16562  25.254   0.283   1.169
51402W        W16563  21.067  14.383   3.730
51403W        W16564   4.927  15.680  11.114
51404W        W16565  36.490  20.007   1.958
51405W        W16566  20.217  19.170  13.049
51406W        W16567   4.531  17.626   2.540
51407W        W16568  43.964   3.897  12.442
51408W        W16569  44.589  30.010   4.895
51409W        W16570  14.048  41.469  10.585
51410W        W16571  44.934   0.075  13.481
51411W        W16572   7.872  44.643  12.722
51412W        W16573  29.432  12.228  14.727
51413W        W16574   8.600  38.950  12.919
51414W        W16575   3.349  13.340   1.796
51415W        W16576  11.408   2.578   1.403
51416W        W16577  16.422   0.368  14.693
51417W        W16578   7.792  17.994  12.620
51418W        W16579  12.723  27.888   2.742
51419W        W16580   6.401  28.647  13.187
51420W        W16581  42.026  30.086   1.290
51421W        W16582   2.217  37.411   1.336
51422W        W16583  27.178  22.993   4.676
51423W        W16584  22.806  13.539  14.947
51424W        W16585  24.773  25.411  14.254
51425W        W16586  38.399  20.552  11.782
51426W        W16587  36.861  13.179  14.718
51427W        W16588  18.074  11.229   4.631
51428W        W16589   7.184   2.755  13.881
51429W        W16590  34.770  38.276   2.261
51430W        W16591  13.810  38.470  11.594
51431W        W16592  36.282  40.833  12.602
51432W        W16593  21.133  13.307   2.155
51433W        W16594  13.126  12.324   3.401
51434W        W16595  12.812  10.351   4.642
51435W        W16596  25.885  31.794  12.512
51436W        W16597  27.048  39.962   0.786
51437W        W16598   5.709   2.464   2.769
51438W        W16599  35.986  11.199   3.424
51439W        W16600  33.479  42.307  11.787
51440W        W16601   2.817  22.130  10.646
51441W        W16602  10.883  24.245  12.595
51442W        W16603  43.354  13.764  12.045
51443W        W16604  11.621  13.191  14.165
51444W        W16605  21.082   6.113   3.660
51445W        W16606  43.941   4.488   4.290
51446W        W16607  26.090  44.235   2.901
51447W        W16608   5.930  33.570  14.371
51448W        W16609  43.433  34.785   0.254
51449W        W16610  16.526  17.640  11.960
51450W        W16611  44.097   6.868  14.882
51451W        W16612  34.396   4.393  10.813
51452W        W16613  27.564   7.224  12.514
51453W        W16614  17.737   5.324   1.344
51454W        W16615  38.889   0.013   4.844
51455W        W16616  24.136  42.514   4.464
51456W        W16617  39.827  19.142  10.638
51457W        W16618  19.819  23.703   3.639
51458W        W16619  28.087  24.664   3.656
51459W        W16620  34.629  18.222   0.695
51460W        W16621  31.398  14.743  14.778
51461W        W16622  32.164   6.588   0.007
51462W        W16623  17.218  10.410  10.947
51463W        W16624  26.119  12.245  12.124
51464W        W16625   4.352  16.862   1.853
51465W        W16626  30.403  13.596  10.595
51466W        W16627  12.557  37.304  11.138
51467W        W16628  41.277  33.268  11.949
51468W        W16629  19.070  41.220  13.472
51469W        W16630   6.912  35.382  11.134
51470W        W16631  22.038  41.249   2.278
51471W        W16632  18.128  33.397  14.307
51472W        W16633  13.100  41.321  14.378
51473W        W16634  27.998  38.565  13.926
51474W        W16635  33.443  29.181  10.326
51475W        W16636  26.135  12.548   5.139
51476W        W16637  31.085  42.318   3.716
51477W        W16638  26.686  28.198  13.445
51478W        W16639  28.741  37.893  10.286
51479W        W16640  44.736  25.261   1.237
51480W        W16641  21.588  15.020  13.566
51481W        W16642  11.881  39.015   1.726
51482W        W16643  29.159  39.858  13.576
51483W        W16644   3.946  34.088  13.446
51484W        W16645   6.434  15.552   2.445
51485W        W16646   2.269  28.149   2.646
51486W        W16647  15.703  39.461  11.748
51487W        W16648  27.153  13.515  11.552
51488W        W16649  33.529  12.303   3.580
51489W        W16650   9.302  27.563  14.021
51490W        W16651  41.310  23.615  13.804
51491W        W16652  28.025  28.645   4.230
51492W        W16653  16.021  12.467  14.434
51493W        W16654  44.759   7.696   1.842
51494W        W16655  18.774   8.328  11.644
51495W        W16656  30.166  36.989   4.264
51496W        W16657  13.631  29.529  12.921
51497W        W16658  23.782  24.576  13.461
51498W        W16659  32.503  42.292  13.266
51499W        W16660  35.576  40.457   2.334
51500W        W16661   8.595  15.399  12.174
51501W        W16662  35.824  25.501   4.114
51502W        W16663  28.577  10.130  14.717
51503W        W16664  12.526   0.758   2.302
51504W        W16665  11.590  21.938   1.885
51505W        W16666  31.219  21.281  10.527
51506W        W16667  32.488  11.297  12.324
51507W        W16668  27.760  10.932  12.489
51508W        W16669   3.959  19.229   3.026
51509W        W16670   5.570   5.392  12.072
51510W        W16671  35.355  37.039   3.804
51511W        W16672  39.735  30.542   1.903
51512W        W16673  24.100  20.826  13.427
51513W        W16674  26.742   2.901   2.926
51514W        W16675  33.717  24.468  13.969
51515W        W16676  25.234   8.714  12.558
51516W        W16677  18.995   7.692  12.974
51517W        W16678  41.882  27.243  14.148
51518W        W16679  10.610  32.623   1.877
51519W        W16680  32.224  41.159   3.645
51520W        W16681  41.677  15.226  10.753
51521W        W16682  27.460  37.804   2.859
51522W        W16683  12.075  13.973   4.718
51523W        W16684  31.029   8.637   4.569
51524W        W16685  15.598  39.789  14.903
51525W        W16686  39.128  12.041  11.180
51526W        W16687  38.628   7.350   4.146
51527W        W16688  38.512  40.342   4.222
51528W        W16689  24.198  21.208  10.805
51529W        W16690  13.830  15.232   2.624
51530W        W16691  18.994  37.928  13.757
51531W        W16692  38.827  39.269   0.282
51532W        W16693   9.258   7.519  11.204
51533W        W16694   4.522  21.233   3.210
51534W        W16695  23.975  43.846  14.844
51535W        W16696  31.169  23.245  11.034
51536W        W16697  38.880  35.147  14.432
51537W        W16698   9.616  42.129  11.871
51538W        W16699  32.157  37.568   2.432
51539W        W16700  39.984   8.239  11.201
51540W        W16701   9.965   1.655   2.171
51541W        W16702  39.064  41.887   3.590
51542W        W16703   6.937  32.944  14.581
51543W        W16704  38.444   6.506  13.349
51544W        W16705  20.822  24.205  14.243
51545W        W16706  18.648  25.127   2.173
51546W        W16707  31.352   5.228  10.691
51547W        W16708   2.864  25.491  14.626
51548W        W16709   1.426   4.383  13.076
51549W        W16710  35.090  30.100  12.487
51550W        W16711  34.611  25.952  11.538
51551W        W16712  26.494  44.482  13.017
51552W        W16713  37.039   4.287  13.827
51553W        W16714  14.695  10.547  14.027
51554W        W16715  23.239  26.562   3.338
51555W        W16716   2.206  33.111  10.340
51556W        W16717  16.648   4.381  14.551
51557W        W16718  13.630  28.699   3.337
51558W        W16719  40.139   6.608  11.560
51559W        W16720  32.081  38.952   0.217
51560W        W16721  24.445   4.415   0.219
51561W        W16722  26.861  17.280   4.242
51562W        W16723  24.946  42.987   4.617
51563W        W16724  29.078  16.897   3.660
51564W        W16725  41.281  28.197   0.335
51565W        W16726  42.849  31.843  11.723
51566W        W16727  34.894  15.362  13.427
51567W        W16728  14.177  31.485  14.986
51568W        W16729  27.069   6.609   1.053
51569W        W16730   0.968   7.404   3.174
51570W        W16731  17.529  25.472  13.863
51571W        W16732  31.583  29.158  12.907
51572W        W16733  21.109  33.525   1.832
51573W        W16734  40.229  29.978   3.541
51574W        W16735  21.968  39.062  11.954
51575W        W16736  10.858  19.291  12.946
51576W        W16737  24.475  24.055   1.783
51577W        W16738  22.666  21.111   1.836
51578W        W16739  24.535   9.378   2.735
51579W        W16740   6.778  39.852  11.550
51580W        W16741   2.853   8.685   0.861
51581W        W16742  26.721  22.942   0.766
51582W        W16743   1.815   2.190  12.603
51583W        W16744  31.425  12.139   0.835
51584W        W16745  26.537  20.971   4.593
51585W        W16746  19.032  30.616   0.090
51586W        W16747  24.753  18.365   0.753
51587W        W16748  12.266  42.773   2.319
51588W        W16749  38.769  44.822  14.870
51589W        W16750  41.890  41.893   1.775
51590W        W16751   2.004  22.152  11.008
51591W        W16752  29.563  38.136  13.927
51592W        W16753   4.771  31.881   1.757
51593W        W16754  30.149  28.240   2.184
51594W        W16755  17.262  14.742  11.355
51595W        W16756  38.119  20.666   2.319
51596W        W16757  42.089  29.121   3.164
51597W        W16758  10.688   6.652   3.900
51598W        W16759  28.065  44.460  12.270
51599W        W16760  19.759  16.730  11.050
51600W        W16761  15.853  19.618  11.581
51601W        W16762  41.652  43.888  11.635
51602W        W16763  34.351  37.599   0.509
51603W        W16764  28.069  18.042   0.265
51604W        W16765  13.025  38.306   1.435
51605W        W16766  14.244  12.650  12.546
51606W        W16767  13.045  17.186  14.349
51607W        W16768  34.884   1.124   3.132
51608W        W16769  27.086  44.926  10.628
51609W        W16770  30.904   3.997   1.358
51610W        W16771   2.247  25.914   3.463
51611W        W16772  15.876  20.363  12.399
51612W        W16773   5.998  13.308  10.803
51613W        W16774  12.179  41.635  14.445
51614W        W16775   4.890  38.964  13.789
51615W        W16776   9.821  12.684   4.675
51616W        W16777  35.808   3.195  14.840
51617W        W16778  19.968   8.428   3.194
51618W        W16779  19.673   4.450  12.969
51619W        W16780  20.845  32.680   4.447
51620W        W16781   4.479   8.346   3.591
51621W        W16782  41.732   3.357   4.137
51622W        W16783  16.804   5.288   4.026
51623W        W16784  16.655  44.605   5.599
51624W        W16785   2.445  27.130  14.345
51625W        W16786  28.728  29.065  14.369
51626W        W16787  21.233  12.750   0.922
51627W        W16788   5.258  33.122   4.825
51628W        W16789  21.645  39.476  10.629
51629W        W16790  16.303  27.631   4.579
51630W        W16791   5.360  19.268  12.021
51631W        W16792  28.558  27.116   3.146
51632W        W16793  19.643  23.220  12.337
51633W        W16794  29.969  25.943   2.354
51634W        W16795  40.273  43.889  11.139
51635W        W16796  34.720  36.817  13.970
51636W        W16797  19.988  36.423  13.184
51637W        W16798  33.355  15.419  13.152
51638W        W16799  24.692  13.198   2.944
51639W        W16800   9.470  28.395   2.635
51640W        W16801  19.281  44.858  14.782
51641W        W16802  24.393   9.233   3.217
51642W        W16803  22.042  43.280   1.390
51643W        W16804  44.882  12.564  12.845
51644W        W16805  33.919  12.872   4.534
51645W        W16806   1.356  25.511  11.488
51646W        W16807   4.899  32.399   0.014
51647W        W16808  24.463  16.620   2.695
51648W        W16809  11.715  21.483   3.223
51649W        W16810   2.386  40.360   2.875
51650W        W16811   2.510  29.082   3.196
51651W        W16812   0.453   1.864   4.731
51652W        W16813   3.566  43.952   0.888
51653W        W16814   2.533  39.371   0.836
51654W        W16815  35.081   6.437   0.418
51655W        W16816  26.960   1.479   4.863
51656W        W16817  18.086   5.236  13.901
51657W        W16818  31.093  12.915   4.318
51658W        W16819   4.808  26.962  11.987
51659W        W16820   6.203  33.040   3.666
51660W        W16821  33.429  19.963   4.098
51661W        W16822   3.647  20.182  12.616
51662W        W16823   1.858  33.296  11.654
51663W        W16824   6.697  44.413   1.125
51664W        W16825   9.212  38.385   3.435
51665W        W16826  33.422  44.567   1.218
51666W        W16827  19.561   2.052  11.728
51667W        W16828  27.580  19.705   4.369
51668W        W16829  12.444   6.886  11.987
51669W        W16830  10.289   7.258   1.378
51670W        W16831  32.082  13.961  12.999
51671W        W16832   4.368  27.060   2.125
51672W        W16833  27.472   1.014  14.461
51673W        W16834  15.407  44.157   4.141
51674W        W16835   9.061  14.723  11.837
51675W        W16836  21.738   2.766  14.040
51676W        W16837  15.644  42.498   0.633
51677W        W16838  42.492  27.226   0.904
51678W        W16839  10.625  26.161  11.540
51679W        W16840  27.970  37.785   2.740
51680W        W16841  20.221  34.843  14.952
51681W        W16842   7.666  30.742   2.521
51682W        W16843   7.345  17.808  12.386
51683W        W16844  41.924  29.415  13.749
51684W        W16845   9.197  44.723   3.646
51685W        W16846   7.967  29.634   1.276
51686W        W16847   9.787  36.438   0.275
51687W        W16848  40.500  24.186  13.000
51688W        W16849  12.176   6.368   3.175
51689W        W16850   2.462  20.564   1.436
51690W        W16851  27.806   1.197  13.335
51691W        W16852   0.821  16.636   0.508
51692W        W16853   5.787  13.804  14.414
51693W        W16854   1.795  17.557  11.111
51694W        W16855  17.127  23.269  12.007
51695W        W16856  31.645   9.066   2.765
51696W        W16857  32.951  13.184  11.765
51697W        W16858   7.627  23.739   1.810
51698W        W16859  26.973   3.685  13.316
51699W        W16860  23.035  18.539  10.451
51700W        W16861  17.447   6.667  14.890
51701W        W16862  22.698   5.311   2.790
51702W        W16863  36.481  12.135   3.542
51703W        W16864   5.704  10.183  12.639
51704W        W16865  39.794  21.211  11.976
51705W        W16866  14.672  33.839  10.642
51706W        W16867  22.711  14.950  10.312
51707W        W16868  13.158  10.268   0.932
51708W        W16869  28.515   5.522   4.515
51709W        W16870  20.737  37.364   1.142
51710W        W16871   6.936  14.635   4.919
51711W        W16872  43.328  22.148  12.882
51712W        W16873  39.840   8.442   2.714
51713W        W16874  34.532  38.585  13.516
51714W        W16875  34.388  35.408   0.823
51715W        W16876   8.463  37.725  13.004
51716W        W16877  20.196  36.855   0.876
51717W        W16878   6.424   4.368   0.391
51718W        W16879  32.569  34.977  14.309
51719W        W16880   1.911   4.819   0.221
51720W        W16881  34.984  27.180   2.833
51721W        W16882  38.777  13.807   4.755
51722W        W16883  40.008  41.260  11.187
51723W        W16884  22.828   8.309   1.269
51724W        W16885   5.669  40.589  12.474
51725W        W16886  19.160  23.706   2.333
51726W        W16887  40.287  17.151   5.004
51727W        W16888   5.233  18.319   1.886
51728W        W16889  44.491  33.645  12.706
51729W        W16890  22.911  43.549  12.561
51730W        W16891  34.012  31.296  12.889
51731W        W16892  33.098  42.889   0.272
51732W        W16893  20.532  15.075   3.997
51733W        W16894  22.044  37.526   2.870
51734W        W16895  23.554  21.509  14.846
51735W        W16896   6.868  33.137  13.668
51736W        W16897  31.403   2.693  13.478
51737W        W16898  39.045   5.872   0.079
51738W        W16899  27.215  44.325   4.779
51739W        W16900  31.721  19.511   1.728
51740W        W16901   6.752  20.406  12.885
51741W        W16902  25.274  36.553  13.974
51742W        W16903  15.982  21.497  13.964
51743W        W16904  33.619  24.608  13.017
51744W        W16905  19.161  26.236  10.999
51745W        W16906  27.798  14.162  13.215
51746W        W16907   3.855  10.665  13.006
51747W        W16908  23.108   1.470   3.817
51748W        W16909  26.695  20.485   4.574
51749W        W16910   0.714  11.489   5.306
51750W        W16911  33.524  13.650  10.380
51751W        W16912  16.621  34.001  12.197
51752W        W16913   1.415  12.049  10.665
51753W        W16914  38.172  20.120   2.363
51754W        W16915   8.351   1.053  12.946
51755W        W16916  30.663   1.082   5.094
51756W        W16917  26.150  21.076   2.640
51757W        W16918  36.480  41.858  14.914
51758W        W16919  11.072  24.703   3.800
51759W        W16920  14.868  28.502  14.092
51760W        W16921  36.010  15.126  12.664
51761W        W16922  19.216  14.266   3.666
51762W        W16923  25.260  25.638  10.879
51763W        W16924  30.975  11.707   2.465
51764W        W16925   6.375   1.498   3.196
51765W        W16926   9.431  23.574   1.740
51766W        W16927   9.371   4.802  14.347
51767W        W16928  36.198   0.036   1.896
51768W        W16929   3.155  10.125   0.545
51769W        W16930  25.141   9.914  13.773
51770W        W16931   0.038  22.023   2.835
51771W        W16932  32.756  26.440  10.600
51772W        W16933  26.591  15.258   3.234
51773W        W16934  18.258  41.417   0.004
51774W        W16935  34.795   3.220   1.147
51775W        W16936  27.872  14.729   0.984
51776W        W16937  30.141  32.146   3.162
51777W        W16938  13.699  41.301   0.955
51778W        W16939  44.217  41.408   4.999
51779W        W16940  22.016   1.475   0.848
51780W        W16941  13.808  30.850   2.224
51781W        W16942   6.618  15.697   3.733
51782W        W16943   3.866  29.869   0.866
51783W        W16944  28.313   2.388  13.555
51784W        W16945   7.501  24.712   0.948
51785W        W16946  28.194  44.305   0.729
51786W        W16947   9.448   8.269   2.144
51787W        W16948  43.987  21.278   2.525
51788W        W16949  22.680  37.580   1.292
51789W        W16950  20.654  33.006   1.932
51790W        W16951  19.010  43.070  13.802
51791W        W16952  37.150  38.989  12.060
51792W        W16953  29.569  11.222   3.606
51793W        W16954   0.280  11.867   3.098
51794W        W16955  26.919   1.911  12.032
51795W        W16956  34.501  35.420   2.122
51796W        W16957  21.996  29.206   4.050
51797W        W16958  19.829  10.332  14.790
51798W        W16959  36.443  35.390  12.896
51799W        W16960  39.475   7.841  14.858
51800W        W16961  43.883   9.680   2.627
51801W        W16962  17.116   2.578   3.099
51802W        W16963  15.036  29.025  10.995
51803W        W16964  29.043   5.298  12.360
51804W        W16965  33.551  41.523   4.858
51805W        W16966  43.839  32.551   3.748
51806W        W16967   9.310  23.983   2.277
51807W        W16968  19.201  20.826   0.928
51808W        W16969  28.035  11.162   4.218
51809W        W16970  16.644   7.192  12.516
51810W        W16971  12.062   3.138   2.345
51811W        W16972  12.082   2.503   4.391
51812W        W16973  22.377  28.972  13.498
51813W        W16974  19.279  27.580  13.090
51814W        W16975   0.160  18.222  11.343
51815W        W16976  27.520   0.929  11.169
51816W        W16977  26.809  32.139   1.357
51817W        W16978  14.884  43.469  13.492
51818W        W16979   4.743  37.536  12.040
51819W        W16980  13.694  27.497   1.260
51820W        W16981  42.483  14.267   2.688
51821W        W16982  12.428  36.764  13.018
51822W        W16983   5.738  15.223  12.474
51823W        W16984  38.937  31.379  10.722
51824W        W16985  29.075  12.348   1.272
51825W        W16986  23.132   2.857   4.134
51826W        W16987  39.093  25.141   2.261
51827W        W16988  18.263  14.858   0.815
51828W        W16989   2.942  27.702   1.314
51829W        W16990  22.272  13.342  13.390
51830W        W16991  18.257   1.945  13.500
51831W        W16992  30.205   0.814  11.473
51832W        W16993  24.678   9.701   4.143
51833W        W16994  13.272  32.959   2.151
51834W        W16995  12.075  43.125   4.073
51835W        W16996  19.405  32.357   2.216
51836W        W16997   7.690  33.331  14.019
51837W        W16998  11.380   7.888   2.282
51838W        W16999  30.127   5.865  13.880
51839W        W17000  35.791  20.567  13.815
51840W        W17001   6.802  27.277  13.401
51841W        W17002  38.009  37.600   3.357
51842W        W17003  40.278  42.535  11.657
51843W        W17004  20.693  42.918   3.762
51844W        W17005   7.332  21.674  14.669
51845W        W17006  43.848  14.785   1.852
51846W        W17007  30.906  37.468   4.328
51847W        W17008   1.987  16.309   4.003
51848W        W17009  30.641  11.872  13.451
51849W        W17010  43.960   1.889   4.859
51850W        W17011  28.657  23.986  14.299
51851W        W17012  26.786  30.448  13.520
51852W        W17013  20.317  35.234  12.062
51853W        W17014   4.405  30.626  12.014
51854W        W17015  22.221   0.165   1.303
51855W        W17016  23.073  30.015  12.780
51856W        W17017  13.737   0.387   3.900
51857W        W17018   3.931   2.664  13.911
51858W        W17019   5.898  15.844  10.735
51859W        W17020  11.499  17.128  11.625
51860W        W17021  36.710  24.050  11.478
51861W        W17022  26.671   6.632  11.988
51862W        W17023  35.231   4.824   0.837
51863W        W17024   0.860  27.189  14.549
51864W        W17025  20.852  33.365   2.733
51865W        W17026  10.841  36.824   3.725
51866W        W17027  28.660  24.649  13.386
51867W        W17028  16.788  38.986  14.348
51868W        W17029  33.678  12.005   2.255
51869W        W17030  15.301  35.311  11.568
51870W        W17031  20.798   0.235   4.366
51871W        W17032  36.095  39.331   1.848
51872W        W17033  41.693  34.863   4.096
51873W        W17034  43.901   3.484   2.616
51874W        W17035  24.060  10.080   2.622
51875W        W17036   2.283  10.220  10.665
51876W        W17037   4.818  29.971   1.408
51877W        W17038  34.076  10.094  14.737
51878W        W17039  42.903   8.816  13.754
51879W        W17040  10.550  25.089  13.454
51880W        W17041  33.325  11.160   2.894
51881W        W17042  40.300  41.145   0.433
51882W        W17043   1.882  21.715   4.291
51883W        W17044  19.842  21.239  14.676
51884W        W17045  35.111  28.294  10.130
51885W        W17046   0.009  43.233   0.378
51886W        W17047  38.803  15.388  14.241
51887W        W17048  30.577  20.752   1.728
51888W        W17049  29.199   0.547  13.819
51889W        W17050  21.590  23.149  14.235
51890W        W17051  42.070  39.358  14.082
51891W        W17052  11.689  36.332  10.581
51892W        W17053  18.696   8.281  14.918
51893W        W17054  40.851  22.703   3.889
51894W        W17055  15.544   1.339   0.776
51895W        W17056  24.285   9.124   1.634
51896W        W17057   4.910  42.424   1.763
51897W        W17058  29.691   4.198  11.085
51898W        W17059  44.508  38.630  13.457
51899W        W17060  42.426   7.975   0.286
51900W        W17061  14.179  30.447  14.966
51901W        W17062  44.535  12.614   4.693
51902W        W17063  38.267   0.262   3.709
51903W        W17064  28.688  20.492   4.769
51904W        W17065  15.791   1.036   1.115
51905W        W17066  17.127   2.464   4.501
51906W        W17067  23.192   7.305  11.023
51907W        W17068  24.517  21.779   2.758
51908W        W17069  39.440  39.244  13.986
51909W        W17070   1.068  37.161   2.304
51910W        W17071  27.113  31.410  12.007
51911W        W17072  32.041   8.371   4.300
51912W        W17073  26.031  42.451   3.277
51913W        W17074  32.113  42.480   3.696
51914W        W17075  13.837  19.119   1.931
51915W        W17076   8.303  21.737  11.528
51916W        W17077  41.384  10.123  11.992
51917W        W17078   7.239  35.282  11.509
51918W        W17079  24.606  38.781  13.879
51919W        W17080  25.516  24.043   4.050
51920W        W17081   4.478   2.068   0.454
51921W        W17082  34.822  38.899   2.866
51922W        W17083  35.988  30.852   2.680
51923W        W17084  30.472  43.967   4.634
51924W        W17085  12.688  24.081   2.094
51925W        W17086   0.528  18.788  12.810
51926W        W17087   2.999  22.468  13.448
51927W        W17088  16.494  33.127   1.375
51928W        W17089   4.275  17.762   0.292
51929W        W17090  30.674  31.067   3.564
51930W        W17091  32.149  14.825  11.459
51931W        W17092  14.722   6.178   9.925
51932W        W17093   5.905  19.860  13.154
51933W        W17094  34.507   8.864  13.464
51934W        W17095  10.934  29.579   3.944
51935W        W17096  39.926  13.416   0.009
51936W        W17097  26.710   9.122  13.330
51937W        W17098  20.035  10.454   4.566
51938W        W17099  22.442  35.509  12.087
51939W        W17100  30.995  43.962   1.680
51940W        W17101   4.457   6.338  14.798
51941W        W17102  24.105  37.044  11.742
51942W        W17103   3.787  33.466  11.060
51943W        W17104  13.075   7.655   4.099
51944W        W17105  16.629  30.010   1.164
51945W        W17106  44.909  19.442   1.239
51946W        W17107  20.780   2.853  14.877
51947W        W17108   0.041   9.174  11.976
51948W        W17109  28.911  38.403  10.321
51949W        W17110   4.964  12.394  13.513
51950W        W17111  32.042   2.903  14.148
51951W        W17112  43.519  10.512   3.183
51952W        W17113  41.314   1.272   0.041
51953W        W17114  38.793  13.997  10.721
51954W        W17115  15.665   8.583  12.388
51955W        W17116  33.860  22.017   0.289
51956W        W17117  39.787  15.650   2.856
51957W        W17118  18.693   6.808   1.808
51958W        W17119  16.000  35.745  12.992
51959W        W17120  31.122  36.326   4.006
51960W        W17121  10.674  27.614  10.743
51961W        W17122  32.337   7.377   0.277
51962W        W17123   1.246   6.318  11.661
51963W        W17124  16.578  17.457   4.924
51964W        W17125  44.145   8.602   5.330
51965W        W17126  12.656   0.815   4.866
51966W        W17127  34.986  20.147   4.467
51967W        W17128   5.872  35.401  14.089
51968W        W17129  32.789  34.806  11.994
51969W        W17130  16.767  37.125   1.267
51970W        W17131  28.558  30.548   1.833
51971W        W17132  28.384  14.087  11.586
51972W        W17133  37.444  22.560   1.051
51973W        W17134  32.006  36.553   3.631
51974W        W17135  39.638  26.220   4.225
51975W        W17136  27.987  35.569   1.673
51976W        W17137  11.791  13.325  12.692
51977W        W17138  15.488  36.480   2.179
51978W        W17139  10.119  14.333  10.762
51979W        W17140  31.155  33.565   1.983
51980W        W17141  16.594  25.032   3.504
51981W        W17142  37.535  29.704   0.818
51982W        W17143  23.433  44.526   3.325
51983W        W17144  37.867  30.950  12.168
51984W        W17145  30.019  22.111   4.076
51985W        W17146  11.788  19.704  11.854
51986W        W17147  35.046  13.225  13.325
51987W        W17148   3.359   9.233  13.782
51988W        W17149  16.352  22.987  11.601
51989W        W17150  19.173  22.684  11.946
51990W        W17151   1.854  18.859   4.164
51991W        W17152  30.670  28.391   3.331
51992W        W17153  36.108   2.178   3.662
51993W        W17154  42.699  37.736   4.940
51994W        W17155  44.767  40.517  14.773
51995W        W17156  44.024   4.959  11.443
51996W        W17157  31.839   8.874   4.384
51997W        W17158   2.662  37.825  13.463
51998W        W17159  44.705  16.128  13.565
51999W        W17160  19.116  33.110  14.591
52000W        W17161  15.932  23.211   2.093
52001W        W17162  26.883  26.367  12.497
52002W        W17163  12.143  15.706   2.848
52003W        W17164   8.290   7.891   1.523
52004W        W17165  32.212  13.845   0.201
52005W        W17166  40.843   1.466   0.919
52006W        W17167  14.246   8.712   4.218
52007W        W17168  22.681  35.714   2.302
52008W        W17169   2.304  30.209  10.532
52009W        W17170  34.997   1.342   3.595
52010W        W17171  43.885  11.624   3.700
52011W        W17172  15.760   1.711  13.083
52012W        W17173  13.349   1.493   4.238
52013W        W17174  42.429   9.927   3.299
52014W        W17175  41.526  28.833  12.036
52015W        W17176  28.855   3.931  14.512
52016W        W17177  20.351  25.252  12.059
52017W        W17178  14.673  13.198   4.948
52018W        W17179  37.272   5.595  11.085
52019W        W17180  25.528  22.538   1.928
52020W        W17181  12.261  20.631   2.700
52021W        W17182  12.876  22.273   0.372
52022W        W17183  37.409  20.497   4.544
52023W        W17184   1.907  14.801   4.195
52024W        W17185  31.016  10.027  13.489
52025W        W17186  17.131  36.063  14.303
52026W        W17187  44.379  14.030   1.404
52027W        W17188  31.151   8.090  12.826
52028W        W17189   3.227   7.701  14.306
52029W        W17190  43.300  34.148   4.143
52030W        W17191  32.994  16.864   3.223
52031W        W17192  12.229  44.668  14.867
52032W        W17193  34.939  22.795   4.415
52033W        W17194  16.800  22.246  11.650
52034W        W17195  10.658  30.344   1.233
52035W        W17196   7.140  19.936   1.277
52036W        W17197  37.065  32.892  14.325
52037W        W17198  37.027  24.945  12.154
52038W        W17199  41.507  26.218  11.342
52039W        W17200  27.653  20.397   2.893
52040W        W17201  42.429   5.766   1.862
52041W        W17202  15.554  14.775   0.239
52042W        W17203   6.755  33.545   3.197
52043W        W17204   2.578  25.555   3.227
52044W        W17205  26.107  20.234  11.955
52045W        W17206  43.660   5.673  11.086
52046W        W17207  38.327  19.872   0.964
52047W        W17208  26.242  43.712   2.925
52048W        W17209   1.955  15.213   5.118
52049W        W17210   0.511  15.254   3.256
52050W        W17211  43.915  39.013   0.715
52051W        W17212  34.085  41.637  12.625
52052W        W17213  17.737  10.840   4.726
52053W        W17214  16.092   0.615   2.302
52054W        W17215  40.136  30.571  10.707
52055W        W17216  44.985   5.784   2.293
52056W        W17217   1.420   0.980   3.999
52057W        W17218   3.056  27.133  12.268
52058W        W17219  13.747   3.028  12.081
52059W        W17220   2.704  10.213   4.276
52060W        W17221   7.889  24.990   2.646
52061W        W17222  17.659  13.747   2.941
52062W        W17223  15.551  27.754  12.580
52063W        W17224  20.045  13.883  11.645
52064W        W17225  31.547  37.105  13.342
52065W        W17226  29.638  30.074  14.753
52066W        W17227   8.100  39.580   0.883
52067W        W17228  44.743  21.854   2.237
52068W        W17229  28.140  14.538   2.381
52069W        W17230  44.950   6.324  11.475
52070W        W17231  31.047  25.416  13.046
52071W        W17232   2.718   2.300  11.118
52072W        W17233  39.541   5.824   1.523
52073W        W17234   6.325  24.287  13.851
52074W        W17235  42.817  23.910  14.277
52075W        W17236  35.351   9.692   0.759
52076W        W17237  30.198  14.566   5.015
52077W        W17238  26.566  29.906   1.725
52078W        W17239  37.111  32.503  12.860
52079W        W17240  41.393  37.342  14.957
52080W        W17241  41.267  11.324   3.848
52081W        W17242   3.913   0.206   0.991
52082W        W17243  36.944  13.793   2.776
52083W        W17244   2.739  29.245   4.149
52084W        W17245  37.718  11.551   3.121
52085W        W17246  15.770  34.663   2.725
52086W        W17247  29.654   0.246  12.123
52087W        W17248  23.971  28.907  13.794
52088W        W17249  19.743  15.734  11.909
52089W        W17250  28.293  44.114   0.238
52090W        W17251  30.269  43.462   4.553
52091W        W17252  30.676   8.488  12.061
52092W        W17253  28.152  32.943  11.673
52093W        W17254  42.291  28.535  13.964
52094W        W17255  42.921  34.312  13.663
52095W        W17256  22.456   4.834   4.125
52096W        W17257  13.724  22.121  12.659
52097W        W17258   6.963   0.929  12.012
52098W        W17259  15.549  42.912  12.369
52099W        W17260  30.973   2.064   2.790
52100W        W17261  18.175   9.834   3.887
52101W        W17262  26.264  42.384   2.825
52102W        W17263  15.673  34.158   1.946
52103W        W17264  27.803  40.020  11.223
52104W        W17265   1.375  43.307  12.988
52105W        W17266  32.408  32.403  12.543
52106W        W17267   1.770  28.335   0.640
52107W        W17268   5.890  19.313  13.088
52108W        W17269   6.247  27.635   5.516
52109W        W17270  21.695  11.537  10.619
52110W        W17271  39.645  37.320  13.793
52111W        W17272  15.177  10.716   4.651
52112W        W17273  26.754   3.926  14.948
52113W        W17274  42.001  16.225   4.711
52114W        W17275  32.526  17.286   1.693
52115W        W17276  43.620  37.123   3.366
52116W        W17277  27.662   8.977  12.013
52117W        W17278   4.694  37.031  13.461
52118W        W17279  21.220   0.755  11.199
52119W        W17280   1.020  14.488  14.804
52120W        W17281  30.549  35.518  13.349
52121W        W17282  20.351   7.248  11.567
52122W        W17283  33.724  33.376   5.029
52123W        W17284  11.705  35.483   3.979
52124W        W17285  10.307  31.768   9.848
52125W        W17286   2.881   2.726  10.760
52126W        W17287  34.832  19.551   0.756
52127W        W17288  42.540  13.135  13.953
52128W        W17289   6.008  16.458   2.735
52129W        W17290  33.648  42.934   3.196
52130W        W17291  38.605  31.701   4.755
52131W        W17292  13.398  28.672  12.486
52132W        W17293  12.490  40.034   5.262
52133W        W17294  17.320   8.854  13.792
52134W        W17295  35.457   2.809  14.933
52135W        W17296  16.043  13.767   2.338
52136W        W17297   8.417  36.938   4.661
52137W        W17298   7.572  27.555  10.280
52138W        W17299  22.118  22.758   2.453
52139W        W17300  16.359  36.436   0.872
52140W        W17301  23.959   4.648  13.043
52141W        W17302  32.430  31.891  13.522
52142W        W17303   1.723  36.511  14.024
52143W        W17304   9.255   9.698  13.409
52144W        W17305  27.128  37.492  12.089
52145W        W17306  16.592  32.480   0.092
52146W        W17307   8.984   5.123   4.424
52147W        W17308   5.171  19.194  10.578
52148W        W17309   5.737   6.491  10.571
52149W        W17310  15.851  38.489   1.006
52150W        W17311  17.705  35.601   3.293
52151W        W17312  42.353  20.670   3.595
52152W        W17313  44.541  41.464   3.736
52153W        W17314  13.540  30.646   3.611
52154W        W17315  32.887  36.806   9.979
52155W        W17316  37.082  18.159   3.378
52156W        W17317  41.826  34.981  12.992
52157W        W17318  29.666  19.219   4.016
52158W        W17319  40.435  39.024  14.737
52159W        W17320   4.063   0.852  11.422
52160W        W17321   4.015  14.562  10.994
52161W        W17322  13.824   3.938   1.372
52162W        W17323   9.684   7.928  14.438
52163W        W17324  30.981  16.383  11.527
52164W        W17325   7.738  13.581  11.584
52165W        W17326   6.506  32.060  12.044
52166W        W17327  33.146  43.432  14.376
52167W        W17328   3.175   8.338  12.098
52168W        W17329   3.723   7.282  11.156
52169W        W17330  44.725  28.509  13.377
52170W        W17331  10.392  43.975   2.393
52171W        W17332  13.763  14.810  11.186
52172W        W17333   3.819  24.110  13.385
52173W        W17334  25.247  18.508   0.743
52174W        W17335  10.219  25.518  14.252
52175W        W17336   2.615  12.632   0.324
52176W        W17337   3.515  12.230  14.920
52177W        W17338  44.903  42.498   1.859
52178W        W17339  44.978  39.250   3.171
52179W        W17340  41.045  34.821   0.966
52180W        W17341  22.251  20.237  14.907
52181W        W17342  14.847   3.767  13.440
52182W        W17343  28.916  37.917  12.206
52183W        W17344  39.732  37.654   0.660
52184W        W17345  17.728  17.742   1.557
52185W        W17346  13.110  22.111  10.655
52186W        W17347  34.697  40.102  10.170
52187W        W17348   8.802  13.800  10.985
52188W        W17349  27.062  33.941  10.925
52189W        W17350  19.803  13.901  12.959
52190W        W17351  31.112  44.504   4.122
52191W        W17352  22.989  20.178  10.714
52192W        W17353   3.686  36.773  11.829
52193W        W17354  34.507  35.766   1.209
52194W        W17355  28.654  13.235   4.170
52195W        W17356  13.712   6.463  14.561
52196W        W17357  24.134  30.465   0.623
52197W        W17358   5.437  16.032  13.439
52198W        W17359  19.908   5.817   3.927
52199W        W17360   7.756   2.047  11.079
52200W        W17361  16.216  17.300   2.139
52201W        W17362  38.675   1.765   2.768
52202W        W17363  37.179   3.891  13.528
52203W        W17364  19.713  15.339   2.139
52204W        W17365  19.981  29.974   4.147
52205W        W17366  19.465   7.632   1.204
52206W        W17367  16.424  31.575  11.988
52207W        W17368  14.350   8.159   3.648
52208W        W17369  10.113   0.006   2.711
52209W        W17370  29.520  15.567   1.865
52210W        W17371  11.604  11.402  12.868
52211W        W17372  44.320  20.272   1.530
52212W        W17373  23.292   4.966   0.652
52213W        W17374  14.276  24.105  12.082
52214W        W17375  30.642   0.227   0.373
52215W        W17376  38.399  27.982   1.645
52216W        W17377  30.700  38.883   1.253
52217W        W17378  19.818  35.900   3.253
52218W        W17379   4.988  38.838   1.938
52219W        W17380  25.945  22.771  14.311
52220W        W17381  24.551   6.358  10.966
52221W        W17382  16.125   4.605  11.479
52222W        W17383   7.740  24.790   4.530
52223W        W17384  35.411   9.958  12.494
52224W        W17385  17.279   4.377   4.110
52225W        W17386  11.841  12.292   2.878
52226W        W17387  34.419  25.520   1.763
52227W        W17388  15.136  42.256   2.516
52228W        W17389  22.662  17.726  10.035
52229W        W17390   1.436  16.702  11.569
52230W        W17391  20.614   2.861  11.610
52231W        W17392  34.400   9.746   1.890
52232W        W17393  11.255  41.701  11.496
52233W        W17394  38.559  39.373   0.707
52234W        W17395  11.161  28.892  11.133
52235W        W17396  31.855   9.619  12.563
52236W        W17397  24.531  17.509  13.876
52237W        W17398  29.609  30.042   4.790
52238W        W17399   0.638  16.660   3.987
52239W        W17400  25.957  14.982   2.188
52240W        W17401  31.953   1.092   2.855
52241W        W17402  32.705  26.469   3.713
52242W        W17403  16.789  29.517   4.093
52243W        W17404  34.114   4.105  11.469
52244W        W17405   9.290  16.580  12.368
52245W        W17406  36.530  39.772  14.408
52246W        W17407  17.205   3.234  13.953
52247W        W17408  24.060  41.819  11.045
52248W        W17409  16.660  38.151   4.039
52249W        W17410  12.924  28.851  13.640
52250W        W17411  36.917  41.280  14.751
52251W        W17412  28.686  11.375  12.415
52252W        W17413  23.036  43.837  10.527
52253W        W17414  21.699  35.146  13.404
52254W        W17415  16.708  21.758  10.698
52255W        W17416   4.201  26.906  13.961
52256W        W17417  41.489  14.589  14.788
52257W        W17418  17.534  18.061  13.002
52258W        W17419   2.664  35.507   0.321
52259W        W17420  41.521   9.652  13.459
52260W        W17421  19.235  10.751   3.600
52261W        W17422  31.459  12.697  10.586
52262W        W17423  18.577  19.743  12.980
52263W        W17424   1.892   6.322   0.982
52264W        W17425  19.309  13.503   3.254
52265W        W17426  27.930   5.468   1.937
52266W        W17427   5.867  27.447   1.789
52267W        W17428  26.320  21.942   4.596
52268W        W17429  27.642  15.592  13.813
52269W        W17430  18.656  37.338  14.706
52270W        W17431  15.047  33.080   3.950
52271W        W17432  29.710  40.876   4.025
52272W        W17433  36.249   0.256   2.742
52273W        W17434  40.301  24.780  13.977
52274W        W17435  26.148  16.810   4.540
52275W        W17436   0.934  28.415   1.271
52276W        W17437  14.224  19.011   0.678
52277W        W17438  44.839  30.459  13.812
52278W        W17439  17.486   8.972   0.875
52279W        W17440   0.271  29.665  13.805
52280W        W17441  42.333  32.500   1.798
52281W        W17442  44.246  41.960  13.309
52282W        W17443  14.705  26.244   1.185
52283W        W17444   0.282  37.565  13.320
52284W        W17445  27.533  39.839   0.956
52285W        W17446  44.360   4.416   0.606
52286W        W17447  18.088  27.440   3.289
52287W        W17448  21.683   3.729  13.769
52288W        W17449   8.425  40.110  13.511
52289W        W17450   1.803   2.814  12.012
52290W        W17451  11.286  15.270  13.799
52291W        W17452  23.585  17.845   2.666
52292W        W17453  36.325  30.550   5.154
52293W        W17454  39.012  31.448  12.001
52294W        W17455  44.170  44.765  12.783
52295W        W17456   7.219  24.933  13.404
52296W        W17457   8.073  33.889   0.242
52297W        W17458  11.217  16.080  13.091
52298W        W17459   5.917   0.684   1.891
52299W        W17460  30.122  33.137  13.979
52300W        W17461  13.335   9.745   4.125
52301W        W17462  31.425  23.503   2.564
52302W        W17463  34.151   9.934  11.087
52303W        W17464   4.314  19.916   4.135
52304W        W17465  17.317  17.972  11.124
52305W        W17466  44.993  16.275  13.114
52306W        W17467   6.106   8.210   1.177
52307W        W17468  20.255  27.231  12.001
52308W        W17469  16.255  42.988   4.565
52309W        W17470  30.454  33.387   4.407
52310W        W17471   2.569  13.208  12.029
52311W        W17472  16.636  26.159   1.472
52312W        W17473  16.420  40.285   0.959
52313W        W17474   8.364  29.613  11.328
52314W        W17475  30.000   5.966  12.038
52315W        W17476  43.369  34.035   3.252
52316W        W17477  31.644  30.091   1.302
52317W        W17478  33.113  25.150   1.466
52318W        W17479  39.413  15.270  11.667
52319W        W17480  41.697  31.913  10.802
52320W        W17481   2.839   3.442   1.911
52321W        W17482   5.849  28.460   3.191
52322W        W17483  17.216  29.682   1.772
52323W        W17484  40.466   0.872   3.166
52324W        W17485  10.570  31.966   3.583
52325W        W17486  18.120   4.252  13.733
52326W        W17487  16.821  37.685  11.916
52327W        W17488  21.563  35.275   1.730
52328W        W17489  31.051  43.313  10.723
52329W        W17490   8.166  26.181   3.778
52330W        W17491  16.391  10.364   0.835
52331W        W17492   2.494  33.841  14.861
52332W        W17493  26.021   5.640   4.595
52333W        W17494   1.470  41.167   4.255
52334W        W17495  44.081  12.367  13.979
52335W        W17496   6.290  15.898  14.754
52336W        W17497  27.113  20.992  12.360
52337W        W17498   1.908  16.845   2.211
52338W        W17499  24.101   0.785   3.046
52339W        W17500  39.818  24.547   3.574
52340W        W17501  27.649  43.849  14.519
52341W        W17502  31.227  35.355   0.734
52342W        W17503   3.248  34.855  10.341
52343W        W17504  25.506  31.989   2.265
52344W        W17505   5.627  36.978  10.555
52345W        W17506  33.379  27.759  13.420
52346W        W17507   6.349  25.668   1.939
52347W        W17508  37.381   0.781  14.019
52348W        W17509   1.460  40.008  11.976
52349W        W17510  41.426   2.923  14.209
52350W        W17511  33.786  14.146   0.847
52351W        W17512  38.998   1.079   4.130
52352W        W17513  36.977  31.031  14.830
52353W        W17514  39.373  12.609   2.731
52354W        W17515   3.721  19.951   3.854
52355W        W17516  25.500   5.718   0.904
52356W        W17517  40.471  25.048   0.070
52357W        W17518  26.742  35.207   5.050
52358W        W17519  44.614  42.407  11.581
52359W        W17520  24.785   2.978  10.908
52360W        W17521  19.591  40.314   0.008
52361W        W17522  37.451  38.560   0.922
52362W        W17523   7.738  23.523   4.191
52363W        W17524   6.311  35.301   3.979
52364W        W17525   1.027  31.360  14.582
52365W        W17526  37.457  40.222   3.366
52366W        W17527  26.489  43.049  11.968
52367W        W17528  26.962  28.952   0.178
52368W        W17529  11.386  15.784  12.056
52369W        W17530  35.220   0.951   0.872
52370W        W17531  16.589  17.065   9.750
52371W        W17532  14.887  14.186   1.889
52372W        W17533   1.014  44.401  14.077
52373W        W17534   0.942  18.030   1.374
52374W        W17535  40.918  38.192   5.050
52375W        W17536  42.455  21.613  12.662
52376W        W17537   0.397  11.090   1.387
52377W        W17538  18.603  25.150   3.625
52378W        W17539  38.862  23.691  13.437
52379W        W17540  38.496  40.307  13.413
52380W        W17541  42.924  31.717   1.793
52381W        W17542  29.355  11.310  13.826
52382W        W17543  22.187  26.406   3.139
52383W        W17544  33.140  15.154  11.338
52384W        W17545   0.950  33.480  11.312
52385W        W17546  30.026  34.049   3.213
52386W        W17547   4.624  33.318   0.932
52387W        W17548  17.875  26.719   1.663
52388W        W17549  25.588   4.219  10.544
52389W        W17550  10.844  16.135  14.066
52390W        W17551  19.636  10.918   1.207
52391W        W17552   1.939  41.456   1.222
52392W        W17553  21.033  39.021  13.996
52393W        W17554  42.525  36.054   1.235
52394W        W17555  34.807  16.223   4.069
52395W        W17556   5.798  20.099   3.649
52396W        W17557  41.571  11.146   2.488
52397W        W17558  16.250  19.116   1.629
52398W        W17559  38.397  34.907  14.490
52399W        W17560   6.734  25.056  14.266
52400W        W17561  19.734   0.539  14.428
52401W        W17562  42.316  29.903  10.760
52402W        W17563  36.895  37.130  13.124
52403W        W17564   3.413   8.640   4.483
52404W        W17565  14.916   3.262   5.185
52405W        W17566  16.944  26.477   4.497
52406W        W17567  26.073   3.940  13.243
52407W        W17568   4.049  41.666  12.959
52408W        W17569  25.128   2.926  10.520
52409W        W17570  22.756  11.133   1.573
52410W        W17571  27.988   4.197  13.542
52411W        W17572  31.482   4.332   0.368
52412W        W17573   6.702  23.744  14.504
52413W        W17574   5.694  23.562  13.483
52414W        W17575   0.980  42.444   5.053
52415W        W17576  31.051   3.356   4.758
52416W        W17577  23.239   0.903  13.558
52417W        W17578   1.806  11.093  11.528
52418W        W17579  13.956  31.156   1.812
52419W        W17580  31.508  29.996  11.234
52420W        W17581  12.562  32.429   1.914
52421W        W17582  42.285  42.861   1.852
52422W        W17583  39.296  13.545   4.114
52423W        W17584  43.317   6.871   0.612
52424W        W17585  26.572  34.814   4.151
52425W        W17586  29.203  30.324  14.930
52426W        W17587  22.174   9.163  14.816
52427W        W17588  35.544  40.738   3.172
52428W        W17589  10.975  12.196   1.400
52429W        W17590  15.582  24.124   1.705
52430W        W17591   0.237  15.890  12.877
52431W        W17592  15.811  42.922  13.299
52432W        W17593   1.251   0.452  12.837
52433W        W17594  27.982  44.773   2.907
52434W        W17595   9.864   7.583   3.168
52435W        W17596  14.742  42.581   0.562
52436W        W17597   1.183  34.640   2.246
52437W        W17598  11.667   2.242   4.181
52438W        W17599  20.596   8.443  13.323
52439W        W17600  27.972   3.691   4.117
52440W        W17601  41.553  16.207   4.997
52441W        W17602  35.476  39.966   1.623
52442W        W17603  15.262  26.405   1.220
52443W        W17604  34.577  20.725  12.954
52444W        W17605   1.604  44.647   3.340
52445W        W17606  11.010  10.941  11.001
52446W        W17607  29.330  35.147  12.887
52447W        W17608  12.154   4.691   2.265
52448W        W17609   6.318   7.373   3.137
52449W        W17610  13.491  21.169  10.659
52450W        W17611  41.875   4.924  14.004
52451W        W17612  23.078  23.513   1.667
52452W        W17613   6.779   5.715  12.486
52453W        W17614  28.311  30.384  11.009
52454W        W17615  39.693  29.024  11.583
52455W        W17616   2.915  42.398   2.935
52456W        W17617  23.227  34.821   0.707
52457W        W17618  19.681  24.962  14.339
52458W        W17619   3.296   8.607   0.196
52459W        W17620  16.571  37.831   0.951
52460W        W17621   4.974  33.453  10.634
52461W        W17622   6.754  32.907   0.062
52462W        W17623  31.571  22.743   0.469
52463W        W17624   3.912  13.770   3.930
52464W        W17625  18.930  35.095  11.577
52465W        W17626   2.829   6.651   4.625
52466W        W17627  35.315  19.662  14.826
52467W        W17628   5.357   0.794  13.570
52468W        W17629  22.023  20.984  10.172
52469W        W17630  29.933   4.790   3.819
52470W        W17631  29.182   0.202  12.876
52471W        W17632  28.537  39.916  11.599
52472W        W17633  28.988  12.377   2.620
52473W        W17634  16.760  38.469  12.724
52474W        W17635  18.597  34.633   0.880
52475W        W17636  35.845   7.146  13.355
52476W        W17637  19.034  15.659   0.441
52477W        W17638  37.020  34.662  12.601
52478W        W17639  18.686  32.878   0.433
52479W        W17640  22.227  29.116   0.997
52480W        W17641  16.006  44.903  13.138
52481W        W17642  16.817  15.225   1.243
52482W        W17643   4.838   7.712   2.433
52483W        W17644   1.752  34.968  10.497
52484W        W17645  31.532   9.608   3.665
52485W        W17646  27.575  27.515   2.137
52486W        W17647   1.112  32.980   4.853
52487W        W17648  40.999  20.469   0.523
52488W        W17649  29.660  19.378   4.510
52489W        W17650  33.932   2.859  12.775
52490W        W17651  31.315   2.306  12.033
52491W        W17652   5.382  27.932  13.767
52492W        W17653  23.616  40.655   1.789
52493W        W17654  26.528   8.641   2.855
52494W        W17655  17.693  12.591  11.085
52495W        W17656  32.071   0.307   0.806
52496W        W17657  11.901   7.676   2.281
52497W        W17658  33.719  29.553  12.056
52498W        W17659  42.278   4.641   3.806
52499W        W17660  34.517   6.120   1.672
52500W        W17661  35.974  37.342  13.531
52501W        W17662  34.411  39.853  13.892
52502W        W17663  36.839  43.749  12.020
52503W        W17664   2.658  22.674   0.876
52504W        W17665  43.291  32.495   0.690
52505W        W17666  22.348  24.636   1.209
52506W        W17667  20.679   8.670   0.680
52507W        W17668  22.094  40.436  13.976
52508W        W17669  30.110  20.872   3.795
52509W        W17670  27.342  13.730  11.117
52510W        W17671  23.257  25.446  14.483
52511W        W17672  12.788  13.834  12.373
52512W        W17673  25.704  36.445  14.248
52513W        W17674  16.092  31.608  12.893
52514W        W17675   9.110  15.700   0.384
52515W        W17676  11.313  43.466  11.197
52516W        W17677  11.907   0.432   1.797
52517W        W17678  33.670  34.849   1.413
52518W        W17679  24.997  17.170  10.759
52519W        W17680  14.464  15.835   0.944
52520W        W17681   5.840  41.610   1.337
52521W        W17682   1.478  25.161  10.208
52522W        W17683  24.220   8.383  12.927
52523W        W17684  39.774   5.252   1.656
52524W        W17685   5.808  14.599  13.486
52525W        W17686  24.693   4.101   3.854
52526W        W17687  19.168  18.808  10.926
52527W        W17688  21.795  32.392   4.561
52528W        W17689  24.161  39.576  13.551
52529W        W17690  10.149   4.357  10.454
52530W        W17691  20.596  13.591  11.926
52531W        W17692  36.382  31.562  12.338
52532W        W17693   1.460  44.097  14.086
52533W        W17694   1.144   4.234  11.135
52534W        W17695  40.005  17.508  11.413
52535W        W17696  21.949   8.765   4.164
52536W        W17697  24.038  38.553   0.464
52537W        W17698  41.083   1.282  11.915
52538W        W17699  20.788   6.161   4.378
52539W        W17700  43.878  20.515   3.076
52540W        W17701   7.667  26.455   1.253
52541W        W17702  15.737  28.377  12.000
52542W        W17703  14.477  11.081  14.489
52543W        W17704  23.044   2.002   0.665
52544W        W17705  13.197  26.542   4.389
52545W        W17706  32.887  12.201  11.605
52546W        W17707  41.180  17.790  12.443
52547W        W17708  13.422  15.031   3.735
52548W        W17709  30.017  38.493   2.941
52549W        W17710   2.063  35.780  12.275
52550W        W17711  22.258  17.389   5.142
52551W        W17712   3.375  18.585   3.166
52552W        W17713  27.091  44.777  13.924
52553W        W17714  42.017  28.987  14.020
52554W        W17715  40.065   6.827  12.808
52555W        W17716  35.036  22.678  10.456
52556W        W17717  31.010  10.096   4.779
52557W        W17718  31.936  35.116   4.719
52558W        W17719  41.434  18.020   2.460
52559W        W17720  44.965   1.012   1.816
52560W        W17721  13.564  36.043  13.202
52561W        W17722  20.758   2.825   2.269
52562W        W17723  17.480  15.801  14.423
52563W        W17724   0.068  17.072   3.270
52564W        W17725  35.444   4.784   2.309
52565W        W17726   8.152  14.732   0.265
52566W        W17727   8.698  34.899   2.703
52567W        W17728  33.918  39.035   1.372
52568W        W17729  29.002  43.104   3.859
52569W        W17730  25.110   4.046   2.256
52570W        W17731  10.889  40.387   2.784
52571W        W17732  36.561   5.970   0.890
52572W        W17733  25.457  32.597   0.174
52573W        W17734  30.658  34.077  10.720
52574W        W17735  38.939  20.304  14.367
52575W        W17736  18.712  29.495   4.175
52576W        W17737  23.652  29.025   1.924
52577W        W17738  14.468  41.248   4.177
52578W        W17739  28.266  12.642   2.182
52579W        W17740   6.641   0.355   0.744
52580W        W17741  41.910   8.713   3.689
52581W        W17742  34.978  34.918   1.772
52582W        W17743  27.628  42.702   2.127
52583W        W17744  32.476  25.240   3.158
52584W        W17745  12.146  18.670   4.978
52585W        W17746  20.007   4.220  11.274
52586W        W17747   2.927  21.296  12.439
52587W        W17748   3.624   5.573  13.467
52588W        W17749  12.374  41.219   4.669
52589W        W17750  42.822  40.019   4.157
52590W        W17751  39.762  17.258   3.871
52591W        W17752  21.484  11.470  13.854
52592W        W17753  14.562  20.652   2.768
52593W        W17754  23.226  30.229   4.882
52594W        W17755  38.022   5.355   4.767
52595W        W17756  35.909  33.658  11.671
52596W        W17757  29.718  10.034   0.083
52597W        W17758   3.370   2.264  11.889
52598W        W17759  35.994   0.405  13.646
52599W        W17760  27.891  20.610  11.944
52600W        W17761   3.778   0.854   2.793
52601W        W17762  33.824  34.626   4.077
52602W        W17763  29.659  32.346   4.153
52603W        W17764  23.860  44.786  12.514
52604W        W17765  26.086  38.579   0.797
52605W        W17766  27.591   9.878   0.986
52606W        W17767  10.295  32.499   4.129
52607W        W17768  26.971   3.154   2.251
52608W        W17769  19.196   6.432   3.595
52609W        W17770   9.344  15.346  14.476
52610W        W17771   2.727   4.676   4.225
52611W        W17772  24.381  38.827   3.518
52612W        W17773  34.248  17.053  13.759
52613W        W17774  29.984  30.940  13.177
52614W        W17775   0.216  38.959  12.191
52615W        W17776  39.346  39.048  14.838
52616W        W17777   3.962  19.735   2.448
52617W        W17778  23.001  19.001  11.201
52618W        W17779  43.899  15.178   4.089
52619W        W17780   6.676  29.600  11.133
52620W        W17781   9.506  15.361  11.934
52621W        W17782  12.290   8.161   0.887
52622W        W17783  24.152  32.097  10.462
52623W        W17784  30.362  38.522  12.071
52624W        W17785  43.702   7.752  13.876
52625W        W17786  11.967  26.510  12.061
52626W        W17787  31.550  40.266   1.188
52627W        W17788  28.163  15.567  12.843
52628W        W17789  41.236  17.129   0.436
52629W        W17790   7.808  31.404   2.004
52630W        W17791   4.030  38.029  11.914
52631W        W17792  30.401  28.230  13.979
52632W        W17793  17.564  36.538  10.666
52633W        W17794   4.313  10.847  10.678
52634W        W17795  17.401  35.086  13.754
52635W        W17796  16.392   7.847   3.192
52636W        W17797  20.604  22.766   1.544
52637W        W17798  39.586   8.292   1.948
52638W        W17799  12.506   8.861   3.826
52639W        W17800  24.368  15.702  10.596
52640W        W17801  23.596  31.144   2.730
52641W        W17802   1.850  32.457  14.488
52642W        W17803   8.643  10.232   2.425
52643W        W17804  21.098  38.438  12.782
52644W        W17805  10.120  38.404  12.258
52645W        W17806   0.321  27.001  12.509
52646W        W17807  29.309  39.563   2.687
52647W        W17808  36.131  20.704  12.580
52648W        W17809  35.338  25.082   1.359
52649W        W17810  27.894  36.256   0.168
52650W        W17811  13.243  19.694   4.428
52651W        W17812  40.957  26.937   3.835
52652W        W17813  29.117  31.969   1.364
52653W        W17814  28.921  41.093  13.033
52654W        W17815  20.303  44.462   2.177
52655W        W17816  23.973   0.325   4.563
52656W        W17817  18.473   8.302  12.082
52657W        W17818  18.746  29.415   3.676
52658W        W17819  13.541   1.978  13.523
52659W        W17820  28.595  41.584  10.693
52660W        W17821  11.863  33.105  11.547
52661W        W17822  29.838  11.387  13.633
52662W        W17823  31.183  31.360  12.790
52663W        W17824  34.486  21.928   1.976
52664W        W17825  34.293  21.375  10.153
52665W        W17826  35.495  10.824  14.238
52666W        W17827   4.288  30.017  13.475
52667W        W17828  27.781  35.863  14.810
52668W        W17829  38.367  16.993   3.825
52669W        W17830  31.444  25.401   3.602
52670W        W17831   8.245   7.345  13.072
52671W        W17832  34.877  36.870   2.851
52672W        W17833  11.703  40.344   3.452
52673W        W17834   2.675   7.193   3.682
52674W        W17835  38.308  33.641   3.428
52675W        W17836  25.419   9.400  12.944
52676W        W17837  38.224   9.656  10.912
52677W        W17838  13.703   0.814   0.200
52678W        W17839  28.149   8.951  13.454
52679W        W17840  38.517   4.408  13.970
52680W        W17841  31.672  43.758   0.854
52681W        W17842  17.517  13.835   1.177
52682W        W17843  15.799   7.267   0.709
52683W        W17844   5.944  10.707   0.970
52684W        W17845   4.332   4.687   1.262
52685W        W17846   4.385  21.676   2.501
52686W        W17847   9.824  18.106  14.328
52687W        W17848  35.356  16.812  14.842
52688W        W17849  30.833   4.491  13.898
52689W        W17850  17.359  44.454   1.284
52690W        W17851  11.872  36.523  14.603
52691W        W17852  44.475  10.290  13.016
52692W        W17853  28.874   5.284  10.486
52693W        W17854   0.765  28.272  11.185
52694W        W17855  33.899  29.376   2.838
52695W        W17856   1.420  10.355   4.874
52696W        W17857  15.169  16.998  12.434
52697W        W17858  28.206  42.837   0.027
52698W        W17859  32.423  30.575  10.737
52699W        W17860  35.680  34.424  10.557
52700W        W17861  42.753   7.857   2.378
52701W        W17862  43.024   5.011  12.360
52702W        W17863  20.412  28.660   9.914
52703W        W17864   8.270  32.053  14.815
52704W        W17865  14.748  32.631   2.112
52705W        W17866  14.156  37.940  11.001
52706W        W17867  30.366  19.458   1.363
52707W        W17868  44.437  22.411  14.478
52708W        W17869  16.552  16.802   4.481
52709W        W17870  14.903   4.011  12.022
52710W        W17871   5.051  28.788  14.840
52711W        W17872  23.510  24.773  10.272
52712W        W17873   1.172  28.627  13.517
52713W        W17874  39.783  29.542   2.853
52714W        W17875  34.933  12.773  13.078
52715W        W17876  28.529   4.999   4.564
52716W        W17877  35.486  22.261   4.270
52717W        W17878  15.274  25.909   2.763
52718W        W17879  23.023  24.494   2.815
52719W        W17880  24.991  14.635  14.926
52720W        W17881  24.162  44.698   2.854
52721W        W17882  24.627  24.334   1.311
52722W        W17883  27.370  42.905  14.112
52723W        W17884  11.936  39.320   4.304
52724W        W17885  29.726  25.941   2.798
52725W        W17886  40.055   1.986   4.411
52726W        W17887   7.623  14.230  14.115
52727W        W17888   6.422  29.856   3.300
52728W        W17889   0.023  44.007   0.019
52729W        W17890  19.209  41.523   1.774
52730W        W17891  39.599   7.326   1.273
52731W        W17892  38.183  37.420  11.995
52732W        W17893   3.962  12.114   3.837
52733W        W17894  32.958  14.707  11.153
52734W        W17895  23.387  11.597   5.467
52735W        W17896  26.706  29.464   5.230
52736W        W17897  44.756   8.409  13.962
52737W        W17898  35.827   8.779   0.809
52738W        W17899  27.126  28.223   4.065
52739W        W17900   7.138  39.343   2.420
52740W        W17901  33.156  27.125   0.928
52741W        W17902  24.482  30.967   2.250
52742W        W17903  22.247  28.089   0.807
52743W        W17904  20.635  37.637  10.916
52744W        W17905  36.423  25.186   3.742
52745W        W17906  17.301  39.332  11.321
52746W        W17907  30.086  41.049   0.764
52747W        W17908  28.992  13.992  14.832
52748W        W17909  36.903  27.141   3.550
52749W        W17910  15.620   1.268  14.839
52750W        W17911  30.957  25.004  11.218
52751W        W17912  11.229  37.871  11.546
52752W        W17913  24.448   5.307  11.138
52753W        W17914  11.827  42.420  13.782
52754W        W17915  10.148  15.667   2.871
52755W        W17916  33.391  14.615  10.558
52756W        W17917  18.092  19.987  14.336
52757W        W17918  32.158  20.152  11.094
52758W        W17919   7.976   8.655   2.299
52759W        W17920  31.752  16.897   1.430
52760W        W17921  13.654   4.021  14.047
52761W        W17922  22.644  21.944   1.026
52762W        W17923  19.139  26.996   4.477
52763W        W17924  43.571  26.458   2.256
52764W        W17925  14.053  37.334   1.793
52765W        W17926  39.256  15.410  14.534
52766W        W17927   9.258  15.185   0.966
52767W        W17928  18.817  24.791  12.941
52768W        W17929   7.467  35.584   2.523
52769W        W17930  27.376  34.778   4.302
52770W        W17931  11.338  19.079  10.597
52771W        W17932   5.841   5.295   4.123
52772W        W17933  37.852  19.148  10.787
52773W        W17934  33.091  43.381   1.429
52774W        W17935  42.514  35.505   3.305
52775W        W17936  28.490  30.461   4.857
52776W        W17937  16.543   9.285  10.937
52777W        W17938   4.120  34.090   4.455
52778W        W17939  41.262  13.037   4.221
52779W        W17940  27.541   2.173   1.242
52780W        W17941   7.772  25.199  13.347
52781W        W17942  41.807  14.576   2.282
52782W        W17943  26.443  27.080  11.505
52783W        W17944   9.288  39.011  14.262
52784W        W17945  28.943  32.295  14.297
52785W        W17946  31.556  14.885  12.092
52786W        W17947  18.227  41.081  14.227
52787W        W17948  37.405   7.924  13.434
52788W        W17949  18.640  41.597   0.294
52789W        W17950  42.945   7.829  14.066
52790W        W17951  39.764  28.669   4.348
52791W        W17952   0.889  26.257   3.809
52792W        W17953   6.665   6.215   3.801
52793W        W17954  17.246  31.052  13.996
52794W        W17955   3.732   5.758   3.253
52795W        W17956  10.305  31.987  10.637
52796W        W17957   1.168  33.431   0.876
52797W        W17958  19.906  34.850   3.618
52798W        W17959  39.484   0.704   0.477
52799W        W17960  34.422  22.219  11.507
52800W        W17961  14.315   5.395  12.078
52801W        W17962  33.563   0.444   0.855
52802W        W17963  14.542  19.242   2.872
52803W        W17964   8.750   4.117  14.705
52804W        W17965  27.873  30.091   2.880
52805W        W17966  37.913  19.226  14.816
52806W        W17967  22.403  11.084  13.887
52807W        W17968  21.477   7.308   1.693
52808W        W17969  37.431   4.951   4.176
52809W        W17970  31.093   3.569   2.433
52810W        W17971  13.754  43.406  10.535
52811W        W17972  10.678  40.762  12.486
52812W        W17973  15.170  37.781   0.764
52813W        W17974  25.915  25.188  14.417
52814W        W17975  38.796  42.529   3.658
52815W        W17976  34.513   6.144  10.480
52816W        W17977  38.580  16.270  11.264
52817W        W17978  42.886  16.466   4.036
52818W        W17979  35.088  13.079   3.794
52819W        W17980  10.054   7.114   3.456
52820W        W17981  40.781  24.207   3.773
52821W        W17982  36.815  25.421  12.171
52822W        W17983  32.465  22.537  10.303
52823W        W17984  42.943  35.832   1.463
52824W        W17985  43.689  38.540   1.431
52825W        W17986  24.898   3.555  12.368
52826W        W17987  41.481  11.613   4.258
52827W        W17988  21.646  26.014  12.716
52828W        W17989  35.450   7.892   0.312
52829W        W17990  24.091  24.027   3.131
52830W        W17991  25.427   0.689  14.903
52831W        W17992  10.648  18.115   3.653
52832W        W17993  42.019  30.556  12.015
52833W        W17994  30.511  26.246   5.044
52834W        W17995  11.191  33.935  13.915
52835W        W17996  10.268  27.660   4.674
52836W        W17997   1.441  32.344  13.397
52837W        W17998   2.293  40.335  14.330
52838W        W17999   8.271  36.451  14.795
52839W        W18000  17.991  44.997  11.948
52840W        W18001  13.650  37.513   4.429
52841W        W18002  44.309  38.868   3.071
52842W        W18003  14.558   8.175  13.109
52843W        W18004  19.642  39.407  12.969
52844W        W18005  34.676  44.002   0.935
52845W        W18006   3.406  36.345  11.645
52846W        W18007  28.139  44.982  11.941
52847W        W18008   3.737   0.093   0.023
52848W        W18009   4.307   3.703  13.498
52849W        W18010  31.287  33.259  10.349
52850W        W18011  11.193   3.021   0.702
52851W        W18012  21.504  33.057  14.106
52852W        W18013  23.150  10.442  10.334
52853W        W18014  32.814  23.029   3.291
52854W        W18015   0.091  16.109   0.469
52855W        W18016  23.055  12.563  14.432
52856W        W18017  11.816  37.287   1.855
52857W        W18018  43.384  35.457  11.258
52858W        W18019   3.031  37.262   4.559
52859W        W18020  35.084  20.314  11.985
52860W        W18021  17.705  32.557  11.760
52861W        W18022  19.247   1.084  14.035
52862W        W18023  42.250  12.732   3.741
52863W        W18024   5.226  13.390  14.852
52864W        W18025  31.385  33.946   3.314
52865W        W18026  44.643   1.414   2.886
52866W        W18027  23.455  34.157  14.702
52867W        W18028  43.384  14.350  13.637
52868W        W18029  16.229  34.836   2.309
52869W        W18030   9.680   8.100  11.955
52870W        W18031  43.887  42.707  12.158
52871W        W18032   0.857  22.559   4.345
52872W        W18033  40.599  10.832  12.329
52873W        W18034  15.380  18.322  14.307
52874W        W18035  17.082  38.989  10.070
52875W        W18036  17.450   4.820   2.122
52876W        W18037  31.042  23.647  11.335
52877W        W18038  26.873  34.490   0.663
52878W        W18039  28.651   7.294   2.791
52879W        W18040   2.980  34.802   2.590
52880W        W18041  23.380  39.422  14.266
52881W        W18042  33.566  41.473   3.239
52882W        W18043   5.981  35.895   3.332
52883W        W18044   0.817  37.830   3.616
52884W        W18045  12.684  22.262  11.470
52885W        W18046  36.626  40.477  11.956
52886W        W18047  13.358  18.291  13.285
52887W        W18048  36.904  28.361  11.198
52888W        W18049   4.324  10.196   3.951
52889W        W18050   6.978  22.652   1.237
52890W        W18051  36.055  35.824   0.928
52891W        W18052   7.868  31.297  14.751
52892W        W18053  20.013  43.813   3.150
52893W        W18054   9.158  42.511   1.292
52894W        W18055  30.672  10.385  11.120
52895W        W18056   0.498  22.533   2.228
52896W        W18057  10.370  15.495  11.524
52897W        W18058   2.246  12.018   2.371
52898W        W18059  10.811  40.303  10.674
52899W        W18060  22.318  14.072  10.500
52900W        W18061   4.662  24.136  10.911
52901W        W18062   7.238  44.875   3.276
52902W        W18063  20.618  26.692   0.580
52903W        W18064   3.418  30.133   0.909
52904W        W18065  38.845  13.658  14.000
52905W        W18066  12.078  32.481  14.930
52906W        W18067  44.433  10.697  13.347
52907W        W18068  18.316  26.949   1.471
52908W        W18069  19.205   0.247  11.392
52909W        W18070   9.749   5.225  11.502
52910W        W18071  26.969   7.444   3.038
52911W        W18072  11.888  27.032  14.819
52912W        W18073   8.152  32.629   4.242
52913W        W18074  18.182   4.484  12.316
52914W        W18075   0.257  22.691   1.221
52915W        W18076  11.684   5.236  11.470
52916W        W18077  28.757  42.877  14.383
52917W        W18078   8.696  26.471  11.559
52918W        W18079  37.052  23.658   4.615
52919W        W18080  27.906   8.236   4.998
52920W        W18081   1.146  40.813  14.897
52921W        W18082  26.942  37.764  11.530
52922W        W18083  34.753  35.168   2.493
52923W        W18084  22.066  36.929  12.510
52924W        W18085  10.955  17.227  11.679
52925W        W18086   0.832  21.731  11.620
52926W        W18087  33.438  31.050  12.552
52927W        W18088  15.997  20.488  11.557
52928W        W18089  40.457  32.080  14.889
52929W        W18090  40.859  23.086   2.876
52930W        W18091   6.749  42.308  14.380
52931W        W18092  22.706  24.016   4.443
52932W        W18093  23.785   9.851   3.649
52933W        W18094  25.117  26.275  11.668
52934W        W18095  28.174  41.280  11.702
52935W        W18096  33.576  13.380   1.451
52936W        W18097  42.756  40.465   3.328
52937W        W18098  30.905   5.400  10.955
52938W        W18099  34.157  44.783   2.735
52939W        W18100   9.737  20.738   2.177
52940W        W18101   6.640  28.990  14.708
52941W        W18102   2.558   7.390   0.456
52942W        W18103  13.625   1.019   0.680
52943W        W18104  41.389  19.655   3.642
52944W        W18105  11.342   1.821  11.093
52945W        W18106  33.640   0.268  14.260
52946W        W18107   0.346  22.456   2.720
52947W        W18108  33.571   1.715   0.398
52948W        W18109  41.918  12.244   4.336
52949W        W18110  14.863  44.416   2.076
52950W        W18111  39.777   7.402  14.897
52951W        W18112  20.805  10.403   3.233
52952W        W18113  14.560   9.359   3.843
52953W        W18114   9.275  38.588  12.508
52954W        W18115  41.196   3.973   1.806
52955W        W18116  33.554   8.455   2.273
52956W        W18117  11.645   8.089   0.452
52957W        W18118  22.168  15.553   0.242
52958W        W18119  12.125  44.021  12.405
52959W        W18120   3.411   3.638   2.039
52960W        W18121  21.786  30.094  12.582
52961W        W18122  38.332  18.293  11.366
52962W        W18123   1.744  11.769   3.204
52963W        W18124   3.954   7.490   1.753
52964W        W18125  30.787   9.061  11.559
52965W        W18126   8.607  43.800  12.588
52966W        W18127  31.985  38.974   2.578
52967W        W18128   0.078  22.804   2.338
52968W        W18129  11.693  30.143  11.555
52969W        W18130  23.896  14.081   1.242
52970W        W18131  31.346  10.847  12.569
52971W        W18132   8.187  43.994  14.408
52972W        W18133  14.092  34.346   3.838
52973W        W18134   6.165  10.897  14.822
52974W        W18135   4.292  25.730  14.717
52975W        W18136  12.315  44.473  11.496
52976W        W18137  18.895   0.420   4.811
52977W        W18138  37.836  29.108  14.770
52978W        W18139  43.992  30.411  11.087
52979W        W18140  24.139  15.212   0.469
52980W        W18141  12.826  37.264  10.691
52981W        W18142  44.482  39.308  13.883
52982W        W18143  20.696  38.389   1.014
52983W        W18144  34.457   1.912   4.698
52984W        W18145   8.832  29.551  13.575
52985W        W18146  12.803  18.089   1.408
52986W        W18147   1.734  29.059   1.265
52987W        W18148  23.801  15.327  11.825
52988W        W18149  32.649  12.506  11.201
52989W        W18150  13.280   2.246   0.873
52990W        W18151   5.214  22.564  14.815
52991W        W18152   3.463  34.413  14.274
52992W        W18153  15.855   3.590  13.433
52993W        W18154   3.758  20.100   1.295
52994W        W18155  23.807  30.578   9.741
52995W        W18156  27.928  25.181  14.421
52996W        W18157  26.656  44.983   0.826
52997W        W18158  19.121  28.953  13.822
52998W        W18159  22.541  33.565  11.648
52999W        W18160  20.063  40.612  10.722
53000W        W18161  15.634   1.791  11.238
53001W        W18162  42.368   6.936   2.037
53002W        W18163  12.561   5.268  14.530
53003W        W18164  42.304  15.659   3.667
53004W        W18165  23.578  40.808   2.282
53005W        W18166  33.123  30.559  11.456
53006W        W18167   9.886  33.915  14.466
53007W        W18168  30.068  34.935  10.568
53008W        W18169  36.374  20.519  14.844
53009W        W18170   5.324  42.923  13.977
53010W        W18171  39.684  20.718  14.918
53011W        W18172  25.023  42.916   1.927
53012W        W18173   0.656  27.949   2.759
53013W        W18174   0.062  33.584   4.848
53014W        W18175  27.467   1.735   1.475
53015W        W18176   5.296  15.151   1.763
53016W        W18177   4.216   1.342   1.452
53017W        W18178  22.238   1.446  14.491
53018W        W18179   7.817  39.463  14.106
53019W        W18180   8.564  31.800   1.599
53020W        W18181   3.814   3.241  13.111
53021W        W18182  26.189   2.132  10.984
53022W        W18183  41.535  34.802  10.745
53023W        W18184  43.489  12.711   0.417
53024W        W18185   3.264  11.688   2.154
53025W        W18186  38.296  20.807   0.971
53026W        W18187  34.246  10.552  14.919
53027W        W18188  37.475  12.912   2.345
53028W        W18189   0.897  28.914   2.568
53029W        W18190  28.873  35.447   2.252
53030W        W18191  39.091  10.281  14.792
53031W        W18192   6.303  27.117  13.453
53032W        W18193  41.522   7.713  12.788
53033W        W18194  30.498  18.979   0.520
53034W        W18195  37.081  25.534   0.841
53035W        W18196  17.158  14.305  11.132
53036W        W18197  44.906  24.547  13.012
53037W        W18198  38.050  32.987  11.987
53038W        W18199   5.237  33.827   1.209
53039W        W18200  38.351  15.280  14.006
53040W        W18201   1.711  30.690   2.285
53041W        W18202  37.360  33.880   1.351
53042W        W18203  19.112   3.153  13.988
53043W        W18204  41.451  22.074   4.658
53044W        W18205  29.511  31.691   1.135
53045W        W18206  33.517   8.656   5.076
53046W        W18207  26.666  29.707  12.919
53047W        W18208  23.553  27.464   0.296
53048W        W18209  37.770  16.101   0.873
53049W        W18210  16.585   9.773   2.281
53050W        W18211  16.208  16.988   1.735
53051W        W18212   0.505  27.191   0.556
53052W        W18213  29.358   6.647  12.164
53053W        W18214  23.541  19.524   3.105
53054W        W18215  36.128  22.068   2.905
53055W        W18216  23.721   3.973  12.492
53056W        W18217  13.534  31.082  13.828
53057W        W18218  23.759  21.210   2.634
53058W        W18219  37.509  22.994  11.626
53059W        W18220  40.341   8.799   2.244
53060W        W18221  34.623  23.041  10.407
53061W        W18222  24.981  44.496   2.318
53062W        W18223  37.172  38.874   3.195
53063W        W18224  41.142   6.834   3.776
53064W        W18225  34.688  35.940   4.015
53065W        W18226  27.131  38.016  12.959
53066W        W18227  40.427   3.445   0.518
53067W        W18228  10.346  12.781   2.711
53068W        W18229  32.452  18.982   3.721
53069W        W18230   5.412   3.387  12.968
53070W        W18231   6.242  33.040   4.568
53071W        W18232  32.913  42.390   3.207
53072W        W18233  20.207  21.675  10.231
53073W        W18234  34.145  39.706  10.652
53074W        W18235  29.892   5.458  14.825
53075W        W18236   2.934  16.901  11.438
53076W        W18237  14.560  34.126  14.451
53077W        W18238  15.498  22.385   9.880
53078W        W18239  27.418  13.683   2.024
53079W        W18240  10.310  34.088   4.654
53080W        W18241   1.949  15.183   2.392
53081W        W18242  17.294  37.377  11.634
53082W        W18243  19.982  28.142   2.395
53083W        W18244  31.117  21.409   0.639
53084W        W18245  35.813  11.930  13.448
53085W        W18246  41.932   9.132   4.360
53086W        W18247   7.670  39.880  10.823
53087W        W18248   0.786  16.414   9.805
53088W        W18249   0.434   1.900  13.558
53089W        W18250  41.403  19.537  11.226
53090W        W18251  27.170  35.589  12.899
53091W        W18252  36.496  15.620   0.014
53092W        W18253  28.202  25.958   4.302
53093W        W18254  40.855  42.285  14.320
53094W        W18255  29.056  17.815   3.695
53095W        W18256  26.066  40.517   3.197
53096W        W18257  16.933  28.407  11.934
53097W        W18258  23.895  41.510  12.557
53098W        W18259  36.816  10.039   3.259
53099W        W18260  29.435  29.537  11.937
53100W        W18261  29.572  29.154  10.491
53101W        W18262  44.198  11.200   2.686
53102W        W18263   3.216  42.339  11.876
53103W        W18264   1.465   9.040  13.982
53104W        W18265  17.112  12.215   1.418
53105W        W18266  19.426  14.804  11.115
53106W        W18267  14.493   8.872   4.620
53107W        W18268  20.251  20.077  13.125
53108W        W18269  33.056  34.971   3.484
53109W        W18270  42.060   9.924   2.932
53110W        W18271  12.173  30.290   0.818
53111W        W18272  16.527   1.314   1.926
53112W        W18273  28.178   5.445  10.967
53113W        W18274  26.449  12.509  12.507
53114W        W18275  27.466  17.756  12.666
53115W        W18276  27.772  40.322  14.517
53116W        W18277   6.278  15.644  11.077
53117W        W18278   6.814   3.866  13.987
53118W        W18279  24.704   5.912   3.941
53119W        W18280  15.787  34.312  12.428
53120W        W18281   5.172  40.950   3.698
53121W        W18282  29.404   1.158  12.001
53122W        W18283  34.964  29.435  11.554
53123W        W18284  19.021   4.349  12.589
53124W        W18285  44.729  26.013  11.505
53125W        W18286   9.399  43.028   2.681
53126W        W18287  39.516  21.074   1.112
53127W        W18288  44.100  11.339   4.550
53128W        W18289  22.215  27.961   2.254
53129W        W18290  31.965  13.660   1.425
53130W        W18291  41.659  43.004  11.133
53131W        W18292  38.749   8.778   3.705
53132W        W18293  23.884   9.099   3.112
53133W        W18294  31.780  36.863   3.294
53134W        W18295   3.679  21.820   1.828
53135W        W18296  28.649   7.888  13.416
53136W        W18297  37.011  20.444   1.458
53137W        W18298  37.610  17.676   2.606
53138W        W18299  30.423  14.281  13.288
53139W        W18300  40.380  30.313  12.918
53140W        W18301  13.159  25.950   3.753
53141W        W18302   4.826  35.669   2.698
53142W        W18303  26.170  36.415  13.996
53143W        W18304  13.611  31.561   1.837
53144W        W18305  29.437  27.208   3.638
53145W        W18306  38.334   0.971  12.958
53146W        W18307  36.921  13.841  10.700
53147W        W18308  42.504  37.081  13.680
53148W        W18309  36.399  40.096  14.014
53149W        W18310  41.361  32.918  14.466
53150W        W18311  29.024  21.667   0.766
53151W        W18312  10.583  41.873   4.966
53152W        W18313  31.624  16.291   0.849
53153W        W18314  26.225  41.312  12.016
53154W        W18315  23.191  29.335   1.930
53155W        W18316  11.502  42.963  11.147
53156W        W18317  31.938  26.202   1.709
53157W        W18318  27.008  24.999  10.596
53158W        W18319  44.461  37.606   2.670
53159W        W18320  42.558  31.642   0.300
53160W        W18321  44.971   2.391   3.740
53161W        W18322   3.017  20.416   2.981
53162W        W18323  34.677  28.901   0.324
53163W        W18324   2.823  21.578   2.721
53164W        W18325  10.734   7.312  11.299
53165W        W18326   1.479  28.905  11.838
53166W        W18327  31.085  24.597   2.614
53167W        W18328  20.304  29.424   0.442
53168W        W18329  40.781  31.573  12.426
53169W        W18330   3.432   6.742  10.757
53170W        W18331  20.175  14.177  13.978
53171W        W18332   4.131  36.513   1.942
53172W        W18333  37.833  35.530  11.086
53173W        W18334  14.356  31.909  13.097
53174W        W18335  37.093  43.996  14.148
53175W        W18336  30.018  11.235  13.143
53176W        W18337   7.939  28.040  11.219
53177W        W18338  40.423  25.075  13.528
53178W        W18339  39.980  39.014   3.836
53179W        W18340   9.261  30.430  12.415
53180W        W18341  30.503  26.990   1.198
53181W        W18342  34.989  42.796   1.803
53182W        W18343   5.122  30.692  10.202
53183W        W18344  11.881   5.467  11.052
53184W        W18345  40.647  30.687   0.390
53185W        W18346   8.742  20.132  11.927
53186W        W18347  14.015  38.384   3.170
53187W        W18348  43.386  19.325  11.425
53188W        W18349   2.331  15.107  13.393
53189W        W18350  34.166  33.449   2.266
53190W        W18351  37.521  27.411  11.436
53191W        W18352  38.716  24.716  11.246
53192W        W18353  25.508  27.198  13.478
53193W        W18354  29.036  16.516  12.935
53194W        W18355  43.205   1.343  13.739
53195W        W18356  14.790  32.002  14.450
53196W        W18357  16.831  40.041  11.659
53197W        W18358   6.980  32.131   4.208
53198W        W18359  44.971   0.725   1.395
53199W        W18360   8.381  44.919  13.948
53200W        W18361   0.928  44.657   2.671
53201W        W18362  37.312  20.988   0.762
53202W        W18363  25.513  34.137  10.921
53203W        W18364  20.332  17.523   2.691
53204W        W18365   4.463   5.906   0.433
53205W        W18366   6.451  10.364   3.586
53206W        W18367  36.265   5.740  11.024
53207W        W18368  29.550  10.728   2.800
53208W        W18369  16.834  32.652   2.681
53209W        W18370  38.454  28.404  13.533
53210W        W18371  16.125  34.344  10.741
53211W        W18372   2.212  19.964   2.943
53212W        W18373  21.485   8.319  12.954
53213W        W18374  31.595  12.922   2.723
53214W        W18375  23.047   2.772  13.547
53215W        W18376  40.847  19.618   0.826
53216W        W18377  26.413   3.265  12.569
53217W        W18378  16.104  21.134  14.305
53218W        W18379  19.794  36.696   3.137
53219W        W18380  35.565  35.750   2.906
53220W        W18381  17.942   7.895   3.973
53221W        W18382  40.846  20.999  12.038
53222W        W18383  12.671  38.352   1.042
53223W        W18384   8.785  14.367  12.098
53224W        W18385  40.454   9.040   0.817
53225W        W18386  36.786  38.930  12.454
53226W        W18387  13.082  35.016   2.356
53227W        W18388  41.866  13.082   1.215
53228W        W18389  33.836  17.873  14.086
53229W        W18390  31.986  36.917  14.895
53230W        W18391  16.115  13.819   4.559
53231W        W18392   4.810  13.020   4.963
53232W        W18393  33.370  42.935  12.509
53233W        W18394  42.944  44.625  11.925
53234W        W18395  24.795  41.316  14.726
53235W        W18396   6.306   2.843   4.918
53236W        W18397  12.579  16.100  10.827
53237W        W18398  10.697  18.983  13.344
53238W        W18399  31.143  18.987  11.122
53239W        W18400   2.447  40.372   3.393
53240W        W18401  41.386  22.380  14.946
53241W        W18402  12.588  37.235  12.986
53242W        W18403  16.093  31.608   2.329
53243W        W18404  42.411   7.189  11.946
53244W        W18405  38.671  14.101   0.212
53245W        W18406  16.797  32.913  12.088
53246W        W18407  43.898   8.488   1.924
53247W        W18408  26.697  21.816   1.860
53248W        W18409  30.554  12.566  12.074
53249W        W18410  20.548   9.689  10.683
53250W        W18411  38.970  15.157   1.742
53251W        W18412  12.128  13.293  13.999
53252W        W18413  19.626   1.506  11.726
53253W        W18414  13.917  35.066  10.841
53254W        W18415  30.549  16.024  14.928
53255W        W18416  29.557  13.252   2.460
53256W        W18417  23.066  34.993  13.559
53257W        W18418   7.736  18.088   0.024
53258W        W18419  25.839   7.138   3.695
53259W        W18420  32.572  16.216  13.823
53260W        W18421  12.126  36.923  11.708
53261W        W18422   2.020  15.599   1.788
53262W        W18423  15.188  29.989   1.334
53263W        W18424  31.121  17.092  11.029
53264W        W18425   9.757   6.391  13.107
53265W        W18426  29.974  41.032   4.929
53266W        W18427   0.256  28.668  14.064
53267W        W18428  15.252  23.413   2.686
53268W        W18429  43.258  44.332   3.834
53269W        W18430  30.049  23.103  13.599
53270W        W18431  43.535  42.486   1.733
53271W        W18432  13.628  27.619   1.758
53272W        W18433  15.594  24.174   4.077
53273W        W18434   9.596  32.776   2.909
53274W        W18435  17.259  44.923  12.441
53275W        W18436  28.132  23.687  14.822
53276W        W18437   3.466  29.111   0.718
53277W        W18438   8.121  10.191   2.541
53278W        W18439  23.605  17.445  11.227
53279W        W18440   3.955  30.103  12.652
53280W        W18441   3.628  28.079   4.145
53281W        W18442   5.791   5.710   1.974
53282W        W18443  38.024  43.899  14.574
53283W        W18444   4.258  19.628  14.319
53284W        W18445  41.400  42.843   0.449
53285W        W18446  38.913   2.947  10.619
53286W        W18447  35.485  14.559   0.721
53287W        W18448  40.953  14.657  10.790
53288W        W18449  18.636  28.678  10.718
53289W        W18450   5.166  43.993   4.775
53290W        W18451   4.196  23.231   3.191
53291W        W18452  19.219  26.028  10.535
53292W        W18453   7.931  24.243   2.366
53293W        W18454  25.146  15.134  11.391
53294W        W18455  10.558  12.496   1.379
53295W        W18456   0.793  42.495  14.481
53296W        W18457  24.663  33.406   4.286
53297W        W18458  21.589  27.405   3.788
53298W        W18459  32.763   6.617   1.700
53299W        W18460  17.668  16.693  14.542
53300W        W18461   1.326  28.176   3.938
53301W        W18462  22.533  23.498  14.249
53302W        W18463  40.859  35.467  13.703
53303W        W18464  36.108  15.188   4.817
53304W        W18465  30.646   5.883  13.953
53305W        W18466  40.534  44.607  11.703
53306W        W18467  43.522   9.363   0.283
53307W        W18468  43.393   4.817  12.084
53308W        W18469  11.421  11.807   3.625
53309W        W18470   7.254  27.011   9.759
53310W        W18471  32.414  40.479   0.998
53311W        W18472  17.294  13.836   3.307
53312W        W18473  16.146  18.819  13.401
53313W        W18474   6.811   5.737  10.675
53314W        W18475  19.809  43.210   2.710
53315W        W18476  11.556  11.632   0.896
53316W        W18477  21.208  32.278  10.025
53317W        W18478  17.295  12.248   3.639
53318W        W18479   9.924  20.019   4.279
53319W        W18480  35.371  43.346  14.034
53320W        W18481   1.488  33.169  10.601
53321W        W18482  21.596   9.366   1.888
53322W        W18483  35.552  18.783  10.673
53323W        W18484  34.950  26.689  10.629
53324W        W18485  22.693  32.712   4.527
53325W        W18486   7.178  32.299  12.754
53326W        W18487  16.970   0.857   3.584
53327W        W18488  39.343  17.519   2.225
53328W        W18489   5.306  30.575  12.366
53329W        W18490   2.561  37.955   3.245
53330W        W18491   1.802  30.593  11.738
53331W        W18492   4.687   1.495  13.117
53332W        W18493  35.902  19.174   4.320
53333W        W18494   7.278   5.315  11.906
53334W        W18495  25.544   1.837  10.099
53335W        W18496  17.896  39.210  12.078
53336W        W18497  25.000   1.440   1.880
53337W        W18498   1.841  41.534   3.136
53338W        W18499  43.011  17.384   0.889
53339W        W18500  39.118  28.455   1.947
53340W        W18501  40.413  44.746  14.476
53341W        W18502  41.196   7.070   3.299
53342W        W18503  40.483  40.810   2.150
53343W        W18504  20.971   1.849   4.896
53344W        W18505  30.484  16.410  12.038
53345W        W18506   6.230  32.092   4.609
53346W        W18507  26.278  37.393   3.052
53347W        W18508   1.145  22.356   3.435
53348W        W18509  27.522   2.127   3.538
53349W        W18510  27.546  42.320  12.035
53350W        W18511   9.326  29.582  13.446
53351W        W18512  37.474  43.278   2.264
53352W        W18513  34.654  44.821   2.615
53353W        W18514  43.491  43.901   4.003
53354W        W18515   5.519   5.446   4.492
53355W        W18516  34.586   2.969   2.635
53356W        W18517  29.991  20.998  10.339
53357W        W18518  28.060  31.078  14.893
53358W        W18519   5.293  14.372   2.368
53359W        W18520  34.007  42.171  14.706
53360W        W18521   7.482  23.591   4.653
53361W        W18522   2.162  22.807   4.512
53362W        W18523  43.393  32.250   2.918
53363W        W18524  18.378  39.246   5.016
53364W        W18525   8.902  32.956   3.140
53365W        W18526   9.819  16.119  13.875
53366W        W18527   9.823  37.495  12.287
53367W        W18528  44.782  27.004   4.572
53368W        W18529  25.745  31.109  12.916
53369W        W18530  13.980  10.930   0.891
53370W        W18531  30.616  41.835  14.814
53371W        W18532   6.323  23.231   1.050
53372W        W18533  35.542  35.127  13.423
53373W        W18534   2.198  31.911  11.586
53374W        W18535  28.932  42.284  14.905
53375W        W18536   2.317  25.057   3.135
53376W        W18537  33.315  25.168   2.379
53377W        W18538  30.201  13.117   0.740
53378W        W18539  32.740  14.354  12.351
53379W        W18540   1.818  36.930   1.353
53380W        W18541  34.124  29.582  14.948
53381W        W18542  10.413  41.045  14.787
53382W        W18543  37.219  27.993   3.730
53383W        W18544  28.374  43.514  11.888
53384W        W18545  15.347  33.848   1.662
53385W        W18546  11.622  32.498   2.829
53386W        W18547   2.886   3.516  13.441
53387W        W18548  19.522  44.723   4.540
53388W        W18549  31.896  23.584  14.945
53389W        W18550  24.571   5.646   0.911
53390W        W18551   2.481  21.016  12.354
53391W        W18552  35.154  19.044   0.659
53392W        W18553   8.775  29.912   4.181
53393W        W18554  28.022  12.537  10.340
53394W        W18555  41.931  28.681   0.481
53395W        W18556  33.849  17.134  10.659
53396W        W18557  32.997   4.142   3.419
53397W        W18558  43.318  33.062   2.312
53398W        W18559  40.855  19.300  12.410
53399W        W18560  20.033   5.762  13.890
53400W        W18561  18.454  37.129   0.714
53401W        W18562  42.916  19.441  11.237
53402W        W18563   4.408   3.540   4.559
53403W        W18564  40.911  15.241   0.170
53404W        W18565  29.193  31.905  14.068
53405W        W18566   7.852  41.954   1.790
53406W        W18567   4.944  20.388   3.173
53407W        W18568   9.150  44.357  12.062
53408W        W18569   9.613  10.786   4.527
53409W        W18570  35.518  32.822   0.407
53410W        W18571  10.958  41.592  14.522
53411W        W18572  20.364  14.070  12.062
53412W        W18573   8.725  23.327  12.900
53413W        W18574   6.947  19.253  11.534
53414W        W18575  27.078  17.243  10.744
53415W        W18576  17.579  28.690   0.521
53416W        W18577  21.648  39.510  11.157
53417W        W18578  38.112  25.632  13.737
53418W        W18579  33.485  35.287   3.326
53419W        W18580   6.918  42.394   4.858
53420W        W18581   4.746  20.269  13.421
53421W        W18582  18.023  25.461  12.934
53422W        W18583  35.039  43.038  13.799
53423W        W18584  32.519  24.111  13.929
53424W        W18585  39.496   1.538   3.680
53425W        W18586  42.945   1.149   4.264
53426W        W18587  39.809  20.042   0.379
53427W        W18588  28.118  16.788   4.674
53428W        W18589  35.143  34.818   3.580
53429W        W18590  24.019  20.117   4.069
53430W        W18591  29.124  37.365  12.425
53431W        W18592  28.085  44.726   4.198
53432W        W18593  17.538   1.409   2.297
53433W        W18594  41.921  32.114  11.244
53434W        W18595  21.045   1.531   3.919
53435W        W18596  37.379  31.342  14.803
53436W        W18597  34.187  33.416  12.899
53437W        W18598  37.048   5.945  11.406
53438W        W18599  16.503  40.120  13.396
53439W        W18600   3.704  13.580  13.884
53440W        W18601  21.264  35.980  10.788
53441W        W18602  18.916  11.462  14.483
53442W        W18603  10.984  35.516   2.669
53443W        W18604   1.319  43.790  10.896
53444W        W18605  27.462  18.488   4.371
53445W        W18606  26.162  33.315   0.367
53446W        W18607  40.726  42.212  12.502
53447W        W18608  24.141  32.501  14.707
53448W        W18609  30.143  42.973   4.514
53449W        W18610  24.775  16.181  10.654
53450W        W18611  18.836   6.168  10.292
53451W        W18612  14.454  19.597  11.300
53452W        W18613  33.526   7.413   2.335
53453W        W18614  12.121  22.482   0.300
53454W        W18615  27.583  41.591  13.337
53455W        W18616  44.236  38.494   4.108
53456W        W18617  33.020   5.391   2.824
53457W        W18618  28.937   4.187   3.400
53458W        W18619  22.673  15.280  14.086
53459W        W18620  19.160  23.231   4.264
53460W        W18621   8.364  34.102  13.929
53461W        W18622  10.099  33.550   1.829
53462W        W18623   1.480  32.148   1.238
53463W        W18624   2.126   9.046  10.768
53464W        W18625  24.626  42.814   5.053
53465W        W18626  30.890  42.521  13.287
53466W        W18627  22.221  17.957  10.604
53467W        W18628  10.902  37.476  11.565
53468W        W18629  13.814  34.874  14.304
53469W        W18630  23.880  16.135   0.319
53470W        W18631  11.273   4.759   3.149
53471W        W18632  35.578  43.347  14.515
53472W        W18633  40.360  44.684  10.449
53473W        W18634  10.186  27.161   4.598
53474W        W18635  29.368  10.364  13.638
53475W        W18636  31.858  10.717  12.444
53476W        W18637  31.178  17.533   1.669
53477W        W18638  14.065  15.784   3.645
53478W        W18639   6.639   5.230   2.680
53479W        W18640  39.460  26.477  12.499
53480W        W18641  27.889  32.392   0.285
53481W        W18642  36.597  42.940  10.259
53482W        W18643  38.816  22.922  13.812
53483W        W18644   9.611  14.638  14.427
53484W        W18645  22.879   9.651  10.611
53485W        W18646  44.368  37.411  11.857
53486W        W18647   0.015  34.047   1.341
53487W        W18648  28.090   8.188   2.627
53488W        W18649  12.162  18.719   3.959
53489W        W18650  29.879   0.182   2.803
53490W        W18651  43.414  20.756  10.761
53491W        W18652   0.883   2.521  14.753
53492W        W18653   3.948  29.216  13.318
53493W        W18654  23.683  17.583  10.676
53494W        W18655  29.147  25.341  14.416
53495W        W18656   4.329  34.812  10.760
53496W        W18657  20.119  31.441   0.369
53497W        W18658  24.668  10.164   0.344
53498W        W18659  35.147  28.698   2.636
53499W        W18660  36.824  36.524   4.770
53500W        W18661  44.787   7.617   0.573
53501W        W18662  25.711   4.711  11.378
53502W        W18663   3.739  39.110  10.547
53503W        W18664  21.785   9.748   4.588
53504W        W18665  24.719   7.985   0.293
53505W        W18666   8.844  38.489  12.857
53506W        W18667  14.125   0.686  14.465
53507W        W18668   4.978  29.612  10.694
53508W        W18669  18.830  11.534  11.972
53509W        W18670  43.600  34.766   1.636
53510W        W18671  42.318  44.780   1.263
53511W        W18672  31.031  39.763   1.325
53512W        W18673  15.395  33.024  11.671
53513W        W18674  42.997  44.378   4.323
53514W        W18675   1.448   2.416  14.092
53515W        W18676  32.365  44.504   0.983
53516W        W18677  20.600   4.887   2.958
53517W        W18678   3.751  23.914   4.164
53518W        W18679  43.319  41.993  14.465
53519W        W18680  12.490  25.723   1.287
53520W        W18681  11.204  14.708   2.507
53521W        W18682  12.729  32.856   0.374
53522W        W18683  40.421  41.864   2.191
53523W        W18684  24.969  21.948  13.008
53524W        W18685  15.487  23.669  12.483
53525W        W18686  25.200  16.916  14.207
53526W        W18687  15.287   3.709   2.454
53527W        W18688   8.295   6.931   3.329
53528W        W18689   1.209  39.816  14.776
53529W        W18690   8.914  28.562  14.746
53530W        W18691   6.541  16.730   1.881
53531W        W18692  26.562   1.224   4.592
53532W        W18693   9.101  40.716  11.872
53533W        W18694   2.827  14.506   2.627
53534W        W18695  27.702  36.625  13.770
53535W        W18696  42.583  25.277  11.185
53536W        W18697  19.623  30.586   2.905
53537W        W18698  14.111  25.251   2.733
53538W        W18699  21.516  11.810   0.910
53539W        W18700  19.655  39.306   3.184
53540W        W18701   5.786  21.719   1.574
53541W        W18702  28.311   5.262  13.852
53542W        W18703  44.079  41.464   2.785
53543W        W18704  37.553  42.004  11.510
53544W        W18705  22.674  31.464   2.294
53545W        W18706   2.014  23.151  11.643
53546W        W18707   5.522  18.870   4.623
53547W        W18708   7.690  15.724  13.899
53548W        W18709  36.102  10.790   3.128
53549W        W18710   5.020  13.116  11.698
53550W        W18711  39.089  20.237   2.216
53551W        W18712  28.695  37.611  12.565
53552W        W18713  13.796  32.963  14.410
53553W        W18714  40.726  32.366  12.806
53554W        W18715  30.126   9.668   3.118
53555W        W18716  28.427  15.736  13.292
53556W        W18717  27.178  40.492  11.616
53557W        W18718   9.598  37.152  11.092
53558W        W18719  39.058  24.226   4.667
53559W        W18720   8.752  23.946  14.847
53560W        W18721  39.493   9.381   3.342
53561W        W18722  15.631  43.468  11.169
53562W        W18723   9.333  12.909   4.686
53563W        W18724  44.306  22.798  10.751
53564W        W18725   4.830  32.680  12.955
53565W        W18726  11.192  12.445  12.093
53566W        W18727  24.620  19.330  12.183
53567W        W18728  35.630  22.557   1.803
53568W        W18729  37.952  38.484   4.114
53569W        W18730  33.934  37.027  11.644
53570W        W18731   2.438  34.185  11.065
53571W        W18732  22.533  17.412  11.976
53572W        W18733  10.337  35.061   3.862
53573W        W18734  17.826  38.650   1.360
53574W        W18735  14.897   8.064  13.522
53575W        W18736  18.611  40.555   5.714
53576W        W18737  23.064  27.228   0.216
53577W        W18738   9.900  14.434  14.804
53578W        W18739  29.067   0.334   0.948
53579W        W18740  22.593  25.866  11.456
53580W        W18741  44.676  22.746  14.129
53581W        W18742  30.884  41.653   2.252
53582W        W18743  33.068  31.971   5.136
53583W        W18744  21.680   1.749   2.617
53584W        W18745  11.821  37.283   4.532
53585W        W18746   6.866  43.796  14.330
53586W        W18747  28.399  32.844  13.537
53587W        W18748  26.418  41.589   4.558
53588W        W18749  18.318  27.057   0.964
53589W        W18750  26.789   9.718   3.303
53590W        W18751  40.401  41.176  11.607
53591W        W18752  23.325  38.167  11.152
53592W        W18753  24.936   0.413  12.291
53593W        W18754  27.446  22.587   4.151
53594W        W18755  17.672  25.523   0.093
53595W        W18756  20.524   3.842   3.150
53596W        W18757  34.531  29.201  12.260
53597W        W18758   5.475  28.687   5.245
53598W        W18759  35.331  11.108   1.722
53599W        W18760  17.735  12.873   0.860
53600W        W18761  43.366  36.807  12.155
53601W        W18762  37.092   1.775   3.723
53602W        W18763  27.112  11.061  13.313
53603W        W18764  38.201   5.199   4.097
53604W        W18765  23.714   6.669   2.576
53605W        W18766  16.041   4.670   2.321
53606W        W18767  34.883   7.676   4.734
53607W        W18768  18.177  31.115   4.729
53608W        W18769  20.286  32.612   3.634
53609W        W18770  33.429  27.435  11.084
53610W        W18771   1.676  13.283  11.128
53611W        W18772  44.825  12.842   0.607
53612W        W18773  29.653  39.004   1.866
53613W        W18774  16.666  35.520  11.276
53614W        W18775  32.479  43.028  14.616
53615W        W18776  20.174  23.627  13.937
53616W        W18777   2.407  40.516  13.843
53617W        W18778  38.290  18.239  11.980
53618W        W18779  30.021  20.535   2.819
53619W        W18780  37.752   2.781   1.866
53620W        W18781  19.846  27.176   2.409
53621W        W18782  14.612  25.651  14.878
53622W        W18783  33.582  27.695  12.138
53623W        W18784  28.459  24.944  12.815
53624W        W18785  19.910   9.219  14.745
53625W        W18786  35.098  21.578  11.861
53626W        W18787  16.307  29.629  13.018
53627W        W18788  26.097  15.850   0.703
53628W        W18789  19.796   5.165   0.504
53629W        W18790  20.729  10.058   2.345
53630W        W18791  15.630  38.220   3.302
53631W        W18792  34.775  20.681   0.373
53632W        W18793  21.542  44.896   3.279
53633W        W18794  18.364  31.030  13.813
53634W        W18795  36.989  25.990   2.779
53635W        W18796  30.729   0.877  12.381
53636W        W18797  13.838   0.046   2.800
53637W        W18798  11.896  13.730   2.213
53638W        W18799  17.580   4.312   1.440
53639W        W18800  40.665  30.307   3.521
53640W        W18801   5.992  14.901   1.969
53641W        W18802  11.692  21.220  11.170
53642W        W18803  28.852  19.504   3.778
53643W        W18804  36.141  41.048   3.097
53644W        W18805  42.845  34.953  13.067
53645W        W18806  17.202  15.795   1.678
53646W        W18807  34.393  14.776  12.480
53647W        W18808  34.632  13.087  11.545
53648W        W18809  43.222  27.235   1.684
53649W        W18810  12.036  33.448   1.836
53650W        W18811  44.887  10.029   3.123
53651W        W18812  30.402  31.509   0.571
53652W        W18813   6.016  22.844  13.647
53653W        W18814   0.310  11.006   4.415
53654W        W18815  34.356  22.695  11.743
53655W        W18816  14.892  23.796  13.653
53656W        W18817   6.056  39.408  11.739
53657W        W18818  39.779  25.666   2.671
53658W        W18819   2.421  26.254   3.129
53659W        W18820  38.742  34.083   4.206
53660W        W18821  40.961   2.270  11.092
53661W        W18822  27.033   5.163   1.002
53662W        W18823  32.013  28.871  14.067
53663W        W18824  34.554  23.526   0.275
53664W        W18825  43.775   5.244   3.171
53665W        W18826  15.177  28.931  13.023
53666W        W18827  30.385  34.871   2.248
53667W        W18828   4.506  23.651  14.490
53668W        W18829  32.788  39.508  13.384
53669W        W18830  39.858  15.176  11.297
53670W        W18831   6.297   7.290  14.323
53671W        W18832   9.273  23.964   4.883
53672W        W18833  14.718  24.159   2.752
53673W        W18834  22.923  33.742  11.384
53674W        W18835   3.154  17.203   1.812
53675W        W18836  38.905  20.729  12.411
53676W        W18837   5.174  24.295   2.790
53677W        W18838  29.028  43.382   0.352
53678W        W18839  15.689   3.713  14.774
53679W        W18840  34.626   1.802  14.873
53680W        W18841  18.324  34.553   1.917
53681W        W18842  11.656   4.277   0.829
53682W        W18843  42.213  30.233   1.755
53683W        W18844  26.573  30.238  11.627
53684W        W18845  23.989  37.965   0.966
53685W        W18846  17.007   7.563   1.857
53686W        W18847   1.220  24.231  14.951
53687W        W18848  28.949  19.944  13.124
53688W        W18849  36.997   7.195  12.385
53689W        W18850   4.940  12.699   2.228
53690W        W18851  18.111  32.323   2.273
53691W        W18852  24.549   3.363   1.310
53692W        W18853   3.858  31.843  13.037
53693W        W18854  20.507  23.140   1.892
53694W        W18855  38.391  43.865   3.832
53695W        W18856  19.999  36.943  14.911
53696W        W18857   8.372   8.315   0.341
53697W        W18858   7.792  26.037  11.712
53698W        W18859  38.923  23.879   3.109
53699W        W18860  30.817  36.893  13.368
53700W        W18861  42.356  28.272  13.529
53701W        W18862  44.294   4.221   2.426
53702W        W18863  32.299   0.709  13.424
53703W        W18864   7.810  21.529  12.875
53704W        W18865  15.316  35.833   3.818
53705W        W18866  13.186  21.749  12.053
53706W        W18867  15.584  18.197  13.867
53707W        W18868  36.477  30.303  14.838
53708W        W18869  39.333  23.574   3.591
53709W        W18870   4.184  28.563   4.172
53710W        W18871  29.729  31.595  11.309
53711W        W18872  18.065  18.663   1.845
53712W        W18873  43.922   5.154   2.632
53713W        W18874  27.212  35.603  14.266
53714W        W18875  37.406  14.144   4.018
53715W        W18876  32.412  34.031   1.169
53716W        W18877  12.167   4.459  10.345
53717W        W18878   1.088  16.263   5.019
53718W        W18879  39.456  42.753   0.947
53719W        W18880  22.466  10.653  13.554
53720W        W18881   5.980  19.921  11.989
53721W        W18882  13.780  13.652  11.469
53722W        W18883   2.369  43.740   1.902
53723W        W18884  36.048  25.207  11.556
53724W        W18885  35.009   6.305   4.968
53725W        W18886   8.799   5.242  14.918
53726W        W18887   2.485   5.062   4.510
53727W        W18888  40.481  27.478  11.600
53728W        W18889  15.565   7.793   2.794
53729W        W18890  16.250  33.495   2.088
53730W        W18891  43.548  35.385   9.975
53731W        W18892  14.993  12.568   5.072
53732W        W18893  19.769  28.503  11.178
53733W        W18894  14.222  26.646  12.533
53734W        W18895   2.278  33.642  12.447
53735W        W18896   3.224  34.208  13.031
53736W        W18897  42.499  15.124  11.682
53737W        W18898  37.447   8.701  11.699
53738W        W18899  35.554   3.604  10.314
53739W        W18900  43.939  37.503  14.149
53740W        W18901  37.058   1.376   1.208
53741W        W18902  31.479  44.882   4.264
53742W        W18903  14.747  35.652  13.997
53743W        W18904  21.704  10.770  13.028
53744W        W18905   4.016  12.184  10.665
53745W        W18906  31.579  35.598   4.209
53746W        W18907   6.185  20.684   4.915
53747W        W18908  10.382  22.992   4.488
53748W        W18909   0.676   4.365   2.373
53749W        W18910   7.978   0.012  12.386
53750W        W18911  16.518  16.984   0.446
53751W        W18912  26.691   5.583  11.948
53752W        W18913  21.918  32.937  14.397
53753W        W18914  16.059   0.391  13.445
53754W        W18915  18.846   4.812  14.471
53755W        W18916  30.224  12.525   4.676
53756W        W18917  13.821  35.851   4.650
53757W        W18918  21.448   1.046   3.821
53758W        W18919  35.368  41.889  13.738
53759W        W18920   2.207  12.008   3.188
53760W        W18921  44.457   9.793   2.785
53761W        W18922  20.648  44.048  11.598
53762W        W18923  13.058  35.870   9.769
53763W        W18924  26.202   5.287  11.878
53764W        W18925  16.061  25.338   2.876
53765W        W18926  25.130  17.090   3.653
53766W        W18927  30.930  37.590   0.388
53767W        W18928   2.902  12.548   0.808
53768W        W18929  39.984   4.155   2.154
53769W        W18930  27.007  28.510  14.399
53770W        W18931  11.053  14.740   0.623
53771W        W18932  12.522  39.992   3.968
53772W        W18933   3.759  31.166   0.279
53773W        W18934  22.585  28.933   0.447
53774W        W18935  32.931  23.701   1.980
53775W        W18936  19.463   4.313   0.459
53776W        W18937  15.320  25.427  11.647
53777W        W18938  14.071  11.304   2.407
53778W        W18939  42.381  18.956   1.300
53779W        W18940  19.263  42.315   3.427
53780W        W18941  22.149   7.310   4.921
53781W        W18942  44.219  14.265   2.381
53782W        W18943  19.645  43.335   3.981
53783W        W18944  34.141  24.373  12.090
53784W        W18945  22.793   5.046   0.567
53785W        W18946  30.439  25.068  13.060
53786W        W18947  11.258  22.198   4.379
53787W        W18948  43.898   5.104  10.656
53788W        W18949   8.753  42.558   4.039
53789W        W18950   7.436  11.793   4.929
53790W        W18951  33.371  30.052  14.838
53791W        W18952  18.459  17.769  14.742
53792W        W18953  26.591   3.880  12.488
53793W        W18954   0.658  26.320   2.359
53794W        W18955  33.696  13.383   2.304
53795W        W18956  36.593  11.104   0.428
53796W        W18957  37.997  12.342  12.887
53797W        W18958  43.005  27.460   5.216
53798W        W18959  26.307  10.389  13.550
53799W        W18960  15.891  30.867  10.714
53800W        W18961  28.557  33.208   2.465
53801W        W18962   5.904  39.595   3.689
53802W        W18963  37.288  27.210   4.129
53803W        W18964  36.689  41.791   3.549
53804W        W18965   6.429  18.730   0.233
53805W        W18966  11.861  26.746   2.371
53806W        W18967  34.950  31.095  13.218
53807W        W18968   1.954  32.832  12.577
53808W        W18969  15.280   6.086   4.964
53809W        W18970  15.660  25.102   4.428
53810W        W18971  16.182  42.018  13.549
53811W        W18972   0.872  22.366   2.610
53812W        W18973  29.432  30.517   2.338
53813W        W18974  11.724   6.632   3.271
53814W        W18975  28.641  25.999   4.564
53815W        W18976  13.830  24.231   3.678
53816W        W18977   4.934   1.045  13.009
53817W        W18978  43.787  40.015  14.298
53818W        W18979   8.786  31.601   2.735
53819W        W18980  44.540   2.301  12.950
53820W        W18981   0.930  32.185  12.647
53821W        W18982   4.464   3.863   0.188
53822W        W18983   2.177  17.402   1.424
53823W        W18984  43.154   0.834  13.600
53824W        W18985  16.715  33.609   1.398
53825W        W18986  38.230  12.142   3.596
53826W        W18987  19.659  40.879  10.562
53827W        W18988  31.360   0.564  10.419
53828W        W18989  28.575  32.934   0.535
53829W        W18990  39.545  31.475  14.587
53830W        W18991  19.598  43.430  12.728
53831W        W18992  15.831  20.227   3.580
53832W        W18993   0.258  23.594  11.105
53833W        W18994   3.467  28.005  14.949
53834W        W18995  24.601  12.883   2.190
53835W        W18996  43.011  38.917   3.434
53836W        W18997  21.467  40.855   3.111
53837W        W18998   5.720  16.737   4.720
53838W        W18999  11.391  39.897   1.728
53839W        W19000   7.930  35.050  14.979
53840W        W19001  25.528  24.775  11.109
53841W        W19002   1.978  21.794  12.869
53842W        W19003  32.480  13.515   1.465
53843W        W19004  22.260  31.853   0.808
53844W        W19005  42.450  18.147   4.429
53845W        W19006  41.468   7.694   0.860
53846W        W19007  18.326  35.021  11.004
53847W        W19008  38.996   4.338   1.053
53848W        W19009  36.898  33.153   0.417
53849W        W19010  43.228   3.682  13.360
53850W        W19011  10.858   1.127   2.436
53851W        W19012  37.929   7.705   4.459
53852W        W19013  41.904  35.432  11.968
53853W        W19014  25.948  10.287  12.784
53854W        W19015  26.112  21.284   3.612
53855W        W19016  19.589  25.433   1.490
53856W        W19017  44.559  42.720   0.913
53857W        W19018  11.623  24.605  11.081
53858W        W19019  19.606  22.788  10.101
53859W        W19020   8.322  25.934   1.737
53860W        W19021  41.786  27.936  12.335
53861W        W19022  42.404  42.919   3.364
53862W        W19023  35.023  18.713   2.416
53863W        W19024  11.398  39.933   3.247
53864W        W19025  38.537  28.871   1.339
53865W        W19026   8.885  36.627   2.233
53866W        W19027   8.214  18.529  14.393
53867W        W19028  40.984  44.290   2.851
53868W        W19029   2.183  22.474   0.867
53869W        W19030  43.791  26.070   1.955
53870W        W19031   1.407  35.059  14.727
53871W        W19032  19.990  15.210   2.656
53872W        W19033  26.714  21.592   0.952
53873W        W19034  12.561  22.698   0.456
53874W        W19035  27.673  40.419  11.535
53875W        W19036  32.813   7.682  14.796
53876W        W19037   6.834  25.390  10.333
53877W        W19038  36.796  26.817  13.620
53878W        W19039   7.501   6.344   4.011
53879W        W19040  18.864   4.486   1.904
53880W        W19041  31.160  32.520  13.471
53881W        W19042  39.385   9.200   0.792
53882W        W19043  41.005  14.669   1.973
53883W        W19044  21.476   5.392   3.276
53884W        W19045  35.821  32.651   4.537
53885W        W19046  28.427   5.896  10.907
53886W        W19047  25.334  37.675  14.861
53887W        W19048  35.002  42.433   4.623
53888W        W19049  25.134  12.810   0.207
53889W        W19050  32.967  36.817  10.503
53890W        W19051   6.670  30.079   0.879
53891W        W19052  34.822  12.119  14.235
53892W        W19053  10.761   9.978   1.411
53893W        W19054  17.638  20.270   2.906
53894W        W19055   3.688  23.072   1.345
53895W        W19056  20.117  39.573  12.016
53896W        W19057   5.945  29.708   2.585
53897W        W19058  25.227   4.659  13.102
53898W        W19059  37.981  12.821  11.613
53899W        W19060  22.089   6.972   1.225
53900W        W19061  27.659  10.656  11.516
53901W        W19062  21.772  26.052   3.946
53902W        W19063  36.946  34.849  11.145
53903W        W19064  43.252  33.066  14.985
53904W        W19065  32.694  44.867  11.952
53905W        W19066  16.284  13.468   4.121
53906W        W19067  38.704  38.580  12.920
53907W        W19068  24.782  17.435   3.166
53908W        W19069  43.836  13.857  14.759
53909W        W19070  34.947  36.475   1.178
53910W        W19071  10.638  20.570   2.904
53911W        W19072  43.205   6.166  13.243
53912W        W19073  37.971  21.261  14.744
53913W        W19074  30.831  20.697   1.242
53914W        W19075  26.958  25.756   0.852
53915W        W19076  18.097  24.904  10.917
53916W        W19077  31.964  43.934  13.054
53917W        W19078  32.946  36.428  12.093
53918W        W19079   9.112  42.154  13.446
53919W        W19080  35.520   8.271  14.033
53920W        W19081  27.586   4.714   2.635
53921W        W19082   9.374  29.964  10.707
53922W        W19083  36.537  39.814   3.112
53923W        W19084  10.243  21.097  13.459
53924W        W19085  42.887  27.555  10.782
53925W        W19086   1.646  15.584  10.584
53926W        W19087  15.769  15.799   3.729
53927W        W19088  18.765  30.471  12.325
53928W        W19089  36.977   9.305   0.924
53929W        W19090   6.752  20.989  12.199
53930W        W19091  33.936  25.603  12.469
53931W        W19092  42.843  28.608  11.516
53932W        W19093   8.873  29.468   0.944
53933W        W19094  23.530   9.250   2.737
53934W        W19095  33.505   0.689   0.389
53935W        W19096  29.555   6.477  12.634
53936W        W19097  18.574  22.488   0.916
53937W        W19098  36.855  36.420   1.450
53938W        W19099   3.698  37.995  12.324
53939W        W19100  21.121  29.401   0.256
53940W        W19101   5.564   7.535  11.910
53941W        W19102  41.194  28.438   2.604
53942W        W19103  19.514  20.036   4.218
53943W        W19104  23.181   3.515   4.335
53944W        W19105  22.237  39.075   2.761
53945W        W19106  34.788  22.287  13.426
53946W        W19107  36.351  33.019   4.090
53947W        W19108  12.885  37.581   2.800
53948W        W19109  35.906  23.514   4.070
53949W        W19110   8.934  23.568   1.927
53950W        W19111  40.536  35.327  14.604
53951W        W19112  42.955  17.363   3.756
53952W        W19113  35.667  40.234   3.305
53953W        W19114   3.684  41.412  12.436
53954W        W19115  38.832  30.836   4.157
53955W        W19116  39.924  11.737  10.783
53956W        W19117  25.484  35.463  14.959
53957W        W19118  29.376  21.687   0.330
53958W        W19119   3.916  11.315   1.929
53959W        W19120   2.799  42.860   2.743
53960W        W19121  15.279  31.449  13.935
53961W        W19122  28.040   6.862   9.968
53962W        W19123  18.989  44.375  14.448
53963W        W19124  43.972   5.430   2.195
53964W        W19125   0.825  11.690   4.508
53965W        W19126  20.669  12.631  10.708
53966W        W19127  10.196  34.044  14.888
53967W        W19128  12.648  40.588   4.045
53968W        W19129  34.127   4.881  14.199
53969W        W19130  43.038  11.323  12.596
53970W        W19131   9.374   3.138  12.001
53971W        W19132  18.801  12.963  12.652
53972W        W19133  27.063  43.396   1.273
53973W        W19134  43.810  18.649  11.599
53974W        W19135  15.293  28.037  13.399
53975W        W19136  16.219   5.945   1.534
53976W        W19137  23.292  18.041   1.698
53977W        W19138  28.949  35.099  13.242
53978W        W19139  13.337  29.761  13.431
53979W        W19140  15.985  16.787   5.010
53980W        W19141  17.797   7.681  12.106
53981W        W19142  34.892  17.909  14.943
53982W        W19143  30.008  13.125  11.442
53983W        W19144  28.138  36.186   0.666
53984W        W19145  17.660  20.095  11.218
53985W        W19146  25.803   2.281   0.406
53986W        W19147  33.836  28.106  13.869
53987W        W19148   5.073  36.514  12.376
53988W        W19149  43.312   6.640   3.312
53989W        W19150  19.736  10.179   3.089
53990W        W19151  14.106  23.141   0.769
53991W        W19152  13.072   8.085  14.518
53992W        W19153  14.183   6.297   0.365
53993W        W19154  41.411   9.841  12.466
53994W        W19155  33.983  41.222   0.843
53995W        W19156  24.212  30.960  13.925
53996W        W19157  44.880   9.358   0.014
53997W        W19158  29.421  42.969   0.365
53998W        W19159  19.029  26.758   4.029
53999W        W19160  10.252   9.239  13.594
54000W        W19161  28.210  37.698   1.908
54001W        W19162  33.048  18.619   3.258
54002W        W19163  12.713  23.985   4.660
54003W        W19164  23.572   1.894   2.880
54004W        W19165  41.437   9.156   1.908
54005W        W19166   2.347   0.039   0.989
54006W        W19167   1.810  33.993   2.011
54007W        W19168   5.269  24.918  14.558
54008W        W19169  33.531  26.591   4.943
54009W        W19170  39.293  13.663  11.534
54010W        W19171  33.072  13.548  12.128
54011W        W19172  13.233  43.757   2.937
54012W        W19173   6.444  13.546  12.109
54013W        W19174  25.244  15.779   0.303
54014W        W19175   3.894  22.613   2.303
54015W        W19176  14.718  10.650   4.199
54016W        W19177  42.810  43.979   4.602
54017W        W19178  26.252  42.730   0.316
54018W        W19179  36.442  15.529  12.623
54019W        W19180   3.966  14.018  11.129
54020W        W19181   9.226   0.766   2.822
54021W        W19182   1.516  16.326  13.945
54022W        W19183  14.273  25.960  11.775
54023W        W19184  23.906  36.406   0.064
54024W        W19185   8.812  25.700   1.311
54025W        W19186  17.254  26.648  12.876
54026W        W19187  37.512   1.915  12.008
54027W        W19188   6.364   4.248  14.869
54028W        W19189  41.881  25.048  10.445
54029W        W19190  33.577   7.992  14.898
54030W        W19191  18.738  31.112   2.903
54031W        W19192  32.532  28.593  13.052
54032W        W19193  32.377  26.725  10.784
54033W        W19194  16.647  33.173  12.498
54034W        W19195   6.481   0.402   4.659
54035W        W19196   4.338  39.907  11.622
54036W        W19197  24.529  22.651   1.764
54037W        W19198  33.439  23.743  11.635
54038W        W19199  15.880  37.772  13.830
54039W        W19200  36.834  11.610   0.820
54040W        W19201  13.112  22.095  13.344
54041W        W19202  17.695  13.806  12.723
54042W        W19203   1.192   1.544   2.753
54043W        W19204   2.723  40.445  13.259
54044W        W19205   5.431  30.074  12.425
54045W        W19206  19.627   0.477  13.571
54046W        W19207   9.452  30.120  14.311
54047W        W19208   6.538  13.680   4.022
54048W        W19209   3.167   3.225  12.920
54049W        W19210  32.615  30.634   5.011
54050W        W19211  35.136  14.068  12.521
54051W        W19212  20.765  20.523   3.621
54052W        W19213   3.372   3.919   2.517
54053W        W19214  29.550  13.735  11.994
54054W        W19215  25.569  32.739   0.653
54055W        W19216  41.962  21.817  12.969
54056W        W19217  26.095  42.880   4.100
54057W        W19218  30.198  38.847   0.742
54058W        W19219   9.587  41.450  11.189
54059W        W19220   7.445  34.295  11.556
54060W        W19221  43.237  15.282  13.988
54061W        W19222  21.799   5.391  14.826
54062W        W19223  12.968  23.768  12.908
54063W        W19224  34.863  11.860   4.022
54064W        W19225   0.192  39.004  14.928
54065W        W19226  25.136   6.456   2.210
54066W        W19227  41.254  41.912   3.588
54067W        W19228  44.858  37.960   2.536
54068W        W19229  11.849  12.827   1.743
54069W        W19230  34.350  19.588  14.534
54070W        W19231  28.478  44.577  10.994
54071W        W19232  14.626  21.676  10.978
54072W        W19233  17.262  40.694   0.836
54073W        W19234  42.019  10.098   4.565
54074W        W19235   1.572  17.224  11.440
54075W        W19236  11.773   5.011  12.732
54076W        W19237  36.089   8.347   0.847
54077W        W19238  19.549  44.891  13.030
54078W        W19239   8.647  43.819  11.622
54079W        W19240  21.289  44.063   5.026
54080W        W19241  23.250   0.471  14.476
54081W        W19242  14.660   4.993  11.921
54082W        W19243   5.140  15.718   4.500
54083W        W19244   2.842  22.232   3.346
54084W        W19245  39.605  23.160  14.574
54085W        W19246  24.613  32.909   1.889
54086W        W19247  23.816   8.634   1.383
54087W        W19248  38.333  17.800   0.908
54088W        W19249  22.236   8.695   0.076
54089W        W19250   5.859   0.322  11.538
54090W        W19251  21.511   2.544   3.682
54091W        W19252  13.519  22.978  14.468
54092W        W19253  15.042  31.819   4.552
54093W        W19254  35.968   7.016   4.620
54094W        W19255   5.866   6.732   3.711
54095W        W19256   0.251  14.044   5.162
54096W        W19257   0.678  21.068   0.831
54097W        W19258  18.821   4.232   2.913
54098W        W19259  22.499   5.124  14.067
54099W        W19260  11.015  43.055  11.156
54100W        W19261  30.132   0.892  11.965
54101W        W19262  30.911   6.177   3.061
54102W        W19263  29.674  27.513   1.230
54103W        W19264   2.901   4.418  11.994
54104W        W19265  24.614   7.115   4.114
54105W        W19266  37.055   8.537   4.044
54106W        W19267   5.303  37.479  13.386
54107W        W19268  42.026  19.792  10.491
54108W        W19269   9.039  14.229   4.901
54109W        W19270  14.400  16.741   4.147
54110W        W19271   0.809   7.729  11.766
54111W        W19272  43.311   9.701  13.043
54112W        W19273  37.842   6.424  10.730
54113W        W19274  43.764  12.772  14.946
54114W        W19275  28.213  17.600  10.181
54115W        W19276  39.044  25.082   4.590
54116W        W19277   1.965  40.431   3.208
54117W        W19278  16.160   9.783   4.653
54118W        W19279  36.454   9.653   2.193
54119W        W19280   8.674  12.847  10.788
54120W        W19281  13.874  29.996  12.912
54121W        W19282  18.810  40.933   2.175
54122W        W19283  40.020  40.044   3.732
54123W        W19284  12.635  29.623  13.944
54124W        W19285  15.047   6.851   3.277
54125W        W19286  35.453   9.484  14.394
54126W        W19287  28.567   7.334  11.078
54127W        W19288   7.956   4.830  13.433
54128W        W19289  10.491  34.418   1.524
54129W        W19290   7.095  26.136  13.893
54130W        W19291  23.445   0.783  14.019
54131W        W19292   3.156  33.648   1.999
54132W        W19293  21.219   0.791  14.849
54133W        W19294  19.425  36.551  11.749
54134W        W19295   9.156  10.730   3.586
54135W        W19296  25.070  44.459  13.827
54136W        W19297  11.387  22.734  14.222
54137W        W19298  39.858  35.434  11.121
54138W        W19299  41.935  17.069   1.482
54139W        W19300  14.762   3.296  14.468
54140W        W19301  40.390   0.392   3.919
54141W        W19302   0.671  31.337   0.562
54142W        W19303  13.402   2.905   3.600
54143W        W19304   1.208  30.387  10.160
54144W        W19305  35.575   2.798   2.805
54145W        W19306  24.586  27.249   4.116
54146W        W19307  12.168  38.136  14.474
54147W        W19308  33.882  35.841  14.440
54148W        W19309  25.261  11.587  14.502
54149W        W19310  33.419  44.502   4.011
54150W        W19311  34.651  20.731  14.707
54151W        W19312  26.948  22.698  10.681
54152W        W19313  40.008   7.875  14.845
54153W        W19314  19.975  10.612  13.324
54154W        W19315  38.391  10.475   0.319
54155W        W19316  13.321  38.297   2.731
54156W        W19317  11.680  22.451   0.014
54157W        W19318  42.081  34.186  10.141
54158W        W19319  14.531  16.986   0.289
54159W        W19320  30.408  44.986   4.509
54160W        W19321  15.917  21.741  14.496
54161W        W19322  33.655   7.807   0.476
54162W        W19323  13.081  16.695  11.667
54163W        W19324  29.987  30.037  10.918
54164W        W19325   8.192   1.232   1.398
54165W        W19326  36.119  44.010   0.988
54166W        W19327  13.702  28.583   1.773
54167W        W19328  22.079  30.858  11.012
54168W        W19329  24.034  29.405  10.656
54169W        W19330   3.266  37.275   3.106
54170W        W19331  33.901  36.563  10.576
54171W        W19332  38.970  35.070   3.692
54172W        W19333   4.459  24.554  11.101
54173W        W19334  33.549  15.633   0.014
54174W        W19335   5.580   6.059   1.653
54175W        W19336  35.514  17.764   3.065
54176W        W19337  16.895  35.782   2.305
54177W        W19338  43.892   3.106   2.271
54178W        W19339  36.156   1.722   1.320
54179W        W19340  17.202  13.261  14.761
54180W        W19341  14.292  22.632   1.573
54181W        W19342   4.629  37.879  13.334
54182W        W19343  36.957  26.544   3.686
54183W        W19344   0.191  11.281  13.330
54184W        W19345  22.858  12.726   9.934
54185W        W19346  30.543  30.007  14.599
54186W        W19347  23.122   5.855  14.039
54187W        W19348  10.850  24.537  10.367
54188W        W19349  44.160   1.656  12.174
54189W        W19350  38.434   0.723  14.792
54190W        W19351  17.974  17.372   3.216
54191W        W19352  44.293  25.334   3.355
54192W        W19353  39.134  18.480  10.959
54193W        W19354  37.976   2.342   4.710
54194W        W19355   8.609  44.276   3.065
54195W        W19356  15.728   2.228   0.070
54196W        W19357  26.551  15.547  11.531
54197W        W19358  38.374  29.790  14.867
54198W        W19359  21.157  16.260   3.106
54199W        W19360  39.078  13.638  12.471
54200W        W19361  33.960   4.735   1.182
54201W        W19362  24.154  24.508  11.955
54202W        W19363   9.614   2.375  13.041
54203W        W19364  10.228   6.231   1.429
54204W        W19365   2.936  38.162   2.394
54205W        W19366  23.247  38.275  12.031
54206W        W19367  12.389  41.742   2.323
54207W        W19368  43.057   8.562  14.888
54208W        W19369  39.064   2.309  12.212
54209W        W19370  28.570   6.673  12.810
54210W        W19371  30.181  15.754  12.951
54211W        W19372   0.489  44.550  12.939
54212W        W19373  13.282   1.171  13.498
54213W        W19374  11.291   2.395   2.568
54214W        W19375  24.356  13.249   3.320
54215W        W19376  16.342  41.307  12.865
54216W        W19377   3.543  32.105  13.950
54217W        W19378   4.284  18.089  13.441
54218W        W19379   1.590   3.771   4.992
54219W        W19380  35.391   3.909  12.745
54220W        W19381  21.617  21.749  13.093
54221W        W19382  34.488  25.239   9.958
54222W        W19383   8.897  21.724   2.784
54223W        W19384  28.978  16.677   2.192
54224W        W19385   1.013  20.747   2.102
54225W        W19386  20.730   3.353   3.237
54226W        W19387   3.978  29.437  11.967
54227W        W19388  41.115   9.168   3.329
54228W        W19389  19.221  35.929   0.693
54229W        W19390  12.153  36.570  10.487
54230W        W19391   5.629  32.005   1.870
54231W        W19392  34.620  35.257   1.257
54232W        W19393  32.941  11.313  12.087
54233W        W19394  40.309   7.849   2.128
54234W        W19395  19.713  15.107  10.782
54235W        W19396  13.788  27.010   1.389
54236W        W19397   6.289  36.370  12.593
54237W        W19398  44.547  18.824  11.532
54238W        W19399   7.783  20.111  13.862
54239W        W19400  31.643  20.916  12.936
54240W        W19401   2.800  35.402   1.850
54241W        W19402   4.386  26.464   0.397
54242W        W19403  13.135  22.705  13.769
54243W        W19404  10.351  29.476   2.355
54244W        W19405   7.904  25.754  14.983
54245W        W19406   1.628  35.837   2.670
54246W        W19407  41.745  11.592   0.809
54247W        W19408  25.789  33.114  11.977
54248W        W19409  21.025  28.532  14.930
54249W        W19410  31.922  28.930   2.762
54250W        W19411  17.577   1.446  13.792
54251W        W19412  40.499  13.648  11.278
54252W        W19413  35.771   7.107   3.400
54253W        W19414  44.345  26.427   1.693
54254W        W19415  40.187  21.585  14.877
54255W        W19416   4.677   6.679   4.476
54256W        W19417  28.883   8.756   1.822
54257W        W19418   0.486  39.393  14.743
54258W        W19419  31.105  12.870   1.731
54259W        W19420  27.559  41.744  12.730
54260W        W19421  26.226  38.053   0.831
54261W        W19422  27.033   4.518  13.800
54262W        W19423   7.860  22.327  14.513
54263W        W19424  14.306   0.275   2.781
54264W        W19425  25.105  33.915   4.735
54265W        W19426  40.027  15.317  14.341
54266W        W19427  22.713   7.345  10.237
54267W        W19428   4.635  42.514  13.065
54268W        W19429  12.758  23.945  13.356
54269W        W19430   7.634  18.246   3.695
54270W        W19431  42.391  31.301  11.246
54271W        W19432   1.745  22.739   0.851
54272W        W19433  33.980  34.899   3.153
54273W        W19434   6.788  34.598   4.101
54274W        W19435  34.136   3.283  12.540
54275W        W19436  33.888  16.096  11.007
54276W        W19437  11.424  40.575   4.201
54277W        W19438  19.681  10.489   0.297
54278W        W19439  17.048  23.998   0.678
54279W        W19440  44.538  40.941  10.534
54280W        W19441  22.431  38.478  13.061
54281W        W19442  25.813   1.444  11.526
54282W        W19443  19.888  31.980  11.700
54283W        W19444  22.057  18.494   3.311
54284W        W19445  26.515  35.338  12.496
54285W        W19446  42.448  11.854   3.879
54286W        W19447  26.607  18.582  10.712
54287W        W19448  21.664   4.452  11.872
54288W        W19449  34.890  33.824   1.350
54289W        W19450  29.709   1.970   2.363
54290W        W19451   2.748  31.864   0.041
54291W        W19452   2.335  40.215  11.993
54292W        W19453   2.750  37.791  11.238
54293W        W19454   2.082  36.624  14.669
54294W        W19455  34.333   0.196   4.028
54295W        W19456   9.938  43.353   4.685
54296W        W19457   5.137  27.155   2.791
54297W        W19458  13.963  44.739  11.940
54298W        W19459  16.713  37.782   5.511
54299W        W19460  23.015   6.141  11.675
54300W        W19461  16.027  15.196   1.742
54301W        W19462  30.030  33.729  12.558
54302W        W19463  44.805  31.969  13.999
54303W        W19464  16.845  38.999   3.998
54304W        W19465   4.088  34.594   3.339
54305W        W19466  38.812  14.991   3.631
54306W        W19467   3.346  12.970  11.552
54307W        W19468  13.721  28.365  14.602
54308W        W19469   0.279  32.690   4.650
54309W        W19470  36.527   4.437  12.470
54310W        W19471  23.602  13.230   4.026
54311W        W19472  17.976  44.000   5.559
54312W        W19473  31.590  14.487   1.473
54313W        W19474  41.108  27.224  12.761
54314W        W19475  40.257  15.038  11.018
54315W        W19476  13.112  15.137   4.149
54316W        W19477  19.130  31.501  11.721
54317W        W19478  28.969   7.613   0.310
54318W        W19479  19.284  39.902  14.822
54319W        W19480  25.168  37.183  12.767
54320W        W19481  21.067  39.429   2.323
54321W        W19482  16.651  24.648   0.795
54322W        W19483  41.108   1.082   4.569
54323W        W19484  28.031   1.058   1.353
54324W        W19485  12.700  38.361   3.619
54325W        W19486   2.004  30.050   0.474
54326W        W19487  11.230  43.260   3.915
54327W        W19488  26.149  10.224   0.544
54328W        W19489  31.747   7.878   5.235
54329W        W19490  20.528  15.082   0.843
54330W        W19491  20.451  12.278  12.378
54331W        W19492  23.157  16.499  12.909
54332W        W19493  14.455  35.335   0.439
54333W        W19494  33.463  17.738  13.761
54334W        W19495  27.324  40.425  11.123
54335W        W19496  16.584  21.525   0.816
54336W        W19497  10.299  26.378  13.994
54337W        W19498  13.353  31.555   4.707
54338W        W19499   5.188  17.030  11.161
54339W        W19500  28.187  37.310   2.870
54340W        W19501  37.654  12.784  13.599
54341W        W19502  31.001  10.698   0.818
54342W        W19503  30.378  39.482   2.886
54343W        W19504  41.511  34.283  10.778
54344W        W19505  30.623  37.139   5.019
54345W        W19506  28.411  11.670   1.335
54346W        W19507  19.488  39.919  12.267
54347W        W19508  33.103   7.767  12.550
54348W        W19509  10.925  13.707  12.603
54349W        W19510   5.598  28.077  13.320
54350W        W19511  15.274  31.025   1.316
54351W        W19512  44.261  24.243  14.417
54352W        W19513  30.628   2.955  11.608
54353W        W19514  34.864   7.454  10.782
54354W        W19515  28.646  44.980  10.716
54355W        W19516  25.774  34.627   3.147
54356W        W19517  31.960   0.511  13.743
54357W        W19518  32.480  35.742   1.269
54358W        W19519  11.223  29.918   3.166
54359W        W19520   9.742  25.637  10.847
54360W        W19521   0.690  23.722  11.407
54361W        W19522  34.765  17.695  14.477
54362W        W19523  43.492   5.478   0.894
54363W        W19524  14.046  39.900   2.555
54364W        W19525  30.116  25.443   1.598
54365W        W19526  43.271  32.982   1.805
54366W        W19527  32.108  44.480   1.450
54367W        W19528  16.055  22.790  11.208
54368W        W19529  44.334  36.113  11.264
54369W        W19530  33.447   8.388  14.334
54370W        W19531  31.392  10.460  12.207
54371W        W19532  35.629  37.516   3.621
54372W        W19533  34.355  30.045   4.586
54373W        W19534  16.304  25.608  11.586
54374W        W19535  43.896  31.524  11.669
54375W        W19536  13.295  24.241   1.099
54376W        W19537  34.580  38.447  11.810
54377W        W19538  10.266  17.814   1.898
54378W        W19539  36.189  22.670   1.713
54379W        W19540  11.848  31.420   3.680
54380W        W19541  26.651  38.103   0.521
54381W        W19542   4.762  22.719  14.568
54382W        W19543  25.472  28.509   0.307
54383W        W19544  14.657  19.674   1.362
54384W        W19545  43.697  31.909  14.112
54385W        W19546  22.428  29.704   0.850
54386W        W19547  22.555  40.540  10.915
54387W        W19548  27.505  14.515  13.447
54388W        W19549  19.647  35.923   0.348
54389W        W19550  17.273   7.596  14.790
54390W        W19551  32.133  20.153   2.787
54391W        W19552   3.044  35.328  10.671
54392W        W19553  32.438   3.179  12.789
54393W        W19554  40.226  24.316   0.822
54394W        W19555  26.730   5.489   2.368
54395W        W19556  28.202  15.398  10.924
54396W        W19557   4.129   3.278   2.534
54397W        W19558  16.393  20.531   2.239
54398W        W19559  16.311  19.473  11.413
54399W        W19560  17.137   1.570  11.679
54400W        W19561  12.209  29.557   3.326
54401W        W19562  11.791   8.234  13.868
54402W        W19563   0.891  19.458   2.102
54403W        W19564   6.449  40.386   3.400
54404W        W19565  44.468  28.220   3.343
54405W        W19566  38.797   6.185  14.667
54406W        W19567  39.814  18.065  14.965
54407W        W19568   3.470   5.366  14.885
54408W        W19569  32.533   2.379  11.406
54409W        W19570  37.603  36.129  11.791
54410W        W19571  10.274  13.240  14.839
54411W        W19572  20.487  23.559   4.128
54412W        W19573  28.894  27.114   0.988
54413W        W19574   9.775  17.566   4.030
54414W        W19575  13.702   3.768   2.823
54415W        W19576  20.031  43.233   3.184
54416W        W19577  15.731  20.416  14.555
54417W        W19578  10.780   9.320  11.555
54418W        W19579  20.745  15.155   1.314
54419W        W19580  13.314  41.416  11.023
54420W        W19581  15.218  34.869   0.545
54421W        W19582  23.542  40.062   1.217
54422W        W19583  44.840  23.908  11.213
54423W        W19584  22.064  24.530  12.068
54424W        W19585   2.940  20.574   0.216
54425W        W19586  26.471   2.465   1.103
54426W        W19587  34.716  34.449  14.601
54427W        W19588   9.252  12.300   1.446
54428W        W19589  36.404  22.122   4.874
54429W        W19590   8.299  17.786   3.990
54430W        W19591  36.795  15.762  10.762
54431W        W19592  33.870  12.310  10.616
54432W        W19593   7.910   3.193  12.123
54433W        W19594  35.151   2.750   0.341
54434W        W19595  16.389  41.864   2.386
54435W        W19596  16.678  28.664   0.475
54436W        W19597  11.425  37.928  12.687
54437W        W19598  10.286  22.111   4.198
54438W        W19599   4.285   1.759   4.232
54439W        W19600  16.369  33.403  13.927
54440W        W19601  43.332  14.351  12.701
54441W        W19602   0.490  22.181  12.162
54442W        W19603  21.043  37.976  10.916
54443W        W19604  38.968  33.534  11.985
54444W        W19605  13.312  15.832  11.966
54445W        W19606  18.426  22.046   4.434
54446W        W19607  29.560  39.796  12.968
54447W        W19608  43.682  21.923   3.292
54448W        W19609   4.204  22.118  14.344
54449W        W19610   4.430  41.932  14.637
54450W        W19611  37.545  24.603  13.890
54451W        W19612  21.173  38.184  13.823
54452W        W19613  37.607  39.725   3.355
54453W        W19614  42.289  35.788  11.922
54454W        W19615  13.288  36.415  12.080
54455W        W19616  32.627   0.301  13.350
54456W        W19617   9.532   9.701  14.385
54457W        W19618  17.546  36.948  11.528
54458W        W19619  22.670  26.140  14.887
54459W        W19620  24.683   5.755  13.496
54460W        W19621  29.529  19.030   3.035
54461W        W19622  43.738  27.039   4.710
54462W        W19623  39.219   0.741   2.439
54463W        W19624  32.867  33.477  12.176
54464W        W19625  37.067  17.572  14.285
54465W        W19626  19.741  27.439  12.909
54466W        W19627   4.773  35.052   0.288
54467W        W19628  12.268   2.481   1.638
54468W        W19629  30.567  14.302   1.752
54469W        W19630  24.390  20.997   4.024
54470W        W19631  19.553  43.749  14.149
54471W        W19632  12.743  22.186  12.370
54472W        W19633   4.778   1.115  11.858
54473W        W19634  36.108  12.218   4.762
54474W        W19635   3.886  20.757  11.523
54475W        W19636  24.999  30.685  11.826
54476W        W19637  15.151   9.612   3.740
54477W        W19638  24.133   4.029  10.716
54478W        W19639   4.901   7.661   0.233
54479W        W19640  23.154  30.619   0.304
54480W        W19641  41.073   6.805  12.929
54481W        W19642  24.827  11.086  13.155
54482W        W19643  41.985   8.296  13.425
54483W        W19644  31.688  12.978   3.693
54484W        W19645  39.562  34.490   0.933
54485W        W19646  33.952  37.260   5.008
54486W        W19647   9.403   6.929   4.248
54487W        W19648  39.090  22.760   5.030
54488W        W19649  20.464  19.554   2.356
54489W        W19650   1.311  20.094  14.000
54490W        W19651  23.981  26.135  13.269
54491W        W19652  23.984  29.391   0.854
54492W        W19653  16.713  29.238  11.762
54493W        W19654  21.746  20.685   1.188
54494W        W19655  25.774  30.392   3.181
54495W        W19656   2.244  25.227  12.099
54496W        W19657  19.602  24.074  14.348
54497W        W19658  33.167  22.132   0.821
54498W        W19659   1.849  43.338   1.494
54499W        W19660  25.191  26.660  10.669
54500W        W19661  29.546  27.198   2.097
54501W        W19662  40.575  23.905  13.892
54502W        W19663   2.489   5.402   0.785
54503W        W19664  17.723  36.431  12.474
54504W        W19665  19.263   6.493   4.424
54505W        W19666  28.780  31.457  11.544
54506W        W19667  29.410   7.632  13.865
54507W        W19668  13.908  17.361   0.176
54508W        W19669   2.270   8.377   0.011
54509W        W19670  39.850   7.775  10.987
54510W        W19671  26.073   6.189   4.006
54511W        W19672   5.442  43.590   4.247
54512W        W19673  30.479  28.397  14.912
54513W        W19674  23.065  44.909  12.052
54514W        W19675  30.082  21.103  14.776
54515W        W19676  38.338  27.573  13.139
54516W        W19677  31.968  41.366   0.801
54517W        W19678  16.135  33.336   0.293
54518W        W19679  29.820  19.726   4.079
54519W        W19680  31.700  17.859   4.904
54520W        W19681  32.621  14.693   3.522
54521W        W19682  37.887  44.590  13.286
54522W        W19683  22.106  27.280  14.787
54523W        W19684  34.584  22.029  10.547
54524W        W19685  30.439  31.870  14.506
54525W        W19686  41.389  23.130   2.943
54526W        W19687  17.209   6.155   5.178
54527W        W19688  32.108   9.345  10.560
54528W        W19689   6.642  30.009  13.475
54529W        W19690  13.940  38.504   2.304
54530W        W19691  31.030   9.494  13.340
54531W        W19692  32.520  21.189  10.909
54532W        W19693   8.192  12.153  11.006
54533W        W19694   7.860  43.967   4.837
54534W        W19695  15.118  14.761  10.679
54535W        W19696   6.684  31.877   1.904
54536W        W19697  34.821  34.336  11.055
54537W        W19698  42.414  20.191  10.500
54538W        W19699  25.235  16.711   4.814
54539W        W19700  37.405  37.328   3.782
54540W        W19701  36.470  27.693  10.841
54541W        W19702  41.974   7.226  10.664
54542W        W19703  17.897  41.709   1.308
54543W        W19704  19.334  22.141  13.998
54544W        W19705  29.307  21.543  12.376
54545W        W19706  43.778   6.450  14.917
54546W        W19707   0.538  31.905  10.845
54547W        W19708  23.992   8.103   0.287
54548W        W19709  30.230  26.033   9.528
54549W        W19710  41.586  16.542  10.793
54550W        W19711  22.183  32.355   3.353
54551W        W19712  14.674  17.656   3.663
54552W        W19713  33.212  37.676  10.397
54553W        W19714  42.392  26.362   0.482
54554W        W19715  39.549   5.706   2.419
54555W        W19716  33.068  25.586   4.214
54556W        W19717  14.542  28.845  13.833
54557W        W19718  16.723  41.557  10.691
54558W        W19719   9.745  31.956   3.136
54559W        W19720  24.455   8.449   0.336
54560W        W19721   6.239  20.823   4.261
54561W        W19722   4.695   9.070  10.700
54562W        W19723   1.336   2.270  14.569
54563W        W19724  17.770  21.949   1.373
54564W        W19725  37.386  10.447   3.661
54565W        W19726  11.896   9.109   2.159
54566W        W19727  40.482  10.188   1.806
54567W        W19728  24.020  37.399  13.798
54568W        W19729   2.999  34.804  10.775
54569W        W19730  34.519  15.858   3.210
54570W        W19731  17.327  32.440  10.977
54571W        W19732   1.616  38.599   2.602
54572W        W19733  19.471  31.436   3.423
54573W        W19734  41.785  41.319   3.918
54574W        W19735  30.986  42.458   0.659
54575W        W19736   0.260  35.557  13.459
54576W        W19737  41.250  34.992   4.349
54577W        W19738  35.177  32.055   4.126
54578W        W19739  33.571  33.962  14.990
54579W        W19740   6.474  25.507  14.285
54580W        W19741  11.663  32.315   0.245
54581W        W19742  43.283   6.181  12.545
54582W        W19743  20.561  25.719   2.818
54583W        W19744  39.553   1.834  14.941
54584W        W19745  36.766  33.793   4.982
54585W        W19746  28.114   4.787   9.929
54586W        W19747  41.993   7.917  11.976
54587W        W19748  28.906  15.079  13.101
54588W        W19749   7.642   0.558   2.954
54589W        W19750  32.940   7.994  12.981
54590W        W19751  19.149  33.857  12.003
54591W        W19752  43.471   9.629  12.523
54592W        W19753   3.491  19.699  14.951
54593W        W19754  20.416  12.252   3.769
54594W        W19755  14.300  31.849   4.113
54595W        W19756  43.769  10.224  10.682
54596W        W19757  36.995  26.112   1.241
54597W        W19758  38.611  11.325   2.154
54598W        W19759  42.061   3.362   2.273
54599W        W19760  25.202   4.943   2.405
54600W        W19761   3.024  28.208   3.305
54601W        W19762  11.267  13.274   3.567
54602W        W19763  43.034  13.430   0.278
54603W        W19764  32.623   7.938  13.948
54604W        W19765  18.328  35.161  13.915
54605W        W19766  13.757  26.632   1.057
54606W        W19767   9.935  26.051  12.392
54607W        W19768   3.302  37.579  14.713
54608W        W19769  42.423  21.596   2.170
54609W        W19770   7.748  25.485  11.604
54610W        W19771  24.992  19.602  11.976
54611W        W19772   6.791   2.718   3.634
54612W        W19773   5.601  29.174  13.590
54613W        W19774  19.188   8.366   0.045
54614W        W19775  16.270  18.276   4.556
54615W        W19776  14.272  43.003  12.071
54616W        W19777  14.825  11.693  13.955
54617W        W19778  27.764  18.096  14.462
54618W        W19779  37.982  39.847  10.856
54619W        W19780  42.355  24.082   2.653
54620W        W19781  21.490   0.287  13.287
54621W        W19782  35.761  19.887   3.208
54622W        W19783  14.805  32.513   1.148
54623W        W19784   8.308  13.561   3.239
54624W        W19785  18.347   5.360   2.216
54625W        W19786  43.050  27.617  12.350
54626W        W19787   3.982  27.851  11.944
54627W        W19788   3.284  37.338  12.829
54628W        W19789  26.006  13.604  10.832
54629W        W19790   8.469  37.179   2.767
54630W        W19791  19.529  37.752  14.804
54631W        W19792  25.199   2.717   3.340
54632W        W19793  17.406  22.252   0.821
54633W        W19794  33.885  21.611   9.936
54634W        W19795  37.198  24.210  11.525
54635W        W19796  41.902  13.549  13.269
54636W        W19797  40.329  14.662   4.626
54637W        W19798  16.266  13.832  12.689
54638W        W19799   3.179   6.767   3.297
54639W        W19800  35.638  26.675  14.552
54640W        W19801  15.050   3.009   2.552
54641W        W19802  15.277  20.322  14.309
54642W        W19803  44.951  32.960  13.185
54643W        W19804  40.035  18.037  10.686
54644W        W19805   4.230  34.373  11.781
54645W        W19806   9.165   6.886  12.876
54646W        W19807  20.690  17.699   3.052
54647W        W19808  35.473  23.640  13.298
54648W        W19809   6.760   5.137  13.510
54649W        W19810  17.629  40.156  12.283
54650W        W19811  41.941  14.934  12.893
54651W        W19812  17.608  35.532   0.695
54652W        W19813  39.070   6.246   0.903
54653W        W19814  42.047  43.922  14.303
54654W        W19815   9.250  28.124   1.771
54655W        W19816  40.042  35.491  14.770
54656W        W19817  29.219  13.630  11.608
54657W        W19818   6.613  29.645   1.197
54658W        W19819  37.131  15.879   0.773
54659W        W19820  16.502  10.741  13.860
54660W        W19821  12.180  28.502   3.229
54661W        W19822  31.546  10.284   0.217
54662W        W19823  10.133  37.986  14.494
54663W        W19824  39.113  29.132   4.600
54664W        W19825  44.422   4.909  11.123
54665W        W19826  43.673  19.708  11.679
54666W        W19827  31.800  21.711  14.769
54667W        W19828  40.253   1.995  11.190
54668W        W19829  30.199   9.127  11.590
54669W        W19830  19.955   1.869   1.855
54670W        W19831  15.916  21.761   0.018
54671W        W19832  22.660   5.437  12.126
54672W        W19833   7.741   5.257   1.531
54673W        W19834  37.013  11.112   2.222
54674W        W19835   6.378  15.238  14.106
54675W        W19836  34.366  16.585  14.991
54676W        W19837  17.602  16.506  13.104
54677W        W19838  28.669  41.901   4.260
54678W        W19839   9.816   6.250  10.500
54679W        W19840  15.157  32.028  10.764
54680W        W19841  43.751  19.194  10.733
54681W        W19842   3.727  15.727   3.230
54682W        W19843   1.800  39.411   3.687
54683W        W19844  28.121  13.852  11.201
54684W        W19845  18.339  10.254  11.256
54685W        W19846  40.786  43.733  11.186
54686W        W19847  28.059  12.734   0.401
54687W        W19848  36.377  27.163  14.384
54688W        W19849   0.319  38.834   0.395
54689W        W19850   1.857   8.182   0.707
54690W        W19851  26.382   1.401  10.712
54691W        W19852  15.442  10.698  11.228
54692W        W19853  34.180   2.820  13.286
54693W        W19854  28.746  43.016   2.829
54694W        W19855  43.972  32.060   3.663
54695W        W19856  24.043  27.681  12.317
54696W        W19857  25.281  21.630   9.700
54697W        W19858   5.282  21.640   1.954
54698W        W19859  43.891   8.143   0.016
54699W        W19860  16.176  30.835   2.879
54700W        W19861  25.682  21.995  10.851
54701W        W19862  41.691   8.726  14.454
54702W        W19863  35.413  13.523   4.024
54703W        W19864  30.847   1.757  13.273
54704W        W19865   0.536   8.198  10.646
54705W        W19866  24.609  39.726  13.859
54706W        W19867  27.512  19.162  10.734
54707W        W19868  43.823  24.173   1.958
54708W        W19869   6.339   2.006  12.919
54709W        W19870  25.438  27.180  11.389
54710W        W19871   0.715  39.342  14.242
54711W        W19872  26.396   1.705  11.173
54712W        W19873  22.428  24.580  10.291
54713W        W19874  23.152  16.145  12.042
54714W        W19875  18.073  43.528  14.508
54715W        W19876  33.326  20.580   0.441
54716W        W19877  14.555   5.743  14.335
54717W        W19878  18.751  15.135   3.620
54718W        W19879  22.062  34.188   0.969
54719W        W19880  30.253  23.210  11.501
54720W        W19881  40.549  37.788  12.905
54721W        W19882  20.270   0.865  12.529
54722W        W19883  43.315  44.371  14.389
54723W        W19884  41.199  44.001  14.903
54724W        W19885   7.100  25.992   0.392
54725W        W19886  13.216  32.088  10.622
54726W        W19887  44.068  32.748   0.955
54727W        W19888  29.434  16.693   2.409
54728W        W19889  15.777  21.109   3.617
54729W        W19890  29.791  18.211   2.756
54730W        W19891  15.667  20.279  13.980
54731W        W19892  36.866  44.557  14.988
54732W        W19893  22.996  38.808   2.197
54733W        W19894  20.745   3.793  13.184
54734W        W19895  36.945  10.582  12.366
54735W        W19896  42.997  28.463  12.490
54736W        W19897  12.875  32.376   0.464
54737W        W19898  13.321  11.596   2.394
54738W        W19899  17.567  42.516  12.633
54739W        W19900  34.441  32.409   3.680
54740W        W19901  15.707  14.649  13.038
54741W        W19902  17.659  32.540   1.574
54742W        W19903  10.213  37.260  12.965
54743W        W19904   5.555  24.467  12.641
54744W        W19905   5.411  20.965  10.933
54745W        W19906  15.094  13.637  13.296
54746W        W19907  33.816   8.764   3.616
54747W        W19908   0.075   0.173  13.954
54748W        W19909  13.320   5.849  11.936
54749W        W19910   2.411  37.397  11.196
54750W        W19911  10.729  21.533   0.010
54751W        W19912   0.401  44.765   1.491
54752W        W19913  18.641   1.968   4.273
54753W        W19914  17.593   2.374  13.061
54754W        W19915  11.471  21.160   5.086
54755W        W19916   8.960   1.795  12.506
54756W        W19917   0.023   4.434   2.916
54757W        W19918   9.370  20.729   3.867
54758W        W19919  32.153  28.174   5.030
54759W        W19920  23.176  35.432   4.885
54760W        W19921  16.025   4.764  13.275
54761W        W19922  14.075  15.115  12.381
54762W        W19923  17.651   2.040   0.913
54763W        W19924   0.871   1.946  12.060
54764W        W19925  24.101   0.132  12.818
54765W        W19926  24.732  34.446  12.160
54766W        W19927  15.911  21.567   2.559
54767W        W19928  38.990   4.946   3.367
54768W        W19929  27.427  10.166   4.552
54769W        W19930  30.936   4.892  12.158
54770W        W19931  38.778   0.022   3.186
54771W        W19932  18.231  39.471  13.968
54772W        W19933   0.463   3.632  10.048
54773W        W19934  18.720  18.493  12.899
54774W        W19935  29.718  31.877   4.958
54775W        W19936   9.981  35.964  11.494
54776W        W19937  41.848  26.765  13.960
54777W        W19938   8.714  35.162   4.583
54778W        W19939  15.631  38.447  10.762
54779W        W19940   2.765  42.618   0.391
54780W        W19941  37.363   8.141   2.753
54781W        W19942  24.554  44.925  11.162
54782W        W19943  43.920  43.690  11.890
54783W        W19944   3.510  14.185  14.116
54784W        W19945  25.175  12.037  13.097
54785W        W19946  16.561   9.942  14.766
54786W        W19947  31.464  31.540   0.457
54787W        W19948  33.557  35.090  12.819
54788W        W19949  21.897  42.400   3.162
54789W        W19950  44.020   2.483  11.030
54790W        W19951  34.843   6.991  14.290
54791W        W19952  18.783  30.048  13.690
54792W        W19953  29.464  16.823  13.628
54793W        W19954  38.280  21.649   4.462
54794W        W19955  25.406  19.314   3.282
54795W        W19956  10.671  26.124   3.436
54796W        W19957  43.998   4.334   2.829
54797W        W19958   9.566  44.040  12.029
54798W        W19959  35.056  34.094   0.050
54799W        W19960  35.071  41.770   4.102
54800W        W19961   6.318   5.644   4.858
54801W        W19962  14.357  29.533   3.697
54802W        W19963  29.611  24.491  13.005
54803W        W19964  18.267   1.220   2.457
54804W        W19965   4.873  38.571   2.820
54805W        W19966  24.771  41.524   2.721
54806W        W19967  44.598  41.224   4.212
54807W        W19968   3.931   0.799  10.915
54808W        W19969  32.009  34.882   1.312
54809W        W19970  21.750  14.812   1.786
54810W        W19971   0.919  15.288  13.468
54811W        W19972   1.367  25.932  14.965
54812W        W19973  40.286  15.636   2.642
54813W        W19974  17.006  11.089  12.901
54814W        W19975  32.752  16.740  10.524
54815W        W19976   5.418  14.915   3.167
54816W        W19977  27.795  42.046  10.191
54817W        W19978  40.957  38.638  12.195
54818W        W19979  23.712  30.090  12.001
54819W        W19980  31.110  11.786  12.352
54820W        W19981  30.875  10.743   2.340
54821W        W19982   9.438   0.797  12.158
54822W        W19983   2.249  40.285  13.400
54823W        W19984  25.646  40.933   4.768
54824W        W19985  10.694  17.609   1.297
54825W        W19986  29.677  32.595   2.792
54826W        W19987   4.666  33.521  12.370
54827W        W19988  11.804  12.712   4.088
54828W        W19989  24.038   2.051   1.126
54829W        W19990  14.640   7.776   3.149
54830W        W19991  35.129   9.766  12.084
54831W        W19992  21.641  41.846  14.863
54832W        W19993   5.005  19.506   2.435
54833W        W19994  10.626   0.300  12.846
54834W        W19995  11.818  32.846  13.309
54835W        W19996  44.763   1.295   4.658
54836W        W19997   9.763   8.901  13.756
54837W        W19998  40.386  24.252  12.109
54838W        W19999  32.433  14.820   3.984
54839W        W20000  38.526  14.254  13.961
54840W        W20001  17.750   6.883  14.489
54841W        W20002  38.946   0.124  11.637
54842W        W20003  17.305  41.465   0.394
54843W        W20004  44.762  19.324  13.035
54844W        W20005  20.827  31.813  12.626
54845W        W20006  26.665   4.302  14.101
54846W        W20007  11.638  29.177  14.985
54847W        W20008  23.155  43.455   4.834
54848W        W20009  17.196   3.978   3.162
54849W        W20010  13.367  21.695   4.921
54850W        W20011  10.652  39.042   0.464
54851W        W20012  21.194   9.442   0.598
54852W        W20013  44.012  41.783   4.084
54853W        W20014   1.898  13.191   0.420
54854W        W20015   6.978  11.152   3.234
54855W        W20016  19.660  11.642  11.567
54856W        W20017  27.543  27.392  14.463
54857W        W20018  41.306  30.732   3.118
54858W        W20019  29.507  16.636  13.130
54859W        W20020   6.432   3.378   3.205
54860W        W20021  28.421  39.108  12.530
54861W        W20022  30.143  17.623   0.460
54862W        W20023  13.574   0.361   4.799
54863W        W20024  35.520  31.098   2.480
54864W        W20025  13.406   7.188  11.572
54865W        W20026  34.788  25.430   0.517
54866W        W20027  30.940  19.676   5.045
54867W        W20028  20.299  42.811   2.339
54868W        W20029  36.385  43.901   4.161
54869W        W20030  37.458   5.947   4.162
54870W        W20031  34.881  25.324  10.303
54871W        W20032  29.380  39.599  14.856
54872W        W20033  30.926  29.974   4.337
54873W        W20034  21.758  15.222   3.751
54874W        W20035   7.165  19.276  13.982
54875W        W20036  16.405  34.066   0.792
54876W        W20037  25.503   2.347  13.567
54877W        W20038  39.023  43.399  10.127
54878W        W20039  15.661  16.118  12.091
54879W        W20040  34.710   0.462  12.586
54880W        W20041  27.104  35.443   2.623
54881W        W20042  44.887  43.194  11.325
54882W        W20043  37.899  26.638  13.531
54883W        W20044  31.400   6.515  14.049
54884W        W20045   2.003  13.568   3.813
54885W        W20046   6.146  17.021   2.709
54886W        W20047  15.482  32.858  10.762
54887W        W20048  10.087  29.008   1.079
54888W        W20049   3.225  36.964  11.914
54889W        W20050  16.710  19.469  12.133
54890W        W20051  34.804   1.272  14.619
54891W        W20052  44.699  11.157   2.750
54892W        W20053  20.684   0.727  12.833
54893W        W20054  40.967  13.659  11.090
54894W        W20055  13.376   8.931  13.947
54895W        W20056  17.154  18.200  12.642
54896W        W20057  31.374   2.436  12.906
54897W        W20058  40.587  29.802  12.948
54898W        W20059  17.623   7.083  14.021
54899W        W20060  30.237  33.350  10.998
54900W        W20061  16.249  16.544   4.110
54901W        W20062   4.191  31.158  14.537
54902W        W20063  41.556   8.187  12.559
54903W        W20064  33.516  18.744   3.549
54904W        W20065  27.255  41.813   0.499
54905W        W20066  10.619  38.298   4.723
54906W        W20067  44.194   0.333  12.158
54907W        W20068   8.143  40.816  13.114
54908W        W20069  38.103  22.767  10.751
54909W        W20070  33.045   0.250   0.199
54910W        W20071  40.006   2.503   3.627
54911W        W20072  15.327  23.668   3.152
54912W        W20073  23.955  33.077   3.251
54913W        W20074   8.172   7.455   0.876
54914W        W20075  10.927  19.071   0.807
54915W        W20076   6.201   9.087   1.450
54916W        W20077  29.653   9.740   2.921
54917W        W20078  29.479  43.783   2.635
54918W        W20079  11.154  24.672  11.236
54919W        W20080  40.795  21.289   1.453
54920W        W20081  43.307   3.666   3.682
54921W        W20082  44.714  40.735   3.271
54922W        W20083  23.291  22.923  10.423
54923W        W20084   2.279  44.834  14.214
54924W        W20085  38.068  31.817   0.391
54925W        W20086  31.668  32.958  14.034
54926W        W20087  35.168  19.658  11.239
54927W        W20088  16.740  35.411   0.776
54928W        W20089  13.188  41.128   2.294
54929W        W20090  17.248  36.533  11.624
54930W        W20091   3.244  27.180  13.538
54931W        W20092  14.118   9.224   4.410
54932W        W20093  25.941   8.712   2.327
54933W        W20094  12.368  12.913   0.804
54934W        W20095  19.559   1.468  14.317
54935W        W20096   5.626  15.761   2.090
54936W        W20097  32.967   8.282  12.043
54937W        W20098  19.598  11.806  14.892
54938W        W20099  18.345  13.552  13.979
54939W        W20100  12.266  23.665  12.153
54940W        W20101  32.403  28.172  14.577
54941W        W20102   8.664  34.751   0.309
54942W        W20103   0.762  28.542  12.510
54943W        W20104   8.769   1.810  12.020
54944W        W20105  20.341  28.280  12.862
54945W        W20106  24.061  10.845  11.207
54946W        W20107   2.049  31.152  11.193
54947W        W20108  18.575   7.591   3.335
54948W        W20109  14.733  35.504   0.019
54949W        W20110  30.082  41.522   1.000
54950W        W20111   4.690  43.237   1.359
54951W        W20112  15.781   0.967  10.610
54952W        W20113   7.814   3.332  11.011
54953W        W20114  31.955  37.435   1.968
54954W        W20115  38.998  41.116  13.144
54955W        W20116  21.179  13.820   2.185
54956W        W20117  26.340  23.583  13.437
54957W        W20118  44.994  19.542  12.612
54958W        W20119  42.793  20.829   1.778
54959W        W20120  34.755   5.393   1.890
54960W        W20121  29.055  13.915  11.204
54961W        W20122  43.461  10.113  11.063
54962W        W20123  30.651  15.301  11.149
54963W        W20124  37.863  34.779  12.586
54964W        W20125  25.488  10.220  12.400
54965W        W20126  12.108  43.867   1.051
54966W        W20127  40.157  10.266  11.601
54967W        W20128  17.134   2.691   3.664
54968W        W20129  32.325  36.499   1.684
54969W        W20130  11.569  24.042   4.124
54970W        W20131  28.224  23.311  14.464
54971W        W20132  19.843  27.561   3.124
54972W        W20133  24.321  37.329  14.921
54973W        W20134  11.455   8.880  13.793
54974W        W20135   1.759   9.366   1.944
54975W        W20136  33.616   3.852   1.956
54976W        W20137   5.585   3.722   1.401
54977W        W20138  30.083  20.334  13.308
54978W        W20139  25.165  25.123   2.164
54979W        W20140  10.719  34.165  14.763
54980W        W20141  19.280   9.186  13.921
54981W        W20142  23.987  17.909  14.442
54982W        W20143  43.356  39.893   3.072
54983W        W20144  16.318  12.800   3.953
54984W        W20145  27.584  27.045  13.049
54985W        W20146  10.689  13.315  11.085
54986W        W20147  34.719  20.315   1.392
54987W        W20148  28.612  32.430   2.805
54988W        W20149   0.173  10.619   4.724
54989W        W20150  16.589  11.369   2.927
54990W        W20151  24.878  40.917  10.581
54991W        W20152  19.479  12.573   4.005
54992W        W20153   2.952  14.784  13.898
54993W        W20154  19.254  24.923   2.868
54994W        W20155  32.082  35.101  14.333
54995W        W20156  27.927  37.041   3.741
54996W        W20157  15.948  29.015  11.515
54997W        W20158  39.115   9.757  12.833
54998W        W20159  19.659  22.080   4.673
54999W        W20160  38.399  22.705   3.919
55000W        W20161  17.747  19.115   1.284
55001W        W20162  17.400  26.622   1.838
55002W        W20163  12.318  22.533   1.480
55003W        W20164   6.180  23.625  10.659
55004W        W20165   8.829  29.149   3.762
55005W        W20166  27.683  41.999   4.070
55006W        W20167   9.736  14.273  13.823
55007W        W20168  37.462  32.543  14.256
55008W        W20169  40.897  25.241   2.310
55009W        W20170  35.506  33.408  11.467
55010W        W20171  11.740  39.779   4.982
55011W        W20172   1.911  32.839   3.703
55012W        W20173   3.000  28.409  14.383
55013W        W20174  43.893   5.631  14.281
55014W        W20175  21.781  15.781  14.946
55015W        W20176   3.976  37.038   3.346
55016W        W20177   8.255  36.675  13.416
55017W        W20178   9.828  24.243   0.548
55018W        W20179   7.333  37.038  12.689
55019W        W20180  17.074  25.463   2.795
55020W        W20181  20.230  10.511   1.798
55021W        W20182   2.863  23.730   0.335
55022W        W20183  29.882  16.030   0.775
55023W        W20184  32.716  19.654  13.313
55024W        W20185  40.381   8.673   4.243
55025W        W20186  25.653  24.534   3.096
55026W        W20187   8.172   0.357  10.997
55027W        W20188  30.611  15.243  13.543
55028W        W20189   4.285   4.148   1.141
55029W        W20190  31.421  26.605   0.966
55030W        W20191  23.640  27.225  14.734
55031W        W20192  31.647  33.183   3.585
55032W        W20193  29.085   6.441   3.174
55033W        W20194  14.071  27.152   1.794
55034W        W20195  33.498  41.884   0.382
55035W        W20196   2.186  10.171   3.283
55036W        W20197  14.189  27.715   2.828
55037W        W20198   1.894   4.515   1.788
55038W        W20199  30.503   7.665  13.978
55039W        W20200   4.686  30.499  14.036
55040W        W20201  34.949  30.096   2.219
55041W        W20202  15.667  21.035   0.211
55042W        W20203  18.260  37.372  12.531
55043W        W20204  29.568  38.658   0.262
55044W        W20205  13.189  39.994  11.047
55045W        W20206  41.360   5.751  11.031
55046W        W20207   7.173   4.500   2.668
55047W        W20208  10.971   7.984  14.715
55048W        W20209  25.167  30.653  13.736
55049W        W20210  14.393  12.018   1.788
55050W        W20211  33.525  31.188   3.605
55051W        W20212  22.319  12.419   1.400
55052W        W20213  17.307  24.167   4.148
55053W        W20214  42.721  11.297   1.663
55054W        W20215   5.220   2.692   0.825
55055W        W20216  29.176   2.962  11.638
55056W        W20217  42.637  27.970  13.083
55057W        W20218  44.572  44.868  14.580
55058W        W20219  17.676  27.159  14.128
55059W        W20220  11.545  29.186  13.545
55060W        W20221   4.741  26.293   0.870
55061W        W20222  35.262  33.555   2.344
55062W        W20223   1.306  26.589  11.575
55063W        W20224   9.468  20.028   4.482
55064W        W20225  39.827  27.192  12.924
55065W        W20226  42.489  44.685   0.382
55066W        W20227  39.490  21.761   1.911
55067W        W20228  29.609  22.078   4.704
55068W        W20229  30.386   0.011  14.984
55069W        W20230  15.566  32.993   2.341
55070W        W20231  17.860  34.523  11.617
55071W        W20232   7.705  18.599  14.870
55072W        W20233  39.487  33.631  11.897
55073W        W20234  25.188  38.809   4.054
55074W        W20235  19.523  34.343  11.193
55075W        W20236   5.893  29.190   2.637
55076W        W20237   9.048  21.321  12.724
55077W        W20238  30.860  15.299   0.261
55078W        W20239  29.855   6.340   4.612
55079W        W20240  16.840  21.438  14.712
55080W        W20241  35.444  22.894  12.229
55081W        W20242  22.801   3.788   3.362
55082W        W20243  22.704   7.321  14.747
55083W        W20244  29.609   7.401   0.726
55084W        W20245  19.743  12.750   1.645
55085W        W20246  28.167  38.867  14.357
55086W        W20247   6.004  14.807  12.363
55087W        W20248  31.419  20.570   0.826
55088W        W20249  36.618  35.426  12.414
55089W        W20250  35.174  42.545   2.251
55090W        W20251  11.932  19.293  12.103
55091W        W20252  19.464  13.099  10.698
55092W        W20253  41.757  37.150   3.654
55093W        W20254  20.923  26.453  11.060
55094W        W20255  11.784  29.148   4.978
55095W        W20256  34.361  36.071  10.178
55096W        W20257  34.304   5.443   0.547
55097W        W20258  12.064  44.571  13.174
55098W        W20259  22.660   5.794  11.277
55099W        W20260  34.086   8.683  13.731
55100W        W20261  31.443  37.961  10.773
55101W        W20262  23.694  14.051  13.619
55102W        W20263  21.282  36.429  13.828
55103W        W20264  43.558  42.336  14.984
55104W        W20265  16.269  42.332   0.027
55105W        W20266  25.532  41.816   0.894
55106W        W20267  20.149  43.314  10.629
55107W        W20268  16.566  24.302   1.904
55108W        W20269  14.526  36.181  11.201
55109W        W20270  10.150   3.773  13.071
55110W        W20271  20.599  40.170  10.190
55111W        W20272   0.171  38.769   2.967
55112W        W20273  13.244   8.151   2.376
55113W        W20274  20.066  17.299  12.034
55114W        W20275  38.883  32.392  10.526
55115W        W20276  33.457  13.129  10.463
55116W        W20277  11.887  30.435  14.462
55117W        W20278  41.256   9.868  11.524
55118W        W20279  18.277  22.746   2.173
55119W        W20280  29.923   4.420   2.268
55120W        W20281  40.059  27.741   4.029
55121W        W20282  35.007  16.712   2.448
55122W        W20283  28.073  41.402  10.673
55123W        W20284  13.889   7.312  11.464
55124W        W20285   8.460   1.215  10.683
55125W        W20286  24.300  13.200   0.723
55126W        W20287  10.339   1.443  12.509
55127W        W20288  33.892  22.789  14.546
55128W        W20289  26.124  29.416   1.415
55129W        W20290  33.988  19.679   0.385
55130W        W20291  22.660  32.583  12.571
55131W        W20292  29.361   8.061  12.536
55132W        W20293  17.296  20.477  11.040
55133W        W20294  34.354  21.968  12.520
55134W        W20295  17.747  32.498  11.256
55135W        W20296  38.518  33.659  12.663
55136W        W20297  36.125  38.241  12.666
55137W        W20298  30.841  19.059   4.936
55138W        W20299  10.634  27.911   3.269
55139W        W20300  33.031  17.852   2.285
55140W        W20301  10.043   8.894   0.079
55141W        W20302  17.762  42.267  13.080
55142W        W20303  26.021  28.380   1.433
55143W        W20304   1.603  32.884  11.820
55144W        W20305  28.892  25.402   2.886
55145W        W20306  11.611   0.425   1.351
55146W        W20307   3.147   8.795  10.803
55147W        W20308  43.501  18.012  11.119
55148W        W20309  16.176  37.366  14.057
55149W        W20310  42.766   2.923  11.198
55150W        W20311   3.627   7.729   2.082
55151W        W20312  15.129  35.367   3.719
55152W        W20313  37.007  10.932  12.761
55153W        W20314  36.924  24.851  12.854
55154W        W20315  41.364  31.564   2.363
55155W        W20316  22.569  15.632  13.389
55156W        W20317  37.443   1.215   1.532
55157W        W20318   0.321   4.360  13.575
55158W        W20319  11.563   1.341   4.116
55159W        W20320  42.484  28.422  12.376
55160W        W20321  19.113  24.272  13.106
55161W        W20322  26.998  38.021  11.971
55162W        W20323  28.189   7.304   2.573
55163W        W20324  11.353  10.603  11.141
55164W        W20325   6.725  30.728   2.837
55165W        W20326  20.588  12.849  11.171
55166W        W20327  28.599   1.484  10.543
55167W        W20328   0.963  22.107  11.953
55168W        W20329   4.918  38.643   1.453
55169W        W20330  42.284  23.174   3.111
55170W        W20331  35.675  12.909  13.495
55171W        W20332  37.101   9.887  14.876
55172W        W20333  11.832  30.991  10.745
55173W        W20334  44.275   4.623   1.593
55174W        W20335  19.333  36.560   1.826
55175W        W20336  44.135   2.135   0.772
55176W        W20337   1.198   3.238   1.421
55177W        W20338  19.691   4.876   2.995
55178W        W20339  38.123  17.566   0.504
55179W        W20340  20.460  27.474  12.568
55180W        W20341  28.400   3.204  11.481
55181W        W20342  34.590  10.140  14.836
55182W        W20343  15.582  25.395   3.559
55183W        W20344  18.637  39.356  10.266
55184W        W20345  16.385  26.524   1.766
55185W        W20346  13.079   1.954   5.177
55186W        W20347  37.606   1.748   4.407
55187W        W20348  12.179  36.016   0.987
55188W        W20349  28.720  29.651   1.858
55189W        W20350   5.405   0.301  13.770
55190W        W20351  27.129  27.226   4.307
55191W        W20352  37.638  23.608   2.831
55192W        W20353  22.535   3.396  14.713
55193W        W20354   7.694   7.417   2.827
55194W        W20355  29.737   4.682   0.826
55195W        W20356  40.745  19.059   1.929
55196W        W20357  37.072  15.779   2.169
55197W        W20358  11.093  20.651   4.056
55198W        W20359  38.307   4.884  13.862
55199W        W20360  39.481  36.185  10.773
55200W        W20361  24.555  26.490   2.223
55201W        W20362  11.056  16.190  13.596
55202W        W20363  37.861   1.038   1.784
55203W        W20364  25.651  44.322   4.782
55204W        W20365   7.725   3.879   1.568
55205W        W20366  10.654  27.733   2.412
55206W        W20367  14.265  29.531  14.578
55207W        W20368  21.622  14.023   4.512
55208W        W20369   5.726  23.700  12.874
55209W        W20370  13.898  42.479  10.447
55210W        W20371   5.482   8.832  12.968
55211W        W20372  40.978  24.750  12.542
55212W        W20373   5.755  13.678   3.385
55213W        W20374  17.441  37.470   3.795
55214W        W20375  18.173  43.835  13.552
55215W        W20376  23.582  37.386  12.989
55216W        W20377  14.655   9.213  13.599
55217W        W20378  29.003  26.860   3.840
55218W        W20379   1.720  34.894  12.690
55219W        W20380   5.770   2.234  13.257
55220W        W20381  39.776   2.748   0.398
55221W        W20382   0.003  33.545   2.014
55222W        W20383  36.339  24.213  13.345
55223W        W20384   0.690   6.179  14.735
55224W        W20385  35.422   1.804  12.099
55225W        W20386  16.212  33.338  10.566
55226W        W20387  37.094  14.868  12.516
55227W        W20388   8.184  27.152   4.065
55228W        W20389  23.051  18.355   0.959
55229W        W20390  40.075  24.056  14.837
55230W        W20391  44.815   0.275   2.798
55231W        W20392  29.452  35.056   0.482
55232W        W20393   9.345  10.872  12.025
55233W        W20394  35.801   9.031  11.704
55234W        W20395  27.559  17.327  10.939
55235W        W20396   0.984  21.076   0.413
55236W        W20397   8.130  31.946   3.684
55237W        W20398  42.038   8.186  10.607
55238W        W20399  21.411  35.110  11.609
55239W        W20400  31.498  19.746   2.612
55240W        W20401  43.072  41.236   2.756
55241W        W20402   7.363  44.482  11.889
55242W        W20403  31.620  27.192  14.874
55243W        W20404  18.674  29.536  14.950
55244W        W20405  37.447   4.286  10.538
55245W        W20406  13.573  18.719  12.262
55246W        W20407  28.333  44.061  12.025
55247W        W20408  40.882  12.642  14.457
55248W        W20409   6.933  11.562   1.133
55249W        W20410  15.724  43.046  12.814
55250W        W20411  37.664  21.990  12.550
55251W        W20412  16.550  44.554   0.431
55252W        W20413  44.287  42.858  10.378
55253W        W20414  37.854  44.950  14.934
55254W        W20415  32.612  18.301   0.020
55255W        W20416  12.493  43.336   4.544
55256W        W20417  15.830   4.196   2.005
55257W        W20418  11.393  43.726   3.703
55258W        W20419   1.147  15.542  13.068
55259W        W20420  26.630  14.576  13.044
55260W        W20421  41.952   9.320  11.901
55261W        W20422  13.251  21.232   0.953
55262W        W20423  43.325  20.589   2.929
55263W        W20424  38.508  38.966   1.061
55264W        W20425  29.986  24.599   0.694
55265W        W20426  23.970  44.829  10.677
55266W        W20427  14.253  38.347  14.641
55267W        W20428  23.110  30.353  14.861
55268W        W20429  35.101  16.295   3.680
55269W        W20430  30.405  25.578  11.583
55270W        W20431   1.408  29.063  13.331
55271W        W20432  19.758  42.869   4.510
55272W        W20433  27.034  31.575   0.245
55273W        W20434   7.940  13.773   2.692
55274W        W20435  34.792  24.549   1.799
55275W        W20436  33.320  33.290   0.857
55276W        W20437   1.309  18.224  12.433
55277W        W20438  36.645  21.474   3.077
55278W        W20439   6.880  25.304   4.098
55279W        W20440  27.728  17.190   2.795
55280W        W20441  12.443   2.243  13.544
55281W        W20442  42.415  18.027  14.354
55282W        W20443  44.684   5.938   2.678
55283W        W20444  10.195  14.214   4.650
55284W        W20445  44.444  23.191  11.056
55285W        W20446   1.756   4.219   2.656
55286W        W20447  10.218  33.905   0.793
55287W        W20448  18.834  36.684   2.794
55288W        W20449  12.746  28.385   2.618
55289W        W20450  36.315  14.815  10.720
55290W        W20451  39.420  20.734  12.254
55291W        W20452  10.098  38.527  13.408
55292W        W20453  18.342  15.072   2.304
55293W        W20454   4.674  27.250  14.779
55294W        W20455  16.346  33.002   3.651
55295W        W20456   3.289  38.086  14.056
55296W        W20457   6.937  18.359  11.032
55297W        W20458  24.180  18.156  13.530
55298W        W20459  16.064  10.376  14.428
55299W        W20460  27.043  13.345   2.225
55300W        W20461   0.375  32.855   2.775
55301W        W20462  15.511  33.307  12.513
55302W        W20463  24.750  19.537  10.284
55303W        W20464  36.930  10.798  11.342
55304W        W20465  20.056  35.624  11.829
55305W        W20466   1.974  26.188   3.792
55306W        W20467  29.542  44.457   4.773
55307W        W20468  28.555  12.850   1.802
55308W        W20469   4.819  29.025  14.425
55309W        W20470   1.329  20.898   4.317
55310W        W20471   1.570  28.109  14.347
55311W        W20472  34.423  28.515  13.587
55312W        W20473  11.784  20.588   1.808
55313W        W20474  31.223   6.777   4.275
55314W        W20475  15.216  30.896   0.744
55315W        W20476   9.706   5.950   4.668
55316W        W20477  42.699  23.659   1.738
55317W        W20478  21.739  42.249   1.449
55318W        W20479  32.616  24.568  11.137
55319W        W20480  35.060  39.993  10.656
55320W        W20481  12.816   5.877  13.979
55321W        W20482   9.734  33.292  13.061
55322W        W20483  11.125  31.894   2.937
55323W        W20484   8.135   8.843  14.473
55324W        W20485   5.965  31.024   2.405
55325W        W20486   2.084  29.869   0.005
55326W        W20487   5.007   0.392  12.866
55327W        W20488  44.329  29.620   0.184
55328W        W20489  38.136  22.283  14.873
55329W        W20490  32.901  31.386   3.710
55330W        W20491  43.348  23.944  12.964
55331W        W20492  20.548  32.105  12.972
55332W        W20493   6.251  42.888  11.121
55333W        W20494  11.706   0.477  11.690
55334W        W20495  33.918  26.911  13.188
55335W        W20496  13.168   7.865   1.702
55336W        W20497  44.926  36.901  14.395
55337W        W20498  33.140  25.552  14.004
55338W        W20499  40.540  36.963   0.817
55339W        W20500  12.602  30.131  14.063
55340W        W20501  15.906  30.556   3.847
55341W        W20502  28.434  18.663  12.462
55342W        W20503  10.697  29.565  12.641
55343W        W20504  18.547   4.678   0.415
55344W        W20505  40.553  18.059  10.689
55345W        W20506  23.067  20.861  13.127
55346W        W20507  33.230  32.529   3.134
55347W        W20508  27.092  44.223   2.888
55348W        W20509   7.952  43.866   1.661
55349W        W20510  29.580  18.539   3.141
55350W        W20511  21.660  38.069  11.596
55351W        W20512  11.600   0.986  11.749
55352W        W20513   2.862  38.665  10.336
55353W        W20514  22.530  25.164   4.091
55354W        W20515   4.859   2.948   1.920
55355W        W20516  13.337  21.027  12.310
55356W        W20517  20.652  32.181   0.347
55357W        W20518  24.753   3.295   0.820
55358W        W20519  36.989  31.225   0.306
55359W        W20520  31.562  36.297   1.360
55360W        W20521  33.195  21.196  12.420
55361W        W20522  22.235  37.732   2.417
55362W        W20523  19.042  27.752   3.326
55363W        W20524  16.808   3.651  10.743
55364W        W20525  41.402  40.999   3.743
55365W        W20526  31.899   0.520  12.037
55366W        W20527  21.626  10.199  11.192
55367W        W20528   5.002  38.709   0.009
55368W        W20529  12.561  42.767   2.769
55369W        W20530  40.866   0.923   0.848
55370W        W20531  36.412  38.425  13.045
55371W        W20532  10.062  37.154  13.442
55372W        W20533  31.190   0.613  12.487
55373W        W20534  20.147  35.109  13.628
55374W        W20535  15.685  28.427   3.805
55375W        W20536  18.271  15.820   1.437
55376W        W20537  17.521  20.933  11.135
55377W        W20538  12.136  13.312  11.469
55378W        W20539  41.843   1.120   3.137
55379W        W20540  30.913  21.190   4.070
55380W        W20541  41.462  24.281  12.630
55381W        W20542   6.045   3.893   1.223
55382W        W20543   1.911  18.276   1.384
55383W        W20544  35.829   0.734   1.377
55384W        W20545  37.412   6.866  11.581
55385W        W20546  39.651  33.854   3.548
55386W        W20547   2.412   9.880   5.547
55387W        W20548  30.449   2.854  11.055
55388W        W20549  30.334   8.898  13.503
55389W        W20550  34.482   7.655   0.559
55390W        W20551  39.324  21.011   3.161
55391W        W20552  32.725  41.219  11.446
55392W        W20553   6.086  26.955  12.829
55393W        W20554  42.266  29.494   1.229
55394W        W20555   4.139  30.856   2.871
55395W        W20556  11.575  15.874   4.497
55396W        W20557  27.199  27.948   3.647
55397W        W20558   3.455  25.914   3.657
55398W        W20559   9.648  43.104  12.151
55399W        W20560  28.510   1.738   2.654
55400W        W20561  26.688  35.676   0.310
55401W        W20562  29.144  40.085  11.232
55402W        W20563  22.969  39.753  10.576
55403W        W20564  11.069  21.632  13.409
55404W        W20565   8.619  37.163  12.029
55405W        W20566  44.339  27.869  12.962
55406W        W20567  13.470   4.293   4.772
55407W        W20568  44.956  38.532  12.362
55408W        W20569  15.159  44.965  13.232
55409W        W20570   4.720   3.845   1.115
55410W        W20571  18.057   0.457  10.780
55411W        W20572  26.634  31.903   3.648
55412W        W20573  24.508  43.580  13.980
55413W        W20574  20.076  20.785   2.920
55414W        W20575  36.179  13.012  11.558
55415W        W20576   3.243  35.796   2.217
55416W        W20577  39.569  23.145   3.384
55417W        W20578  41.563  34.441  11.710
55418W        W20579  33.008  26.816   2.812
55419W        W20580  27.301  23.326   5.585
55420W        W20581  33.557  10.055   5.009
55421W        W20582  17.068  36.907  13.712
55422W        W20583  31.413  25.323  14.515
55423W        W20584   8.765  11.036   1.742
55424W        W20585  38.524  36.672   3.021
55425W        W20586  29.107   7.425   1.411
55426W        W20587   4.770  40.709   4.422
55427W        W20588  23.262  30.625  14.447
55428W        W20589  29.898  36.832   0.584
55429W        W20590  14.218  10.561  12.428
55430W        W20591  41.509  23.623  10.423
55431W        W20592   6.338  14.034   0.841
55432W        W20593  23.584  13.740   0.946
55433W        W20594  35.868  30.403  14.457
55434W        W20595  30.919  26.476   1.000
55435W        W20596  19.109  18.227  13.183
55436W        W20597  27.290   8.353  14.875
55437W        W20598  26.453  42.298  10.773
55438W        W20599   5.603   9.669  13.804
55439W        W20600  13.415   6.357   2.575
55440W        W20601  22.852  22.468   1.764
55441W        W20602  16.767  20.597   1.893
55442W        W20603   6.327  42.263   0.821
55443W        W20604  40.492  42.888   4.238
55444W        W20605  28.911  40.598   2.775
55445W        W20606  19.812   5.901   3.233
55446W        W20607  11.708  12.469  13.032
55447W        W20608   4.025  40.491  11.143
55448W        W20609  12.605  38.505   1.969
55449W        W20610  24.036   1.626  11.176
55450W        W20611  43.416  35.730   2.903
55451W        W20612  19.199  29.892  13.958
55452W        W20613   4.662   2.674  13.312
55453W        W20614  44.376  30.670  10.866
55454W        W20615  33.479  32.580   1.587
55455W        W20616  27.537  27.867   4.076
55456W        W20617  40.494  38.867   4.561
55457W        W20618  42.249   5.915  14.350
55458W        W20619  11.857  35.016   3.749
55459W        W20620   8.258   5.856  14.503
55460W        W20621  29.527   8.606  14.616
55461W        W20622  27.702  29.367   1.791
55462W        W20623  21.983  13.212   1.251
55463W        W20624  42.341  29.911   4.331
55464W        W20625   4.817  13.357  12.535
55465W        W20626   8.176  15.199   1.981
55466W        W20627  41.479  22.732  12.962
55467W        W20628  10.161  25.779   0.750
55468W        W20629  33.794  14.975  12.422
55469W        W20630  17.877  31.013  13.995
55470W        W20631  40.934  18.439  10.588
55471W        W20632   3.054  44.520  14.362
55472W        W20633   1.331  25.721   1.907
55473W        W20634   5.848  20.713  10.945
55474W        W20635  31.959  30.332  10.644
55475W        W20636  28.490  43.054  13.000
55476W        W20637  22.151  41.324  11.455
55477W        W20638  17.692  37.296   2.658
55478W        W20639  13.218  43.313   3.707
55479W        W20640  25.690  43.340  13.595
55480W        W20641  43.306  34.238   2.757
55481W        W20642  38.797  37.041  12.607
55482W        W20643  36.674  37.957   3.171
55483W        W20644  15.829   0.004  14.538
55484W        W20645  10.408  44.005   0.966
55485W        W20646  44.388  17.031  11.212
55486W        W20647  23.656  43.982  11.119
55487W        W20648  40.539   0.254  12.572
55488W        W20649   1.277  38.004  10.806
55489W        W20650  33.003   8.269  13.861
55490W        W20651  34.812  26.179  13.896
55491W        W20652  20.441  12.433   0.995
55492W        W20653   1.458  33.518  13.890
55493W        W20654  35.031  34.432   1.948
55494W        W20655  33.676  34.603   2.817
55495W        W20656  37.493  34.832  14.480
55496W        W20657  19.598  12.731  12.348
55497W        W20658  11.632  22.460   1.981
55498W        W20659  41.913  41.591   4.322
55499W        W20660  29.002  27.219  14.544
55500W        W20661  32.080   6.700  11.440
55501W        W20662  36.508   9.539   1.036
55502W        W20663  22.567  20.901  10.270
55503W        W20664  44.731  10.405  10.568
55504W        W20665  31.186   8.302  10.565
55505W        W20666  23.636  16.642   3.302
55506W        W20667   8.770  10.644   0.346
55507W        W20668  23.485  12.585  11.790
55508W        W20669  20.165  10.265  13.763
55509W        W20670  36.144  12.134  11.051
55510W        W20671  39.462  27.093  10.756
55511W        W20672   9.090  24.192   3.875
55512W        W20673  38.320   9.249   4.818
55513W        W20674  21.021  34.445  11.196
55514W        W20675  11.006  22.378  14.338
55515W        W20676  36.386  20.302   3.782
55516W        W20677   9.916  38.897   3.721
55517W        W20678   5.205  19.390   3.348
55518W        W20679  39.569  12.107   4.784
55519W        W20680  41.973  33.944  14.937
55520W        W20681  12.083   3.666  14.901
55521W        W20682  41.111  35.987   1.335
55522W        W20683   5.019  21.209   4.241
55523W        W20684  12.032  10.830  14.047
55524W        W20685  29.922   5.247   3.549
55525W        W20686  23.505  15.072  12.791
55526W        W20687   5.839  20.471   2.839
55527W        W20688  29.654  13.400   2.984
55528W        W20689  14.818  33.396  11.916
55529W        W20690  26.133  42.042  11.580
55530W        W20691  40.421   9.846   1.232
55531W        W20692  13.079  20.463   1.389
55532W        W20693  16.342  20.175   3.586
55533W        W20694  42.958  21.508  11.914
55534W        W20695  22.754  25.427  14.392
55535W        W20696  41.774  19.045   1.826
55536W        W20697   0.750  38.937  12.090
55537W        W20698   1.372   8.209   3.102
55538W        W20699  12.122   8.884   1.752
55539W        W20700  41.223  25.218  12.487
55540W        W20701  36.684  33.072   4.503
55541W        W20702  27.868  27.682  13.561
55542W        W20703  30.635  39.308  14.981
55543W        W20704   9.746  41.046  13.322
55544W        W20705   5.083   9.831   4.674
55545W        W20706  34.487   0.253   2.251
55546W        W20707   4.251  37.619  12.183
55547W        W20708  12.812  10.715   2.368
55548W        W20709  40.853  11.222   0.861
55549W        W20710  44.992  32.379  11.543
55550W        W20711  38.069  12.278  10.923
55551W        W20712  32.853  31.693  13.775
55552W        W20713  32.517  31.117  10.697
55553W        W20714  25.877  37.858  11.568
55554W        W20715  26.489  26.516  12.798
55555W        W20716  31.494  14.771   0.982
55556W        W20717  42.811  41.355   1.862
55557W        W20718   3.291  18.028  12.598
55558W        W20719   0.992  44.965  14.962
55559W        W20720  30.515   1.999  11.082
55560W        W20721  30.106  40.722  14.976
55561W        W20722  12.314  41.365   0.461
55562W        W20723  27.502  43.515   2.586
55563W        W20724   9.582  18.552   2.581
55564W        W20725  24.960  10.114  14.910
55565W        W20726   2.768  30.163  11.672
55566W        W20727  43.277   6.495  14.705
55567W        W20728  34.806  15.445   1.838
55568W        W20729  13.495  12.149  14.748
55569W        W20730   2.296  23.725  10.719
55570W        W20731  42.919  22.398  11.597
55571W        W20732  15.979   3.410   1.348
55572W        W20733  17.886   8.298  13.405
55573W        W20734   8.178  39.400  14.501
55574W        W20735   3.256  27.982   0.992
55575W        W20736  29.044   1.730  12.923
55576W        W20737  19.669  21.065   4.386
55577W        W20738  44.569  14.128  13.365
55578W        W20739  25.725   9.102  12.026
55579W        W20740  43.750  37.013  12.412
55580W        W20741  39.918  31.456  12.856
55581W        W20742  31.431   9.864  10.671
55582W        W20743  40.797  16.547   3.194
55583W        W20744  22.270  14.166  14.314
55584W        W20745  23.170  25.755  13.158
55585W        W20746  22.789  38.882   0.452
55586W        W20747  20.437  38.535   5.009
55587W        W20748  21.264  26.054  10.665
55588W        W20749  15.263  12.093  13.786
55589W        W20750  30.180  11.288   2.279
55590W        W20751  19.554  20.085  10.940
55591W        W20752  34.569   6.299   0.227
55592W        W20753   2.976  32.173   1.363
55593W        W20754  22.974  34.174  11.124
55594W        W20755   5.857  18.255  14.749
55595W        W20756  35.124  44.417   2.275
55596W        W20757  29.095  16.591   1.298
55597W        W20758   4.835  15.014   1.963
55598W        W20759  18.602  17.981   5.055
55599W        W20760   1.336  20.303   1.325
55600W        W20761  40.486   1.266   3.798
55601W        W20762  18.046  28.635  14.412
55602W        W20763   7.599  33.581   0.299
55603W        W20764  13.602  25.764   1.165
55604W        W20765  35.090  40.727  12.138
55605W        W20766  32.071   2.629   4.713
55606W        W20767   0.504  30.028   0.276
55607W        W20768   9.343  41.993   3.424
55608W        W20769  18.667   0.747   1.293
55609W        W20770  13.436   6.229  11.553
55610W        W20771  42.298  26.551  11.295
55611W        W20772  21.767  35.505  14.405
55612W        W20773   7.751  22.220   3.653
55613W        W20774  41.406  20.104   1.268
55614W        W20775  35.312   7.195  12.192
55615W        W20776  20.102  25.093  11.576
55616W        W20777  16.892  33.618   1.872
55617W        W20778  39.769  33.434  13.974
55618W        W20779  16.404  32.953   2.785
55619W        W20780  23.504  18.025   4.695
55620W        W20781  35.398  20.175   2.764
55621W        W20782  11.171  36.021  10.608
55622W        W20783  25.276   0.785   1.329
55623W        W20784  20.985  34.992  10.700
55624W        W20785   7.723  33.838  14.854
55625W        W20786  10.613  29.063  12.527
55626W        W20787  37.032  32.623  10.582
55627W        W20788  15.727  38.994   2.775
55628W        W20789  42.379  25.559   4.653
55629W        W20790   9.882  23.053  12.302
55630W        W20791   9.193  32.676   3.441
55631W        W20792   1.817  28.493  10.438
55632W        W20793   0.259  22.018   0.820
55633W        W20794  19.526  39.041  12.427
55634W        W20795   4.820  24.743   0.897
55635W        W20796   3.445  10.621  11.141
55636W        W20797  44.792  23.520  10.853
55637W        W20798  39.367  18.079   2.258
55638W        W20799  19.171  28.162  14.883
55639W        W20800  43.310  15.798  11.574
55640W        W20801  20.200   1.328  12.767
55641W        W20802  43.124  31.708   4.404
55642W        W20803  38.688   6.363  13.794
55643W        W20804  34.906   3.716   1.302
55644W        W20805  12.939  19.493   1.232
55645W        W20806  44.946  43.742   0.456
55646W        W20807   8.161   8.289  11.597
55647W        W20808  22.469   1.866   0.843
55648W        W20809  11.297  27.944  11.207
55649W        W20810  17.018   1.408   2.279
55650W        W20811  18.988  31.905   2.804
55651W        W20812  36.079  16.496   4.101
55652W        W20813   0.764  37.854  10.850
55653W        W20814  37.115  23.978   0.813
55654W        W20815  39.357   7.844   1.732
55655W        W20816  30.878  15.124   3.502
55656W        W20817  26.732  43.191   3.682
55657W        W20818  44.815  41.938   3.698
55658W        W20819  28.519  15.058  11.571
55659W        W20820   5.464  42.777  12.943
55660W        W20821  22.564  38.600  11.473
55661W        W20822  18.654   7.205  14.920
55662W        W20823  43.133  24.104   0.937
55663W        W20824   9.637  18.754   1.225
55664W        W20825  38.345  10.964   0.127
55665W        W20826   4.676  14.568   4.604
55666W        W20827   4.492  10.726   2.243
55667W        W20828  20.791  18.247   2.154
55668W        W20829  28.451  41.330  13.071
55669W        W20830  26.475  20.200  12.952
55670W        W20831  11.869  40.429  10.655
55671W        W20832  22.317  30.515  14.600
55672W        W20833   6.682  36.179   4.293
55673W        W20834  17.962  28.316   2.371
55674W        W20835  40.825   0.824  12.080
55675W        W20836  14.104  42.860  14.724
55676W        W20837  43.561  29.402  14.293
55677W        W20838   8.932  38.041  13.112
55678W        W20839  13.950  44.397  12.526
55679W        W20840  21.498  30.136  14.735
55680W        W20841  41.795  16.576  13.621
55681W        W20842  42.499   6.776   2.856
55682W        W20843   8.135   3.264   4.586
55683W        W20844  21.625  29.549   2.815
55684W        W20845  20.002  22.220   9.858
55685W        W20846  21.180  41.268  11.692
55686W        W20847  12.185  34.414   4.551
55687W        W20848   8.888  21.204  13.530
55688W        W20849   7.728  43.479   4.747
55689W        W20850   8.264  41.223  11.719
55690W        W20851  37.242  26.451   0.081
55691W        W20852  22.127  37.147  10.773
55692W        W20853  39.795  24.911   3.209
55693W        W20854  17.995  36.585  12.875
55694W        W20855   6.082   1.672  12.506
55695W        W20856  43.133  43.815  11.714
55696W        W20857  27.288  42.736   1.724
55697W        W20858  18.946  39.487   9.868
55698W        W20859  22.045   9.013   0.957
55699W        W20860   6.748  31.202  13.952
55700W        W20861  25.146  15.299   2.418
55701W        W20862   0.501  29.548  14.283
55702W        W20863  44.190  17.108   4.079
55703W        W20864   1.279  36.021   5.073
55704W        W20865   6.540  24.029  10.691
55705W        W20866  25.795  32.500   4.049
55706W        W20867  28.525   6.068  14.759
55707W        W20868  14.181  11.612   0.821
55708W        W20869   3.176  34.535   1.159
55709W        W20870  12.910   1.920   1.823
55710W        W20871  14.595   8.705  14.397
55711W        W20872  26.499   5.744  14.073
55712W        W20873  14.076  31.245  12.454
55713W        W20874  29.058  10.705  13.370
55714W        W20875   6.714  41.493  11.251
55715W        W20876  39.610  38.347  14.466
55716W        W20877  19.108  19.422   1.251
55717W        W20878  11.074  35.667  13.118
55718W        W20879   5.285  27.484   0.545
55719W        W20880  44.816  21.581  14.294
55720W        W20881  29.496  20.622   3.968
55721W        W20882  19.040  13.989  12.519
55722W        W20883  37.498   0.453   0.423
55723W        W20884   6.898  18.319  12.929
55724W        W20885  16.250  36.024   1.289
55725W        W20886   7.249   0.505   2.190
55726W        W20887   1.696  23.630  12.425
55727W        W20888  11.388   0.664   4.207
55728W        W20889  28.612  21.094  12.074
55729W        W20890  16.233   3.848  11.843
55730W        W20891  25.684   4.262   4.107
55731W        W20892  25.299  42.223   1.220
55732W        W20893  12.132  26.672  12.926
55733W        W20894  12.485  14.088  11.122
55734W        W20895  41.556  14.649  14.274
55735W        W20896   4.527  21.919   5.096
55736W        W20897  41.325   7.464  13.732
55737W        W20898  33.863   1.268  11.758
55738W        W20899  23.976  32.881  14.382
55739W        W20900   7.172  34.339  11.126
55740W        W20901   0.013  19.793   2.154
55741W        W20902  14.814  43.418  10.107
55742W        W20903  36.891  26.651  12.423
55743W        W20904  24.719  26.465   3.269
55744W        W20905  43.148  23.336  14.985
55745W        W20906  22.678  35.583   1.047
55746W        W20907   2.881  32.539  10.657
55747W        W20908  31.964   3.769  11.484
55748W        W20909  10.238  36.383   4.486
55749W        W20910   9.188  18.020  12.492
55750W        W20911  44.734   3.595  12.740
55751W        W20912  17.088  34.519  14.415
55752W        W20913  40.791  15.640  13.440
55753W        W20914  42.840  41.085  14.483
55754W        W20915   5.648  35.488   3.342
55755W        W20916  39.442   0.208   0.364
55756W        W20917  33.162  12.082   4.677
55757W        W20918  40.891  27.287  12.316
55758W        W20919  42.273   7.157  12.853
55759W        W20920  10.347  31.803   2.380
55760W        W20921  31.619   3.265  14.872
55761W        W20922  37.770  19.325   1.376
55762W        W20923  43.463   7.676  10.928
55763W        W20924  36.878  39.045   1.391
55764W        W20925   4.161  40.691  12.147
55765W        W20926  23.434  40.606  12.431
55766W        W20927  31.572  38.897   4.136
55767W        W20928  41.433   0.277  13.036
55768W        W20929  29.094  24.014  14.010
55769W        W20930  25.986  24.603   2.237
55770W        W20931  10.385  43.461   0.390
55771W        W20932  26.548  29.669   1.234
55772W        W20933   1.444  18.583  11.492
55773W        W20934  38.333  41.361  14.786
55774W        W20935  19.635  15.077   3.557
55775W        W20936  35.031   5.087  14.792
55776W        W20937  13.658  34.666  13.122
55777W        W20938  28.128  40.277  10.411
55778W        W20939  10.171  35.123  12.325
55779W        W20940  22.140  19.800  13.133
55780W        W20941  40.605  20.092  12.056
55781W        W20942  19.343  37.381  10.720
55782W        W20943  23.249  44.407  14.890
55783W        W20944  36.494  42.968   5.022
55784W        W20945   2.380   3.407   2.211
55785W        W20946  23.454  31.413  11.970
55786W        W20947   0.392  24.699   0.886
55787W        W20948  14.096   1.487   2.402
55788W        W20949  41.863  16.196  14.596
55789W        W20950  37.766   9.096  11.644
55790W        W20951  12.753  39.681  11.136
55791W        W20952  25.598  25.255  11.252
55792W        W20953  33.960  11.955   4.829
55793W        W20954  34.147  22.794  10.409
55794W        W20955  24.256  35.863   3.189
55795W        W20956  35.660  28.718   3.700
55796W        W20957  38.385  44.092   2.420
55797W        W20958  27.911  22.653   3.036
55798W        W20959  15.728  15.130   2.572
55799W        W20960   8.955   3.976   1.186
55800W        W20961  33.248  38.145  10.635
55801W        W20962  41.729  29.333  12.530
55802W        W20963  20.736  42.397   3.631
55803W        W20964  28.917  31.822   3.211
55804W        W20965  29.850  27.093   4.422
55805W        W20966  20.054  29.044   2.158
55806W        W20967   1.864  28.738  11.428
55807W        W20968   2.272  14.707   1.688
55808W        W20969  20.443  17.257   3.126
55809W        W20970  14.917  43.984  13.580
55810W        W20971  34.480  43.904  13.329
55811W        W20972  20.532  37.361   3.397
55812W        W20973  44.951   7.438  12.537
55813W        W20974   9.473  19.806  10.813
55814W        W20975   9.954  30.599   1.830
55815W        W20976  23.349  35.245   1.028
55816W        W20977  11.347   0.617  12.141
55817W        W20978  44.514  14.563  11.108
55818W        W20979  32.237  22.466  10.768
55819W        W20980  19.839   0.939  13.492
55820W        W20981   0.382  22.949   3.726
55821W        W20982   3.031   9.864   2.269
55822W        W20983   5.886  33.217   1.241
55823W        W20984  33.026   0.353  14.697
55824W        W20985   7.897  10.361  10.785
55825W        W20986   1.969  18.282   2.274
55826W        W20987  36.624   7.339  11.583
55827W        W20988  41.592  42.124  13.871
55828W        W20989  36.373  10.023  13.349
55829W        W20990  10.878  17.563   0.796
55830W        W20991   0.302   5.309  10.650
55831W        W20992  22.492  14.696  14.752
55832W        W20993  41.272  36.932   0.245
55833W        W20994  25.069  21.186  13.609
55834W        W20995  29.500  12.428   3.302
55835W        W20996   0.802   3.310  13.551
55836W        W20997  10.687  18.087   1.897
55837W        W20998  44.073  17.239   3.177
55838W        W20999  37.505  25.762   0.651
55839W        W21000  11.839   4.754   0.746
55840W        W21001  37.905  44.362  14.249
55841W        W21002  16.172  14.568  10.981
55842W        W21003  27.180  29.669  13.931
55843W        W21004  22.141   6.387  11.711
55844W        W21005  30.072  38.172  12.296
55845W        W21006  11.237  16.685   1.854
55846W        W21007   6.288   7.808  13.604
55847W        W21008   8.204  10.446   3.814
55848W        W21009  19.424  35.903   3.608
55849W        W21010  40.250   1.459   1.781
55850W        W21011  19.797   1.919  12.165
55851W        W21012   3.868  23.824  11.911
55852W        W21013   6.817  33.511   1.823
55853W        W21014   6.366   7.641   3.585
55854W        W21015  16.758  44.355   2.836
55855W        W21016  23.031   3.525   1.756
55856W        W21017  43.832  26.685   3.710
55857W        W21018  26.214  17.722   1.803
55858W        W21019  28.608  31.904   0.527
55859W        W21020  44.208   9.362  11.491
55860W        W21021  23.541  17.447   3.001
55861W        W21022   9.521  34.596  14.904
55862W        W21023  20.590   0.390   2.297
55863W        W21024  27.202   8.673   4.558
55864W        W21025  38.869   0.487   1.696
55865W        W21026  11.973  34.906   4.590
55866W        W21027   8.403  41.909  10.735
55867W        W21028  42.876  40.216  14.720
55868W        W21029  15.260  34.373  12.503
55869W        W21030  27.859  33.788   9.933
55870W        W21031   9.790  19.766  13.800
55871W        W21032  14.300  21.664   1.389
55872W        W21033   1.774  37.441   1.643
55873W        W21034  34.521  14.421   3.297
55874W        W21035  41.307  20.132   3.779
55875W        W21036   1.840   5.760  13.087
55876W        W21037   7.769   0.014  13.884
55877W        W21038  39.805   8.179   1.468
55878W        W21039  37.900   9.807   1.613
55879W        W21040  42.557  22.089   2.108
55880W        W21041   9.900  35.662   4.424
55881W        W21042  25.391  34.451  13.553
55882W        W21043  22.242  29.647   4.239
55883W        W21044  11.507  40.980  10.487
55884W        W21045  39.053  33.934   1.917
55885W        W21046   3.733  10.296  11.893
55886W        W21047  27.690  20.722  14.830
55887W        W21048  38.955  30.423   0.283
55888W        W21049  20.023  30.117  10.439
55889W        W21050   4.441  10.108   2.796
55890W        W21051  13.595  41.000   3.757
55891W        W21052  42.656   3.224  11.616
55892W        W21053  39.139  35.070   4.193
55893W        W21054  38.496  21.519   2.247
55894W        W21055  40.880   1.981  14.656
55895W        W21056  13.156  43.973   2.459
55896W        W21057  43.344  33.717   2.809
55897W        W21058  41.408  43.232  11.884
55898W        W21059  24.014  39.445   3.251
55899W        W21060  10.059  31.914  12.943
55900W        W21061  23.777   5.747  13.882
55901W        W21062   7.863  39.304  13.600
55902W        W21063  35.876  13.813  13.573
55903W        W21064  37.253   0.721   0.052
55904W        W21065  44.220  28.475  10.255
55905W        W21066  19.433  15.870  10.662
55906W        W21067  42.989  44.177   2.800
55907W        W21068  37.833  29.975  11.531
55908W        W21069   5.179   8.480   4.368
55909W        W21070  16.866  18.599   1.228
55910W        W21071  37.534  31.969   0.389
55911W        W21072  27.047  43.870   4.598
55912W        W21073  28.651  13.169  14.278
55913W        W21074  20.015  19.620  10.980
55914W        W21075  27.154  29.659  11.118
55915W        W21076  17.292  22.718  14.477
55916W        W21077  34.320   3.898  11.893
55917W        W21078  29.608   9.258   2.802
55918W        W21079  23.046  11.725  12.023
55919W        W21080  39.624   0.921  13.326
55920W        W21081  18.436   1.501   1.719
55921W        W21082   2.568  37.455  10.705
55922W        W21083  11.527  19.588   1.561
55923W        W21084  34.999   3.431  13.525
55924W        W21085   4.333  28.963   3.489
55925W        W21086  20.172  10.658   0.184
55926W        W21087  22.958  23.289  11.315
55927W        W21088   8.173  18.257  12.387
55928W        W21089  22.267   1.557   4.354
55929W        W21090  10.805  36.018   1.449
55930W        W21091   6.924  33.208   3.575
55931W        W21092  23.478  37.096  12.559
55932W        W21093  38.574  26.535  12.859
55933W        W21094  24.235  20.575  14.524
55934W        W21095  43.973  14.049  11.582
55935W        W21096   2.778   9.753   2.690
55936W        W21097  41.292  13.590  14.925
55937W        W21098  21.700   5.719   1.260
55938W        W21099   4.679  18.297   2.111
55939W        W21100  20.674  36.779   1.729
55940W        W21101  22.603  41.584   3.269
55941W        W21102   4.572  24.009  10.418
55942W        W21103  13.262  12.184  12.682
55943W        W21104  27.998  32.591  10.767
55944W        W21105  43.933  15.049   2.299
55945W        W21106  15.699   2.706  13.273
55946W        W21107  10.232   0.813  13.471
55947W        W21108  29.683  17.649  14.057
55948W        W21109   5.707   6.469   4.171
55949W        W21110   7.488  16.467  14.888
55950W        W21111  21.039  28.197  10.704
55951W        W21112  44.944   7.304  14.860
55952W        W21113  33.467  33.441   3.040
55953W        W21114  38.484  22.040   2.266
55954W        W21115  25.322  10.397  13.985
55955W        W21116  31.328  25.769  10.673
55956W        W21117  37.485  30.352   1.451
55957W        W21118  13.710  17.425   2.662
55958W        W21119  10.070  26.145   0.384
55959W        W21120   4.197  10.632  11.642
55960W        W21121  28.030  35.336  10.756
55961W        W21122   8.288  13.787  14.499
55962W        W21123  40.507  39.296   2.251
55963W        W21124  20.370  39.533  14.416
55964W        W21125  26.706  31.755  10.832
55965W        W21126  37.404  10.550  11.512
55966W        W21127   6.938  13.435   1.918
55967W        W21128  35.313  15.262   4.273
55968W        W21129   6.946  41.565   2.872
55969W        W21130  21.699   5.843   2.210
55970W        W21131  19.494  20.016  13.891
55971W        W21132   4.220  18.766   1.764
55972W        W21133  30.342  34.802  12.115
55973W        W21134  44.756  43.048   3.604
55974W        W21135  10.295  22.447   1.371
55975W        W21136  34.905  32.465   3.895
55976W        W21137   5.107  13.991  13.064
55977W        W21138  27.074  14.574   0.763
55978W        W21139  16.113  32.381  13.309
55979W        W21140   3.559  35.011  12.121
55980W        W21141  12.099  23.522   3.217
55981W        W21142  20.244  44.023  12.002
55982W        W21143  12.538  17.720   4.125
55983W        W21144  38.033  17.765   2.894
55984W        W21145   5.800   4.779   3.144
55985W        W21146   8.173  34.960   3.686
55986W        W21147  44.566  42.917  14.523
55987W        W21148   7.943  15.232  11.008
55988W        W21149  39.805   2.347   4.071
55989W        W21150  44.333  11.595   0.456
55990W        W21151  29.023  30.053   4.380
55991W        W21152  30.289   8.758   2.705
55992W        W21153  14.854   0.853   2.163
55993W        W21154  44.442  43.316  11.104
55994W        W21155  30.583  19.110   3.086
55995W        W21156   0.208  32.236   3.093
55996W        W21157   2.469   9.205   0.276
55997W        W21158  40.888  30.522  14.521
55998W        W21159  16.171  23.245   3.607
55999W        W21160   6.020  23.144  10.753
56000W        W21161  17.648  28.592  14.077
56001W        W21162  23.743  27.114  11.585
56002W        W21163  12.140  15.681  14.251
56003W        W21164  10.309  34.431   4.255
56004W        W21165  22.761  40.920  11.671
56005W        W21166  32.250  35.875   4.853
56006W        W21167  21.065  30.001  11.509
56007W        W21168  39.295  17.487   0.845
56008W        W21169  27.124  10.652  10.225
56009W        W21170  35.799  17.206   4.099
56010W        W21171  11.429   6.891   1.942
56011W        W21172   4.845  13.616  10.942
56012W        W21173  21.237   2.272  12.008
56013W        W21174  36.527  35.545  10.621
56014W        W21175  27.936  37.891   1.343
56015W        W21176  44.198  11.984   1.376
56016W        W21177   5.204  13.746  10.614
56017W        W21178  36.830   8.357   4.462
56018W        W21179  10.130   9.212   2.679
56019W        W21180   4.241  41.425  10.634
56020W        W21181  19.009  33.859  13.369
56021W        W21182  13.596   0.741   3.322
56022W        W21183   4.003  44.215   0.884
56023W        W21184  20.001  24.849  14.924
56024W        W21185  42.350  37.621   3.483
56025W        W21186  16.648  33.649  10.528
56026W        W21187  40.427  32.072   4.971
56027W        W21188   9.295  24.292  12.484
56028W        W21189  39.435   8.898  12.860
56029W        W21190  43.605   9.510   0.799
56030W        W21191  39.270   5.181  13.999
56031W        W21192  18.738  22.539   2.264
56032W        W21193  40.830   8.950  14.526
56033W        W21194  36.872  12.830   3.866
56034W        W21195  31.371  28.076   3.950
56035W        W21196  32.603  31.635  14.941
56036W        W21197  37.706  10.536  12.510
56037W        W21198   0.217   6.213   4.069
56038W        W21199   1.197  44.467   4.841
56039W        W21200  28.020   8.255  12.379
56040W        W21201  42.704   6.940   0.263
56041W        W21202  32.102   3.623  13.284
56042W        W21203  33.465   1.124   4.827
56043W        W21204  22.835  25.241   5.010
56044W        W21205   7.799  21.512  14.828
56045W        W21206   2.244  27.048   1.487
56046W        W21207  21.498  38.978   2.305
56047W        W21208  35.609  27.157  12.674
56048W        W21209  29.100   5.371  13.366
56049W        W21210  29.372  42.235   0.941
56050W        W21211  33.092   1.149   0.373
56051W        W21212  26.640  20.120  10.456
56052W        W21213  43.467   4.983   4.059
56053W        W21214  17.078  36.596  13.090
56054W        W21215  40.423   6.058   1.757
56055W        W21216   9.028  44.766  10.449
56056W        W21217   4.626  10.559   4.276
56057W        W21218  23.074  35.170   2.726
56058W        W21219  27.990   9.866  14.436
56059W        W21220  29.942  29.181  11.922
56060W        W21221  34.315  23.777  12.404
56061W        W21222  27.967  39.571  10.117
56062W        W21223   1.342  43.763  11.401
56063W        W21224  16.575  29.907  14.289
56064W        W21225  34.328  28.395  14.409
56065W        W21226   1.301  25.679  14.184
56066W        W21227  21.567  43.711   4.078
56067W        W21228  14.578   0.963   3.159
56068W        W21229  18.003   3.598  11.538
56069W        W21230  20.904  11.625   5.020
56070W        W21231  27.628   1.378   0.256
56071W        W21232  16.245   9.367   1.466
56072W        W21233  37.079  22.702  11.536
56073W        W21234  13.274  37.850   1.483
56074W        W21235   2.767   8.441  10.720
56075W        W21236  13.609  26.210  13.882
56076W        W21237   5.879  39.275  13.497
56077W        W21238  11.309  27.784  11.840
56078W        W21239  17.895  31.413  14.989
56079W        W21240   8.195  35.237  10.773
56080W        W21241   5.796  40.000  14.440
56081W        W21242  43.953  32.001   4.612
56082W        W21243   7.793   1.950   0.784
56083W        W21244  21.327  13.142  12.062
56084W        W21245   9.198  20.682   2.843
56085W        W21246  20.107   3.159   2.255
56086W        W21247   6.132  26.627  11.603
56087W        W21248  44.467  40.447  10.622
56088W        W21249  36.395  36.909  12.894
56089W        W21250  13.272  24.444   3.864
56090W        W21251   6.918  16.200   1.185
56091W        W21252  12.608  17.531  14.332
56092W        W21253   4.761  43.757   1.463
56093W        W21254  44.443  14.747   0.354
56094W        W21255  31.104  38.041  11.165
56095W        W21256  23.469  12.740   3.254
56096W        W21257  33.456  32.957  14.451
56097W        W21258   9.683  24.731   0.441
56098W        W21259  34.583  21.223  14.859
56099W        W21260  44.941   3.883  12.372
56100W        W21261   8.344  18.520  10.969
56101W        W21262  42.384   5.991  10.611
56102W        W21263   2.406  43.536  12.922
56103W        W21264  44.292  32.977  11.577
56104W        W21265   8.166  30.593  10.717
56105W        W21266  20.733  13.560   2.362
56106W        W21267  42.839  28.612   4.639
56107W        W21268  33.737  32.560  14.306
56108W        W21269   0.960  44.931  14.063
56109W        W21270  12.725  16.611   1.487
56110W        W21271  22.986   0.721  10.898
56111W        W21272  22.567  38.665   3.191
56112W        W21273  43.097  25.282  11.211
56113W        W21274  18.664  43.032  13.410
56114W        W21275   8.706  19.510   4.130
56115W        W21276  39.905  18.999   0.277
56116W        W21277  23.108   9.829   1.302
56117W        W21278  44.277  15.353  11.572
56118W        W21279   7.753  39.127   0.462
56119W        W21280  43.450  42.505   4.080
56120W        W21281  43.059  42.406   0.783
56121W        W21282   9.205   6.423   3.102
56122W        W21283   7.405  35.918  10.709
56123W        W21284   0.430  34.582  14.965
56124W        W21285  14.100  10.439   1.131
56125W        W21286   0.040   3.387   3.171
56126W        W21287  31.406  22.653  12.676
56127W        W21288  33.016  15.173   0.075
56128W        W21289   0.278  29.945  10.689
56129W        W21290  19.767  17.114  14.863
56130W        W21291  13.320  16.622  11.207
56131W        W21292  25.213  40.840   4.029
56132W        W21293   4.231   8.401  11.526
56133W        W21294  27.462  24.819   4.994
56134W        W21295   5.917  24.604   0.028
56135W        W21296  37.065  32.802   4.784
56136W        W21297  28.575  30.469  11.881
56137W        W21298  29.618  10.212   1.224
56138W        W21299   5.856  13.721   3.909
56139W        W21300   1.847  14.582  14.972
56140W        W21301  12.640  23.962  10.654
56141W        W21302  24.223  34.369   3.636
56142W        W21303  26.045  19.438   0.519
56143W        W21304  16.244  14.224   2.207
56144W        W21305   5.472  15.271   2.240
56145W        W21306   4.422   8.328   3.060
56146W        W21307  14.897  28.707  14.893
56147W        W21308  26.622  17.181   5.059
56148W        W21309  42.451  21.662  11.402
56149W        W21310  40.242  30.581   0.013
56150W        W21311  21.339  40.569   5.319
56151W        W21312  38.558  26.559   0.775
56152W        W21313   1.956  36.871   9.730
56153W        W21314  38.609  44.788   3.642
56154W        W21315   8.241  37.484  11.042
56155W        W21316  35.603  40.751  12.064
56156W        W21317  40.450  34.310   3.723
56157W        W21318  26.556  35.484   0.794
56158W        W21319   7.970  28.762  12.606
56159W        W21320  28.725   9.672   3.085
56160W        W21321   1.461  35.390   2.880
56161W        W21322  12.291  42.379   3.629
56162W        W21323   9.282  28.070   0.164
56163W        W21324   2.424  12.378   0.760
56164W        W21325  14.295  11.236   0.026
56165W        W21326  22.128   0.304  14.880
56166W        W21327  12.211  22.106  10.663
56167W        W21328  16.688  32.987   3.219
56168W        W21329  31.673  11.363  11.730
56169W        W21330   9.839  25.743  13.955
56170W        W21331  23.738  43.420   1.822
56171W        W21332  42.490  39.891  12.887
56172W        W21333  12.608  42.836  10.480
56173W        W21334  35.050  13.772  12.066
56174W        W21335  41.438  12.031  14.857
56175W        W21336  24.026  36.538   4.309
56176W        W21337  19.308  34.859  12.788
56177W        W21338  14.665  14.877   2.252
56178W        W21339  28.091  29.987  13.458
56179W        W21340  12.757  22.262   2.355
56180W        W21341  12.836  17.120  14.821
56181W        W21342   6.640  37.095   4.238
56182W        W21343   4.442  38.840   2.776
56183W        W21344  35.501  42.500  11.473
56184W        W21345  10.272  34.766   0.417
56185W        W21346  38.390  28.214   3.371
56186W        W21347  11.447  36.112   0.451
56187W        W21348  30.900  23.952  12.797
56188W        W21349  18.002  42.944  10.848
56189W        W21350  16.091  15.415   2.819
56190W        W21351  39.339  29.450   4.230
56191W        W21352   2.466  34.851   4.376
56192W        W21353  36.146   1.303  11.074
56193W        W21354  40.906   1.419  10.903
56194W        W21355  40.803  36.864  11.777
56195W        W21356  30.664   7.363   4.171
56196W        W21357  29.162  27.375  10.739
56197W        W21358  23.869   6.227  14.513
56198W        W21359  27.190  19.710  11.897
56199W        W21360  22.237  11.451   0.654
56200W        W21361  34.986  13.140   1.006
56201W        W21362  17.604  17.264   3.636
56202W        W21363  36.623  21.207  14.605
56203W        W21364  26.833  42.433  12.507
56204W        W21365  24.642  13.329  14.953
56205W        W21366  35.910  22.543  12.972
56206W        W21367   6.209   6.777   0.070
56207W        W21368  15.742  20.926  14.606
56208W        W21369  40.474  44.496  14.992
56209W        W21370  24.307  15.817   0.744
56210W        W21371  26.669  15.858   2.832
56211W        W21372  32.925  17.982   4.029
56212W        W21373  38.071  38.786   0.812
56213W        W21374  12.735   3.964  13.972
56214W        W21375  27.209  25.616  12.000
56215W        W21376  44.793   4.205   0.844
56216W        W21377  40.559  44.727  13.978
56217W        W21378  25.220  37.032   5.137
56218W        W21379  20.528   2.921   0.324
56219W        W21380  44.000  21.507   3.295
56220W        W21381  39.910   0.029  12.818
56221W        W21382  18.176  10.763   4.405
56222W        W21383  26.507  39.404  14.987
56223W        W21384   1.458  42.258   1.154
56224W        W21385  11.700   5.002   4.052
56225W        W21386  22.230  22.995   3.340
56226W        W21387  17.230   7.822  11.283
56227W        W21388  26.996  30.950  14.323
56228W        W21389  10.374  40.037   3.570
56229W        W21390  20.544  23.984  14.747
56230W        W21391  35.802  36.490  13.896
56231W        W21392  36.550  34.024   4.574
56232W        W21393  42.771   8.377   4.062
56233W        W21394  12.838  28.963   1.768
56234W        W21395   1.776  17.748   1.419
56235W        W21396   6.225  11.603  11.530
56236W        W21397  15.623  40.977   0.023
56237W        W21398  14.769  24.899  12.517
56238W        W21399  41.333  11.802   0.349
56239W        W21400  19.169  27.456   3.735
56240W        W21401  27.311  38.559   1.323
56241W        W21402  16.504  28.827   3.611
56242W        W21403   4.264   0.803  11.921
56243W        W21404  12.592  19.620  11.546
56244W        W21405   8.410  11.879  10.611
56245W        W21406  34.599   8.711  10.766
56246W        W21407  41.106  42.334  13.846
56247W        W21408  35.020  20.766  10.622
56248W        W21409  44.687  44.585  11.177
56249W        W21410  19.826  20.720  10.652
56250W        W21411  44.706  19.057   4.479
56251W        W21412  42.728  41.024   0.740
56252W        W21413   7.139  20.558   3.331
56253W        W21414  13.850  40.878  14.733
56254W        W21415  38.100  39.313  11.650
56255W        W21416  30.909   8.793   0.730
56256W        W21417  32.623  10.097   4.856
56257W        W21418  32.541  14.880   3.052
56258W        W21419  21.730   9.156   1.426
56259W        W21420  38.511  32.258  14.835
56260W        W21421  19.028  38.390   2.338
56261W        W21422  19.493  20.139  11.442
56262W        W21423  29.204  13.684   3.746
56263W        W21424   6.970  33.597  13.408
56264W        W21425  15.627  29.702   1.274
56265W        W21426  15.354  31.713  11.244
56266W        W21427  29.960  11.783  11.418
56267W        W21428  30.134  17.083  11.101
56268W        W21429  29.628  17.697   0.359
56269W        W21430  23.187  30.035  12.271
56270W        W21431   7.726   7.850   0.665
56271W        W21432   9.730   4.249  14.874
56272W        W21433  42.489  41.409  12.370
56273W        W21434  32.797  34.831   1.211
56274W        W21435  26.430  43.519  12.558
56275W        W21436  29.052  22.978  14.984
56276W        W21437  44.894  35.961   3.240
56277W        W21438  18.464  10.209  13.294
56278W        W21439   6.820  21.007  14.991
56279W        W21440  35.413  15.734  10.898
56280W        W21441   9.362  44.864  13.773
56281W        W21442  39.560  19.585   0.393
56282W        W21443  12.330   5.658   4.207
56283W        W21444   5.724  14.145   1.639
56284W        W21445  32.555  24.432   4.463
56285W        W21446  32.671  12.810   2.779
56286W        W21447   7.912  16.203   4.615
56287W        W21448  39.537   1.000   0.069
56288W        W21449   8.229  11.382  10.641
56289W        W21450  18.326  21.335  11.449
56290W        W21451   6.834  23.074   4.110
56291W        W21452   3.494  22.864   2.598
56292W        W21453   0.818   6.235  13.827
56293W        W21454   5.113  26.541  14.011
56294W        W21455   0.418  14.561   0.403
56295W        W21456  43.311  11.604   1.654
56296W        W21457  25.815  12.576   1.686
56297W        W21458   4.008  10.930   2.278
56298W        W21459  11.211  37.146  14.306
56299W        W21460   7.694  35.954   1.402
56300W        W21461  18.909  17.451  11.575
56301W        W21462  10.294  23.615  10.668
56302W        W21463  12.612   9.385   3.777
56303W        W21464  35.933   4.722   0.401
56304W        W21465  39.913  33.403  12.656
56305W        W21466  38.325   4.219  12.299
56306W        W21467  44.776   5.925  12.514
56307W        W21468  14.714  13.335   2.126
56308W        W21469   0.977  14.889   2.838
56309W        W21470  22.294   9.721   2.224
56310W        W21471   4.736  36.843  11.461
56311W        W21472   1.921   2.090   3.675
56312W        W21473   4.939  39.317   0.905
56313W        W21474  34.199  12.094   2.244
56314W        W21475   9.756   6.957  13.948
56315W        W21476  11.862   1.402  11.598
56316W        W21477  42.011  25.255  11.376
56317W        W21478   3.824  43.164  13.727
56318W        W21479   9.712   0.950  14.482
56319W        W21480  36.221   9.922   1.186
56320W        W21481  43.940  14.101   1.829
56321W        W21482  18.068  43.700  11.314
56322W        W21483  31.803   6.031   0.801
56323W        W21484  42.085   7.384   2.953
56324W        W21485  14.663  11.402   0.342
56325W        W21486  16.993  15.532  10.741
56326W        W21487  20.582  40.853   3.371
56327W        W21488  43.515   2.990   1.916
56328W        W21489  16.315  16.692  12.574
56329W        W21490  29.179  38.443  11.015
56330W        W21491  40.070  21.207   3.326
56331W        W21492   5.626  24.585   1.347
56332W        W21493   9.271  16.878  14.313
56333W        W21494  30.504  41.044   1.296
56334W        W21495  19.135  41.506   4.115
56335W        W21496  35.436  12.854   1.600
56336W        W21497  38.870  19.152   2.725
56337W        W21498  10.219   4.276  12.900
56338W        W21499  16.819  25.797   4.120
56339W        W21500  42.270   2.203  11.526
56340W        W21501  21.043  19.548  12.930
56341W        W21502  31.781   1.745   4.422
56342W        W21503  28.686  14.134  14.398
56343W        W21504   1.302  31.146  14.992
56344W        W21505  30.101  22.485  13.922
56345W        W21506  23.228  18.324  14.279
56346W        W21507   0.918  43.039  10.735
56347W        W21508  38.913  34.515  14.134
56348W        W21509   6.184  10.761   4.334
56349W        W21510  42.388  11.961   1.785
56350W        W21511  36.919  35.595   3.580
56351W        W21512  10.276  20.337   4.604
56352W        W21513  14.710  31.977  10.464
56353W        W21514  12.397  12.208   1.932
56354W        W21515  20.735   4.344   1.205
56355W        W21516  16.295   4.458  11.958
56356W        W21517   8.880  34.414   2.150
56357W        W21518  26.424  17.351   0.292
56358W        W21519  28.769  18.968  11.125
56359W        W21520  28.650  13.916   2.705
56360W        W21521  36.158  17.971   4.432
56361W        W21522  13.945  26.022   2.558
56362W        W21523  42.378  24.836   3.073
56363W        W21524  35.434  31.161   1.986
56364W        W21525  18.968  38.792   0.917
56365W        W21526  44.758  11.901   0.402
56366W        W21527  37.544   2.508   5.069
56367W        W21528  15.109  10.843  12.766
56368W        W21529  39.008   7.024  10.500
56369W        W21530  37.416   1.170  14.877
56370W        W21531  17.157  23.231  13.636
56371W        W21532  15.633  25.167  10.592
56372W        W21533   1.945   2.357  14.394
56373W        W21534  16.722   9.212  10.457
56374W        W21535  10.691   0.614   4.817
56375W        W21536  33.584   0.283  11.534
56376W        W21537  15.213  33.626  12.822
56377W        W21538  25.653  23.155   4.539
56378W        W21539   3.599  36.489  14.261
56379W        W21540   8.408  19.031   1.731
56380W        W21541   3.931  25.485   5.072
56381W        W21542  34.459  17.276  14.489
56382W        W21543  38.894  28.659  12.351
56383W        W21544   3.364   2.310   1.965
56384W        W21545  26.968   5.929  13.845
56385W        W21546   3.254   4.040  12.050
56386W        W21547  18.953  26.563  13.826
56387W        W21548  12.297   1.825   0.900
56388W        W21549   9.259   3.981   3.702
56389W        W21550  20.814   8.269  11.970
56390W        W21551  32.653  36.756  12.435
56391W        W21552  30.923  14.212  13.186
56392W        W21553  28.037  28.068  12.889
56393W        W21554  38.314  32.044   2.900
56394W        W21555   4.070  19.692  13.422
56395W        W21556  37.369  12.285   3.762
56396W        W21557  20.630  43.673   0.228
56397W        W21558  38.254  20.112   4.348
56398W        W21559  28.133  42.364   0.368
56399W        W21560  32.494  35.202  11.846
56400W        W21561  43.403  43.369   0.896
56401W        W21562   3.499  11.343   1.327
56402W        W21563  26.096  34.128   4.389
56403W        W21564  18.855  44.028  11.785
56404W        W21565  26.024  44.955  10.934
56405W        W21566   9.143  21.175  10.540
56406W        W21567  24.131   4.459   0.693
56407W        W21568   6.294  24.357  14.756
56408W        W21569  12.325  15.245  13.946
56409W        W21570  41.461  16.584  11.282
56410W        W21571  42.258  42.882  12.328
56411W        W21572  42.879   7.527  14.856
56412W        W21573  25.426  42.286   0.703
56413W        W21574   1.225   3.016  10.699
56414W        W21575  10.708   5.109   4.630
56415W        W21576  39.962  28.295  13.899
56416W        W21577   0.299  10.629   5.247
56417W        W21578  13.162  32.562  12.400
56418W        W21579   2.870  34.557  11.729
56419W        W21580  17.308  34.119  13.847
56420W        W21581  22.192  17.331   2.660
56421W        W21582   1.773  38.639  13.465
56422W        W21583  35.852  37.061   0.470
56423W        W21584  11.569   2.330  14.937
56424W        W21585  17.709  43.394   4.938
56425W        W21586  36.654  21.568  11.001
56426W        W21587  26.533  17.795  11.996
56427W        W21588  28.936   6.251  13.872
56428W        W21589  40.952  33.887   1.428
56429W        W21590   3.430  30.032  13.561
56430W        W21591  12.810  11.372   1.679
56431W        W21592  24.197  30.990  11.971
56432W        W21593  20.065  33.365  12.975
56433W        W21594  10.925  15.400   4.294
56434W        W21595  10.072  10.981   1.137
56435W        W21596   2.309  42.718   2.731
56436W        W21597  15.213   2.363   4.725
56437W        W21598  24.007  13.067   1.201
56438W        W21599  18.154  33.445   3.174
56439W        W21600  13.733  21.009   1.855
56440W        W21601  42.502  28.426   2.804
56441W        W21602   7.193  32.792  11.133
56442W        W21603  31.822  35.503  13.041
56443W        W21604   7.919  20.470   2.405
56444W        W21605  19.861  12.128  11.562
56445W        W21606  44.298   4.853   0.908
56446W        W21607   9.149  40.547   3.356
56447W        W21608  11.140  41.540  12.687
56448W        W21609  13.438  32.236  14.885
56449W        W21610  35.146  31.899   0.302
56450W        W21611  21.075  31.655  13.341
56451W        W21612  13.706  16.727   1.313
56452W        W21613  38.623  15.742  11.119
56453W        W21614  34.628  31.822  13.029
56454W        W21615  16.522  35.125  14.767
56455W        W21616   1.072  10.916   1.822
56456W        W21617  18.046  23.081   2.719
56457W        W21618  18.204  21.556   2.769
56458W        W21619  32.011  18.365  13.649
56459W        W21620  33.524   3.761   4.633
56460W        W21621   3.271  16.675   5.610
56461W        W21622  10.759  41.031  12.923
56462W        W21623   2.684  10.112  14.562
56463W        W21624  17.639  11.656  11.391
56464W        W21625   3.383  21.249   0.183
56465W        W21626   8.392  27.145   0.396
56466W        W21627  40.797  17.573  12.742
56467W        W21628  37.976  16.849   3.288
56468W        W21629   9.628   8.724  14.806
56469W        W21630   3.497  30.976   2.223
56470W        W21631  35.264  41.299  11.278
56471W        W21632  32.280  19.071   1.771
56472W        W21633  44.179   3.886   5.026
56473W        W21634  14.709  29.368  13.828
56474W        W21635  26.205   6.873   1.618
56475W        W21636   2.701  32.470  12.884
56476W        W21637  35.816  15.227   1.635
56477W        W21638  22.541   4.258  11.787
56478W        W21639  21.237   0.304   4.611
56479W        W21640  33.231  25.491  13.221
56480W        W21641  12.220   2.233   2.358
56481W        W21642  42.878  22.184  12.069
56482W        W21643  44.347  34.609  10.827
56483W        W21644  41.424  20.043   3.246
56484W        W21645   4.818  18.843  10.718
56485W        W21646  19.339  17.591  10.278
56486W        W21647  17.342  14.674  12.781
56487W        W21648   4.467  16.331  10.918
56488W        W21649  18.555  37.557   2.661
56489W        W21650  10.198  44.289  13.386
56490W        W21651  26.671  11.081   1.033
56491W        W21652  42.812  15.502  11.032
56492W        W21653  42.105  38.222   1.779
56493W        W21654  26.493  15.813  11.968
56494W        W21655  10.811  42.448  10.702
56495W        W21656  10.223  32.102   2.910
56496W        W21657   0.796  15.796   3.182
56497W        W21658  14.924  31.183   4.070
56498W        W21659  25.113  39.412   2.373
56499W        W21660   5.980   0.180   2.036
56500W        W21661  27.891  40.799  13.589
56501W        W21662  37.622  22.536   1.894
56502W        W21663   2.081  42.591  11.590
56503W        W21664  39.095  16.858   4.496
56504W        W21665  32.887  32.404  12.339
56505W        W21666   5.005  16.788  12.691
56506W        W21667   5.337   3.841   4.907
56507W        W21668   7.747  29.506  14.315
56508W        W21669  19.629  23.944   2.344
56509W        W21670  36.436   6.287  13.437
56510W        W21671  12.059  10.145   4.966
56511W        W21672  42.933  20.686   0.006
56512W        W21673  17.532  38.803  13.775
56513W        W21674  15.115   2.534  14.299
56514W        W21675  24.695  14.352  12.917
56515W        W21676   8.849   8.326  14.431
56516W        W21677  27.074  44.095   0.892
56517W        W21678  15.210   8.367   3.144
56518W        W21679  12.249  22.795   3.514
56519W        W21680  24.241  44.159  13.995
56520W        W21681  34.716  24.550  10.243
56521W        W21682   4.688  24.167   4.087
56522W        W21683  11.854  39.427  12.054
56523W        W21684  34.998   1.444  12.620
56524W        W21685  18.882   1.851   0.476
56525W        W21686  24.008  25.473   4.113
56526W        W21687  13.206  12.454  10.196
56527W        W21688  34.217  14.613   4.637
56528W        W21689   8.713  13.827   0.315
56529W        W21690   4.118  38.080   0.429
56530W        W21691  30.477  13.313  14.306
56531W        W21692  14.137  25.057  12.982
56532W        W21693  20.505  24.105  13.321
56533W        W21694   2.187  18.845  12.186
56534W        W21695  41.281  17.580  14.709
56535W        W21696  37.018  22.606  14.763
56536W        W21697   0.006   4.753  13.391
56537W        W21698  22.633   7.699  11.554
56538W        W21699  35.599  42.931   4.209
56539W        W21700   9.459   9.789  12.949
56540W        W21701  27.030  30.478   3.749
56541W        W21702   6.373   8.805   1.868
56542W        W21703  39.505   3.593  13.743
56543W        W21704  18.384   5.616  14.565
56544W        W21705  43.849  31.336  13.489
56545W        W21706  20.431   4.127  12.943
56546W        W21707  35.312   8.498  11.207
56547W        W21708  31.457   5.695   0.482
56548W        W21709  26.548  34.045  12.251
56549W        W21710  42.614   4.488  11.673
56550W        W21711  29.446  14.141   3.766
56551W        W21712   6.291  35.217  14.691
56552W        W21713  32.192   2.715  12.820
56553W        W21714   4.929  30.239  12.416
56554W        W21715   2.688  34.327  12.151
56555W        W21716   2.412  34.592  13.114
56556W        W21717  23.972  42.432   3.146
56557W        W21718  14.652  16.268   2.380
56558W        W21719  21.540  31.401  14.094
56559W        W21720   7.170  31.831   1.258
56560W        W21721  13.753  18.713  13.629
56561W        W21722  43.482   6.390   0.346
56562W        W21723   5.692  40.902  14.707
56563W        W21724   5.048  27.789  13.399
56564W        W21725  25.010   0.976   4.727
56565W        W21726   2.782  43.084  12.047
56566W        W21727  29.908  16.313   3.662
56567W        W21728  35.903  21.585  14.962
56568W        W21729  37.546   2.378   1.626
56569W        W21730  32.596  27.868  12.404
56570W        W21731  33.565  21.592   0.365
56571W        W21732   9.343  41.758   0.448
56572W        W21733  33.395  25.217   3.265
56573W        W21734  34.948  42.489   1.375
56574W        W21735  44.397  20.783   1.379
56575W        W21736  10.120  25.173   4.607
56576W        W21737  25.547  10.868   0.023
56577W        W21738  33.631  36.501   2.092
56578W        W21739  18.153  42.949   1.459
56579W        W21740  28.052  37.988  10.659
56580W        W21741  19.695  21.679   1.017
56581W        W21742   0.845  43.440   0.855
56582W        W21743   9.782  41.389  10.683
56583W        W21744  42.855  11.793   1.500
56584W        W21745  33.918  30.391  13.056
56585W        W21746  38.296   1.375  13.275
56586W        W21747   1.455  22.145  11.079
56587W        W21748  11.189  13.347  11.176
56588W        W21749  29.829   4.154   3.218
56589W        W21750  41.209   3.153  12.565
56590W        W21751  19.610  33.117  14.879
56591W        W21752  32.092  29.664   5.001
56592W        W21753   5.240  31.151   1.957
56593W        W21754  25.489  34.528  11.685
56594W        W21755  30.158  35.632  11.631
56595W        W21756   9.280  24.013   3.241
56596W        W21757   4.918  21.763  10.682
56597W        W21758  19.841   7.489   4.671
56598W        W21759  15.968  24.343  14.989
56599W        W21760   5.520  27.094   0.812
56600W        W21761   7.153  40.028  14.367
56601W        W21762  43.149  39.924   4.569
56602W        W21763  30.332   1.738  12.615
56603W        W21764  24.558   0.215   0.315
56604W        W21765  14.340  12.165   0.852
56605W        W21766  13.797   1.901   2.332
56606W        W21767  38.886  37.820   2.788
56607W        W21768  39.319  21.454   4.042
56608W        W21769   7.412   6.855  11.243
56609W        W21770   1.657  41.546  12.880
56610W        W21771  42.513  41.617  11.902
56611W        W21772   0.366   1.274  10.557
56612W        W21773  35.037  21.761  10.523
56613W        W21774  37.692   0.528   3.021
56614W        W21775  42.978  17.817   3.449
56615W        W21776   0.665  33.936   2.759
56616W        W21777   9.206  38.192  11.539
56617W        W21778  15.791  18.271  14.742
56618W        W21779  13.342  37.567   0.767
56619W        W21780  26.606  39.502  10.777
56620W        W21781  20.054  40.465  13.809
56621W        W21782   8.948  40.069  11.096
56622W        W21783   6.372  42.522   2.753
56623W        W21784  36.004  15.772  14.916
56624W        W21785  42.332  38.826   4.088
56625W        W21786   8.793  25.592  10.484
56626W        W21787  12.197  23.691   1.846
56627W        W21788   2.060   4.977  12.025
56628W        W21789  13.314  24.164   2.048
56629W        W21790  13.881   7.756  14.412
56630W        W21791  37.311  35.604   1.131
56631W        W21792  39.250   3.890   0.987
56632W        W21793  11.390  10.675   1.926
56633W        W21794  26.451  22.294   4.179
56634W        W21795  36.010  35.849  11.431
56635W        W21796   8.257  24.650  14.638
56636W        W21797  18.111  44.606  12.332
56637W        W21798  32.084  20.499   1.772
56638W        W21799  17.064  14.235   3.800
56639W        W21800  30.615  19.766   4.290
56640W        W21801  31.152  18.365   0.134
56641W        W21802  27.201  13.956   2.413
56642W        W21803  37.644  42.729   3.926
56643W        W21804  26.710  16.755   2.363
56644W        W21805  35.814   7.428   1.467
56645W        W21806  15.593  25.091   2.877
56646W        W21807  29.497  38.075  11.961
56647W        W21808   2.602  25.326  10.075
56648W        W21809  44.901   1.770   0.425
56649W        W21810   3.829  32.355  12.826
56650W        W21811  15.250  21.021   2.071
56651W        W21812  21.268  13.372   0.315
56652W        W21813  18.798  35.420  13.803
56653W        W21814   5.822  26.397   1.690
56654W        W21815  39.761  15.639  13.379
56655W        W21816  32.094  42.776   0.905
56656W        W21817  26.045  11.925   2.121
56657W        W21818  22.515  39.563   3.337
56658W        W21819   4.142   1.372  14.615
56659W        W21820   2.829  21.759   1.835
56660W        W21821  35.850  18.351   2.797
56661W        W21822  20.688  43.786   2.818
56662W        W21823  43.065  19.234  12.572
56663W        W21824  43.890  44.938   1.781
56664W        W21825  43.531  27.064   2.261
56665W        W21826  39.121  39.516  14.911
56666W        W21827  34.005  27.930  12.925
56667W        W21828  38.085  26.801   4.016
56668W        W21829  18.599  43.808  10.896
56669W        W21830   3.532  28.007  11.641
56670W        W21831  23.145   5.306  13.375
56671W        W21832  11.579  30.640  13.948
56672W        W21833   7.118   2.734  13.365
56673W        W21834  24.411  23.172   2.763
56674W        W21835  25.638  37.018  12.900
56675W        W21836   5.614   8.373   1.286
56676W        W21837  13.298  22.413   2.221
56677W        W21838  33.668  41.283  14.081
56678W        W21839  37.178  31.924   4.620
56679W        W21840   9.357  11.137   4.183
56680W        W21841  39.063  42.732  14.414
56681W        W21842   7.472  40.346  11.433
56682W        W21843  33.332  11.260   4.420
56683W        W21844   4.784  36.120  13.618
56684W        W21845  10.368   1.930  11.597
56685W        W21846  12.418  36.456   2.156
56686W        W21847  41.404  12.861  13.768
56687W        W21848  41.504   8.084  13.412
56688W        W21849  40.545  19.489  14.035
56689W        W21850   5.509  19.694  13.830
56690W        W21851  17.077  43.375  10.940
56691W        W21852   9.924  34.909  13.503
56692W        W21853  14.632  41.797   2.800
56693W        W21854  24.000  37.469  13.292
56694W        W21855   6.233  14.399   1.203
56695W        W21856  25.994  12.725   2.766
56696W        W21857  44.445   1.188  12.337
56697W        W21858  33.644  23.719  14.486
56698W        W21859  18.656  36.373  13.374
56699W        W21860  15.439  37.039   2.675
56700W        W21861  37.315   1.417  13.564
56701W        W21862  10.431  22.499  14.490
56702W        W21863   4.857  13.014   0.574
56703W        W21864  26.130   7.424   2.571
56704W        W21865   3.535  12.101   0.432
56705W        W21866  12.998  13.669   0.812
56706W        W21867  37.796   0.817  11.884
56707W        W21868  15.808   2.023   1.251
56708W        W21869  24.499  20.432   4.032
56709W        W21870   8.910  14.053   1.304
56710W        W21871  19.496  11.431   1.214
56711W        W21872  19.012   5.813  11.613
56712W        W21873  24.161   4.029  14.864
56713W        W21874   5.167  44.005   2.672
56714W        W21875   6.470  25.300  13.794
56715W        W21876  24.550  21.731   0.779
56716W        W21877  31.488  18.634   3.758
56717W        W21878  16.661   4.867  12.648
56718W        W21879  40.378  10.201  13.588
56719W        W21880  40.464   4.306   3.326
56720W        W21881   6.930  39.053  11.718
56721W        W21882  40.233  23.748  12.142
56722W        W21883  41.638  21.810   3.706
56723W        W21884   6.849   4.288  12.631
56724W        W21885  27.211   3.447   1.892
56725W        W21886  20.074  37.736   3.740
56726W        W21887  31.497  31.774   4.601
56727W        W21888  42.904  15.346   2.230
56728W        W21889  16.768   7.464   2.314
56729W        W21890  13.514  41.862  14.042
56730W        W21891  19.342  19.680  14.249
56731W        W21892  14.847  30.708  11.690
56732W        W21893  21.163  14.771  14.412
56733W        W21894  22.756  34.442   2.370
56734W        W21895  32.428  12.540  11.660
56735W        W21896   7.844  26.544  11.953
56736W        W21897  18.719  43.114   1.360
56737W        W21898   7.296  42.867   0.984
56738W        W21899   8.788  12.841  12.988
56739W        W21900  36.063  35.613  13.866
56740W        W21901  36.490  29.497   1.646
56741W        W21902  34.463   5.788   0.185
56742W        W21903  31.978   7.109   1.379
56743W        W21904  42.519  30.908   2.215
56744W        W21905  41.256  28.427  14.855
56745W        W21906  34.643  27.262   3.407
56746W        W21907  37.068  32.128   0.245
56747W        W21908  40.625  28.460  12.008
56748W        W21909  24.533  17.715   4.114
56749W        W21910  44.479  42.827   4.977
56750W        W21911  34.983  13.682  11.549
56751W        W21912  32.055  41.562   3.946
56752W        W21913   7.131  27.435  13.787
56753W        W21914  14.808  35.718  12.141
56754W        W21915  20.320  16.587  13.984
56755W        W21916   1.511  43.197  14.375
56756W        W21917  26.959  17.818  11.601
56757W        W21918  31.712  39.086  12.865
56758W        W21919   5.869  15.323  11.151
56759W        W21920  21.173  30.568   2.101
56760W        W21921  30.766  30.589  12.973
56761W        W21922  27.736  26.709   0.218
56762W        W21923   1.224  42.992   2.642
56763W        W21924  31.688   0.208   2.879
56764W        W21925  38.618   6.698   0.413
56765W        W21926   9.863  30.589  12.603
56766W        W21927  31.859   8.689  11.249
56767W        W21928  39.215  27.075   0.501
56768W        W21929   5.758  14.303   2.144
56769W        W21930  11.784  25.538  13.546
56770W        W21931  13.691  36.461  13.487
56771W        W21932   0.998  24.125  10.627
56772W        W21933  43.526  14.172  13.156
56773W        W21934  16.767  19.680  13.878
56774W        W21935  22.508  14.601   3.210
56775W        W21936   4.235  32.604  12.006
56776W        W21937  12.116  14.700   3.607
56777W        W21938  22.502   3.157   2.734
56778W        W21939  29.134  40.059   4.103
56779W        W21940  14.844  28.728   3.219
56780W        W21941   7.918  42.402   4.612
56781W        W21942  21.844   2.294   3.343
56782W        W21943   8.166   7.616  14.212
56783W        W21944  32.216   0.584   4.131
56784W        W21945  26.959  44.292   4.288
56785W        W21946  12.912   9.797  14.246
56786W        W21947   0.759  10.709   2.152
56787W        W21948  35.672  31.437   3.588
56788W        W21949  12.263  12.369  13.956
56789W        W21950  21.675  18.849   3.287
56790W        W21951  18.805  33.468  14.049
56791W        W21952  29.469   6.146   2.475
56792W        W21953  27.450  41.311  14.274
56793W        W21954   1.328  35.082   2.468
56794W        W21955  10.627  18.368   0.265
56795W        W21956  28.238  15.536   2.450
56796W        W21957   2.415  27.643  10.336
56797W        W21958  30.677  20.298  13.898
56798W        W21959  12.050   1.720   2.317
56799W        W21960  17.643   9.397  12.902
56800W        W21961  26.957  12.583  13.351
56801W        W21962  35.012  10.393  12.671
56802W        W21963  15.656  30.015  11.601
56803W        W21964  31.291  33.289  11.189
56804W        W21965  39.511  33.936   4.628
56805W        W21966  26.743   8.302   2.178
56806W        W21967  33.883  36.212  11.219
56807W        W21968  36.584  30.181  12.507
56808W        W21969  17.709  41.763   3.223
56809W        W21970  38.008  10.119  12.574
56810W        W21971   2.334  12.931  14.078
56811W        W21972  21.687  29.614   4.105
56812W        W21973  22.568   8.696   1.502
56813W        W21974  17.531  33.720   4.483
56814W        W21975  36.116  34.563  10.777
56815W        W21976  34.579  10.719  10.943
56816W        W21977  16.531  40.250  12.087
56817W        W21978  28.228   2.325  11.230
56818W        W21979  30.657  32.373   4.252
56819W        W21980  21.795  39.046  14.458
56820W        W21981  29.608   1.556  10.687
56821W        W21982   1.340  39.410  12.905
56822W        W21983  18.427  18.615   0.915
56823W        W21984  25.180  21.003   3.589
56824W        W21985   3.503  25.967   2.401
56825W        W21986  22.452  41.452  10.206
56826W        W21987  35.586  37.512  12.500
56827W        W21988  39.915  23.046   2.857
56828W        W21989  41.001  30.181  12.287
56829W        W21990  14.224  26.566   1.604
56830W        W21991  36.044  16.098   1.902
56831W        W21992  43.219  12.756  14.952
56832W        W21993  23.280  28.440   1.311
56833W        W21994  12.213  17.765  13.553
56834W        W21995  20.480  29.100  10.360
56835W        W21996   3.174  24.179   0.400
56836W        W21997  30.153  26.553  11.068
56837W        W21998  38.350   5.813   3.780
56838W        W21999  39.891  13.739   1.500
56839W        W22000  43.843  13.836   3.725
56840W        W22001   6.789  17.319  14.379
56841W        W22002  12.931  15.047   0.487
56842W        W22003  39.673   0.889   2.243
56843W        W22004  19.253  36.568   0.212
56844W        W22005  19.832  24.705  12.444
56845W        W22006   2.650  25.028   0.642
56846W        W22007  30.415  24.125   2.342
56847W        W22008   9.938  20.922  10.532
56848W        W22009  43.834   6.410   3.200
56849W        W22010  25.484  35.095  13.876
56850W        W22011   9.313  37.600  10.810
56851W        W22012  35.392  25.601   1.307
56852W        W22013  44.348  30.908   4.733
56853W        W22014  42.194  25.454  10.553
56854W        W22015  29.615  40.584  11.597
56855W        W22016  40.930   8.632   2.940
56856W        W22017  32.958  28.409  12.103
56857W        W22018   0.968  42.132  12.441
56858W        W22019  27.684   0.251   2.229
56859W        W22020  15.266  44.512   3.807
56860W        W22021  44.938   9.427   2.391
56861W        W22022  26.238  20.723  14.858
56862W        W22023  41.563  32.563  13.041
56863W        W22024  19.997  13.216  14.888
56864W        W22025  36.370   8.175  11.164
56865W        W22026  30.013  20.227   0.049
56866W        W22027  28.250  33.939  14.014
56867W        W22028  32.317   3.238   2.965
56868W        W22029   8.279   5.218  14.035
56869W        W22030  25.734   9.469  13.370
56870W        W22031  20.470  22.010   1.089
56871W        W22032  10.320   9.678   2.847
56872W        W22033  21.201  14.315   4.597
56873W        W22034  33.893  20.299  14.641
56874W        W22035  19.152  34.599   3.260
56875W        W22036  25.671  16.899   2.552
56876W        W22037   3.248  15.869   3.651
56877W        W22038  16.004  42.623  11.131
56878W        W22039  18.212   4.468   2.570
56879W        W22040  11.356   5.899   1.549
56880W        W22041  44.852   8.924  14.582
56881W        W22042  17.356   4.858  10.705
56882W        W22043  11.740  10.704   0.319
56883W        W22044  39.138  40.543  13.566
56884W        W22045  43.921  17.524  14.154
56885W        W22046  33.249  29.589  14.099
56886W        W22047  23.536  19.676   3.601
56887W        W22048  40.865   7.312   0.680
56888W        W22049  29.116  40.410   5.017
56889W        W22050  21.564  12.103  11.494
56890W        W22051  35.467  40.302   1.247
56891W        W22052  17.171  13.197   0.276
56892W        W22053  39.226  33.485   3.631
56893W        W22054  40.011  13.106   0.448
56894W        W22055  42.300  25.698   1.068
56895W        W22056  21.046  32.664  13.004
56896W        W22057  24.201   3.802  11.564
56897W        W22058  14.623  40.655  12.063
56898W        W22059  15.558  16.388   5.495
56899W        W22060   2.230  39.926   4.116
56900W        W22061  30.621  25.973   3.752
56901W        W22062   5.328   3.937  14.782
56902W        W22063  37.974  10.605  10.961
56903W        W22064  33.557  32.973  12.056
56904W        W22065  18.221  26.957   4.656
56905W        W22066  15.590  25.669  14.818
56906W        W22067  44.398  43.033  12.954
56907W        W22068  28.502  23.887  12.916
56908W        W22069   1.855  37.891  14.129
56909W        W22070   9.199  23.773   2.773
56910W        W22071  38.544  16.988  12.897
56911W        W22072  25.304  43.312   0.030
56912W        W22073  12.863  33.489   3.180
56913W        W22074  29.178  44.875   0.752
56914W        W22075   2.452  27.742   4.580
56915W        W22076  23.639  25.784   3.828
56916W        W22077  22.565   8.704  10.493
56917W        W22078  38.911   5.647   0.938
56918W        W22079  22.986  43.689   3.865
56919W        W22080   5.712  38.207  14.862
56920W        W22081   7.715  36.637   3.112
56921W        W22082  41.826   9.583  12.628
56922W        W22083   7.673  20.181   0.615
56923W        W22084  11.803  12.688   4.625
56924W        W22085  23.479  17.263  12.927
56925W        W22086  43.795  26.576   1.782
56926W        W22087  31.845  20.739  14.725
56927W        W22088   7.522  30.161  12.609
56928W        W22089  12.480  15.664  11.968
56929W        W22090  12.539  11.714   1.939
56930W        W22091  34.443  42.059  14.965
56931W        W22092  26.614  12.062   0.509
56932W        W22093   3.408  12.661  11.127
56933W        W22094   5.752  35.074  10.625
56934W        W22095   0.407   6.462   0.066
56935W        W22096  30.914  26.415  13.006
56936W        W22097   6.391   0.304  11.617
56937W        W22098   3.457  13.904   0.031
56938W        W22099  17.749  23.830   2.293
56939W        W22100  14.671  37.861   3.133
56940W        W22101  10.113  43.089  12.795
56941W        W22102  30.798  37.961   2.974
56942W        W22103  14.323  35.955   3.635
56943W        W22104  41.773  24.087   3.290
56944W        W22105  15.719   6.032   2.264
56945W        W22106   5.171  11.655  13.301
56946W        W22107  37.368  25.476  14.317
56947W        W22108  20.312  20.622   3.840
56948W        W22109  30.979  30.728  10.421
56949W        W22110  38.800  20.197   1.793
56950W        W22111  29.121  40.108   2.733
56951W        W22112   8.705  37.171  12.950
56952W        W22113   0.351   4.688   2.620
56953W        W22114  15.722  41.331  10.834
56954W        W22115  30.357  27.143   2.616
56955W        W22116  25.202  25.762  12.975
56956W        W22117   7.825  30.408  11.721
56957W        W22118  35.899  31.093   1.699
56958W        W22119  31.145  26.309  11.194
56959W        W22120  29.676  30.695   1.429
56960W        W22121   2.761  15.398   0.449
56961W        W22122  15.186  35.115  10.965
56962W        W22123  44.514  24.079  13.975
56963W        W22124   7.114  14.614  13.144
56964W        W22125  20.801  38.924  10.593
56965W        W22126  21.342  23.210  13.161
56966W        W22127   4.975  37.068  12.079
56967W        W22128  31.196  13.152   0.955
56968W        W22129  33.501  37.001  13.263
56969W        W22130   9.737  33.425   2.173
56970W        W22131   7.891  33.182   0.770
56971W        W22132  26.770  10.661   3.304
56972W        W22133  31.584  12.110   4.043
56973W        W22134   5.308   5.725  12.949
56974W        W22135  26.715  35.428  12.995
56975W        W22136  31.233  11.978   3.686
56976W        W22137  15.482  14.902   1.258
56977W        W22138  26.969  14.308   0.023
56978W        W22139  20.143  34.414  13.063
56979W        W22140  18.128  40.457   1.480
56980W        W22141   0.379  35.858  13.864
56981W        W22142  18.530   1.775  13.002
56982W        W22143  10.120  40.422   3.313
56983W        W22144  15.602   8.306   2.813
56984W        W22145  24.114   3.233  12.907
56985W        W22146   6.057  37.378   1.777
56986W        W22147  19.359  14.391   1.941
56987W        W22148  20.540  18.691   3.366
56988W        W22149  13.701  43.507   0.718
56989W        W22150  11.220  40.904   4.579
56990W        W22151  22.102   6.256  11.123
56991W        W22152   0.016   2.747   0.714
56992W        W22153  14.544  15.651   4.331
56993W        W22154  15.603  43.493   1.894
56994W        W22155  31.204   8.300   3.513
56995W        W22156  35.264  27.575  11.583
56996W        W22157   2.239  11.046   2.688
56997W        W22158  32.377  41.022  11.114
56998W        W22159   0.927  40.626   2.599
56999W        W22160   7.933  10.796  10.480
57000W        W22161  13.175   2.250  12.551
57001W        W22162  21.127  31.579   2.780
57002W        W22163   9.773   6.176  11.491
57003W        W22164  39.937  34.638   3.896
57004W        W22165  44.223  28.285  11.580
57005W        W22166   2.814  17.830  12.447
57006W        W22167   3.408   5.862   2.868
57007W        W22168   9.217   4.005   4.521
57008W        W22169   8.586  12.732   2.337
57009W        W22170   6.693   0.428  11.216
57010W        W22171  28.420   4.225  11.287
57011W        W22172  35.638  40.660  11.224
57012W        W22173  11.517  25.004   3.587
57013W        W22174  12.357  19.666  14.887
57014W        W22175  44.872  39.072  11.624
57015W        W22176  26.097  21.741  10.013
57016W        W22177   3.475  15.812  13.628
57017W        W22178   2.979  34.375  12.581
57018W        W22179   2.143  25.411   3.456
57019W        W22180   9.821  16.263  14.876
57020W        W22181  13.547  39.047  12.411
57021W        W22182  17.816  20.196   1.613
57022W        W22183  35.868  29.610   4.150
57023W        W22184  36.886   2.219   3.931
57024W        W22185  34.250  18.828   4.736
57025W        W22186  36.619  16.645  14.428
57026W        W22187  42.044   4.877   0.426
57027W        W22188   9.223  22.311  12.227
57028W        W22189  30.099  19.738  10.624
57029W        W22190  14.209   0.376   4.697
57030W        W22191   4.277   7.298   1.309
57031W        W22192  38.858   2.450   4.192
57032W        W22193  44.414  32.518  14.568
57033W        W22194  36.173   2.958  12.976
57034W        W22195  27.960  42.687  11.649
57035W        W22196  24.533  12.548   4.836
57036W        W22197  10.088  31.133   2.759
57037W        W22198  22.542  30.225   1.723
57038W        W22199  22.241  30.569   0.093
57039W        W22200  41.998  38.713  11.048
57040W        W22201  26.472   2.877  11.382
57041W        W22202   8.829  35.944  10.643
57042W        W22203  43.914  39.443  14.832
57043W        W22204   4.803   3.914   1.624
57044W        W22205  14.146  27.892   4.160
57045W        W22206   9.061  21.227   3.355
57046W        W22207  39.188  40.227   5.139
57047W        W22208  41.286  11.602   1.732
57048W        W22209   2.459  34.099  10.067
57049W        W22210  41.725  23.574  13.442
57050W        W22211  16.530  39.464   1.401
57051W        W22212  22.635  39.995   5.048
57052W        W22213  24.051  28.178  14.480
57053W        W22214  34.793  32.723  14.863
57054W        W22215  38.451  18.494   4.417
57055W        W22216  17.561  28.594  10.645
57056W        W22217  24.626   1.891  12.392
57057W        W22218  14.322  22.901  11.695
57058W        W22219   1.686  29.168  10.996
57059W        W22220  14.638  22.119   0.664
57060W        W22221  25.621  38.468   3.004
57061W        W22222  35.433  21.559   1.844
57062W        W22223  41.755  41.849   3.829
57063W        W22224  21.622  32.208  10.336
57064W        W22225  40.537  27.755   1.770
57065W        W22226  12.850  25.053  12.592
57066W        W22227  26.625   0.160  10.732
57067W        W22228  12.624  16.703   2.355
57068W        W22229  23.018  27.457  14.717
57069W        W22230  43.816   4.883  12.415
57070W        W22231  23.055  23.138   5.028
57071W        W22232  11.515  17.065  13.393
57072W        W22233  16.605  35.939   1.903
57073W        W22234  35.424  24.162   1.441
57074W        W22235  23.688  34.706  13.888
57075W        W22236   3.973  40.272   1.700
57076W        W22237  27.520  30.096  14.824
57077W        W22238   4.953  17.058  14.501
57078W        W22239  21.553  38.508   5.466
57079W        W22240  23.494  14.687  14.916
57080W        W22241  16.692  15.732   1.700
57081W        W22242  21.163  29.060  13.894
57082W        W22243  10.989  18.582  11.113
57083W        W22244  36.410  38.858  13.320
57084W        W22245  25.997  44.721  14.433
57085W        W22246   5.646  42.386   3.340
57086W        W22247  12.411  31.123   4.295
57087W        W22248  25.806  31.629   1.983
57088W        W22249  22.080  20.352   2.789
57089W        W22250   3.778  12.463   2.818
57090W        W22251  20.098  26.582   4.141
57091W        W22252  14.555  35.923  12.589
57092W        W22253   8.308  21.096   0.380
57093W        W22254  20.130   2.039   4.235
57094W        W22255  20.322  32.845  10.787
57095W        W22256   7.770  25.269   0.107
57096W        W22257   3.233  32.567  14.017
57097W        W22258   7.251  11.215  12.253
57098W        W22259  12.645  20.758   4.144
57099W        W22260  39.412  23.690  10.985
57100W        W22261   2.923  15.855  14.424
57101W        W22262   2.687  15.785   9.803
57102W        W22263   4.538  38.008   4.918
57103W        W22264  11.406  31.217  12.472
57104W        W22265  15.994  32.020   4.487
57105W        W22266  12.527  19.627  14.394
57106W        W22267  22.731  43.844  11.324
57107W        W22268  13.370  27.178  13.556
57108W        W22269  24.256  14.700   0.437
57109W        W22270  15.099  21.978  14.960
57110W        W22271   8.902  37.001   1.861
57111W        W22272   3.957   7.963  14.129
57112W        W22273  18.572  31.872   3.750
57113W        W22274   8.198  34.373  11.183
57114W        W22275   1.005  36.934   1.756
57115W        W22276  35.093  25.086  13.938
57116W        W22277  36.432  30.361  13.966
57117W        W22278  21.403   3.196  14.045
57118W        W22279  26.035  38.342  13.339
57119W        W22280   1.154  21.354  11.466
57120W        W22281  26.216  33.480   4.096
57121W        W22282  31.589   9.184   3.944
57122W        W22283   5.179  24.064  10.968
57123W        W22284  37.966  30.455  12.074
57124W        W22285  23.566  13.672   4.744
57125W        W22286  20.991   5.254  10.828
57126W        W22287  23.049  38.840  14.984
57127W        W22288  37.668  22.942  14.293
57128W        W22289  25.866   4.497   2.690
57129W        W22290  17.637  35.865  12.794
57130W        W22291   7.200  21.108  13.400
57131W        W22292  41.106  13.993  11.445
57132W        W22293   0.853  33.054   2.937
57133W        W22294  41.627  23.114  13.250
57134W        W22295   0.405  20.426  13.415
57135W        W22296   0.782   2.286  10.465
57136W        W22297  17.127  29.432   0.448
57137W        W22298  22.487  35.082   1.083
57138W        W22299  40.883  21.620  11.449
57139W        W22300   6.150  18.429   0.902
57140W        W22301   5.011   0.437   5.010
57141W        W22302   0.225   5.194   1.950
57142W        W22303   2.156  29.053  11.146
57143W        W22304  44.936  42.332  13.585
57144W        W22305  32.142  40.899   2.262
57145W        W22306   2.898  38.878  12.372
57146W        W22307  39.519  18.690  10.083
57147W        W22308  33.406  21.817  13.097
57148W        W22309  12.065  35.580  13.905
57149W        W22310  41.135  28.176   4.414
57150W        W22311   4.117   6.211   0.684
57151W        W22312  19.449  38.336   1.461
57152W        W22313   0.886   3.945  14.273
57153W        W22314   7.856   6.045   4.877
57154W        W22315   1.148  15.158   3.823
57155W        W22316  42.832  18.981  10.559
57156W        W22317  42.389  26.074  13.863
57157W        W22318  39.454  13.436   4.792
57158W        W22319  24.036   6.666  14.707
57159W        W22320   8.333  39.088  13.355
57160W        W22321  36.351  14.282   5.213
57161W        W22322   8.844  21.031  14.009
57162W        W22323  26.639   5.674  11.048
57163W        W22324   9.431   3.630  13.463
57164W        W22325  34.467  14.199   2.087
57165W        W22326  24.467  42.407   2.204
57166W        W22327   0.432  32.708   1.759
57167W        W22328  41.348  31.012  14.886
57168W        W22329   0.737  38.865  13.962
57169W        W22330  16.678  43.200   1.789
57170W        W22331  38.444  40.087   3.744
57171W        W22332   0.654  22.635  10.661
57172W        W22333  31.584  22.423   2.240
57173W        W22334  35.329  36.926  10.647
57174W        W22335  20.937  11.559   0.009
57175W        W22336  22.955  31.850  11.138
57176W        W22337  10.825  36.507  12.143
57177W        W22338   5.983  32.058   5.053
57178W        W22339  13.169  42.356   9.987
57179W        W22340   6.885  27.981   0.837
57180W        W22341  35.900  11.247  11.593
57181W        W22342  12.053  31.921  13.010
57182W        W22343  26.272  19.429   1.790
57183W        W22344  29.206   7.432  13.404
57184W        W22345  18.299  44.784  14.706
57185W        W22346  35.840  26.004  10.975
57186W        W22347  20.311  32.994  13.905
57187W        W22348   2.951  17.170  14.312
57188W        W22349  19.458  22.158  14.825
57189W        W22350  23.167  10.910   1.299
57190W        W22351  35.528   7.197   2.370
57191W        W22352  25.592  34.142   3.143
57192W        W22353  20.987  28.535   4.665
57193W        W22354  32.163  41.667   9.541
57194W        W22355  41.407  16.687  12.642
57195W        W22356  28.880  33.547   4.612
57196W        W22357  44.820  38.826  10.764
57197W        W22358  23.782  13.421  14.458
57198W        W22359  24.107  19.124  11.409
57199W        W22360  15.746  22.998  12.791
57200W        W22361   7.381  13.156   1.755
57201W        W22362  14.041   6.925   3.192
57202W        W22363  36.908   2.398   2.421
57203W        W22364  42.233  41.813  12.547
57204W        W22365   2.079  38.479  10.756
57205W        W22366  19.577   7.854  11.579
57206W        W22367  21.140  41.181   0.726
57207W        W22368  26.468   5.354   4.446
57208W        W22369  14.115  43.175   3.727
57209W        W22370  32.032  34.039   2.002
57210W        W22371   6.030  23.453   2.321
57211W        W22372  44.593  41.220   3.290
57212W        W22373   9.643  22.269   0.963
57213W        W22374  18.787  10.242   0.916
57214W        W22375  37.910  36.290  13.542
57215W        W22376   2.395  30.673  14.242
57216W        W22377  32.581  43.377  12.104
57217W        W22378  23.693  22.651   2.760
57218W        W22379  28.744  43.457   4.671
57219W        W22380  36.174  31.643  12.835
57220W        W22381  22.893  19.619   1.386
57221W        W22382  39.369  39.628  12.457
57222W        W22383   8.644  31.390   3.298
57223W        W22384  19.176  38.847   1.395
57224W        W22385  11.618  23.585  12.566
57225W        W22386  35.217   6.696  13.992
57226W        W22387  44.975  17.215   0.825
57227W        W22388  43.939  20.173  11.687
57228W        W22389  14.568  18.260   2.009
57229W        W22390  11.102  39.261  12.524
57230W        W22391  19.780   6.445   4.527
57231W        W22392  26.445  40.989   3.642
57232W        W22393  30.132  36.421   1.537
57233W        W22394   3.726  22.596  12.866
57234W        W22395  42.080  34.350  11.186
57235W        W22396   0.538  33.979  13.620
57236W        W22397  18.600  13.392  13.175
57237W        W22398  40.549  28.854  14.391
57238W        W22399  28.729  41.541   0.370
57239W        W22400  20.866  14.045  12.021
57240W        W22401  33.891  24.988  13.913
57241W        W22402  19.683  21.561   4.562
57242W        W22403   6.916  39.880   2.399
57243W        W22404  41.444  36.603   1.518
57244W        W22405  17.530  14.757  13.252
57245W        W22406  30.284  29.116  11.041
57246W        W22407  12.777  33.069   0.847
57247W        W22408   8.196   0.728   4.094
57248W        W22409   6.218  27.028  10.825
57249W        W22410  14.988  15.220  14.951
57250W        W22411  43.627   1.409  11.054
57251W        W22412   7.244  10.473  12.302
57252W        W22413  29.600  17.094   0.728
57253W        W22414   7.962  43.436  12.950
57254W        W22415   7.780  42.252  13.469
57255W        W22416  17.730  23.552   0.705
57256W        W22417  35.630  35.504  14.755
57257W        W22418  16.166  25.698   3.347
57258W        W22419  16.593  27.375   3.737
57259W        W22420  38.987  20.514  12.873
57260W        W22421  38.757  18.244   2.830
57261W        W22422  39.837   3.235  13.528
57262W        W22423   0.267  33.482   0.717
57263W        W22424  32.221  25.297  10.909
57264W        W22425  32.422  36.049  11.971
57265W        W22426  41.994  24.529  13.383
57266W        W22427   4.627   0.014   2.667
57267W        W22428  41.571   6.890  11.643
57268W        W22429   1.940  39.032   3.356
57269W        W22430  19.699  18.562   3.828
57270W        W22431  21.827  12.717   1.410
57271W        W22432   0.011  27.155  12.145
57272W        W22433  24.982  31.555   3.618
57273W        W22434   1.562  36.007   2.169
57274W        W22435  32.814  23.191   0.862
57275W        W22436  16.761  36.088   4.113
57276W        W22437  23.544  10.865  11.906
57277W        W22438  38.809   2.690  13.017
57278W        W22439  27.624  19.581  14.748
57279W        W22440  38.484  35.275   1.763
57280W        W22441  17.195   1.772  12.550
57281W        W22442  36.349   0.364   4.387
57282W        W22443  26.255  12.202   3.638
57283W        W22444   1.968  32.447  10.655
57284W        W22445  19.114  23.798   0.999
57285W        W22446  35.731  22.708   2.736
57286W        W22447   8.429  35.980  11.728
57287W        W22448  29.609  17.891  10.283
57288W        W22449   6.362  31.218  10.682
57289W        W22450  13.692  15.737   0.399
57290W        W22451  16.307  34.170  14.915
57291W        W22452  40.781  30.157  13.292
57292W        W22453  39.371  37.422   1.306
57293W        W22454  23.130   6.127   0.062
57294W        W22455  28.156   6.118   4.076
57295W        W22456  12.732  43.254   0.935
57296W        W22457  17.984   9.603   2.475
57297W        W22458  26.795  40.955  11.160
57298W        W22459  38.446  16.848  12.407
57299W        W22460  20.937  16.813   0.005
57300W        W22461  32.693  26.244   1.448
57301W        W22462   5.049  13.622   0.703
57302W        W22463  21.609   8.583   3.698
57303W        W22464  23.557  39.534   2.752
57304W        W22465  30.810  19.776  13.069
57305W        W22466  42.438  24.507  13.119
57306W        W22467  34.617  31.140   4.574
57307W        W22468  10.909  28.492  13.395
57308W        W22469  27.480  28.530  11.174
57309W        W22470   2.821   2.379  12.112
57310W        W22471  41.507  23.205   1.732
57311W        W22472  29.267  19.071  11.168
57312W        W22473  18.205  10.662  10.553
57313W        W22474  41.619  10.132  14.335
57314W        W22475  14.718   7.129  13.675
57315W        W22476  19.624  16.774   3.999
57316W        W22477  31.824  32.438  12.082
57317W        W22478  18.552  44.898  12.845
57318W        W22479   0.491  10.910  13.144
57319W        W22480  22.631   8.757   2.487
57320W        W22481  21.568  35.600  11.655
57321W        W22482  22.814  37.938  14.469
57322W        W22483  19.820  42.081  12.430
57323W        W22484  16.620  27.413  11.659
57324W        W22485  38.038  40.640   4.082
57325W        W22486  16.998   5.579   0.973
57326W        W22487  32.890  33.307   3.745
57327W        W22488   3.050  16.758   0.505
57328W        W22489  12.390  35.861  11.711
57329W        W22490  12.204   6.440   1.308
57330W        W22491  20.729  12.660  12.973
57331W        W22492  44.988   4.998  11.730
57332W        W22493  30.744  27.491   3.279
57333W        W22494  15.758   9.083   3.272
57334W        W22495   5.182   5.291   0.318
57335W        W22496   5.981   0.472  12.884
57336W        W22497   5.380  13.823  13.498
57337W        W22498   8.747  39.242   4.151
57338W        W22499  37.825   3.230   2.399
57339W        W22500  39.886  44.603  11.507
57340W        W22501  16.589  14.053   3.665
57341W        W22502  35.312  26.507   3.115
57342W        W22503  27.390  14.254   1.326
57343W        W22504   3.041  24.365   1.778
57344W        W22505  20.655   2.927   1.318
57345W        W22506   8.316  44.502  13.127
57346W        W22507   3.552  37.159   0.447
57347W        W22508  18.524  36.018   4.691
57348W        W22509  40.100  44.052   4.753
57349W        W22510  34.842  35.264   3.660
57350W        W22511  38.964   2.715  14.870
57351W        W22512  33.976  32.663   3.651
57352W        W22513  17.728  14.999   3.600
57353W        W22514   7.183  26.075   2.114
57354W        W22515  31.908  41.807  12.752
57355W        W22516  18.676  39.894  13.997
57356W        W22517  42.715  37.192   2.146
57357W        W22518  25.454  10.264  12.926
57358W        W22519  31.360  31.034  10.664
57359W        W22520  17.434  20.295  14.925
57360W        W22521  19.624   5.731  12.848
57361W        W22522   5.294  13.498  13.067
57362W        W22523  32.615  27.108  13.118
57363W        W22524   5.241  19.045   2.508
57364W        W22525  33.051   8.662   2.303
57365W        W22526   6.411   5.606   3.571
57366W        W22527  23.043  31.410  14.858
57367W        W22528  27.559  21.570   0.343
57368W        W22529  34.804  30.158   0.708
57369W        W22530  28.554  20.533  11.182
57370W        W22531   8.992  35.837   1.304
57371W        W22532   6.962  18.645  12.397
57372W        W22533  20.589  31.640   1.278
57373W        W22534  24.677  13.653  14.534
57374W        W22535  21.566  40.819   3.601
57375W        W22536   9.342  28.619  14.457
57376W        W22537   1.138   1.436  12.899
57377W        W22538  19.520  31.559   4.136
57378W        W22539  19.704  15.745  11.394
57379W        W22540   4.942  12.378  14.423
57380W        W22541   5.304  36.811   0.566
57381W        W22542  15.530  44.413   0.298
57382W        W22543  38.139   5.933   0.020
57383W        W22544  26.568   4.741  13.871
57384W        W22545   6.633  28.927  12.810
57385W        W22546  30.148   7.695  13.590
57386W        W22547  23.509  30.039   1.968
57387W        W22548  39.020  26.546  11.637
57388W        W22549  21.245  39.007  14.468
57389W        W22550  24.516  40.371   3.191
57390W        W22551  37.611  22.087   2.913
57391W        W22552  32.804   7.859   2.754
57392W        W22553  12.373  28.659   1.355
57393W        W22554  12.342   3.988   1.827
57394W        W22555  28.075  20.975  11.615
57395W        W22556  21.046   9.521  12.320
57396W        W22557  27.889  11.837   0.390
57397W        W22558   4.879  31.749   1.234
57398W        W22559  34.156  38.603  12.550
57399W        W22560   6.738  41.775   2.160
57400W        W22561  38.067   4.027   1.311
57401W        W22562  25.821  29.025  13.991
57402W        W22563  33.912   2.708  11.194
57403W        W22564  31.564  34.614   4.055
57404W        W22565  12.319  38.011   4.742
57405W        W22566  44.735   4.603  10.804
57406W        W22567  10.027  17.137   2.654
57407W        W22568  37.360   3.120  10.713
57408W        W22569  30.418  29.445  14.902
57409W        W22570  39.441  27.132   4.397
57410W        W22571  23.055  42.409  11.471
57411W        W22572  13.186   1.303   0.788
57412W        W22573  34.895  23.081  11.286
57413W        W22574  34.034  29.400  11.301
57414W        W22575  27.830  31.914   1.871
57415W        W22576  35.586  33.470   4.106
57416W        W22577  24.007   8.352   3.601
57417W        W22578  18.012  34.396  14.328
57418W        W22579   9.598  35.002  14.529
57419W        W22580  40.860  21.718  12.560
57420W        W22581  32.703  25.238  11.133
57421W        W22582  35.861   8.241   1.358
57422W        W22583  13.355  16.327  12.039
57423W        W22584   7.684  26.761   2.233
57424W        W22585  39.311  10.739   3.091
57425W        W22586  27.058  14.507   5.421
57426W        W22587  32.431   9.764  10.656
57427W        W22588  43.829   3.797   3.535
57428W        W22589  36.062  20.803  11.260
57429W        W22590  44.506  41.976   1.413
57430W        W22591  34.937   7.139  13.283
57431W        W22592  23.242  29.283   2.444
57432W        W22593  23.751  33.604  12.327
57433W        W22594  21.199  22.817  14.368
57434W        W22595  26.675   0.012   1.339
57435W        W22596   7.164  38.886   3.422
57436W        W22597   6.306  38.899  10.563
57437W        W22598   8.067  37.055  11.307
57438W        W22599  15.378  33.747  14.734
57439W        W22600  30.010  32.742  10.430
57440W        W22601   2.024  23.013  11.174
57441W        W22602  38.093  14.040   1.666
57442W        W22603  16.816  42.642   3.139
57443W        W22604  25.523  18.363  12.054
57444W        W22605  29.582  23.039  12.510
57445W        W22606   3.907  39.596   1.048
57446W        W22607  11.168  10.175  14.360
57447W        W22608  18.853  23.264   2.838
57448W        W22609  27.610   6.552   3.020
57449W        W22610  43.293  43.449   4.141
57450W        W22611  29.275  25.707  13.324
57451W        W22612   9.224   9.867  10.496
57452W        W22613  22.673  16.553   3.217
57453W        W22614  20.005  13.347  13.089
57454W        W22615   5.823   9.549   3.560
57455W        W22616  41.360   8.692  12.052
57456W        W22617  40.535   6.245   0.399
57457W        W22618   3.641   4.518  12.578
57458W        W22619  42.411  13.398   1.809
57459W        W22620  36.439   4.671  10.728
57460W        W22621   2.728  28.978   3.674
57461W        W22622  11.915  15.826  12.089
57462W        W22623  11.600  44.993  14.900
57463W        W22624  30.660  30.906   2.086
57464W        W22625  28.466   3.441  12.623
57465W        W22626  17.774  24.625  13.507
57466W        W22627  37.160  36.960   0.365
57467W        W22628  15.575  18.163   0.586
57468W        W22629   3.220  38.256   4.172
57469W        W22630  36.562  15.310   3.354
57470W        W22631  12.780   3.435   4.067
57471W        W22632   1.359   1.041  13.814
57472W        W22633  21.056  17.714   1.012
57473W        W22634  32.462   5.083  14.711
57474W        W22635   4.775  25.536  14.521
57475W        W22636   9.662   6.084   1.885
57476W        W22637   6.841   9.239   2.142
57477W        W22638  10.746  43.522  12.006
57478W        W22639  43.084  40.022   1.172
57479W        W22640  30.676  24.152   1.886
57480W        W22641  31.939  23.037   1.281
57481W        W22642  28.472  20.021   0.431
57482W        W22643   1.363  25.583   2.389
57483W        W22644   1.325  37.599   0.845
57484W        W22645   7.232  12.802   3.477
57485W        W22646  28.433  15.772   4.158
57486W        W22647  38.832   5.826   3.606
57487W        W22648   6.220  19.693  11.605
57488W        W22649   7.614  24.921   3.052
57489W        W22650   4.655  31.106  14.825
57490W        W22651   6.311  37.917   2.624
57491W        W22652   8.917  21.911  11.994
57492W        W22653  23.083  25.146  14.908
57493W        W22654  20.084   2.833  13.750
57494W        W22655  10.750  38.069   2.828
57495W        W22656  11.654  39.309  13.792
57496W        W22657  42.924  24.961  11.565
57497W        W22658  33.850   0.712   2.945
57498W        W22659  28.555   2.259  13.998
57499W        W22660   3.460  20.580  14.994
57500W        W22661  19.686  10.157   3.671
57501W        W22662  40.343  17.702   3.725
57502W        W22663  24.129   5.436  14.374
57503W        W22664  42.120  26.025   4.696
57504W        W22665  33.170  22.719  14.078
57505W        W22666   9.088  13.280  11.631
57506W        W22667  29.823  12.848   0.383
57507W        W22668  18.796  41.719  13.895
57508W        W22669  38.266  27.948  12.201
57509W        W22670  36.222  21.159  14.974
57510W        W22671  26.989  28.106   3.210
57511W        W22672   7.873  35.438   3.400
57512W        W22673  30.448   4.427   0.293
57513W        W22674  33.416  32.784   0.786
57514W        W22675  32.878  29.682  11.743
57515W        W22676  12.049  32.468   1.999
57516W        W22677  16.210   3.369  14.302
57517W        W22678  18.639   5.012  13.469
57518W        W22679  21.512   8.204  14.882
57519W        W22680  42.521  40.725   0.348
57520W        W22681  31.058  22.721  11.966
57521W        W22682  16.544  29.406   4.540
57522W        W22683   4.777  10.556  13.972
57523W        W22684  12.582  31.116   0.686
57524W        W22685  15.215  18.535   4.127
57525W        W22686  24.265   7.698   0.456
57526W        W22687  24.399  34.062   3.252
57527W        W22688  32.965  31.362   2.190
57528W        W22689  30.888  32.708   0.184
57529W        W22690  16.794  21.258   4.608
57530W        W22691   6.547   5.733  12.946
57531W        W22692  39.997  38.075   4.937
57532W        W22693  26.682   3.395  12.976
57533W        W22694   6.558  33.905  11.139
57534W        W22695  24.628  28.825  12.361
57535W        W22696  12.286  44.778   1.164
57536W        W22697  44.429   5.320   0.746
57537W        W22698  41.521   9.920   0.154
57538W        W22699  10.546  42.899  11.144
57539W        W22700  37.412  10.117   0.219
57540W        W22701  31.111  36.353  14.644
57541W        W22702  27.164  41.840  11.398
57542W        W22703   0.274  40.408   0.986
57543W        W22704   0.827   6.373  13.324
57544W        W22705  37.772  29.614  12.452
57545W        W22706  29.036  25.252  13.402
57546W        W22707  16.579   7.994  12.061
57547W        W22708  29.531  31.107   0.474
57548W        W22709  36.605  34.089   3.730
57549W        W22710  34.847  12.298   4.309
57550W        W22711   0.882  22.731  11.633
57551W        W22712  29.990  16.229  13.877
57552W        W22713  36.511  31.933  13.967
57553W        W22714  32.463   8.989   3.619
57554W        W22715  13.252   2.523   3.282
57555W        W22716  21.181  43.867  12.225
57556W        W22717  39.977   9.344  14.520
57557W        W22718  34.504  13.587  13.315
57558W        W22719  33.403  31.693   4.345
57559W        W22720  33.589  20.607  13.860
57560W        W22721  23.257  27.992  14.730
57561W        W22722   9.058  15.193  12.097
57562W        W22723  15.734  10.788  10.360
57563W        W22724   1.019   6.882  13.334
57564W        W22725  25.997  15.597  10.480
57565W        W22726  14.894  41.587  12.363
57566W        W22727  28.124  32.413   2.961
57567W        W22728   4.703  42.300  13.546
57568W        W22729  29.349  35.419   2.537
57569W        W22730  38.289  35.051   4.514
57570W        W22731  16.128  16.508   1.928
57571W        W22732  27.652  23.150  14.775
57572W        W22733  22.063   0.401   1.752
57573W        W22734  32.439  21.521   3.441
57574W        W22735  41.018  34.075   3.653
57575W        W22736   6.411  15.195   3.452
57576W        W22737  30.214  29.243   2.363
57577W        W22738  38.416  16.598   3.169
57578W        W22739   9.102  35.804  12.882
57579W        W22740  23.432  28.975  11.607
57580W        W22741  29.506  42.816   5.015
57581W        W22742  27.003  22.339   3.420
57582W        W22743  29.801   1.220  10.312
57583W        W22744  21.185  26.965  10.338
57584W        W22745   2.490  24.592  14.779
57585W        W22746   5.225  20.238   2.036
57586W        W22747  40.781  14.694   2.467
57587W        W22748  34.660   5.111  10.085
57588W        W22749  38.911   3.153  11.127
57589W        W22750   2.817  21.185  13.006
57590W        W22751   8.402  34.946   3.154
57591W        W22752  43.533   2.826  13.781
57592W        W22753  18.639  16.458  13.109
57593W        W22754  43.411  29.190   4.643
57594W        W22755  34.604  44.066  14.333
57595W        W22756   5.387   2.284   2.379
57596W        W22757   3.453  17.128  14.371
57597W        W22758  15.651  43.957  13.920
57598W        W22759  27.014   1.962  14.613
57599W        W22760  20.144  15.244  13.042
57600W        W22761  21.341   4.287   2.884
57601W        W22762  36.138  16.987   1.912
57602W        W22763  43.317  39.933   2.571
57603W        W22764  36.641  15.213   0.335
57604W        W22765   9.410  31.531  14.470
57605W        W22766   6.204  11.163   2.791
57606W        W22767   5.904  20.995  12.069
57607W        W22768  44.544   8.317   4.632
57608W        W22769  29.517  41.487  14.160
57609W        W22770  31.897  36.671   4.615
57610W        W22771   8.820  20.057   3.298
57611W        W22772  35.378   6.931  14.415
57612W        W22773   0.680   5.955   2.789
57613W        W22774  42.009   4.223   3.666
57614W        W22775   6.272  13.280  13.303
57615W        W22776  34.194  16.918   1.281
57616W        W22777  34.141  24.219  12.590
57617W        W22778   7.481  20.679   3.893
57618W        W22779   4.352  27.107  14.409
57619W        W22780  40.577  15.314   2.889
57620W        W22781  20.253  26.940  13.331
57621W        W22782  29.007  38.375   1.649
57622W        W22783  32.860   4.740  11.416
57623W        W22784   4.108   6.965   3.248
57624W        W22785   8.414  16.922   1.142
57625W        W22786  44.239  37.611  11.398
57626W        W22787   3.827  44.210   3.737
57627W        W22788  22.689   2.641   3.363
57628W        W22789  41.290   6.423   4.622
57629W        W22790  19.490   0.393   0.778
57630W        W22791  35.939  27.927   0.002
57631W        W22792  25.579  18.294   2.779
57632W        W22793  31.564   9.983   1.229
57633W        W22794  33.999  12.200   0.276
57634W        W22795   6.721  29.731   0.160
57635W        W22796  38.704   8.859   0.715
57636W        W22797  40.796   8.117   0.957
57637W        W22798  15.114  21.388  12.107
57638W        W22799  19.043  43.761  13.558
57639W        W22800  34.861   3.717   3.116
57640W        W22801  38.407  13.965   3.129
57641W        W22802  20.659  31.668  10.969
57642W        W22803   0.069   7.947   1.509
57643W        W22804   1.809  35.782   0.076
57644W        W22805   1.663  41.442  13.386
57645W        W22806  34.575  23.159  11.860
57646W        W22807  14.633  13.119  14.324
57647W        W22808   5.814  38.491  12.814
57648W        W22809   7.410   4.191   2.332
57649W        W22810   7.945   1.778  12.250
57650W        W22811   8.707  38.984   5.025
57651W        W22812  15.384  29.011   0.651
57652W        W22813   7.294  33.925  11.829
57653W        W22814  37.854  37.450   4.411
57654W        W22815   7.785   4.187  10.621
57655W        W22816   4.508   1.856   0.921
57656W        W22817  43.460  16.548  14.959
57657W        W22818  21.692  14.234  13.981
57658W        W22819  40.260  13.842   4.201
57659W        W22820  34.141  33.095   0.406
57660W        W22821  40.882  31.050   3.234
57661W        W22822  29.847  37.138  13.311
57662W        W22823  23.196  18.696   3.572
57663W        W22824  11.556  38.971   4.491
57664W        W22825  34.411  14.779  14.527
57665W        W22826   8.449  19.234  12.211
57666W        W22827  39.326  11.161   0.808
57667W        W22828   0.871  18.869  13.290
57668W        W22829  25.408  21.543  13.438
57669W        W22830  34.418  34.176  10.731
57670W        W22831  25.021  17.609  11.211
57671W        W22832  31.538  37.109  12.088
57672W        W22833  14.038  12.531  13.988
57673W        W22834  30.162  43.360   1.142
57674W        W22835  12.014  11.744   2.755
57675W        W22836  33.720   3.373  11.262
57676W        W22837   0.881  12.976   2.601
57677W        W22838  28.185  12.992   4.045
57678W        W22839  35.550  42.489  12.840
57679W        W22840  17.771   3.907   3.637
57680W        W22841  43.942  15.987   4.272
57681W        W22842  40.592  37.045  13.575
57682W        W22843  26.919  32.972  11.075
57683W        W22844   7.283  44.416   1.447
57684W        W22845  12.329  16.738  13.527
57685W        W22846   1.120  32.386   3.313
57686W        W22847   9.684  28.048  14.816
57687W        W22848  12.625  34.054  12.825
57688W        W22849  15.929  10.735  11.385
57689W        W22850  34.254  23.430   4.831
57690W        W22851  32.727   3.380  11.151
57691W        W22852  13.659  23.866  13.430
57692W        W22853  28.990   3.101  14.965
57693W        W22854  43.226  32.424   3.679
57694W        W22855  29.862   6.741  11.604
57695W        W22856  12.766  11.651   0.561
57696W        W22857  11.163   5.926  11.025
57697W        W22858  35.769  27.402   0.312
57698W        W22859  23.073  19.012  10.669
57699W        W22860  32.602   5.427   0.535
57700W        W22861   3.896   6.656  14.340
57701W        W22862  23.118  10.835   1.815
57702W        W22863  18.765  12.079   0.268
57703W        W22864  36.142  28.183   1.320
57704W        W22865  14.205   6.006  12.015
57705W        W22866  30.112  37.088   4.886
57706W        W22867  26.428  14.224   2.739
57707W        W22868  23.664  15.245   4.842
57708W        W22869  31.192   4.388   2.691
57709W        W22870  19.648   6.434  14.018
57710W        W22871   8.943   4.594  14.605
57711W        W22872  15.162  11.181   0.283
57712W        W22873  37.180  39.809   3.632
57713W        W22874  14.136  24.016  10.551
57714W        W22875  15.537  27.698  10.278
57715W        W22876  30.544   0.746   3.106
57716W        W22877   0.528  43.625   1.242
57717W        W22878   7.367   7.648   3.639
57718W        W22879   9.168  41.009   1.318
57719W        W22880   7.791  32.290  10.156
57720W        W22881  43.202  21.220  10.846
57721W        W22882   6.160  26.444  14.331
57722W        W22883   3.330  14.193   3.282
57723W        W22884  43.459  24.199   4.402
57724W        W22885  19.088  30.786  11.192
57725W        W22886   2.494  20.124   0.708
57726W        W22887  22.264   1.880  13.534
57727W        W22888   1.430  26.222   4.562
57728W        W22889   5.163   8.875  10.779
57729W        W22890   1.915  38.908   0.904
57730W        W22891  30.661  28.099   5.116
57731W        W22892   6.423   1.220   0.815
57732W        W22893  31.576  40.811  12.230
57733W        W22894  15.382  41.841  14.999
57734W        W22895  36.460  31.031  12.128
57735W        W22896  15.060  32.857   2.789
57736W        W22897   4.243   3.936   3.878
57737W        W22898  29.898  23.006  14.603
57738W        W22899  40.859  21.322   0.208
57739W        W22900  44.540   5.768  10.789
57740W        W22901  22.002  27.953  13.368
57741W        W22902  28.794  27.413   1.723
57742W        W22903  21.992  35.590  13.520
57743W        W22904  16.786  40.942   1.418
57744W        W22905  41.792   9.231  14.522
57745W        W22906  29.543   2.342   4.788
57746W        W22907  16.564  21.010  12.107
57747W        W22908  11.756  18.402   2.446
57748W        W22909  13.065  12.983   4.078
57749W        W22910  23.180  33.160  11.598
57750W        W22911  32.637   9.880  12.748
57751W        W22912  27.911  32.833  12.556
57752W        W22913  36.987  26.396  11.995
57753W        W22914  40.025  18.586  11.447
57754W        W22915  35.831  41.284  12.515
57755W        W22916  39.309  22.834  11.086
57756W        W22917  13.831  33.719  11.042
57757W        W22918   6.729  26.142  12.620
57758W        W22919  26.472  16.034   1.909
57759W        W22920  10.023  20.544   5.017
57760W        W22921  21.454  19.214  11.102
57761W        W22922  33.104  12.742  13.909
57762W        W22923  21.465   6.419   1.769
57763W        W22924  42.797  18.378  14.424
57764W        W22925  41.650  22.221  13.528
57765W        W22926   7.248  15.072  13.414
57766W        W22927  26.488   7.198  13.417
57767W        W22928  42.359  20.216   2.281
57768W        W22929  10.892  43.918   3.817
57769W        W22930  10.788  12.158   4.032
57770W        W22931  42.372  17.445  12.908
57771W        W22932  39.905   6.872  14.941
57772W        W22933   1.534  26.156  12.170
57773W        W22934   6.082  17.599   4.719
57774W        W22935  20.066  24.939  13.630
57775W        W22936  14.465  43.022   0.506
57776W        W22937  33.738  16.503   2.645
57777W        W22938   0.304   2.928  12.008
57778W        W22939  37.425  29.430   1.951
57779W        W22940   0.966  35.157   0.020
57780W        W22941   8.062  28.438  12.034
57781W        W22942  26.203  20.126   1.428
57782W        W22943  42.727   1.270   0.945
57783W        W22944  32.045  25.258  11.938
57784W        W22945  21.848  13.995   0.399
57785W        W22946  19.207  33.283   1.792
57786W        W22947  43.089  30.502  11.125
57787W        W22948  19.609  38.054  12.930
57788W        W22949  25.578  31.884  14.903
57789W        W22950   8.289  18.987   4.709
57790W        W22951  40.195  44.901  13.637
57791W        W22952  29.516  12.173   4.188
57792W        W22953  36.867  19.750   3.332
57793W        W22954  27.446  13.771   4.072
57794W        W22955  13.278  14.737   0.749
57795W        W22956  13.801  10.525   3.197
57796W        W22957  37.889  43.136  11.590
57797W        W22958  12.686  44.547   0.086
57798W        W22959   1.912  23.366   3.256
57799W        W22960  12.222  11.857   3.246
57800W        W22961  44.556  35.338   4.545
57801W        W22962   1.205   8.510   4.568
57802W        W22963  29.641  17.146  13.995
57803W        W22964  29.039  36.183  14.478
57804W        W22965  40.687   1.282   4.830
57805W        W22966  26.537  21.428   5.480
57806W        W22967   0.568  16.320   4.957
57807W        W22968   7.951  40.301  13.985
57808W        W22969  22.319  33.556  12.964
57809W        W22970  20.299  20.351  13.564
57810W        W22971  14.064  24.154  14.957
57811W        W22972  18.651  39.438  14.233
57812W        W22973  43.549  40.790  12.936
57813W        W22974  34.599  43.091   5.063
57814W        W22975  43.124  29.050   3.044
57815W        W22976   4.433   6.893  13.125
57816W        W22977   4.226   7.287  10.990
57817W        W22978  15.449  35.433   4.117
57818W        W22979   5.312  43.812  13.334
57819W        W22980  20.315  25.693   5.058
57820W        W22981  22.742  36.004   4.094
57821W        W22982  12.726  34.482   4.381
57822W        W22983  22.548  12.050   1.787
57823W        W22984  28.201  31.832  12.516
57824W        W22985  29.536  44.977  12.562
57825W        W22986   7.497  29.487   3.774
57826W        W22987  37.383  35.916  12.773
57827W        W22988   7.878  13.389   0.903
57828W        W22989  27.727  12.937  12.523
57829W        W22990  22.929  44.757   1.678
57830W        W22991  34.140   3.308   4.116
57831W        W22992   1.021  43.413  14.409
57832W        W22993  10.168  11.846   5.103
57833W        W22994  33.437   4.259  14.388
57834W        W22995  43.754  38.073  14.979
57835W        W22996  14.336   2.525   5.029
57836W        W22997  28.497  29.587   0.781
57837W        W22998   8.434  43.208  13.996
57838W        W22999  11.327  33.835   2.806
57839W        W23000  25.642  40.926  11.156
57840W        W23001  30.474  39.260  10.125
57841W        W23002  41.311  44.034  12.484
57842W        W23003  25.664   1.348  12.777
57843W        W23004  10.811  28.289   3.600
57844W        W23005  30.514  21.126  12.032
57845W        W23006  31.738  31.383   0.876
57846W        W23007   0.316  10.520   4.225
57847W        W23008  13.740  30.791   1.404
57848W        W23009  40.020  29.800  14.600
57849W        W23010  30.053  22.986  14.102
57850W        W23011  33.467   9.697  12.518
57851W        W23012  21.638  13.342   2.211
57852W        W23013   3.688  17.282   3.574
57853W        W23014  23.137  13.648  11.121
57854W        W23015  26.237  10.760  12.567
57855W        W23016  15.363  44.542   5.209
57856W        W23017   9.410  16.663   1.015
57857W        W23018  15.588  20.628   2.829
57858W        W23019  25.154   1.311   2.739
57859W        W23020  24.642  43.974  12.946
57860W        W23021  27.577  44.613  11.485
57861W        W23022   4.726  39.368   4.660
57862W        W23023  31.492  12.601  12.132
57863W        W23024  33.133  32.579  14.631
57864W        W23025  42.829  18.055   1.583
57865W        W23026  31.981   0.075   4.108
57866W        W23027   4.936   0.729   1.897
57867W        W23028   2.253   9.678   1.207
57868W        W23029  24.025   8.078  13.292
57869W        W23030  30.148   6.873   1.350
57870W        W23031  16.033  32.433   1.182
57871W        W23032  42.922  10.149  13.918
57872W        W23033  17.715  24.669   1.898
57873W        W23034   5.309   0.464   0.767
57874W        W23035  18.981  24.241   4.213
57875W        W23036  36.619  34.500   4.796
57876W        W23037  13.830  22.987  11.503
57877W        W23038   6.730  43.147  12.729
57878W        W23039  23.491  24.047  12.600
57879W        W23040  20.973  34.985  12.954
57880W        W23041  23.626  29.838  12.476
57881W        W23042  11.907  20.241   4.082
57882W        W23043  29.588  17.132   2.083
57883W        W23044  29.431  43.415   3.210
57884W        W23045   9.713  40.573   3.694
57885W        W23046  34.016  32.603   2.732
57886W        W23047  29.457  32.608   1.736
57887W        W23048  42.513   1.259  14.317
57888W        W23049  18.828  41.410  11.230
57889W        W23050  20.152   2.106   0.546
57890W        W23051  16.064   0.427  14.316
57891W        W23052  33.657  11.343  14.207
57892W        W23053  20.268  43.091   4.599
57893W        W23054   1.333  35.371  11.154
57894W        W23055   4.171  14.138   3.671
57895W        W23056  41.240  22.758   1.731
57896W        W23057  12.710   9.837  14.875
57897W        W23058  13.238   5.237   4.370
57898W        W23059   2.380  33.959   3.331
57899W        W23060   2.495  10.602   3.614
57900W        W23061   9.598   9.316  14.042
57901W        W23062  37.007  13.280   0.195
57902W        W23063   4.130   4.948  13.068
57903W        W23064  41.391  18.260   1.447
57904W        W23065   1.297   8.363  11.920
57905W        W23066  29.629  19.831  12.189
57906W        W23067  10.219   3.720  14.025
57907W        W23068  30.451  10.218   4.658
57908W        W23069   3.183  18.736  11.320
57909W        W23070  41.414  37.666   2.208
57910W        W23071   9.141  42.004   2.320
57911W        W23072  19.943  21.884   5.516
57912W        W23073  30.965  14.183   2.084
57913W        W23074  34.448  39.077   1.478
57914W        W23075   3.492  29.909   0.441
57915W        W23076  19.314  17.237  12.981
57916W        W23077  32.868  43.280   3.303
57917W        W23078   6.264  14.005   1.555
57918W        W23079  42.357  44.458  14.545
57919W        W23080  23.093  39.842   4.905
57920W        W23081  11.158  40.622  12.360
57921W        W23082   5.188  19.306   4.719
57922W        W23083   9.156   3.567   1.480
57923W        W23084  21.777  37.765  10.224
57924W        W23085  41.577  22.739  14.019
57925W        W23086  17.745  39.733   3.278
57926W        W23087  33.993  43.502   4.327
57927W        W23088  11.754  26.953  10.892
57928W        W23089  24.524  31.411   4.473
57929W        W23090   7.609  28.568  12.230
57930W        W23091  26.979  35.237  12.043
57931W        W23092  26.242  31.605   4.962
57932W        W23093  16.771  28.768  14.974
57933W        W23094   7.368  40.008   4.824
57934W        W23095  10.915  21.492   2.324
57935W        W23096  15.801   9.901  12.204
57936W        W23097   7.280  16.288   0.836
57937W        W23098  38.256   5.450  10.999
57938W        W23099   9.132   0.585   4.336
57939W        W23100  30.699  36.382   3.724
57940W        W23101   2.415  18.184  12.455
57941W        W23102  32.978   3.896   2.470
57942W        W23103  32.888  18.640   0.854
57943W        W23104  26.158  38.360   2.683
57944W        W23105  22.020  15.670   3.863
57945W        W23106  16.788   7.379  12.992
57946W        W23107  34.350   1.846   3.084
57947W        W23108  17.319   2.890   1.349
57948W        W23109  24.536  14.869   0.011
57949W        W23110  13.203  24.089  13.623
57950W        W23111  31.020  15.597  13.436
57951W        W23112  39.103  12.728  12.351
57952W        W23113  21.064  10.766  12.010
57953W        W23114  39.993  34.109   3.832
57954W        W23115  23.611  18.117  13.515
57955W        W23116   3.453  36.499   3.743
57956W        W23117  34.029  24.053  13.862
57957W        W23118  44.990  37.313   1.310
57958W        W23119  29.143   2.674   4.831
57959W        W23120  38.552   5.449   2.824
57960W        W23121  37.473   1.870   3.275
57961W        W23122  42.281  20.538   3.098
57962W        W23123  35.462  12.912   3.206
57963W        W23124   2.871  13.387   0.506
57964W        W23125   7.712  27.434   2.779
57965W        W23126  37.650  28.939   1.112
57966W        W23127  27.286  43.526   0.828
57967W        W23128  40.500  21.415  13.454
57968W        W23129  19.980  26.101  11.179
57969W        W23130   6.869  19.671  10.427
57970W        W23131  36.433  42.449   3.228
57971W        W23132  10.343  27.424  14.834
57972W        W23133   2.584  33.495   4.988
57973W        W23134   3.286  32.335  14.478
57974W        W23135  25.527  13.774   3.936
57975W        W23136  21.046  26.957  11.348
57976W        W23137  26.131  18.373  12.457
57977W        W23138  33.185  13.267  13.039
57978W        W23139  37.521  38.509   2.405
57979W        W23140   1.583  10.887  12.494
57980W        W23141   2.312  25.155  11.177
57981W        W23142  11.288  26.262  12.027
57982W        W23143  27.407   0.043  14.660
57983W        W23144  17.228  39.078  13.456
57984W        W23145  25.248  35.953  14.967
57985W        W23146  22.718   1.778   4.513
57986W        W23147  14.197  42.795  10.722
57987W        W23148  23.167  35.432  13.315
57988W        W23149  38.269   4.732   2.379
57989W        W23150  30.213  34.969  13.128
57990W        W23151  39.415   2.637   1.256
57991W        W23152   3.814   0.129  12.047
57992W        W23153  35.605  17.632   1.273
57993W        W23154  28.119  31.151   4.571
57994W        W23155  13.205  41.479   2.755
57995W        W23156  17.829  35.987  14.963
57996W        W23157   2.426  18.208  14.852
57997W        W23158   0.091  22.472  14.319
57998W        W23159  35.218  24.524   3.318
57999W        W23160  24.519  17.020   4.686
58000W        W23161  25.028  18.814  13.308
58001W        W23162  24.746   7.278  10.576
58002W        W23163  40.681  21.672  10.538
58003W        W23164  44.923  39.959   0.478
58004W        W23165  11.728   6.849  13.138
58005W        W23166   8.802  29.771  12.042
58006W        W23167  36.699  15.698   1.670
58007W        W23168  31.963  29.019   4.450
58008W        W23169  10.212  38.892   1.470
58009W        W23170  26.013  25.549  12.563
58010W        W23171  24.948  44.232   0.652
58011W        W23172  27.552  36.313   1.861
58012W        W23173   8.395  15.915   1.217
58013W        W23174  25.413  34.913   0.230
58014W        W23175   0.477   6.563   1.816
58015W        W23176  14.149  14.598   1.194
58016W        W23177  24.473  32.056   2.164
58017W        W23178  39.219  10.261  10.584
58018W        W23179   7.856  13.971  14.958
58019W        W23180   2.797  12.224  13.977
58020W        W23181  22.083  34.314   3.336
58021W        W23182  28.498  29.978   4.092
58022W        W23183  30.737   6.461  12.460
58023W        W23184  16.845   0.404  14.984
58024W        W23185  30.920  36.637  12.886
58025W        W23186  26.986  33.025   0.846
58026W        W23187   9.415  38.051   1.713
58027W        W23188   4.299  40.319   3.660
58028W        W23189  22.086  15.174  13.420
58029W        W23190  32.069  43.511   0.576
58030W        W23191  35.116  26.626  11.115
58031W        W23192  40.553  12.594   1.850
58032W        W23193   0.573   9.260  10.665
58033W        W23194  12.055  33.497   0.470
58034W        W23195  44.065  26.749   2.290
58035W        W23196   6.155   7.834  14.631
58036W        W23197  13.307  15.360  11.780
58037W        W23198  36.117   3.190   5.056
58038W        W23199  22.327   6.919  13.919
58039W        W23200  35.037  18.823  12.983
58040W        W23201  27.261  17.569   1.427
58041W        W23202  26.337  41.083   3.146
58042W        W23203  37.458  13.771   2.824
58043W        W23204  33.011  29.076   3.323
58044W        W23205  39.470  40.418  11.954
58045W        W23206  43.222   6.928  13.809
58046W        W23207  38.513  38.296  14.412
58047W        W23208  17.646  26.580   3.279
58048W        W23209  15.769   5.019  10.563
58049W        W23210   3.255  21.137   4.005
58050W        W23211   5.414  21.689   2.475
58051W        W23212   5.820  13.087   4.159
58052W        W23213  44.493   4.271   2.901
58053W        W23214  35.332  39.444  14.664
58054W        W23215  34.106  15.263  10.601
58055W        W23216  19.605   8.747   1.303
58056W        W23217  35.971  42.901   1.955
58057W        W23218  44.337  37.642   0.034
58058W        W23219  18.974  10.574   2.633
58059W        W23220  29.688  18.097  13.585
58060W        W23221  42.062   8.120  12.439
58061W        W23222   7.147  11.794   4.483
58062W        W23223   9.247  32.969  11.941
58063W        W23224  16.184   8.838   1.469
58064W        W23225  15.053  22.081   1.466
58065W        W23226  35.901  20.257  14.561
58066W        W23227  32.911  13.955   0.212
58067W        W23228  35.611  38.114   0.342
58068W        W23229   7.285  26.859  12.583
58069W        W23230  23.028  20.627   4.307
58070W        W23231  39.471  21.410   1.530
58071W        W23232  10.487  39.921  10.802
58072W        W23233  11.897  37.248   3.634
58073W        W23234  29.413  40.424  12.965
58074W        W23235  14.776   2.010  13.996
58075W        W23236   2.955  37.437   5.033
58076W        W23237   7.359   0.317  11.532
58077W        W23238  14.105  22.217  14.911
58078W        W23239  13.011   0.672   2.487
58079W        W23240   1.248  15.603   2.967
58080W        W23241  10.675  31.607   3.217
58081W        W23242  24.821  31.991   2.552
58082W        W23243  37.424   8.369  14.307
58083W        W23244  24.266  21.398  11.305
58084W        W23245  29.209  15.486  12.127
58085W        W23246  34.698  14.042  13.442
58086W        W23247  30.864  10.921   4.253
58087W        W23248  17.810  15.100   2.267
58088W        W23249  40.045  14.220  11.349
58089W        W23250  28.471  31.082   3.230
58090W        W23251  40.705  43.729  11.696
58091W        W23252   8.010  27.067   5.245
58092W        W23253  36.029   4.850   4.113
58093W        W23254  24.511  33.905   1.526
58094W        W23255  31.435  30.893  11.160
58095W        W23256   3.781  42.738   2.790
58096W        W23257  27.346   2.135  13.423
58097W        W23258  22.603  12.610  14.822
58098W        W23259  25.005  12.810   1.862
58099W        W23260  15.716  11.853   2.763
58100W        W23261  20.146   8.968   2.879
58101W        W23262  34.581  34.220   1.512
58102W        W23263  17.148  12.304   0.540
58103W        W23264  20.964   3.332  14.949
58104W        W23265  27.437  44.770   3.822
58105W        W23266   4.744   7.909   3.744
58106W        W23267  43.413  23.997   0.489
58107W        W23268  11.658  30.539   1.500
58108W        W23269   2.723  35.039  10.396
58109W        W23270  19.688  25.466  11.066
58110W        W23271   8.943  35.653  14.264
58111W        W23272  33.038  24.699  14.428
58112W        W23273  20.749  13.722  14.767
58113W        W23274  26.399   6.489   3.742
58114W        W23275  12.704  42.268  11.108
58115W        W23276  25.506  14.743   3.620
58116W        W23277   9.663  17.764  12.515
58117W        W23278  17.400  39.319  13.057
58118W        W23279  43.425  14.666  11.404
58119W        W23280  19.755  16.631   0.433
58120W        W23281   3.924  26.094  14.826
58121W        W23282   1.433  36.299   0.337
58122W        W23283  31.458  29.553  14.272
58123W        W23284  31.979  36.024   3.039
58124W        W23285  31.004  44.821   2.035
58125W        W23286  18.313  44.785  10.716
58126W        W23287   6.914   0.040   4.019
58127W        W23288  10.735   6.438   4.562
58128W        W23289  28.516  43.848   3.853
58129W        W23290  37.425  39.167  12.940
58130W        W23291   8.652  42.146   3.752
58131W        W23292  14.047  17.930   0.366
58132W        W23293  26.541   3.221   2.563
58133W        W23294  18.009   3.188  12.857
58134W        W23295  30.393  22.754  14.868
58135W        W23296  38.072   9.835   2.576
58136W        W23297  23.920  20.282  14.815
58137W        W23298  22.453  21.984  14.348
58138W        W23299   7.982  27.164  10.291
58139W        W23300  12.756   0.531   0.037
58140W        W23301  21.981  24.451   2.702
58141W        W23302  20.141   3.883   4.283
58142W        W23303   8.822   3.193   3.000
58143W        W23304  15.923   6.204  13.308
58144W        W23305  23.771  32.573  11.182
58145W        W23306  10.137  26.945  11.441
58146W        W23307  38.803  19.330  14.256
58147W        W23308   1.815  35.514   2.259
58148W        W23309  15.002  19.373  11.611
58149W        W23310   0.776  27.718   1.819
58150W        W23311  10.437  10.898   4.088
58151W        W23312  38.633  32.914  13.237
58152W        W23313  37.651  20.209   2.276
58153W        W23314   1.898  19.165  10.678
58154W        W23315  18.441  29.302   0.344
58155W        W23316  16.167  16.208  14.474
58156W        W23317  13.494  28.524  11.589
58157W        W23318  31.403  33.040  12.911
58158W        W23319  13.913   2.319  13.347
58159W        W23320  39.947  21.878  11.198
58160W        W23321   3.872  38.044  10.460
58161W        W23322  27.397   5.885   0.389
58162W        W23323  34.324   1.805  14.416
58163W        W23324  35.120  20.090  14.122
58164W        W23325   2.759   6.150   3.757
58165W        W23326  15.284  32.613   3.187
58166W        W23327  15.095  31.641   0.286
58167W        W23328  27.196  28.170  13.416
58168W        W23329  23.129  36.990   2.894
58169W        W23330   3.024  35.526  13.495
58170W        W23331   9.113  43.890  14.167
58171W        W23332  23.560   7.596   3.694
58172W        W23333  33.138  36.559   1.235
58173W        W23334   3.443  30.451  14.358
58174W        W23335  31.391  44.475   0.348
58175W        W23336  41.771  36.095  11.248
58176W        W23337   6.309   5.189  11.804
58177W        W23338   4.960   5.906   2.836
58178W        W23339  31.793   1.839  12.445
58179W        W23340  35.884  28.733   4.175
58180W        W23341  11.110  43.011  12.905
58181W        W23342  11.030  24.473  11.676
58182W        W23343  27.335  42.445  13.411
58183W        W23344  29.581  44.248  11.957
58184W        W23345  17.654  27.670   1.703
58185W        W23346  36.079  32.545  13.352
58186W        W23347  41.207  36.101  11.983
58187W        W23348  30.507  18.694   2.775
58188W        W23349  10.733  30.954  13.554
58189W        W23350   1.740  31.103  11.625
58190W        W23351  36.586  25.668   3.838
58191W        W23352  44.922  31.338  13.502
58192W        W23353  16.340  15.195  11.871
58193W        W23354  43.856  41.317  14.341
58194W        W23355   0.746   6.468   3.240
58195W        W23356   8.012  26.582   3.025
58196W        W23357  27.872  19.071   0.305
58197W        W23358  23.012  18.127  12.185
58198W        W23359  24.927  29.260  12.996
58199W        W23360  34.179  20.633  14.957
58200W        W23361  23.721  44.786   2.601
58201W        W23362   2.468   3.851  12.439
58202W        W23363  33.930  19.052  13.275
58203W        W23364   1.678  37.413   4.597
58204W        W23365  42.311   1.260   2.911
58205W        W23366  11.725  10.384  10.654
58206W        W23367   3.118  32.555   2.322
58207W        W23368  13.045  23.608   3.414
58208W        W23369  10.369  23.279   4.961
58209W        W23370  34.459  38.013  12.084
58210W        W23371  25.252  31.245  12.977
58211W        W23372   3.991  30.987  12.070
58212W        W23373   2.878  25.971   3.285
58213W        W23374   9.697  16.610  14.141
58214W        W23375  22.929  33.928   2.213
58215W        W23376  11.603  16.039  11.661
58216W        W23377   4.991   9.605  14.891
58217W        W23378  20.274  36.975  14.432
58218W        W23379  18.012  26.274  12.464
58219W        W23380  27.682  10.227   0.180
58220W        W23381   0.378   0.314  11.527
58221W        W23382  10.225  25.260   0.774
58222W        W23383  35.479  24.913   2.703
58223W        W23384  16.276  20.319   0.847
58224W        W23385  27.445  17.694  11.537
58225W        W23386  44.325  39.754   3.892
58226W        W23387   0.978  11.383   2.725
58227W        W23388   8.808  16.634   1.908
58228W        W23389  15.377   9.320   1.532
58229W        W23390   4.860  29.755   1.885
58230W        W23391  38.820   5.699  12.139
58231W        W23392  33.405   3.697  10.902
58232W        W23393  19.021   5.608  10.399
58233W        W23394  43.775  35.402   4.216
58234W        W23395   9.160  25.340  13.596
58235W        W23396   8.261   6.694  14.305
58236W        W23397  26.915  44.038  11.925
58237W        W23398  27.898  25.150   2.396
58238W        W23399  22.410  11.272   1.120
58239W        W23400  29.877   9.355  14.059
58240W        W23401  40.249  33.209   5.030
58241W        W23402   1.911   1.056   0.532
58242W        W23403   9.146   3.353   1.007
58243W        W23404  44.533  11.589  11.512
58244W        W23405   7.783  39.558   1.820
58245W        W23406  31.961  19.444   1.271
58246W        W23407  30.746  21.665  14.246
58247W        W23408  34.395  28.274  10.688
58248W        W23409  30.388  26.984  12.430
58249W        W23410  37.855  43.490  14.928
58250W        W23411  43.826   5.354   4.188
58251W        W23412  42.562  23.669  12.962
58252W        W23413  26.376   8.385   3.679
58253W        W23414  39.124  37.338  12.923
58254W        W23415  34.111  23.797   5.751
58255W        W23416  16.834  31.159   3.098
58256W        W23417  34.060   3.563  11.597
58257W        W23418  14.928  19.495  11.098
58258W        W23419  19.010  12.958  10.482
58259W        W23420  10.836  27.162  13.892
58260W        W23421  28.638   9.253  12.376
58261W        W23422  39.561  19.090   1.075
58262W        W23423  24.773  11.588   3.241
58263W        W23424  28.361  36.836   2.803
58264W        W23425   9.931  29.499  11.123
58265W        W23426  41.745   9.660   0.721
58266W        W23427  15.636  30.635   1.506
58267W        W23428   0.426  43.968   0.440
58268W        W23429   4.298  21.245   2.223
58269W        W23430  43.027  38.078   4.134
58270W        W23431  11.593  17.337   2.716
58271W        W23432  11.676  24.071  14.948
58272W        W23433   2.459  35.835   2.667
58273W        W23434   8.846   8.061  13.095
58274W        W23435   3.386   5.910   2.356
58275W        W23436   1.072  34.644  13.331
58276W        W23437  26.117  30.433  11.365
58277W        W23438   4.824  37.579  10.236
58278W        W23439  12.644  37.460  13.895
58279W        W23440  18.072  36.340   4.491
58280W        W23441  16.189  22.101   2.136
58281W        W23442  38.397  32.645  13.893
58282W        W23443   8.334   0.914   2.716
58283W        W23444   9.165  20.117  11.637
58284W        W23445  27.725   9.852   4.273
58285W        W23446  10.155  41.456  12.481
58286W        W23447   9.131  10.115   1.441
58287W        W23448  37.349  39.595   2.312
58288W        W23449  21.785  26.162   0.226
58289W        W23450   7.406  31.358   1.228
58290W        W23451  10.318  18.147  14.015
58291W        W23452   4.874  40.276  12.557
58292W        W23453  35.953  12.677  12.926
58293W        W23454   8.259  25.102  14.428
58294W        W23455  23.640   8.925   2.274
58295W        W23456  39.751  35.118  14.304
58296W        W23457  22.050  24.085   1.603
58297W        W23458  30.702  17.527   1.896
58298W        W23459  17.328  23.687   0.991
58299W        W23460  22.757  28.973   4.427
58300W        W23461   7.081  30.675  11.477
58301W        W23462  16.650  18.729   0.458
58302W        W23463  34.725   4.442   0.539
58303W        W23464   4.938  19.102   0.554
58304W        W23465  44.378  35.369   3.699
58305W        W23466  11.196  15.087   1.548
58306W        W23467  23.474   6.127  12.977
58307W        W23468   5.948  40.492   3.664
58308W        W23469  12.545  15.861   2.051
58309W        W23470   6.252  20.830   3.100
58310W        W23471  14.667  38.961   4.970
58311W        W23472  22.563  25.209  14.856
58312W        W23473  25.162   5.952   3.715
58313W        W23474  26.105  44.517  14.902
58314W        W23475  11.542  40.775   2.789
58315W        W23476  31.124  28.630   3.082
58316W        W23477  24.261  23.689  13.378
58317W        W23478   9.172  20.637  13.968
58318W        W23479  39.016  36.146   0.649
58319W        W23480   5.403  20.586  14.230
58320W        W23481  24.749   4.664  12.876
58321W        W23482   3.659   3.301   4.165
58322W        W23483  24.419  21.031  13.036
58323W        W23484   1.902  22.103  11.519
58324W        W23485  14.088  23.610  12.419
58325W        W23486  17.257  11.834   1.830
58326W        W23487  24.939   9.799  12.823
58327W        W23488  35.232  16.211  12.058
58328W        W23489   9.308  26.757  14.797
58329W        W23490  29.312  20.256   2.088
58330W        W23491  16.199  16.222   5.572
58331W        W23492  23.838  14.050   1.800
58332W        W23493   6.460  44.321  14.984
58333W        W23494  17.315  28.979   2.324
58334W        W23495  12.135  39.331   3.332
58335W        W23496  24.636  26.959  12.269
58336W        W23497  43.230  18.645   0.229
58337W        W23498   7.719  28.880   3.102
58338W        W23499  29.518  22.012  12.429
58339W        W23500  38.485  40.857   2.049
58340W        W23501   9.885  42.546  10.732
58341W        W23502  16.434   2.752  14.302
58342W        W23503  20.547  26.221   2.202
58343W        W23504   6.334  39.569  10.546
58344W        W23505  24.377  12.819  10.424
58345W        W23506  32.237  43.500   1.520
58346W        W23507  30.169  11.215  14.865
58347W        W23508  21.357  30.410  13.110
58348W        W23509  29.373  43.417  14.024
58349W        W23510  41.989  35.084  10.720
58350W        W23511   3.853  18.541   2.381
58351W        W23512  15.743   4.339  11.244
58352W        W23513   6.570  36.520  12.074
58353W        W23514   6.509  21.181   1.375
58354W        W23515  38.227   2.871  10.504
58355W        W23516  31.580  17.059   4.826
58356W        W23517  19.454  13.789   3.659
58357W        W23518  39.797  30.090  13.375
58358W        W23519  20.559  19.534   1.720
58359W        W23520  35.495   1.961  12.598
58360W        W23521  15.516  36.825   0.830
58361W        W23522  10.761  12.088  11.047
58362W        W23523  43.275   7.733   0.122
58363W        W23524  33.388  38.495  14.289
58364W        W23525  29.082  35.799   0.960
58365W        W23526  10.265  10.596   1.490
58366W        W23527  21.797  17.226  11.422
58367W        W23528  10.074  20.226  11.653
58368W        W23529  32.749  22.565   5.444
58369W        W23530  10.763  35.128  11.079
58370W        W23531  31.940   7.869   4.128
58371W        W23532   0.363  19.676  12.937
58372W        W23533  22.136  16.196  12.085
58373W        W23534  20.662  18.331   1.230
58374W        W23535  14.944  18.562   4.661
58375W        W23536  28.754  26.511   1.575
58376W        W23537  42.296  44.827  14.931
58377W        W23538   0.332  27.913  12.045
58378W        W23539  15.118  21.137   0.718
58379W        W23540  43.384  19.500  12.884
58380W        W23541  15.529   6.076  14.294
58381W        W23542   1.454   2.953  11.175
58382W        W23543  31.485  38.216  12.483
58383W        W23544  26.403  27.359   1.931
58384W        W23545  43.487  37.002   2.876
58385W        W23546  27.249  20.737   3.790
58386W        W23547   2.938  30.334   0.995
58387W        W23548  21.421   9.193  13.827
58388W        W23549  33.064   3.427   1.395
58389W        W23550  29.503  37.338   3.720
58390W        W23551  20.108  33.016   1.410
58391W        W23552  14.320  39.485  14.206
58392W        W23553  12.883  16.124   1.461
58393W        W23554  33.664  38.088  13.181
58394W        W23555  32.523   1.006   1.228
58395W        W23556  12.878  38.280  10.874
58396W        W23557  23.019  30.765  11.566
58397W        W23558  18.069   7.310   0.744
58398W        W23559  20.121  17.217   1.510
58399W        W23560  28.672  26.298  13.966
58400W        W23561   4.002  35.320  14.859
58401W        W23562  15.716  25.907  14.053
58402W        W23563  36.898  14.442   0.570
58403W        W23564  22.455   8.748   3.997
58404W        W23565  15.194  26.233  11.874
58405W        W23566  29.486  27.127  14.704
58406W        W23567  41.650   0.991  12.483
58407W        W23568  25.679  21.055   3.442
58408W        W23569   0.994  12.358   1.802
58409W        W23570   3.886  41.029  10.471
58410W        W23571   5.305  42.830  11.558
58411W        W23572  19.065  18.362  10.692
58412W        W23573  14.333  35.636  14.361
58413W        W23574  27.961   3.544  14.396
58414W        W23575   6.355  10.163  14.414
58415W        W23576  14.016  26.565  13.881
58416W        W23577   3.348   5.124   0.312
58417W        W23578   0.242  37.066   2.697
58418W        W23579  33.224   7.422  11.050
58419W        W23580  31.557   7.966   2.240
58420W        W23581  39.492   4.346   0.897
58421W        W23582  14.942   4.612  10.909
58422W        W23583   5.250   1.859  14.726
58423W        W23584  15.798  34.324   4.617
58424W        W23585  30.976  25.961   9.883
58425W        W23586  15.127  19.994  10.740
58426W        W23587  43.932  24.970   4.224
58427W        W23588  39.327  28.877  10.667
58428W        W23589  35.585  20.945  11.439
58429W        W23590  35.004  16.992  12.397
58430W        W23591  35.314  22.434  12.478
58431W        W23592  12.849  25.201   3.250
58432W        W23593  34.010  10.159  11.527
58433W        W23594  42.395  40.685   3.639
58434W        W23595  22.756  17.550   3.594
58435W        W23596  41.488  13.835  11.121
58436W        W23597   5.876  10.382   2.426
58437W        W23598   9.822   8.521  10.142
58438W        W23599  44.974  12.420   3.980
58439W        W23600  29.222  10.874  11.871
58440W        W23601  16.779  12.780  14.778
58441W        W23602  12.264  10.849  14.501
58442W        W23603  24.879  14.333   1.264
58443W        W23604   4.431  13.935   4.081
58444W        W23605  20.834  17.817  12.543
58445W        W23606   2.034  31.564   4.193
58446W        W23607  13.038  30.369  12.885
58447W        W23608   9.099  21.961   4.463
58448W        W23609   2.814  33.783  12.120
58449W        W23610   5.227   5.806  12.059
58450W        W23611   3.743   3.208   2.164
58451W        W23612  14.277  31.703   0.740
58452W        W23613  22.733  32.483   1.285
58453W        W23614   3.391  40.079  14.520
58454W        W23615  16.065  28.889   2.836
58455W        W23616  22.447   7.303   1.423
58456W        W23617  39.895  28.414   0.800
58457W        W23618   4.132  18.721   3.613
58458W        W23619  23.786  36.601   0.890
58459W        W23620   8.865  32.415   4.369
58460W        W23621  38.857  36.884  10.719
58461W        W23622   8.377  14.054   4.120
58462W        W23623  34.609  28.650  14.881
58463W        W23624   1.704  11.885   4.121
58464W        W23625  34.928  30.659   4.522
58465W        W23626   6.711  22.628   1.693
58466W        W23627  35.544   3.904   3.733
58467W        W23628  30.109  40.127   2.397
58468W        W23629  11.047  25.716  13.868
58469W        W23630  40.982   3.939   1.299
58470W        W23631  15.238  15.102   2.808
58471W        W23632  38.001  22.352   3.168
58472W        W23633   8.130  36.433  11.812
58473W        W23634  35.467  27.156  13.520
58474W        W23635  21.091  27.997   4.955
58475W        W23636  26.545  34.560  12.158
58476W        W23637  30.746  43.765  11.630
58477W        W23638  36.333   3.023  14.647
58478W        W23639  14.571  37.279   1.357
58479W        W23640   5.458  41.499  14.013
58480W        W23641   1.536  24.027   3.690
58481W        W23642  43.282  18.201  10.669
58482W        W23643   5.765   0.300   1.558
58483W        W23644  13.251  28.641   2.367
58484W        W23645  25.086  18.233  14.777
58485W        W23646   7.666   8.441   2.644
58486W        W23647  26.862  10.296   0.763
58487W        W23648  28.273  20.173  10.286
58488W        W23649  41.482  40.861   0.308
58489W        W23650  22.066  10.149   0.149
58490W        W23651  20.043  41.095   3.648
58491W        W23652  30.257  10.751   1.646
58492W        W23653  20.560  36.522   0.070
58493W        W23654   9.856   9.970   2.014
58494W        W23655  22.793   5.720  13.490
58495W        W23656  12.306  26.959  12.494
58496W        W23657  40.450  39.348  12.083
58497W        W23658  32.722  43.335   4.961
58498W        W23659   0.982  18.584   1.402
58499W        W23660  44.983   8.622  13.525
58500W        W23661  39.036  22.139  12.489
58501W        W23662  37.379  19.762  12.053
58502W        W23663  12.821   6.688   3.646
58503W        W23664  26.420   8.763  11.466
58504W        W23665  17.014  14.673   2.307
58505W        W23666   7.694  32.667  11.103
58506W        W23667  12.651  13.021   2.042
58507W        W23668  24.766  41.822   3.237
58508W        W23669  18.105   8.263  10.944
58509W        W23670  24.181  15.665  12.536
58510W        W23671  26.000  25.472   3.335
58511W        W23672  21.594  44.267  13.045
58512W        W23673  34.017  32.581  12.561
58513W        W23674  22.871  13.573  14.028
58514W        W23675   1.840  36.353   0.883
58515W        W23676  16.734  41.043  10.752
58516W        W23677  32.101  24.179   1.815
58517W        W23678  35.989   2.779   1.440
58518W        W23679   3.261  15.339   3.703
58519W        W23680  43.460  26.417   3.974
58520W        W23681  41.439  11.806  12.855
58521W        W23682   1.324  34.850  12.050
58522W        W23683   6.081  21.105  14.415
58523W        W23684  14.248  44.812  12.393
58524W        W23685  23.686  39.839   0.305
58525W        W23686  28.001  14.546   4.284
58526W        W23687  41.057   0.530   2.342
58527W        W23688  27.325   4.476   3.941
58528W        W23689  39.241   7.231   1.763
58529W        W23690   0.788  28.577   2.137
58530W        W23691  32.872  33.819   0.285
58531W        W23692  40.062  21.077  14.900
58532W        W23693   7.483  30.480   4.126
58533W        W23694   2.360   5.691  12.399
58534W        W23695   6.224  27.199  14.500
58535W        W23696  28.417  22.782  11.508
58536W        W23697  37.329  32.077  14.393
58537W        W23698   1.350  19.956  10.439
58538W        W23699  21.144  19.119   1.242
58539W        W23700  11.290  13.062   0.007
58540W        W23701   5.256  11.415  10.572
58541W        W23702   9.058   2.193  12.190
58542W        W23703  29.909  41.273   3.247
58543W        W23704  23.351   3.258   3.882
58544W        W23705  11.865   9.596   1.919
58545W        W23706  38.570  11.753  13.110
58546W        W23707  26.117  28.198   0.011
58547W        W23708  26.616  30.497   0.854
58548W        W23709   8.647  16.016   0.734
58549W        W23710   6.452  39.971  11.965
58550W        W23711  15.605  26.719  13.843
58551W        W23712  12.714  30.993   3.654
58552W        W23713   0.906  21.901   2.850
58553W        W23714   9.851  25.063   4.193
58554W        W23715  22.933  22.252  11.156
58555W        W23716  34.504  41.930  12.675
58556W        W23717  22.440  43.686  11.686
58557W        W23718  14.206  41.236   5.058
58558W        W23719  31.644  30.514  13.956
58559W        W23720  34.188   1.039  10.737
58560W        W23721  17.022  20.894  11.238
58561W        W23722  23.294  23.994  12.118
58562W        W23723  38.826  27.400  11.153
58563W        W23724  36.395   0.915  10.607
58564W        W23725  11.705  26.558   0.006
58565W        W23726  25.602  33.168   0.972
58566W        W23727  14.733  20.377  10.649
58567W        W23728  20.618  33.446  14.014
58568W        W23729   0.816  18.019  11.535
58569W        W23730  10.056  21.493  14.430
58570W        W23731  10.294   4.847  13.052
58571W        W23732   9.173  43.762  14.654
58572W        W23733   4.907  28.848   1.850
58573W        W23734  14.292  17.322   3.670
58574W        W23735  17.826  12.174  12.870
58575W        W23736  39.388  16.039  10.747
58576W        W23737  16.789   3.756   1.311
58577W        W23738   4.683  19.426   3.326
58578W        W23739  18.550  15.641  13.621
58579W        W23740   6.756  30.416   4.674
58580W        W23741  38.096  14.183   2.770
58581W        W23742  30.080  23.729   0.254
58582W        W23743  19.338  22.772   4.106
58583W        W23744  16.214  18.597  10.490
58584W        W23745   6.181  20.580  13.932
58585W        W23746  27.801  38.430   1.370
58586W        W23747   9.377  33.947  11.521
58587W        W23748  42.521   9.851  13.460
58588W        W23749  40.677  32.947  11.203
58589W        W23750  34.667  28.926  10.821
58590W        W23751  42.032  41.375   4.789
58591W        W23752   6.974   0.449  11.825
58592W        W23753  41.625  44.496   1.780
58593W        W23754  11.302  31.218  14.574
58594W        W23755   5.696  37.545  12.700
58595W        W23756  40.327  17.881  10.242
58596W        W23757   7.682  11.128   1.857
58597W        W23758  15.197  25.679  14.055
58598W        W23759   0.394  35.098   0.211
58599W        W23760  38.756   5.991  10.924
58600W        W23761  16.216  12.582  11.388
58601W        W23762  38.637  17.984  11.699
58602W        W23763  34.137  24.803   0.027
58603W        W23764  42.548  25.102   4.470
58604W        W23765  38.065  44.423  10.697
58605W        W23766  20.801  18.089  13.473
58606W        W23767   1.876  26.458  13.932
58607W        W23768  10.824   0.014  14.467
58608W        W23769  27.395  14.881   3.196
58609W        W23770  42.114  35.261  11.523
58610W        W23771  37.795  44.456  14.749
58611W        W23772   6.844  24.728   2.681
58612W        W23773  15.697  35.085   0.371
58613W        W23774  17.141   7.455  13.878
58614W        W23775  35.997  31.905   0.069
58615W        W23776  15.748  44.466  13.873
58616W        W23777  11.442  33.539  10.907
58617W        W23778  19.188   2.942   4.632
58618W        W23779  23.648  12.396   0.921
58619W        W23780  28.862  31.584  13.852
58620W        W23781  33.493  28.336  13.532
58621W        W23782   0.672  25.086  14.181
58622W        W23783  22.618   6.517   5.249
58623W        W23784   5.505  25.030   2.066
58624W        W23785  33.513  33.879  13.021
58625W        W23786  17.184  37.359  10.646
58626W        W23787  32.740  35.909  10.643
58627W        W23788  19.614  24.855   4.277
58628W        W23789  24.807  17.886  11.583
58629W        W23790  37.889  36.973  11.592
58630W        W23791  28.056  24.877   1.344
58631W        W23792  25.695  36.500   3.776
58632W        W23793  15.642  36.000  14.452
58633W        W23794  35.502  13.229  13.098
58634W        W23795   3.253  35.260   3.288
58635W        W23796   3.616  43.725  14.977
58636W        W23797  26.333  18.839   4.411
58637W        W23798  39.558  16.564   1.900
58638W        W23799  44.796  36.165   1.913
58639W        W23800  40.541  41.447  13.988
58640W        W23801  26.039  16.194  11.177
58641W        W23802  25.504  29.168  13.309
58642W        W23803  11.112  31.970   4.071
58643W        W23804  30.823  26.687  12.468
58644W        W23805  40.432  30.104   3.078
58645W        W23806  44.511  21.694   3.274
58646W        W23807  41.875   0.597  13.799
58647W        W23808  39.003  16.327   3.816
58648W        W23809  10.785  27.870  11.170
58649W        W23810  30.482  12.384  12.596
58650W        W23811  21.181  36.107   1.943
58651W        W23812   7.893  33.038   1.317
58652W        W23813  44.033  10.738   2.449
58653W        W23814  24.646   8.132  11.097
58654W        W23815  11.677   3.524   5.121
58655W        W23816  32.789  30.636   1.092
58656W        W23817   5.332  42.313  11.550
58657W        W23818  20.349   9.302   1.210
58658W        W23819  22.798   2.329   4.885
58659W        W23820   2.554   7.013  12.381
58660W        W23821  39.073   6.424   3.293
58661W        W23822  39.540  18.703  11.256
58662W        W23823  31.441  33.341  13.781
58663W        W23824  41.966  30.166   4.971
58664W        W23825   2.797  41.649   2.269
58665W        W23826  31.402  19.529  14.029
58666W        W23827  36.581  34.921  12.540
58667W        W23828   4.958  14.199   0.759
58668W        W23829  21.347   6.889   1.945
58669W        W23830  40.618   0.808  13.412
58670W        W23831  13.835   3.761  13.579
58671W        W23832  11.705  41.248  13.767
58672W        W23833  37.579   0.282   3.859
58673W        W23834   5.240  17.421  14.720
58674W        W23835   5.250   7.572   4.682
58675W        W23836  28.105  11.432  14.656
58676W        W23837  27.442   8.244  11.642
58677W        W23838   1.549   9.656  10.718
58678W        W23839   5.399  28.439   0.064
58679W        W23840   6.470   2.417   0.772
58680W        W23841  37.160   0.922   3.263
58681W        W23842  20.131  15.784  12.303
58682W        W23843  42.888  17.900   4.501
58683W        W23844  37.783   9.300  14.935
58684W        W23845  21.150  10.145   2.693
58685W        W23846  14.145  33.191   2.361
58686W        W23847  34.290  10.420   1.219
58687W        W23848  10.858  36.498  14.725
58688W        W23849  26.387   7.816   4.593
58689W        W23850  11.048  30.630  11.809
58690W        W23851  12.597  15.694  13.844
58691W        W23852  10.735   3.326   0.719
58692W        W23853  20.773  27.486   2.195
58693W        W23854  36.791  13.168  10.752
58694W        W23855  11.847  16.201   1.377
58695W        W23856  37.300  29.007  14.661
58696W        W23857   5.916  28.279   1.427
58697W        W23858   2.058  36.564   3.690
58698W        W23859  15.613  17.368  11.185
58699W        W23860  38.305  13.776  13.939
58700W        W23861   7.765  23.228   3.345
58701W        W23862  33.517  44.488   2.197
58702W        W23863  18.389   4.871  13.033
58703W        W23864   6.397  28.471  12.715
58704W        W23865  23.487   4.631  14.909
58705W        W23866  16.891   9.782  12.115
58706W        W23867   1.682  44.080  11.117
58707W        W23868  31.626   2.955   1.458
58708W        W23869   9.555  24.248   3.670
58709W        W23870  32.596  16.170  14.863
58710W        W23871  21.144  11.213   1.755
58711W        W23872   8.399   6.892   2.815
58712W        W23873  25.541  43.954  10.431
58713W        W23874   3.375  43.946   0.403
58714W        W23875  28.047  21.523   1.711
58715W        W23876  33.111  36.956   1.820
58716W        W23877  40.503  17.713   0.330
58717W        W23878   4.001  17.130   3.132
58718W        W23879  24.916  33.454   3.827
58719W        W23880  31.124  10.159  11.027
58720W        W23881   0.474  28.068  13.408
58721W        W23882   0.777   8.969   5.066
58722W        W23883  26.209  24.466  13.413
58723W        W23884  40.634   8.152   1.865
58724W        W23885  13.652  14.287  12.450
58725W        W23886   4.082  36.678   4.254
58726W        W23887  25.637   8.223  14.060
58727W        W23888   1.746   0.242   1.372
58728W        W23889  37.285  25.648  12.275
58729W        W23890  13.934  41.130  14.305
58730W        W23891   6.218  33.940   3.664
58731W        W23892  11.583  30.548  10.922
58732W        W23893  17.611  30.737  12.500
58733W        W23894  36.602  32.372  10.685
58734W        W23895  23.801   9.485  11.111
58735W        W23896  40.812  34.659   1.835
58736W        W23897  10.793   6.746  14.394
58737W        W23898   2.467  27.730  12.862
58738W        W23899  42.805  32.417  13.386
58739W        W23900  41.878  33.513   3.632
58740W        W23901  33.010  39.633  12.889
58741W        W23902  44.415  32.729   4.414
58742W        W23903   9.389  14.537   3.654
58743W        W23904  11.748  36.354  13.517
58744W        W23905  35.433   6.590   1.704
58745W        W23906  32.895   6.813  12.024
58746W        W23907  26.641  24.659   5.183
58747W        W23908  36.933  17.172   4.787
58748W        W23909  38.776   3.329  13.995
58749W        W23910  38.564   0.019   2.718
58750W        W23911  15.293  31.844  14.374
58751W        W23912  15.520   1.284  14.330
58752W        W23913   5.735  39.613   2.798
58753W        W23914  16.792   0.057   4.855
58754W        W23915  21.961   4.174  11.068
58755W        W23916   1.275  36.455   2.273
58756W        W23917  39.136   6.558  14.475
58757W        W23918  38.904  10.051  13.314
58758W        W23919  36.246  34.548  13.919
58759W        W23920  43.819  23.598   0.704
58760W        W23921  25.296   0.282  11.385
58761W        W23922  31.813  12.617  10.197
58762W        W23923   9.454  35.342   2.888
58763W        W23924  41.683   0.845   3.717
58764W        W23925  40.784  36.352   5.188
58765W        W23926  25.117  31.632  14.873
58766W        W23927   4.339   3.695   2.887
58767W        W23928  11.687  24.105  12.705
58768W        W23929  19.027   5.473   4.579
58769W        W23930   2.806  18.587   4.017
58770W        W23931  11.315  36.106   1.386
58771W        W23932   4.382   5.407   5.032
58772W        W23933  18.866  35.969  12.094
58773W        W23934   7.833   5.513  14.009
58774W        W23935  19.298  38.398  14.111
58775W        W23936  36.343  37.461  14.521
58776W        W23937  28.465  32.565  14.871
58777W        W23938   6.239  39.730   2.819
58778W        W23939  15.747   9.333  13.410
58779W        W23940  25.148  40.953  11.065
58780W        W23941  18.922  39.372   1.166
58781W        W23942  31.752  11.383   2.327
58782W        W23943  44.766  43.297   1.338
58783W        W23944   6.764  37.500   0.328
58784W        W23945   3.040  25.174   1.003
58785W        W23946  19.449  43.440  13.744
58786W        W23947  14.832  31.181  14.010
58787W        W23948  31.481   9.424   1.339
58788W        W23949  41.346  18.790  10.763
58789W        W23950  16.700  36.882  13.329
58790W        W23951   7.320   4.380  12.943
58791W        W23952  33.715   8.009   5.072
58792W        W23953  44.268   1.865  13.083
58793W        W23954  11.697  25.699  12.408
58794W        W23955  30.122  41.046  10.235
58795W        W23956   6.462  12.813   2.397
58796W        W23957  36.988  23.025   0.578
58797W        W23958   2.714  22.624  12.541
58798W        W23959   7.721  36.400   4.939
58799W        W23960   4.867  33.635  14.378
58800W        W23961  39.017   0.385  11.206
58801W        W23962  40.890  36.770  12.818
58802W        W23963  21.095  27.701  13.065
58803W        W23964  26.610   4.395  12.509
58804W        W23965  27.009  13.824   4.929
58805W        W23966  34.019  44.020   2.095
58806W        W23967  17.215  12.691   3.370
58807W        W23968  12.782  29.674   1.394
58808W        W23969  30.867  13.716  13.337
58809W        W23970   7.667  14.591   1.391
58810W        W23971  24.585  13.525  12.064
58811W        W23972   5.762  11.294   0.325
58812W        W23973  36.492  17.335  14.771
58813W        W23974   9.708  34.998   2.519
58814W        W23975  19.772  40.142  11.443
58815W        W23976  21.593   3.718   0.249
58816W        W23977  37.555   3.277  12.473
58817W        W23978  22.973  26.243  13.143
58818W        W23979  17.589  37.878  14.277
58819W        W23980  26.522  23.770   4.073
58820W        W23981   9.217  27.135  10.727
58821W        W23982   2.040  34.527  11.086
58822W        W23983  29.420  14.295  11.138
58823W        W23984  26.930  33.964  12.777
58824W        W23985  33.897   6.728   0.187
58825W        W23986  26.614  38.119  12.737
58826W        W23987  35.897  34.449   0.906
58827W        W23988  39.768  43.771  11.154
58828W        W23989  42.822  32.859   2.980
58829W        W23990  25.853  26.527  12.313
58830W        W23991  31.772  30.431  13.293
58831W        W23992   7.120  30.485  10.980
58832W        W23993  16.705   1.434   1.447
58833W        W23994   3.289  30.995   3.574
58834W        W23995  12.073   8.671  11.668
58835W        W23996  22.577  14.704  12.285
58836W        W23997  31.822  44.918   1.610
58837W        W23998  33.002  36.548   0.439
58838W        W23999   9.881  24.274  11.112
58839W        W24000  44.513   7.260  11.488
58840W        W24001  18.064  35.922  11.102
58841W        W24002  42.804  44.359  14.263
58842W        W24003  16.863   0.047  11.618
58843W        W24004  11.146  14.276  10.788
58844W        W24005  32.126  24.452  14.065
58845W        W24006   9.378   7.044  11.017
58846W        W24007  29.433  12.364  11.132
58847W        W24008   6.923  26.630  14.804
58848W        W24009  11.239  10.191   2.513
58849W        W24010  32.058   3.815   0.530
58850W        W24011  31.007  40.286   1.331
58851W        W24012  27.916  21.029   4.097
58852W        W24013   6.500  16.278  11.985
58853W        W24014  22.034  44.487   4.101
58854W        W24015   0.741   8.729   4.584
58855W        W24016   6.743  42.740  12.426
58856W        W24017  34.006  20.321  13.989
58857W        W24018  30.691  24.151  14.860
58858W        W24019  42.445  34.535  10.851
58859W        W24020   9.294  34.933   3.165
58860W        W24021  18.734  32.944  14.000
58861W        W24022  16.356  23.914  12.936
58862W        W24023  20.163  35.826   0.860
58863W        W24024  27.414  22.979   1.195
58864W        W24025  39.088  28.046  14.306
58865W        W24026  31.125  25.076  11.726
58866W        W24027  21.164   0.505  14.438
58867W        W24028  33.878   3.998  12.395
58868W        W24029   7.302   0.820   4.099
58869W        W24030  28.111   7.820   0.144
58870W        W24031  17.179  38.694  12.488
58871W        W24032  19.116   8.910   1.201
58872W        W24033  12.020   1.063  12.186
58873W        W24034  17.287  37.656   0.736
58874W        W24035  17.017  41.919   4.967
58875W        W24036  21.949  20.649  14.111
58876W        W24037  27.275  44.253  13.489
58877W        W24038  29.109  28.960  10.659
58878W        W24039  16.587  17.325   3.735
58879W        W24040  27.299  12.399   0.015
58880W        W24041  11.290  29.242   0.852
58881W        W24042  34.860  26.508  12.488
58882W        W24043  16.797  44.355  13.862
58883W        W24044  42.291  29.244  12.527
58884W        W24045  42.514  17.830  10.550
58885W        W24046  35.397  37.192  14.294
58886W        W24047   6.585  40.898  13.350
58887W        W24048  29.685  35.768   2.365
58888W        W24049  11.684   2.375  12.982
58889W        W24050  44.282  19.078   3.241
58890W        W24051  26.410  26.498   2.139
58891W        W24052  22.127  15.871   4.842
58892W        W24053  38.744   1.556  11.611
58893W        W24054  29.091   2.713   0.940
58894W        W24055   7.179  22.738   3.731
58895W        W24056  30.145  44.837  14.564
58896W        W24057  16.126   2.334  12.009
58897W        W24058   7.632   9.754  11.637
58898W        W24059  13.672  13.904   2.367
58899W        W24060  33.463   3.268  12.970
58900W        W24061  24.101   2.620   3.807
58901W        W24062  26.512   3.004   3.379
58902W        W24063  19.151   7.450  12.147
58903W        W24064  26.683   8.789   0.878
58904W        W24065  29.638  32.323  11.953
58905W        W24066   5.462   4.700   5.001
58906W        W24067   9.147  36.778   1.475
58907W        W24068  14.645  37.588   3.759
58908W        W24069  23.928  20.821  12.955
58909W        W24070  39.461  44.970   2.850
58910W        W24071   9.123  43.153   4.693
58911W        W24072  22.018  43.289   0.262
58912W        W24073  10.388  20.027  10.825
58913W        W24074  28.552  35.150  14.996
58914W        W24075   0.945   0.743  13.567
58915W        W24076  36.592  23.906   4.995
58916W        W24077   1.034  26.650   0.925
58917W        W24078  25.221  39.882   1.275
58918W        W24079  39.039  24.480   0.493
58919W        W24080   4.731  40.167  14.798
58920W        W24081  13.858  14.123   0.129
58921W        W24082  23.641   3.898   1.406
58922W        W24083  42.613  42.306   2.114
58923W        W24084  29.254  31.646   4.892
58924W        W24085  22.686  43.008   3.207
58925W        W24086   1.871  11.760   0.457
58926W        W24087  13.733  15.340  14.357
58927W        W24088   4.685  37.963  12.399
58928W        W24089   4.961  30.917   5.197
58929W        W24090  10.802  21.829   3.114
58930W        W24091  35.888  40.260  14.029
58931W        W24092  44.878  43.813   2.218
58932W        W24093  15.461  11.195  14.266
58933W        W24094  16.764  13.512   1.470
58934W        W24095  36.798  22.136  12.248
58935W        W24096  43.532  21.254   1.300
58936W        W24097   3.781   3.819  13.255
58937W        W24098  27.593  22.659  13.610
58938W        W24099  34.176  40.097   5.057
58939W        W24100  38.528   5.254   2.344
58940W        W24101  30.750  42.455   1.467
58941W        W24102   1.442  44.911   4.625
58942W        W24103  15.355  37.435   4.053
58943W        W24104  19.825  38.362  14.059
58944W        W24105  19.671  37.842  13.396
58945W        W24106  37.369   0.900  12.158
58946W        W24107  16.352   4.488  12.504
58947W        W24108   1.349  16.733   3.828
58948W        W24109  21.443  29.113  14.841
58949W        W24110   1.273   5.446   0.800
58950W        W24111  27.533  14.592   4.509
58951W        W24112  35.537  33.879   4.786
58952W        W24113  15.147  42.202   1.975
58953W        W24114   6.883  41.784   4.266
58954W        W24115   3.690  37.445   0.029
58955W        W24116   1.281  11.912  14.347
58956W        W24117  34.364  22.486  13.661
58957W        W24118  24.491   3.223   3.850
58958W        W24119  40.450  14.144   3.737
58959W        W24120  39.499  44.514   3.663
58960W        W24121  29.725   1.908   0.372
58961W        W24122   2.395  19.498  14.230
58962W        W24123   9.685  33.702   9.867
58963W        W24124   8.242  40.009   1.175
58964W        W24125  10.985  38.104   1.315
58965W        W24126  19.232  15.592  11.613
58966W        W24127   8.923  27.725   9.782
58967W        W24128  18.007  31.477   4.378
58968W        W24129  36.353  13.678   3.987
58969W        W24130  23.685  22.672  12.155
58970W        W24131  23.537  16.324   1.153
58971W        W24132  43.348  41.593   1.267
58972W        W24133  16.173  43.604  11.125
58973W        W24134  38.050  12.395   2.587
58974W        W24135  37.592   3.333   1.273
58975W        W24136  18.471  14.829  14.324
58976W        W24137  26.119  36.297   1.711
58977W        W24138   1.980  44.686  12.906
58978W        W24139  34.150  35.824  10.583
58979W        W24140   7.037  38.495  11.224
58980W        W24141  29.509   1.681  12.001
58981W        W24142  30.775  12.374  13.550
58982W        W24143   8.578  16.780   4.414
58983W        W24144  42.937   4.120  10.717
58984W        W24145  34.855   0.021  11.399
58985W        W24146  42.422  21.481  13.604
58986W        W24147  30.470  16.209   1.780
58987W        W24148  42.027  30.933   2.382
58988W        W24149  23.009   4.964  13.742
58989W        W24150  28.712   0.721   0.960
58990W        W24151  17.295  39.455  11.825
58991W        W24152   8.735  17.681  13.481
58992W        W24153  25.237  28.156  12.122
58993W        W24154  26.493  25.697   3.357
58994W        W24155  28.261  38.927  11.668
58995W        W24156  39.925  38.658   1.659
58996W        W24157   8.283  33.144   4.816
58997W        W24158  23.919  31.797   4.522
58998W        W24159   4.919  19.253   2.884
58999W        W24160  44.472  21.271   1.229
59000W        W24161  33.077   9.392   0.833
59001W        W24162  29.977  34.609   2.748
59002W        W24163  34.149  39.010  12.855
59003W        W24164  36.019   0.777  12.358
59004W        W24165  26.891  20.627  12.070
59005W        W24166   0.919  41.040  12.557
59006W        W24167  43.396   7.728   0.629
59007W        W24168  41.443  20.163  14.812
59008W        W24169  24.480  41.435  14.336
59009W        W24170  35.633  42.986  11.190
59010W        W24171  32.179  33.561  14.488
59011W        W24172  29.608  36.214  10.197
59012W        W24173  41.961  17.320   0.922
59013W        W24174  10.386  20.261   1.746
59014W        W24175  33.131  43.600   2.035
59015W        W24176   7.265  36.984   0.720
59016W        W24177  17.128  17.602   0.209
59017W        W24178   7.963  25.492  11.078
59018W        W24179  32.103  32.409  10.739
59019W        W24180  39.047   2.709   2.576
59020W        W24181  28.656  37.455   2.714
59021W        W24182  13.696   6.881   1.996
59022W        W24183  44.106  34.952   1.691
59023W        W24184   5.644  22.744  12.496
59024W        W24185   2.020   5.884  12.060
59025W        W24186  27.753  40.047  12.736
59026W        W24187  39.368  37.804   1.648
59027W        W24188  39.478  36.310   2.710
59028W        W24189  43.786  22.931  11.510
59029W        W24190   3.330  24.413   3.482
59030W        W24191  34.422  11.854  12.085
59031W        W24192  43.946  26.561   4.709
59032W        W24193  32.414   9.358  10.981
59033W        W24194  22.934   2.522   0.480
59034W        W24195  39.565  28.084  11.313
59035W        W24196   0.260   2.383  13.445
59036W        W24197  37.491   4.634   0.814
59037W        W24198  24.112  42.228   1.833
59038W        W24199  29.533  12.823  13.493
59039W        W24200  12.315   7.943  11.164
59040W        W24201  28.034  18.068  10.948
59041W        W24202  15.801  33.675   1.881
59042W        W24203   4.047  10.861   0.868
59043W        W24204  38.356  14.079  14.796
59044W        W24205  39.794  17.556  12.393
59045W        W24206  33.605  16.317   3.175
59046W        W24207  41.781  12.402   0.782
59047W        W24208  38.013  38.380  14.493
59048W        W24209   0.356  16.458  12.789
59049W        W24210  18.063  31.616  13.638
59050W        W24211  43.849  13.492   0.656
59051W        W24212  16.596   0.804   0.167
59052W        W24213   8.696   2.877   0.355
59053W        W24214   6.181  36.961   3.981
59054W        W24215  39.843  39.010  12.906
59055W        W24216  11.799   0.810  11.274
59056W        W24217   1.659  22.039   2.179
59057W        W24218  15.319  22.306   2.343
59058W        W24219   1.241   7.819   3.841
59059W        W24220  25.099  14.481   4.981
59060W        W24221  26.110  26.598  11.867
59061W        W24222   8.436  16.517   0.731
59062W        W24223   4.321  25.455   0.698
59063W        W24224  44.204  14.792   0.838
59064W        W24225  11.267  28.516   0.334
59065W        W24226  38.571  44.311  11.383
59066W        W24227  11.183  43.276  14.921
59067W        W24228   2.203  27.585  10.813
59068W        W24229  30.882  13.312  10.703
59069W        W24230  23.045  33.581   4.190
59070W        W24231  40.315  30.594   3.168
59071W        W24232  16.127  35.983   0.783
59072W        W24233  29.192  42.716   4.616
59073W        W24234  34.456   0.901  12.481
59074W        W24235  28.619  30.403   4.359
59075W        W24236  32.401  17.212  12.919
59076W        W24237  26.739  13.144   0.888
59077W        W24238  23.185  34.256   3.708
59078W        W24239  10.300   9.241   3.178
59079W        W24240  43.480  21.649  10.645
59080W        W24241  38.869  11.521  10.705
59081W        W24242  20.136  15.037   4.521
59082W        W24243  34.394  37.799   5.174
59083W        W24244  12.267  39.776  10.358
59084W        W24245  17.619   5.785   0.423
59085W        W24246   1.882   2.741  12.907
59086W        W24247  13.569  28.980   3.774
59087W        W24248  29.079  18.381   0.913
59088W        W24249  24.565  39.455   2.127
59089W        W24250   3.835  17.557  11.201
59090W        W24251  40.909   0.951  10.676
59091W        W24252   4.165  38.408   2.662
59092W        W24253  20.103   6.262  13.761
59093W        W24254  25.311  41.828   4.941
59094W        W24255  36.340  26.006  12.966
59095W        W24256  27.461  44.604  13.166
59096W        W24257  30.286  14.088   0.774
59097W        W24258  39.891  30.502  11.166
59098W        W24259  41.762  44.403   4.966
59099W        W24260  17.813  43.435   1.797
59100W        W24261   7.505  25.446  10.681
59101W        W24262  40.558  11.347   1.275
59102W        W24263   7.210  26.994  14.068
59103W        W24264  25.448  22.476  12.247
59104W        W24265   2.775  24.286  12.879
59105W        W24266  10.886  42.874  14.270
59106W        W24267  38.696  34.600  12.804
59107W        W24268   0.204  14.310   3.243
59108W        W24269   8.246  27.183   1.725
59109W        W24270  36.014   9.612  10.964
59110W        W24271   6.269  24.539   3.384
59111W        W24272  25.560   3.463   0.436
59112W        W24273  33.128  40.454   2.090
59113W        W24274  20.321  42.032  12.538
59114W        W24275  22.760  19.259   4.185
59115W        W24276  41.482  21.793  13.238
59116W        W24277  14.372  16.236   4.258
59117W        W24278   0.627  11.987   1.814
59118W        W24279  40.926  12.765  12.059
59119W        W24280  14.316  10.677   3.810
59120W        W24281  10.713  34.922  14.343
59121W        W24282  42.359  31.376   2.342
59122W        W24283  43.955  26.992  11.472
59123W        W24284  22.775  25.614   1.201
59124W        W24285  42.357   6.633   4.616
59125W        W24286  33.436  38.036  11.101
59126W        W24287   0.683  22.754  12.577
59127W        W24288  24.661  38.482   3.183
59128W        W24289  44.004  33.459   1.680
59129W        W24290   4.541   0.549   4.776
59130W        W24291   1.323  44.659   1.744
59131W        W24292  33.613  34.462   3.632
59132W        W24293  29.198  38.993   4.578
59133W        W24294  16.072  32.956  14.344
59134W        W24295  31.007  13.244   0.490
59135W        W24296  18.044  27.619  13.463
59136W        W24297  40.898  14.884  13.964
59137W        W24298  22.714  37.718  12.586
59138W        W24299  36.531  23.261  12.079
59139W        W24300   3.258  18.603   0.890
59140W        W24301  20.128   9.918   3.572
59141W        W24302  13.568  28.047  13.790
59142W        W24303  36.981  34.982  13.649
59143W        W24304  37.774  33.792   4.112
59144W        W24305   4.378  33.480   3.869
59145W        W24306   1.317  31.873   0.796
59146W        W24307  42.304  23.500  13.971
59147W        W24308  23.236  17.348   0.818
59148W        W24309   9.061  14.730  12.371
59149W        W24310   0.496  32.373  11.519
59150W        W24311  28.892  38.796   0.460
59151W        W24312  24.524  10.118  12.953
59152W        W24313  36.607  22.973  11.193
59153W        W24314   0.744   4.561   3.400
59154W        W24315   4.273  19.780  12.194
59155W        W24316   0.614  27.602  11.733
59156W        W24317  38.573  14.730  13.347
59157W        W24318  38.513   6.784  12.116
59158W        W24319  44.669   0.762   0.139
59159W        W24320  43.018  37.662   2.883
59160W        W24321  18.549   4.151  12.519
59161W        W24322  17.802  30.524  13.427
59162W        W24323   4.440  42.875  14.345
59163W        W24324  44.707   7.370  12.977
59164W        W24325  27.097  29.983  13.539
59165W        W24326  14.834   9.827  10.731
59166W        W24327  44.564   5.374   0.255
59167W        W24328  38.613  40.927  12.866
59168W        W24329   9.323  15.147  12.537
59169W        W24330  14.126  35.823  12.877
59170W        W24331  18.574  12.393  13.394
59171W        W24332   6.371  16.507   4.722
59172W        W24333  10.919  27.584  12.087
59173W        W24334  34.438  40.476   5.314
59174W        W24335  12.937   9.846   0.717
59175W        W24336  25.695  19.832  14.445
59176W        W24337  16.690   3.420  14.514
59177W        W24338  20.987  19.591   2.355
59178W        W24339  28.713   3.649   2.906
59179W        W24340  18.926  35.051   3.835
59180W        W24341  35.082  34.866  12.010
59181W        W24342   7.276  24.638   0.458
59182W        W24343   0.820  39.405   0.896
59183W        W24344   5.765   3.774   3.549
59184W        W24345  11.666  27.442   2.877
59185W        W24346   2.463  17.047   3.194
59186W        W24347  40.334  12.616  12.899
59187W        W24348  27.394  15.779  13.381
59188W        W24349  25.281  19.048  14.473
59189W        W24350  44.676  36.361  12.997
59190W        W24351  33.081  24.210   4.464
59191W        W24352   5.534  42.219  12.065
59192W        W24353   9.343  22.035   2.105
59193W        W24354  24.744   1.362   4.966
59194W        W24355  23.814  30.522  13.763
59195W        W24356  37.906  15.715  13.414
59196W        W24357  44.790  21.905  11.571
59197W        W24358  21.550  36.008   4.584
59198W        W24359  23.871  26.104   4.610
59199W        W24360   6.745  40.977   4.587
59200W        W24361  32.481  44.482  11.492
59201W        W24362  18.859   8.892  13.733
59202W        W24363  44.837   4.401  12.475
59203W        W24364  42.259  27.459   1.405
59204W        W24365  39.892  27.024  13.415
59205W        W24366  26.017  14.637   4.666
59206W        W24367   3.710  18.140  10.668
59207W        W24368  30.586   1.154  14.376
59208W        W24369  39.621   6.286   2.848
59209W        W24370   0.315  42.912  11.374
59210W        W24371   3.693  38.788   9.958
59211W        W24372  11.508  30.221   5.036
59212W        W24373  20.604  43.497  12.504
59213W        W24374   3.415   2.716  10.687
59214W        W24375   5.888  23.077   1.319
59215W        W24376  44.543   1.275   0.231
59216W        W24377  32.012  16.460   4.819
59217W        W24378  44.744  37.550  13.329
59218W        W24379   8.185   9.424  12.517
59219W        W24380   1.399  29.574   3.713
59220W        W24381  32.695  24.165   4.870
59221W        W24382  30.296  41.857  12.990
59222W        W24383  23.508  17.128   3.400
59223W        W24384  30.971  32.038   4.540
59224W        W24385  39.846  29.703  12.526
59225W        W24386  13.758  33.218  11.110
59226W        W24387   8.942  28.646   4.691
59227W        W24388  31.935  15.619   0.812
59228W        W24389  17.105  34.561   3.775
59229W        W24390  26.103  14.288  11.154
59230W        W24391  43.877  30.663  10.670
59231W        W24392   1.533  36.946   1.777
59232W        W24393  41.217  25.693  13.497
59233W        W24394  19.048  13.781  12.064
59234W        W24395  32.733   9.997  14.963
59235W        W24396  21.535  32.379  12.940
59236W        W24397  10.809  25.203   1.259
59237W        W24398  27.892  18.529   3.720
59238W        W24399   8.127   2.341   0.845
59239W        W24400  36.675   7.160  14.932
59240W        W24401   2.465  34.358  13.568
59241W        W24402  25.411  38.316   2.484
59242W        W24403  40.557  38.505   2.765
59243W        W24404   5.889  31.321  14.878
59244W        W24405  23.129  15.107   3.587
59245W        W24406  11.449   9.292   2.403
59246W        W24407   6.293  36.954  11.925
59247W        W24408  12.117  30.674  14.841
59248W        W24409  24.565  13.842   0.010
59249W        W24410  19.500   3.940  14.445
59250W        W24411  31.641   5.509  14.463
59251W        W24412  27.431  25.522  13.899
59252W        W24413  15.652  34.577  12.909
59253W        W24414  43.739   7.720   1.616
59254W        W24415   1.661   7.321  12.027
59255W        W24416   7.651  35.593  14.930
59256W        W24417  27.105  28.895   1.250
59257W        W24418  26.286  37.549   1.421
59258W        W24419   8.218  40.290   2.419
59259W        W24420  38.929  18.512   4.161
59260W        W24421  37.623  38.058   1.632
59261W        W24422  20.183  39.324  10.161
59262W        W24423  20.151  40.065   1.527
59263W        W24424  13.666   6.211  12.046
59264W        W24425  20.596   2.312  13.676
59265W        W24426  21.632  36.839  13.034
59266W        W24427   9.427  33.027   2.093
59267W        W24428  25.923  14.471   3.405
59268W        W24429  18.913  38.997  10.501
59269W        W24430  14.252  13.291   1.182
59270W        W24431  21.137  40.305   1.177
59271W        W24432  20.536   8.525  12.317
59272W        W24433  28.133  39.149  13.001
59273W        W24434  27.832  44.438  12.852
59274W        W24435  13.217  30.613  10.427
59275W        W24436  35.369  40.811  14.295
59276W        W24437   3.687  31.192  14.373
59277W        W24438  21.624   1.349   4.245
59278W        W24439  19.753  40.929  13.881
59279W        W24440  26.917  17.722   4.002
59280W        W24441   9.340   2.817  14.122
59281W        W24442   9.824  15.215  14.366
59282W        W24443  22.209  16.807   3.299
59283W        W24444  23.175  37.877   2.266
59284W        W24445  10.725  28.472   4.615
59285W        W24446   3.858  23.242   2.614
59286W        W24447  29.431   7.330  11.403
59287W        W24448  36.956  41.439  11.729
59288W        W24449  40.813  16.064   3.268
59289W        W24450  26.247  44.460  12.565
59290W        W24451   2.007   9.199   5.159
59291W        W24452  30.684  41.922   1.864
59292W        W24453   0.935  39.912  12.036
59293W        W24454  11.747  29.525   1.069
59294W        W24455  30.801   3.420   0.401
59295W        W24456   0.456  24.237  13.939
59296W        W24457   3.852   5.909  12.409
59297W        W24458   9.815   1.954   4.972
59298W        W24459  19.504   1.958  14.457
59299W        W24460  23.793  36.811   3.478
59300W        W24461   3.782   9.248   0.569
59301W        W24462  12.262  32.879   0.624
59302W        W24463  30.123  41.942  11.470
59303W        W24464  18.012  32.123  12.460
59304W        W24465  19.742  10.084   2.568
59305W        W24466  40.811  29.869   2.171
59306W        W24467  14.311  32.822  14.424
59307W        W24468   9.159  33.452  14.223
59308W        W24469  16.306  37.111  10.963
59309W        W24470  35.042  30.492  10.741
59310W        W24471  37.606  24.180   0.831
59311W        W24472   2.278  21.053  14.852
59312W        W24473  27.183  44.601   0.856
59313W        W24474  40.596  11.894  14.782
59314W        W24475  19.755  44.282  14.853
59315W        W24476  44.440  13.550  13.437
59316W        W24477  42.122  38.712   0.927
59317W        W24478  43.329  19.480  11.992
59318W        W24479  43.000   2.187  14.906
59319W        W24480  15.610  23.675  14.210
59320W        W24481  12.691  35.118   0.068
59321W        W24482  38.479  24.489   3.526
59322W        W24483  13.997  29.649  11.107
59323W        W24484   5.970   2.277  10.418
59324W        W24485  26.089   2.867  12.634
59325W        W24486  13.622   5.190   4.748
59326W        W24487  38.316  38.545   1.308
59327W        W24488   2.814  19.078   3.824
59328W        W24489  17.154  43.141  13.983
59329W        W24490   0.561  30.201  13.335
59330W        W24491  40.839  22.668   1.416
59331W        W24492  33.550  30.533   4.616
59332W        W24493  29.643  44.241   0.031
59333W        W24494  23.813  33.148  13.952
59334W        W24495  10.358   1.723  12.064
59335W        W24496  23.123   2.745  11.161
59336W        W24497  11.639  37.001  12.402
59337W        W24498   1.766   0.522  14.479
59338W        W24499  40.601  28.819  12.802
59339W        W24500  39.005  22.305   1.368
59340W        W24501   8.914  32.839  10.702
59341W        W24502  33.540  24.658  13.531
59342W        W24503  16.514  43.862   2.855
59343W        W24504   5.398  44.575   4.004
59344W        W24505  39.066  31.435  14.392
59345W        W24506  17.345   7.925  13.956
59346W        W24507  13.091  25.455  11.219
59347W        W24508  44.878  19.380  14.353
59348W        W24509  14.833   7.245  14.170
59349W        W24510   2.342  22.437  12.893
59350W        W24511  43.026  23.494  12.357
59351W        W24512   2.318  11.829  12.026
59352W        W24513  27.688  22.987  10.633
59353W        W24514  22.110  21.095   1.240
59354W        W24515   7.359   0.695   0.956
59355W        W24516  14.382  13.090  10.176
59356W        W24517  28.680  38.638   4.011
59357W        W24518  44.729  25.012  14.402
59358W        W24519  34.313  24.549  11.581
59359W        W24520  12.148  14.811  13.119
59360W        W24521  18.217   1.035  12.000
59361W        W24522  44.912  41.935  11.999
59362W        W24523  21.055  25.621   1.859
59363W        W24524  19.224  14.454  12.498
59364W        W24525  12.777  14.142  11.550
59365W        W24526  30.687  14.737  13.362
59366W        W24527  40.322  41.861  13.777
59367W        W24528   1.766  36.278   1.752
59368W        W24529  31.444   4.965  12.139
59369W        W24530  27.118  23.445   2.396
59370W        W24531  27.495  21.494  11.680
59371W        W24532   9.532  43.405  13.416
59372W        W24533  12.242  11.906  12.977
59373W        W24534  27.497  14.402  12.466
59374W        W24535  34.542  41.479  14.261
59375W        W24536  43.388  10.639  11.183
59376W        W24537  20.530  17.286  11.097
59377W        W24538  20.022  23.050  10.636
59378W        W24539   5.423  38.759   1.667
59379W        W24540  36.411  31.664  14.409
59380W        W24541  21.976  28.598   1.744
59381W        W24542  37.238  31.163   5.258
59382W        W24543  23.214  24.674   9.860
59383W        W24544  36.759  13.808  11.545
59384W        W24545   1.470  12.172  11.959
59385W        W24546  27.652  10.326   4.112
59386W        W24547   6.338  38.320  10.705
59387W        W24548  33.576  25.041   2.821
59388W        W24549  42.346  25.362   3.052
59389W        W24550  25.559  16.540   0.721
59390W        W24551  25.226   9.513   1.718
59391W        W24552  20.738   6.804  12.702
59392W        W24553   5.741  25.028  13.373
59393W        W24554  10.370  35.812   1.207
59394W        W24555  21.587  42.870  14.784
59395W        W24556   3.418  30.214   4.234
59396W        W24557   4.232  24.657  11.539
59397W        W24558  42.303  38.021  10.938
59398W        W24559   1.267  35.274  13.381
59399W        W24560  26.483  21.764   4.115
59400W        W24561  33.338  40.993   4.686
59401W        W24562  19.471  35.888   2.867
59402W        W24563  31.430  12.165  12.360
59403W        W24564   8.847   4.242   2.801
59404W        W24565   7.154  24.884   3.307
59405W        W24566   1.160  28.530  11.609
59406W        W24567  15.937  22.175  12.551
59407W        W24568   3.153   1.235  14.343
59408W        W24569   0.484  13.730  12.554
59409W        W24570   7.210   1.288   3.420
59410W        W24571  29.513  21.983   4.198
59411W        W24572  37.807  22.884  12.488
59412W        W24573  19.150  43.452   4.014
59413W        W24574  10.049  39.919  14.546
59414W        W24575  14.134  39.992  11.811
59415W        W24576  41.240  19.286  13.417
59416W        W24577  26.750   6.169  11.070
59417W        W24578   1.110  10.735  12.504
59418W        W24579  29.521  38.381   2.214
59419W        W24580  25.798  18.272  14.188
59420W        W24581  42.677  44.457   4.711
59421W        W24582  37.160  15.921   1.691
59422W        W24583  12.863   4.200   0.257
59423W        W24584   5.405   0.808   4.900
59424W        W24585   9.883  40.506  13.340
59425W        W24586  34.638  30.523  11.182
59426W        W24587  20.393   0.455  11.015
59427W        W24588  43.801  36.081  12.419
59428W        W24589  20.996  43.192   3.391
59429W        W24590  31.714  35.506  11.724
59430W        W24591  25.243   8.123  10.463
59431W        W24592  33.898  11.381  10.557
59432W        W24593  20.707  37.383  13.434
59433W        W24594  37.981  22.917  11.970
59434W        W24595   7.185  32.610   0.839
59435W        W24596  17.713  43.089  13.423
59436W        W24597   6.449   7.178   2.096
59437W        W24598  21.278   9.159  12.623
59438W        W24599  15.556  29.904   0.784
59439W        W24600  36.287  29.061  13.041
59440W        W24601  19.222  22.458  12.396
59441W        W24602  36.945   8.255  10.749
59442W        W24603  41.969  20.469   4.541
59443W        W24604  24.592  24.185  12.010
59444W        W24605  19.357  27.057  13.318
59445W        W24606  14.237  31.452   4.447
59446W        W24607   4.829  30.261  10.294
59447W        W24608  14.925  23.361   1.871
59448W        W24609  26.562  34.306  14.130
59449W        W24610  42.981   2.549   2.459
59450W        W24611  20.110   5.247  13.893
59451W        W24612  28.990   2.278   0.022
59452W        W24613  22.073  41.429   3.199
59453W        W24614   5.655  35.301   0.060
59454W        W24615   3.691   9.769  14.959
59455W        W24616  21.103   3.330   0.901
59456W        W24617  17.082   1.020  11.469
59457W        W24618  20.230  44.534  11.949
59458W        W24619  17.003  42.478   4.491
59459W        W24620  24.320   6.417  14.294
59460W        W24621  35.408  30.593  11.134
59461W        W24622   7.544  24.063  14.192
59462W        W24623  44.315  35.891   3.695
59463W        W24624  23.491  19.276  12.594
59464W        W24625  40.898  20.265   1.402
59465W        W24626  39.070  36.038  12.587
59466W        W24627   4.387  30.043   2.176
59467W        W24628  13.184  10.907   2.749
59468W        W24629  34.540  33.468   1.865
59469W        W24630   5.148   6.648   2.361
59470W        W24631  17.646  22.978   1.339
59471W        W24632   2.541   8.880   3.515
59472W        W24633   9.384  27.890  12.872
59473W        W24634  16.999  38.634   2.032
59474W        W24635  15.657  13.929   1.750
59475W        W24636   0.041  33.813   9.577
59476W        W24637  19.150  18.602   5.041
59477W        W24638  17.673  28.558   4.199
59478W        W24639   9.442   9.801   1.734
59479W        W24640  26.900  25.142  13.441
59480W        W24641  32.462  38.532  13.133
59481W        W24642  31.987  38.349  12.988
59482W        W24643   2.243  16.522  11.290
59483W        W24644  27.505  40.006  11.821
59484W        W24645  14.604  19.617   1.903
59485W        W24646   9.418  13.428  12.031
59486W        W24647  11.612  41.830  10.690
59487W        W24648  40.874  34.588   3.785
59488W        W24649  33.038  24.013   0.212
59489W        W24650  32.128   6.930   2.209
59490W        W24651  11.812  20.835  11.951
59491W        W24652  14.686  28.567  13.343
59492W        W24653  43.028  40.593  14.319
59493W        W24654  41.742  33.907  13.322
59494W        W24655  28.083   0.839  10.732
59495W        W24656  44.814   0.552  13.368
59496W        W24657  21.190   8.218  11.626
59497W        W24658  32.159  13.460  10.756
59498W        W24659  43.350  16.567   3.641
59499W        W24660  19.262  13.575   4.092
59500W        W24661   0.836   9.687  14.028
59501W        W24662  36.451  38.367   4.153
59502W        W24663  21.502  31.144   1.054
59503W        W24664  20.093  23.733   3.191
59504W        W24665  39.954  44.718  12.402
59505W        W24666  11.883  16.734  12.049
59506W        W24667  40.385   3.824  11.246
59507W        W24668  15.295  32.058  13.097
59508W        W24669  18.878  18.035  12.013
59509W        W24670  23.212   0.721   0.806
59510W        W24671  27.457  35.999   1.437
59511W        W24672  20.586   7.391   1.185
59512W        W24673  41.318  41.369   2.190
59513W        W24674  30.830  32.120  10.519
59514W        W24675  41.095  25.738   1.184
59515W        W24676  21.737   7.434  11.539
59516W        W24677  44.362  38.855   4.957
59517W        W24678  16.108  26.032   1.286
59518W        W24679   9.593  13.066   3.083
59519W        W24680  16.360   0.968  12.015
59520W        W24681  16.559  22.421   2.307
59521W        W24682  42.582   2.871   1.749
59522W        W24683   3.075   0.195  13.925
59523W        W24684   9.601  24.676  12.349
59524W        W24685  42.661  29.652  14.477
59525W        W24686  31.031   0.691   0.892
59526W        W24687   7.190  40.010   2.885
59527W        W24688  11.631  12.713   1.295
59528W        W24689   2.381  26.048  10.081
59529W        W24690  39.392  29.028   1.157
59530W        W24691  25.652  44.218   3.996
59531W        W24692   0.455  15.068   0.328
59532W        W24693  15.268  12.644  10.838
59533W        W24694  30.497  25.930   0.237
59534W        W24695  17.860  15.320   3.205
59535W        W24696  34.555   8.837   4.196
59536W        W24697  13.194  20.225   4.678
59537W        W24698  19.015  37.044  13.827
59538W        W24699  38.840  33.808  13.370
59539W        W24700   1.557   3.820   3.362
59540W        W24701  44.518  42.245  12.380
59541W        W24702  35.323  43.297   1.407
59542W        W24703  11.773  33.028   0.384
59543W        W24704  24.532  16.841   0.809
59544W        W24705  41.319   0.242   0.381
59545W        W24706  15.555  38.964  11.961
59546W        W24707  41.363  27.066  12.319
59547W        W24708  35.554   3.312  12.471
59548W        W24709  31.471  29.141   2.538
59549W        W24710  24.069  35.437  11.604
59550W        W24711  21.667  26.271   9.892
59551W        W24712  35.504   1.487  12.806
59552W        W24713   0.568   3.040  11.184
59553W        W24714  39.029  32.289  11.652
59554W        W24715  36.050  10.802   1.650
59555W        W24716   9.442  42.293  10.663
59556W        W24717  43.965  14.725  13.883
59557W        W24718  32.249  27.612   3.148
59558W        W24719   1.897  34.393   1.268
59559W        W24720  15.222  38.139  14.810
59560W        W24721  16.846   4.704  13.799
59561W        W24722  29.970  31.075  12.680
59562W        W24723   2.353   5.015  11.190
59563W        W24724  43.551   2.925   3.270
59564W        W24725  10.892  40.793   3.149
59565W        W24726  15.539  23.460   1.491
59566W        W24727   5.866  24.615  14.493
59567W        W24728  16.906  44.069  13.417
59568W        W24729  28.160  12.826  11.201
59569W        W24730  22.016   9.213   4.641
59570W        W24731   5.449  11.686   1.785
59571W        W24732  16.559  15.272   2.635
59572W        W24733  27.966   6.127  13.936
59573W        W24734   0.697  18.842  14.265
59574W        W24735  43.443  16.614   2.813
59575W        W24736  35.011   2.300  14.111
59576W        W24737  30.223  41.745   2.810
59577W        W24738  12.746  23.091   4.140
59578W        W24739  42.689  17.584  11.174
59579W        W24740  34.340  19.983  12.977
59580W        W24741  16.596  34.582  13.462
59581W        W24742  16.759   5.279  14.300
59582W        W24743  21.848  12.678   3.797
59583W        W24744  36.181   6.816   3.227
59584W        W24745  38.456  33.856  14.933
59585W        W24746  36.171   5.162  14.347
59586W        W24747  32.680  17.582   0.332
59587W        W24748  35.317  44.245   4.527
59588W        W24749  31.684  41.490   0.386
59589W        W24750  17.341  16.792   0.804
59590W        W24751  10.313  16.091  13.564
59591W        W24752  28.347  21.573  12.089
59592W        W24753   7.885  19.153  11.504
59593W        W24754   0.222  21.280  10.660
59594W        W24755  19.533  35.965  13.908
59595W        W24756   7.683  14.021  13.618
59596W        W24757  40.985  44.413   0.927
59597W        W24758  34.267  32.903   3.994
59598W        W24759  38.647  37.653  11.346
59599W        W24760   4.275  22.297   0.187
59600W        W24761   5.685  23.487   4.590
59601W        W24762  12.428  33.334  12.863
59602W        W24763   5.473  17.158  10.722
59603W        W24764   3.356  39.256  11.893
59604W        W24765  14.437  18.322   4.649
59605W        W24766  19.768  20.691   1.475
59606W        W24767  18.075  34.583  11.122
59607W        W24768  30.064   0.312  13.244
59608W        W24769  23.156   8.689   3.341
59609W        W24770  19.173   9.865  11.680
59610W        W24771   8.318   5.435  10.733
59611W        W24772   4.357   5.461  13.913
59612W        W24773  15.684  43.531  12.633
59613W        W24774  18.669  30.402   3.815
59614W        W24775  37.137  37.922   1.265
59615W        W24776  38.629  26.457  11.953
59616W        W24777  12.604   7.887   3.188
59617W        W24778  27.163  21.807  14.346
59618W        W24779  33.916  21.667   1.338
59619W        W24780   6.727  32.554   4.126
59620W        W24781  14.321  44.962   0.002
59621W        W24782   8.831  33.338  10.536
59622W        W24783  32.327  43.565   2.151
59623W        W24784  13.880  11.528  13.531
59624W        W24785  14.054  28.931   0.201
59625W        W24786  37.905   1.294   1.267
59626W        W24787   0.479  27.897   3.426
59627W        W24788  26.099   2.271   2.451
59628W        W24789  15.894  30.412  14.427
59629W        W24790  29.623   5.147  12.119
59630W        W24791  35.786   1.383   2.091
59631W        W24792   3.707   0.504  11.277
59632W        W24793  30.137  44.786   2.221
59633W        W24794  31.493   7.290   1.475
59634W        W24795  38.066  23.875   2.893
59635W        W24796  35.036  27.588   3.359
59636W        W24797  23.973   0.958   4.184
59637W        W24798   8.665  18.991   2.585
59638W        W24799  30.624  40.858  10.232
59639W        W24800   8.670  31.592   2.215
59640W        W24801  11.057  18.589  14.875
59641W        W24802  39.001  15.689   0.872
59642W        W24803  27.546  33.852   4.375
59643W        W24804  37.855  44.090  13.088
59644W        W24805   6.326  32.542  11.166
59645W        W24806   5.866  24.609  10.679
59646W        W24807  42.559  18.137  13.066
59647W        W24808  38.027  30.451   3.184
59648W        W24809   9.791  28.076   2.903
59649W        W24810  17.860  35.696  13.294
59650W        W24811   8.414  36.453  12.503
59651W        W24812  43.860  34.572  11.025
59652W        W24813  12.270  14.728  10.775
59653W        W24814  35.436  14.867  14.153
59654W        W24815   4.823  17.550   1.873
59655W        W24816   8.509  44.286   4.184
59656W        W24817  24.166  23.912  12.117
59657W        W24818  33.554   9.855   1.281
59658W        W24819  11.420  25.450  11.611
59659W        W24820  42.303  35.968  10.484
59660W        W24821  10.888  10.589  12.085
59661W        W24822   0.026   9.884  11.478
59662W        W24823  18.611  14.693   0.437
59663W        W24824   9.681  25.266   0.509
59664W        W24825  36.797  41.575   4.012
59665W        W24826   3.375  37.047  10.498
59666W        W24827  26.408  21.616   1.390
59667W        W24828  29.980  44.717   4.724
59668W        W24829  15.285  42.581   0.263
59669W        W24830  24.539   3.374  13.163
59670W        W24831  27.570  26.045  10.719
59671W        W24832   7.269  29.621  10.897
59672W        W24833  13.582  37.780  12.179
59673W        W24834  37.920  22.745  11.473
59674W        W24835  20.027   6.117  12.390
59675W        W24836   2.365   1.569  14.900
59676W        W24837  10.921  23.059  13.542
59677W        W24838  32.133   8.167  11.727
59678W        W24839  25.066   8.782  11.626
59679W        W24840  19.948  41.408  13.923
59680W        W24841  42.875  25.977  12.474
59681W        W24842  40.006  17.051  11.627
59682W        W24843  15.894   5.324   4.478
59683W        W24844   3.473  44.806   4.137
59684W        W24845   7.732  12.786   3.244
59685W        W24846  41.978  24.446  12.553
59686W        W24847  15.873  37.712   5.032
59687W        W24848   3.376  12.347   0.935
59688W        W24849  15.804  24.612   4.299
59689W        W24850   9.394   3.821  14.344
59690W        W24851  38.365  42.866  11.519
59691W        W24852   9.753  20.399   3.975
59692W        W24853  42.519   8.736  11.393
59693W        W24854  21.308  24.995  12.991
59694W        W24855  13.876  13.509  10.667
59695W        W24856  12.575  26.566  10.798
59696W        W24857  36.557  14.501   2.412
59697W        W24858  11.330   5.391   3.935
59698W        W24859   4.909  27.507   2.137
59699W        W24860   9.765   6.806   1.768
59700W        W24861  13.262  37.218   2.871
59701W        W24862  24.534   3.346  14.494
59702W        W24863  14.337  37.041  14.048
59703W        W24864  25.498  41.759  10.683
59704W        W24865  12.284  44.750   1.680
59705W        W24866  23.492  25.740  11.481
59706W        W24867  40.672  41.867   1.050
59707W        W24868   4.198  10.890   1.811
59708W        W24869  36.525  28.181  13.198
59709W        W24870  28.202  22.243   4.470
59710W        W24871  34.604  26.070  12.413
59711W        W24872  30.704  44.162   4.154
59712W        W24873  36.158  15.954  10.293
59713W        W24874  29.038  38.182  13.873
59714W        W24875  11.783   6.703   1.552
59715W        W24876   3.850  26.106   3.350
59716W        W24877  22.264  16.648   4.202
59717W        W24878   8.821  24.765   0.236
59718W        W24879  19.612  25.107  13.356
59719W        W24880  40.497  23.159   4.549
59720W        W24881  29.136  13.058  13.723
59721W        W24882  12.923  39.385  12.883
59722W        W24883  38.528  33.783  12.166
59723W        W24884  31.033   2.395  13.968
59724W        W24885  30.439  36.534  10.814
59725W        W24886   7.926  39.210   9.875
59726W        W24887  35.291  20.401   4.139
59727W        W24888  43.291  40.344   3.305
59728W        W24889   1.883  40.310  12.622
59729W        W24890  15.800  37.975  11.135
59730W        W24891   7.165  23.079  13.078
59731W        W24892  23.579   8.630   0.891
59732W        W24893  26.142  44.972  13.434
59733W        W24894  27.990  20.263   0.372
59734W        W24895  21.572  14.579  12.107
59735W        W24896   4.691  19.135   1.502
59736W        W24897  24.970   6.619   4.137
59737W        W24898  38.508  35.314   3.657
59738W        W24899   2.267  13.827  12.820
59739W        W24900  19.044  15.680  14.502
59740W        W24901   6.818  40.879  10.735
59741W        W24902  19.464  34.036   1.845
59742W        W24903  10.775  23.633  14.056
59743W        W24904   7.357  31.413   3.706
59744W        W24905  20.220  27.032   0.662
59745W        W24906  20.767   4.884  11.458
59746W        W24907  12.352  40.208  10.638
59747W        W24908  12.159  18.333   1.792
59748W        W24909   0.860   2.396   2.767
59749W        W24910  30.246  25.188   2.776
59750W        W24911  19.076   6.518   1.387
59751W        W24912  12.230  30.058   3.536
59752W        W24913  43.266   6.841   0.102
59753W        W24914   2.246  11.835  10.726
59754W        W24915  19.468  37.137  12.891
59755W        W24916  25.144  43.011  11.168
59756W        W24917  12.543  33.161  11.955
59757W        W24918  32.518  44.996   0.855
59758W        W24919  41.405  13.430   1.713
59759W        W24920  22.151   7.332  14.760
59760W        W24921  12.499  31.648   5.018
59761W        W24922  24.150  25.170  11.316
59762W        W24923  43.298  32.387  12.304
59763W        W24924  40.621  34.060  12.546
59764W        W24925  18.601  34.614   4.162
59765W        W24926  24.707  36.966   0.004
59766W        W24927   2.108   5.374   2.437
59767W        W24928  28.018   5.000   3.702
59768W        W24929  13.385  38.179   1.842
59769W        W24930  17.635  19.208  12.307
59770W        W24931  34.587  33.531  12.586
59771W        W24932  21.927  16.727  11.393
59772W        W24933  30.903  16.118  13.460
59773W        W24934  35.933  30.900  13.375
59774W        W24935   3.333  31.623  14.961
59775W        W24936  37.496  38.626   4.931
59776W        W24937  41.962  26.735   3.159
59777W        W24938  30.517  44.973  12.788
59778W        W24939   1.944  28.128   3.215
59779W        W24940  23.714   1.963   4.912
59780W        W24941  41.785  21.054  12.524
59781W        W24942  29.334  43.115  11.050
59782W        W24943   7.381   0.827  14.971
59783W        W24944  12.759  10.554   1.873
59784W        W24945  13.255  24.068  14.121
59785W        W24946  34.697  23.286   3.689
59786W        W24947   3.385  16.134  12.340
59787W        W24948   2.425  21.243   3.047
59788W        W24949  17.669  26.491   1.186
59789W        W24950  10.592  12.129   1.740
59790W        W24951  36.040  35.070  12.024
59791W        W24952  37.153   8.338  11.503
59792W        W24953  25.739  41.725  14.580
59793W        W24954  19.695  40.904   0.798
59794W        W24955  34.430  36.272  13.074
59795W        W24956  41.094   6.019  12.463
59796W        W24957  23.663  34.835   0.966
59797W        W24958  44.408  40.036   1.437
59798W        W24959   0.047  43.717  14.006
59799W        W24960  41.918  13.502  11.130
59800W        W24961  34.639  21.768  12.084
59801W        W24962   2.523  41.743  14.359
59802W        W24963  32.455   9.806   4.053
59803W        W24964  15.659   4.690   0.482
59804W        W24965  18.523  28.070   4.064
59805W        W24966  14.575  22.968   0.974
59806W        W24967  24.436   1.266  13.012
59807W        W24968   5.549   4.409   2.005
59808W        W24969   4.750  37.889  11.030
59809W        W24970   8.729  38.514  10.853
59810W        W24971   7.857  11.835   1.459
59811W        W24972   6.420  15.973  10.691
59812W        W24973  15.264  33.866   3.654
59813W        W24974  30.430  16.293  13.577
59814W        W24975   4.483  12.277   4.877
59815W        W24976   8.648  24.586  10.293
59816W        W24977  32.848   2.915  13.432
59817W        W24978  35.165  21.813  11.038
59818W        W24979  44.263  31.658   2.468
59819W        W24980  35.715  43.509   1.714
59820W        W24981  40.880   4.285  13.621
59821W        W24982  21.055  30.056   0.009
59822W        W24983  18.825  37.098   3.748
59823W        W24984  32.062   5.630  13.449
59824W        W24985  33.545  26.604   1.399
59825W        W24986   3.264  43.961  11.574
59826W        W24987   6.912  33.550   3.983
59827W        W24988  16.497   1.385  14.303
59828W        W24989  16.903  40.413   2.736
59829W        W24990  21.723  10.018  10.419
59830W        W24991   4.209  34.173   2.653
59831W        W24992   1.619  37.376  14.937
59832W        W24993  17.264  44.277   4.533
59833W        W24994  38.801   4.425  14.599
59834W        W24995  14.698  14.196   0.528
59835W        W24996  39.203  21.233   5.055
59836W        W24997  31.377   7.733  14.943
59837W        W24998  10.650  37.917  14.413
59838W        W24999   4.941  21.206   2.864
59839W        W25000  25.073   5.683  14.947
59840W        W25001  23.330  27.690  13.406
59841W        W25002  19.932  19.336  10.556
59842W        W25003   0.466   8.818   1.932
59843W        W25004   7.774   3.023   4.137
59844W        W25005  23.532  26.453   0.183
59845W        W25006   9.762  13.364   3.518
59846W        W25007  25.731  39.523   3.193
59847W        W25008  37.165  27.701   4.228
59848W        W25009  13.598  11.023   3.082
59849W        W25010   4.210   5.694   1.847
59850W        W25011  21.382  12.107  11.993
59851W        W25012  42.452  14.826  13.515
59852W        W25013  15.604  17.268   5.200
59853W        W25014   0.719  43.939   0.864
59854W        W25015  11.084  39.611  13.386
59855W        W25016  26.600  29.749  10.605
59856W        W25017  25.985  39.332   0.190
59857W        W25018  26.135  21.660   0.936
59858W        W25019  32.767  40.581  10.433
59859W        W25020  22.633  22.547   2.458
59860W        W25021  15.656  38.738   3.251
59861W        W25022  26.184  15.475   4.472
59862W        W25023  23.265  37.838   3.805
59863W        W25024  19.356  40.705   4.748
59864W        W25025  38.630  21.236   1.822
59865W        W25026  40.901   2.059   3.587
59866W        W25027   4.291  32.909  11.600
59867W        W25028  37.277  42.294  11.112
59868W        W25029   8.348  16.626  13.847
59869W        W25030   6.946  34.036  11.462
59870W        W25031   1.565  11.752   4.597
59871W        W25032  32.005   4.838   2.506
59872W        W25033  34.427  24.532  10.679
59873W        W25034  39.476   5.218   2.668
59874W        W25035  25.205  22.154  11.666
59875W        W25036  33.331   3.258   2.095
59876W        W25037   4.073  19.369  10.263
59877W        W25038   7.322  14.993   1.481
59878W        W25039  24.730  26.677  11.540
59879W        W25040  29.536  21.750  13.805
59880W        W25041  36.959  12.785  12.423
59881W        W25042  30.891  43.885   3.644
59882W        W25043  14.016  12.920   1.435
59883W        W25044  11.353  35.882   3.658
59884W        W25045  11.271   7.189  10.760
59885W        W25046  11.202  25.098   4.544
59886W        W25047  31.558  12.083   2.810
59887W        W25048  29.992   2.911   3.736
59888W        W25049  31.569   6.941   3.335
59889W        W25050  16.531  17.129  12.070
59890W        W25051  26.028  44.949   1.831
59891W        W25052  43.462  42.661   2.245
59892W        W25053  37.988   9.484   3.057
59893W        W25054  11.302  33.072   0.181
59894W        W25055  30.681  31.049   4.590
59895W        W25056  21.584  40.031   3.180
59896W        W25057  29.306  29.102  11.124
59897W        W25058  22.346  42.310   4.127
59898W        W25059  15.550  44.899  12.893
59899W        W25060  36.536  27.650   0.113
59900W        W25061  34.942   9.571   0.461
59901W        W25062  31.917  39.074  13.738
59902W        W25063   3.940  23.451  10.486
59903W        W25064   9.867  28.920  13.794
59904W        W25065  20.692  43.962   3.721
59905W        W25066  34.135  26.677   1.741
59906W        W25067  27.143  28.055   0.198
59907W        W25068   0.207   3.854  13.512
59908W        W25069  22.199  32.354   0.112
59909W        W25070  18.749  41.196  14.902
59910W        W25071   1.596  11.618   1.898
59911W        W25072  19.079  40.503   3.841
59912W        W25073   1.990  20.362   3.175
59913W        W25074  24.525  31.985   1.639
59914W        W25075  13.626  10.479   0.925
59915W        W25076  44.710  32.798   2.212
59916W        W25077  40.404  43.001   1.972
59917W        W25078  14.197  10.671   4.315
59918W        W25079  28.878  24.159  12.649
59919W        W25080  39.257   9.521   0.176
59920W        W25081  31.377  42.956  12.903
59921W        W25082  13.802   7.896   0.939
59922W        W25083  20.505  23.819  12.347
59923W        W25084  19.106  31.404  12.227
59924W        W25085  38.563  41.362   2.227
59925W        W25086  13.319  33.720   4.181
59926W        W25087  20.989   5.275   4.873
59927W        W25088   1.196   4.180   0.490
59928W        W25089  33.914  31.581   0.055
59929W        W25090  36.871  32.685  11.557
59930W        W25091  37.356  28.171  11.088
59931W        W25092  14.154   3.312  14.296
59932W        W25093  37.595  12.743  11.956
59933W        W25094  42.534  19.329   2.690
59934W        W25095  37.360  28.424   3.385
59935W        W25096   5.789  16.067  13.993
59936W        W25097  35.819  31.484  12.504
59937W        W25098  33.985   7.986  10.698
59938W        W25099  36.293  25.240   5.207
59939W        W25100   4.329   3.194  14.445
59940W        W25101  11.682  31.773   1.177
59941W        W25102  24.911  38.086  12.872
59942W        W25103  12.729  20.605  14.987
59943W        W25104  43.721  16.068   2.385
59944W        W25105   1.166  33.810  10.362
59945W        W25106   4.994   5.315  13.295
59946W        W25107   7.706  28.759   2.283
59947W        W25108   5.717  29.524   4.143
59948W        W25109  13.446   6.571   0.782
59949W        W25110  41.705  33.823   2.813
59950W        W25111  37.536  11.099   2.885
59951W        W25112  27.027  10.600   2.868
59952W        W25113   1.861  21.690  10.727
59953W        W25114  28.254   8.295   1.193
59954W        W25115  38.921  15.339  11.109
59955W        W25116  11.674  30.690   3.153
59956W        W25117  23.090  19.284   4.585
59957W        W25118  10.167   2.255  10.751
59958W        W25119  26.231  12.397   1.931
59959W        W25120  15.167   2.911   4.914
59960W        W25121  16.076  17.468  11.427
59961W        W25122  38.477  32.861   3.699
59962W        W25123  35.620  15.316  14.370
59963W        W25124  16.266  38.511   5.173
59964W        W25125  16.366  26.905   0.393
59965W        W25126  40.256  14.709   2.476
59966W        W25127  23.466  26.637   2.325
59967W        W25128  39.279  43.684   4.045
59968W        W25129   3.342  21.134  12.070
59969W        W25130  27.617  23.252  11.067
59970W        W25131   8.645   5.929   4.193
59971W        W25132   0.681  12.087  13.013
59972W        W25133  25.056  44.866   3.704
59973W        W25134  22.525  12.097  10.902
59974W        W25135  10.192  43.187   3.919
59975W        W25136  13.239   2.932   1.813
59976W        W25137  11.232   7.027  11.765
59977W        W25138  29.474  41.967   0.513
59978W        W25139  25.576  30.268   1.940
59979W        W25140  35.793  41.431   2.907
59980W        W25141   5.879  14.295  11.635
59981W        W25142   9.002   4.467  11.592
59982W        W25143  36.353   3.765  12.450
59983W        W25144  15.506   1.199   1.638
59984W        W25145  32.156  36.988   2.922
59985W        W25146  31.548   2.000   0.934
59986W        W25147   9.498  30.014  12.653
59987W        W25148  15.711  38.504   1.496
59988W        W25149  25.729  12.735  13.017
59989W        W25150  11.665  29.447  14.541
59990W        W25151  17.213   3.180   3.744
59991W        W25152   2.378  29.141   2.700
59992W        W25153  13.305   3.862   1.358
59993W        W25154  28.484  37.429  14.790
59994W        W25155  11.120  29.162  11.567
59995W        W25156  33.199  11.512  13.353
59996W        W25157  27.812  26.204   4.544
59997W        W25158   0.527  34.183   0.371
59998W        W25159  34.502  14.643  11.961
59999W        W25160  43.468  21.201  10.327
60000W        W25161  16.879   6.626   4.506
60001W        W25162  14.924   3.013  14.063
60002W        W25163  11.821  42.488   0.825
60003W        W25164  20.179  38.747   4.601
60004W        W25165  24.747   3.048   3.324
60005W        W25166   2.624  36.574  13.066
60006W        W25167  12.356  35.330  14.720
60007W        W25168  41.926   3.056  10.614
60008W        W25169  44.597   9.297   4.062
60009W        W25170   7.941   8.669   1.279
60010W        W25171  38.931   5.576  14.023
60011W        W25172  28.597  15.260   4.201
60012W        W25173  12.877  25.724   4.146
60013W        W25174  31.998  29.285  10.309
60014W        W25175  20.041  37.527   0.551
60015W        W25176   7.593  27.934   2.850
60016W        W25177  40.847  40.263   1.731
60017W        W25178  11.182  21.985   1.344
60018W        W25179  42.437  14.101   3.177
60019W        W25180  29.089  38.343  12.457
60020W        W25181  39.843  37.608   1.773
60021W        W25182  25.148  33.649   4.283
60022W        W25183  44.459  15.262   3.228
60023W        W25184  40.846  43.927   1.839
60024W        W25185  34.471  24.144   1.864
60025W        W25186   6.575  16.631  12.362
60026W        W25187   3.826   5.008   1.346
60027W        W25188  38.619   1.880   3.620
60028W        W25189  40.408  15.623   0.799
60029W        W25190  15.808  24.063  14.552
60030W        W25191  36.127   1.530   2.694
60031W        W25192   8.286  33.890  14.409
60032W        W25193  16.024  14.740   0.460
60033W        W25194   6.721  32.598   0.495
60034W        W25195  40.978  16.605   4.121
60035W        W25196   3.942   3.908   0.191
60036W        W25197  38.856  40.077  10.217
60037W        W25198  41.916  28.225   4.216
60038W        W25199  18.167  28.990   3.189
60039W        W25200  12.575  41.854  14.192
60040W        W25201  15.481  29.140  11.289
60041W        W25202  31.019  30.067  11.120
60042W        W25203   9.943   2.168   2.301
60043W        W25204  18.791  30.073   0.048
60044W        W25205  23.827  12.294   1.402
60045W        W25206  10.240  11.310  14.284
60046W        W25207  11.781   5.852   2.776
60047W        W25208   7.674  44.956  14.408
60048W        W25209  15.303  24.465   1.260
60049W        W25210  36.922  22.476   4.008
60050W        W25211   5.880  17.268   3.132
60051W        W25212  36.020   7.247   4.149
60052W        W25213   7.836  31.568   2.892
60053W        W25214  26.266  13.305   0.857
60054W        W25215  14.848  21.284  10.144
60055W        W25216  11.222  21.509   2.877
60056W        W25217  40.493  34.831  13.049
60057W        W25218  11.566  42.119  13.447
60058W        W25219  37.439  22.641   3.282
60059W        W25220  41.979  10.603  12.529
60060W        W25221  29.185  39.296  11.513
60061W        W25222  27.612  36.842  11.137
60062W        W25223  29.186  41.766   1.691
60063W        W25224  27.912  36.389   1.174
60064W        W25225  43.194  41.121   5.096
60065W        W25226  26.189  26.989  13.502
60066W        W25227   5.601  10.644  12.807
60067W        W25228   4.362  26.788   2.647
60068W        W25229  19.063   7.162  13.652
60069W        W25230  21.038  18.093  14.359
60070W        W25231  41.940   0.401  13.311
60071W        W25232  27.905   8.412  11.533
60072W        W25233  23.731  43.013  11.987
60073W        W25234   0.469  10.015  14.310
60074W        W25235  11.809  25.799   4.584
60075W        W25236  28.578  10.548  11.236
60076W        W25237  32.153   4.371   2.380
60077W        W25238  39.817  14.515   3.668
60078W        W25239  17.145   1.995   0.306
60079W        W25240  25.559  21.952   0.762
60080W        W25241  18.693  11.650   4.689
60081W        W25242  26.928  40.741   3.718
60082W        W25243   9.256  34.029   3.171
60083W        W25244   5.326   6.948  12.666
60084W        W25245  37.277  35.362  11.100
60085W        W25246  21.678   6.456  12.986
60086W        W25247  43.713  37.504  13.672
60087W        W25248  36.540  29.988   1.871
60088W        W25249  37.046  18.774   2.508
60089W        W25250  29.400  16.955   2.842
60090W        W25251  16.704   3.944  12.057
60091W        W25252   1.765  28.404  13.924
60092W        W25253  39.727   5.291   4.045
60093W        W25254  44.000   6.333   0.406
60094W        W25255  23.695  11.360   2.595
60095W        W25256  19.935   8.463   5.070
60096W        W25257   0.007  11.680  12.910
60097W        W25258  23.355  33.386   3.831
60098W        W25259  14.226   9.285  13.316
60099W        W25260  26.475  43.119  14.049
60100W        W25261  10.271   4.260  14.339
60101W        W25262  23.233  17.535  14.747
60102W        W25263  32.606  36.434   2.156
60103W        W25264  21.804  14.873  11.762
60104W        W25265  23.114  25.536   3.328
60105W        W25266  39.361  34.778  14.765
60106W        W25267  43.932  34.222  12.581
60107W        W25268  43.814  29.861  14.317
60108W        W25269  42.408  35.808  12.832
60109W        W25270  15.792  20.219   0.973
60110W        W25271  29.693  37.430   0.904
60111W        W25272   3.803  21.630  12.522
60112W        W25273  13.235  39.807  10.029
60113W        W25274  31.960  12.031   0.587
60114W        W25275  13.642   0.825   1.476
60115W        W25276  41.974  32.535  14.418
60116W        W25277   4.680   1.706   4.548
60117W        W25278  28.226   0.501  12.018
60118W        W25279  13.639  34.606   0.551
60119W        W25280  26.731  16.058   3.741
60120W        W25281   8.222  19.991   1.787
60121W        W25282  26.904  39.099  14.795
60122W        W25283  14.756  39.017  14.823
60123W        W25284  38.530  44.022   0.290
60124W        W25285  19.018  38.208  12.309
60125W        W25286  39.276  31.916   1.910
60126W        W25287  24.967  41.035   2.727
60127W        W25288  16.725  10.213  11.566
60128W        W25289  24.203  12.991  12.865
60129W        W25290  12.705  44.539   0.608
60130W        W25291  38.517  30.132  14.507
60131W        W25292  10.368  17.957   0.048
60132W        W25293  43.438  15.508   0.866
60133W        W25294  13.474  29.673   0.360
60134W        W25295   9.446  41.833  14.407
60135W        W25296   2.931  26.174  13.784
60136W        W25297   0.780  39.635   2.399
60137W        W25298  21.867  38.551   1.071
60138W        W25299  43.647   6.765   2.396
60139W        W25300  19.239  27.226  12.062
60140W        W25301  28.665  10.635   1.409
60141W        W25302  39.946  10.142  13.287
60142W        W25303  42.533  34.879   0.840
60143W        W25304   2.225  41.771  11.128
60144W        W25305  37.840  13.279   1.690
60145W        W25306   3.348  30.630  14.829
60146W        W25307  33.525  42.433   4.561
60147W        W25308  18.896  41.942  11.517
60148W        W25309  37.457  44.786  13.059
60149W        W25310  35.592  14.214   2.768
60150W        W25311   3.070  15.168  11.387
60151W        W25312   5.168  22.122  13.507
60152W        W25313  37.329  14.578  13.991
60153W        W25314  21.532  30.402   0.447
60154W        W25315  23.913  25.499  12.552
60155W        W25316  34.720  44.581  14.426
60156W        W25317  36.056   3.451   0.844
60157W        W25318  22.049   3.248  13.447
60158W        W25319  25.725  14.177  13.010
60159W        W25320  42.121  14.280  13.762
60160W        W25321   6.665  19.228  11.986
60161W        W25322   7.264  29.166   3.122
60162W        W25323  28.260  33.106   4.096
60163W        W25324  34.451  19.985   0.503
60164W        W25325   9.963   1.646  13.799
60165W        W25326  31.626   5.315   3.940
60166W        W25327  20.085  44.065  13.331
60167W        W25328  13.852  24.977  12.543
60168W        W25329  38.389   5.386  14.017
60169W        W25330  27.460   0.731  12.434
60170W        W25331  43.982   3.357  11.221
60171W        W25332  30.264  18.260  12.413
60172W        W25333  39.905  30.454  13.782
60173W        W25334  35.750  12.149   2.304
60174W        W25335  14.133  37.360   5.171
60175W        W25336  21.119  35.427   4.020
60176W        W25337  18.651   2.410   2.238
60177W        W25338  32.019  42.783  12.449
60178W        W25339  29.937  15.649  14.761
60179W        W25340  16.625  14.562  12.043
60180W        W25341  25.978  44.438  13.014
60181W        W25342  25.522  26.796  12.016
60182W        W25343  30.153  36.410   0.897
60183W        W25344  16.082  27.605   3.106
60184W        W25345   7.429  19.751   2.667
60185W        W25346  39.001  35.578   3.531
60186W        W25347  33.328  19.711   3.122
60187W        W25348   3.815  43.139   0.773
60188W        W25349  26.735  42.285  14.341
60189W        W25350  26.725  30.188   4.564
60190W        W25351  41.948   7.279  10.131
60191W        W25352   6.264  20.258  14.404
60192W        W25353  16.351  31.170   3.269
60193W        W25354  10.535  24.373   2.775
60194W        W25355   7.571  20.738  13.398
60195W        W25356   3.456  44.256  12.443
60196W        W25357  24.564  38.258  12.539
60197W        W25358  43.918   2.465  13.790
60198W        W25359  26.565  11.937  14.991
60199W        W25360  24.848  26.216   4.174
60200W        W25361   7.996  39.006  12.195
60201W        W25362   5.370  29.718   1.894
60202W        W25363  10.205  38.299  12.948
60203W        W25364  17.612  10.482   1.836
60204W        W25365  44.529   9.299  11.903
60205W        W25366   0.959  19.624   4.982
60206W        W25367   1.369   0.232  14.266
60207W        W25368  31.205  21.460  12.584
60208W        W25369   8.889  40.718   0.969
60209W        W25370  15.241  29.467  13.984
60210W        W25371  39.298   6.411  11.603
60211W        W25372   5.838  42.997  14.141
60212W        W25373  17.629  20.354   4.172
60213W        W25374  14.933  21.639  10.543
60214W        W25375  12.071  10.357   3.953
60215W        W25376  21.374   4.419  12.837
60216W        W25377   8.696   4.022  13.340
60217W        W25378  30.311  38.943   9.728
60218W        W25379  11.293  15.668  13.398
60219W        W25380  42.157  12.436  13.998
60220W        W25381  12.477   6.249   3.672
60221W        W25382  43.987  36.862   3.110
60222W        W25383   6.739   7.087   3.897
60223W        W25384   2.492  40.491   3.888
60224W        W25385   8.614  29.994  11.602
60225W        W25386   0.956   1.083   4.155
60226W        W25387  16.768   9.655  14.384
60227W        W25388  24.386   8.889   0.016
60228W        W25389  10.776   2.001  14.366
60229W        W25390  44.307   3.574  11.607
60230W        W25391  24.814  31.192   4.879
60231W        W25392  26.404  22.072  13.048
60232W        W25393  18.594  40.693  14.967
60233W        W25394  13.531  35.094  11.188
60234W        W25395  42.778   3.734  11.669
60235W        W25396  24.420  11.582   1.275
60236W        W25397  34.488  24.010   1.363
60237W        W25398  14.159   4.869  12.058
60238W        W25399  40.348  11.610  11.556
60239W        W25400  33.051  22.672  11.731
60240W        W25401   2.421  27.211   0.360
60241W        W25402  35.185  32.132  11.143
60242W        W25403  10.901  25.142   4.111
60243W        W25404   9.890  10.187  12.111
60244W        W25405  35.545  11.226   3.098
60245W        W25406  21.278   2.959  12.952
60246W        W25407  28.097  31.691  13.344
60247W        W25408   8.727  23.422   4.110
60248W        W25409  38.148   2.702  11.230
60249W        W25410  35.036  22.537  13.980
60250W        W25411  33.218  29.189   1.202
60251W        W25412  30.732  28.982  12.558
60252W        W25413  13.747  19.017  11.882
60253W        W25414   7.905  30.143   1.393
60254W        W25415  24.173  22.734   2.912
60255W        W25416  19.559  42.497   3.043
60256W        W25417  39.006  39.387  11.314
60257W        W25418  23.446  21.099  11.118
60258W        W25419   5.680  40.122  13.932
60259W        W25420   6.958  35.915   0.860
60260W        W25421   8.738  30.001   1.691
60261W        W25422   9.934   5.587   1.159
60262W        W25423   4.001  42.872  12.903
60263W        W25424   8.038   5.446   2.752
60264W        W25425  34.045   7.798  14.762
60265W        W25426  34.654  34.538   2.795
60266W        W25427   3.969   1.358   4.213
60267W        W25428  44.168  12.709   0.287
60268W        W25429  19.635   3.773   4.386
60269W        W25430   3.322  35.994  13.500
60270W        W25431  41.925  23.396  14.519
60271W        W25432  22.382  28.157  14.842
60272W        W25433  20.570  34.153   3.879
60273W        W25434  37.336  21.757  14.500
60274W        W25435  30.963  23.619   3.458
60275W        W25436  33.508  43.562   3.893
60276W        W25437  44.671  20.237   0.536
60277W        W25438  15.337  28.488   3.426
60278W        W25439  29.300  14.817  11.096
60279W        W25440  31.060  34.032   4.379
60280W        W25441  21.588   0.962   1.257
60281W        W25442  29.869  28.504   3.651
60282W        W25443  19.589  39.337  13.871
60283W        W25444  25.742   4.288  13.067
60284W        W25445  43.393  36.615  14.072
60285W        W25446  34.630   1.987   4.196
60286W        W25447   9.885  14.530   3.562
60287W        W25448   6.101  18.414  12.291
60288W        W25449  32.979  28.198  11.211
60289W        W25450  35.992  40.487   5.010
60290W        W25451  36.257  41.695   3.785
60291W        W25452  40.810   7.944   2.329
60292W        W25453  12.941   5.473  11.978
60293W        W25454  33.126   0.453  13.359
60294W        W25455  32.122  33.597   2.254
60295W        W25456   8.653  20.750   0.494
60296W        W25457  37.354  41.426  12.072
60297W        W25458  24.044  22.936  12.746
60298W        W25459   4.557  25.122  14.009
60299W        W25460  16.338  44.289   1.203
60300W        W25461   6.656  39.585   1.092
60301W        W25462  24.298   2.561   0.262
60302W        W25463   3.360  42.704   3.124
60303W        W25464  37.806  22.460  12.151
60304W        W25465   8.883   6.146  13.112
60305W        W25466  29.835  13.873  14.359
60306W        W25467  43.850   8.364  14.449
60307W        W25468  20.041   4.206   2.283
60308W        W25469  20.563  27.749  13.079
60309W        W25470  43.798   4.633  10.438
60310W        W25471   7.800  18.412  12.024
60311W        W25472  33.430   3.548   3.708
60312W        W25473  28.514   2.976  12.880
60313W        W25474   3.901   0.363   2.003
60314W        W25475  26.620  15.051  11.603
60315W        W25476  43.229  42.133   2.112
60316W        W25477   3.989  28.176  11.561
60317W        W25478   3.873  40.360  14.426
60318W        W25479   8.673  32.322  13.864
60319W        W25480   2.061   3.886   1.374
60320W        W25481  38.422  35.424  14.441
60321W        W25482  36.331  39.319  13.532
60322W        W25483  35.671   1.361  10.884
60323W        W25484  34.106  44.316   0.184
60324W        W25485   3.860  29.495  11.010
60325W        W25486  11.279  30.706  12.285
60326W        W25487  31.558  18.756  12.629
60327W        W25488  32.973   5.203  11.569
60328W        W25489  24.187   1.757   4.954
60329W        W25490   5.708  28.604  12.444
60330W        W25491  41.394  24.000  10.786
60331W        W25492  16.526  42.411   2.745
60332W        W25493   7.375  26.921   2.659
60333W        W25494   3.727  41.476  10.721
60334W        W25495   8.141  43.802  11.752
60335W        W25496  43.282  17.214   1.794
60336W        W25497  42.323  34.373   4.067
60337W        W25498  42.015  24.585   0.215
60338W        W25499  21.997  11.198   3.733
60339W        W25500  41.396  39.008   0.757
60340W        W25501  39.910  20.021  10.752
60341W        W25502  12.424   9.792  14.101
60342W        W25503  12.233  17.758  14.053
60343W        W25504  27.132  16.520   1.680
60344W        W25505  19.112   2.620   2.427
60345W        W25506   5.251   0.568  12.375
60346W        W25507  24.629  33.774  13.726
60347W        W25508  12.247   7.343   0.522
60348W        W25509  29.485   6.905  13.894
60349W        W25510  31.390   8.499  12.653
60350W        W25511  39.132  40.839  12.749
60351W        W25512  30.271   0.137   0.983
60352W        W25513  44.983  22.263  12.168
60353W        W25514  40.941   6.826   4.768
60354W        W25515   6.696  41.411  13.388
60355W        W25516  44.838  39.005  13.638
60356W        W25517  25.400  19.749  12.298
60357W        W25518  35.832  34.820   4.792
60358W        W25519  37.383  16.028   1.205
60359W        W25520  30.932  40.922  11.492
60360W        W25521  14.089   7.205   2.720
60361W        W25522  30.968  44.806   0.344
60362W        W25523  40.564  21.230   3.542
60363W        W25524   1.886   9.400  11.073
60364W        W25525  36.385  14.015  13.910
60365W        W25526  41.533  26.774  14.387
60366W        W25527  40.583  19.942   1.147
60367W        W25528  16.959  41.495  13.937
60368W        W25529  13.739  35.970  13.668
60369W        W25530   9.351  39.570   2.411
60370W        W25531   8.651   4.749   4.537
60371W        W25532  24.714  21.116  11.999
60372W        W25533  34.045   7.730  11.139
60373W        W25534  43.375  26.581   2.935
60374W        W25535  17.249  10.617  12.668
60375W        W25536  28.363  11.783  11.552
60376W        W25537  36.024  22.244   1.952
60377W        W25538  35.842  43.380  12.922
60378W        W25539   0.516  39.800  12.385
60379W        W25540  17.016  17.344   3.046
60380W        W25541  11.855  42.380   1.739
60381W        W25542  23.333  21.571   4.010
60382W        W25543  14.817  14.172   3.731
60383W        W25544  10.291   8.659  12.588
60384W        W25545  38.837  28.694  13.280
60385W        W25546  26.174  11.823   4.075
60386W        W25547  28.486  15.238  12.070
60387W        W25548  15.810  36.611   4.224
60388W        W25549  31.905   9.832  14.375
60389W        W25550  18.996  14.299  12.950
60390W        W25551  22.733  24.728  14.804
60391W        W25552  13.151  21.254  11.885
60392W        W25553  34.436  19.274   4.524
60393W        W25554  10.456  12.206  10.054
60394W        W25555  13.783   1.861  11.212
60395W        W25556  42.598  34.555   0.417
60396W        W25557  21.557  27.578  11.910
60397W        W25558  32.026   5.123  13.488
60398W        W25559  17.026   3.293   4.971
60399W        W25560  13.556   6.910  14.315
60400W        W25561  26.451  20.993  10.718
60401W        W25562  11.313   9.171  10.498
60402W        W25563  44.249   8.634  13.107
60403W        W25564   2.060  21.143   2.668
60404W        W25565   6.768  30.660  13.020
60405W        W25566   8.232  27.875   1.029
60406W        W25567  42.659  33.649   2.564
60407W        W25568  14.235  30.975   1.353
60408W        W25569  21.954  26.666   0.376
60409W        W25570  41.757  16.791  11.648
60410W        W25571  27.195  16.808   2.117
60411W        W25572   4.703  12.569   2.669
60412W        W25573  21.933  25.883   0.983
60413W        W25574   9.920  43.510   1.283
60414W        W25575   2.745  30.254   2.166
60415W        W25576  43.050   8.694  12.638
60416W        W25577  42.778  43.036   1.810
60417W        W25578  26.475   9.153  13.787
60418W        W25579  27.975  19.713   5.074
60419W        W25580  20.639   1.243   3.598
60420W        W25581  13.909  13.353   3.837
60421W        W25582  44.212  29.708  12.405
60422W        W25583   7.691   7.914   2.719
60423W        W25584  11.268  36.371  12.421
60424W        W25585  41.957  14.087  12.376
60425W        W25586   1.344  25.635  12.014
60426W        W25587   3.885  41.682   2.829
60427W        W25588  10.638  34.120   2.394
60428W        W25589  14.159  13.620   2.627
60429W        W25590  17.320  33.308   4.684
60430W        W25591  12.721   5.788   3.858
60431W        W25592  23.054  14.595  12.993
60432W        W25593   6.202  16.351   4.155
60433W        W25594  17.190  37.350   2.414
60434W        W25595  29.275  32.774   3.250
60435W        W25596   3.528   1.354  12.401
60436W        W25597   1.062  38.959   1.015
60437W        W25598   3.782  18.187  12.497
60438W        W25599  13.074  29.304  13.934
60439W        W25600  37.953  16.332   3.288
60440W        W25601  25.087  25.820  14.098
60441W        W25602  27.527   4.077   0.126
60442W        W25603   0.441  19.325  12.568
60443W        W25604  44.497  19.527   0.935
60444W        W25605   2.021  36.724   1.836
60445W        W25606   1.278  11.412  14.318
60446W        W25607  36.598  28.485  14.027
60447W        W25608  36.548  34.953  14.939
60448W        W25609  26.921  36.442  11.624
60449W        W25610  39.876  35.536   3.850
60450W        W25611   4.837   8.446   5.100
60451W        W25612  10.613  38.088  10.663
60452W        W25613  36.198  24.118  10.617
60453W        W25614  18.183  41.893   0.343
60454W        W25615  30.725   6.860  14.567
60455W        W25616   8.607   0.834   1.413
60456W        W25617  27.588  36.644   3.692
60457W        W25618  40.794  34.951   1.404
60458W        W25619  38.092  23.139   3.566
60459W        W25620  42.519  20.954   4.151
60460W        W25621  11.918  27.689  13.419
60461W        W25622  34.820   3.671  12.111
60462W        W25623  25.476  12.695   2.055
60463W        W25624  16.123  41.597   4.198
60464W        W25625   4.761  11.603   0.861
60465W        W25626  15.098  38.463   0.216
60466W        W25627  35.571   2.518   1.719
60467W        W25628  29.543  16.530  14.043
60468W        W25629  29.149   2.819   3.121
60469W        W25630  13.294   9.601  12.476
60470W        W25631  44.851  32.544  14.829
60471W        W25632  22.522  15.519   3.200
60472W        W25633   5.903   8.864   0.520
60473W        W25634  32.410  25.036   0.812
60474W        W25635   4.954  28.598   1.387
60475W        W25636  44.871   8.970   1.334
60476W        W25637  31.878  41.629   3.315
60477W        W25638  31.993  37.804  14.768
60478W        W25639  37.427  30.532  10.738
60479W        W25640   0.844  19.750   1.150
60480W        W25641  38.646  43.788  10.609
60481W        W25642  22.580   9.269   2.389
60482W        W25643  36.729  39.068  10.222
60483W        W25644  23.226   2.228   2.641
60484W        W25645  36.105  19.825  14.358
60485W        W25646  35.368   5.296  13.314
60486W        W25647  41.500  44.194   0.308
60487W        W25648  24.508  27.528   1.349
60488W        W25649  14.041  33.388   1.730
60489W        W25650  10.905  24.200  11.198
60490W        W25651  40.298  34.957  10.629
60491W        W25652   0.946   7.440   4.048
60492W        W25653  22.134  17.600  11.193
60493W        W25654  33.468   1.957   3.561
60494W        W25655  31.949  24.932  14.968
60495W        W25656  40.522  20.480   0.280
60496W        W25657  15.156   8.336   0.338
60497W        W25658  17.843   8.174  12.503
60498W        W25659   1.727  19.847   1.779
60499W        W25660  13.018  18.265  11.138
60500W        W25661  39.787  24.726  13.004
60501W        W25662  12.537  37.723   1.855
60502W        W25663  32.970   4.042  11.917
60503W        W25664  15.186  42.848  14.778
60504W        W25665  42.771  40.095  12.383
60505W        W25666  22.657  24.876  11.614
60506W        W25667  24.731  21.487  12.819
60507W        W25668  27.020  34.196  14.333
60508W        W25669  38.866   7.913  11.701
60509W        W25670  43.245   0.824  14.864
60510W        W25671   5.863  15.543  12.092
60511W        W25672  41.997  44.000  12.946
60512W        W25673  30.630  37.592   1.263
60513W        W25674   4.400  39.561   0.463
60514W        W25675  22.230  38.940  12.384
60515W        W25676   9.934   3.474   5.087
60516W        W25677   1.528  20.679   2.101
60517W        W25678  24.746  24.544  13.593
60518W        W25679   7.555  37.209   4.335
60519W        W25680   2.252  29.148  14.460
60520W        W25681  44.737  38.145   2.059
60521W        W25682  20.485  35.052   2.307
60522W        W25683   4.671   7.299  13.348
60523W        W25684  15.140  31.122  11.962
60524W        W25685  42.050  39.865   2.651
60525W        W25686  27.648   5.788  12.505
60526W        W25687   8.274  30.451   3.737
60527W        W25688   3.205   8.436   2.611
60528W        W25689  19.567  38.136  14.451
60529W        W25690  35.884  13.812   4.700
60530W        W25691  12.720  25.507   2.816
60531W        W25692  34.389  40.134  11.150
60532W        W25693   5.323   0.039  12.389
60533W        W25694   2.253   4.224  14.153
60534W        W25695  29.947   1.181   2.771
60535W        W25696  36.302  33.118   2.698
60536W        W25697  10.382   8.073   3.813
60537W        W25698  33.015  19.964   3.796
60538W        W25699  20.755  14.239  14.474
60539W        W25700   7.685   2.088  14.897
60540W        W25701  44.432  33.024  14.418
60541W        W25702   2.980  28.923  14.902
60542W        W25703  33.599  25.188   4.112
60543W        W25704  15.993   6.377   1.323
60544W        W25705  29.951  39.796   3.778
60545W        W25706  39.992   4.351  11.995
60546W        W25707  37.175  10.246  13.773
60547W        W25708  24.305  20.225  11.002
60548W        W25709  31.085  26.427   3.234
60549W        W25710  38.818   9.253  14.939
60550W        W25711  14.694  18.611  14.496
60551W        W25712  22.740  42.447  10.216
60552W        W25713  41.919  10.434   0.989
60553W        W25714  28.733   3.481   2.433
60554W        W25715  24.173  24.414   5.048
60555W        W25716  32.627  11.144  10.864
60556W        W25717  12.188  43.823   1.579
60557W        W25718  31.880  26.718  10.799
60558W        W25719  29.951  27.509   1.724
60559W        W25720   2.386  17.830  10.773
60560W        W25721  19.527  17.103   3.578
60561W        W25722  20.236  38.573  12.265
60562W        W25723   3.533  15.737  14.516
60563W        W25724  41.423  28.324   1.633
60564W        W25725  25.234   7.291  12.095
60565W        W25726  39.636   9.058  10.716
60566W        W25727  37.820  15.081   2.513
60567W        W25728  18.626  12.625  13.853
60568W        W25729  41.571  22.107  11.051
60569W        W25730  30.250  33.208   1.010
60570W        W25731  32.193  22.036   2.680
60571W        W25732  31.091  13.415   4.413
60572W        W25733  40.468  22.291   2.730
60573W        W25734  23.597  10.372   0.515
60574W        W25735  41.600  17.094  13.486
60575W        W25736  17.377  15.190  12.959
60576W        W25737   9.597   0.369   4.064
60577W        W25738   3.722  22.156  13.125
60578W        W25739  26.490  12.750  13.425
60579W        W25740   8.083  13.201  11.567
60580W        W25741  15.553   7.160   4.106
60581W        W25742  32.197  30.060   0.459
60582W        W25743  41.891  37.742   1.144
60583W        W25744  40.872   8.834   0.529
60584W        W25745   0.161  36.799  12.983
60585W        W25746  13.446  22.610   2.667
60586W        W25747  34.249  38.163   2.395
60587W        W25748   4.246  23.850  13.146
60588W        W25749  43.047  24.570   1.355
60589W        W25750  24.133  13.038  13.841
60590W        W25751  26.088  35.347  13.517
60591W        W25752  20.056   9.821  10.549
60592W        W25753   4.834   0.207  14.304
60593W        W25754  22.214  18.865  14.533
60594W        W25755  19.830  22.177  12.514
60595W        W25756  43.930  30.359   0.018
60596W        W25757  42.048   7.104   0.228
60597W        W25758  44.333  40.067   2.922
60598W        W25759  41.164   2.741  13.806
60599W        W25760  35.146  26.646  14.406
60600W        W25761  42.440  18.136   3.911
60601W        W25762  34.948  21.122  13.263
60602W        W25763  17.293  14.716   3.644
60603W        W25764  39.108   4.704  13.776
60604W        W25765  23.441  39.994   4.079
60605W        W25766   5.261  32.000   2.822
60606W        W25767  20.660  25.259  10.329
60607W        W25768  36.286  44.016   2.436
60608W        W25769  35.495  10.191  13.858
60609W        W25770  34.410  22.397   4.985
60610W        W25771  25.651  40.781  13.676
60611W        W25772  42.483  31.576  13.848
60612W        W25773  31.979  27.064  11.216
60613W        W25774   6.157  39.317  13.048
60614W        W25775  10.695  34.622  10.995
60615W        W25776  39.375  23.978  12.420
60616W        W25777  37.631  11.450  12.397
60617W        W25778  36.073  14.878   4.080
60618W        W25779  39.890  37.278   3.686
60619W        W25780  10.039  27.891   3.349
60620W        W25781  18.256   5.388  12.354
60621W        W25782   8.848   8.866   2.229
60622W        W25783  16.396   7.618  12.336
60623W        W25784   0.329  31.807  12.866
60624W        W25785  25.730  27.068  14.531
60625W        W25786   5.617  31.037   0.999
60626W        W25787  33.373  39.408   2.148
60627W        W25788   0.390  36.484  14.765
60628W        W25789   7.231  35.837   2.918
60629W        W25790   5.127  41.422  14.435
60630W        W25791   5.753  15.763   0.682
60631W        W25792   2.930  22.783  11.662
60632W        W25793  22.479  31.748  11.967
60633W        W25794  11.581   9.812  11.935
60634W        W25795  14.320  18.994  12.572
60635W        W25796  16.725  40.581  13.333
60636W        W25797  44.124  12.904  11.044
60637W        W25798   1.611  14.806   5.113
60638W        W25799  36.643  34.437  12.918
60639W        W25800  18.076   1.282   0.900
60640W        W25801  14.261  42.548   2.513
60641W        W25802  36.310  32.311   1.377
60642W        W25803  23.541   2.877  10.923
60643W        W25804  15.710   8.901  11.477
60644W        W25805  10.102   0.323   3.151
60645W        W25806  31.355   0.926  13.598
60646W        W25807  24.526   5.486   3.723
60647W        W25808   0.231  43.361  14.664
60648W        W25809  13.154  21.589  10.704
60649W        W25810  28.391   1.113   0.973
60650W        W25811  44.401  40.637  11.490
60651W        W25812  29.432  26.554  11.544
60652W        W25813  22.119  21.828   2.467
60653W        W25814   2.742  27.774   3.344
60654W        W25815  32.306  44.057   5.045
60655W        W25816  12.727   6.825  11.515
60656W        W25817  21.191  27.587  14.843
60657W        W25818  10.678  25.491  12.995
60658W        W25819  16.261  41.138  12.041
60659W        W25820  38.423  39.748  14.313
60660W        W25821  24.738  43.417   0.899
60661W        W25822  20.051   1.293   0.723
60662W        W25823  11.081  12.103   1.904
60663W        W25824   3.811  22.585  12.372
60664W        W25825  44.415   7.775  11.480
60665W        W25826  41.303  37.917   5.283
60666W        W25827   3.895  44.474   3.264
60667W        W25828  41.060  30.672  12.613
60668W        W25829  35.453  43.056   1.848
60669W        W25830  33.352  43.832  10.073
60670W        W25831  30.680  43.084  13.565
60671W        W25832  13.248   6.832  14.730
60672W        W25833  24.013   5.221   1.608
60673W        W25834  31.299  18.096   5.076
60674W        W25835   3.133  22.072   2.187
60675W        W25836  41.084  31.610   0.263
60676W        W25837  36.608   5.309  13.917
60677W        W25838  43.295  34.684  12.984
60678W        W25839  13.680  33.647   1.435
60679W        W25840  14.169  21.441  14.480
60680W        W25841  25.652  23.538   1.799
60681W        W25842  22.143  33.421   2.178
60682W        W25843  24.478  41.093   2.595
60683W        W25844  10.444  44.233   4.067
60684W        W25845  29.191  33.019   0.978
60685W        W25846  15.523  10.717  11.746
60686W        W25847   2.241  40.408   4.331
60687W        W25848  30.937  40.766   1.138
60688W        W25849  13.279   7.318   0.389
60689W        W25850   0.451  37.389  12.001
60690W        W25851  14.047  39.305   4.626
60691W        W25852  35.467  44.576   1.900
60692W        W25853  44.927  15.628   2.797
60693W        W25854   3.269  38.543  14.376
60694W        W25855  34.760  14.155   3.861
60695W        W25856  26.128  41.290   4.247
60696W        W25857   2.212   9.262  14.303
60697W        W25858  35.748   9.943  11.281
60698W        W25859  12.793  42.464   3.622
60699W        W25860  43.935  23.811  12.526
60700W        W25861  15.793  37.267  13.677
60701W        W25862  33.412  18.256   3.297
60702W        W25863  16.731  19.565  13.044
60703W        W25864   7.868  16.103  12.383
60704W        W25865  23.504   9.808  11.447
60705W        W25866  10.752  36.323   3.841
60706W        W25867  18.207  21.569   4.568
60707W        W25868  12.596   7.277  14.794
60708W        W25869   4.959   8.163  13.964
60709W        W25870  20.560  19.119   2.641
60710W        W25871  25.438  29.302  14.212
60711W        W25872   9.336  16.820   1.860
60712W        W25873   1.158   3.660   0.478
60713W        W25874  16.061   8.528   3.633
60714W        W25875  16.642  19.611   0.950
60715W        W25876   9.740  25.588  14.462
60716W        W25877  15.685   9.828  14.115
60717W        W25878  17.146  38.584   0.887
60718W        W25879  39.395  17.843  12.555
60719W        W25880  18.025  12.646  12.878
60720W        W25881  23.525  31.655  14.894
60721W        W25882  33.459  16.081   0.964
60722W        W25883  24.677  39.827  12.465
60723W        W25884   7.925  37.425   4.638
60724W        W25885   5.293   6.141   2.377
60725W        W25886  13.116  40.863   4.000
60726W        W25887  21.427  32.168   1.939
60727W        W25888  30.632  43.465   1.333
60728W        W25889  26.042  35.555  10.719
60729W        W25890  40.559  39.650  11.649
60730W        W25891  17.269  17.466   1.606
60731W        W25892   3.390  34.573   0.149
60732W        W25893  29.588  40.288  14.279
60733W        W25894  40.265  43.897  13.773
60734W        W25895  17.033  26.665  11.042
60735W        W25896   6.481  35.403   2.164
60736W        W25897  37.515  25.648  10.787
60737W        W25898   9.463   7.791   2.857
60738W        W25899  38.746  25.197   1.193
60739W        W25900  27.519  12.281  10.338
60740W        W25901  13.085   9.106   0.398
60741W        W25902  17.219  21.178  12.828
60742W        W25903  27.572  32.349  14.510
60743W        W25904   1.875  43.977   2.155
60744W        W25905  35.496  11.196   4.173
60745W        W25906  16.465  38.635   4.024
60746W        W25907  27.654   7.876   4.732
60747W        W25908   7.275   4.281  10.633
60748W        W25909  39.903   7.612   2.381
60749W        W25910  29.055   9.207   4.838
60750W        W25911   9.212  18.340  14.789
60751W        W25912   7.169  30.003  11.213
60752W        W25913  43.792  27.477  10.697
60753W        W25914  35.087  42.335  13.662
60754W        W25915  34.245  41.048   4.585
60755W        W25916  26.130  37.341  14.648
60756W        W25917  21.270   2.988   2.189
60757W        W25918   8.214  39.117   0.685
60758W        W25919  40.807  19.239  12.907
60759W        W25920  39.929  23.697  14.428
60760W        W25921   2.871  38.796  11.025
60761W        W25922  16.034   0.875   3.835
60762W        W25923  32.535  20.489   2.652
60763W        W25924  44.806  14.788  12.407
60764W        W25925  30.695   4.469   2.737
60765W        W25926  25.928  15.272   1.752
60766W        W25927  40.372   2.148  14.381
60767W        W25928  12.166  22.145   2.700
60768W        W25929  44.896  30.025  11.012
60769W        W25930  26.946  26.607   2.413
60770W        W25931  39.905   5.797  13.796
60771W        W25932   4.892   2.987  11.292
60772W        W25933   8.679   9.680  12.498
60773W        W25934  31.373  18.494  10.649
60774W        W25935  30.567  24.396  12.015
60775W        W25936  12.844  26.753   4.023
60776W        W25937  16.557  25.295  11.245
60777W        W25938  33.556  13.763  12.134
60778W        W25939  44.068  29.651   4.176
60779W        W25940   0.676   0.816  11.410
60780W        W25941  31.446  27.207  10.355
60781W        W25942  18.212  29.600  14.111
60782W        W25943  44.770  38.976  13.133
60783W        W25944  37.069  21.042  14.395
60784W        W25945   7.501  43.500   1.848
60785W        W25946  27.506  34.974   3.807
60786W        W25947  39.173  41.524   4.416
60787W        W25948  39.564  21.778   2.746
60788W        W25949  38.908  26.948   4.487
60789W        W25950  22.281  19.492   4.160
60790W        W25951  21.505   3.355  10.688
60791W        W25952  24.347  22.184  13.813
60792W        W25953  44.065  40.328  13.459
60793W        W25954  15.282  43.679   5.037
60794W        W25955  28.624  17.583   4.643
60795W        W25956  32.341  42.338  13.798
60796W        W25957  43.509  13.216  11.627
60797W        W25958  41.451   1.492   2.963
60798W        W25959  23.663  14.850  14.270
60799W        W25960  41.577  22.215  12.419
60800W        W25961  25.196  22.565   3.710
60801W        W25962   6.787  16.676   1.416
60802W        W25963  26.669  15.238  11.132
60803W        W25964  16.796  18.234   1.850
60804W        W25965  19.196  27.883   4.254
60805W        W25966   7.755  36.654  14.869
60806W        W25967  11.367  31.982   1.536
60807W        W25968  15.399  13.820   0.336
60808W        W25969  27.443  34.747   2.019
60809W        W25970  20.982   5.648  14.823
60810W        W25971   1.273   0.429   0.390
60811W        W25972  27.894  35.829  12.065
60812W        W25973  19.569  29.458  10.411
60813W        W25974  11.526  22.339   1.501
60814W        W25975   8.692   3.260   4.558
60815W        W25976  20.241  38.401  13.754
60816W        W25977  19.332  40.359   0.465
60817W        W25978  23.625  41.864   0.423
60818W        W25979   4.690  20.978  12.942
60819W        W25980  25.904  42.241  12.620
60820W        W25981  27.437  20.607   3.317
60821W        W25982  12.389  32.419   4.494
60822W        W25983  44.278   7.861   4.637
60823W        W25984  41.422  11.395  12.535
60824W        W25985  10.686   5.966  13.293
60825W        W25986   4.102  20.597  14.322
60826W        W25987   5.284  27.579  14.485
60827W        W25988  33.742  43.876   3.554
60828W        W25989  21.624  26.910  13.075
60829W        W25990  23.468   5.813   2.154
60830W        W25991  39.147   1.082  14.244
60831W        W25992  27.642  28.614  14.854
60832W        W25993  23.600  37.148  13.966
60833W        W25994   1.050  42.966   0.784
60834W        W25995  42.788   6.544  14.913
60835W        W25996  37.911  27.206   1.811
60836W        W25997  37.556  18.789   1.698
60837W        W25998   7.441  19.293  13.531
60838W        W25999  14.674  44.083  14.026
60839W        W26000  44.128  15.406  14.350
60840W        W26001  44.404  17.687   1.207
60841W        W26002  35.863  34.963  13.030
60842W        W26003   0.962  44.023  11.690
60843W        W26004  16.575   9.389  12.072
60844W        W26005  14.707  12.962   3.610
60845W        W26006   3.217   9.693   0.196
60846W        W26007  33.531  41.463  12.594
60847W        W26008  12.149  20.107  10.802
60848W        W26009  23.058   9.824   1.817
60849W        W26010  33.258  40.447  11.522
60850W        W26011   3.200   9.917   2.936
60851W        W26012  36.112  32.628   3.239
60852W        W26013  28.549   5.604  12.894
60853W        W26014   5.044  43.427  12.209
60854W        W26015   8.921  34.789   4.862
60855W        W26016   7.487   1.047  12.017
60856W        W26017  29.996   1.919  10.942
60857W        W26018   8.794   7.888  14.118
60858W        W26019  18.872  31.102  13.864
60859W        W26020  20.150  12.120  13.523
60860W        W26021  17.400   5.232   0.906
60861W        W26022  25.009  13.299  12.958
60862W        W26023  43.425   3.867   3.219
60863W        W26024  11.383  38.456  12.893
60864W        W26025  15.558  34.835  10.739
60865W        W26026   1.515  30.154   2.778
60866W        W26027   2.903  44.908   3.357
60867W        W26028   6.949  40.945  14.309
60868W        W26029  21.042  19.115  12.347
60869W        W26030   5.228  23.638   0.225
60870W        W26031  17.773  29.451   3.869
60871W        W26032  32.341  37.917  11.561
60872W        W26033   3.423  19.688   4.623
60873W        W26034  32.995  23.586   3.745
60874W        W26035   9.305  27.824   4.619
60875W        W26036  16.262  44.118  11.154
60876W        W26037  15.732  30.738  13.662
60877W        W26038  17.850  10.405  14.428
60878W        W26039   8.354  44.261  12.635
60879W        W26040  31.465  30.148  12.796
60880W        W26041  32.885   8.200  14.880
60881W        W26042   7.093  31.256   1.803
60882W        W26043  19.750  42.319   4.519
60883W        W26044  12.103  28.575   4.554
60884W        W26045   8.417   8.122  11.158
60885W        W26046  25.191  23.312   2.342
60886W        W26047  30.587  16.783   4.738
60887W        W26048   8.876  15.002   2.867
60888W        W26049  24.117  11.657  14.849
60889W        W26050  36.839  43.370   4.925
60890W        W26051  24.599  35.621  13.285
60891W        W26052  44.725  34.125  10.094
60892W        W26053  44.079   3.274  10.727
60893W        W26054  16.702  36.920   1.758
60894W        W26055  32.080   9.281  14.749
60895W        W26056  17.222   2.687  14.573
60896W        W26057   2.970   5.861  12.868
60897W        W26058   9.188   6.210   0.406
60898W        W26059  31.656  20.219  11.065
60899W        W26060  15.263   4.207  11.068
60900W        W26061  32.887  30.812   0.025
60901W        W26062   4.744  27.400  12.238
60902W        W26063   9.666  38.303   3.676
60903W        W26064  27.929  39.180   1.727
60904W        W26065  12.101  39.928   4.613
60905W        W26066  27.541  24.125   3.317
60906W        W26067  41.506  30.904   4.448
60907W        W26068  37.894  26.592   5.002
60908W        W26069  42.384  39.601   1.814
60909W        W26070  29.560  10.319  14.115
60910W        W26071   2.839  35.651  14.371
60911W        W26072  36.771  41.777  12.088
60912W        W26073   0.394   6.507  12.043
60913W        W26074   8.083   7.132   4.083
60914W        W26075   9.382  12.606  13.401
60915W        W26076  44.340  35.801   1.669
60916W        W26077   1.817   5.416   1.511
60917W        W26078  29.185  24.251  12.250
60918W        W26079   3.480  20.721  12.397
60919W        W26080  25.153  12.401  14.247
60920W        W26081  31.142  26.570   4.166
60921W        W26082  24.913  27.073   0.289
60922W        W26083   7.457  19.735  11.012
60923W        W26084   3.294  27.740  13.519
60924W        W26085   4.288  28.867  11.328
60925W        W26086  30.815  18.915   1.689
60926W        W26087   7.078   8.416  13.312
60927W        W26088   2.870  18.340  12.628
60928W        W26089  19.836  22.557  10.555
60929W        W26090  14.497   0.995   0.895
60930W        W26091  25.092  20.541   2.871
60931W        W26092   1.998   5.325   0.134
60932W        W26093  42.299  37.513   3.988
60933W        W26094  38.526   0.335  12.168
60934W        W26095   7.284  21.804  10.595
60935W        W26096  41.087   9.196  14.946
60936W        W26097   0.005   1.434  13.988
60937W        W26098  40.425  25.821  13.404
60938W        W26099  35.982  12.324   0.248
60939W        W26100  20.156  19.114   3.669
60940W        W26101  16.202  37.850   3.985
60941W        W26102  17.658  38.570   0.486
60942W        W26103  16.608  12.338   2.209
60943W        W26104  38.129  21.092   1.390
60944W        W26105  33.748  12.082   1.301
60945W        W26106  37.660  30.202  10.407
60946W        W26107   8.124  40.576   4.408
60947W        W26108  36.381   0.838   4.588
60948W        W26109  36.251  24.667   3.099
60949W        W26110  36.831   0.897  10.310
60950W        W26111  29.108  26.565   3.092
60951W        W26112  13.152  30.865  11.216
60952W        W26113   3.649  23.119   2.177
60953W        W26114  10.829  14.578  10.490
60954W        W26115   3.183  31.174   3.083
60955W        W26116  12.146   0.822  13.535
60956W        W26117  41.858   7.388   1.001
60957W        W26118  39.332   2.931   3.350
60958W        W26119   1.384   1.844   0.228
60959W        W26120  31.469  18.750  14.985
60960W        W26121  43.059  12.746  10.330
60961W        W26122  10.720  13.746   0.180
60962W        W26123   9.371  43.998   1.031
60963W        W26124   3.771  15.776   1.274
60964W        W26125  17.648  38.983  12.501
60965W        W26126  34.419  42.890  10.674
60966W        W26127  19.223  11.790   4.393
60967W        W26128  19.293  21.765   4.861
60968W        W26129  43.854  14.557   3.242
60969W        W26130  25.310   8.102  14.446
60970W        W26131  31.416   4.234   1.295
60971W        W26132   9.073  25.700  13.978
60972W        W26133  42.025  21.137   4.107
60973W        W26134  42.616  10.350  13.321
60974W        W26135  28.097  11.406   0.173
60975W        W26136   0.648  38.854   2.827
60976W        W26137  21.237  37.918  11.920
60977W        W26138   8.751  10.505   0.834
60978W        W26139   9.896   5.235   4.259
60979W        W26140  12.782  43.005   1.394
60980W        W26141  34.719   6.822   0.387
60981W        W26142  24.381  13.907  12.927
60982W        W26143  39.480  14.253  11.463
60983W        W26144   6.420  22.759   1.254
60984W        W26145  26.962  11.111   3.033
60985W        W26146  27.531  20.198   4.248
60986W        W26147  28.942   2.452   1.380
60987W        W26148  28.132  29.134   2.088
60988W        W26149  23.720  37.257  11.215
60989W        W26150  31.560  39.505  11.899
60990W        W26151  16.995  43.812   4.499
60991W        W26152   2.339  23.744   1.356
60992W        W26153  25.993  39.987   3.904
60993W        W26154  34.665   9.704   3.345
60994W        W26155  28.716  21.802  12.910
60995W        W26156   0.905  15.731   0.243
60996W        W26157  34.929  15.449  12.491
60997W        W26158  37.393  37.129  11.561
60998W        W26159  40.984  11.263   4.271
60999W        W26160  44.291  14.122  14.890
61000W        W26161  41.514  30.045  14.129
61001W        W26162  29.812   0.441   4.986
61002W        W26163  43.783   7.714   0.247
61003W        W26164  36.392   0.842  11.120
61004W        W26165   5.717   5.660  12.475
61005W        W26166   9.340  36.983  14.270
61006W        W26167  22.610  27.095   1.385
61007W        W26168   6.446   5.130   3.387
61008W        W26169  39.932  17.445  11.922
61009W        W26170  21.094  14.305  12.398
61010W        W26171  20.615  25.367   0.363
61011W        W26172  19.038   3.244   4.186
61012W        W26173   4.307   9.124  12.045
61013W        W26174  19.429  41.206   4.539
61014W        W26175  21.284   4.857   1.741
61015W        W26176  14.702  31.952   4.950
61016W        W26177   9.797  23.912   2.448
61017W        W26178   2.471  35.936   2.081
61018W        W26179  33.610   1.135  10.779
61019W        W26180  14.531  12.852   1.397
61020W        W26181  11.369  16.904  12.536
61021W        W26182  21.059   5.754  13.033
61022W        W26183  19.475   0.952  10.341
61023W        W26184   1.264   7.828  11.138
61024W        W26185  43.888  11.893   0.556
61025W        W26186   1.043  34.393  11.367
61026W        W26187  38.097  44.800   3.565
61027W        W26188  43.282  24.453  13.018
61028W        W26189  11.149  21.317   0.224
61029W        W26190  35.897  30.097  14.865
61030W        W26191  16.009   1.317  14.438
61031W        W26192  37.105  37.995   0.287
61032W        W26193  23.678  18.158  12.463
61033W        W26194   2.718   6.399   1.289
61034W        W26195  19.661   7.509  12.031
61035W        W26196  44.599   1.438  11.917
61036W        W26197  26.568  28.647  12.448
61037W        W26198  43.703  15.860  12.758
61038W        W26199   9.430  14.077   1.312
61039W        W26200  31.749  43.807   4.043
61040W        W26201  28.575  26.493  14.843
61041W        W26202  12.650  42.000   4.812
61042W        W26203  39.947  29.953  11.183
61043W        W26204   8.064  20.110  14.474
61044W        W26205  36.637   8.360   0.833
61045W        W26206  36.540   6.377   2.819
61046W        W26207  18.305  41.978   1.531
61047W        W26208  29.966  26.152   3.200
61048W        W26209  33.364  13.855   0.783
61049W        W26210  16.191   4.930   3.710
61050W        W26211  39.700  20.062  13.647
61051W        W26212   0.669  17.159   3.827
61052W        W26213   9.253  43.230  12.499
61053W        W26214  34.043  43.279  14.427
61054W        W26215  18.950  40.044  12.417
61055W        W26216  29.169   0.633   1.753
61056W        W26217  32.983  11.586   1.253
61057W        W26218  23.148  25.528   4.219
61058W        W26219  27.583  23.883   1.901
61059W        W26220  36.762  16.970  13.975
61060W        W26221  27.064   9.666  13.359
61061W        W26222  40.495  39.097   1.362
61062W        W26223  27.984  40.827   2.284
61063W        W26224  40.265   0.423   0.992
61064W        W26225  16.510  30.647   4.687
61065W        W26226  13.371   5.030  14.511
61066W        W26227  13.288  22.766   0.735
61067W        W26228   2.374  15.326   2.845
61068W        W26229  20.060  43.226   0.931
61069W        W26230  34.814  43.881  10.533
61070W        W26231  15.721  31.333  10.884
61071W        W26232   2.179  19.649  10.702
61072W        W26233   0.817  19.219   1.164
61073W        W26234  41.082  40.398  12.152
61074W        W26235   8.054  23.409  14.191
61075W        W26236  29.488   6.974  12.582
61076W        W26237  38.002  37.465   0.370
61077W        W26238  43.911  14.876  14.478
61078W        W26239  41.408  36.408   4.919
61079W        W26240  25.812  32.115  14.392
61080W        W26241  18.210  20.603  11.441
61081W        W26242  28.082  31.562   2.759
61082W        W26243  28.115  42.679  13.081
61083W        W26244  31.452  19.079  14.360
61084W        W26245   5.139   1.944  11.507
61085W        W26246  43.018  16.579  10.720
61086W        W26247   4.946  11.596   4.179
61087W        W26248  38.484   3.660   1.179
61088W        W26249  11.290  18.184   2.543
61089W        W26250  33.906   7.858   4.140
61090W        W26251  28.639  40.518   9.771
61091W        W26252  24.735  39.715   2.561
61092W        W26253  29.626  41.844   1.936
61093W        W26254   5.995   5.369   3.325
61094W        W26255  42.510  15.206  13.153
61095W        W26256  42.367  18.140   2.303
61096W        W26257  10.388  34.875   0.934
61097W        W26258  10.230  13.764  14.961
61098W        W26259  21.982  23.870  10.805
61099W        W26260  23.440  11.299  14.071
61100W        W26261   2.666  26.387   0.243
61101W        W26262   1.021  21.384  10.124
61102W        W26263  11.681  39.948  12.650
61103W        W26264  40.799  44.426  10.584
61104W        W26265  31.486  31.381   3.218
61105W        W26266  21.743  11.867   3.329
61106W        W26267   9.829  24.115  13.776
61107W        W26268  36.277  18.406  11.150
61108W        W26269   0.975  21.491   0.790
61109W        W26270   1.183  38.257   2.487
61110W        W26271   6.302  36.549  11.609
61111W        W26272  33.819  42.749  13.420
61112W        W26273  38.507  40.487  11.481
61113W        W26274   9.878  19.643   2.735
61114W        W26275  15.315  15.103  13.049
61115W        W26276  43.950  26.515   4.190
61116W        W26277   9.636  42.962   3.665
61117W        W26278  41.300  28.962  12.497
61118W        W26279  44.557  38.857   3.949
61119W        W26280  26.053  33.623   3.628
61120W        W26281  33.046  14.116   1.504
61121W        W26282  25.762  31.619   3.474
61122W        W26283  40.505  40.228   2.136
61123W        W26284   6.263  19.157  10.716
61124W        W26285   9.349  21.176  14.052
61125W        W26286  38.678   0.753   1.283
61126W        W26287  41.051  32.663  11.938
61127W        W26288  44.330  18.182  14.015
61128W        W26289  27.178  27.176  13.349
61129W        W26290  42.955   5.900  11.877
61130W        W26291  32.919  22.413   0.468
61131W        W26292  40.176  20.766   4.150
61132W        W26293  17.684  43.923   0.205
61133W        W26294  15.873  35.528  14.485
61134W        W26295  29.531  20.514   0.748
61135W        W26296  27.993   0.650  14.941
61136W        W26297  14.677   1.368  14.516
61137W        W26298  43.981  33.687  12.493
61138W        W26299  36.520  31.960  12.624
61139W        W26300  36.813  30.370   5.030
61140W        W26301  41.530  23.296   0.702
61141W        W26302  39.982  31.522   0.210
61142W        W26303  42.136  27.454  14.729
61143W        W26304   9.112  35.023  14.334
61144W        W26305  10.909  20.292  11.222
61145W        W26306   7.919  21.820   0.848
61146W        W26307  41.761  33.368  12.074
61147W        W26308   1.654  26.304  10.791
61148W        W26309  10.943  15.512  14.848
61149W        W26310   4.822  37.995  13.808
61150W        W26311  24.261  43.425  14.947
61151W        W26312   7.515  24.046   1.401
61152W        W26313  20.232  13.364  10.370
61153W        W26314   8.218  19.323   0.806
61154W        W26315  36.091  36.072   4.161
61155W        W26316  44.466  21.019   0.366
61156W        W26317   4.197  24.473   2.433
61157W        W26318  17.847  19.086  14.416
61158W        W26319  35.713  39.499  12.834
61159W        W26320  32.108  16.065  14.937
61160W        W26321   9.487  38.866  11.937
61161W        W26322   4.487  21.505  10.740
61162W        W26323  14.901  10.929   2.404
61163W        W26324  38.344  42.754  14.859
61164W        W26325  14.419  16.988   1.544
61165W        W26326  28.963  42.824  13.039
61166W        W26327  28.534  25.639   0.246
61167W        W26328  42.531   0.778   1.067
61168W        W26329  14.357   3.315  11.528
61169W        W26330  15.337  28.063   1.834
61170W        W26331  20.123  20.657  13.958
61171W        W26332  36.205  33.413   3.782
61172W        W26333   1.785  15.595  14.916
61173W        W26334  36.463  25.781  10.403
61174W        W26335  16.622  19.840  11.191
61175W        W26336  19.028   3.171  13.010
61176W        W26337  27.166   0.225   4.920
61177W        W26338  27.052  30.134   4.168
61178W        W26339  25.913  15.794  14.391
61179W        W26340  15.087  33.114   2.193
61180W        W26341  32.351   9.562  12.449
61181W        W26342  36.551  37.045   3.556
61182W        W26343  24.893  15.681  10.567
61183W        W26344  42.758  25.621   0.036
61184W        W26345  27.534  37.854  10.757
61185W        W26346  12.148  31.640  13.460
61186W        W26347  13.131  25.157  12.172
61187W        W26348  29.779  13.195  14.893
61188W        W26349  28.995  19.067  14.306
61189W        W26350  39.785  34.444  12.584
61190W        W26351  30.218  44.350   3.017
61191W        W26352  38.448  13.404  14.321
61192W        W26353   1.024   4.195   2.055
61193W        W26354  40.768  40.501   0.858
61194W        W26355   7.618  14.140  10.240
61195W        W26356  41.496  30.490   2.278
61196W        W26357   8.630   5.005  11.951
61197W        W26358  11.326   1.279   4.569
61198W        W26359  31.022  10.917   0.343
61199W        W26360  13.881  18.236  14.470
61200W        W26361  29.181  19.858  11.070
61201W        W26362  40.814  25.041   0.474
61202W        W26363  32.874   9.613  10.892
61203W        W26364  27.664  18.667  13.767
61204W        W26365  41.936  44.422  11.981
61205W        W26366   5.406   5.439  10.744
61206W        W26367   8.327  16.253  13.480
61207W        W26368  35.538  10.738  11.982
61208W        W26369  15.918   6.708  11.721
61209W        W26370  11.126  18.807   1.198
61210W        W26371  32.532  36.574   0.696
61211W        W26372  13.048  34.035  13.109
61212W        W26373  37.557  27.057   2.899
61213W        W26374  44.902  10.392   2.233
61214W        W26375  39.509  39.412  14.496
61215W        W26376  42.269  34.958   0.394
61216W        W26377   1.770  10.177  10.667
61217W        W26378  27.380  23.372   2.820
61218W        W26379   9.800   5.760  13.339
61219W        W26380  42.528   0.796   4.242
61220W        W26381  29.507  37.021  12.560
61221W        W26382  25.486   9.171  12.480
61222W        W26383  25.131  15.244  10.497
61223W        W26384  33.835  17.417   4.445
61224W        W26385   2.395  42.259   0.196
61225W        W26386  10.309  21.746  14.839
61226W        W26387   0.070  16.654  13.905
61227W        W26388   8.317   1.444  14.350
61228W        W26389   0.623  42.570  14.987
61229W        W26390  35.097  10.667   1.937
61230W        W26391  17.683  15.293   1.074
61231W        W26392  32.034  27.635   2.327
61232W        W26393  31.000   7.127  13.422
61233W        W26394  31.448   7.371  13.492
61234W        W26395  29.715  17.771  13.131
61235W        W26396  44.796   5.325  12.985
61236W        W26397  12.133  11.477   2.219
61237W        W26398  31.442  41.756   4.512
61238W        W26399  20.477  29.459   4.876
61239W        W26400  23.046  17.010  12.873
61240W        W26401  26.948  42.544  11.357
61241W        W26402  44.294   0.488   2.716
61242W        W26403   4.303  27.952   0.469
61243W        W26404  38.816  43.894  12.014
61244W        W26405  15.528  10.413   1.338
61245W        W26406  39.133  38.847   2.798
61246W        W26407  42.374  44.680  12.075
61247W        W26408  15.876  18.461  14.268
61248W        W26409  29.702  31.011   3.730
61249W        W26410  43.409  27.628   4.435
61250W        W26411  37.140   0.317  11.834
61251W        W26412  44.434  19.099  11.938
61252W        W26413  25.244  16.607   4.309
61253W        W26414   9.691  15.503   3.746
61254W        W26415   9.217  40.653  11.376
61255W        W26416  42.783  12.561   2.311
61256W        W26417  12.201  32.407  13.032
61257W        W26418  40.537  24.470  13.446
61258W        W26419  39.300  10.195   0.732
61259W        W26420  44.283   6.594  14.044
61260W        W26421  11.356  21.151   4.175
61261W        W26422  11.713  14.576   0.221
61262W        W26423  39.294  27.472   1.327
61263W        W26424   1.511   7.200   0.397
61264W        W26425  16.116  32.114  14.816
61265W        W26426  35.014  36.061  11.480
61266W        W26427  18.488  14.536  11.280
61267W        W26428   2.140  15.758  13.072
61268W        W26429  20.862  29.580  14.845
61269W        W26430  43.047  10.679  14.753
61270W        W26431   1.630  25.666  13.809
61271W        W26432  33.991   3.264  14.907
61272W        W26433  19.324  11.144  11.128
61273W        W26434  30.691   2.514   0.874
61274W        W26435  44.572  42.201   0.893
61275W        W26436   3.412  10.155   3.726
61276W        W26437  31.576  11.178  13.002
61277W        W26438  41.771  32.652   0.846
61278W        W26439  35.184  43.790   3.780
61279W        W26440  41.478  44.652   4.512
61280W        W26441  27.089  18.051   1.302
61281W        W26442  41.675  23.815   1.990
61282W        W26443  16.090  12.246   3.587
61283W        W26444  42.388  28.462   1.240
61284W        W26445  24.157  24.679   3.758
61285W        W26446  44.939  25.582  12.485
61286W        W26447   5.860   8.364   2.657
61287W        W26448  35.307  33.505  10.157
61288W        W26449  39.560   1.732   1.235
61289W        W26450  28.754  23.979  12.130
61290W        W26451  41.356  25.510  11.494
61291W        W26452  44.833  43.296  13.108
61292W        W26453   0.332  36.846   2.239
61293W        W26454  32.805  26.991   4.505
61294W        W26455  26.140   5.082  14.465
61295W        W26456  40.259  21.825  10.807
61296W        W26457  30.768  17.730   3.256
61297W        W26458  23.041   3.995   4.180
61298W        W26459  19.533   8.238  14.673
61299W        W26460  40.761  22.493  12.786
61300W        W26461  23.074  42.025   4.638
61301W        W26462   0.770   9.520  13.517
61302W        W26463  32.425  16.634  12.923
61303W        W26464  27.456  21.524   1.419
61304W        W26465  13.674  28.723  14.248
61305W        W26466   7.796  41.269  10.502
61306W        W26467  39.211  27.538   2.207
61307W        W26468  13.507  13.724  13.645
61308W        W26469  38.898  18.832  12.000
61309W        W26470  15.882  37.666  13.323
61310W        W26471   0.040  34.650   1.848
61311W        W26472  30.879  10.371  13.897
61312W        W26473   5.694  39.567  13.953
61313W        W26474  40.535  26.099   0.685
61314W        W26475  10.693  33.419  11.649
61315W        W26476  16.423  40.807  14.977
61316W        W26477  34.516   7.712   3.465
61317W        W26478  33.017   9.946  13.389
61318W        W26479  12.613  25.606  14.804
61319W        W26480   0.359   4.156  13.103
61320W        W26481  38.735   3.415  10.740
61321W        W26482  39.405  13.710  12.868
61322W        W26483  43.528  19.672  12.423
61323W        W26484  39.561   0.787   1.505
61324W        W26485  44.730   5.745  12.052
61325W        W26486  12.716  38.874  12.905
61326W        W26487  19.151   2.579  14.846
61327W        W26488   3.151  15.828  14.907
61328W        W26489  16.681  44.587   5.055
61329W        W26490  37.089  29.172  13.704
61330W        W26491  11.247  40.372  13.251
61331W        W26492  11.110  14.729   3.767
61332W        W26493  40.806   7.519  12.439
61333W        W26494  36.099  43.881  14.145
61334W        W26495  14.399  33.099   0.859
61335W        W26496  28.844   8.144  13.855
61336W        W26497  10.355  21.211  11.578
61337W        W26498   6.305  19.640  12.912
61338W        W26499  27.797  19.921   3.024
61339W        W26500  35.845   5.345  12.085
61340W        W26501  36.841  34.000  13.140
61341W        W26502   7.183  25.136   0.946
61342W        W26503  38.038  21.580  13.369
61343W        W26504  13.661  40.581   3.004
61344W        W26505  23.295   1.420  11.475
61345W        W26506  39.818  24.962  11.990
61346W        W26507  17.787  24.142  13.806
61347W        W26508   6.460  31.190  14.522
61348W        W26509   4.894  13.173  13.094
61349W        W26510  30.798  24.742   4.041
61350W        W26511  41.365  32.377  13.481
61351W        W26512  41.001  16.224   0.321
61352W        W26513  39.833  12.334   2.699
61353W        W26514  22.170  12.288   4.598
61354W        W26515  33.639  38.608   1.212
61355W        W26516  24.781  41.369  11.648
61356W        W26517  40.478  18.226   0.809
61357W        W26518  25.563  34.585  11.181
61358W        W26519  29.754  29.518  13.979
61359W        W26520  15.610   3.038  10.540
61360W        W26521   1.844  25.924   0.306
61361W        W26522  33.096  37.563  13.959
61362W        W26523  11.667  33.547  10.012
61363W        W26524  38.984  43.664   1.476
61364W        W26525  25.941  35.736  10.248
61365W        W26526   6.611  26.786  11.515
61366W        W26527  42.421  13.641  11.150
61367W        W26528  26.744  35.062  13.360
61368W        W26529  23.973  39.809   2.867
61369W        W26530   6.839  15.163   2.184
61370W        W26531  41.771  13.621   1.313
61371W        W26532   9.339  23.688   1.245
61372W        W26533  18.401   2.437  14.843
61373W        W26534  21.998  14.729   2.257
61374W        W26535  40.536  31.021  10.690
61375W        W26536  23.473  27.652   2.873
61376W        W26537  35.305  33.914   4.084
61377W        W26538  27.783  33.841  12.700
61378W        W26539  29.203  12.615   3.845
61379W        W26540  18.140  36.149  14.198
61380W        W26541   0.455  33.580  11.456
61381W        W26542  42.306   2.621   1.377
61382W        W26543  17.957  14.537  11.937
61383W        W26544   6.807  30.510   3.711
61384W        W26545  18.197  18.013   4.741
61385W        W26546   4.898   0.985  10.963
61386W        W26547  16.544  37.566  11.085
61387W        W26548  30.051   3.936   0.987
61388W        W26549  16.083   5.878   4.100
61389W        W26550  28.475   2.741  12.024
61390W        W26551  20.259  19.102   1.796
61391W        W26552   7.006  24.182   0.486
61392W        W26553  39.970  16.903  13.814
61393W        W26554  40.241  27.530  12.909
61394W        W26555  16.589  41.742   1.937
61395W        W26556  40.502  14.552   3.373
61396W        W26557  30.610  39.023  13.757
61397W        W26558  10.291   9.959  11.903
61398W        W26559  42.439  30.531   4.657
61399W        W26560  29.185   0.095   3.151
61400W        W26561   7.868  43.027   3.797
61401W        W26562  33.018  22.757  14.568
61402W        W26563  25.275  43.823   3.142
61403W        W26564  15.039  22.686   3.766
61404W        W26565  34.336  21.938  14.379
61405W        W26566  42.465  23.222  11.612
61406W        W26567  40.551  30.204  11.577
61407W        W26568  32.188  12.127  13.427
61408W        W26569  25.116  30.451  14.231
61409W        W26570  18.095  18.365   4.047
61410W        W26571  25.207  20.967   1.629
61411W        W26572  13.758  19.075   0.922
61412W        W26573  25.032  27.402   4.882
61413W        W26574   4.390  32.548   0.249
61414W        W26575   5.916  40.585  13.875
61415W        W26576  35.487  26.742  14.010
61416W        W26577   0.173  41.396   1.757
61417W        W26578  13.320   6.347  10.577
61418W        W26579  24.095  34.251   0.255
61419W        W26580  22.122  41.112  13.430
61420W        W26581  35.066  37.635  12.850
61421W        W26582  16.511  20.026  12.918
61422W        W26583   0.195   1.500   4.447
61423W        W26584   5.389   0.337  10.648
61424W        W26585  20.608   6.377   1.537
61425W        W26586  40.112  35.931   0.040
61426W        W26587  33.404  38.478   0.763
61427W        W26588  24.257  30.537  12.620
61428W        W26589  25.424  27.649   2.721
61429W        W26590  34.111  43.003  11.281
61430W        W26591   4.457  33.629   4.361
61431W        W26592  13.198  29.169   2.773
61432W        W26593  16.537  20.324  13.471
61433W        W26594   4.901  43.368   1.841
61434W        W26595  35.544  37.621  13.373
61435W        W26596  15.892  33.020  11.755
61436W        W26597   1.317  34.611  12.510
61437W        W26598  43.092  43.928   3.569
61438W        W26599  33.835  30.733   1.446
61439W        W26600  10.284  34.502   3.117
61440W        W26601   1.889  44.229   3.827
61441W        W26602  30.405   6.372   2.331
61442W        W26603  12.768  40.857   1.283
61443W        W26604  15.633  13.788  13.918
61444W        W26605   0.350  43.886   4.437
61445W        W26606  40.851   7.909   1.453
61446W        W26607   2.938  39.496  12.139
61447W        W26608  34.027  19.909  14.303
61448W        W26609  23.517  12.205   3.406
61449W        W26610   4.025  11.226   1.411
61450W        W26611  37.914   3.257   1.887
61451W        W26612   8.211   3.324  13.060
61452W        W26613  22.153  18.764   4.629
61453W        W26614  26.409   6.431  10.794
61454W        W26615  10.354  12.705  10.586
61455W        W26616  19.550   0.924   1.955
61456W        W26617  30.018  30.178  12.361
61457W        W26618   6.461   8.914  12.145
61458W        W26619  34.059   9.217   3.642
61459W        W26620  38.525  10.672   3.881
61460W        W26621  42.072  34.357  12.528
61461W        W26622  17.356  12.783   0.503
61462W        W26623  17.246  17.972   1.728
61463W        W26624  24.957  32.048  12.357
61464W        W26625  21.103  27.497  13.962
61465W        W26626  41.482   9.612  11.131
61466W        W26627  18.234   2.185  13.964
61467W        W26628  13.115  37.538  11.990
61468W        W26629  28.132  16.296  10.399
61469W        W26630  18.128  31.509   3.161
61470W        W26631   3.367  20.855  14.190
61471W        W26632  14.376   5.679  10.747
61472W        W26633  31.990  33.628  10.738
61473W        W26634  12.644   3.394  13.844
61474W        W26635  33.986  15.426   1.337
61475W        W26636  34.372   9.445   1.359
61476W        W26637   8.048   5.005  10.854
61477W        W26638  44.299  25.739   0.766
61478W        W26639  21.312  10.104  10.769
61479W        W26640  17.117  44.688   0.433
61480W        W26641  22.153   3.755   1.313
61481W        W26642  24.726  16.697  10.889
61482W        W26643  42.996  18.581  13.024
61483W        W26644  40.467  29.039  10.728
61484W        W26645  20.761  20.006  11.834
61485W        W26646   3.212   0.819   0.533
61486W        W26647  24.687  16.980   3.402
61487W        W26648   0.372  40.060  10.378
61488W        W26649  20.085  20.177   3.696
61489W        W26650  11.141  42.005   4.082
61490W        W26651  11.163  10.196  13.834
61491W        W26652  36.947  10.119  12.597
61492W        W26653  37.114  36.509   3.504
61493W        W26654  10.798   3.870   1.234
61494W        W26655  20.629  37.769   1.936
61495W        W26656  36.503   5.269   0.344
61496W        W26657  38.021  34.483   0.236
61497W        W26658  20.246  27.234   4.819
61498W        W26659   9.224  10.608  11.506
61499W        W26660  13.412  22.824  11.183
61500W        W26661  10.425  18.992   0.902
61501W        W26662  25.434  44.211   0.820
61502W        W26663  22.049   0.559   4.016
61503W        W26664  43.754  28.953   1.806
61504W        W26665  29.266  27.875   1.274
61505W        W26666  26.060  37.267  13.060
61506W        W26667  38.941  35.937  11.712
61507W        W26668  43.009   2.186  12.631
61508W        W26669  34.911  13.795   0.480
61509W        W26670   0.015  19.932   3.207
61510W        W26671   5.289  13.212   0.351
61511W        W26672   7.728  32.968   2.682
61512W        W26673  11.778  31.030  13.000
61513W        W26674  33.196  26.713   0.630
61514W        W26675  43.325   2.823  12.026
61515W        W26676  39.559  34.982  13.824
61516W        W26677  23.726   4.423  13.464
61517W        W26678  22.548  30.986   0.278
61518W        W26679  25.572  42.359  14.834
61519W        W26680  29.421  24.787   1.391
61520W        W26681   8.365  43.494  14.436
61521W        W26682   7.556  24.162  12.021
61522W        W26683  14.739  12.102  14.260
61523W        W26684  39.317  44.020  12.051
61524W        W26685   4.391   0.994  11.053
61525W        W26686   9.947  19.018  12.104
61526W        W26687  13.554  17.697   0.330
61527W        W26688   2.648   3.759   0.728
61528W        W26689  19.030  32.745   2.308
61529W        W26690  37.172  19.504  14.104
61530W        W26691  34.252   0.970   3.188
61531W        W26692   5.221  13.716  12.580
61532W        W26693  12.114  33.402   2.727
61533W        W26694  11.704  22.441   4.175
61534W        W26695  20.433  31.759   1.957
61535W        W26696  19.037  21.246   4.965
61536W        W26697   5.369   7.590   0.465
61537W        W26698  13.847  33.001  11.563
61538W        W26699  16.600  15.211  11.034
61539W        W26700  37.011  11.411   4.565
61540W        W26701  22.731  29.904  11.603
61541W        W26702  41.439   2.274  13.118
61542W        W26703  11.315  40.831  14.388
61543W        W26704   7.660   2.414   2.683
61544W        W26705  35.101  21.995  14.796
61545W        W26706  19.303  22.663  14.980
61546W        W26707  37.113  24.892   1.895
61547W        W26708  17.330  19.596   1.956
61548W        W26709  24.108  27.169   4.868
61549W        W26710  39.539  21.227  12.421
61550W        W26711  39.635  21.994   0.770
61551W        W26712  28.921  24.957   1.365
61552W        W26713  27.606   0.594  10.767
61553W        W26714  16.187  28.268   3.740
61554W        W26715  25.760  11.574   3.110
61555W        W26716   6.526  43.432   4.161
61556W        W26717  38.565  21.419  12.118
61557W        W26718   2.399  10.850   1.805
61558W        W26719  37.414  12.641  13.142
61559W        W26720  37.995  24.673  11.855
61560W        W26721  36.936  38.571   4.145
61561W        W26722  43.021   2.772  11.616
61562W        W26723  41.482  22.048   2.968
61563W        W26724  30.673  12.721   4.531
61564W        W26725   1.436  20.545   4.706
61565W        W26726  14.408  23.227   3.273
61566W        W26727   2.504   8.377  12.699
61567W        W26728  18.166   4.312   3.567
61568W        W26729  18.592  34.987   2.098
61569W        W26730  38.577   9.770   0.855
61570W        W26731  35.523   0.543   4.801
61571W        W26732   7.543  38.699  11.256
61572W        W26733  20.151  21.718  12.413
61573W        W26734  14.254  39.222  13.142
61574W        W26735   7.646   7.549   4.057
61575W        W26736  26.011  20.156   2.298
61576W        W26737  36.918  31.396  11.984
61577W        W26738  18.555  11.769   2.198
61578W        W26739  18.554  43.281  13.880
61579W        W26740  12.236  19.202  14.507
61580W        W26741  29.902  40.059   0.409
61581W        W26742   7.408  32.933   4.314
61582W        W26743  44.281   4.939  12.176
61583W        W26744  27.369   1.961   4.045
61584W        W26745   6.789  30.602  10.153
61585W        W26746  25.259  31.121   0.369
61586W        W26747  39.984   3.426  14.013
61587W        W26748  42.348  25.930   0.194
61588W        W26749   3.200  15.644   3.198
61589W        W26750  15.690  23.317  10.655
61590W        W26751   9.159   3.108   0.524
61591W        W26752  34.690  20.991  12.526
61592W        W26753  18.480  35.587   0.759
61593W        W26754  18.669  27.216   4.582
61594W        W26755  25.959  42.797  12.120
61595W        W26756  42.668   5.797  11.464
61596W        W26757  35.612  31.613   2.262
61597W        W26758   9.104   6.395   1.298
61598W        W26759  30.889  37.546   1.795
61599W        W26760   3.624  40.601  10.223
61600W        W26761  19.545   2.676   1.762
61601W        W26762  29.817  12.250   2.308
61602W        W26763  35.124  33.923  11.102
61603W        W26764   4.670  44.007   2.545
61604W        W26765  29.802  34.967   4.469
61605W        W26766  42.469  22.705  11.621
61606W        W26767  25.569  25.744  13.870
61607W        W26768  43.435  17.284   1.232
61608W        W26769   5.999  25.207   1.992
61609W        W26770  12.858  31.696  11.240
61610W        W26771  23.625  36.064   2.375
61611W        W26772  27.957  28.580  13.442
61612W        W26773  41.253  14.126  14.891
61613W        W26774  10.316   7.337   1.884
61614W        W26775   6.709  32.640   2.331
61615W        W26776  16.723   5.189   1.376
61616W        W26777   9.682  41.078   3.779
61617W        W26778  21.719  12.626   2.894
61618W        W26779  19.062  42.205   2.927
61619W        W26780  36.479  12.518   4.520
61620W        W26781  26.919  23.269   1.196
61621W        W26782  25.638  22.927  11.068
61622W        W26783  40.751  25.733   2.158
61623W        W26784  29.476   1.461  12.934
61624W        W26785  14.853  10.723  14.483
61625W        W26786  26.183  14.722  12.315
61626W        W26787  20.355  40.119   3.709
61627W        W26788   6.805  36.777   0.982
61628W        W26789  11.655  31.157  13.909
61629W        W26790  31.807  15.669   1.671
61630W        W26791  28.006  10.231   3.295
61631W        W26792  11.103  24.760  14.972
61632W        W26793  36.319  16.760  12.188
61633W        W26794  40.360   9.251   3.378
61634W        W26795  26.132   2.825   1.704
61635W        W26796  37.072  21.054   1.252
61636W        W26797  40.487  29.925   0.840
61637W        W26798  17.766  12.830  13.286
61638W        W26799  11.601  26.968   0.303
61639W        W26800  34.519  13.210   2.676
61640W        W26801  28.567  32.371  10.748
61641W        W26802   0.049  14.870  11.952
61642W        W26803  41.357  35.752  10.383
61643W        W26804  39.294   2.259  13.565
61644W        W26805  12.631   1.725  11.859
61645W        W26806  10.933  20.247  13.216
61646W        W26807  29.063   4.494  13.366
61647W        W26808  43.163  15.755  10.744
61648W        W26809  31.287  10.634   4.479
61649W        W26810  15.814  37.443   1.626
61650W        W26811  44.178  30.163  11.516
61651W        W26812  32.555  22.375   3.792
61652W        W26813  42.414   0.366  12.570
61653W        W26814  33.956   8.280  14.548
61654W        W26815  15.640  42.063  11.890
61655W        W26816  16.288   3.229   2.718
61656W        W26817   5.749  41.467   3.872
61657W        W26818  13.810   1.435   3.987
61658W        W26819  42.964  24.462  11.510
61659W        W26820  18.241  32.845  10.797
61660W        W26821  16.265   4.133   3.381
61661W        W26822  18.993  27.813   2.323
61662W        W26823  17.489  20.821  14.963
61663W        W26824  29.230   1.319  13.392
61664W        W26825   8.377  29.043  14.275
61665W        W26826  28.243   1.362  10.927
61666W        W26827  12.583   7.903  14.384
61667W        W26828   1.814  20.178  14.212
61668W        W26829  18.158  32.389  12.001
61669W        W26830  11.038  21.603  12.390
61670W        W26831  24.116   5.301  12.502
61671W        W26832  44.858  44.939  10.864
61672W        W26833  32.044  34.561  10.250
61673W        W26834  15.808  41.661   4.621
61674W        W26835   8.932   6.156   0.862
61675W        W26836  31.356   6.546  10.724
61676W        W26837  18.089   6.968   2.764
61677W        W26838  25.872  41.447  12.908
61678W        W26839  16.133  10.837   0.209
61679W        W26840  34.605   6.151  12.990
61680W        W26841  15.876  31.599  12.034
61681W        W26842  15.522  19.039  10.794
61682W        W26843  38.602  11.502   1.516
61683W        W26844  11.164  18.268   2.014
61684W        W26845  25.162  35.049  14.789
61685W        W26846  27.716  17.688  10.588
61686W        W26847  16.029  36.851   0.843
61687W        W26848   8.379  28.540  12.416
61688W        W26849  31.903  14.792   3.914
61689W        W26850  44.408  30.694  12.266
61690W        W26851  18.799   5.908  14.390
61691W        W26852  17.107  37.849  11.504
61692W        W26853   8.285  26.703   3.809
61693W        W26854   8.895  44.267  11.619
61694W        W26855   6.942  37.959  11.114
61695W        W26856   8.358   0.512   3.653
61696W        W26857  42.446  40.789   2.338
61697W        W26858  12.795   3.379  11.699
61698W        W26859  38.404  35.660   0.301
61699W        W26860   8.349  16.636   1.622
61700W        W26861  36.433  10.402   3.206
61701W        W26862  29.598  20.315  12.337
61702W        W26863  11.660  10.002   4.688
61703W        W26864   6.051  42.290  12.054
61704W        W26865  43.763  40.311  13.026
61705W        W26866  29.961  41.013   9.750
61706W        W26867  34.032  20.524   2.818
61707W        W26868  26.285  22.211   1.670
61708W        W26869   3.902  21.913  13.957
61709W        W26870  13.621  42.658  13.973
61710W        W26871  26.163  42.720   1.220
61711W        W26872  14.765  25.706  14.376
61712W        W26873  40.349  12.116  13.124
61713W        W26874   2.464   0.518  12.382
61714W        W26875   0.233  33.620   3.297
61715W        W26876  15.572   9.879  14.983
61716W        W26877  23.226  18.744   2.708
61717W        W26878  23.937  17.999  13.063
61718W        W26879  39.910  14.263   1.176
61719W        W26880  22.838  39.559   1.583
61720W        W26881  20.024  31.116  11.878
61721W        W26882  16.699  36.556  14.458
61722W        W26883  13.633  25.095   2.768
61723W        W26884  36.837  38.905  14.098
61724W        W26885  34.529  41.479   4.543
61725W        W26886  44.509  25.007   3.703
61726W        W26887  31.360  41.383  11.547
61727W        W26888  23.498  11.811  12.264
61728W        W26889   2.071  17.368   2.336
61729W        W26890  44.807  17.493   3.995
61730W        W26891  40.525   5.354  12.211
61731W        W26892  30.327  22.635   4.961
61732W        W26893  37.855  10.266  13.066
61733W        W26894  29.154  17.124   2.392
61734W        W26895   9.825  16.134  13.363
61735W        W26896  31.374   1.189  13.095
61736W        W26897  38.989   9.829   4.890
61737W        W26898  22.300  16.127  10.707
61738W        W26899  19.946  40.544   2.260
61739W        W26900  42.282  15.775  12.737
61740W        W26901  41.823  24.958  14.272
61741W        W26902  40.725  43.924  13.512
61742W        W26903  10.164  18.245  11.448
61743W        W26904  10.428   0.923   2.139
61744W        W26905  19.790  40.482  12.150
61745W        W26906  19.530  43.937  13.522
61746W        W26907  32.575  36.411  11.188
61747W        W26908  43.956  10.390   4.569
61748W        W26909  32.485   4.885  13.397
61749W        W26910   1.526  19.387  13.459
61750W        W26911   9.627  40.522   3.195
61751W        W26912  27.394  30.053   3.792
61752W        W26913  43.966  23.648   2.861
61753W        W26914   2.921   8.892  13.923
61754W        W26915  16.939  20.264  14.761
61755W        W26916  43.419  39.357  14.754
61756W        W26917   0.920   2.275  10.958
61757W        W26918  36.469   0.747  11.618
61758W        W26919  24.035  11.091   2.894
61759W        W26920  21.885  13.349  10.676
61760W        W26921  17.311   3.655   1.295
61761W        W26922   6.317  42.790  13.399
61762W        W26923  31.172  35.060  14.375
61763W        W26924  27.996  20.002  10.697
61764W        W26925  17.441  12.053   1.013
61765W        W26926  16.732  43.888   0.656
61766W        W26927  33.995  27.073  11.676
61767W        W26928  23.035   6.955   2.374
61768W        W26929   7.781  14.898  11.827
61769W        W26930  23.198  26.735  11.619
61770W        W26931  16.571  34.530   1.743
61771W        W26932  19.275  21.215  10.722
61772W        W26933   1.448  29.565  12.850
61773W        W26934  42.603   0.815  14.912
61774W        W26935  42.823  21.421  10.547
61775W        W26936  14.247  26.048   1.418
61776W        W26937  16.299   6.933  12.849
61777W        W26938   6.466  11.767   1.618
61778W        W26939  14.571  13.507  14.689
61779W        W26940   2.845  41.064   4.995
61780W        W26941  41.301  20.617  10.790
61781W        W26942  29.369  11.884  10.344
61782W        W26943  17.948  37.753  12.706
61783W        W26944  24.904   7.196   3.289
61784W        W26945  16.180  34.446   1.386
61785W        W26946  31.315  11.692  14.493
61786W        W26947   1.901  31.453  14.330
61787W        W26948  29.940  10.726  12.537
61788W        W26949  43.281  16.864   3.228
61789W        W26950  20.299   8.012   3.199
61790W        W26951  32.069  24.727  11.998
61791W        W26952  17.948   1.230  12.365
61792W        W26953  35.971  36.391  14.575
61793W        W26954  41.895   6.312  12.734
61794W        W26955  21.025   0.429  13.947
61795W        W26956  19.655  24.137   4.999
61796W        W26957  29.186  20.150   0.817
61797W        W26958  21.752   7.270  10.539
61798W        W26959  14.301  22.560   2.608
61799W        W26960  43.095  43.299  13.620
61800W        W26961  25.036  36.792  11.876
61801W        W26962  14.672   9.105   2.557
61802W        W26963  10.150  16.513  13.861
61803W        W26964  30.171  19.088  12.836
61804W        W26965  12.039  38.485   3.335
61805W        W26966  23.108   4.707  12.424
61806W        W26967  19.358  15.273  12.726
61807W        W26968  34.600   4.500  12.577
61808W        W26969  39.675  21.444   3.621
61809W        W26970  41.432  41.636   4.147
61810W        W26971   1.439  18.999  12.997
61811W        W26972  41.778   8.914  12.951
61812W        W26973  29.711   1.845  11.536
61813W        W26974  27.334   2.496   0.350
61814W        W26975  27.956  10.655   9.876
61815W        W26976  24.466  13.304   1.200
61816W        W26977   0.052   5.489   0.117
61817W        W26978  31.068  19.179   3.270
61818W        W26979  43.236  42.000  13.495
61819W        W26980   1.375   6.584   4.240
61820W        W26981  41.694  14.462   0.883
61821W        W26982  28.563  43.925   0.830
61822W        W26983  12.367  36.128   4.302
61823W        W26984  29.404  13.297   0.298
61824W        W26985   5.375  31.820  12.439
61825W        W26986  30.532   3.733   3.138
61826W        W26987   1.201  13.723  13.912
61827W        W26988  29.977  30.923  10.788
61828W        W26989  26.731  17.242  13.831
61829W        W26990  17.556  20.038   0.384
61830W        W26991   4.409   3.737  10.635
61831W        W26992  44.532  16.155  12.923
61832W        W26993   3.470  35.049   2.677
61833W        W26994  32.090   2.269   3.068
61834W        W26995  20.872  41.465   3.897
61835W        W26996  11.145  30.971   0.479
61836W        W26997  18.901  38.695  12.188
61837W        W26998  27.002  28.520  12.029
61838W        W26999   9.652   0.395   0.337
61839W        W27000  10.531  40.090  10.280
61840W        W27001  19.260  33.347  12.015
61841W        W27002  32.220  29.382   2.854
61842W        W27003  36.122   5.744   4.138
61843W        W27004  41.931  31.721  14.848
61844W        W27005  21.063  25.461  12.985
61845W        W27006  37.424  31.576  14.338
61846W        W27007  28.508  34.358   3.714
61847W        W27008  24.063  32.579  13.386
61848W        W27009  39.750  38.515  11.118
61849W        W27010   3.271  28.974   3.741
61850W        W27011  38.803  16.902   0.459
61851W        W27012  42.261   7.172  14.001
61852W        W27013  12.991  18.354   4.771
61853W        W27014  22.538  39.939   1.397
61854W        W27015  30.250  30.224   2.263
61855W        W27016  26.880  19.684  12.315
61856W        W27017  23.331  18.477  14.766
61857W        W27018   8.405  24.943   2.666
61858W        W27019   3.456   0.683  12.978
61859W        W27020  20.429  38.079   2.343
61860W        W27021  34.696  19.812  13.356
61861W        W27022  20.826   8.183  10.483
61862W        W27023  43.391   0.837   9.307
61863W        W27024  41.753  34.865   0.458
61864W        W27025  43.829  24.652  12.098
61865W        W27026  43.810   3.449  14.568
61866W        W27027  31.588   7.400   0.993
61867W        W27028   1.940  27.688   4.640
61868W        W27029  22.597   3.758   1.930
61869W        W27030   4.569  23.099  10.722
61870W        W27031  39.901  22.280   0.361
61871W        W27032  24.740  23.577  12.021
61872W        W27033  41.717  42.953   0.883
61873W        W27034  23.042   1.979   3.575
61874W        W27035   3.070  19.993  11.601
61875W        W27036  31.758  19.844   3.154
61876W        W27037   3.171  12.320   4.163
61877W        W27038  37.653   5.111   1.022
61878W        W27039  16.311  16.708  14.468
61879W        W27040  42.872  19.001   1.430
61880W        W27041  31.408   2.204  10.778
61881W        W27042   2.220   5.435  13.369
61882W        W27043   4.695  30.023  12.002
61883W        W27044   5.847  44.730   0.427
61884W        W27045  40.554  40.813   1.304
61885W        W27046  24.310   9.414  11.232
61886W        W27047  36.541  42.730   2.769
61887W        W27048  44.239  18.118   5.053
61888W        W27049   3.895  16.264  12.119
61889W        W27050  41.307  20.682  14.824
61890W        W27051  12.099  11.424  12.951
61891W        W27052  40.776  44.921  12.075
61892W        W27053   9.152  20.480   1.838
61893W        W27054  37.661  40.690  13.851
61894W        W27055  18.652   4.718   2.777
61895W        W27056  43.413  23.046  14.019
61896W        W27057   6.279  14.215   3.694
61897W        W27058  25.601  24.090  14.529
61898W        W27059  23.780  24.850  11.512
61899W        W27060  16.329  14.690  13.095
61900W        W27061   0.298   2.222   2.996
61901W        W27062  28.358  11.759  12.365
61902W        W27063  34.454  15.430   3.649
61903W        W27064  16.013  37.403  12.092
61904W        W27065  40.417  43.738  12.833
61905W        W27066   2.851  29.035   4.606
61906W        W27067   9.678  33.752  12.806
61907W        W27068  31.833  11.869  13.124
61908W        W27069  26.133  18.481  13.852
61909W        W27070  20.598  14.229   4.670
61910W        W27071  36.486  13.553   4.469
61911W        W27072  42.880  32.655  12.177
61912W        W27073  15.132  29.627   4.709
61913W        W27074  10.442  41.069  11.594
61914W        W27075  31.742  38.145  12.016
61915W        W27076  34.966  27.186  10.396
61916W        W27077   1.555  13.108  11.613
61917W        W27078   1.864  21.270   3.137
61918W        W27079  23.395  20.186  11.043
61919W        W27080  10.122  33.165  14.981
61920W        W27081  29.192  30.059   2.300
61921W        W27082  15.226  26.131   1.771
61922W        W27083  24.142  38.285   1.347
61923W        W27084  40.765  13.815   1.466
61924W        W27085   9.158  32.514  13.879
61925W        W27086   7.671  24.017   4.045
61926W        W27087  18.697  30.332  10.284
61927W        W27088  24.470   9.407   1.255
61928W        W27089   8.771  37.927  11.633
61929W        W27090  44.918  15.765  13.257
61930W        W27091   6.875  40.882  12.895
61931W        W27092  28.591  39.346  10.288
61932W        W27093  40.959  36.603   4.198
61933W        W27094   5.911   3.630  13.833
61934W        W27095  17.825  34.002   1.702
61935W        W27096  28.786  44.508   3.796
61936W        W27097  36.846   4.813  13.870
61937W        W27098  33.623  30.405   0.128
61938W        W27099  21.242  42.064   2.666
61939W        W27100  24.911   9.712   1.232
61940W        W27101  16.554  32.056  10.965
61941W        W27102  16.564   3.161  14.979
61942W        W27103  10.730  28.591   3.179
61943W        W27104  28.446   5.490  12.397
61944W        W27105  21.190  44.763   3.621
61945W        W27106  37.948   2.266   0.272
61946W        W27107   4.802  24.774   1.826
61947W        W27108  35.087  22.986  14.961
61948W        W27109   2.909  25.528   4.072
61949W        W27110  25.486  20.069   2.277
61950W        W27111  13.770   9.204   2.274
61951W        W27112  29.479   6.650  14.379
61952W        W27113  27.751  28.115   2.829
61953W        W27114   4.358  28.500  11.685
61954W        W27115  36.824  26.762   0.019
61955W        W27116  14.839  41.065  12.992
61956W        W27117   6.464  13.782   4.561
61957W        W27118  13.612   7.137   3.478
61958W        W27119   2.099  11.349  11.880
61959W        W27120  10.353  36.522  14.472
61960W        W27121   6.736  22.019   0.856
61961W        W27122   8.352   0.863   1.853
61962W        W27123  30.441   6.798  14.084
61963W        W27124  33.566  30.202   4.126
61964W        W27125  41.761   2.374  12.167
61965W        W27126  33.708  33.472  12.731
61966W        W27127  14.817  37.409   0.887
61967W        W27128   4.235  35.930  12.479
61968W        W27129  27.910  35.620  13.834
61969W        W27130  25.974   4.177   2.296
61970W        W27131  16.866  37.857   0.523
61971W        W27132  16.305  24.171  12.457
61972W        W27133  12.289   0.805   0.748
61973W        W27134  15.628   5.922   0.896
61974W        W27135  11.818  23.127  13.565
61975W        W27136  38.905  17.574   1.868
61976W        W27137   1.371  12.305  14.979
61977W        W27138  17.286  24.077  13.830
61978W        W27139  12.986   8.317   1.938
61979W        W27140  20.129  34.046  14.014
61980W        W27141  25.671  25.921  10.677
61981W        W27142   6.927  44.732  12.526
61982W        W27143  33.522  23.144   9.928
61983W        W27144  38.426  38.400   0.813
61984W        W27145   7.946  17.154   3.241
61985W        W27146  31.751   5.241   0.302
61986W        W27147  13.975   7.248  14.374
61987W        W27148  13.170  18.078   3.782
61988W        W27149  13.963   7.648  12.534
61989W        W27150  32.199  41.441  13.888
61990W        W27151  31.406  37.609   1.920
61991W        W27152  16.296  32.572   2.048
61992W        W27153   6.226   0.077   0.488
61993W        W27154  27.916   0.489  12.467
61994W        W27155   3.774   1.424   0.854
61995W        W27156  10.223   1.684   0.402
61996W        W27157   2.903   5.190   1.796
61997W        W27158   0.233  11.939   3.961
61998W        W27159   0.411   6.449   3.642
61999W        W27160  22.169  23.887   0.643
62000W        W27161  25.854  36.390   5.002
62001W        W27162   3.476  32.653  13.114
62002W        W27163  26.937  44.568  11.141
62003W        W27164   4.737  24.733  12.771
62004W        W27165  32.112  15.935   4.995
62005W        W27166  19.406  32.694  10.637
62006W        W27167   4.896   8.187  11.465
62007W        W27168  32.769  22.497  10.728
62008W        W27169  16.296  34.074   1.751
62009W        W27170  29.531  14.904   2.724
62010W        W27171  18.893   3.789  12.364
62011W        W27172   8.872  19.720  14.313
62012W        W27173  25.014  36.487  13.522
62013W        W27174  33.052  33.048  13.461
62014W        W27175  12.078  32.333   1.502
62015W        W27176  17.822   4.738  10.452
62016W        W27177  42.524  41.731  13.020
62017W        W27178  44.606  32.661   1.021
62018W        W27179  28.870  27.978  14.968
62019W        W27180  22.223   9.926  11.692
62020W        W27181  33.083  32.907   0.416
62021W        W27182  13.182  12.042  13.186
62022W        W27183   3.007  27.603  12.064
62023W        W27184  16.799  11.463  12.514
62024W        W27185  18.626  26.157   3.784
62025W        W27186   2.948  22.452  12.082
62026W        W27187  18.666  23.562  11.628
62027W        W27188  29.012  23.648   0.866
62028W        W27189  19.737  34.716  11.479
62029W        W27190  28.549  36.787   1.532
62030W        W27191  25.293  41.590   2.738
62031W        W27192   8.075  14.413   5.024
62032W        W27193  14.725  34.017   0.999
62033W        W27194  24.205   5.433  13.439
62034W        W27195  31.172  28.138   2.214
62035W        W27196  32.004  26.120   0.377
62036W        W27197  33.672  41.437   0.018
62037W        W27198  22.510  22.112  13.476
62038W        W27199  12.542  37.142  14.775
62039W        W27200  33.910   4.445  10.551
62040W        W27201   9.193  13.310  14.473
62041W        W27202  24.805  12.344  14.719
62042W        W27203  39.521  40.612  11.495
62043W        W27204  25.040  30.112  12.390
62044W        W27205  21.064  11.319  11.589
62045W        W27206  14.627  39.253   2.452
62046W        W27207   2.957  12.115   1.953
62047W        W27208  14.319  19.189   3.807
62048W        W27209  19.780  13.891  11.053
62049W        W27210  20.734  19.569  12.104
62050W        W27211  30.346   4.597   2.000
62051W        W27212   0.840  33.396   0.211
62052W        W27213  37.120  18.179   0.581
62053W        W27214  20.072  33.925  12.923
62054W        W27215  32.583  23.248   0.301
62055W        W27216  40.061   7.247  13.611
62056W        W27217  15.828  26.151   0.839
62057W        W27218  40.951  20.494  12.063
62058W        W27219  25.895   8.146   3.185
62059W        W27220  21.150  37.278  13.690
62060W        W27221  15.810  36.796  11.049
62061W        W27222  32.598  25.773   1.257
62062W        W27223  11.799  33.826  13.501
62063W        W27224  29.172  12.201   0.413
62064W        W27225  12.156  28.780   0.850
62065W        W27226   8.927  16.407   4.340
62066W        W27227  32.429  42.324   0.849
62067W        W27228  24.271   8.749   2.844
62068W        W27229  22.029  11.634   0.213
62069W        W27230   7.714  42.577   0.966
62070W        W27231   6.398  19.846  13.383
62071W        W27232   4.343   2.952  13.024
62072W        W27233  19.320  30.594  11.640
62073W        W27234  17.584  38.808  10.785
62074W        W27235  28.585  17.739   1.993
62075W        W27236   2.329   5.171   3.325
62076W        W27237  31.435   2.930   2.906
62077W        W27238  43.978   5.326  13.874
62078W        W27239  36.958  30.899  12.079
62079W        W27240  12.725  10.841   0.416
62080W        W27241  19.206  23.584   5.110
62081W        W27242  20.991  12.526  14.003
62082W        W27243   7.733   9.203  12.684
62083W        W27244  12.326   1.204  14.774
62084W        W27245  35.004  21.357   1.521
62085W        W27246  14.176  24.249   1.521
62086W        W27247  34.104  11.381   0.816
62087W        W27248  23.032  18.830  13.399
62088W        W27249   9.118  12.920   3.201
62089W        W27250  11.531   5.414   4.399
62090W        W27251  37.998  28.670  13.471
62091W        W27252  11.230   1.994  11.596
62092W        W27253   9.905  37.966  12.049
62093W        W27254  25.364  14.432  13.439
62094W        W27255  11.646  39.454   1.903
62095W        W27256  42.290  41.158   3.885
62096W        W27257  43.055  36.167   2.957
62097W        W27258  13.055  30.414   1.831
62098W        W27259  31.170  22.743  13.117
62099W        W27260  16.583   2.359  12.473
62100W        W27261   0.277  24.588  10.728
62101W        W27262  14.068  30.488  12.994
62102W        W27263  23.583   5.966  14.859
62103W        W27264   0.980  25.519   4.127
62104W        W27265  18.311  44.848   2.347
62105W        W27266  31.257  11.385   2.189
62106W        W27267  41.606  16.673  14.668
62107W        W27268  20.780   8.236   1.021
62108W        W27269  12.850   5.780   4.841
62109W        W27270  16.921  21.757   4.759
62110W        W27271   9.811  36.588   4.179
62111W        W27272  28.712  11.638  14.373
62112W        W27273  22.654   1.466  14.924
62113W        W27274  11.329  12.537  14.765
62114W        W27275  18.010  39.398   2.224
62115W        W27276  28.465  40.841  12.945
62116W        W27277  26.455  17.604   4.160
62117W        W27278  16.859   0.074  13.230
62118W        W27279  21.430  13.801  14.023
62119W        W27280  27.633   6.875   2.142
62120W        W27281   9.299  20.747   3.369
62121W        W27282  43.255  15.824   2.168
62122W        W27283  36.785   9.470  14.950
62123W        W27284  39.358  26.591  13.865
62124W        W27285   8.965  28.868  13.048
62125W        W27286  28.810  12.065  12.411
62126W        W27287  44.410  31.412  12.968
62127W        W27288  41.799   5.585  14.291
62128W        W27289  36.938  39.202   2.268
62129W        W27290   9.519  24.167   2.812
62130W        W27291   7.742  40.209   1.269
62131W        W27292  17.398  19.077   3.650
62132W        W27293  22.802  22.616  12.101
62133W        W27294  32.331  30.766   4.283
62134W        W27295  11.130  34.541   4.647
62135W        W27296   5.253  35.468   1.136
62136W        W27297  40.525  43.525  14.711
62137W        W27298  35.852  18.983  13.259
62138W        W27299  23.971  27.601   3.645
62139W        W27300  23.597  10.332   3.735
62140W        W27301  14.270  17.101   4.520
62141W        W27302  12.314  35.467  12.957
62142W        W27303   0.961  22.226  11.460
62143W        W27304  43.265  10.310   4.043
62144W        W27305   7.688  38.963  10.844
62145W        W27306  32.189   8.602   3.376
62146W        W27307   6.209  36.376  10.484
62147W        W27308   0.820   8.919  13.557
62148W        W27309  20.583  41.756  11.201
62149W        W27310  33.109   4.983  12.034
62150W        W27311  32.575  13.991  11.498
62151W        W27312  30.846   8.622  10.793
62152W        W27313  30.018  19.683  14.035
62153W        W27314  26.783  43.423   4.619
62154W        W27315  24.284  27.737  10.698
62155W        W27316  25.649  41.444   1.412
62156W        W27317   2.974  29.435   3.715
62157W        W27318  38.293  31.345  14.720
62158W        W27319  12.734  40.935   2.191
62159W        W27320  16.547  29.353   3.669
62160W        W27321  35.810  16.855   2.857
62161W        W27322  40.006  13.804   0.993
62162W        W27323  21.295  40.100   1.701
62163W        W27324   7.173  35.779   1.331
62164W        W27325   2.046  34.648  12.343
62165W        W27326  34.954   8.640  11.556
62166W        W27327  22.527  25.088  10.184
62167W        W27328  11.489  12.207   1.380
62168W        W27329  27.591  36.056   4.775
62169W        W27330   2.569  40.701  12.842
62170W        W27331  17.932   0.303   0.986
62171W        W27332   0.101  42.207  11.593
62172W        W27333   7.768  22.358   5.099
62173W        W27334  42.343  40.002  11.061
62174W        W27335  35.709  30.519   0.891
62175W        W27336  17.055  29.837  14.499
62176W        W27337  22.426  40.942   3.692
62177W        W27338  38.862  43.774  13.904
62178W        W27339  20.064  18.866  10.684
62179W        W27340   1.960   3.898  12.424
62180W        W27341  37.874  33.401   2.100
62181W        W27342  43.448  21.706  14.250
62182W        W27343  26.188  16.298  13.592
62183W        W27344  42.963  21.522  12.869
62184W        W27345  12.714  31.457   1.916
62185W        W27346  20.040  20.729  12.041
62186W        W27347  38.957  21.253  12.439
62187W        W27348   0.934  18.533  10.752
62188W        W27349   2.700   7.471  12.164
62189W        W27350  30.716  43.796   0.415
62190W        W27351  40.342   7.089  10.692
62191W        W27352  41.056  44.827  13.862
62192W        W27353  19.110  43.715   3.165
62193W        W27354  20.027  34.146   3.760
62194W        W27355  32.816   3.385   2.887
62195W        W27356  16.605  10.695   0.401
62196W        W27357  39.494  40.924  13.678
62197W        W27358  23.267  35.969  12.191
62198W        W27359   4.313  32.201  13.458
62199W        W27360  39.438  41.583   2.305
62200W        W27361  13.802  29.990   2.848
62201W        W27362   9.641   6.129   3.229
62202W        W27363  42.833   6.214   1.039
62203W        W27364   0.402   0.737  11.822
62204W        W27365  12.329  14.454   0.915
62205W        W27366  21.838  24.040  14.329
62206W        W27367  41.291  22.484   2.163
62207W        W27368   7.168  24.460  14.314
62208W        W27369   2.311  36.814   4.284
62209W        W27370  21.108  19.010  13.773
62210W        W27371  44.863   5.109  10.867
62211W        W27372   5.118  15.661   2.087
62212W        W27373  41.259   3.428   1.848
62213W        W27374  31.700  29.344  11.950
62214W        W27375  25.791   5.405   2.247
62215W        W27376   6.951  33.122   2.268
62216W        W27377  39.320   4.950  11.154
62217W        W27378  26.519  27.550   4.923
62218W        W27379   8.921  35.477  12.073
62219W        W27380  24.598  22.662  12.035
62220W        W27381  14.152   7.657   1.828
62221W        W27382  34.418  16.783   3.405
62222W        W27383  31.896   2.813  12.423
62223W        W27384  36.572  18.302   3.312
62224W        W27385  39.685  16.672  14.450
62225W        W27386  10.377   2.335   2.564
62226W        W27387   0.358  13.217  13.891
62227W        W27388  12.088  21.583   3.991
62228W        W27389  24.760  14.571   2.869
62229W        W27390  18.638  14.317   4.944
62230W        W27391  40.518  19.953   2.185
62231W        W27392   6.432  22.467   3.336
62232W        W27393   5.328  26.885  11.841
62233W        W27394  19.370  39.010   1.854
62234W        W27395  19.816   4.741   1.713
62235W        W27396   1.879  17.067  14.913
62236W        W27397  28.485   0.486  10.700
62237W        W27398  33.591  38.907  11.226
62238W        W27399   9.604  17.623  10.633
62239W        W27400  30.522  25.124  14.422
62240W        W27401  10.629  16.562   2.729
62241W        W27402   9.595   7.913   1.760
62242W        W27403   2.015  20.578  13.578
62243W        W27404  27.039  22.828  14.415
62244W        W27405  23.529   1.823   0.427
62245W        W27406  19.482  13.462  13.984
62246W        W27407  22.610   9.628   1.280
62247W        W27408   9.131  41.995   1.295
62248W        W27409   0.396  26.478  14.332
62249W        W27410  24.451  27.163  13.123
62250W        W27411  25.103  41.961  13.988
62251W        W27412   9.150  42.670  13.331
62252W        W27413  13.552  24.865  12.131
62253W        W27414  19.204  39.358  13.497
62254W        W27415  26.595   7.406   3.369
62255W        W27416  39.568  16.670  10.533
62256W        W27417  24.794  31.526   1.808
62257W        W27418   3.227   0.025  11.163
62258W        W27419  20.683   7.286  14.248
62259W        W27420   2.365  14.149  14.330
62260W        W27421  20.783  28.403  12.576
62261W        W27422  34.559  16.774  14.561
62262W        W27423  25.801  16.638  13.683
62263W        W27424  28.628  30.415   3.829
62264W        W27425   7.833  11.148  14.952
62265W        W27426  22.484  13.615  11.807
62266W        W27427  37.091   1.333   2.949
62267W        W27428  22.608  38.984   5.017
62268W        W27429   1.817  15.194  14.537
62269W        W27430  20.040  14.379  12.968
62270W        W27431   1.528  44.416  12.848
62271W        W27432  34.587   4.748  10.477
62272W        W27433  23.615  35.618   2.681
62273W        W27434  31.364  41.411   2.230
62274W        W27435  17.313  25.002   1.876
62275W        W27436  16.643   9.211   4.777
62276W        W27437  34.373   8.168  12.221
62277W        W27438  43.202  35.081   1.724
62278W        W27439  15.280  38.344  11.726
62279W        W27440  29.375   6.755  13.083
62280W        W27441   9.619  39.639   3.282
62281W        W27442  22.184  21.677   3.345
62282W        W27443   8.211  25.162  13.901
62283W        W27444  11.251  41.072   0.271
62284W        W27445  34.908  11.428   0.784
62285W        W27446  12.846  18.693   0.567
62286W        W27447  44.979  14.872  11.105
62287W        W27448  25.233   7.406   2.446
62288W        W27449  32.340  30.696  12.034
62289W        W27450  41.948   2.138   3.291
62290W        W27451  29.924   2.808  11.029
62291W        W27452  27.767  30.937   1.187
62292W        W27453  39.995   5.268  14.426
62293W        W27454  31.887  27.938   4.077
62294W        W27455  10.027  30.642  14.935
62295W        W27456  36.325  14.702   1.083
62296W        W27457  14.898  13.543   3.063
62297W        W27458  25.014   2.363   4.448
62298W        W27459   5.204  18.743   3.654
62299W        W27460  15.094   6.340  13.525
62300W        W27461  31.213  23.447  14.508
62301W        W27462  26.157  20.455  11.485
62302W        W27463   9.686  42.622  11.987
62303W        W27464   4.813  15.429  13.876
62304W        W27465   5.416  42.580   1.109
62305W        W27466  28.068  16.595  13.099
62306W        W27467   5.215  39.335  13.953
62307W        W27468  18.710  26.393   4.827
62308W        W27469  20.796  28.192  13.081
62309W        W27470  31.847  20.799   1.080
62310W        W27471   5.182  29.250  13.955
62311W        W27472   7.977   5.176  13.007
62312W        W27473  35.037   0.753  10.723
62313W        W27474  41.473   4.199   1.414
62314W        W27475  22.010  31.817   0.346
62315W        W27476  10.577  37.833   2.377
62316W        W27477   6.389  31.976  14.205
62317W        W27478  21.722   8.110   3.560
62318W        W27479  32.928  23.165  14.258
62319W        W27480   9.683  16.708   1.466
62320W        W27481  20.715  33.702   4.164
62321W        W27482   6.973  40.404   0.558
62322W        W27483  21.330  20.893  12.710
62323W        W27484  35.635  24.133   4.173
62324W        W27485   2.433  20.571  10.689
62325W        W27486  15.115  32.430   0.728
62326W        W27487  16.431  19.651   0.487
62327W        W27488  32.928  27.978   1.333
62328W        W27489   6.520  13.151  12.465
62329W        W27490  27.206  39.281   0.168
62330W        W27491  30.369  22.129   5.068
62331W        W27492   2.632  33.999  12.533
62332W        W27493  34.821  33.573  11.639
62333W        W27494   5.176   4.596   0.338
62334W        W27495  41.835  14.070   4.754
62335W        W27496  21.239  26.161  14.013
62336W        W27497  27.699   6.979   3.318
62337W        W27498   7.993  41.755  14.356
62338W        W27499  26.448  35.494  11.585
62339W        W27500  27.606  13.758   2.775
62340W        W27501  29.941  27.017  11.122
62341W        W27502  44.322  32.493  12.085
62342W        W27503   6.129   8.146   3.630
62343W        W27504  39.770  29.618   2.342
62344W        W27505   3.451  38.868   1.734
62345W        W27506  25.003  41.977   1.891
62346W        W27507  15.358  27.074  10.537
62347W        W27508  39.661   2.030   3.667
62348W        W27509  21.276   1.311   2.990
62349W        W27510  26.033   0.958   4.657
62350W        W27511  44.532  44.248  11.509
62351W        W27512  14.616  38.809  13.467
62352W        W27513   4.253  37.842   2.427
62353W        W27514  34.203  17.793   0.320
62354W        W27515  40.749  10.858  11.574
62355W        W27516  31.148  30.259   4.685
62356W        W27517  20.142  41.890  13.021
62357W        W27518   7.913  16.727  11.592
62358W        W27519  14.132  24.570   3.411
62359W        W27520   6.470  24.782   1.733
62360W        W27521   7.088  35.840  13.731
62361W        W27522  36.843  16.621   3.621
62362W        W27523  25.464   3.254   4.749
62363W        W27524  43.347   8.741   2.653
62364W        W27525  16.851  32.088   0.889
62365W        W27526  18.359  34.071   1.716
62366W        W27527  25.789  24.686  12.018
62367W        W27528  30.315   2.256  14.387
62368W        W27529   0.766  42.016  14.316
62369W        W27530  44.632  15.281  10.744
62370W        W27531   6.659   0.792  11.604
62371W        W27532  25.575  25.014   2.875
62372W        W27533  32.516  34.447   3.928
62373W        W27534  13.600  35.988  11.096
62374W        W27535  37.902  34.505  11.195
62375W        W27536  31.532  30.066  14.159
62376W        W27537  14.158  42.685  13.891
62377W        W27538  28.478  21.328  11.605
62378W        W27539  22.612   4.152  12.755
62379W        W27540  41.380  36.389   0.014
62380W        W27541   9.403  32.423  14.328
62381W        W27542  43.834  28.556   0.746
62382W        W27543  10.805  12.677  11.771
62383W        W27544  40.427  40.481  10.975
62384W        W27545  44.318  24.754  10.406
62385W        W27546  17.065  10.157  12.824
62386W        W27547  16.408  11.601  12.034
62387W        W27548  25.066  38.814  13.565
62388W        W27549  35.006   3.391  11.251
62389W        W27550   8.433  27.897  11.146
62390W        W27551  42.332  21.279   4.512
62391W        W27552  12.131  28.979   2.349
62392W        W27553  38.652  41.506   4.456
62393W        W27554   8.083   3.398  12.555
62394W        W27555   8.247   8.834  13.966
62395W        W27556   6.867  32.620  10.616
62396W        W27557  40.022   9.904   1.848
62397W        W27558   8.932  20.667  11.011
62398W        W27559  28.039  22.419  13.522
62399W        W27560  25.588   6.083  12.161
62400W        W27561   1.244  22.611  11.277
62401W        W27562  15.409   0.331   0.681
62402W        W27563  17.126  38.830   1.338
62403W        W27564   1.804   2.752   3.109
62404W        W27565   0.399  32.054   0.454
62405W        W27566  17.778  37.604  13.821
62406W        W27567  32.042  41.390  10.935
62407W        W27568  40.834  18.096  14.409
62408W        W27569  36.253  26.379   4.194
62409W        W27570  25.464  30.366  12.540
62410W        W27571  24.657   8.068   4.126
62411W        W27572  23.922  19.189   2.517
62412W        W27573  33.310  27.278  12.021
62413W        W27574  22.723  21.815  13.852
62414W        W27575  33.066  24.311  11.149
62415W        W27576  20.174  36.967  10.640
62416W        W27577   0.294  25.989   1.034
62417W        W27578  21.090  29.533   1.894
62418W        W27579  37.259  44.439  11.545
62419W        W27580  18.918  13.110   4.636
62420W        W27581  31.389  14.357  11.481
62421W        W27582  26.354  36.928  11.629
62422W        W27583  10.734  30.955  10.773
62423W        W27584  34.256  35.974   5.126
62424W        W27585  21.455  29.110   4.019
62425W        W27586  42.104   7.721  11.529
62426W        W27587  36.277  31.436  10.645
62427W        W27588  38.950  21.313  14.526
62428W        W27589  39.095   1.324   2.857
62429W        W27590  11.060  28.961   0.171
62430W        W27591  43.060  34.774  14.875
62431W        W27592  13.632  43.455  14.317
62432W        W27593  27.141   4.793   1.394
62433W        W27594  23.597  35.959  10.882
62434W        W27595  25.341  21.219  14.041
62435W        W27596  39.362   2.937  10.861
62436W        W27597  40.517  38.575  14.452
62437W        W27598   6.766  28.219  12.479
62438W        W27599  26.394  43.235  10.285
62439W        W27600   7.231  11.338  14.420
62440W        W27601   5.741   7.299   0.127
62441W        W27602  36.838  10.401   4.536
62442W        W27603  29.544  25.222   2.275
62443W        W27604  24.320  37.561   4.939
62444W        W27605  25.254  42.991  10.253
62445W        W27606  30.270  31.679   2.793
62446W        W27607  33.068   5.490  11.989
62447W        W27608  30.843  21.688   3.993
62448W        W27609  17.628  10.640   4.260
62449W        W27610   9.963  12.052  11.011
62450W        W27611  17.747  20.439   2.411
62451W        W27612  36.246  13.678   1.440
62452W        W27613  44.879   2.435  13.959
62453W        W27614  15.535  21.061   3.155
62454W        W27615  31.393  20.988  12.168
62455W        W27616  12.133  43.053   2.799
62456W        W27617  14.043  43.215   5.090
62457W        W27618   4.463  22.296   3.228
62458W        W27619  11.582  11.499   2.395
62459W        W27620  31.204  35.087   1.860
62460W        W27621  33.580   9.159  12.509
62461W        W27622  37.104   0.289  14.449
62462W        W27623  19.669  14.731   4.378
62463W        W27624   6.477   9.723  12.908
62464W        W27625  26.942  40.859   2.378
62465W        W27626   9.760  40.452  13.855
62466W        W27627   2.470  36.833   2.453
62467W        W27628  24.342  32.728  11.021
62468W        W27629  32.694   2.792   1.098
62469W        W27630  30.180  33.498   1.456
62470W        W27631  43.328  22.533  12.072
62471W        W27632  18.065   2.942  10.420
62472W        W27633  31.179  20.218   4.151
62473W        W27634   1.728  36.917  14.390
62474W        W27635  35.857  44.083   2.760
62475W        W27636  21.914  42.069  14.465
62476W        W27637  28.488  44.775  12.426
62477W        W27638   4.686  23.605  13.378
62478W        W27639  11.292  41.436  10.582
62479W        W27640  38.659   1.283   1.438
62480W        W27641   6.215   9.317  11.955
62481W        W27642  30.548   9.092  12.494
62482W        W27643  36.967  40.882   3.726
62483W        W27644  34.057  15.807   4.136
62484W        W27645  14.337  24.066   0.411
62485W        W27646  44.977  15.755  12.447
62486W        W27647  24.389   5.374  12.014
62487W        W27648   9.631  35.251   3.420
62488W        W27649  17.146  19.144  12.122
62489W        W27650  25.193  29.574   0.041
62490W        W27651  38.499  23.544  10.549
62491W        W27652  20.467  42.966   3.294
62492W        W27653  31.544  43.555  10.752
62493W        W27654  16.973  20.105  13.680
62494W        W27655  12.364  29.614  13.372
62495W        W27656   2.970  27.678  12.887
62496W        W27657  15.524  37.919  11.556
62497W        W27658  27.500  15.899   0.359
62498W        W27659  34.121  41.500   1.697
62499W        W27660  38.844  11.997  14.405
62500W        W27661  23.095  41.035  14.672
62501W        W27662   2.770   8.163   0.898
62502W        W27663  26.150  22.006  12.599
62503W        W27664  15.191  16.008   2.692
62504W        W27665  24.546  30.124  10.710
62505W        W27666  42.484   7.704   0.714
62506W        W27667  39.633  15.101  12.676
62507W        W27668  34.345  28.130   0.741
62508W        W27669  35.863  18.681   0.944
62509W        W27670  12.190   5.193  11.678
62510W        W27671  22.914  41.537   4.589
62511W        W27672  16.793  41.420   2.289
62512W        W27673  33.046  11.725   3.819
62513W        W27674  36.486   0.242  13.422
62514W        W27675  39.046   0.945   3.242
62515W        W27676  34.514  42.769  12.076
62516W        W27677  32.684  14.437   2.311
62517W        W27678  16.508  38.979   4.403
62518W        W27679  43.786  12.711  13.458
62519W        W27680  27.181  22.995   5.185
62520W        W27681  43.118  20.365  11.210
62521W        W27682  29.022  23.941  13.097
62522W        W27683  34.777  32.788  13.027
62523W        W27684  15.778  19.768   2.869
62524W        W27685  40.698  40.957  10.717
62525W        W27686  32.836  13.077   4.444
62526W        W27687   1.029  16.152  10.719
62527W        W27688   4.696  10.871  14.444
62528W        W27689  12.656  12.925   4.530
62529W        W27690  40.555   4.837   0.341
62530W        W27691  11.363   1.821   4.188
62531W        W27692  42.002  22.153   3.877
62532W        W27693  11.816  34.049   2.834
62533W        W27694   4.203   8.854   3.878
62534W        W27695   7.856  25.562  12.962
62535W        W27696  42.470  16.889  11.017
62536W        W27697  28.033  20.729  14.432
62537W        W27698  13.776  16.113   2.511
62538W        W27699  28.950   0.248   4.375
62539W        W27700  38.558   8.679  10.775
62540W        W27701  20.841   5.439  12.227
62541W        W27702  38.773  40.037  14.546
62542W        W27703  21.569  12.312   1.697
62543W        W27704  39.333  18.169  12.150
62544W        W27705  13.886  22.480   4.786
62545W        W27706  40.319   3.850   1.883
62546W        W27707  17.477  32.197  12.500
62547W        W27708  34.609  13.400  14.569
62548W        W27709  29.078  26.919  11.491
62549W        W27710  34.147   8.433   3.339
62550W        W27711  28.123   7.177   4.936
62551W        W27712  11.161   2.321  12.967
62552W        W27713   7.892  17.356   0.907
62553W        W27714  28.191   6.360  10.992
62554W        W27715  31.343  20.796  14.879
62555W        W27716  14.903  12.195   0.660
62556W        W27717  10.454   1.268   9.859
62557W        W27718   8.321  43.497  10.638
62558W        W27719   9.599   3.289   1.299
62559W        W27720  19.721  34.660  10.833
62560W        W27721  24.118   1.336   3.337
62561W        W27722   6.143  22.556   1.674
62562W        W27723  39.904  28.561  14.322
62563W        W27724  43.777  21.275   2.038
62564W        W27725  13.651  30.518  12.371
62565W        W27726  31.999  25.375   0.850
62566W        W27727  33.386  36.059  14.320
62567W        W27728  10.324  37.570  10.654
62568W        W27729   0.213  44.980   0.514
62569W        W27730  16.295   0.890  14.383
62570W        W27731  35.674  19.752   2.653
62571W        W27732   2.076  41.591   1.689
62572W        W27733  39.585   4.449   2.322
62573W        W27734  26.250  18.487  11.184
62574W        W27735   0.863  20.175   1.462
62575W        W27736   6.358  14.710  14.354
62576W        W27737  31.528  44.501   3.282
62577W        W27738   4.853   7.679  14.186
62578W        W27739  31.483  14.766   2.928
62579W        W27740  22.035  43.971   4.165
62580W        W27741  39.141  26.668   1.400
62581W        W27742  37.598  29.678  11.944
62582W        W27743  25.197  21.029   2.690
62583W        W27744  13.567  20.558   1.538
62584W        W27745  24.414  30.489   4.055
62585W        W27746   7.822  43.589  14.728
62586W        W27747  43.907  32.255   4.170
62587W        W27748   2.303   7.650  11.540
62588W        W27749  21.506  26.759  11.607
62589W        W27750  43.979  34.325   0.039
62590W        W27751  33.235  44.916  13.455
62591W        W27752  14.728  44.981   2.717
62592W        W27753  35.328  44.191   2.729
62593W        W27754  32.843   1.270   4.153
62594W        W27755  12.132  17.304   2.763
62595W        W27756  29.764  36.340  14.102
62596W        W27757  19.687   2.721  14.844
62597W        W27758  16.065  40.942  13.820
62598W        W27759   4.805  31.234  13.036
62599W        W27760   4.849   4.781   1.620
62600W        W27761  26.803  39.473   0.769
62601W        W27762  19.328   6.265   2.692
62602W        W27763   6.733  17.251   0.397
62603W        W27764  36.055   5.947   3.618
62604W        W27765  15.833  44.639   4.983
62605W        W27766  35.848   4.673  12.439
62606W        W27767  29.147  14.243  13.361
62607W        W27768  21.583  43.229   1.155
62608W        W27769  42.757  22.734  12.529
62609W        W27770  18.811  33.809   0.448
62610W        W27771   9.278  25.866  13.518
62611W        W27772  27.158  39.511   1.132
62612W        W27773   3.969  18.671   1.320
62613W        W27774  33.098  10.790   4.914
62614W        W27775  24.035  29.840   2.902
62615W        W27776  21.583  38.382  10.628
62616W        W27777  28.311  40.048   4.545
62617W        W27778  43.053   6.975  11.136
62618W        W27779  24.084  29.890   0.898
62619W        W27780  20.068  32.466  11.770
62620W        W27781  17.129  11.775   2.739
62621W        W27782   0.896   6.842   2.701
62622W        W27783   2.535  39.901   0.854
62623W        W27784  39.076  33.325  10.534
62624W        W27785  33.452  38.745  12.556
62625W        W27786  25.493  28.132  11.227
62626W        W27787  29.639   1.676   4.058
62627W        W27788  35.467  27.865  10.376
62628W        W27789  18.614  44.868   0.611
62629W        W27790  26.978  33.530  14.925
62630W        W27791  12.024  17.094   0.863
62631W        W27792  17.119   9.801  14.017
62632W        W27793  36.682   9.490   3.148
62633W        W27794  18.634  24.850  12.077
62634W        W27795  18.776  35.285   1.677
62635W        W27796  30.021   1.064   0.926
62636W        W27797  40.784   5.416  11.606
62637W        W27798  23.700  21.774  12.434
62638W        W27799  27.437  14.425   2.331
62639W        W27800   9.321  16.607   2.333
62640W        W27801  14.596  20.028   3.250
62641W        W27802  12.730   8.905  14.559
62642W        W27803  11.147  12.941   0.733
62643W        W27804  24.348  15.596   3.531
62644W        W27805  18.738  23.151  14.309
62645W        W27806  43.281  25.143   2.713
62646W        W27807   6.460   5.419  14.795
62647W        W27808  37.810  16.624  11.849
62648W        W27809  31.294  35.780  10.963
62649W        W27810  10.028  32.424   1.182
62650W        W27811  44.044   0.903  14.033
62651W        W27812  20.743  30.450   2.404
62652W        W27813   0.257   4.171   0.337
62653W        W27814  41.277  37.396  13.841
62654W        W27815  25.481  16.606   3.365
62655W        W27816  43.243  43.801   3.079
62656W        W27817  14.847  27.930   1.747
62657W        W27818  21.472  32.655   2.122
62658W        W27819  38.103   6.869   0.394
62659W        W27820   7.045  18.038   0.388
62660W        W27821  31.183  12.325   0.406
62661W        W27822  30.076  43.529   3.040
62662W        W27823  43.983  20.692  12.442
62663W        W27824  20.680  16.353   2.714
62664W        W27825  29.113  34.861  10.613
62665W        W27826  13.306  32.073   2.192
62666W        W27827  40.276  15.555  13.472
62667W        W27828   6.688  38.914   3.240
62668W        W27829  31.978   9.811   3.862
62669W        W27830  30.608  43.784  14.450
62670W        W27831  20.323   3.287   3.782
62671W        W27832  10.301  23.964   4.015
62672W        W27833  24.750   3.695   2.455
62673W        W27834   7.211   6.777  14.248
62674W        W27835   4.442  24.141  12.633
62675W        W27836  23.201  15.841  12.512
62676W        W27837   8.707  44.852  14.372
62677W        W27838  31.042  33.231  14.303
62678W        W27839  34.611  40.998  11.993
62679W        W27840  13.553   1.377  12.093
62680W        W27841  43.322  19.084  13.805
62681W        W27842  28.964  39.331   1.017
62682W        W27843   6.924  19.149  14.697
62683W        W27844  32.679   5.187   2.504
62684W        W27845  42.733  25.495   2.059
62685W        W27846  24.519  22.971  12.452
62686W        W27847  20.010   3.364   4.170
62687W        W27848   5.395  21.026   3.805
62688W        W27849   2.177  19.358  12.378
62689W        W27850  36.087   5.443  13.886
62690W        W27851  28.652  34.052  11.667
62691W        W27852   4.049  15.323   3.176
62692W        W27853   2.356  25.220   4.521
62693W        W27854   2.450   4.057  12.919
62694W        W27855  25.328  44.781  13.505
62695W        W27856  28.671  33.999   0.774
62696W        W27857  29.823  10.418   5.296
62697W        W27858  34.510  21.474  12.510
62698W        W27859  33.743  19.622   1.898
62699W        W27860  28.445  34.317  13.151
62700W        W27861   1.468   3.445  10.861
62701W        W27862  31.701  34.113   2.900
62702W        W27863  11.382   9.871  14.864
62703W        W27864  26.117  14.431   4.191
62704W        W27865  19.655  33.404  14.038
62705W        W27866   6.510  18.691  12.109
62706W        W27867  35.572   8.213  14.900
62707W        W27868  30.879  12.198   2.257
62708W        W27869  37.850  32.089  14.417
62709W        W27870   4.274  44.453   3.633
62710W        W27871  35.270  19.898  11.687
62711W        W27872  29.720  21.037   3.307
62712W        W27873  10.217  38.367   4.342
62713W        W27874  26.287   3.750  11.539
62714W        W27875  18.503  29.969   4.079
62715W        W27876  43.772  36.515  14.441
62716W        W27877   9.396  42.398   0.369
62717W        W27878  19.966  35.525   0.467
62718W        W27879  15.252   5.747  12.925
62719W        W27880  23.121  35.449  13.881
62720W        W27881   3.760   8.510   0.897
62721W        W27882  27.765   6.915  13.588
62722W        W27883  11.086  20.857   2.158
62723W        W27884  26.111  25.230   2.874
62724W        W27885  43.194  35.386   1.295
62725W        W27886  13.147  27.491   1.903
62726W        W27887  36.869  39.900  14.805
62727W        W27888  13.271  42.845  11.919
62728W        W27889  33.855   4.525   4.946
62729W        W27890  32.179  28.575  11.553
62730W        W27891   4.619  26.955  12.497
62731W        W27892  32.802   4.062   1.211
62732W        W27893  21.293  15.700   0.083
62733W        W27894   0.408  15.606   0.411
62734W        W27895  37.593   6.376   0.512
62735W        W27896  26.682   0.215   4.569
62736W        W27897  40.220  28.709  10.406
62737W        W27898  40.520  27.945   4.122
62738W        W27899  16.467   9.170  13.861
62739W        W27900  26.084  39.045  10.057
62740W        W27901  21.571   8.716   0.913
62741W        W27902  39.270  27.726   3.707
62742W        W27903  29.084  19.506   0.124
62743W        W27904   7.079  12.641  14.899
62744W        W27905  41.125   6.437  11.465
62745W        W27906  21.208  36.000  13.454
62746W        W27907  44.103  28.979  10.213
62747W        W27908  41.743  26.879   0.843
62748W        W27909  12.565  20.631  13.884
62749W        W27910  33.767  12.897  14.788
62750W        W27911  16.513  43.916   3.719
62751W        W27912  12.320  28.659   2.755
62752W        W27913  18.116   9.684   1.988
62753W        W27914   2.301  23.056   1.977
62754W        W27915   1.017   9.511   5.031
62755W        W27916  27.467   8.152  13.011
62756W        W27917   4.837   1.967  13.978
62757W        W27918   3.828  23.416   4.915
62758W        W27919  23.960  42.876   3.674
62759W        W27920  31.612  11.188  11.233
62760W        W27921   4.262  29.963   4.045
62761W        W27922  40.823   4.828   2.525
62762W        W27923   8.507  40.233  14.036
62763W        W27924   1.202  29.179   4.553
62764W        W27925  44.345  37.175  11.140
62765W        W27926  26.682  35.953  14.844
62766W        W27927  23.672  40.802  12.899
62767W        W27928   6.390  28.214  14.432
62768W        W27929  16.650  33.533   3.489
62769W        W27930  26.312  24.180   2.367
62770W        W27931  15.697   8.138  12.656
62771W        W27932  42.290  32.371  12.535
62772W        W27933   7.857  41.259  14.307
62773W        W27934  33.623  36.286   3.005
62774W        W27935  25.033  44.186  12.375
62775W        W27936   0.049  12.346   0.521
62776W        W27937  41.402  43.090   1.779
62777W        W27938  14.268  27.147  13.423
62778W        W27939   7.284  33.080  14.941
62779W        W27940  41.884  10.662  11.651
62780W        W27941  28.494  22.121  10.225
62781W        W27942  23.922  11.795  11.987
62782W        W27943  27.454  30.433   0.426
62783W        W27944  12.778   6.902  12.481
62784W        W27945  10.704   0.984   4.441
62785W        W27946  24.541  22.410   2.213
62786W        W27947  27.968  37.138   0.652
62787W        W27948  31.517  28.858  11.975
62788W        W27949  12.577  31.567  11.635
62789W        W27950  38.086  36.549   4.279
62790W        W27951  32.076  29.087  11.607
62791W        W27952  38.432  30.270  12.303
62792W        W27953  29.072  39.387  10.499
62793W        W27954  40.900  41.399   3.344
62794W        W27955  43.498   7.374   3.993
62795W        W27956   4.512  39.000  12.565
62796W        W27957  44.687  22.043  11.014
62797W        W27958  20.015  25.333  14.730
62798W        W27959   6.784  42.379   4.079
62799W        W27960  12.828  33.361   5.065
62800W        W27961   9.334   6.180   3.641
62801W        W27962  37.929  17.601  14.826
62802W        W27963   6.798  13.855  11.239
62803W        W27964  35.283   9.421  13.667
62804W        W27965   4.198  29.580  13.766
62805W        W27966  17.799  34.043   2.563
62806W        W27967  41.246  16.312   0.875
62807W        W27968  23.031   0.551  11.608
62808W        W27969   6.146   7.289  13.542
62809W        W27970  15.883   7.701  13.503
62810W        W27971  44.989   3.567  14.546
62811W        W27972   1.823   0.740   1.491
62812W        W27973  20.170  30.230   3.704
62813W        W27974  40.913   5.903   3.572
62814W        W27975  38.489  29.362   2.622
62815W        W27976  25.115  22.051   3.565
62816W        W27977  27.952  15.325  12.416
62817W        W27978   6.301   6.737   0.590
62818W        W27979  18.682  18.997  11.134
62819W        W27980  22.614   4.282   1.908
62820W        W27981   5.193  10.167   1.129
62821W        W27982  22.682  24.621  10.729
62822W        W27983  36.402  26.870   4.291
62823W        W27984   6.893  29.765  11.567
62824W        W27985   1.866  16.236   0.951
62825W        W27986   0.876  35.048   1.489
62826W        W27987   0.772   2.462   1.804
62827W        W27988  34.105  27.253  13.544
62828W        W27989   9.665  42.829   0.453
62829W        W27990   8.391   6.022   0.002
62830W        W27991  31.943  19.510  12.103
62831W        W27992  13.647   1.368  11.213
62832W        W27993   0.314  33.810  10.027
62833W        W27994  34.754  22.562   2.602
62834W        W27995  16.742  12.604   4.742
62835W        W27996   5.876   8.016   4.326
62836W        W27997  20.322  19.106   3.158
62837W        W27998  17.063  43.634  13.835
62838W        W27999  34.071  18.229   4.005
62839W        W28000  44.859  39.509   4.551
62840W        W28001  42.275  17.180   4.908
62841W        W28002  14.039  28.455  11.583
62842W        W28003  15.692  32.620  14.541
62843W        W28004  21.536   6.461  14.386
62844W        W28005   9.178  21.045  11.583
62845W        W28006  26.544  33.262   0.851
62846W        W28007  20.746  14.380   2.004
62847W        W28008  41.454   5.998   2.436
62848W        W28009  44.902  39.886  11.952
62849W        W28010   9.730  13.146   4.431
62850W        W28011   7.474  11.561  11.971
62851W        W28012  42.353  17.239   4.397
62852W        W28013   5.440  25.150  12.924
62853W        W28014  43.124  31.531  12.069
62854W        W28015   7.566  34.813   0.321
62855W        W28016  39.398  18.587   3.154
62856W        W28017  36.344  41.314   4.119
62857W        W28018  14.830   8.143   1.359
62858W        W28019   4.241  20.070  10.744
62859W        W28020  30.634  44.347   1.709
62860W        W28021  28.484  14.467  12.378
62861W        W28022  42.966  20.748   0.947
62862W        W28023  22.543   6.353  10.408
62863W        W28024   1.257  18.683  13.992
62864W        W28025  35.812  22.259  12.533
62865W        W28026  13.114  15.694  13.833
62866W        W28027  29.945  26.650   3.712
62867W        W28028  13.087  42.417   1.154
62868W        W28029  31.388  11.673  11.165
62869W        W28030  43.939   3.180  12.923
62870W        W28031   0.523  33.546   4.637
62871W        W28032  26.987  21.162   2.155
62872W        W28033  32.887   3.226  11.628
62873W        W28034  42.538  34.502  11.358
62874W        W28035  10.626  33.663   0.610
62875W        W28036  39.428  13.189   0.821
62876W        W28037  12.080  21.207  12.820
62877W        W28038  27.487  31.097   4.229
62878W        W28039  21.663  25.294  11.665
62879W        W28040  36.367  29.270  11.137
62880W        W28041  29.046  27.759   2.549
62881W        W28042  26.623  32.790   4.085
62882W        W28043  21.249  42.285  13.431
62883W        W28044  25.168  10.856   0.383
62884W        W28045  42.348   9.891   0.513
62885W        W28046  35.291  12.952   0.210
62886W        W28047  10.582  41.010   2.804
62887W        W28048  26.145  20.563  13.206
62888W        W28049  31.439  24.443  12.361
62889W        W28050  26.043   3.665   2.317
62890W        W28051   0.290   6.695  12.821
62891W        W28052  21.538  38.683  13.049
62892W        W28053  37.822  13.950  11.601
62893W        W28054  18.637  41.413  14.335
62894W        W28055  27.179   3.324   0.020
62895W        W28056  42.050  10.418  11.212
62896W        W28057  43.823  38.564  10.462
62897W        W28058   7.896  36.493  12.557
62898W        W28059  38.561  39.940   1.136
62899W        W28060  11.259  15.840   3.125
62900W        W28061   3.761  44.871  13.568
62901W        W28062  31.958  30.907  13.369
62902W        W28063   6.587   2.475  11.259
62903W        W28064  33.811  30.383   0.691
62904W        W28065  44.495  24.585  11.399
62905W        W28066  10.871  22.617   3.413
62906W        W28067  11.629  43.494   4.722
62907W        W28068  24.493  28.495   0.303
62908W        W28069  17.627  13.265  11.929
62909W        W28070  29.400  16.194   3.405
62910W        W28071  10.330  26.917  10.516
62911W        W28072  25.655  38.941  12.599
62912W        W28073   8.695   7.622   1.734
62913W        W28074  24.490  32.997   1.378
62914W        W28075  18.169  11.612  12.208
62915W        W28076  29.071   0.746  14.274
62916W        W28077  14.176  40.964  10.602
62917W        W28078  41.238  34.554  12.083
62918W        W28079  39.632  38.916   0.242
62919W        W28080  15.448  19.541   2.528
62920W        W28081   5.637   0.790  12.644
62921W        W28082   2.691  29.949  10.806
62922W        W28083  31.086  15.635   3.192
62923W        W28084  34.059  40.419  12.925
62924W        W28085  27.383  33.620   1.334
62925W        W28086   4.711  44.265   0.343
62926W        W28087  16.258  41.404   2.158
62927W        W28088  35.018   6.848   4.938
62928W        W28089  30.723   8.558   2.849
62929W        W28090  34.651  17.746  13.538
62930W        W28091  11.015  13.947   4.036
62931W        W28092   1.469  18.790  10.661
62932W        W28093  13.984  13.722   4.674
62933W        W28094  39.007  15.900   4.531
62934W        W28095  35.126  22.182   5.089
62935W        W28096  39.991  26.681   1.996
62936W        W28097  13.054  12.411  14.617
62937W        W28098  12.858  35.253   4.877
62938W        W28099  14.726  21.614  12.826
62939W        W28100  16.812  22.474  13.757
62940W        W28101  32.223   6.272   1.008
62941W        W28102  44.428  43.750  10.824
62942W        W28103   8.224  43.420   1.140
62943W        W28104  10.604  22.995   0.751
62944W        W28105  32.497  13.603  13.051
62945W        W28106   4.659  26.253  14.439
62946W        W28107   1.445  24.243   0.933
62947W        W28108  15.581   1.741   3.494
62948W        W28109  33.321  37.536   0.333
62949W        W28110  25.971  27.447  13.461
62950W        W28111  34.198  17.384  10.989
62951W        W28112  44.228   2.321  12.048
62952W        W28113   3.696  25.206   1.367
62953W        W28114  19.088  23.799   3.237
62954W        W28115  37.511  36.030   0.442
62955W        W28116   6.476   7.008   1.599
62956W        W28117  12.485  19.802   1.802
62957W        W28118  32.848  19.341   3.921
62958W        W28119  29.487  17.388  10.448
62959W        W28120  22.385   6.308   9.846
62960W        W28121  33.072   8.770  11.882
62961W        W28122  31.490  30.922  12.124
62962W        W28123  16.714  21.612   1.764
62963W        W28124  18.627  41.387  12.579
62964W        W28125  18.637  38.532  13.569
62965W        W28126  36.334  13.744   0.289
62966W        W28127  19.036  32.319   0.897
62967W        W28128  21.303  24.153   0.699
62968W        W28129   7.783  10.019   4.235
62969W        W28130  11.412   0.483  11.175
62970W        W28131  37.965   4.694   1.056
62971W        W28132   9.626  36.123   4.360
62972W        W28133  16.044  17.824  11.829
62973W        W28134  44.616  14.303  12.426
62974W        W28135  19.296  40.317  10.070
62975W        W28136   2.305   6.437   4.616
62976W        W28137   7.101  28.538  12.238
62977W        W28138  40.832   3.952   3.435
62978W        W28139  19.677  31.696   1.390
62979W        W28140  10.358  27.542  11.158
62980W        W28141  39.323  35.826  12.987
62981W        W28142  32.997   3.322   3.857
62982W        W28143  35.629  38.763   3.317
62983W        W28144  36.866  39.564   1.406
62984W        W28145   7.418  37.253  14.357
62985W        W28146   8.491  16.170   4.105
62986W        W28147  16.522  19.011  10.670
62987W        W28148  36.623   5.722  14.888
62988W        W28149  15.712  43.438   0.940
62989W        W28150  33.536  12.169   5.027
62990W        W28151  12.026   0.194   3.641
62991W        W28152   1.854  37.562  11.531
62992W        W28153  26.636  16.472  13.334
62993W        W28154   8.827  10.135   0.424
62994W        W28155  31.363  36.800  14.484
62995W        W28156  16.536  36.952   0.841
62996W        W28157  13.621  41.770   1.603
62997W        W28158   1.993  29.521   4.591
62998W        W28159   6.190  29.227  11.084
62999W        W28160  17.736   2.241  10.582
63000W        W28161   5.599  31.415   9.693
63001W        W28162  33.105  26.071  10.454
63002W        W28163   3.583  14.482  13.012
63003W        W28164  21.745   1.849  13.531
63004W        W28165  12.934  36.024  14.913
63005W        W28166  38.973  40.446   4.004
63006W        W28167  41.924   5.432  12.928
63007W        W28168  43.611  23.657   3.236
63008W        W28169  24.463  27.754   1.838
63009W        W28170  14.059  24.677  14.808
63010W        W28171  24.261   7.815   1.823
63011W        W28172  43.560  16.713   1.936
63012W        W28173  33.589  23.551   1.250
63013W        W28174   6.133  43.308   3.272
63014W        W28175  27.801   3.643   0.928
63015W        W28176   6.376  20.241  12.035
63016W        W28177  10.255   5.814  14.598
63017W        W28178  19.780  33.594   2.034
63018W        W28179  15.483  39.586   1.192
63019W        W28180  32.345  15.933  13.152
63020W        W28181  37.973  27.434  11.137
63021W        W28182   7.158  17.723   4.207
63022W        W28183  29.048  33.493   3.697
63023W        W28184  40.644  17.885   3.327
63024W        W28185  40.814  15.792   4.555
63025W        W28186  15.260   5.442  13.394
63026W        W28187  42.803  32.832   2.465
63027W        W28188  34.485  25.691   9.465
63028W        W28189  37.693  17.142  14.024
63029W        W28190  10.459  23.261   2.916
63030W        W28191  15.055  37.024  10.467
63031W        W28192  23.845  38.879  12.915
63032W        W28193   0.247  27.404   3.273
63033W        W28194  16.260  23.480   3.162
63034W        W28195  34.141   0.976  12.066
63035W        W28196  44.364   7.696   4.111
63036W        W28197  17.195   3.413   4.498
63037W        W28198  24.517   6.667   3.886
63038W        W28199  20.719   1.803  13.801
63039W        W28200   7.616   8.363  12.481
63040W        W28201  34.586  20.606   3.635
63041W        W28202   1.474   0.929   0.258
63042W        W28203  37.023  33.926  10.867
63043W        W28204  31.094  36.482   1.176
63044W        W28205   6.934  29.437   1.917
63045W        W28206   0.897  12.882   0.382
63046W        W28207   9.142  13.917  12.097
63047W        W28208   1.716  33.861  12.443
63048W        W28209  22.229   5.768  13.448
63049W        W28210   7.983  11.224   3.102
63050W        W28211  24.602  25.195  11.983
63051W        W28212  11.633   7.879  10.350
63052W        W28213   9.754  33.426   3.580
63053W        W28214  18.752  13.432  13.695
63054W        W28215  24.016   7.537  14.525
63055W        W28216  44.546  35.059  12.409
63056W        W28217  30.354  10.480   5.110
63057W        W28218  38.693  22.893   2.619
63058W        W28219  28.772   8.736   2.786
63059W        W28220  10.682  43.407  14.983
63060W        W28221  19.889  22.432   4.160
63061W        W28222   7.385  26.526   0.775
63062W        W28223  43.361  13.137  14.266
63063W        W28224  32.038  39.489  12.155
63064W        W28225  31.117   6.795  12.555
63065W        W28226  17.779  33.869  13.011
63066W        W28227  12.281   9.905   2.697
63067W        W28228  33.682  21.684  14.860
63068W        W28229  30.630  33.052  14.009
63069W        W28230  15.788   9.433   1.243
63070W        W28231  14.318  16.334  11.217
63071W        W28232  29.370  27.973  14.145
63072W        W28233   4.441  14.667  14.106
63073W        W28234  37.167   9.994   3.695
63074W        W28235  21.073  15.433  11.926
63075W        W28236  40.048  28.107  11.613
63076W        W28237   3.865  16.857  14.319
63077W        W28238  39.261  25.252   1.121
63078W        W28239   3.085  41.448   0.235
63079W        W28240  37.181   2.147  11.606
63080W        W28241  33.042  34.595   1.654
63081W        W28242  31.047  28.718   2.490
63082W        W28243  12.089  31.958   0.315
63083W        W28244  25.011  22.902  14.200
63084W        W28245  18.796  37.929   2.374
63085W        W28246  10.417  10.847  14.852
63086W        W28247  20.847   1.054  13.511
63087W        W28248  29.061  39.901   5.069
63088W        W28249  20.262  40.399  14.260
63089W        W28250  37.575  16.742  12.541
63090W        W28251   5.162  10.212  14.052
63091W        W28252  27.095  27.606  14.273
63092W        W28253  29.978  14.009  13.312
63093W        W28254  25.090  38.970   2.672
63094W        W28255  38.394  11.971  11.887
63095W        W28256   3.780  37.604   2.380
63096W        W28257  12.818  40.261  11.972
63097W        W28258  18.340  38.382   2.888
63098W        W28259  10.883  34.629   2.460
63099W        W28260  27.602   7.106  14.035
63100W        W28261   3.945  32.114   2.252
63101W        W28262  13.449   0.255  12.548
63102W        W28263  27.204  39.940   1.418
63103W        W28264  44.388  29.209  10.650
63104W        W28265   5.687  37.871  13.443
63105W        W28266   3.838  10.206  10.503
63106W        W28267  24.883  42.917   0.949
63107W        W28268  33.949  12.257   2.661
63108W        W28269  39.940   7.878   0.912
63109W        W28270  19.544   0.305  14.862
63110W        W28271   6.993  44.259   3.239
63111W        W28272  23.312   3.954  12.828
63112W        W28273  40.037  25.986  14.296
63113W        W28274  24.165  18.688  12.337
63114W        W28275  19.020  20.817   2.800
63115W        W28276  44.320  17.135   1.744
63116W        W28277  11.801  28.641   0.069
63117W        W28278  33.159  23.821   0.992
63118W        W28279  32.374  11.650  14.361
63119W        W28280  44.410  22.747   4.281
63120W        W28281   9.343  12.710   0.778
63121W        W28282  36.072  40.007  13.600
63122W        W28283  32.934  20.063  12.990
63123W        W28284  32.531   1.472   4.527
63124W        W28285  43.185  18.633   1.299
63125W        W28286  16.799  29.667  12.043
63126W        W28287  31.319  20.822   1.273
63127W        W28288   4.653  15.219  14.335
63128W        W28289  44.308  28.554  14.473
63129W        W28290   2.830  36.403   1.945
63130W        W28291  42.484  13.588   3.200
63131W        W28292  37.893   4.335  11.881
63132W        W28293  44.049  25.593   4.221
63133W        W28294  14.724  36.743  13.508
63134W        W28295  24.216  29.382   2.796
63135W        W28296   5.135  26.936   0.463
63136W        W28297   8.129  28.418  14.058
63137W        W28298  34.515  26.387  10.708
63138W        W28299  19.119  27.493  11.625
63139W        W28300   1.959  18.611  14.509
63140W        W28301   2.806  25.985  11.450
63141W        W28302  41.558  40.847   2.800
63142W        W28303  27.310  18.401  14.951
63143W        W28304  14.945  36.943  14.428
63144W        W28305   7.761  28.293  12.712
63145W        W28306  20.959  19.679  13.428
63146W        W28307   7.340  38.025   4.555
63147W        W28308  41.826  33.939  11.002
63148W        W28309  11.828  10.557  13.629
63149W        W28310  43.026   6.157  11.428
63150W        W28311  23.417  33.627  11.572
63151W        W28312  30.822  19.662   3.171
63152W        W28313  41.245  29.458  12.429
63153W        W28314  42.528  40.527  13.320
63154W        W28315  37.964  15.301   3.407
63155W        W28316  41.452  11.787   4.861
63156W        W28317   6.257  24.134   4.639
63157W        W28318  17.051   1.428  11.120
63158W        W28319  18.274   5.187   0.944
63159W        W28320  15.806  22.560   0.493
63160W        W28321  13.416  13.337   5.336
63161W        W28322  36.385   5.778   0.428
63162W        W28323  22.229  42.123  13.644
63163W        W28324   9.171  43.547  10.986
63164W        W28325  27.548   5.240  14.245
63165W        W28326   8.133  42.904   2.607
63166W        W28327  35.321  33.626   0.744
63167W        W28328  27.996  41.502   3.237
63168W        W28329  19.640  10.312   5.163
63169W        W28330  42.253   8.845   4.612
63170W        W28331  21.033   3.745   3.150
63171W        W28332  17.109  39.686  13.340
63172W        W28333  33.541  14.113  10.630
63173W        W28334  34.891  43.094  10.441
63174W        W28335   6.881  29.228   1.019
63175W        W28336  14.814   3.895   0.766
63176W        W28337  32.411   4.889   2.159
63177W        W28338  19.809  11.357  11.115
63178W        W28339  39.475  30.226  11.080
63179W        W28340  11.691  29.706   3.266
63180W        W28341  39.422  43.044   3.979
63181W        W28342  36.575  14.209   0.222
63182W        W28343   3.831  41.963   3.277
63183W        W28344  28.024  31.810  11.161
63184W        W28345  20.214  32.748   1.848
63185W        W28346  39.626  34.446   2.904
63186W        W28347  15.192   5.367   0.810
63187W        W28348  23.204  10.898   4.215
63188W        W28349  43.312  21.116  13.948
63189W        W28350   2.053   0.268   2.322
63190W        W28351  28.685  40.365  14.754
63191W        W28352  40.840  32.051  10.983
63192W        W28353   4.813  31.761   4.096
63193W        W28354  37.355   0.727   4.558
63194W        W28355  24.761   6.676  14.116
63195W        W28356   1.320  16.373  11.101
63196W        W28357  40.333  14.597   1.075
63197W        W28358  22.799  14.347  12.617
63198W        W28359  28.704  37.154   1.858
63199W        W28360   1.309  35.930   3.543
63200W        W28361  25.731  23.534  10.384
63201W        W28362  26.633  18.171   0.179
63202W        W28363  10.325  16.087  14.115
63203W        W28364   2.433  13.122   0.453
63204W        W28365  42.276  43.745   3.267
63205W        W28366  32.372  19.089   0.405
63206W        W28367  35.531   5.626  10.850
63207W        W28368  39.528  25.568  10.775
63208W        W28369  27.057  16.056   2.558
63209W        W28370  26.693   6.392   4.567
63210W        W28371  22.630  38.969  13.089
63211W        W28372  27.197   5.240   2.347
63212W        W28373  12.220  19.155   2.916
63213W        W28374  22.486  16.669   4.681
63214W        W28375  18.050  13.596   5.173
63215W        W28376   7.160  44.270   0.961
63216W        W28377  41.954  15.185   4.964
63217W        W28378   4.521  20.523   0.174
63218W        W28379  42.140   2.718   3.062
63219W        W28380  22.491   0.839  13.049
63220W        W28381  27.898  34.837   2.251
63221W        W28382  37.944  28.273  10.321
63222W        W28383  14.311   7.392   1.385
63223W        W28384   9.464  21.358  12.451
63224W        W28385  35.323  13.930   2.374
63225W        W28386   3.577  25.866   5.447
63226W        W28387  36.317  13.770   0.822
63227W        W28388   6.855  42.619   1.327
63228W        W28389  37.005  23.686  10.595
63229W        W28390   5.716  23.582   2.800
63230W        W28391  13.698  16.207   4.502
63231W        W28392  37.286  30.610  12.937
63232W        W28393  10.225  37.372  13.875
63233W        W28394  27.626   1.962   2.352
63234W        W28395  41.265   5.975   4.895
63235W        W28396  40.882   5.993   4.089
63236W        W28397  16.093   0.815  12.901
63237W        W28398  13.024  20.449   2.343
63238W        W28399  41.663   5.192  13.333
63239W        W28400  40.565  38.480  12.480
63240W        W28401  36.622  10.650  10.333
63241W        W28402  30.977  23.528  14.044
63242W        W28403  22.937  39.665  11.462
63243W        W28404  43.052  18.643   2.825
63244W        W28405  22.448  21.054  11.018
63245W        W28406  12.080   3.963  13.072
63246W        W28407  25.090  16.554   1.476
63247W        W28408  42.450  44.210   4.302
63248W        W28409   9.607  21.084   1.172
63249W        W28410  40.236  29.189  13.481
63250W        W28411  33.602  26.234  12.120
63251W        W28412  38.817  11.293  13.102
63252W        W28413  36.889  18.745   0.438
63253W        W28414  26.808  20.775   1.867
63254W        W28415   2.559  43.686   4.221
63255W        W28416  11.817  44.366  12.177
63256W        W28417  39.441  20.025   4.040
63257W        W28418   6.228  17.503   3.836
63258W        W28419  33.422  32.269  10.801
63259W        W28420   9.583  39.900   0.466
63260W        W28421  22.437   5.373  11.094
63261W        W28422   8.337  38.344   0.248
63262W        W28423  31.973  29.121   4.938
63263W        W28424  13.181  36.181   3.184
63264W        W28425  41.977  27.116   2.277
63265W        W28426   3.814  19.271   4.451
63266W        W28427  11.329   4.291  11.882
63267W        W28428  17.068  41.299  11.259
63268W        W28429   3.591  12.397   5.074
63269W        W28430   4.434  33.945  13.445
63270W        W28431  18.495  19.799  12.039
63271W        W28432  19.700  33.843  11.223
63272W        W28433  10.871  39.050  14.358
63273W        W28434  36.049   4.539   3.241
63274W        W28435  44.379  44.814  12.286
63275W        W28436  42.581  25.960   1.408
63276W        W28437  39.362  23.515  13.395
63277W        W28438  27.666   8.881   4.538
63278W        W28439  32.141  32.697   2.128
63279W        W28440  24.932  35.863   4.512
63280W        W28441  19.496  19.468   3.358
63281W        W28442  10.478   9.682  12.924
63282W        W28443   2.936  40.067  14.766
63283W        W28444   9.683  10.893  13.024
63284W        W28445  22.617  32.335   4.110
63285W        W28446  14.828   4.971  10.526
63286W        W28447   3.956  11.778   4.235
63287W        W28448  19.699  35.806  12.635
63288W        W28449  42.224   5.005  13.324
63289W        W28450  12.300  40.468  11.092
63290W        W28451  38.137  33.475   3.890
63291W        W28452  33.797  23.501   0.757
63292W        W28453   2.891   6.021   2.230
63293W        W28454  40.387  14.269   5.029
63294W        W28455  15.239  42.985  13.045
63295W        W28456  34.637   0.404  14.500
63296W        W28457  17.322  23.498   4.401
63297W        W28458  15.977  40.072  13.422
63298W        W28459   8.712  30.185   3.746
63299W        W28460  20.854  42.073  12.455
63300W        W28461   7.884   3.784   3.709
63301W        W28462  28.612  12.007   2.567
63302W        W28463  17.694  42.261  14.934
63303W        W28464  10.107  43.245   1.715
63304W        W28465  26.203  12.918   1.911
63305W        W28466  23.962  38.383   2.279
63306W        W28467  27.188  37.283   1.637
63307W        W28468  39.577  16.783   4.373
63308W        W28469   4.324  36.431   0.474
63309W        W28470  32.548   7.030  10.717
63310W        W28471  41.445  23.831   0.745
63311W        W28472   4.476  25.544  12.422
63312W        W28473  20.021   2.881   3.646
63313W        W28474  13.324  21.734   0.842
63314W        W28475   7.228  41.860  13.861
63315W        W28476   6.775   1.821   3.321
63316W        W28477  17.526  35.920  13.994
63317W        W28478   8.266  26.652   0.513
63318W        W28479   3.184   1.566   3.821
63319W        W28480  13.027   7.912  11.089
63320W        W28481  15.401  23.623   3.667
63321W        W28482  35.064  19.004  10.852
63322W        W28483  20.128  30.229   4.585
63323W        W28484  27.278  33.980  11.402
63324W        W28485  38.041  30.148  14.723
63325W        W28486   4.751  40.346   0.853
63326W        W28487  41.281  23.593  12.654
63327W        W28488  26.580   2.228  14.760
63328W        W28489  24.373  26.810  12.709
63329W        W28490   0.273   2.900   2.021
63330W        W28491  19.560  29.504  10.925
63331W        W28492  40.006  37.110  10.922
63332W        W28493   8.798  11.968  12.636
63333W        W28494  22.768  33.236   0.809
63334W        W28495   8.099  35.605  11.598
63335W        W28496  38.952  23.906   4.282
63336W        W28497  33.661  12.113   4.457
63337W        W28498  19.683  40.809   1.921
63338W        W28499  10.855  32.364  11.377
63339W        W28500   0.752   8.252  11.918
63340W        W28501   9.543   1.464  14.478
63341W        W28502  12.100  37.848  11.889
63342W        W28503  32.053  20.469   4.274
63343W        W28504   7.691  25.351   3.800
63344W        W28505  34.838  15.582   4.457
63345W        W28506  11.820  41.436  14.756
63346W        W28507  19.793  13.414   5.000
63347W        W28508  11.305   7.281   1.616
63348W        W28509  22.044   4.449   4.524
63349W        W28510   3.221  14.447  12.568
63350W        W28511  44.688  13.231   3.286
63351W        W28512  20.192   1.029   1.325
63352W        W28513   0.980   5.978   3.212
63353W        W28514  18.624  19.964  11.199
63354W        W28515  14.187  26.877   4.197
63355W        W28516  24.566  11.131   3.136
63356W        W28517  18.555  31.198  14.263
63357W        W28518  40.095   2.720   0.828
63358W        W28519   3.838   6.365  14.765
63359W        W28520  33.486  22.707  10.186
63360W        W28521  27.859  10.236  11.712
63361W        W28522  21.757  42.449  13.537
63362W        W28523  19.636  37.355  13.844
63363W        W28524  14.542  41.185  14.080
63364W        W28525  30.591  27.507  11.580
63365W        W28526   1.166  39.207  12.428
63366W        W28527  39.721  25.132   1.361
63367W        W28528  22.660  25.905  13.453
63368W        W28529  24.194   1.116  12.565
63369W        W28530  11.437  19.043   0.849
63370W        W28531   0.774   9.431   1.841
63371W        W28532  35.372  29.198   4.782
63372W        W28533  28.945  21.896  11.148
63373W        W28534  15.290  15.332   4.852
63374W        W28535  36.761  14.545   3.672
63375W        W28536   3.527  17.784   2.819
63376W        W28537  39.108   2.474  10.723
63377W        W28538  18.350  44.206   3.825
63378W        W28539  18.133  33.820   1.238
63379W        W28540  25.007  43.995  11.127
63380W        W28541  23.366  27.901  11.436
63381W        W28542  36.073  15.311  14.644
63382W        W28543  22.284   2.418   4.965
63383W        W28544   1.909  43.681   2.583
63384W        W28545  14.323  23.312  13.181
63385W        W28546  42.467  39.326  12.916
63386W        W28547  34.213  27.487   0.222
63387W        W28548  20.554  27.113   0.267
63388W        W28549   4.524  33.751   0.634
63389W        W28550  24.684   8.162  12.979
63390W        W28551  33.120  19.636  14.717
63391W        W28552   9.130  18.646  12.012
63392W        W28553  17.055  38.517  14.734
63393W        W28554  10.089  35.153   1.580
63394W        W28555  28.920  26.081   1.795
63395W        W28556   0.823  15.951  14.286
63396W        W28557   5.345  25.561  11.953
63397W        W28558  30.659  38.313  11.105
63398W        W28559  44.981  39.865  12.531
63399W        W28560  20.037  24.781  11.975
63400W        W28561  17.821  20.691  11.900
63401W        W28562  14.849   6.848   1.828
63402W        W28563  13.890  29.731   1.811
63403W        W28564   3.654  18.008  12.961
63404W        W28565  14.480  32.303  10.124
63405W        W28566  24.006   2.701   2.866
63406W        W28567  16.596  17.164  12.592
63407W        W28568  44.561  34.966  14.911
63408W        W28569  36.989  21.808   4.829
63409W        W28570  23.429  17.877  10.991
63410W        W28571  13.737  41.368   4.891
63411W        W28572   3.463  38.979   2.631
63412W        W28573  14.909   5.916  14.801
63413W        W28574  24.570  38.178  13.811
63414W        W28575  24.621  23.385   4.649
63415W        W28576  21.935  35.446   0.337
63416W        W28577  15.838  13.306  13.992
63417W        W28578   0.543   5.967  12.066
63418W        W28579  14.614  31.913  10.974
63419W        W28580  18.672  29.920   2.240
63420W        W28581  21.591  32.223  12.151
63421W        W28582  24.285  41.929   1.420
63422W        W28583   8.147  38.020  14.395
63423W        W28584  32.002  36.929  11.538
63424W        W28585  10.220   0.778  11.127
63425W        W28586  16.499  16.931   4.994
63426W        W28587  36.062  26.280  11.576
63427W        W28588  19.581  42.625   2.156
63428W        W28589  39.496  43.024  13.531
63429W        W28590   7.451  42.245   4.880
63430W        W28591   9.470  26.206   2.775
63431W        W28592  27.122  34.507   2.374
63432W        W28593  40.760  26.679  11.164
63433W        W28594  10.366   6.326  13.813
63434W        W28595   5.253  29.675  14.889
63435W        W28596  14.088   3.307  13.756
63436W        W28597  22.673  34.736   4.554
63437W        W28598  38.477  21.827  11.730
63438W        W28599   9.768  12.411   2.516
63439W        W28600  38.454   5.487   4.478
63440W        W28601  18.495  10.589  12.064
63441W        W28602   7.744  20.976  12.948
63442W        W28603  42.849  10.238   1.377
63443W        W28604  12.123  39.098  13.796
63444W        W28605   7.594  12.955   2.189
63445W        W28606  24.817  42.065   4.089
63446W        W28607  12.765  28.099   0.789
63447W        W28608  30.588   8.829  12.991
63448W        W28609  28.329  23.737   3.722
63449W        W28610  40.993  21.555   1.820
63450W        W28611  13.446  12.389   1.003
63451W        W28612  40.288  20.723   3.224
63452W        W28613  40.181  27.387  11.153
63453W        W28614  36.492  12.615   1.652
63454W        W28615  35.610   8.945   0.348
63455W        W28616   6.860  13.661  14.840
63456W        W28617   1.793  18.527   1.841
63457W        W28618  27.962   6.504   0.897
63458W        W28619   0.952  25.519  12.946
63459W        W28620  29.880  41.547  13.105
63460W        W28621  27.509  24.951  13.007
63461W        W28622  34.403  10.222  10.743
63462W        W28623  30.320  33.037   3.758
63463W        W28624  30.520  37.110  12.996
63464W        W28625  22.668  17.763   0.228
63465W        W28626  15.077  21.686  13.611
63466W        W28627  30.114  26.163   3.734
63467W        W28628  16.340   0.901   3.402
63468W        W28629   2.861  10.599  12.948
63469W        W28630  31.290  30.087   0.163
63470W        W28631   7.027  10.161   0.726
63471W        W28632  37.861   2.275  13.314
63472W        W28633   3.441  43.308  14.036
63473W        W28634  17.151  36.848  10.722
63474W        W28635  19.083   5.133  11.014
63475W        W28636  16.294  38.419  13.020
63476W        W28637  11.395  32.403   4.178
63477W        W28638  43.329  43.019   3.815
63478W        W28639  33.414  18.000  13.315
63479W        W28640   0.003  38.485  14.937
63480W        W28641  40.710  26.508  12.036
63481W        W28642  11.879  28.914  14.489
63482W        W28643  42.537  37.383   2.602
63483W        W28644  10.865  13.389  13.030
63484W        W28645  10.660   7.853  12.054
63485W        W28646  11.605  31.783   0.271
63486W        W28647   3.786  36.417   5.037
63487W        W28648   4.968  11.463   1.773
63488W        W28649  29.869  15.671   4.412
63489W        W28650  44.278  39.614  14.265
63490W        W28651   2.756  38.253   0.206
63491W        W28652   8.779  40.497   0.076
63492W        W28653   8.297  21.121   1.801
63493W        W28654  16.056   9.824  11.697
63494W        W28655  41.557  12.612   2.050
63495W        W28656   2.223  41.007  12.630
63496W        W28657  12.330  15.774  14.727
63497W        W28658  42.898  39.277  12.158
63498W        W28659   2.039  14.509   2.909
63499W        W28660  14.707  35.471   2.789
63500W        W28661   5.734  27.673   4.449
63501W        W28662   0.950  24.103  12.080
63502W        W28663   1.711  42.804   1.255
63503W        W28664  23.173  17.562   1.892
63504W        W28665  43.243  12.888   3.623
63505W        W28666   8.605  31.018   4.809
63506W        W28667  39.441  44.430  10.797
63507W        W28668  16.038  16.803   4.505
63508W        W28669  41.355   8.908   0.265
63509W        W28670   6.893  16.208  12.315
63510W        W28671  29.194   1.461   1.215
63511W        W28672  14.666   8.946   0.835
63512W        W28673  44.674  10.265   2.687
63513W        W28674  28.019  28.868   1.107
63514W        W28675  34.293  20.531  14.358
63515W        W28676  10.479  20.106   2.259
63516W        W28677  26.093  15.125  10.293
63517W        W28678  36.268  16.290  12.007
63518W        W28679  28.308   8.274   0.688
63519W        W28680  26.370  25.114  13.405
63520W        W28681  27.987  19.624  12.384
63521W        W28682  33.645  22.226  14.872
63522W        W28683  24.525  13.410  13.010
63523W        W28684  23.736   4.382   2.814
63524W        W28685   8.785  36.112   2.293
63525W        W28686   8.555  14.293  11.617
63526W        W28687  34.617   6.847  12.420
63527W        W28688  26.944  26.751  11.365
63528W        W28689  11.576  23.540   0.931
63529W        W28690  31.906  31.537  12.132
63530W        W28691   2.288  42.250   4.507
63531W        W28692  14.209   5.188  13.553
63532W        W28693  24.741  32.979   3.701
63533W        W28694   4.777  40.044   1.335
63534W        W28695  37.919  33.410   2.624
63535W        W28696  33.617  30.010  12.529
63536W        W28697  13.572  12.887  11.926
63537W        W28698   1.029  10.357   0.158
63538W        W28699  10.882   6.288  10.605
63539W        W28700  33.166  34.716   2.836
63540W        W28701  30.206   9.349  14.471
63541W        W28702  25.961  23.235  14.042
63542W        W28703  26.646  30.668  14.001
63543W        W28704  39.677  13.479  13.398
63544W        W28705   2.112  38.263   4.916
63545W        W28706   8.706   9.387  12.073
63546W        W28707  25.005   0.669  13.239
63547W        W28708  32.759   1.769  11.684
63548W        W28709  27.985   3.717   3.126
63549W        W28710  44.427  37.651   3.560
63550W        W28711  35.159  43.068   3.195
63551W        W28712   9.338  18.252   4.066
63552W        W28713  24.591  21.715   1.786
63553W        W28714  12.752  16.598   0.545
63554W        W28715   4.353  32.116  14.397
63555W        W28716   3.295  29.403   1.950
63556W        W28717  33.639   3.459   4.188
63557W        W28718  38.438   5.679   3.280
63558W        W28719  33.177   3.041   2.933
63559W        W28720   6.396  17.164  10.673
63560W        W28721  17.604   2.760  10.570
63561W        W28722  42.372  40.516  11.099
63562W        W28723   2.771  17.136  11.012
63563W        W28724  44.293  13.743  13.938
63564W        W28725  21.065  41.404   2.019
63565W        W28726  35.449  38.286   4.069
63566W        W28727  32.428  20.381  10.719
63567W        W28728  10.717  33.578   1.098
63568W        W28729  11.616  29.563  12.861
63569W        W28730  13.842  22.439   2.394
63570W        W28731  33.748  11.725   0.929
63571W        W28732   0.440  37.630   5.401
63572W        W28733  16.142  29.533  12.546
63573W        W28734  12.261  36.984   3.386
63574W        W28735  29.372  25.200   3.603
63575W        W28736  42.585  28.978  13.038
63576W        W28737  44.038   7.387  12.554
63577W        W28738  38.615  41.601   3.590
63578W        W28739  13.580  17.607  11.555
63579W        W28740   1.357  34.847  11.198
63580W        W28741   2.169  22.533   4.972
63581W        W28742  10.328  14.276   3.623
63582W        W28743  33.818  31.687   3.520
63583W        W28744  15.922  22.823   2.728
63584W        W28745  11.321  23.158   0.048
63585W        W28746  19.473  28.842   3.816
63586W        W28747  33.874   6.085   3.591
63587W        W28748   9.669  21.487  12.893
63588W        W28749   0.373  20.667   0.683
63589W        W28750  25.737   7.727   1.833
63590W        W28751  37.406  35.141  11.930
63591W        W28752   5.656  35.129   1.876
63592W        W28753  32.552  40.143  10.589
63593W        W28754  32.506   9.817  11.177
63594W        W28755  12.753  28.693   4.033
63595W        W28756  35.878   1.492   0.914
63596W        W28757  30.573  37.993   1.828
63597W        W28758  32.585  31.126   1.749
63598W        W28759  38.746   4.656   0.167
63599W        W28760  16.783  35.031   3.321
63600W        W28761  38.830  19.726   0.944
63601W        W28762   3.801  18.343  13.342
63602W        W28763   6.295  13.769  14.538
63603W        W28764  34.923   1.725   1.006
63604W        W28765   3.190  39.003   2.172
63605W        W28766  17.135  28.848  12.548
63606W        W28767   0.421  39.234   4.122
63607W        W28768  38.915  31.447   2.325
63608W        W28769  12.940  25.978   2.764
63609W        W28770  34.445   5.835  11.307
63610W        W28771  37.021  39.928  10.494
63611W        W28772  40.283  43.228  12.869
63612W        W28773  18.237  24.595   2.237
63613W        W28774  36.815  14.810  11.603
63614W        W28775  26.890   4.966   4.591
63615W        W28776  43.408   6.945   2.830
63616W        W28777  41.334  29.775   3.322
63617W        W28778  41.968  23.678  10.689
63618W        W28779   5.222   0.714   3.266
63619W        W28780  14.605   4.264  10.664
63620W        W28781  12.680  41.063   3.787
63621W        W28782  12.124  22.213  14.844
63622W        W28783  21.149   8.047   4.651
63623W        W28784  40.884   7.300  12.890
63624W        W28785   2.076  42.969   0.665
63625W        W28786  22.046  35.407  11.728
63626W        W28787   6.849  18.134  13.936
63627W        W28788   3.330  31.937   0.449
63628W        W28789   6.234  23.831  14.792
63629W        W28790  10.758  37.929  13.425
63630W        W28791  34.904   2.754  13.887
63631W        W28792  30.118  40.644   1.563
63632W        W28793  24.401  31.899   4.323
63633W        W28794   7.431  40.440  14.150
63634W        W28795   7.632  41.056   3.570
63635W        W28796  43.186  38.614   1.461
63636W        W28797  18.666  14.679  12.921
63637W        W28798   4.908   4.581   3.032
63638W        W28799  38.878   4.436  10.634
63639W        W28800  28.191  39.432   2.167
63640W        W28801  14.097   8.788  13.490
63641W        W28802  38.399  44.303  14.455
63642W        W28803   0.706  18.234   0.449
63643W        W28804  43.798  43.030   4.431
63644W        W28805  27.244  39.452   4.944
63645W        W28806  44.766  25.171   3.160
63646W        W28807  35.488   1.010   1.682
63647W        W28808  24.467  18.460   2.990
63648W        W28809   6.284  12.288   1.123
63649W        W28810  32.390  27.769   4.106
63650W        W28811  29.974  37.297   3.482
63651W        W28812  27.035  35.372   0.669
63652W        W28813   2.409  41.318   5.035
63653W        W28814   6.912  13.202   4.626
63654W        W28815  40.050  26.858  14.402
63655W        W28816  24.530  17.341   0.714
63656W        W28817  44.311  32.080   2.181
63657W        W28818  20.073   8.694   0.948
63658W        W28819  38.974  17.368  13.439
63659W        W28820  27.644   7.720   0.362
63660W        W28821   2.729  35.708   1.146
63661W        W28822   1.466  10.091  13.393
63662W        W28823  17.579  25.770  12.966
63663W        W28824   6.285  16.798  11.461
63664W        W28825  35.890  39.052  12.610
63665W        W28826   9.295  24.524   0.162
63666W        W28827   3.302   4.276  11.174
63667W        W28828  31.944  22.462   0.230
63668W        W28829  17.356  32.472  10.466
63669W        W28830   6.469  43.891  14.663
63670W        W28831  23.259   7.856   4.317
63671W        W28832  36.916   7.085   4.420
63672W        W28833   7.556  28.743   0.809
63673W        W28834  17.796  44.033   3.276
63674W        W28835   7.157  30.296  12.944
63675W        W28836  31.840  17.320   3.703
63676W        W28837  41.449   3.683   1.443
63677W        W28838  28.240  43.472  12.782
63678W        W28839  19.553  16.191  12.033
63679W        W28840  28.114   4.781  13.665
63680W        W28841  24.977  26.244  13.083
63681W        W28842  27.646  42.176   2.181
63682W        W28843  20.571   4.281  13.444
63683W        W28844  43.417  35.347   3.824
63684W        W28845  26.470  30.425   1.700
63685W        W28846  30.138  28.749  12.706
63686W        W28847  23.045  11.807  10.766
63687W        W28848  25.909  24.634   1.713
63688W        W28849   1.008  10.229   4.585
63689W        W28850  23.440   7.309  12.655
63690W        W28851  39.035  43.295   2.586
63691W        W28852  38.473  44.680  10.517
63692W        W28853  36.612  11.235   2.629
63693W        W28854  40.851  13.134  11.144
63694W        W28855  33.847  32.438  11.043
63695W        W28856   2.253  36.498   0.133
63696W        W28857  26.144  24.554   4.554
63697W        W28858  18.658   9.904  12.880
63698W        W28859  12.284  24.414   1.398
63699W        W28860  31.606  40.515  11.025
63700W        W28861  15.662   6.302   3.581
63701W        W28862  19.300  11.282  11.965
63702W        W28863  15.789  43.085  10.366
63703W        W28864  16.665   6.436  11.980
63704W        W28865  17.716   0.996  14.599
63705W        W28866  33.449  31.473  11.132
63706W        W28867   4.286  37.922  10.815
63707W        W28868   8.782   0.200   4.293
63708W        W28869  36.164  41.492  11.174
63709W        W28870  34.590  24.215  12.352
63710W        W28871  38.975  33.341   2.877
63711W        W28872  40.205   2.965  13.842
63712W        W28873  18.185   8.238   3.269
63713W        W28874  41.350   6.837  11.205
63714W        W28875  34.713  19.096  11.699
63715W        W28876  14.789   2.224  14.965
63716W        W28877  30.663  22.968   5.149
63717W        W28878  23.025  19.236  14.449
63718W        W28879   9.469  24.072  13.378
63719W        W28880  11.297  37.367   1.747
63720W        W28881  20.618  33.900  14.871
63721W        W28882  30.576  24.632  13.323
63722W        W28883  22.665   8.117  13.455
63723W        W28884  38.860   2.337   3.681
63724W        W28885  17.068  37.429   0.320
63725W        W28886  26.659  42.998   2.349
63726W        W28887   6.673   5.665  13.460
63727W        W28888  32.326   1.914   2.683
63728W        W28889  10.099  24.551  12.374
63729W        W28890   2.286  40.097   1.357
63730W        W28891  13.715  39.502   1.917
63731W        W28892  26.556  26.030  12.946
63732W        W28893  33.549  11.275  13.707
63733W        W28894  43.813  26.186  10.453
63734W        W28895   8.386   9.284   2.243
63735W        W28896   6.935  32.033  11.425
63736W        W28897   0.229  27.506   1.460
63737W        W28898  34.314   8.849   1.859
63738W        W28899  28.940  40.304   4.529
63739W        W28900  31.944  41.309  14.907
63740W        W28901  37.247  28.212   0.732
63741W        W28902  37.198  29.486   0.416
63742W        W28903  34.076  19.123   1.478
63743W        W28904  17.452  40.451  10.313
63744W        W28905   6.112  39.063  14.102
63745W        W28906   1.661  39.686  14.592
63746W        W28907  24.252  13.325  14.277
63747W        W28908   7.375  12.251   4.631
63748W        W28909   8.664  43.391   4.792
63749W        W28910  30.075  36.001   2.106
63750W        W28911  41.839  15.836  12.517
63751W        W28912   1.895  33.347   3.701
63752W        W28913  21.269  15.203   0.187
63753W        W28914  30.275   6.054  11.187
63754W        W28915  27.657  18.315  11.220
63755W        W28916  37.160  26.174  12.436
63756W        W28917  39.537  12.022   1.267
63757W        W28918  13.850  17.169   3.306
63758W        W28919  21.253  27.307   4.181
63759W        W28920  34.577  22.476   0.335
63760W        W28921  38.045  43.806   0.347
63761W        W28922  26.543  38.720   2.708
63762W        W28923  43.466  28.514  12.680
63763W        W28924  20.669  10.604   0.285
63764W        W28925  40.777   5.742   3.111
63765W        W28926   2.947   1.810  10.871
63766W        W28927   0.212   8.674  12.995
63767W        W28928  44.682  10.217   4.070
63768W        W28929   3.526   7.220   2.214
63769W        W28930  17.009  15.316   1.838
63770W        W28931   8.365  25.999  14.840
63771W        W28932   8.021  28.262   4.079
63772W        W28933  27.639  13.417  14.345
63773W        W28934  31.169  10.725   3.441
63774W        W28935  43.359   9.259   1.221
63775W        W28936  19.097  40.320  13.822
63776W        W28937  13.026  33.224  14.821
63777W        W28938  36.889  28.378  12.039
63778W        W28939  17.858  17.526  10.268
63779W        W28940  22.229  41.979   4.926
63780W        W28941  32.735   8.766  11.508
63781W        W28942   6.885  14.719   1.677
63782W        W28943  43.129  19.028  11.006
63783W        W28944  26.601   1.479  11.990
63784W        W28945   3.612  18.792   3.612
63785W        W28946  10.918  40.413   1.306
63786W        W28947  12.508  26.947   1.828
63787W        W28948  44.210   1.993  14.444
63788W        W28949  18.526  19.606   4.480
63789W        W28950   3.237  34.792   3.080
63790W        W28951  23.190  31.879  12.670
63791W        W28952   6.634   9.853  12.427
63792W        W28953  11.000  33.619  11.202
63793W        W28954  11.377  23.275  11.163
63794W        W28955  29.961  38.814  12.049
63795W        W28956  11.554  43.266   0.334
63796W        W28957   7.205  21.151  11.630
63797W        W28958  33.449  32.127   0.017
63798W        W28959   8.045  21.660   2.266
63799W        W28960  15.407  36.474  11.111
63800W        W28961  32.525  35.411   4.804
63801W        W28962  41.924  44.550   0.204
63802W        W28963  18.365   4.000   2.778
63803W        W28964  30.489  20.469   2.589
63804W        W28965  32.052   7.976  10.509
63805W        W28966  44.596  33.823   2.191
63806W        W28967  36.759  38.158  12.019
63807W        W28968  18.331  34.995   1.628
63808W        W28969  37.036  19.502   1.340
63809W        W28970  40.122  38.896   2.764
63810W        W28971   5.157  30.098  10.680
63811W        W28972  24.229  44.846   1.185
63812W        W28973  23.563  26.700   1.355
63813W        W28974  20.046   9.956  12.328
63814W        W28975  34.494  39.320  14.083
63815W        W28976  38.405  27.086   4.620
63816W        W28977   1.939  11.122   1.090
63817W        W28978  14.098  41.992  12.026
63818W        W28979  39.459  29.365   1.563
63819W        W28980  12.784  24.934  14.370
63820W        W28981  43.657  16.367   4.471
63821W        W28982  41.865  44.756  14.663
63822W        W28983   7.180   2.091   3.545
63823W        W28984  23.803  25.643   4.831
63824W        W28985  25.633   4.453   1.379
63825W        W28986  28.816  21.862   2.164
63826W        W28987   0.448  33.579   2.301
63827W        W28988   1.644  10.569  13.376
63828W        W28989  44.785   8.805   4.121
63829W        W28990  14.387   6.481  14.869
63830W        W28991  39.581  32.670   1.393
63831W        W28992  22.052  43.245   4.794
63832W        W28993  29.369  30.409  11.286
63833W        W28994  12.869   6.286   2.632
63834W        W28995  44.142  34.998   2.848
63835W        W28996  12.890  20.637  13.450
63836W        W28997   4.557  36.119  14.632
63837W        W28998   3.894   6.303  13.944
63838W        W28999   3.334  16.565   1.426
63839W        W29000   0.819  18.834   2.799
63840W        W29001  22.122  25.119  12.566
63841W        W29002  38.626  34.961  11.146
63842W        W29003  33.517  27.684   3.587
63843W        W29004  18.491  35.144   2.950
63844W        W29005  13.781  12.389   3.682
63845W        W29006  19.633  34.924  12.383
63846W        W29007  41.236   8.702  14.205
63847W        W29008  25.833  13.786   4.989
63848W        W29009  24.807  24.605   3.296
63849W        W29010  43.646   9.300  12.859
63850W        W29011  17.775  11.249  13.999
63851W        W29012  30.138   9.701  13.799
63852W        W29013  22.904  26.086   2.844
63853W        W29014  17.730   7.105   4.879
63854W        W29015  14.649  43.469  12.643
63855W        W29016  43.060  35.028  13.933
63856W        W29017  22.610  19.986   3.713
63857W        W29018  14.237  37.409  10.824
63858W        W29019   8.810  33.845  13.953
63859W        W29020   3.444  17.067   2.257
63860W        W29021  13.119  26.557   3.432
63861W        W29022  14.891  44.280   4.090
63862W        W29023  36.761  42.148   4.535
63863W        W29024   4.226  33.182   4.890
63864W        W29025  31.092  16.210   0.830
63865W        W29026   8.692  15.540  14.032
63866W        W29027   9.452  35.667  12.482
63867W        W29028  39.107   1.246  12.917
63868W        W29029  41.544  44.428  13.413
63869W        W29030   2.954  16.827   4.656
63870W        W29031   2.361  33.138  12.488
63871W        W29032   5.918  14.900  10.362
63872W        W29033  44.766  13.940  14.748
63873W        W29034  30.391  17.867  11.336
63874W        W29035  34.157  19.816  11.073
63875W        W29036   2.747  31.859   1.799
63876W        W29037  33.319  22.855   3.292
63877W        W29038  16.799  31.550  10.966
63878W        W29039  10.202  21.032   5.084
63879W        W29040  43.341   2.409   3.258
63880W        W29041   5.734   3.686  12.360
63881W        W29042  35.985  38.471   1.616
63882W        W29043  12.348  17.022  10.773
63883W        W29044  25.767  16.090  14.884
63884W        W29045   2.440  11.871  13.964
63885W        W29046   8.603  25.235   0.269
63886W        W29047   1.848  10.803  14.983
63887W        W29048  16.879  33.861  12.981
63888W        W29049  35.831  42.852  10.732
63889W        W29050  40.095  34.241   3.346
63890W        W29051  34.047   5.010   4.129
63891W        W29052  19.269  30.228  13.576
63892W        W29053  36.966  22.265  10.748
63893W        W29054  37.500  43.836   1.793
63894W        W29055  44.841   3.453  11.463
63895W        W29056  16.524  22.048   0.734
63896W        W29057  41.892  27.239   2.799
63897W        W29058  22.602  12.911  11.225
63898W        W29059  27.059  39.788  13.421
63899W        W29060  25.577   5.938  14.881
63900W        W29061   3.308   9.319  11.346
63901W        W29062  35.542  27.974  11.387
63902W        W29063  40.090  12.789   0.892
63903W        W29064  11.526  19.867  14.549
63904W        W29065  17.917  38.867   1.814
63905W        W29066  24.659  29.788  12.304
63906W        W29067  32.378  42.901   4.046
63907W        W29068  32.026  32.369   4.047
63908W        W29069  22.359  10.960   2.351
63909W        W29070  18.080  31.685   0.393
63910W        W29071  11.952  42.294   0.309
63911W        W29072  24.784   0.201   3.238
63912W        W29073  10.827  39.569  14.259
63913W        W29074  11.066  33.078  12.880
63914W        W29075  38.524  21.486   1.361
63915W        W29076   0.252  42.386  10.913
63916W        W29077  20.625  35.223   4.704
63917W        W29078  17.198   6.272  14.693
63918W        W29079  10.218  14.794  14.994
63919W        W29080  25.699  38.247   4.091
63920W        W29081  31.424   2.535   4.247
63921W        W29082   1.330  13.071   2.350
63922W        W29083  31.603  16.207   4.235
63923W        W29084  41.867  26.334   5.000
63924W        W29085   9.119  15.082   1.471
63925W        W29086   6.247  41.773  13.430
63926W        W29087  43.318  31.976  14.499
63927W        W29088  16.609  16.520   2.206
63928W        W29089  21.623   3.009   3.502
63929W        W29090  29.713  28.728   2.763
63930W        W29091  40.945  16.305   4.574
63931W        W29092   7.257  31.027  13.959
63932W        W29093   7.553  32.681  14.395
63933W        W29094  15.115  11.889   2.490
63934W        W29095  26.405  29.881   2.782
63935W        W29096  10.211  19.530   3.592
63936W        W29097   9.356  10.199  13.588
63937W        W29098   3.495   8.323  12.521
63938W        W29099  27.637  43.901   3.840
63939W        W29100  28.907  22.104   3.227
63940W        W29101   8.847  11.714   2.243
63941W        W29102  29.433  31.650  10.905
63942W        W29103  20.749  41.299  13.480
63943W        W29104  30.904   8.387  13.778
63944W        W29105  29.487   6.237   1.457
63945W        W29106   0.219   5.571  12.089
63946W        W29107  10.575   1.946   1.352
63947W        W29108  28.973  15.945   0.904
63948W        W29109   7.214  34.495  13.558
63949W        W29110  39.930  25.919   3.103
63950W        W29111   3.610  18.238   1.101
63951W        W29112   1.730   6.832  14.220
63952W        W29113   8.033   8.815   4.525
63953W        W29114   4.013  16.813  11.473
63954W        W29115  44.276   5.281  14.442
63955W        W29116  11.265  40.011  10.722
63956W        W29117  18.306  15.102   4.472
63957W        W29118  12.231  31.515   2.352
63958W        W29119  41.825  33.664   0.866
63959W        W29120  33.523  42.878  14.975
63960W        W29121  14.288  20.580  11.060
63961W        W29122  32.396   9.209   4.927
63962W        W29123  21.743  29.585  12.440
63963W        W29124  19.373   9.276  10.880
63964W        W29125   9.472  13.463  12.907
63965W        W29126  39.570  40.512   2.172
63966W        W29127   9.505  20.301  10.920
63967W        W29128  17.545  28.807   1.477
63968W        W29129  22.032  36.466   3.880
63969W        W29130  43.037   1.985   1.392
63970W        W29131  12.283  28.112   2.617
63971W        W29132  25.113  27.872   5.068
63972W        W29133  36.188  18.158  12.114
63973W        W29134  18.308  23.995  12.092
63974W        W29135  26.409  27.527   0.008
63975W        W29136  31.963  34.918   2.327
63976W        W29137  39.111  26.454   3.258
63977W        W29138  36.258  30.346  11.687
63978W        W29139  25.636  16.745  14.416
63979W        W29140  32.617  26.801   4.066
63980W        W29141  38.554  30.827  13.307
63981W        W29142  16.849  44.374   1.953
63982W        W29143  40.376  19.691  11.134
63983W        W29144  14.029  33.940  11.920
63984W        W29145  15.618   2.059  10.324
63985W        W29146  19.702   2.927  12.039
63986W        W29147   0.881  43.803   4.290
63987W        W29148  11.568   0.936   1.437
63988W        W29149   9.123  30.031  11.672
63989W        W29150   9.287  34.881   1.337
63990W        W29151  20.679  39.815  14.099
63991W        W29152  10.347  12.398  11.064
63992W        W29153  25.234  36.798  13.150
63993W        W29154  12.158  42.110  11.048
63994W        W29155  28.427  22.443   4.057
63995W        W29156  23.518  43.462   3.194
63996W        W29157   7.165  14.204   4.613
63997W        W29158  26.423  10.170  11.726
63998W        W29159  36.640  29.187  13.401
63999W        W29160  28.534   7.895   0.419
64000W        W29161  13.197  13.747  14.047
64001W        W29162   4.885  17.266  12.557
64002W        W29163  24.546   4.732   2.620
64003W        W29164  11.337  17.075  10.745
64004W        W29165  42.095  37.722   1.616
64005W        W29166  34.582  29.892   5.044
64006W        W29167   6.224  29.864   0.807
64007W        W29168  31.455  15.097   2.350
64008W        W29169  15.661  25.436   2.136
64009W        W29170   3.230  37.487   3.635
64010W        W29171   2.276  10.228  11.523
64011W        W29172  10.191  20.384   0.661
64012W        W29173  22.305  25.193   0.346
64013W        W29174  30.428  29.030   1.881
64014W        W29175  35.960  14.348   1.787
64015W        W29176  30.288  16.338   0.224
64016W        W29177  34.456  44.266  11.613
64017W        W29178  29.003  33.881   1.158
64018W        W29179  20.787  36.078   4.134
64019W        W29180  11.235   8.137   3.734
64020W        W29181  10.640  27.669  12.488
64021W        W29182  43.898  24.189  10.809
64022W        W29183  13.581  43.304   9.607
64023W        W29184  28.401  26.278  12.510
64024W        W29185  15.084  32.880  14.479
64025W        W29186  43.433  12.367   2.433
64026W        W29187  11.159  19.634   3.236
64027W        W29188  36.889  33.052   1.810
64028W        W29189  37.531  20.477   3.147
64029W        W29190   5.793  26.413   3.188
64030W        W29191  26.131  23.669   0.763
64031W        W29192  19.356  21.484   1.932
64032W        W29193   1.303  14.970   4.741
64033W        W29194  25.121  21.429  11.220
64034W        W29195  36.502  19.141  13.532
64035W        W29196  23.495   2.491  14.956
64036W        W29197  36.026  43.937  13.641
64037W        W29198   9.902   0.046  10.669
64038W        W29199  22.352  39.626  14.159
64039W        W29200   6.388   4.316  12.856
64040W        W29201   0.457  40.038   2.278
64041W        W29202  18.998  14.775  14.277
64042W        W29203  27.460  40.803   2.286
64043W        W29204  14.752  11.713   1.584
64044W        W29205  14.726  11.197   4.318
64045W        W29206  35.821  12.708   0.582
64046W        W29207  12.286   0.426  10.718
64047W        W29208   2.197  37.225   1.834
64048W        W29209  10.595  16.852  11.540
64049W        W29210  18.272  27.472   1.255
64050W        W29211   5.027   2.331  12.685
64051W        W29212  21.254  18.003  10.763
64052W        W29213  25.542  32.554   1.124
64053W        W29214  20.232  41.047  12.558
64054W        W29215  30.414  33.471   4.936
64055W        W29216  36.089  18.685  11.540
64056W        W29217  30.651  32.550  13.324
64057W        W29218  27.842  36.350  13.331
64058W        W29219   0.141  39.287   5.165
64059W        W29220  23.520  32.336  10.623
64060W        W29221  22.272   5.436   3.636
64061W        W29222  40.678  43.433  12.526
64062W        W29223  37.436   3.406   1.833
64063W        W29224   8.904  23.748   0.319
64064W        W29225  25.032  22.834   2.309
64065W        W29226  43.302   6.892  12.020
64066W        W29227  43.232  31.288   1.825
64067W        W29228   2.145  27.546   5.093
64068W        W29229  26.222   6.467   1.303
64069W        W29230  36.500  32.637  11.125
64070W        W29231   8.707  34.458  11.200
64071W        W29232  43.282  36.624   3.178
64072W        W29233  23.629  24.169   1.270
64073W        W29234  30.166  17.850  14.021
64074W        W29235  21.197  38.627  10.417
64075W        W29236  24.675  15.922   3.293
64076W        W29237  11.370  27.027  14.782
64077W        W29238  30.318  17.592   2.273
64078W        W29239  43.052  37.094   3.264
64079W        W29240  35.841  28.611   1.330
64080W        W29241  31.376   9.404  12.764
64081W        W29242   5.798  42.139  12.532
64082W        W29243  42.557   5.660  13.209
64083W        W29244  44.214  33.004  12.089
64084W        W29245  29.383  11.166  14.428
64085W        W29246  25.479  32.315  13.516
64086W        W29247  36.562  18.745   1.221
64087W        W29248   3.269  41.438   1.161
64088W        W29249   5.089   4.227   2.220
64089W        W29250   1.985  26.034  11.053
64090W        W29251   1.843  35.919   4.254
64091W        W29252  40.942  33.092  14.191
64092W        W29253   8.345   7.728  12.372
64093W        W29254  10.174  18.430  12.644
64094W        W29255   9.975  25.352  11.624
64095W        W29256  33.337  22.452   1.627
64096W        W29257  10.093  15.525   0.496
64097W        W29258  30.954  26.021  13.902
64098W        W29259  17.860   5.911  12.914
64099W        W29260  20.827   8.189  11.004
64100W        W29261  41.577  18.315  13.984
64101W        W29262   4.589  36.226  14.089
64102W        W29263  15.086  24.893   2.782
64103W        W29264   0.511   5.712  12.930
64104W        W29265  20.463  22.979  12.883
64105W        W29266   3.983   0.000  11.426
64106W        W29267  15.147  10.842   3.315
64107W        W29268  25.649  14.846   1.447
64108W        W29269  13.466  32.070  13.483
64109W        W29270  27.255  39.182   3.590
64110W        W29271  19.563   9.299   5.019
64111W        W29272  18.621  29.206  13.951
64112W        W29273   5.292   8.343   0.849
64113W        W29274  24.003  16.690   0.999
64114W        W29275   3.327  18.907   4.044
64115W        W29276  30.881  33.926   3.469
64116W        W29277   5.777  28.478  14.286
64117W        W29278  33.896   2.424  13.051
64118W        W29279  16.221  13.396  11.958
64119W        W29280  13.815  19.027  14.511
64120W        W29281   5.984  21.286   4.181
64121W        W29282   6.856   5.212  10.688
64122W        W29283  23.571  26.708   4.352
64123W        W29284   5.416  22.570   0.298
64124W        W29285  33.834  29.105   4.498
64125W        W29286   4.474  29.369  12.780
64126W        W29287  16.575   1.837  12.553
64127W        W29288  25.949  30.006  11.629
64128W        W29289  16.131  32.268  10.735
64129W        W29290  42.558  26.495  10.845
64130W        W29291   6.691   6.686   3.158
64131W        W29292   6.750  38.703  12.114
64132W        W29293   9.388  22.599   3.322
64133W        W29294  20.289   7.297   4.497
64134W        W29295   2.178   3.711  11.986
64135W        W29296  40.150   4.456   2.531
64136W        W29297  24.001  41.454   2.283
64137W        W29298   1.298  31.666   0.058
64138W        W29299   3.169  16.350  14.959
64139W        W29300  33.435  17.549  14.283
64140W        W29301  18.159  38.453  11.946
64141W        W29302  12.846  14.168   1.898
64142W        W29303  36.413  23.114  13.299
64143W        W29304  22.982  28.092  13.464
64144W        W29305  10.300   3.631  10.732
64145W        W29306  40.868  28.023   2.896
64146W        W29307  19.471  17.369   2.362
64147W        W29308   9.075  15.277   1.972
64148W        W29309   0.372  23.169   3.269
64149W        W29310   9.839  39.349   2.453
64150W        W29311  29.727  10.395   2.456
64151W        W29312  36.480  36.923  11.579
64152W        W29313  24.577  19.748  10.726
64153W        W29314   2.789  11.082   0.739
64154W        W29315  34.610  19.790   4.490
64155W        W29316  15.650  35.346  10.776
64156W        W29317  32.185  14.990   3.526
64157W        W29318  44.867  26.667   1.487
64158W        W29319  40.298   8.877  14.797
64159W        W29320  14.476  39.722   2.332
64160W        W29321  14.587   2.241  12.708
64161W        W29322   1.990  10.542   1.900
64162W        W29323  11.693  33.157   3.384
64163W        W29324  40.159  34.416  11.564
64164W        W29325  34.353   3.723  12.379
64165W        W29326  32.512   1.003   4.812
64166W        W29327  28.009  33.468   4.406
64167W        W29328  19.001  18.650   3.050
64168W        W29329  25.773  26.727   4.626
64169W        W29330   3.850  12.154   0.920
64170W        W29331  38.406  32.592  12.402
64171W        W29332  29.269  14.221  12.850
64172W        W29333  43.525  10.813  14.890
64173W        W29334  19.372  13.602  12.469
64174W        W29335  27.239   0.336   0.463
64175W        W29336   2.269  22.575  11.159
64176W        W29337   2.150  35.485   3.634
64177W        W29338   0.416  35.458   1.986
64178W        W29339  26.125  40.969  14.446
64179W        W29340  13.053  29.119   2.266
64180W        W29341   0.386  24.193   0.758
64181W        W29342  21.179  33.516   4.083
64182W        W29343   4.839  19.692   4.775
64183W        W29344   0.166  25.645  14.323
64184W        W29345  41.273   1.138   2.448
64185W        W29346   7.072  43.248  14.033
64186W        W29347  37.146  22.999   1.072
64187W        W29348  17.113  23.565  10.812
64188W        W29349  31.707  38.847   1.538
64189W        W29350  43.291  12.588   1.355
64190W        W29351   6.079  36.204   9.984
64191W        W29352   1.743  41.957   2.860
64192W        W29353  30.142  41.395  13.562
64193W        W29354   3.384  20.225   4.996
64194W        W29355   2.608  43.641   0.654
64195W        W29356   0.029   7.152   4.089
64196W        W29357  21.835  11.137  10.286
64197W        W29358   0.342  39.454   1.180
64198W        W29359  20.958  15.499  12.851
64199W        W29360   2.483  26.232   2.426
64200W        W29361  27.539  20.005   0.532
64201W        W29362  30.491  34.843  11.620
64202W        W29363  19.544  14.763  14.287
64203W        W29364   4.718  40.839   3.435
64204W        W29365   7.012  33.361   4.650
64205W        W29366  35.807  30.996   0.483
64206W        W29367  37.725  16.084   4.574
64207W        W29368  40.737  28.922   2.322
64208W        W29369  31.049   1.268  11.086
64209W        W29370  19.679   7.126   0.271
64210W        W29371  38.211  14.891   1.007
64211W        W29372  32.150  14.367   4.077
64212W        W29373  29.619   8.433   3.370
64213W        W29374  43.031  26.756   4.634
64214W        W29375  39.904  34.931  10.935
64215W        W29376  33.452   3.273  10.413
64216W        W29377  26.126  32.033   3.513
64217W        W29378   8.976   0.483   0.695
64218W        W29379  21.788   7.253  11.059
64219W        W29380  13.815  26.381  12.066
64220W        W29381  35.645   6.712  13.558
64221W        W29382  31.737  29.540   2.768
64222W        W29383  17.334  34.223   4.360
64223W        W29384  38.826  17.624   0.965
64224W        W29385   2.764   2.890  12.061
64225W        W29386  10.226  10.197   4.534
64226W        W29387  31.838   3.762  14.207
64227W        W29388   3.281  40.260  11.940
64228W        W29389  41.895  20.233  13.891
64229W        W29390  21.524  15.938  11.743
64230W        W29391  21.875  25.026  12.110
64231W        W29392  26.548  44.924  14.883
64232W        W29393   1.985  32.374  13.519
64233W        W29394  32.896  28.069  14.447
64234W        W29395  25.223  39.405  14.456
64235W        W29396  19.944   6.415  12.794
64236W        W29397   8.583   0.836   0.485
64237W        W29398  24.554  40.225   4.344
64238W        W29399   3.618   7.960  11.142
64239W        W29400  43.066  33.470  13.347
64240W        W29401  12.348  18.703   0.458
64241W        W29402  13.773  37.057   4.651
64242W        W29403   5.142  15.177   9.980
64243W        W29404   3.777  16.727  12.303
64244W        W29405  21.237  29.545  12.607
64245W        W29406   7.133  31.058   2.892
64246W        W29407  26.972  35.534  11.614
64247W        W29408  12.441  36.908   2.395
64248W        W29409   1.373  27.106  11.628
64249W        W29410  29.034  15.314   3.850
64250W        W29411  30.177  19.786   2.082
64251W        W29412   1.063  31.379   4.330
64252W        W29413   2.394   4.619  14.512
64253W        W29414  26.163  17.308   4.791
64254W        W29415  35.503  20.173   4.559
64255W        W29416  43.043  24.809  13.313
64256W        W29417  32.541   0.365   1.954
64257W        W29418  29.263  30.593  13.688
64258W        W29419  20.510  33.870  13.718
64259W        W29420  30.299  42.685  11.950
64260W        W29421   0.549  25.820  13.065
64261W        W29422   4.196   6.638   0.978
64262W        W29423  15.222  44.276   0.717
64263W        W29424  12.204   7.263   2.419
64264W        W29425  29.908  13.537  13.119
64265W        W29426  18.226  14.318   2.856
64266W        W29427   9.056  42.456   1.796
64267W        W29428  39.365  14.638  10.588
64268W        W29429  44.487   5.991  13.555
64269W        W29430   4.122  30.112  10.689
64270W        W29431  19.817   1.568   3.543
64271W        W29432  14.502  24.564  12.028
64272W        W29433  40.009  34.964  11.909
64273W        W29434   4.987  18.066  11.175
64274W        W29435  15.714  23.684  12.014
64275W        W29436  19.681  31.108   1.259
64276W        W29437  41.349  14.311   1.359
64277W        W29438  21.730  32.952  11.692
64278W        W29439  19.753  41.019   4.876
64279W        W29440   2.743  39.594  11.659
64280W        W29441   3.674   4.332  14.497
64281W        W29442  16.590  27.776  14.981
64282W        W29443  39.136  23.288  11.193
64283W        W29444  27.415   5.496  10.600
64284W        W29445  31.147  16.009   2.501
64285W        W29446  16.498   4.722   1.502
64286W        W29447  12.743   8.102  10.665
64287W        W29448  35.218   3.963   4.148
64288W        W29449   2.730   9.831   0.399
64289W        W29450  33.267  44.006   3.724
64290W        W29451   5.434  17.037   3.248
64291W        W29452   1.702   5.511  11.124
64292W        W29453  37.386  44.310   0.817
64293W        W29454  26.144  17.486   3.738
64294W        W29455  12.616  29.824   4.344
64295W        W29456  13.734  44.877  12.365
64296W        W29457  38.941   5.921  13.664
64297W        W29458  11.400  11.206  12.446
64298W        W29459  35.218   7.905   2.673
64299W        W29460  20.761   0.491  14.825
64300W        W29461  12.626  42.916   4.794
64301W        W29462  44.154  30.964   2.176
64302W        W29463  29.554   2.216   4.067
64303W        W29464  31.237  26.995  12.539
64304W        W29465  19.845  33.162   0.854
64305W        W29466  19.460  32.496  13.872
64306W        W29467  38.256  23.539   0.246
64307W        W29468  30.553   6.534   3.816
64308W        W29469  34.648  30.825  13.958
64309W        W29470  33.004   0.671   0.529
64310W        W29471  43.413   1.798  13.858
64311W        W29472  15.232  36.911   0.360
64312W        W29473  43.055  41.405   0.907
64313W        W29474  32.707  37.464  11.463
64314W        W29475   7.262  28.647   3.064
64315W        W29476  44.974  25.123   3.875
64316W        W29477   8.771  23.925   3.273
64317W        W29478   7.453  15.763   2.156
64318W        W29479  19.759  44.610  10.765
64319W        W29480  23.614  22.532   2.266
64320W        W29481  25.267  21.638  14.360
64321W        W29482  22.326   0.259   0.356
64322W        W29483  15.381   5.291  11.939
64323W        W29484  36.028  33.888   4.584
64324W        W29485  44.564  34.556  12.996
64325W        W29486  22.151  33.823   3.100
64326W        W29487  35.398  35.385  11.512
64327W        W29488  20.197   0.309  11.457
64328W        W29489   8.357   2.447  11.566
64329W        W29490   4.842   2.793   3.545
64330W        W29491  26.372   7.814  14.978
64331W        W29492  15.328  29.429  10.858
64332W        W29493  26.666  24.690   1.367
64333W        W29494  17.827  11.357   1.019
64334W        W29495  19.760  43.050  10.439
64335W        W29496  27.033  11.107  12.457
64336W        W29497  32.028   5.164  11.528
64337W        W29498  44.862  26.800  14.900
64338W        W29499  36.820  39.701   2.268
64339W        W29500  18.669   3.876   2.246
64340W        W29501  11.422   9.251   0.318
64341W        W29502  16.209  41.032   1.237
64342W        W29503  41.819  29.585   3.173
64343W        W29504  41.944  22.019   3.345
64344W        W29505   4.817  40.225   4.239
64345W        W29506  36.610  27.834   3.062
64346W        W29507   1.880  32.100  11.951
64347W        W29508  40.978  38.148   4.031
64348W        W29509  10.598  33.230  11.194
64349W        W29510   5.815  15.120  13.483
64350W        W29511  30.366  33.880   3.567
64351W        W29512  10.398  39.971  12.136
64352W        W29513  27.492   7.795  13.767
64353W        W29514   0.319  10.060   1.294
64354W        W29515  21.127  43.518   2.787
64355W        W29516  25.098   2.392  11.914
64356W        W29517   0.977   0.802   0.973
64357W        W29518  37.491   1.949  11.025
64358W        W29519  42.590  43.899  14.235
64359W        W29520  39.871  43.478   0.500
64360W        W29521   4.182  19.612   2.014
64361W        W29522   6.845   7.222   2.410
64362W        W29523  34.386  43.224   2.710
64363W        W29524   5.860  12.581  11.450
64364W        W29525  17.236  26.298   4.122
64365W        W29526  24.486   6.327  13.798
64366W        W29527  12.707  31.621  14.901
64367W        W29528  12.829  40.737   0.267
64368W        W29529  14.402  30.228   0.418
64369W        W29530  21.592   1.510   1.269
64370W        W29531  35.283   2.942   3.836
64371W        W29532  26.361  22.535  14.098
64372W        W29533  31.667  42.866  13.323
64373W        W29534  41.948  35.808   1.512
64374W        W29535  31.382   4.875   1.766
64375W        W29536  16.737   5.736  14.722
64376W        W29537  25.533   8.492  13.209
64377W        W29538  22.966  18.200  11.697
64378W        W29539  22.009  44.012   1.982
64379W        W29540  42.733  41.975  13.449
64380W        W29541  15.323   2.885   0.997
64381W        W29542   6.921  25.014   0.254
64382W        W29543   0.361  42.256  14.643
64383W        W29544  13.871  44.825  14.269
64384W        W29545  37.264   2.255   3.548
64385W        W29546   8.976  37.910   3.268
64386W        W29547  24.563  18.376   4.600
64387W        W29548  34.187  32.069  11.088
64388W        W29549  28.115  34.806  13.414
64389W        W29550   1.292  10.746  14.851
64390W        W29551   6.278  34.232   4.977
64391W        W29552  38.007  35.933   2.791
64392W        W29553  30.957  36.831   0.790
64393W        W29554  43.084  14.819   1.350
64394W        W29555  20.345   1.947  13.390
64395W        W29556  37.353  12.745  14.032
64396W        W29557  44.404   8.873  11.221
64397W        W29558  26.079  42.557  10.484
64398W        W29559   5.418  12.923  11.417
64399W        W29560  18.013  24.984   2.855
64400W        W29561  28.715   0.382   0.577
64401W        W29562   4.941  34.936  14.785
64402W        W29563  22.773  36.961   1.999
64403W        W29564  31.080  41.577  13.400
64404W        W29565  32.866  11.605   0.292
64405W        W29566  31.039  43.528   2.606
64406W        W29567   6.751  16.881  10.992
64407W        W29568  21.709   2.220  11.169
64408W        W29569  11.689  34.345  12.632
64409W        W29570  38.505  30.604  11.191
64410W        W29571   5.884  37.728  11.714
64411W        W29572  33.892   0.710   3.458
64412W        W29573  11.525  25.952  13.333
64413W        W29574  28.212  19.469   0.161
64414W        W29575  17.105  44.528   4.101
64415W        W29576  31.902  14.630  10.605
64416W        W29577   2.753  16.383   4.875
64417W        W29578  38.177  11.212  11.662
64418W        W29579  25.935  35.900   3.601
64419W        W29580  40.990   2.241   4.050
64420W        W29581  44.282  34.393   2.278
64421W        W29582   5.817   5.720  10.600
64422W        W29583   4.166   6.613   4.568
64423W        W29584  14.693  23.122  10.933
64424W        W29585  24.431  11.140  12.254
64425W        W29586   4.827  33.339  14.800
64426W        W29587  31.786  13.918  13.460
64427W        W29588  21.994  33.888  13.821
64428W        W29589  37.310  28.627  12.879
64429W        W29590   4.843  39.832  14.323
64430W        W29591  40.329  37.775   1.506
64431W        W29592   6.664  34.524   2.276
64432W        W29593  38.728  35.363   2.727
64433W        W29594  34.991  26.920   4.194
64434W        W29595   4.559  36.556  13.291
64435W        W29596  16.562  22.053   0.222
64436W        W29597  11.446  36.826   0.954
64437W        W29598   6.463  38.444   3.198
64438W        W29599  44.484   7.841  13.483
64439W        W29600  43.031  41.778  10.440
64440W        W29601  26.942  35.533  14.704
64441W        W29602  29.466  41.452  12.145
64442W        W29603  42.941  42.369   2.874
64443W        W29604  35.102  22.243   0.813
64444W        W29605  18.720  32.239  14.235
64445W        W29606  16.215  44.786  10.158
64446W        W29607  15.864   7.580  11.537
64447W        W29608  33.267  34.132   0.395
64448W        W29609  18.547  21.438   4.958
64449W        W29610  13.539  36.017  12.674
64450W        W29611  17.659   7.316   2.409
64451W        W29612  34.178  24.572  10.223
64452W        W29613   7.311  15.931   2.657
64453W        W29614  43.602   9.784   1.248
64454W        W29615  33.357   4.593  11.369
64455W        W29616  16.498   3.382  12.607
64456W        W29617  21.683  27.570   0.018
64457W        W29618  27.295  29.181  12.533
64458W        W29619  37.427  22.498  10.749
64459W        W29620  17.700  17.135  13.551
64460W        W29621  25.155  41.889  12.910
64461W        W29622   5.299  10.150   1.640
64462W        W29623  34.547  25.659   1.289
64463W        W29624   5.462  18.247  12.061
64464W        W29625  21.678   5.906  10.765
64465W        W29626  10.121  38.671   1.957
64466W        W29627  16.290  23.778   3.593
64467W        W29628  36.411  17.703   4.077
64468W        W29629  29.623  32.846  12.122
64469W        W29630  38.121  16.315  11.516
64470W        W29631   5.654  18.756  13.935
64471W        W29632   5.702   1.263   3.634
64472W        W29633  24.285  28.245  10.644
64473W        W29634  23.280  11.179   2.341
64474W        W29635  41.265  28.926   3.084
64475W        W29636  16.824  44.330   3.683
64476W        W29637  31.084  28.764   4.631
64477W        W29638  34.980   8.894   1.968
64478W        W29639  42.913  20.542  10.772
64479W        W29640  33.677   2.471  13.527
64480W        W29641  41.886  18.481  12.431
64481W        W29642  40.892  16.790   3.619
64482W        W29643  34.984  14.734   0.513
64483W        W29644  14.245   7.623   0.900
64484W        W29645  33.524  42.495  11.327
64485W        W29646   7.275  20.724  14.920
64486W        W29647  23.766   7.908   3.302
64487W        W29648  33.050  37.366   2.145
64488W        W29649  42.337  41.025  14.329
64489W        W29650   8.090   8.625   3.390
64490W        W29651   3.542   2.274  12.370
64491W        W29652  19.109  32.257  14.603
64492W        W29653   5.931  16.815  14.886
64493W        W29654  30.960  36.111   4.560
64494W        W29655   9.478  29.109   4.706
64495W        W29656   7.323  38.856   2.253
64496W        W29657  30.477   8.348  14.573
64497W        W29658  13.668  25.681  13.982
64498W        W29659  34.163  27.692  13.856
64499W        W29660  28.982   1.508   0.421
64500W        W29661  21.791  35.554   2.142
64501W        W29662   9.204  38.083  12.531
64502W        W29663  20.212  31.296  13.184
64503W        W29664  29.116  42.120   2.672
64504W        W29665  16.517  30.507  12.985
64505W        W29666   7.642  43.764   2.788
64506W        W29667  31.404  29.689  14.816
64507W        W29668   6.436   2.389   1.289
64508W        W29669  42.990  44.145  10.535
64509W        W29670  26.614  11.078  12.793
64510W        W29671  27.337  19.609  11.018
64511W        W29672   4.663   5.712  13.390
64512W        W29673  39.945  27.599  11.586
64513W        W29674   6.486  30.167  10.164
64514W        W29675  12.823   9.163  13.146
64515W        W29676   4.015  22.505   1.402
64516W        W29677   3.456  25.554   2.682
64517W        W29678  37.000  24.599  10.586
64518W        W29679  11.263  36.737  13.968
64519W        W29680  40.672  36.786   4.599
64520W        W29681  38.139   1.523  10.325
64521W        W29682  15.045  23.490  12.255
64522W        W29683  34.557  23.226   0.704
64523W        W29684   5.354   5.671   0.933
64524W        W29685  12.156  34.127  12.511
64525W        W29686  20.723  36.042  13.369
64526W        W29687  30.433  26.098  10.604
64527W        W29688   2.236  14.628  14.453
64528W        W29689   4.480   6.711   2.725
64529W        W29690   1.302  42.373   3.711
64530W        W29691  42.732  10.608  12.871
64531W        W29692  20.192  22.118  14.276
64532W        W29693  23.916   6.565   1.576
64533W        W29694  21.145  15.555   2.832
64534W        W29695  24.425  20.903  11.186
64535W        W29696  26.874  29.503   1.645
64536W        W29697  41.037   7.831   0.028
64537W        W29698  25.752   7.009  12.125
64538W        W29699  17.206  17.096  14.878
64539W        W29700  19.670  11.111   4.135
64540W        W29701  31.270  17.486  13.037
64541W        W29702   1.826  15.129   4.632
64542W        W29703   9.373  23.726  10.756
64543W        W29704   3.229   5.904  14.481
64544W        W29705   1.220   7.209   0.884
64545W        W29706  21.508   3.249   1.720
64546W        W29707   7.357  30.805   0.382
64547W        W29708  14.174  31.900   2.210
64548W        W29709  44.299  14.214  10.294
64549W        W29710  39.347  43.049   2.238
64550W        W29711  23.787   4.791  10.617
64551W        W29712  32.180  12.107  14.531
64552W        W29713  38.077  23.656  13.907
64553W        W29714  19.277  10.284  13.005
64554W        W29715  36.814  28.649   0.943
64555W        W29716  43.878  16.899   2.828
64556W        W29717  14.358  17.329  14.954
64557W        W29718   8.378   3.731  14.744
64558W        W29719  29.047  19.592  13.493
64559W        W29720  17.305  38.189   0.609
64560W        W29721  17.820   6.224   1.799
64561W        W29722  39.793  33.917   3.053
64562W        W29723  22.516  20.098   0.338
64563W        W29724  29.368  20.119   1.569
64564W        W29725  25.303   4.797   5.355
64565W        W29726  35.970  33.902  12.118
64566W        W29727  33.380  11.302  11.820
64567W        W29728  12.611  14.881   4.127
64568W        W29729  40.729  16.120   4.146
64569W        W29730  30.075  10.413   1.322
64570W        W29731  35.097   5.620  14.941
64571W        W29732  43.364  28.935  10.617
64572W        W29733  36.958  44.369  13.318
64573W        W29734   3.818  35.118  12.583
64574W        W29735  40.830  25.638   2.659
64575W        W29736  13.268  23.083  12.453
64576W        W29737   9.917  11.768  10.547
64577W        W29738   6.308   0.477  14.262
64578W        W29739  11.374  40.336  11.087
64579W        W29740   6.725  23.747  11.108
64580W        W29741   3.005  43.180   2.250
64581W        W29742  42.899  23.018   4.386
64582W        W29743  38.923   2.934   3.025
64583W        W29744  22.257  24.181   2.065
64584W        W29745  44.017  13.301   1.545
64585W        W29746  23.633  38.469   9.687
64586W        W29747  11.838  22.513   3.384
64587W        W29748  15.521  10.711  13.974
64588W        W29749   9.003  37.520  12.079
64589W        W29750  25.657  38.048  12.899
64590W        W29751  15.240  28.551  12.076
64591W        W29752  39.660  24.148  10.626
64592W        W29753  38.310  24.115  13.997
64593W        W29754   9.161  43.052  11.037
64594W        W29755  32.648  33.574   1.901
64595W        W29756  27.823  12.562   1.319
64596W        W29757  20.031  14.850   1.266
64597W        W29758  15.238   0.561   1.103
64598W        W29759  14.305  31.479  13.855
64599W        W29760  10.300   6.985  12.147
64600W        W29761  14.783  20.155  13.598
64601W        W29762  33.130   5.905  12.428
64602W        W29763  43.910  17.679   0.345
64603W        W29764  36.029   3.875  12.012
64604W        W29765  29.059  39.808   1.854
64605W        W29766  38.825  27.670  13.317
64606W        W29767  38.160  15.573   0.365
64607W        W29768  37.502  20.531   2.644
64608W        W29769  23.225   1.601  12.466
64609W        W29770  36.934  12.743   0.009
64610W        W29771  24.229  22.705  13.760
64611W        W29772  27.061  38.313   1.741
64612W        W29773   1.804  38.059  11.669
64613W        W29774  32.060  21.448   0.470
64614W        W29775   4.695  27.598  14.296
64615W        W29776  14.614  39.211   2.953
64616W        W29777  38.972  10.551  11.045
64617W        W29778  31.036   4.672  13.454
64618W        W29779  41.277  11.770  14.341
64619W        W29780  15.066  17.595   2.739
64620W        W29781  16.537  26.810   2.644
64621W        W29782   1.310  24.755   0.893
64622W        W29783  42.711  30.540  13.872
64623W        W29784  37.607  30.655  13.387
64624W        W29785  43.029  41.543  14.236
64625W        W29786  19.316  43.380   2.669
64626W        W29787  24.136  42.172  10.660
64627W        W29788  35.897  15.618   1.313
64628W        W29789  40.934  11.965  12.378
64629W        W29790  35.945  42.975   4.695
64630W        W29791  17.264  33.480   2.211
64631W        W29792  42.405  41.940   4.785
64632W        W29793  25.642  17.138   3.604
64633W        W29794   6.586  14.317   1.914
64634W        W29795  15.439  13.385   4.111
64635W        W29796   1.496  12.036   5.018
64636W        W29797   8.322  21.274   4.429
64637W        W29798   4.295  42.213   2.236
64638W        W29799  32.060  27.615  10.539
64639W        W29800  31.743  18.353  12.343
64640W        W29801   6.947  13.676  13.919
64641W        W29802  24.478  34.603   0.269
64642W        W29803   9.398  32.709  13.444
64643W        W29804  24.713  36.298   4.948
64644W        W29805  27.174  10.449  14.496
64645W        W29806  30.365   0.834  10.984
64646W        W29807  39.323  25.843  13.357
64647W        W29808  21.594  26.290  11.390
64648W        W29809  16.095   2.198   1.646
64649W        W29810  31.488  18.005  10.481
64650W        W29811  27.625  22.092   0.250
64651W        W29812  13.344  12.099   3.817
64652W        W29813  19.660  10.368  10.194
64653W        W29814  12.761  38.361  11.784
64654W        W29815  11.571   6.656   2.386
64655W        W29816  32.496   5.527   2.864
64656W        W29817  15.949  13.517  12.969
64657W        W29818  43.337  16.542   0.975
64658W        W29819  10.606  13.221   2.880
64659W        W29820  16.619  41.499  13.233
64660W        W29821  20.755  40.501   1.849
64661W        W29822  26.642  44.527  13.957
64662W        W29823  19.241   3.759  10.911
64663W        W29824  37.927  15.817   3.292
64664W        W29825  38.502  38.998   1.570
64665W        W29826  15.655  35.961  12.159
64666W        W29827  32.137  28.057  11.812
64667W        W29828  32.359   4.457  10.291
64668W        W29829   8.351  24.188  11.445
64669W        W29830  40.371   0.463   2.860
64670W        W29831  28.172  24.027  11.148
64671W        W29832  31.333  38.389   4.500
64672W        W29833   4.165  27.215  10.662
64673W        W29834  44.978  39.987   4.668
64674W        W29835  44.258  21.589   2.838
64675W        W29836  10.914   0.265   1.851
64676W        W29837  30.130  28.356  14.420
64677W        W29838  18.589  28.954   3.494
64678W        W29839  44.795  33.508   0.976
64679W        W29840   9.241  41.598  13.987
64680W        W29841  29.918  40.330  12.974
64681W        W29842   0.203  41.187  12.097
64682W        W29843   3.457  15.415  14.974
64683W        W29844   3.331  35.462  14.384
64684W        W29845  23.222  21.624  12.613
64685W        W29846  43.758  30.512   0.955
64686W        W29847  28.635   9.250   2.762
64687W        W29848  30.538  41.013   3.671
64688W        W29849  12.751  12.630  11.157
64689W        W29850  10.139  16.799   3.601
64690W        W29851  35.323  12.068  10.612
64691W        W29852  39.515  44.244   4.110
64692W        W29853  28.224   8.793  14.876
64693W        W29854   2.442  42.177   3.641
64694W        W29855  28.981  31.367  12.913
64695W        W29856  16.178  33.474  14.399
64696W        W29857  35.128  11.309   1.301
64697W        W29858  44.426  30.420  12.727
64698W        W29859   3.410   3.251  14.536
64699W        W29860  25.715  34.156  11.386
64700W        W29861   7.261  42.463   2.216
64701W        W29862  14.052  26.993  12.131
64702W        W29863   6.636  24.259  11.159
64703W        W29864  21.317  27.746  12.525
64704W        W29865  13.213  24.170  14.603
64705W        W29866  16.810   2.199   3.812
64706W        W29867  30.494   2.428  10.740
64707W        W29868  15.309  14.071   0.794
64708W        W29869  10.400   6.862   2.587
64709W        W29870   6.746  36.354  12.991
64710W        W29871  24.439  38.972   1.819
64711W        W29872   2.686  13.631  11.682
64712W        W29873  37.849  12.707   4.179
64713W        W29874  14.283  37.960   3.950
64714W        W29875   6.343  10.515   1.235
64715W        W29876  21.158  12.210   4.581
64716W        W29877  25.019  44.232  14.280
64717W        W29878   3.116  35.724   3.598
64718W        W29879  14.135  14.917  13.342
64719W        W29880  20.271   1.786  12.534
64720W        W29881  17.170   4.373  11.918
64721W        W29882  33.300   8.674  10.123
64722W        W29883  16.573  26.875  11.814
64723W        W29884  34.495  17.819  11.771
64724W        W29885  25.585  25.724   4.739
64725W        W29886  25.495  19.751  12.839
64726W        W29887  27.551  43.482   3.529
64727W        W29888  33.116  37.961  12.003
64728W        W29889   1.945  41.803  12.500
64729W        W29890  43.006  22.610  11.137
64730W        W29891  42.805  31.483  12.494
64731W        W29892  28.051  14.562  10.714
64732W        W29893  42.508  13.489   0.836
64733W        W29894  13.921  23.069  14.774
64734W        W29895  24.242  39.635   2.475
64735W        W29896  22.028  43.805  11.946
64736W        W29897  19.840  24.910   9.681
64737W        W29898  34.490  28.925  13.196
64738W        W29899  20.605   0.124  10.660
64739W        W29900  43.659  34.061  10.276
64740W        W29901  15.587  13.694  13.365
64741W        W29902   9.811  20.959  12.905
64742W        W29903  42.295  20.574   0.548
64743W        W29904  44.714  29.884  12.511
64744W        W29905   7.770  10.577   1.366
64745W        W29906  14.810  36.911   4.473
64746W        W29907  41.600   5.276   2.344
64747W        W29908   5.998   4.370  11.038
64748W        W29909  23.488  14.805  10.690
64749W        W29910  14.376   5.981  14.760
64750W        W29911  11.186  27.101   4.258
64751W        W29912   9.262  14.282  10.914
64752W        W29913  11.200  10.852   1.251
64753W        W29914  23.945  34.123  10.332
64754W        W29915  29.548  37.637  12.239
64755W        W29916  16.103  25.951   0.424
64756W        W29917   0.278   8.695   2.794
64757W        W29918   9.558  31.138   3.885
64758W        W29919  21.440  37.131   3.526
64759W        W29920   1.008  27.260   3.656
64760W        W29921  40.948   4.394  14.536
64761W        W29922  40.353   3.310  11.464
64762W        W29923  33.305  38.523  11.008
64763W        W29924  15.847  22.040   3.152
64764W        W29925  42.497  35.261   3.781
64765W        W29926  21.144  32.377   3.636
64766W        W29927  28.858  33.357  10.589
64767W        W29928  37.805  21.833  13.777
64768W        W29929  39.300   2.216   4.042
64769W        W29930  13.161   4.404   3.402
64770W        W29931   5.966  35.530   2.022
64771W        W29932  26.859  26.539   3.372
64772W        W29933   0.992  25.701   1.117
64773W        W29934   3.273  35.269   3.830
64774W        W29935  11.653  41.335  10.091
64775W        W29936   7.824  41.783   3.169
64776W        W29937  15.641   6.097   0.387
64777W        W29938  29.868   6.028  13.458
64778W        W29939  39.952  24.301   1.594
64779W        W29940  26.156   9.774   0.257
64780W        W29941   4.003  19.671  14.803
64781W        W29942  40.054  27.124   4.164
64782W        W29943   2.168   8.357  12.285
64783W        W29944  39.803  21.681  11.665
64784W        W29945   3.310  32.448   4.681
64785W        W29946   2.515  28.179   3.101
64786W        W29947  22.081  17.469  10.695
64787W        W29948  18.213  30.185  12.956
64788W        W29949  39.607  41.495  14.383
64789W        W29950  13.801  10.401   1.873
64790W        W29951  36.412  23.509   4.047
64791W        W29952  43.302  29.372   2.653
64792W        W29953  35.379  14.848   1.463
64793W        W29954   2.832  44.918  13.463
64794W        W29955  41.798   0.446   2.891
64795W        W29956  19.684  30.471   1.301
64796W        W29957  11.132  14.417   4.228
64797W        W29958  27.626  20.026  14.059
64798W        W29959  22.707  13.796  14.465
64799W        W29960  14.269  23.845  14.459
64800W        W29961  25.022  19.277  14.069
64801W        W29962  32.401  44.596  13.891
64802W        W29963  31.170  27.351   2.369
64803W        W29964  35.100  12.886   2.841
64804W        W29965  34.499  13.848  10.849
64805W        W29966   1.924  20.187   4.114
64806W        W29967  21.042  23.249   4.539
64807W        W29968  37.734  25.265  11.072
64808W        W29969  37.581  21.570  11.930
64809W        W29970   0.384  26.519  13.403
64810W        W29971  25.702   2.764  13.964
64811W        W29972   8.867  40.334   0.562
64812W        W29973  14.879  33.498   9.830
64813W        W29974  15.424  11.097   0.733
64814W        W29975   1.641  42.441  10.726
64815W        W29976   5.469  39.010   2.137
64816W        W29977  39.084  23.417  13.843
64817W        W29978  15.122  14.672   3.626
64818W        W29979  35.857   0.925   4.540
64819W        W29980  19.834  38.619  14.517
64820W        W29981  30.849  43.401  12.083
64821W        W29982  27.981  21.992   2.181
64822W        W29983   9.299  11.258   1.060
64823W        W29984   1.877   1.229   4.058
64824W        W29985  34.006  15.145  14.752
64825W        W29986  38.979  30.868   0.575
64826W        W29987  24.038  31.936   1.811
64827W        W29988  12.786  38.849  10.735
64828W        W29989  20.664  32.863  13.502
64829W        W29990  14.248  18.126   4.210
64830W        W29991  35.261   6.731   4.079
64831W        W29992  42.989  35.515   3.081
64832W        W29993  12.084  34.523  11.434
64833W        W29994   0.854  18.068   3.257
64834W        W29995   0.237  26.632   2.333
64835W        W29996  30.881  23.800  12.271
64836W        W29997  26.175  12.707  11.126
64837W        W29998  36.988  44.786  14.488
64838W        W29999  11.599  14.153   1.475
64839W        W30000  32.048  21.220  13.030
64840W        W30001  32.734  21.629   2.197
64841W        W30002   9.849   8.667  10.649
64842W        W30003  20.175   5.594   2.967
64843W        W30004  27.554  33.380   0.338
64844W        W30005   8.175  19.505   0.301
64845W        W30006  27.450  22.026   4.277
64846W        W30007   2.719  43.370   2.661
64847W        W30008  14.224   4.156  14.304
64848W        W30009  18.072  36.913   3.082
64849W        W30010   4.729   5.786   1.858
64850W        W30011  26.045  21.323  10.713
64851W        W30012   4.324   0.506   0.854
64852W        W30013  37.460  18.114  12.435
64853W        W30014  15.166  29.618   0.985
64854W        W30015  12.344  28.853   1.865
64855W        W30016  31.186   2.772   1.693
64856W        W30017  36.470  11.578   1.743
64857W        W30018   2.958   1.914  11.939
64858W        W30019  10.781   5.494   1.274
64859W        W30020  43.511  24.439   1.165
64860W        W30021  18.068  43.927   2.867
64861W        W30022   5.233  34.568  11.613
64862W        W30023  29.135  42.031   2.161
64863W        W30024  29.021  16.188  10.925
64864W        W30025   7.693  39.912  12.669
64865W        W30026  22.113  28.113   1.782
64866W        W30027  28.739  36.790  14.238
64867W        W30028  39.927  40.687  14.363
64868W        W30029  35.445  39.566   0.665
64869W        W30030  38.087  11.163   3.063
64870W        W30031  27.911  37.586  10.970
64871W        W30032   1.380   3.916   2.809
64872W        W30033   9.171   4.728   3.196
64873W        W30034  15.076   1.300   1.930
64874W        W30035  38.704  22.643   3.060
64875W        W30036  30.602  33.519  14.295
64876W        W30037  20.413  20.053   4.672
64877W        W30038  17.010  10.866  13.780
64878W        W30039   9.202  30.566   2.265
64879W        W30040  44.000   5.632   0.943
64880W        W30041  36.004  19.548  10.743
64881W        W30042  18.619  36.052  12.957
64882W        W30043  17.024  30.620   4.688
64883W        W30044  31.328   7.469   0.415
64884W        W30045  14.727  27.387  13.489
64885W        W30046  18.204  10.803   4.929
64886W        W30047  27.186  37.377  14.372
64887W        W30048   9.665   4.678   3.163
64888W        W30049  19.145   4.256  11.112
64889W        W30050  23.019  10.676  11.452
64890W        W30051  24.516   5.094   4.526
64891W        W30052  44.016  31.533  13.939
64892W        W30053  10.652   2.718  12.462
64893W        W30054   9.315  34.557  11.850
64894W        W30055  15.764  43.301   3.725
64895W        W30056  23.473  35.050  12.508
64896W        W30057  36.866  15.418  12.939
64897W        W30058  16.729  35.742   0.390
64898W        W30059  12.272  27.593   2.828
64899W        W30060   9.803  37.374   4.607
64900W        W30061  18.108   8.898  12.609
64901W        W30062  43.272  34.734   2.685
64902W        W30063  44.375  13.235  14.106
64903W        W30064   7.393  35.644  11.148
64904W        W30065  28.912  14.155   4.635
64905W        W30066  26.486  11.642   1.291
64906W        W30067  37.040  21.866   1.067
64907W        W30068  28.002  11.125   3.330
64908W        W30069  39.335  34.911   1.711
64909W        W30070  27.281  37.378   3.130
64910W        W30071   7.683   2.988  11.725
64911W        W30072  38.664  17.549  10.795
64912W        W30073  14.857  33.472  13.278
64913W        W30074  22.098  38.429   3.616
64914W        W30075  26.984  24.511  13.897
64915W        W30076   3.688   6.674   3.293
64916W        W30077  22.655  12.173   3.376
64917W        W30078  24.091  19.640  11.418
64918W        W30079  39.738  29.120  13.295
64919W        W30080  18.121  19.506  12.450
64920W        W30081   6.582  11.281  11.925
64921W        W30082  29.481  30.124  10.646
64922W        W30083   1.200  37.060  14.962
64923W        W30084  24.872   0.062  11.627
64924W        W30085  23.386   6.238  10.879
64925W        W30086  32.940  40.994  14.067
64926W        W30087  17.994  44.586  14.340
64927W        W30088  27.964   6.674  13.185
64928W        W30089  38.778  19.245   4.415
64929W        W30090  42.536  24.930  12.090
64930W        W30091   6.808  32.445  14.833
64931W        W30092  31.080   8.134   4.555
64932W        W30093  32.447   3.272  14.489
64933W        W30094  31.432  32.493  13.943
64934W        W30095  35.783  23.776   4.518
64935W        W30096  40.775   1.286  12.457
64936W        W30097  44.669  22.771  10.391
64937W        W30098  30.047  10.176  13.984
64938W        W30099  24.260  20.089  11.595
64939W        W30100  11.840  22.439  14.124
64940W        W30101  21.608  34.291   4.119
64941W        W30102  11.687   6.761  14.009
64942W        W30103  28.450  11.202  14.351
64943W        W30104   4.519  13.011  11.581
64944W        W30105   8.435  25.695   9.535
64945W        W30106   9.089   9.434  13.985
64946W        W30107   7.752  21.057  11.387
64947W        W30108  23.795  26.040   2.537
64948W        W30109  10.302  37.197   1.857
64949W        W30110  24.186  14.082  13.838
64950W        W30111  11.977  16.899  11.541
64951W        W30112  37.496   3.839  11.292
64952W        W30113  29.518  28.362   1.017
64953W        W30114  33.936  37.337  14.477
64954W        W30115  17.930  23.043   0.052
64955W        W30116   4.559  14.753   0.776
64956W        W30117   0.898  17.041  14.767
64957W        W30118  17.302  43.117   3.191
64958W        W30119  35.406  12.319  11.468
64959W        W30120  14.457   6.716  14.291
64960W        W30121  37.231   8.116  13.895
64961W        W30122  14.335  20.806  10.609
64962W        W30123  22.725  40.098  14.383
64963W        W30124   5.856  22.843   0.386
64964W        W30125  43.477  14.230  11.686
64965W        W30126  41.927  39.512  10.607
64966W        W30127  40.024  36.532   1.939
64967W        W30128  34.674  10.817  13.028
64968W        W30129  16.997  27.528  14.752
64969W        W30130   4.512   0.947   2.694
64970W        W30131  36.812  33.206  11.470
64971W        W30132  34.510  35.483  10.924
64972W        W30133  40.962  19.062   2.440
64973W        W30134   1.358  34.153   2.325
64974W        W30135  27.941   1.397   3.988
64975W        W30136  42.255   5.358   4.133
64976W        W30137  31.614  31.495  11.483
64977W        W30138   2.946   0.455  14.423
64978W        W30139  14.840  21.884   1.911
64979W        W30140  20.658  35.566  12.607
64980W        W30141  36.893  26.993   1.812
64981W        W30142  14.077  18.309   3.737
64982W        W30143  18.274  11.627   0.896
64983W        W30144  21.403   4.045  12.044
64984W        W30145  32.324  26.287   2.297
64985W        W30146   6.291  14.719  13.441
64986W        W30147  29.509  19.487   3.261
64987W        W30148  30.133  30.181  14.842
64988W        W30149  44.887  25.706  11.976
64989W        W30150  31.118   0.017   2.496
64990W        W30151  18.283   2.942  12.500
64991W        W30152  11.386  27.659  14.836
64992W        W30153  40.985  44.473  14.931
64993W        W30154  14.160  14.127   2.453
64994W        W30155  14.553  23.993  14.929
64995W        W30156  21.078  12.603   1.887
64996W        W30157   9.789  31.088  14.475
64997W        W30158  30.426  39.408   4.641
64998W        W30159  22.670  38.603   1.191
64999W        W30160   8.998   6.999  11.949
65000W        W30161  38.460   6.939  11.175
65001W        W30162  29.441  27.573  14.452
65002W        W30163  31.886  35.946   2.537
65003W        W30164   5.420  26.296   2.329
65004W        W30165  24.939  29.023  13.454
65005W        W30166   4.372  35.421  14.488
65006W        W30167  32.675   2.409  12.445
65007W        W30168  33.406   6.897  11.255
65008W        W30169  34.015  40.637   3.605
65009W        W30170  10.050  37.815  10.231
65010W        W30171  41.995  27.658  10.695
65011W        W30172  37.075  39.249   4.529
65012W        W30173  11.383  17.397   2.255
65013W        W30174   4.192  32.545  11.176
65014W        W30175   3.260  20.299   2.522
65015W        W30176   8.371  31.869  13.440
65016W        W30177  19.032   8.843   4.684
65017W        W30178  23.565  10.242   4.457
65018W        W30179  35.363  44.885   2.305
65019W        W30180  33.635  13.146  12.819
65020W        W30181  28.697  26.793  13.739
65021W        W30182   3.854  13.238   2.362
65022W        W30183  33.600  15.119  14.377
65023W        W30184  16.136  28.583  12.352
65024W        W30185   4.804  16.308   3.111
65025W        W30186  14.596   7.423   0.028
65026W        W30187   2.935  14.102   2.951
65027W        W30188  33.681   3.874  11.321
65028W        W30189   3.178  31.672   3.197
65029W        W30190  16.322  25.389   4.763
65030W        W30191  35.382  34.305   3.293
65031W        W30192  22.148  35.119   2.923
65032W        W30193  22.763   2.819  10.588
65033W        W30194  44.578  34.078  10.600
65034W        W30195   1.681   5.084   2.341
65035W        W30196  15.651   8.748   0.681
65036W        W30197  26.067   0.056  11.934
65037W        W30198   3.962  21.995   1.425
65038W        W30199  29.684  13.593   4.475
65039W        W30200  22.174  35.451  13.056
65040W        W30201   2.958  10.813   3.050
65041W        W30202  20.143  36.820   4.096
65042W        W30203   1.423  27.709   4.593
65043W        W30204  35.412  23.988  12.378
65044W        W30205  27.061   6.322   4.195
65045W        W30206   4.751  13.099   4.016
65046W        W30207  29.796  21.288   4.675
65047W        W30208   2.307  36.072   1.114
65048W        W30209  37.459  25.974  14.929
65049W        W30210  22.754  22.965  11.701
65050W        W30211  12.711   7.715  13.073
65051W        W30212   0.564  21.354  11.847
65052W        W30213  18.371   4.164   1.021
65053W        W30214  37.383  43.778   0.755
65054W        W30215   0.495  15.128   4.113
65055W        W30216  15.492   6.394   1.283
65056W        W30217  43.345  35.741   3.431
65057W        W30218  39.298  42.508  10.842
65058W        W30219  10.228  18.327   2.008
65059W        W30220   8.401  10.292  11.077
65060W        W30221  14.221  14.120  10.713
65061W        W30222  23.143  42.340   1.855
65062W        W30223   8.460  28.563   3.985
65063W        W30224  32.359  18.816  10.711
65064W        W30225  11.480  44.395  14.398
65065W        W30226  34.405  42.776   0.438
65066W        W30227   6.843  36.961  11.970
65067W        W30228  31.078  41.953  14.006
65068W        W30229  17.715  22.005  11.983
65069W        W30230  23.632  30.841   4.159
65070W        W30231  12.415  36.403   0.746
65071W        W30232  37.650  42.513   1.581
65072W        W30233  20.404  35.581   2.167
65073W        W30234  19.528  42.840  11.330
65074W        W30235   4.323   2.414  12.970
65075W        W30236  37.149  17.779  11.652
65076W        W30237  10.000  35.126   0.688
65077W        W30238  43.947  11.832   4.722
65078W        W30239  39.498  23.651  10.483
65079W        W30240   1.205   0.973   3.538
65080W        W30241  27.666  26.870  12.112
65081W        W30242  38.262  43.284   3.316
65082W        W30243  16.572   4.434  10.651
65083W        W30244  37.618  26.457   2.326
65084W        W30245  28.566  31.896  12.130
65085W        W30246  25.739   8.848   1.428
65086W        W30247   4.328  24.442   0.950
65087W        W30248  15.552  17.959  11.927
65088W        W30249  18.083  10.856   2.266
65089W        W30250  37.952   3.087  10.940
65090W        W30251  41.391  20.980  12.099
65091W        W30252   7.107  44.404   4.283
65092W        W30253  25.918  39.460   1.822
65093W        W30254  10.178  22.198  11.623
65094W        W30255  25.572  42.031   2.790
65095W        W30256   6.615  22.076  13.253
65096W        W30257  21.061  21.325  14.279
65097W        W30258  43.768  15.239  14.814
65098W        W30259  43.372  30.190   1.109
65099W        W30260  35.671  17.275   3.157
65100W        W30261   3.697  23.900  12.895
65101W        W30262   3.966  21.041   1.276
65102W        W30263   0.534  21.964   0.351
65103W        W30264  32.726  14.951   0.446
65104W        W30265  30.146  12.036   1.800
65105W        W30266  34.402  41.837  12.160
65106W        W30267   6.252  13.054  11.210
65107W        W30268  36.821  27.624   2.624
65108W        W30269   4.142  13.082  10.982
65109W        W30270  34.379  37.098  12.922
65110W        W30271  21.841  41.548  14.307
65111W        W30272  24.426  13.743   3.210
65112W        W30273  35.923  23.708   3.177
65113W        W30274   2.357  20.725   2.765
65114W        W30275   1.528  30.249  11.451
65115W        W30276  39.266   1.405   0.285
65116W        W30277  12.840  31.997  11.696
65117W        W30278  13.747  18.672   0.359
65118W        W30279   1.791  21.302   0.739
65119W        W30280   8.595  11.662  12.979
65120W        W30281  12.686   1.759  12.346
65121W        W30282  14.406  20.474   1.769
65122W        W30283  13.744  36.189   4.269
65123W        W30284  34.555  18.228  11.452
65124W        W30285  13.120  42.178  13.881
65125W        W30286  35.824  28.310  13.162
65126W        W30287  16.720  29.916   1.673
65127W        W30288  24.784   5.410   1.319
65128W        W30289  18.209  18.230  13.786
65129W        W30290  32.442  36.785   2.536
65130W        W30291   0.881  16.223  11.981
65131W        W30292  42.950  30.155  11.996
65132W        W30293   8.857  42.045   3.298
65133W        W30294  24.457  10.698   1.354
65134W        W30295  16.262  14.116   3.268
65135W        W30296  15.836   0.074   9.946
65136W        W30297  37.837  28.114  14.438
65137W        W30298  42.379  18.217   3.409
65138W        W30299  36.808  12.361  14.448
65139W        W30300   0.522   1.710   3.693
65140W        W30301  27.443  26.641  10.518
65141W        W30302  17.242  21.753  14.542
65142W        W30303  34.560  22.181  12.943
65143W        W30304  29.061  35.088  11.971
65144W        W30305  34.272   2.805   4.201
65145W        W30306   2.348  23.568   2.768
65146W        W30307  18.233  19.585   2.663
65147W        W30308  31.874  10.227  13.086
65148W        W30309  28.567  34.030  10.658
65149W        W30310  25.028  42.453  12.085
65150W        W30311  43.211   9.583   2.018
65151W        W30312  15.664  22.776  12.144
65152W        W30313   2.673  18.577  11.167
65153W        W30314  37.656  28.959  14.288
65154W        W30315  40.761  24.031  14.405
65155W        W30316  41.541  23.049  14.420
65156W        W30317  34.919  21.184   0.452
65157W        W30318   3.553  20.593   1.225
65158W        W30319  16.552  23.272  10.434
65159W        W30320   3.457  13.416  14.787
65160W        W30321  34.015  10.849   2.754
65161W        W30322  27.080  20.115  14.219
65162W        W30323  38.914  38.471   0.614
65163W        W30324  27.652  15.428   0.182
65164W        W30325   3.446  25.381  13.451
65165W        W30326  41.390  42.092   1.710
65166W        W30327  41.962  26.989  14.588
65167W        W30328  26.129  30.030  10.549
65168W        W30329   1.661   7.239  10.834
65169W        W30330  26.600   5.326  14.391
65170W        W30331  25.681   0.993   2.159
65171W        W30332   8.359  42.443  10.691
65172W        W30333  10.809  23.566  13.002
65173W        W30334  34.930  26.149  12.870
65174W        W30335  12.331  11.309  14.722
65175W        W30336  37.508   2.803   2.321
65176W        W30337  17.623  37.515   2.201
65177W        W30338  30.198   7.373  14.861
65178W        W30339  29.973   9.900  11.434
65179W        W30340  18.026   2.178  12.221
65180W        W30341  21.528  43.573  10.673
65181W        W30342  25.993  29.109   3.204
65182W        W30343  33.617  25.171  12.485
65183W        W30344  43.513  41.944   4.078
65184W        W30345  33.531  24.944   1.968
65185W        W30346  37.347  25.933   4.833
65186W        W30347  15.232  25.132   3.242
65187W        W30348  17.077  23.028   4.264
65188W        W30349  10.149  15.125  13.042
65189W        W30350  42.052  28.043  13.903
65190W        W30351  23.636   4.965   2.128
65191W        W30352  11.212  23.716  13.781
65192W        W30353  34.009  31.981  13.693
65193W        W30354  44.815  37.292  10.879
65194W        W30355  26.220  17.157  11.629
65195W        W30356  40.347  38.774  12.858
65196W        W30357  30.376  32.175   1.844
65197W        W30358  36.932  11.782   2.734
65198W        W30359  15.481   0.113   4.608
65199W        W30360  18.317  41.863   1.014
65200W        W30361  22.967  36.324  13.377
65201W        W30362  30.872   6.858   1.779
65202W        W30363  27.684  15.611  12.058
65203W        W30364   0.242  39.086  14.392
65204W        W30365   6.428   8.692  14.358
65205W        W30366  44.686  11.116  11.585
65206W        W30367  19.690  18.293   3.382
65207W        W30368   3.364  43.281  14.985
65208W        W30369   5.978  25.180  12.953
65209W        W30370  20.212  39.685   1.884
65210W        W30371  22.441   7.515   0.157
65211W        W30372  31.724  29.004   4.019
65212W        W30373  13.998   1.799   0.072
65213W        W30374  31.093  43.823  10.793
65214W        W30375  43.323   6.787   1.134
65215W        W30376   1.282   1.398   1.379
65216W        W30377  22.558  36.461  11.195
65217W        W30378   1.532  13.601  10.711
65218W        W30379   7.858  17.803  11.188
65219W        W30380  23.995  42.958   1.885
65220W        W30381  37.033  19.000  14.288
65221W        W30382   2.639  21.249  14.031
65222W        W30383  38.924   2.145  11.061
65223W        W30384  37.494  16.304  10.748
65224W        W30385  35.660  44.282  14.362
65225W        W30386   3.167  26.123  14.470
65226W        W30387  33.408  11.187  12.314
65227W        W30388  23.953   2.162   3.609
65228W        W30389  11.701  12.295   0.417
65229W        W30390  42.326  23.551  13.444
65230W        W30391  37.863  44.891   2.242
65231W        W30392   8.877  36.089   3.651
65232W        W30393  15.640  25.559   2.635
65233W        W30394  30.113  19.935  11.960
65234W        W30395   0.064  14.711  14.764
65235W        W30396  41.495  13.421  14.458
65236W        W30397  36.272  27.268   0.349
65237W        W30398  34.227  16.645   2.751
65238W        W30399   8.292  43.024   4.646
65239W        W30400  15.534  39.815  13.468
65240W        W30401  22.004  38.768   2.355
65241W        W30402  43.496  42.932  11.936
65242W        W30403  10.920  37.348   3.698
65243W        W30404   2.359  15.736   1.409
65244W        W30405  38.461  28.957   2.291
65245W        W30406   7.828  16.199   2.858
65246W        W30407  19.486  20.358   1.203
65247W        W30408   3.650  11.119  12.000
65248W        W30409  39.094  37.556  14.298
65249W        W30410  40.494  31.652  11.138
65250W        W30411  18.478  39.673   0.459
65251W        W30412  15.356  33.576   2.141
65252W        W30413   1.738  16.081  14.757
65253W        W30414  28.616  35.923   2.222
65254W        W30415  15.016  19.933   3.593
65255W        W30416  22.147   3.938  12.906
65256W        W30417   7.352  10.423  14.376
65257W        W30418  31.433  31.458  11.959
65258W        W30419  14.609  41.969  11.058
65259W        W30420   0.299   3.940   0.802
65260W        W30421  13.176  38.763   2.589
65261W        W30422  29.063  16.943   4.535
65262W        W30423   8.787  15.212  13.096
65263W        W30424  24.388   4.925  13.767
65264W        W30425  33.610  14.623  14.989
65265W        W30426  16.246   8.711   4.070
65266W        W30427  13.840   4.961  14.317
65267W        W30428  33.758  15.245  11.128
65268W        W30429   0.599  23.365  14.482
65269W        W30430   1.171  10.189   1.410
65270W        W30431  30.919  11.243  10.573
65271W        W30432   3.801  37.914   3.166
65272W        W30433  30.060   2.210  11.612
65273W        W30434  11.913  11.740   3.709
65274W        W30435  15.902  36.303  11.175
65275W        W30436  21.416  29.520  14.044
65276W        W30437   7.101  26.508  13.344
65277W        W30438  18.747  25.046  14.021
65278W        W30439  38.602  44.761  11.023
65279W        W30440  42.385  38.615  14.375
65280W        W30441  19.673   3.696   0.790
65281W        W30442   7.242  29.945  13.347
65282W        W30443  37.770  41.869  14.596
65283W        W30444   7.060  28.170   3.718
65284W        W30445  40.867  12.080   1.810
65285W        W30446  28.466  30.503   2.385
65286W        W30447   9.095   4.470   3.662
65287W        W30448  28.941  34.778  12.342
65288W        W30449  34.791  37.567   3.258
65289W        W30450  29.465   8.890   3.162
65290W        W30451  16.596  38.960   2.086
65291W        W30452   7.351  18.895  11.558
65292W        W30453  31.278  31.689  12.421
65293W        W30454  12.071  17.698  14.534
65294W        W30455  24.013  22.674   0.939
65295W        W30456  27.418  13.707   1.076
65296W        W30457  40.375   7.829   2.618
65297W        W30458  44.828  17.574   2.956
65298W        W30459  28.906  37.135  14.740
65299W        W30460  10.248  36.713   1.649
65300W        W30461  32.005  43.269  13.371
65301W        W30462  12.747   9.878   3.666
65302W        W30463  41.221  39.332   1.551
65303W        W30464  32.006  31.673   2.378
65304W        W30465   3.317  30.530  12.408
65305W        W30466   8.349  42.885   1.182
65306W        W30467  14.418  30.020  11.128
65307W        W30468  44.827  10.678   4.263
65308W        W30469  25.259  28.180   2.867
65309W        W30470  28.066   2.456   3.665
65310W        W30471  43.164  28.147   3.621
65311W        W30472  19.784  11.232  12.129
65312W        W30473   0.479  31.406   5.006
65313W        W30474  35.581  16.702   1.236
65314W        W30475  38.469  10.815   4.841
65315W        W30476   1.383  23.004   1.482
65316W        W30477  19.624  22.069  10.687
65317W        W30478  14.409  15.372  13.166
65318W        W30479  20.356  39.044  13.037
65319W        W30480  36.739  24.155  10.629
65320W        W30481  13.705  39.843  10.269
65321W        W30482  39.460  34.983   4.633
65322W        W30483  44.450  31.556   2.962
65323W        W30484  40.348  13.343  12.528
65324W        W30485   3.209  25.738   4.639
65325W        W30486  17.685  13.260  12.975
65326W        W30487  15.156  32.495  10.474
65327W        W30488  17.181  38.052  13.333
65328W        W30489  21.386  29.214   2.203
65329W        W30490  28.672  12.366   1.701
65330W        W30491  44.919  15.206  14.896
65331W        W30492  18.721   4.470  14.078
65332W        W30493  39.121  43.768   4.576
65333W        W30494  14.320  34.990  10.499
65334W        W30495  19.694  41.771  10.952
65335W        W30496  32.060  36.570  13.979
65336W        W30497   0.919  27.066   1.697
65337W        W30498   6.370  11.272  13.905
65338W        W30499  24.406  26.724   3.657
65339W        W30500   6.210  29.646   0.330
65340W        W30501   3.248  24.741   3.107
65341W        W30502  11.347  28.762  13.361
65342W        W30503   3.868  28.238   2.321
65343W        W30504  25.323  14.341   2.213
65344W        W30505  40.856  12.855   2.200
65345W        W30506  42.011  13.303   4.602
65346W        W30507  14.772  13.235   1.111
65347W        W30508  20.289  16.145   3.014
65348W        W30509   2.910  10.666  11.065
65349W        W30510  34.787   9.820  14.422
65350W        W30511  24.185  15.875   4.525
65351W        W30512  14.821  19.345   4.150
65352W        W30513  23.194  41.071  12.443
65353W        W30514   7.129  23.552   1.795
65354W        W30515  27.900  33.478   4.911
65355W        W30516  37.299  44.854   0.337
65356W        W30517  14.387  30.119   4.455
65357W        W30518  22.136   0.676   4.509
65358W        W30519  27.053   4.957  14.205
65359W        W30520  27.994  24.423   2.653
65360W        W30521   2.480  36.620   5.574
65361W        W30522   4.734  34.487   0.301
65362W        W30523  21.103  19.092  11.469
65363W        W30524  14.794  13.220  13.360
65364W        W30525   0.145  17.884   3.674
65365W        W30526  40.501   6.867   2.619
65366W        W30527  16.834  27.211   1.313
65367W        W30528  20.660  26.323   0.211
65368W        W30529  26.928  21.185   4.320
65369W        W30530   6.922  11.510   4.087
65370W        W30531  44.621  15.368  14.480
65371W        W30532   0.214  38.342   2.225
65372W        W30533  10.538  22.224   3.356
65373W        W30534  11.621  42.943  14.938
65374W        W30535  42.193   0.794   1.582
65375W        W30536  19.050   6.180   4.056
65376W        W30537  33.289  36.391   4.367
65377W        W30538  19.762  17.230   1.925
65378W        W30539  16.607   4.525   0.768
65379W        W30540  44.206  29.137   0.337
65380W        W30541  38.892   7.144  12.887
65381W        W30542  34.728  32.813   3.116
65382W        W30543  13.410   8.741   1.238
65383W        W30544   7.101   8.921   3.228
65384W        W30545  34.841  22.707   1.393
65385W        W30546  35.681  21.734  11.114
65386W        W30547  16.783  28.888  11.049
65387W        W30548   5.711   2.250  10.857
65388W        W30549   8.821  42.054  14.784
65389W        W30550  33.922  41.973  13.869
65390W        W30551   2.272  31.727  10.810
65391W        W30552  27.716  27.203  13.534
65392W        W30553  11.145   7.856  11.933
65393W        W30554   5.959  33.532  12.881
65394W        W30555  13.858  12.575  14.734
65395W        W30556   0.468  26.638   3.747
65396W        W30557  44.305  34.368   1.200
65397W        W30558  28.088  23.745   4.524
65398W        W30559  29.703  42.732   4.535
65399W        W30560  41.448  22.516  10.727
65400W        W30561  43.267   8.095  14.739
65401W        W30562  20.289  32.640   2.661
65402W        W30563  25.729  39.537  11.897
65403W        W30564  38.430  12.313  10.513
65404W        W30565  14.693  12.565  12.960
65405W        W30566  42.055  39.831   3.768
65406W        W30567   4.472  14.932   2.369
65407W        W30568  28.635   8.031   2.339
65408W        W30569  35.347  36.864  11.294
65409W        W30570  29.391  36.600   1.405
65410W        W30571  14.057  24.111   3.229
65411W        W30572  33.375  17.290   4.232
65412W        W30573   4.880  19.985   2.317
65413W        W30574  37.652  39.107  14.379
65414W        W30575  14.280  29.388   1.440
65415W        W30576   0.217  22.066   2.166
65416W        W30577  14.032  24.313  10.952
65417W        W30578  31.917  29.406   1.770
65418W        W30579  26.158  44.247  11.672
65419W        W30580  10.250  27.392   2.108
65420W        W30581  22.075  12.291   0.306
65421W        W30582  34.126  14.748   0.842
65422W        W30583  15.025  14.829  13.421
65423W        W30584  28.766  14.217  12.902
65424W        W30585  10.147  16.819  10.437
65425W        W30586   6.380  13.400  14.934
65426W        W30587  28.110  34.888  14.846
65427W        W30588  43.001  34.107   4.662
65428W        W30589   2.374  24.271  10.748
65429W        W30590  40.958  44.933  12.575
65430W        W30591  24.135  38.037  13.486
65431W        W30592  34.423  28.887  14.484
65432W        W30593   5.849  23.501   0.993
65433W        W30594   1.846  26.443  11.792
65434W        W30595  42.852  32.130  12.156
65435W        W30596  28.119  15.540   0.004
65436W        W30597  39.274   7.754   0.328
65437W        W30598  18.944  43.032  12.969
65438W        W30599  11.922  42.139   1.238
65439W        W30600   8.317  22.263  11.486
65440W        W30601   0.875   7.851   0.478
65441W        W30602   6.647  39.092   1.262
65442W        W30603  21.726  21.174   4.199
65443W        W30604  22.300  22.710   1.031
65444W        W30605   1.054   6.246   4.501
65445W        W30606  20.963   3.541   4.927
65446W        W30607  23.896  14.787  13.025
65447W        W30608  41.272  22.818  12.087
65448W        W30609  13.980  12.066   4.977
65449W        W30610  43.339  33.101  13.104
65450W        W30611  16.539  21.207   4.124
65451W        W30612  43.517  32.478   0.223
65452W        W30613  14.315  27.004  14.809
65453W        W30614  35.323  41.816   3.058
65454W        W30615  21.597  23.566  11.041
65455W        W30616  39.284  39.111  12.523
65456W        W30617  42.765  39.308   3.689
65457W        W30618  20.447  41.391   0.730
65458W        W30619  19.661  22.878   0.276
65459W        W30620  41.337  20.240   2.190
65460W        W30621  19.641  14.833   1.963
65461W        W30622  36.162   0.832   4.118
65462W        W30623  39.178  13.487  13.267
65463W        W30624  38.515  27.507  10.400
65464W        W30625  34.807  21.261  12.113
65465W        W30626  22.135   3.219  14.410
65466W        W30627   4.433   9.642   4.028
65467W        W30628  28.862  17.682  11.913
65468W        W30629  41.279  44.847   1.615
65469W        W30630  27.448   7.743   3.782
65470W        W30631  12.468  35.079   4.562
65471W        W30632  23.718  42.961   3.214
65472W        W30633  36.031   9.796   3.643
65473W        W30634   8.181   0.773  12.490
65474W        W30635  38.060  40.098   4.105
65475W        W30636  17.284   6.280  13.382
65476W        W30637  31.266   3.693  14.857
65477W        W30638  22.270  43.247  11.898
65478W        W30639  10.854  25.570   4.773
65479W        W30640  37.838  27.683   1.292
65480W        W30641   4.679  14.163   3.641
65481W        W30642  10.974  18.664   4.347
65482W        W30643  44.303  38.046   1.735
65483W        W30644  26.486  17.118   1.190
65484W        W30645  12.608  19.906   1.168
65485W        W30646  43.275   3.164   3.679
65486W        W30647  44.772  12.155   4.762
65487W        W30648  28.981  26.549   2.551
65488W        W30649   9.820   1.001  10.895
65489W        W30650  31.891  40.513   1.499
65490W        W30651  12.298  17.878   4.550
65491W        W30652  18.801  25.172   0.419
65492W        W30653   7.161  29.373   4.148
65493W        W30654  25.303  23.789   3.553
65494W        W30655  23.228  20.736  13.575
65495W        W30656  36.873   3.772   3.634
65496W        W30657  40.850  35.746   4.662
65497W        W30658  24.760  39.874   3.153
65498W        W30659  20.803  25.657  14.437
65499W        W30660   9.674  44.944  11.641
65500W        W30661  34.353  44.682   4.120
65501W        W30662  30.442  44.739   0.431
65502W        W30663  39.379  28.792  12.467
65503W        W30664  30.766  33.879  13.980
65504W        W30665  37.610   2.527  14.441
65505W        W30666  39.097   0.950  13.366
65506W        W30667   9.165  38.393  11.999
65507W        W30668   5.737  16.963  13.394
65508W        W30669   8.889  32.433   3.793
65509W        W30670  43.958  35.318  10.313
65510W        W30671   3.954   6.389  12.660
65511W        W30672  35.891  43.951   0.137
65512W        W30673   0.393  44.454   4.266
65513W        W30674  15.639  32.355   2.406
65514W        W30675  25.071   8.127   1.414
65515W        W30676  22.077  43.465  10.702
65516W        W30677   7.392  33.555  12.573
65517W        W30678  39.252   0.250   4.089
65518W        W30679  19.213  17.059  14.821
65519W        W30680  20.827  22.451  14.883
65520W        W30681  42.979  34.132  11.885
65521W        W30682  26.062  13.015   5.395
65522W        W30683   1.536  26.493  12.574
65523W        W30684  42.768  28.717   0.253
65524W        W30685  39.490  22.517   1.429
65525W        W30686  12.315  25.791  11.416
65526W        W30687  38.375  33.650  10.542
65527W        W30688  11.979   0.353  13.569
65528W        W30689   5.226   5.498  12.483
65529W        W30690  43.733  40.824   1.060
65530W        W30691  18.103  35.141  12.381
65531W        W30692   6.394   6.622   3.634
65532W        W30693  37.889   9.220  14.068
65533W        W30694  36.008   9.387  14.933
65534W        W30695   9.364  30.410  10.948
65535W        W30696  20.706  41.460   1.634
65536W        W30697  27.627  22.614  14.484
65537W        W30698   8.915   0.872  12.076
65538W        W30699  39.802  41.313  11.653
65539W        W30700  31.038  27.592   1.049
65540W        W30701   5.215  12.286   2.452
65541W        W30702  25.421  41.904  14.987
65542W        W30703  24.812  14.624  12.464
65543W        W30704  43.318  12.569   4.940
65544W        W30705  35.325   8.738  14.042
65545W        W30706   1.510   9.820   2.739
65546W        W30707  25.149  37.535   3.118
65547W        W30708  44.431  30.477   5.034
65548W        W30709  27.129  30.842  10.549
65549W        W30710  32.144  15.341  14.530
65550W        W30711  42.346  31.638  11.620
65551W        W30712   1.962  37.113  10.197
65552W        W30713  15.221  10.634   0.407
65553W        W30714  26.872  38.644   3.169
65554W        W30715   2.010   4.610   3.701
65555W        W30716   5.330  41.925  13.353
65556W        W30717  41.565  23.832  13.000
65557W        W30718  29.616  42.358  12.599
65558W        W30719  30.515  17.265   2.641
65559W        W30720  12.059  11.256  11.129
65560W        W30721  25.555  12.794   4.503
65561W        W30722  38.075  30.854   0.651
65562W        W30723  43.865  39.247  11.909
65563W        W30724  30.361  24.811  13.753
65564W        W30725  41.728  24.375   3.727
65565W        W30726  38.622  12.866   0.730
65566W        W30727  20.457   2.719  14.511
65567W        W30728   5.835  25.260   4.723
65568W        W30729  10.492  24.122  10.254
65569W        W30730   0.259  44.421  10.289
65570W        W30731  41.423  28.949   4.541
65571W        W30732  39.927  28.439  11.233
65572W        W30733   1.222  29.047  12.829
65573W        W30734  31.912   2.264  12.846
65574W        W30735   8.388  24.723   4.218
65575W        W30736  29.217  28.657   2.538
65576W        W30737   8.323   6.719   5.006
65577W        W30738  10.623  12.267  11.520
65578W        W30739   7.837   4.470  13.886
65579W        W30740   2.092   1.623  10.319
65580W        W30741  27.552  26.559   5.239
65581W        W30742   8.435  23.022   0.046
65582W        W30743  30.907  25.498   3.646
65583W        W30744   4.745  12.377   4.445
65584W        W30745   8.798  43.857   0.439
65585W        W30746   0.397   9.402   3.659
65586W        W30747  29.388  28.874   4.234
65587W        W30748  12.440   2.534  12.123
65588W        W30749   7.289  11.706  12.459
65589W        W30750  36.379  44.048  11.241
65590W        W30751  37.279  40.270  10.224
65591W        W30752  12.181  32.590  12.491
65592W        W30753  24.928  11.148   0.769
65593W        W30754   8.890  36.867  11.589
65594W        W30755   9.856  26.284  11.954
65595W        W30756   4.194  15.939   4.788
65596W        W30757   0.339  21.939  11.694
65597W        W30758  23.204  30.894   0.760
65598W        W30759   7.624  10.054   2.611
65599W        W30760  29.729   5.974  14.837
65600W        W30761  30.502   2.510  13.060
65601W        W30762  10.086  25.722   2.734
65602W        W30763   8.603  28.077  12.489
65603W        W30764  38.957  36.843  13.057
65604W        W30765  13.795   8.750  14.843
65605W        W30766  30.159  11.183  14.001
65606W        W30767  35.407   9.864  14.784
65607W        W30768  40.141  35.102   4.062
65608W        W30769  10.125  34.496  14.008
65609W        W30770   0.516  14.214  12.389
65610W        W30771   1.956  24.357   3.606
65611W        W30772  32.608  15.285   2.681
65612W        W30773  15.904  10.904  14.261
65613W        W30774  25.213  28.495   0.752
65614W        W30775  32.093  26.158  13.080
65615W        W30776  29.659  10.009   9.885
65616W        W30777  35.356  26.242  13.846
65617W        W30778  35.011  40.556  14.585
65618W        W30779   8.904  20.004  14.762
65619W        W30780  32.102   4.264  11.442
65620W        W30781   1.840  44.833  14.999
65621W        W30782  19.479  42.890  13.838
65622W        W30783  37.986  16.337  10.592
65623W        W30784  31.678  34.433   2.300
65624W        W30785  17.166  42.700  14.931
65625W        W30786  36.297  19.130   2.835
65626W        W30787  14.256   7.494  13.566
65627W        W30788  16.380  23.476   4.007
65628W        W30789  22.015  40.645   3.768
65629W        W30790  39.341   0.528  13.525
65630W        W30791  17.737  14.648  13.875
65631W        W30792  12.923  30.213   1.379
65632W        W30793  31.234  39.288  12.727
65633W        W30794   1.803  41.279  12.475
65634W        W30795  44.337  33.508   2.632
65635W        W30796  26.498  43.286   2.751
65636W        W30797  26.233  44.727   3.080
65637W        W30798   5.079   5.323  12.001
65638W        W30799  12.311  30.662  13.448
65639W        W30800  41.223  24.302   0.775
65640W        W30801  38.306   9.184  12.582
65641W        W30802  10.123   2.304  11.253
65642W        W30803   6.451  29.303  10.054
65643W        W30804   4.188  26.068  14.354
65644W        W30805  42.350  43.761   4.693
65645W        W30806   2.776  21.939   4.322
65646W        W30807  41.965  29.878   3.955
65647W        W30808  43.416  11.232  10.977
65648W        W30809  19.823  24.111   4.484
65649W        W30810   4.097  33.985  12.112
65650W        W30811  25.249   7.722   1.713
65651W        W30812   6.723  27.797   0.385
65652W        W30813  38.193   8.597  10.408
65653W        W30814   2.226   2.295  10.926
65654W        W30815   1.361   1.320  14.432
65655W        W30816   7.330  25.784  11.719
65656W        W30817  37.519   8.777   3.152
65657W        W30818  36.904  15.688   3.561
65658W        W30819  20.521  32.480   1.006
65659W        W30820   9.820  16.288   2.410
65660W        W30821  26.158  22.528  13.345
65661W        W30822  22.124  14.905  14.457
65662W        W30823  34.970  34.618   0.013
65663W        W30824   8.295  20.126   2.288
65664W        W30825  19.115  22.748   0.989
65665W        W30826  20.303  42.669   4.869
65666W        W30827  25.958  30.672  12.281
65667W        W30828   4.928   5.657  10.766
65668W        W30829   5.249   5.774   1.977
65669W        W30830   2.157   8.913  13.469
65670W        W30831  34.063  15.690   0.814
65671W        W30832  17.605  34.064   1.224
65672W        W30833   3.169  37.475   0.214
65673W        W30834  40.870  41.586   2.302
65674W        W30835  32.662   8.797   0.403
65675W        W30836  37.037  36.495  14.808
65676W        W30837  20.607  38.552  11.492
65677W        W30838  25.000  20.100  12.101
65678W        W30839  36.537  31.515  11.102
65679W        W30840  20.750   4.689   0.821
65680W        W30841  21.377  27.692  13.555
65681W        W30842  26.070  43.309  12.091
65682W        W30843   0.425  28.934  10.707
65683W        W30844  20.010  21.985   0.386
65684W        W30845  14.864  13.701   1.346
65685W        W30846   9.078  12.326   0.494
65686W        W30847  13.394  27.288  14.076
65687W        W30848  20.307  15.237   0.393
65688W        W30849  36.414  15.579   1.260
65689W        W30850  16.093   6.333   3.848
65690W        W30851  26.186  40.990   0.864
65691W        W30852  33.957  28.226   1.237
65692W        W30853  17.595   9.608   1.180
65693W        W30854  27.920  18.586  11.621
65694W        W30855  13.512  31.025   3.215
65695W        W30856  34.096   6.679  13.426
65696W        W30857  19.865  10.172   0.698
65697W        W30858  41.935  12.274   1.878
65698W        W30859   5.202  41.692   0.818
65699W        W30860  33.508   9.459  12.975
65700W        W30861   7.737  14.343   3.289
65701W        W30862  40.424   6.561   0.847
65702W        W30863  14.591  41.481   3.239
65703W        W30864  35.980  39.314   3.822
65704W        W30865  29.915  28.062  14.049
65705W        W30866   4.421  27.744   4.971
65706W        W30867  15.650  19.014  13.506
65707W        W30868  13.405  40.554   0.158
65708W        W30869  20.270   1.875  10.154
65709W        W30870   7.108  14.154   2.673
65710W        W30871  27.082  12.599  10.304
65711W        W30872   4.671  17.101  13.000
65712W        W30873  19.753  32.401  12.530
65713W        W30874  26.761  31.416  11.630
65714W        W30875  42.816  25.580   1.044
65715W        W30876   8.215  17.942   4.513
65716W        W30877  17.303   3.615  12.602
65717W        W30878  15.248  16.782   3.091
65718W        W30879  25.829  43.428  14.432
65719W        W30880   6.658  34.233   1.411
65720W        W30881   3.510  35.227  12.983
65721W        W30882  20.586  12.239  13.259
65722W        W30883  44.834  34.528  10.664
65723W        W30884  15.616  19.051  12.127
65724W        W30885   3.343  42.777  14.904
65725W        W30886  14.603  40.420   2.205
65726W        W30887  36.429  14.293   0.759
65727W        W30888   1.435   4.492  14.483
65728W        W30889  17.844  28.641  13.604
65729W        W30890  44.891  15.717  14.788
65730W        W30891  12.519  20.142   0.167
65731W        W30892   9.837   9.851   4.534
65732W        W30893   1.664  29.529   3.256
65733W        W30894  37.967  38.674   5.558
65734W        W30895  40.590  11.305   2.212
65735W        W30896  23.726  40.435   4.017
65736W        W30897  36.645  36.418  11.583
65737W        W30898  12.904  16.552  12.135
65738W        W30899  33.814  36.627   0.013
65739W        W30900  21.273   1.046  14.388
65740W        W30901  27.496  22.510  11.845
65741W        W30902  43.275   4.350   0.199
65742W        W30903  17.550   2.708   2.781
65743W        W30904  18.560  28.508   3.740
65744W        W30905  16.290  34.384  12.382
65745W        W30906  16.841  32.484  11.170
65746W        W30907  11.167  22.527   1.164
65747W        W30908  23.040  44.254   0.762
65748W        W30909  11.273  14.583   1.361
65749W        W30910  33.020  38.794   1.042
65750W        W30911  23.140  32.961   4.788
65751W        W30912   2.837  19.253  12.562
65752W        W30913  40.101   8.499   5.184
65753W        W30914  28.456  24.161   3.407
65754W        W30915  24.473  29.321   4.549
65755W        W30916  12.506   6.650   2.775
65756W        W30917  10.131  17.262   0.732
65757W        W30918  32.312  24.616  12.493
65758W        W30919   5.511  29.443   4.615
65759W        W30920  29.962   4.665   5.125
65760W        W30921  21.217  31.502  11.722
65761W        W30922  21.901  35.412   3.393
65762W        W30923  21.972  20.192   1.443
65763W        W30924  29.096  39.464   4.800
65764W        W30925  39.306   5.297  11.537
65765W        W30926  26.680   3.070  14.891
65766W        W30927  32.805   8.341  11.185
65767W        W30928  40.798  29.835   3.342
65768W        W30929  33.914  44.467   1.367
65769W        W30930   0.419  10.652   2.889
65770W        W30931   6.626  41.398  10.764
65771W        W30932   0.439  15.564  12.525
65772W        W30933  27.658  32.133  10.955
65773W        W30934   0.901  28.427   4.138
65774W        W30935  19.602  37.743   3.152
65775W        W30936  23.739   0.923   1.703
65776W        W30937  27.598   6.189   1.655
65777W        W30938  38.797  16.792  12.027
65778W        W30939   7.449  30.588   0.863
65779W        W30940  20.597  26.224   2.707
65780W        W30941   0.963  40.830  14.395
65781W        W30942  26.064  38.839  14.290
65782W        W30943  11.363   4.700  12.617
65783W        W30944  14.575  31.653   0.293
65784W        W30945  36.845  26.572   1.437
65785W        W30946  15.581  30.373   1.969
65786W        W30947  42.321  36.472  14.435
65787W        W30948  35.376  17.582   2.201
65788W        W30949   4.493  37.439   0.631
65789W        W30950  14.826  43.188   2.852
65790W        W30951  28.174   1.969   2.306
65791W        W30952  20.615   6.160  12.934
65792W        W30953  31.877  40.361  13.851
65793W        W30954  11.248  32.612  13.596
65794W        W30955  35.062  25.530  12.114
65795W        W30956  38.191  16.556  11.021
65796W        W30957  31.924  21.627   3.425
65797W        W30958  42.486  33.520  11.560
65798W        W30959  37.497   0.470   2.233
65799W        W30960  32.328  28.674  14.444
65800W        W30961  11.133  26.761  12.104
65801W        W30962  16.784  19.049   2.521
65802W        W30963  22.698  35.873  14.910
65803W        W30964   5.981  41.832  12.982
65804W        W30965  20.703  17.375  12.817
65805W        W30966  15.191  36.649   4.769
65806W        W30967  18.334  12.212   4.463
65807W        W30968  37.951  33.012   3.682
65808W        W30969  38.782  41.312  10.397
65809W        W30970  25.860  40.356   1.768
65810W        W30971  43.350  41.241   2.333
65811W        W30972   7.912  36.078  11.515
65812W        W30973  14.681   2.268   4.690
65813W        W30974  23.933  39.378   5.054
65814W        W30975  22.246  33.039   4.533
65815W        W30976  44.408  10.259   3.121
65816W        W30977  20.620  41.133   2.945
65817W        W30978  14.091   8.382  12.992
65818W        W30979  18.192  27.111   2.851
65819W        W30980  26.001  12.269   0.869
65820W        W30981  23.772  41.469   3.660
65821W        W30982  22.814  38.126  12.927
65822W        W30983  42.346  27.081   3.752
65823W        W30984   6.248   8.214  14.293
65824W        W30985  29.744  19.107  12.531
65825W        W30986  38.039  17.031   1.979
65826W        W30987  34.468  38.936   3.244
65827W        W30988   4.180  24.477  13.471
65828W        W30989  27.229  42.906  13.639
65829W        W30990  32.582  26.073  14.514
65830W        W30991  36.312  29.516   5.117
65831W        W30992   7.360  26.988   0.518
65832W        W30993   4.266  28.895  12.622
65833W        W30994  40.468  20.147   1.676
65834W        W30995   6.154  44.717  13.321
65835W        W30996  23.667  27.579   1.891
65836W        W30997  33.265   0.459   2.141
65837W        W30998   2.841  15.473  12.450
65838W        W30999  29.707  34.856  11.603
65839W        W31000  43.760  31.881  13.518
65840W        W31001  38.445  24.370  13.028
65841W        W31002  32.913  17.690  12.435
65842W        W31003  35.855  18.108   2.287
65843W        W31004   1.257  29.360  11.561
65844W        W31005  13.295  30.262  13.313
65845W        W31006   0.322  33.632   1.203
65846W        W31007  28.722   0.428  14.580
65847W        W31008  28.573  38.088  13.467
65848W        W31009   3.425  30.063  12.612
65849W        W31010   3.756  28.709  13.341
65850W        W31011  28.593  12.294   2.977
65851W        W31012  15.500   4.286   3.802
65852W        W31013  28.486  37.834  13.003
65853W        W31014  32.878  41.890   1.380
65854W        W31015  26.692  26.198   3.740
65855W        W31016   0.285  35.449  14.768
65856W        W31017   6.956   1.073   2.690
65857W        W31018  25.284  40.667   4.500
65858W        W31019  27.018   5.442   2.803
65859W        W31020  14.124  15.456   4.096
65860W        W31021  20.091  27.691   3.611
65861W        W31022  39.102  27.456   0.854
65862W        W31023   8.287  31.370   0.718
65863W        W31024  27.936  34.423  12.080
65864W        W31025  24.008  15.634   4.958
65865W        W31026  18.396  14.609   4.584
65866W        W31027  39.493   4.973  12.999
65867W        W31028  39.398  36.402   0.440
65868W        W31029  26.144  20.043  14.351
65869W        W31030   9.327  16.124  14.125
65870W        W31031  33.372  36.475  10.522
65871W        W31032   8.905  29.104   1.768
65872W        W31033   1.451   3.726  13.851
65873W        W31034   0.950   0.667   3.867
65874W        W31035  44.935  32.124  12.931
65875W        W31036  14.071  20.283  12.005
65876W        W31037  22.193  23.000  12.875
65877W        W31038  21.899  34.656  13.398
65878W        W31039  24.707  23.631  11.205
65879W        W31040  24.131  42.073   0.520
65880W        W31041   8.621   9.116  12.520
65881W        W31042   0.113  39.907   0.957
65882W        W31043   1.029   6.742   0.944
65883W        W31044  35.991  22.963  14.104
65884W        W31045  40.370  31.176   2.312
65885W        W31046  40.556  41.251  14.479
65886W        W31047  34.694  18.753   3.377
65887W        W31048  11.902  38.705   5.024
65888W        W31049  34.586  10.138   3.692
65889W        W31050  15.142   4.272   1.630
65890W        W31051  10.953   8.002  11.038
65891W        W31052  25.579  27.350   0.329
65892W        W31053  21.465   3.397  12.712
65893W        W31054  24.011   5.186  13.010
65894W        W31055  29.980  17.769   1.290
65895W        W31056  31.643   6.896  13.419
65896W        W31057  15.247   7.908   3.657
65897W        W31058  23.343   6.268   4.206
65898W        W31059  26.928  25.200  11.929
65899W        W31060  27.705  18.198   1.912
65900W        W31061  40.357  36.952  14.037
65901W        W31062  38.453   3.004   4.656
65902W        W31063  33.109  37.161  11.326
65903W        W31064  32.622  31.401  11.598
65904W        W31065  16.183  23.938  11.962
65905W        W31066  23.025   8.318  12.132
65906W        W31067  28.912  11.287  12.989
65907W        W31068  14.697   8.298  12.603
65908W        W31069  37.671   4.880  13.447
65909W        W31070  38.393  37.789   2.594
65910W        W31071   6.517  39.598  14.894
65911W        W31072  24.972  29.170  12.123
65912W        W31073  36.974  14.298   3.206
65913W        W31074  20.533  23.224   3.718
65914W        W31075  22.681  30.612  10.689
65915W        W31076  15.621  38.499   3.740
65916W        W31077  15.894  25.565   4.516
65917W        W31078  31.963  18.813   3.745
65918W        W31079   5.560  15.660  14.254
65919W        W31080  18.803   1.502  14.762
65920W        W31081   3.088  37.621  13.856
65921W        W31082  32.042   2.555   4.188
65922W        W31083  41.312  23.024   4.923
65923W        W31084  28.887  32.084   1.840
65924W        W31085   5.441   1.868   0.190
65925W        W31086  29.533  18.236  12.904
65926W        W31087   4.320  25.790  13.321
65927W        W31088  12.775   2.187   3.214
65928W        W31089  12.629  20.763  10.722
65929W        W31090  41.491  19.241   3.947
65930W        W31091   0.339  21.686  12.168
65931W        W31092  16.800  16.634   1.192
65932W        W31093  43.832  41.985   2.769
65933W        W31094   6.593  16.685  13.593
65934W        W31095  33.247  38.431  13.749
65935W        W31096  41.578  27.917   4.568
65936W        W31097  13.743   9.357   3.254
65937W        W31098  38.786  40.210   4.809
65938W        W31099  31.389  12.807   1.288
65939W        W31100  40.817  41.512  14.868
65940W        W31101   9.010  20.207   4.609
65941W        W31102  43.778  12.374   1.412
65942W        W31103  22.684  11.670  11.137
65943W        W31104  17.201  23.293   1.374
65944W        W31105   8.206  33.152   2.768
65945W        W31106   8.705   3.935  13.836
65946W        W31107  12.519  29.131  13.528
65947W        W31108   2.262  25.616   9.809
65948W        W31109  25.615   2.786  10.407
65949W        W31110  21.598  24.547  11.222
65950W        W31111  10.427  24.139  12.440
65951W        W31112   1.825   8.261   4.035
65952W        W31113  31.522   7.443   3.440
65953W        W31114  12.741  29.946   1.836
65954W        W31115  19.100   4.325  14.450
65955W        W31116   0.377  42.122   0.155
65956W        W31117   8.009  30.930  12.442
65957W        W31118  34.860   5.688  12.886
65958W        W31119  26.519  43.569  12.058
65959W        W31120  15.275   2.965  11.452
65960W        W31121  28.570  29.962  10.900
65961W        W31122  35.819  13.026  10.591
65962W        W31123  12.677   0.398   0.531
65963W        W31124   6.918   7.257   1.454
65964W        W31125  36.089   2.559   2.847
65965W        W31126  31.482  33.505  10.765
65966W        W31127   9.830   7.952   0.326
65967W        W31128  33.871  15.934   1.276
65968W        W31129  23.788  18.381  14.495
65969W        W31130  15.842  15.688  12.416
65970W        W31131  11.294  11.608   0.457
65971W        W31132   1.315  23.241  14.925
65972W        W31133  41.516  21.780   4.229
65973W        W31134  25.293  26.114   1.306
65974W        W31135   1.713   8.164  12.438
65975W        W31136  43.356  37.567  14.859
65976W        W31137  42.304  16.243   1.450
65977W        W31138   3.529  24.519   1.756
65978W        W31139   2.899   9.407  10.648
65979W        W31140   3.826   5.183   0.795
65980W        W31141  39.744   9.501  10.942
65981W        W31142  42.168  15.793   2.175
65982W        W31143  10.758  41.097  11.167
65983W        W31144  23.570   4.943   1.597
65984W        W31145  22.667  11.145  12.254
65985W        W31146   9.701  22.847  11.030
65986W        W31147  42.433  31.013  13.605
65987W        W31148  25.472  14.202   3.568
65988W        W31149  33.095  39.830   3.212
65989W        W31150  40.340   6.717   3.701
65990W        W31151  34.829  28.564  10.500
65991W        W31152  11.894  30.319  13.457
65992W        W31153   9.688  33.984   3.473
65993W        W31154  23.790  24.857  13.034
65994W        W31155   8.410  39.459  12.993
65995W        W31156  19.843  43.567  10.282
65996W        W31157  27.437  36.422   5.094
65997W        W31158  20.519  39.647   0.430
65998W        W31159   3.478   4.959   2.734
65999W        W31160  13.488   3.599  11.529
66000W        W31161  18.463  24.885  11.250
66001W        W31162   5.636   8.743   3.468
66002W        W31163   0.283   7.744   4.118
66003W        W31164  33.694  30.915  13.031
66004W        W31165  35.732  33.343  13.570
66005W        W31166  24.628   9.040  11.492
66006W        W31167  15.390  34.969   4.326
66007W        W31168  28.975  12.788   2.956
66008W        W31169  24.047  36.779   4.771
66009W        W31170  35.445   4.379   2.640
66010W        W31171  43.753  19.185   4.734
66011W        W31172  20.861  11.348   2.269
66012W        W31173   0.290  11.976  10.446
66013W        W31174  40.505  15.386   1.858
66014W        W31175  14.061  26.847  14.326
66015W        W31176  27.683  32.540  11.246
66016W        W31177  31.037  29.105  13.030
66017W        W31178  18.911  11.502  13.468
66018W        W31179   9.825  12.942  14.865
66019W        W31180  42.465  24.610  12.511
66020W        W31181  13.609   4.661   0.775
66021W        W31182  36.375   8.363  14.088
66022W        W31183  39.286   4.250   2.875
66023W        W31184  39.960  22.784   2.394
66024W        W31185  42.084  19.777   2.126
66025W        W31186  42.153  21.765  10.630
66026W        W31187  12.110   6.130  13.543
66027W        W31188  39.262   2.265   3.072
66028W        W31189   2.360   2.406   3.738
66029W        W31190   4.244  39.800   4.622
66030W        W31191  38.428  41.538  11.119
66031W        W31192   4.338  13.204   2.685
66032W        W31193  33.112  38.683  13.306
66033W        W31194  34.578   7.226  11.614
66034W        W31195   3.268  23.818   0.970
66035W        W31196   6.824  30.630   2.302
66036W        W31197   8.862  43.872  12.119
66037W        W31198  15.008  35.609  13.007
66038W        W31199   8.506  23.723  11.275
66039W        W31200  21.333   0.906   2.181
66040W        W31201  35.947  21.358   0.903
66041W        W31202  26.883   6.833   3.690
66042W        W31203  12.481   3.486   3.638
66043W        W31204   8.186  22.585   3.590
66044W        W31205   1.564  20.814  14.958
66045W        W31206  17.476   5.706   4.428
66046W        W31207  39.629  12.157  13.925
66047W        W31208   2.772  36.472  13.945
66048W        W31209  34.453  26.966  13.116
66049W        W31210   5.393  18.353   4.582
66050W        W31211  15.558   6.664   4.312
66051W        W31212   7.090   1.506   0.013
66052W        W31213  10.700   9.291   1.796
66053W        W31214  27.963   6.496   1.874
66054W        W31215  12.231  43.983   2.869
66055W        W31216   1.185  22.485   4.732
66056W        W31217  13.075  26.709   4.842
66057W        W31218  44.470  14.139   1.919
66058W        W31219  17.711  14.231   3.166
66059W        W31220  43.865  11.884   3.249
66060W        W31221  28.700  36.044  12.466
66061W        W31222   8.487  37.693  11.998
66062W        W31223   0.332  23.458   0.185
66063W        W31224  11.641  13.889   0.664
66064W        W31225  23.552  15.318  10.820
66065W        W31226  29.225  30.809  11.012
66066W        W31227  16.728  10.958  12.459
66067W        W31228   3.302  15.031   1.435
66068W        W31229  44.266  42.915   3.696
66069W        W31230  21.171   0.570   4.152
66070W        W31231   0.455  34.540  12.615
66071W        W31232  10.708   4.852   4.168
66072W        W31233  11.109  33.089  13.811
66073W        W31234  35.670  20.861   3.990
66074W        W31235  31.517  34.965   0.537
66075W        W31236   5.473  19.287   1.749
66076W        W31237  19.093   7.051  14.615
66077W        W31238  31.151  13.257   2.346
66078W        W31239  22.714   1.888   1.308
66079W        W31240  25.232  40.011  11.095
66080W        W31241  32.200  14.870   0.445
66081W        W31242   8.948  43.982   1.982
66082W        W31243  22.590  30.038   3.394
66083W        W31244  19.212   6.467  12.088
66084W        W31245  32.957  21.297  14.778
66085W        W31246  40.879   9.912   0.980
66086W        W31247   4.681   3.363  13.312
66087W        W31248  44.321  22.045   3.628
66088W        W31249   9.173  25.770  11.626
66089W        W31250  35.431  19.201  13.054
66090W        W31251   8.218  23.181  12.938
66091W        W31252  13.584  29.360  10.690
66092W        W31253   9.805  31.342   4.491
66093W        W31254  11.839  14.598   2.258
66094W        W31255  38.116  44.786   2.671
66095W        W31256  40.039   0.222  12.366
66096W        W31257  37.004  14.053   3.672
66097W        W31258  23.359  25.093   0.350
66098W        W31259  12.633  33.092   3.404
66099W        W31260  25.718   7.412   2.254
66100W        W31261  23.035   0.427  13.456
66101W        W31262  39.096  23.055  12.106
66102W        W31263  11.426   8.188  12.419
66103W        W31264  15.069  10.802  14.947
66104W        W31265  17.760  26.636  10.413
66105W        W31266   0.137  12.017   1.342
66106W        W31267  31.730  25.918   1.285
66107W        W31268  43.501  23.169   4.415
66108W        W31269  36.413  14.714   0.088
66109W        W31270  43.812  41.426  10.686
66110W        W31271  20.097  43.546   1.343
66111W        W31272  42.919   3.953  13.053
66112W        W31273   9.804  21.132   9.898
66113W        W31274  25.680  34.392  13.128
66114W        W31275  33.013  12.729   2.385
66115W        W31276   3.906  19.616   4.830
66116W        W31277  15.742   8.114   3.627
66117W        W31278  44.816   4.292  11.190
66118W        W31279  43.248  23.502   0.466
66119W        W31280  23.756  32.427  14.310
66120W        W31281  11.694  34.791  11.160
66121W        W31282  36.265  28.154   4.187
66122W        W31283  28.891  43.985  14.883
66123W        W31284  23.355  30.437  11.060
66124W        W31285  41.652  10.148  13.442
66125W        W31286   1.551  43.002  13.415
66126W        W31287  17.553  23.127   4.067
66127W        W31288  30.215  11.208   1.422
66128W        W31289  39.161   3.540  11.620
66129W        W31290   7.152  14.022  14.306
66130W        W31291  33.753  40.568  11.621
66131W        W31292   5.579  42.951   2.819
66132W        W31293  34.741  27.341   0.235
66133W        W31294  33.898  38.085   1.873
66134W        W31295  28.587  11.321   0.345
66135W        W31296  20.199  41.491   1.797
66136W        W31297  16.807  12.089   4.937
66137W        W31298  38.571  38.115   0.369
66138W        W31299  17.639  40.790  14.935
66139W        W31300  16.695  41.866  12.880
66140W        W31301  40.270   1.185  12.522
66141W        W31302  22.114   0.297   2.261
66142W        W31303  27.997  19.841   1.360
66143W        W31304  16.184  15.526  11.059
66144W        W31305   7.617  26.036  13.028
66145W        W31306  31.160  44.547  14.873
66146W        W31307  10.007  19.513  14.294
66147W        W31308   4.615  29.612   2.367
66148W        W31309  41.059  20.762   2.337
66149W        W31310  10.855  44.251  12.586
66150W        W31311  24.481   9.662  12.620
66151W        W31312  34.858  25.070  14.387
66152W        W31313   6.709  35.857  12.255
66153W        W31314  12.949  32.477   4.562
66154W        W31315  10.694  30.454  10.886
66155W        W31316  16.963  27.252   4.171
66156W        W31317   4.833  40.504  14.407
66157W        W31318  12.397  16.217   0.500
66158W        W31319  44.737  21.125  10.686
66159W        W31320  44.592   3.059  12.597
66160W        W31321  28.992  40.936   9.660
66161W        W31322  17.094  15.320  12.528
66162W        W31323  10.717   3.993  14.342
66163W        W31324   9.378  23.775   3.683
66164W        W31325  33.162  25.126   4.406
66165W        W31326  22.203  11.335  10.585
66166W        W31327  23.802  16.695   4.282
66167W        W31328  22.430  15.301  11.110
66168W        W31329  29.080  39.973  14.557
66169W        W31330  32.341  38.145  14.950
66170W        W31331  33.437  36.884   4.206
66171W        W31332   0.960   3.468   2.733
66172W        W31333  34.480   0.336   1.237
66173W        W31334   2.888  42.150   2.330
66174W        W31335  33.389  25.527  11.885
66175W        W31336  15.153  21.921   4.018
66176W        W31337   7.568   4.477  13.450
66177W        W31338  27.745  32.245  10.452
66178W        W31339  34.961  24.316  13.272
66179W        W31340  38.984  33.277   4.502
66180W        W31341  11.274  38.842   0.842
66181W        W31342  10.331  17.270   3.500
66182W        W31343  37.821  39.472  10.539
66183W        W31344  24.173  25.806  12.908
66184W        W31345  34.475   2.954   2.118
66185W        W31346  40.520  17.552  11.469
66186W        W31347  37.065  25.198   3.239
66187W        W31348  16.823  42.309  11.990
66188W        W31349   9.714  33.470   1.127
66189W        W31350  23.152   5.908   1.478
66190W        W31351  24.087  31.995  14.459
66191W        W31352  17.982  14.829  13.451
66192W        W31353  38.143  13.334   2.619
66193W        W31354  20.122  20.139   5.477
66194W        W31355   9.739  15.658   2.213
66195W        W31356  43.284  34.116  14.963
66196W        W31357  10.702  17.540   1.823
66197W        W31358  18.475  14.364  10.242
66198W        W31359   3.280  39.409  13.330
66199W        W31360   7.980  23.407  11.105
66200W        W31361  30.946  29.114   4.306
66201W        W31362  16.271   4.867  10.680
66202W        W31363   3.191  24.962  11.650
66203W        W31364   0.889  26.930  11.547
66204W        W31365  15.061  22.147   2.775
66205W        W31366  10.713  27.077   3.763
66206W        W31367   5.624  44.983   2.823
66207W        W31368  30.927  19.638  12.202
66208W        W31369  37.335  12.763   4.109
66209W        W31370  36.589  38.590   3.712
66210W        W31371  19.641  17.606  13.152
66211W        W31372   1.968  25.204   2.207
66212W        W31373  29.020  41.796  12.079
66213W        W31374  14.400  15.064   3.940
66214W        W31375   2.048   8.976   1.737
66215W        W31376  23.516  14.308   2.129
66216W        W31377   6.072  29.608   1.227
66217W        W31378  42.854   7.432  12.069
66218W        W31379   0.389  17.876   1.334
66219W        W31380  31.839  22.620   1.841
66220W        W31381  11.642  20.345   0.872
66221W        W31382  22.091  42.505  11.593
66222W        W31383  28.125  13.642  12.539
66223W        W31384   0.044  29.207  12.010
66224W        W31385  20.508  26.482   1.541
66225W        W31386  32.567   2.383   2.802
66226W        W31387   8.639  33.390   3.659
66227W        W31388  13.833   6.983   3.905
66228W        W31389  42.644  18.523   1.432
66229W        W31390  28.666   8.081   4.023
66230W        W31391  32.685  39.848  13.905
66231W        W31392  35.221  20.963  12.531
66232W        W31393  18.756  28.946   0.758
66233W        W31394   4.282  41.945   1.659
66234W        W31395  41.365  35.822   2.414
66235W        W31396  18.603  32.473  10.695
66236W        W31397  22.200  19.063  13.812
66237W        W31398  44.779  25.990  14.358
66238W        W31399  41.330  44.385   3.690
66239W        W31400  19.747  22.786   3.813
66240W        W31401  34.866   9.091  12.838
66241W        W31402  29.910  29.991  10.398
66242W        W31403  38.049   0.414   4.138
66243W        W31404  32.677   8.908  14.864
66244W        W31405  11.684  18.966   0.404
66245W        W31406  35.379  27.359   2.082
66246W        W31407  10.783  38.938  14.874
66247W        W31408  37.572  35.293   2.161
66248W        W31409  37.695  20.579   0.215
66249W        W31410  35.990   8.605  12.445
66250W        W31411  33.700  22.951  10.654
66251W        W31412  36.572  16.800  12.622
66252W        W31413  18.168  23.899   0.069
66253W        W31414  14.808  13.256  12.436
66254W        W31415  16.872  13.584   0.445
66255W        W31416   6.856  38.175   1.700
66256W        W31417  33.855   3.940   2.884
66257W        W31418  18.318  34.302  11.726
66258W        W31419   7.302  38.578  13.534
66259W        W31420   7.123  42.964   0.502
66260W        W31421  26.190   0.919   4.155
66261W        W31422   3.884  28.200   3.725
66262W        W31423  20.508   7.690   0.330
66263W        W31424  29.099   9.654   4.570
66264W        W31425  35.950  32.594  11.618
66265W        W31426   9.257  38.957   3.222
66266W        W31427  35.784   9.813  13.040
66267W        W31428  26.644  26.101   0.065
66268W        W31429  34.490  23.066  10.899
66269W        W31430  44.282  29.086   1.450
66270W        W31431   6.143   7.376   1.757
66271W        W31432  34.961  22.474  14.985
66272W        W31433  21.932   0.539  10.642
66273W        W31434  36.376  33.472  11.507
66274W        W31435  16.649  25.989  14.500
66275W        W31436   0.731  25.064   3.192
66276W        W31437  33.131   7.409  13.468
66277W        W31438  28.099  12.333  12.866
66278W        W31439  29.943  11.874   4.078
66279W        W31440  17.293  17.545  10.161
66280W        W31441  24.782   9.448  13.512
66281W        W31442  39.309  11.749   4.078
66282W        W31443  33.416   5.101   3.081
66283W        W31444  27.558  15.890   3.294
66284W        W31445   7.917   0.739  12.029
66285W        W31446  32.837  23.911   2.816
66286W        W31447  20.996  36.942   2.113
66287W        W31448  26.259  44.898  10.480
66288W        W31449  19.266   8.403   4.975
66289W        W31450   4.406   8.534   4.848
66290W        W31451  28.269  38.978   3.322
66291W        W31452   2.916   5.657   0.905
66292W        W31453  39.548   1.918  11.643
66293W        W31454  33.473  12.841  11.786
66294W        W31455  43.060  17.478   0.363
66295W        W31456  32.903  22.614   0.942
66296W        W31457  26.251  23.474   2.538
66297W        W31458  27.563  35.778   1.896
66298W        W31459  32.558  17.522   1.213
66299W        W31460  34.450  20.247  11.201
66300W        W31461  44.973  11.992  11.526
66301W        W31462  25.534  16.245   1.672
66302W        W31463  16.377  24.616  10.575
66303W        W31464  35.988  22.157   3.401
66304W        W31465  14.170  34.313  12.892
66305W        W31466   0.767  30.905   4.106
66306W        W31467  36.471  34.683  11.135
66307W        W31468  43.928  19.272  14.820
66308W        W31469   8.323  37.590  11.528
66309W        W31470  43.577  43.978  14.610
66310W        W31471  22.956  33.777   3.742
66311W        W31472   1.526  25.428  11.011
66312W        W31473  10.086  29.371  13.928
66313W        W31474  30.404  34.557  13.380
66314W        W31475  27.776   9.532  12.876
66315W        W31476  29.136  39.533  13.081
66316W        W31477  22.055  18.948   1.624
66317W        W31478  17.342  18.695  12.400
66318W        W31479  14.403   0.057  11.939
66319W        W31480  31.721  26.781   5.259
66320W        W31481   1.763  19.132  12.095
66321W        W31482  18.496   3.007  11.141
66322W        W31483  17.238  33.183  12.206
66323W        W31484  35.991  19.994   3.661
66324W        W31485  14.702  44.451   2.658
66325W        W31486   0.711  32.551  14.277
66326W        W31487  31.461   9.021  11.074
66327W        W31488   4.937  11.401  10.167
66328W        W31489  13.337   4.920   5.124
66329W        W31490  38.445  18.565   2.215
66330W        W31491  30.914  31.777  10.904
66331W        W31492   9.221   3.204  11.141
66332W        W31493  21.647   9.108   2.365
66333W        W31494  31.982   2.878  14.735
66334W        W31495  20.109   9.243   0.238
66335W        W31496   7.441  36.183  11.698
66336W        W31497  27.168  17.648  14.539
66337W        W31498  37.854  43.070  13.135
66338W        W31499  13.439  20.912  11.087
66339W        W31500   5.631  28.727  11.553
66340W        W31501  10.519  42.792  13.905
66341W        W31502  10.404   7.723   0.310
66342W        W31503  34.807   9.705   1.544
66343W        W31504   4.145  13.163   0.773
66344W        W31505   3.733  24.676  14.210
66345W        W31506  38.831  41.977   0.994
66346W        W31507  18.757  25.869   4.879
66347W        W31508   4.077  42.526  11.692
66348W        W31509   6.017   7.935  11.968
66349W        W31510   7.872   6.942   2.693
66350W        W31511  43.321  34.552   3.176
66351W        W31512  37.635  42.286   1.117
66352W        W31513  14.050  28.631   0.927
66353W        W31514   4.254   2.805   2.800
66354W        W31515  10.869  39.526   0.390
66355W        W31516   5.545   1.616  12.518
66356W        W31517  20.141   4.501   4.812
66357W        W31518  37.500  23.584   2.278
66358W        W31519  40.590  34.292   2.264
66359W        W31520   4.857  32.567  11.080
66360W        W31521  17.253  28.988  14.897
66361W        W31522  18.303  43.033   2.907
66362W        W31523  19.010  44.021  13.040
66363W        W31524   3.030  17.352  10.598
66364W        W31525   6.037  26.147   3.569
66365W        W31526  34.945   9.837   2.020
66366W        W31527  19.233  13.307  14.475
66367W        W31528   0.303  42.785  12.555
66368W        W31529   2.694   4.488  13.533
66369W        W31530   5.938  16.355   1.446
66370W        W31531  20.503  22.380  12.027
66371W        W31532  11.608   8.860   2.952
66372W        W31533  44.469  22.721   5.184
66373W        W31534  23.602   3.159  14.296
66374W        W31535  18.201  30.952  14.997
66375W        W31536  22.411  33.876   2.229
66376W        W31537  15.200   4.743   3.873
66377W        W31538  33.431  36.383   2.547
66378W        W31539   8.579   0.322   3.219
66379W        W31540  40.045  36.941  14.949
66380W        W31541  22.035  28.648   4.070
66381W        W31542   3.516  41.397  14.752
66382W        W31543  37.420  37.901  13.997
66383W        W31544  34.782  14.591   2.257
66384W        W31545  33.418   3.793   0.320
66385W        W31546  14.633  26.168   4.548
66386W        W31547  14.272  10.455   2.084
66387W        W31548  11.285  27.243  12.002
66388W        W31549  32.854  23.752  12.582
66389W        W31550  28.617  29.974   4.682
66390W        W31551  39.027   9.198  12.905
66391W        W31552  30.127  21.275   5.080
66392W        W31553   1.885  19.006   2.058
66393W        W31554   0.096   6.396  12.436
66394W        W31555  16.104  29.753   0.019
66395W        W31556  24.220  13.427   4.112
66396W        W31557  20.022  11.521   4.485
66397W        W31558  14.649  39.532   3.808
66398W        W31559  44.942  32.898  14.475
66399W        W31560  19.465  10.028   0.348
66400W        W31561  21.030  30.696   3.692
66401W        W31562  38.436  17.935  11.032
66402W        W31563   4.892  44.557  14.791
66403W        W31564  25.722   9.833  11.141
66404W        W31565  21.002  28.062   0.276
66405W        W31566  39.257  14.186  10.817
66406W        W31567  10.183  10.926  11.748
66407W        W31568   2.358  25.414  11.635
66408W        W31569  41.913  36.494   2.782
66409W        W31570  11.770   0.979   3.786
66410W        W31571  19.756  18.538   1.279
66411W        W31572   8.111  16.075   0.787
66412W        W31573  44.962  19.518   0.705
66413W        W31574   7.873  23.556  11.595
66414W        W31575   9.591  43.964   2.797
66415W        W31576  41.004  21.025   3.259
66416W        W31577  33.584  34.906   0.035
66417W        W31578   2.838  16.737   0.020
66418W        W31579   4.445  44.377   5.122
66419W        W31580  17.583  25.617  11.180
66420W        W31581  10.759  34.877  13.482
66421W        W31582  18.100  23.967   2.928
66422W        W31583  12.253   2.715   2.087
66423W        W31584  29.510   2.855   0.237
66424W        W31585  10.468  35.063  14.793
66425W        W31586  23.450  19.133  13.389
66426W        W31587  33.058  28.912  13.889
66427W        W31588  23.251   7.758   0.489
66428W        W31589  20.466  26.435  10.846
66429W        W31590  21.319  11.229  10.260
66430W        W31591  40.262  18.130   4.055
66431W        W31592  42.424  27.355  10.639
66432W        W31593  13.572  25.388   0.820
66433W        W31594  40.550  35.809  14.794
66434W        W31595  12.625  20.265   1.561
66435W        W31596  13.193  17.683  14.270
66436W        W31597   1.982  34.993   3.669
66437W        W31598  15.375  25.110   2.406
66438W        W31599  26.109  26.265  14.508
66439W        W31600  13.277   5.941  11.146
66440W        W31601  19.585  42.050  10.278
66441W        W31602  39.593  33.850   4.053
66442W        W31603  43.811  31.457   0.591
66443W        W31604  17.516  41.872   5.042
66444W        W31605  26.629  30.804   0.412
66445W        W31606  18.934  27.073   2.204
66446W        W31607  36.917  42.527  13.920
66447W        W31608  11.240  35.298  14.088
66448W        W31609  13.403  29.488   2.188
66449W        W31610  39.558  37.611  11.191
66450W        W31611   9.121   7.397   4.288
66451W        W31612  17.577   5.161   2.489
66452W        W31613  14.422  26.939   3.219
66453W        W31614  33.914   4.464  14.421
66454W        W31615  32.440  42.498  12.356
66455W        W31616   3.570  42.435   1.410
66456W        W31617   2.613  31.461  13.079
66457W        W31618  26.725  23.153   1.686
66458W        W31619  19.904   8.828   4.381
66459W        W31620  18.819  23.534   0.659
66460W        W31621  10.219  32.964  10.434
66461W        W31622  19.561   9.437   2.340
66462W        W31623  16.691  42.012   0.877
66463W        W31624  33.647  10.242   1.712
66464W        W31625  41.271   7.714  14.582
66465W        W31626  11.213  20.400  12.606
66466W        W31627  15.498  39.650   2.145
66467W        W31628   8.297  23.001  11.080
66468W        W31629  19.599  10.726  12.975
66469W        W31630  14.526   0.257  10.485
66470W        W31631  10.748   0.941  12.037
66471W        W31632  22.841  25.269   3.696
66472W        W31633   3.365  42.263  14.840
66473W        W31634  34.364   4.930   0.394
66474W        W31635  15.387  25.257   0.073
66475W        W31636  38.042  17.060   0.624
66476W        W31637  19.189  42.049  13.864
66477W        W31638  38.869  18.325   0.448
66478W        W31639   9.141  38.926  12.879
66479W        W31640  27.129  10.783  12.877
66480W        W31641  13.145   5.103   2.093
66481W        W31642   1.949  35.797   0.820
66482W        W31643  28.254  30.609  14.798
66483W        W31644   3.985   9.975   1.870
66484W        W31645  24.943  39.491  12.937
66485W        W31646  42.639  21.203   0.932
66486W        W31647   4.888  14.066  12.019
66487W        W31648  31.076  32.096  13.890
66488W        W31649  21.744  32.183  13.512
66489W        W31650  14.048  24.675  11.294
66490W        W31651  35.984   0.902  10.270
66491W        W31652  33.957   8.519  10.678
66492W        W31653  24.034  40.579  12.607
66493W        W31654  38.344  26.367   4.072
66494W        W31655  42.936  31.181   0.935
66495W        W31656  18.167  44.461   1.135
66496W        W31657  33.930  35.324  14.523
66497W        W31658  33.370  15.045   1.909
66498W        W31659  40.453   0.886   1.174
66499W        W31660  12.414  41.444  12.126
66500W        W31661  30.479  33.655  12.837
66501W        W31662  29.325  11.721  14.550
66502W        W31663  26.101  41.192   1.347
66503W        W31664  32.087   1.716  13.263
66504W        W31665  27.995  22.576   1.758
66505W        W31666  35.309  43.814   1.410
66506W        W31667   9.964   7.476   0.406
66507W        W31668  17.732  33.096  12.100
66508W        W31669   9.693  41.436   4.128
66509W        W31670  31.346  27.386   1.771
66510W        W31671  20.386  20.936   1.789
66511W        W31672   9.088  30.069   4.559
66512W        W31673  17.431  26.947  11.327
66513W        W31674  34.839  14.183  12.941
66514W        W31675  41.557  19.742  13.879
66515W        W31676  38.749  22.591   1.034
66516W        W31677   3.880   1.039  13.088
66517W        W31678  22.813  38.858  14.510
66518W        W31679  23.048  14.618   1.411
66519W        W31680   4.869   2.002   1.240
66520W        W31681   3.253  11.059   0.520
66521W        W31682  16.693  22.138   1.834
66522W        W31683  14.599  11.361   2.388
66523W        W31684  41.280  11.883  10.628
66524W        W31685  29.951  28.617  13.983
66525W        W31686  26.979   6.647  11.241
66526W        W31687   8.535  40.619  13.457
66527W        W31688  15.783   7.569  14.382
66528W        W31689  35.043  20.462  14.971
66529W        W31690  18.800  42.445  11.116
66530W        W31691  43.370  10.263   1.436
66531W        W31692   2.772  20.020  11.200
66532W        W31693  31.376  39.453   3.713
66533W        W31694  11.757  21.327   0.783
66534W        W31695   7.020  32.513   2.727
66535W        W31696  43.904   1.394  11.514
66536W        W31697   3.021  15.955   4.985
66537W        W31698   5.129   2.487   4.278
66538W        W31699  35.854  11.804   3.775
66539W        W31700  27.000  41.367  12.891
66540W        W31701  14.129  25.023   3.631
66541W        W31702  32.625  23.203   3.732
66542W        W31703  34.900  44.924  11.945
66543W        W31704   1.973  38.942   3.874
66544W        W31705  43.659  33.963   5.011
66545W        W31706  25.017  29.990   2.672
66546W        W31707  22.441  26.665  11.182
66547W        W31708  37.516   2.244  14.012
66548W        W31709   0.199  31.726   1.804
66549W        W31710   7.452  20.235   2.368
66550W        W31711  27.109  32.158   3.695
66551W        W31712  19.952  40.054  12.423
66552W        W31713   0.834  23.273   3.075
66553W        W31714  38.870  27.752  10.735
66554W        W31715  11.368  15.774   0.734
66555W        W31716  30.762  16.288   3.374
66556W        W31717  23.627  25.685   3.292
66557W        W31718  38.827  25.695   0.047
66558W        W31719   5.624  33.475   2.403
66559W        W31720  31.279  38.083   3.154
66560W        W31721  24.101  36.414  12.501
66561W        W31722  17.987  38.825   5.001
66562W        W31723  27.655  35.983   0.540
66563W        W31724  21.604  22.310  13.668
66564W        W31725  35.508  11.189   3.637
66565W        W31726  16.684  27.949  13.373
66566W        W31727   8.938   8.659  12.477
66567W        W31728  32.169   3.727   1.850
66568W        W31729  10.188  25.654  14.737
66569W        W31730   8.564  29.434   3.423
66570W        W31731   8.302  31.445   1.861
66571W        W31732   4.373   4.001  11.914
66572W        W31733  10.005  15.286  11.144
66573W        W31734  21.598  31.668  12.134
66574W        W31735  27.465  25.292   3.211
66575W        W31736  25.200  11.177   1.222
66576W        W31737   6.200  24.946  11.036
66577W        W31738  41.511  32.011  14.766
66578W        W31739  29.844  35.519   1.922
66579W        W31740  33.303  10.978  13.357
66580W        W31741  13.975  38.404   4.090
66581W        W31742  28.515  32.311   4.623
66582W        W31743  35.332   0.019  12.875
66583W        W31744  22.434  20.079   5.405
66584W        W31745  25.801  37.410   2.264
66585W        W31746   3.214  11.874  13.276
66586W        W31747  44.092  35.489   5.460
66587W        W31748   7.702  37.958  10.738
66588W        W31749  33.361  25.943   3.646
66589W        W31750  19.653   0.313   3.140
66590W        W31751  26.885  28.713   1.738
66591W        W31752  11.369  32.126  12.418
66592W        W31753   5.578  31.486   1.679
66593W        W31754  30.026  22.218  11.636
66594W        W31755   8.142   3.282  11.674
66595W        W31756  13.397   7.913   5.030
66596W        W31757  40.939  10.786  10.694
66597W        W31758  14.132  29.991  10.677
66598W        W31759   4.391   7.442  14.085
66599W        W31760  19.674  29.003   2.506
66600W        W31761   1.488   8.390   1.007
66601W        W31762  31.241  26.642  10.346
66602W        W31763   9.851  25.216  14.062
66603W        W31764  33.554   3.998   0.772
66604W        W31765  16.761  11.102   4.857
66605W        W31766   5.144  17.034  12.037
66606W        W31767  13.352   5.943   1.675
66607W        W31768   8.929   8.328   1.256
66608W        W31769  11.421  19.345  14.519
66609W        W31770  22.788  21.677  13.328
66610W        W31771   9.760   1.239  14.053
66611W        W31772  16.345  20.867  11.578
66612W        W31773  21.484  44.412  10.147
66613W        W31774  16.855  39.478  11.590
66614W        W31775  41.438  33.498   0.545
66615W        W31776  38.840   8.875   2.773
66616W        W31777  21.943  31.583   3.683
66617W        W31778   0.153  33.063  12.130
66618W        W31779  21.684  12.097   4.614
66619W        W31780  38.565  12.868  10.757
66620W        W31781  43.870  35.640   3.774
66621W        W31782  44.764   2.676   0.267
66622W        W31783  30.106  11.732  13.931
66623W        W31784   3.957  42.631  13.910
66624W        W31785  17.637  37.424   1.298
66625W        W31786  37.524   1.627   1.243
66626W        W31787  42.812  29.605  13.389
66627W        W31788  10.619  18.112  12.397
66628W        W31789  13.760  18.602   1.854
66629W        W31790  27.657  31.554   1.503
66630W        W31791   3.742  23.025  10.214
66631W        W31792   0.837  37.657   1.584
66632W        W31793   6.735  33.150  14.153
66633W        W31794  28.916  25.158   3.340
66634W        W31795  28.678   2.023   0.443
66635W        W31796   0.047   6.127  11.997
66636W        W31797  31.614   9.382  10.728
66637W        W31798  15.396  14.308   4.977
66638W        W31799  13.642  29.518   4.620
66639W        W31800  28.515  21.070  11.159
66640W        W31801  22.918  33.082   2.179
66641W        W31802  20.538  25.699  13.972
66642W        W31803  43.340  34.361   3.661
66643W        W31804  32.947  43.077  10.275
66644W        W31805  26.653  23.508  10.701
66645W        W31806  29.466  15.942  10.865
66646W        W31807  23.912  35.539   0.837
66647W        W31808  40.786  23.022   0.480
66648W        W31809   2.932   9.396  14.028
66649W        W31810  21.504  41.505  11.136
66650W        W31811  26.064   8.397   2.744
66651W        W31812  44.380  39.335  13.019
66652W        W31813  25.481  13.300   3.736
66653W        W31814  15.826  22.808  10.721
66654W        W31815   0.831  38.588  11.662
66655W        W31816  29.856   7.305  12.517
66656W        W31817  34.070  22.743   2.325
66657W        W31818  37.736  44.000   0.004
66658W        W31819  18.509   1.657   2.968
66659W        W31820  31.814  38.287   1.016
66660W        W31821  19.636   8.321   4.648
66661W        W31822  36.620   4.765   4.927
66662W        W31823   1.103  37.330   2.798
66663W        W31824  26.935   6.737  10.739
66664W        W31825  43.090  43.884  14.446
66665W        W31826   7.587  28.663  14.087
66666W        W31827  37.526  30.102   3.226
66667W        W31828  42.992  31.480  13.899
66668W        W31829   1.768  28.098  12.056
66669W        W31830  43.014  19.791   4.337
66670W        W31831  24.456  10.182  13.827
66671W        W31832  21.063   1.274  10.952
66672W        W31833  36.197  23.986  11.535
66673W        W31834  26.230  30.521   1.215
66674W        W31835  23.641  29.676  10.873
66675W        W31836  14.891   6.561   2.823
66676W        W31837  20.343  40.135   0.545
66677W        W31838  31.937   3.381   2.235
66678W        W31839  16.310  31.000  13.028
66679W        W31840  41.618  39.080   3.096
66680W        W31841   6.924   4.347   3.123
66681W        W31842  20.233  14.810  12.721
66682W        W31843  21.657   1.057  14.955
66683W        W31844  40.245  24.873   3.989
66684W        W31845  44.339  12.566  11.849
66685W        W31846  27.174  35.861   0.356
66686W        W31847  16.861  15.884  13.345
66687W        W31848   5.668  22.808   1.709
66688W        W31849  18.225  27.064  14.314
66689W        W31850  43.298  17.385  12.489
66690W        W31851  36.651  29.410   2.695
66691W        W31852  16.694   3.553  13.072
66692W        W31853  35.340  17.535   0.817
66693W        W31854  38.841  42.001  13.675
66694W        W31855  43.875  40.897   2.693
66695W        W31856  36.485  43.361  12.088
66696W        W31857  25.595  12.923  13.539
66697W        W31858  11.293  28.694   0.869
66698W        W31859   6.821  39.511  14.074
66699W        W31860  14.586  22.453   1.102
66700W        W31861  34.640  10.166  13.505
66701W        W31862  35.511  32.810   3.632
66702W        W31863  12.551   7.302  13.350
66703W        W31864  19.548  20.029   1.629
66704W        W31865  18.723   2.841  12.194
66705W        W31866   7.052   0.363   0.431
66706W        W31867  26.967   3.160  13.371
66707W        W31868   9.298   5.904   2.246
66708W        W31869   2.974  33.603   2.840
66709W        W31870  11.240  44.893   0.764
66710W        W31871  38.443  11.775  10.510
66711W        W31872   9.918  44.544  10.729
66712W        W31873  32.330  24.511  11.580
66713W        W31874  35.330   8.279   1.395
66714W        W31875  26.240  40.982  13.378
66715W        W31876  22.088  14.957   2.712
66716W        W31877  24.798  39.001   2.187
66717W        W31878  44.829   9.927   1.467
66718W        W31879  30.065  44.789  12.531
66719W        W31880  34.955   9.347  14.594
66720W        W31881  22.832  36.890  11.267
66721W        W31882  22.587  11.628   5.000
66722W        W31883  38.617  23.225   2.216
66723W        W31884   6.205  21.193  10.362
66724W        W31885  32.937  28.902  12.932
66725W        W31886  23.566  38.969  14.072
66726W        W31887   9.914  35.619   1.422
66727W        W31888  34.808  32.635   2.158
66728W        W31889  10.242  28.814   3.103
66729W        W31890  19.675  19.758  12.644
66730W        W31891   0.912   0.455  14.073
66731W        W31892   5.409   9.337  14.984
66732W        W31893  34.947  18.201   3.797
66733W        W31894  34.342  34.297   4.044
66734W        W31895  10.772  22.771   4.817
66735W        W31896  31.831  25.073  14.066
66736W        W31897  23.162  24.260   2.375
66737W        W31898  16.317  11.749   0.229
66738W        W31899   2.175   3.365   1.335
66739W        W31900   2.322  30.418  11.549
66740W        W31901   2.434  44.028   3.274
66741W        W31902   2.431  25.657   4.250
66742W        W31903  20.384  40.579   5.005
66743W        W31904  22.532  13.366   2.370
66744W        W31905   8.900   9.251  14.424
66745W        W31906  12.698  24.959   3.688
66746W        W31907   4.164  17.314   4.006
66747W        W31908  20.523  23.438  11.944
66748W        W31909  19.033  18.947  14.054
66749W        W31910  12.164  38.366   1.229
66750W        W31911  26.314   9.236  10.583
66751W        W31912  39.036  37.356   2.922
66752W        W31913  20.568   2.279   3.666
66753W        W31914  23.762  33.971  14.317
66754W        W31915  26.118  18.616   3.977
66755W        W31916  23.697  16.237  11.895
66756W        W31917  11.541   6.377   1.876
66757W        W31918  12.721  43.587   2.232
66758W        W31919   5.938  14.591   3.784
66759W        W31920  12.550  17.027  14.358
66760W        W31921  40.408  13.378   0.260
66761W        W31922  34.846  11.709  11.275
66762W        W31923  23.215   6.686   3.683
66763W        W31924   8.347  43.342  12.621
66764W        W31925  19.665   0.778  13.978
66765W        W31926  24.133  35.025   0.142
66766W        W31927  14.311  35.408   4.934
66767W        W31928  14.113  29.222   2.806
66768W        W31929   8.742  23.953  13.948
66769W        W31930  36.069  24.832   1.158
66770W        W31931  44.535  22.672   0.090
66771W        W31932  25.936  34.109   4.878
66772W        W31933  42.468  21.476  10.927
66773W        W31934  14.007  20.590   4.302
66774W        W31935   7.072  20.610  13.473
66775W        W31936  30.890  28.017   3.658
66776W        W31937   9.813  20.963  12.372
66777W        W31938  28.282  28.556  12.994
66778W        W31939  43.062  13.126  10.731
66779W        W31940  27.596  13.269   0.333
66780W        W31941  10.846  32.929  12.429
66781W        W31942  44.036  24.194  12.198
66782W        W31943  15.390  20.295  12.581
66783W        W31944  38.037  37.654  12.431
66784W        W31945  21.854  21.311   3.709
66785W        W31946  41.408  11.366   3.370
66786W        W31947  33.076   9.479   4.468
66787W        W31948  44.956  24.447  11.563
66788W        W31949  30.060  41.956  10.619
66789W        W31950  22.082  33.599   4.187
66790W        W31951   8.078  44.026   2.138
66791W        W31952  10.864   4.276  14.870
66792W        W31953   1.411  13.081  10.729
66793W        W31954   8.802  37.402  11.617
66794W        W31955  10.402  22.673  10.767
66795W        W31956  33.566  44.896   0.844
66796W        W31957  24.874   7.626  14.906
66797W        W31958  15.887   8.557  14.654
66798W        W31959  32.717   4.673  13.793
66799W        W31960  28.962   7.104   0.496
66800W        W31961  11.824  41.893   3.205
66801W        W31962  10.149  14.700   0.504
66802W        W31963  44.611  42.535  14.922
66803W        W31964  25.006  41.555   2.244
66804W        W31965  27.966  41.399   1.764
66805W        W31966  29.315  44.262  14.185
66806W        W31967  39.182  37.405   4.162
66807W        W31968  24.073  15.086  11.441
66808W        W31969  27.708  37.095  12.619
66809W        W31970  21.741  42.152   2.737
66810W        W31971  35.629  37.553   2.782
66811W        W31972   6.333  18.160   3.273
66812W        W31973  26.601  39.984   1.631
66813W        W31974  26.865   0.529  12.854
66814W        W31975  26.018  26.491  14.061
66815W        W31976  26.850  12.447   2.322
66816W        W31977  25.530  15.841  10.267
66817W        W31978   0.712   9.651  10.215
66818W        W31979  15.450  35.092  12.039
66819W        W31980   2.403   9.417  10.506
66820W        W31981   4.497  29.430  14.474
66821W        W31982   4.482   1.323  12.219
66822W        W31983  19.638   3.558  11.463
66823W        W31984   5.001  30.506   1.498
66824W        W31985  37.948   5.422   0.287
66825W        W31986  38.085  40.069  12.311
66826W        W31987  29.252  31.933   0.001
66827W        W31988  13.225  25.869  13.034
66828W        W31989  11.206  21.328   4.682
66829W        W31990  19.537  25.674   2.446
66830W        W31991  18.712  13.925  13.853
66831W        W31992  34.605  14.113   4.405
66832W        W31993  22.671   9.473  12.453
66833W        W31994  28.319  37.909  14.904
66834W        W31995  26.681   6.096  11.985
66835W        W31996   5.762  32.007   2.728
66836W        W31997  24.945   2.135  11.145
66837W        W31998  31.697  11.923  13.616
66838W        W31999   9.906   3.143   4.264
66839W        W32000  31.199  35.130   2.745
66840W        W32001  14.294   7.352   4.472
66841W        W32002  16.832  20.593   0.823
66842W        W32003   6.136   9.334   4.354
66843W        W32004   0.427  37.827   3.966
66844W        W32005  23.499  39.483   0.650
66845W        W32006  36.937  17.889  13.331
66846W        W32007  28.446   5.068  11.190
66847W        W32008  33.406   3.747  14.414
66848W        W32009  17.273  12.696  10.749
66849W        W32010  25.374  28.972   0.855
66850W        W32011  25.159  40.700   1.433
66851W        W32012  14.764  33.481   4.630
66852W        W32013  26.222  13.286  14.380
66853W        W32014   5.514  38.846   4.693
66854W        W32015  35.417  12.117   2.749
66855W        W32016   1.554  35.048   4.063
66856W        W32017  43.225  22.935   1.378
66857W        W32018  16.417  25.160   1.636
66858W        W32019   3.827  28.651  11.536
66859W        W32020  43.422  18.561  13.871
66860W        W32021   3.304   1.379   2.200
66861W        W32022  21.431  11.232   4.604
66862W        W32023  12.698  39.849  12.892
66863W        W32024  19.221  43.727   4.499
66864W        W32025  32.658  24.229   1.150
66865W        W32026  22.727   8.104  14.363
66866W        W32027  18.441  40.258   1.860
66867W        W32028  30.871  28.959   0.784
66868W        W32029   2.425  37.774  11.890
66869W        W32030  12.879  42.865  14.493
66870W        W32031  37.569  18.664   2.817
66871W        W32032  18.768   0.049  10.715
66872W        W32033   8.402  21.969  11.084
66873W        W32034   6.751  17.869  14.382
66874W        W32035  33.603  17.065  14.212
66875W        W32036   4.173  15.097   3.660
66876W        W32037  41.081  26.111   0.819
66877W        W32038  14.690   9.652   2.699
66878W        W32039  27.661  23.621   0.025
66879W        W32040  24.974   3.985   2.824
66880W        W32041  37.936  32.652  14.438
66881W        W32042  19.868  15.106  13.487
66882W        W32043  30.176  41.883   1.908
66883W        W32044  24.300  20.136   3.089
66884W        W32045  14.839  26.480   1.778
66885W        W32046   8.771  42.494   0.557
66886W        W32047   4.355   8.280  14.836
66887W        W32048  16.213  33.703   5.036
66888W        W32049  32.477  18.136   3.813
66889W        W32050  21.316  16.153   3.581
66890W        W32051  39.913  37.552   4.968
66891W        W32052  13.143  28.693   3.707
66892W        W32053  41.120  12.279   0.274
66893W        W32054   8.857  34.423  10.694
66894W        W32055  33.118   0.849   4.079
66895W        W32056   0.853  34.900  12.594
66896W        W32057  10.059  14.082  11.545
66897W        W32058   2.460  24.434  13.290
66898W        W32059  11.215  31.602  10.714
66899W        W32060  35.736  18.286   4.223
66900W        W32061  20.689  25.024   5.018
66901W        W32062   3.909  10.842   4.554
66902W        W32063  44.786  24.016  10.699
66903W        W32064  30.880   7.266  12.555
66904W        W32065   5.591   2.545   4.534
66905W        W32066  44.513   9.879   0.387
66906W        W32067  24.597  16.116   2.815
66907W        W32068  13.123  35.295   1.174
66908W        W32069  10.861   5.390  10.576
66909W        W32070  17.558  10.356   2.342
66910W        W32071  24.840  30.398  11.033
66911W        W32072  31.948  18.395   2.366
66912W        W32073  24.084   5.165   2.627
66913W        W32074   3.892  18.772  12.924
66914W        W32075  10.369  27.713   4.154
66915W        W32076  14.271  43.692  14.978
66916W        W32077  33.159  40.661   0.832
66917W        W32078  28.502   4.616   1.212
66918W        W32079  17.551   2.972  14.322
66919W        W32080  15.542  30.622  10.377
66920W        W32081   5.688  18.028  14.276
66921W        W32082  31.611  27.349  12.491
66922W        W32083  12.135  29.112   1.277
66923W        W32084  37.627  42.459  13.468
66924W        W32085   6.862  34.066  13.638
66925W        W32086  39.773  38.150   3.255
66926W        W32087  33.164  39.015   1.912
66927W        W32088   6.916  30.554   0.163
66928W        W32089   4.989  17.350   2.330
66929W        W32090  41.620   0.561   4.164
66930W        W32091  35.469  31.138  13.617
66931W        W32092  14.354  24.167   3.650
66932W        W32093   3.641  16.582  14.719
66933W        W32094  22.880  43.315  10.474
66934W        W32095  17.696  10.770  12.428
66935W        W32096  16.289  42.883   1.694
66936W        W32097  30.477  13.259  13.411
66937W        W32098  21.194  16.868  11.965
66938W        W32099  35.228  14.754   4.588
66939W        W32100  24.066  40.522   3.483
66940W        W32101  33.360   2.080   4.040
66941W        W32102  13.694   5.932   1.296
66942W        W32103  23.357  20.708  14.475
66943W        W32104  36.099  18.699  14.882
66944W        W32105  42.776  44.818   4.161
66945W        W32106   9.926  32.564   0.672
66946W        W32107  25.860  15.087  12.998
66947W        W32108  28.219  15.310  14.533
66948W        W32109   6.803  38.803   4.138
66949W        W32110  36.882  14.145  11.895
66950W        W32111  22.473  18.991  11.186
66951W        W32112   9.127   6.009   4.330
66952W        W32113   2.218   5.672   3.490
66953W        W32114  17.262  31.490  10.664
66954W        W32115  41.877  41.858   3.329
66955W        W32116   7.573  28.187   1.463
66956W        W32117  31.029   6.170  10.753
66957W        W32118  28.555   8.027   3.235
66958W        W32119  31.875  27.574  13.501
66959W        W32120  17.008  33.186   1.262
66960W        W32121   0.763  12.327  12.271
66961W        W32122  26.734   7.384   2.116
66962W        W32123   3.528  21.462  11.553
66963W        W32124  16.084   8.049  11.519
66964W        W32125  22.257  41.809  12.707
66965W        W32126   8.210  32.572  14.011
66966W        W32127   7.677  43.962  11.584
66967W        W32128  26.246  28.357  11.557
66968W        W32129  30.938  10.122  11.520
66969W        W32130  31.390   7.880  11.287
66970W        W32131   4.103   9.178   2.301
66971W        W32132  25.051  25.728   4.104
66972W        W32133  26.374  30.025  11.192
66973W        W32134  18.019  32.673   4.023
66974W        W32135  40.529   8.783   3.226
66975W        W32136  41.812  16.395   0.068
66976W        W32137  29.652   2.812  12.560
66977W        W32138   4.288  28.480   3.641
66978W        W32139  21.807  10.363   2.833
66979W        W32140  28.741   7.572  10.663
66980W        W32141  34.877  15.136   3.487
66981W        W32142   7.326  27.258  10.662
66982W        W32143   9.228  21.638  13.098
66983W        W32144  35.683  40.854  10.742
66984W        W32145  38.134  24.488   0.326
66985W        W32146   6.648  12.233   2.392
66986W        W32147  40.591  22.973  13.423
66987W        W32148  29.357  37.971  11.074
66988W        W32149  36.405  21.027  14.069
66989W        W32150   2.855  37.320  13.501
66990W        W32151   6.046  31.768   3.107
66991W        W32152  23.082  38.794   0.926
66992W        W32153  17.676  24.052  14.788
66993W        W32154   3.535   7.821   3.334
66994W        W32155   7.884  21.211   4.725
66995W        W32156  17.657   5.835   3.114
66996W        W32157  31.952  15.908   1.243
66997W        W32158   9.082  39.046   0.193
66998W        W32159  42.497   9.828  12.566
66999W        W32160   6.014  28.026  14.096
67000W        W32161   6.928  39.386  12.710
67001W        W32162  37.333  16.818  12.994
67002W        W32163  35.277  37.414   0.262
67003W        W32164  30.204   5.832  14.978
67004W        W32165   1.329   1.003  11.954
67005W        W32166  36.876  27.130   0.927
67006W        W32167  33.887  34.083  10.699
67007W        W32168   2.018  25.135   4.119
67008W        W32169  30.876  35.055   3.265
67009W        W32170  44.363  36.001  13.659
67010W        W32171   4.166   6.761  14.870
67011W        W32172   4.690   6.290  14.334
67012W        W32173  28.185  35.050   4.541
67013W        W32174   6.841  37.456  11.796
67014W        W32175  44.723  43.470  11.728
67015W        W32176  39.392  11.885  12.072
67016W        W32177  10.364  23.259   1.734
67017W        W32178  10.172  40.997   4.632
67018W        W32179   0.270   9.213  14.684
67019W        W32180  17.645   9.941   2.646
67020W        W32181  14.727  37.400  14.311
67021W        W32182  15.157   4.834  13.087
67022W        W32183  21.237  11.776   3.340
67023W        W32184  12.682  41.965   4.289
67024W        W32185  31.147  24.572   4.997
67025W        W32186   7.340  29.883   2.269
67026W        W32187   3.878   4.371  10.808
67027W        W32188  24.735   9.660   3.258
67028W        W32189  15.098  17.672  10.705
67029W        W32190  42.602  20.633   2.479
67030W        W32191  14.677  27.564   2.787
67031W        W32192   8.299  16.288   2.642
67032W        W32193  39.288  43.909  11.067
67033W        W32194  31.552   3.227  11.672
67034W        W32195  14.142  15.173  14.714
67035W        W32196  40.543  16.346   3.694
67036W        W32197  28.654   2.843   1.222
67037W        W32198   8.258  41.250  14.929
67038W        W32199  40.625  26.915  11.601
67039W        W32200   7.908   8.838   1.791
67040W        W32201  39.479   8.724   0.548
67041W        W32202  18.127  35.461   4.135
67042W        W32203  21.189  44.053   2.863
67043W        W32204  31.626   1.692   1.389
67044W        W32205  18.523  38.990  12.382
67045W        W32206  31.830  28.514  14.447
67046W        W32207  37.572  17.113  11.233
67047W        W32208  15.732  23.742   4.352
67048W        W32209   8.084   2.460  11.116
67049W        W32210   8.144  22.700  14.766
67050W        W32211  23.648  31.991   0.442
67051W        W32212  17.795  18.699  11.085
67052W        W32213  31.939  44.203   1.032
67053W        W32214  40.287  11.230   3.629
67054W        W32215  31.922  32.212  12.540
67055W        W32216  36.194  41.226  12.912
67056W        W32217  34.969  27.083   4.696
67057W        W32218  36.500   7.111   2.295
67058W        W32219  39.847  21.949   3.618
67059W        W32220   5.012  26.231  12.472
67060W        W32221  13.567  34.627   4.133
67061W        W32222  29.471  38.786  12.743
67062W        W32223  25.766   5.737  13.383
67063W        W32224  23.611   0.695   4.871
67064W        W32225  38.594  25.693  10.653
67065W        W32226   9.261   9.251   0.846
67066W        W32227  26.458  37.849   0.074
67067W        W32228  12.825  33.573  12.632
67068W        W32229  23.413  31.768   4.394
67069W        W32230  18.990  39.553  14.585
67070W        W32231   2.334  16.363   2.725
67071W        W32232  36.923  29.205   3.356
67072W        W32233  36.504  18.999  14.035
67073W        W32234  34.676  40.970  14.809
67074W        W32235  16.742  39.763  12.082
67075W        W32236   7.849  22.696   0.650
67076W        W32237   6.747  22.181   3.676
67077W        W32238   6.657   6.197   3.286
67078W        W32239  43.430  25.915   3.731
67079W        W32240   7.853  13.875  12.019
67080W        W32241   9.780  26.788  12.031
67081W        W32242   1.079  26.571  12.803
67082W        W32243  33.286  36.248  13.843
67083W        W32244  13.337  31.522   0.365
67084W        W32245  39.784  40.834  14.836
67085W        W32246  23.648  28.467  12.383
67086W        W32247  11.308   1.412  13.512
67087W        W32248   2.905  41.908  13.545
67088W        W32249   4.805  29.140  10.746
67089W        W32250  33.356  22.912   1.917
67090W        W32251  42.512  42.883   1.333
67091W        W32252   7.160  44.971  14.363
67092W        W32253  42.296  14.790   3.683
67093W        W32254  28.665  34.465   2.282
67094W        W32255  43.355  20.507   1.726
67095W        W32256  32.520  30.227  12.087
67096W        W32257  26.711  32.289   4.003
67097W        W32258   8.520  42.544  12.415
67098W        W32259   3.866  28.551  14.497
67099W        W32260   9.403  17.278   3.169
67100W        W32261  39.986   7.774  12.337
67101W        W32262   8.293  40.458   4.893
67102W        W32263  32.017   3.089  11.477
67103W        W32264   2.768   8.662  14.958
67104W        W32265  18.236   2.937   4.485
67105W        W32266  24.537  26.583   2.767
67106W        W32267  13.659  11.271  10.769
67107W        W32268  15.576   4.941   2.211
67108W        W32269  31.091  32.627   2.353
67109W        W32270   7.526  13.180  10.879
67110W        W32271  12.666  15.282  13.518
67111W        W32272  29.847  38.000  10.996
67112W        W32273  36.548   9.691   4.288
67113W        W32274   8.555  30.916  11.454
67114W        W32275  15.785  26.484   1.264
67115W        W32276  34.342  24.089  11.362
67116W        W32277  17.132  26.684   3.202
67117W        W32278  43.512  13.408  12.483
67118W        W32279  21.199  35.879   0.035
67119W        W32280  17.012  36.522   3.697
67120W        W32281  37.888  24.261  12.139
67121W        W32282  11.338  28.394  13.715
67122W        W32283  39.357  24.695   3.385
67123W        W32284  12.298  14.576  12.265
67124W        W32285   4.621  25.014   3.052
67125W        W32286  14.968   4.162  11.517
67126W        W32287  15.698  17.073   2.217
67127W        W32288  44.679  36.089  11.893
67128W        W32289  30.112  24.451  13.477
67129W        W32290  11.185  14.535  14.600
67130W        W32291  28.033  40.693   2.786
67131W        W32292   6.809  30.937  10.628
67132W        W32293  13.625  14.518   0.419
67133W        W32294  36.646  42.959  13.041
67134W        W32295  35.415   1.385   4.343
67135W        W32296   1.652  36.915   0.855
67136W        W32297  23.159  40.075   2.250
67137W        W32298  32.545  21.785  13.546
67138W        W32299   1.395  22.806  12.071
67139W        W32300  25.216  42.230  11.540
67140W        W32301  13.764  43.261   4.111
67141W        W32302  40.785   7.197   3.635
67142W        W32303  37.799  38.985   4.217
67143W        W32304  21.500   9.310   4.615
67144W        W32305  40.922  25.033  14.452
67145W        W32306  37.639  27.642   4.020
67146W        W32307  14.856  26.714   1.326
67147W        W32308   0.716  13.953   2.420
67148W        W32309  19.075   8.054  14.218
67149W        W32310  32.925  15.159  12.975
67150W        W32311  35.088  10.243  11.432
67151W        W32312  24.931  27.596  12.484
67152W        W32313  43.237  38.158  11.562
67153W        W32314  41.831  38.741   1.383
67154W        W32315  34.156  23.127   4.417
67155W        W32316   1.542   1.407   0.486
67156W        W32317  41.904  10.397  13.824
67157W        W32318  32.706  31.414  12.489
67158W        W32319  15.603   4.057  10.632
67159W        W32320  37.074  43.266  10.890
67160W        W32321  17.598  34.697  14.419
67161W        W32322  28.892  44.083  13.903
67162W        W32323  28.112  44.810   0.732
67163W        W32324   6.228  23.920  11.098
67164W        W32325  41.048  16.290   3.693
67165W        W32326  29.878  24.246   2.311
67166W        W32327  22.044   7.707   0.461
67167W        W32328  25.609  30.087  13.015
67168W        W32329  21.655  14.968  13.041
67169W        W32330  40.251   0.109  14.097
67170W        W32331  30.047  37.908   0.434
67171W        W32332   9.875  34.142   4.331
67172W        W32333   9.914  40.408  14.400
67173W        W32334   8.320  41.210  14.049
67174W        W32335  30.114  14.727   4.021
67175W        W32336   4.875  42.906   2.286
67176W        W32337  16.116  41.420  13.369
67177W        W32338  14.106  42.149   2.811
67178W        W32339  33.855  13.577  12.532
67179W        W32340  41.244   2.694   4.140
67180W        W32341  41.285  22.534   4.813
67181W        W32342  21.662  20.511   4.663
67182W        W32343  28.712  39.102  10.745
67183W        W32344   1.421  30.027   3.983
67184W        W32345  26.835   7.395   1.181
67185W        W32346  19.239   3.657  13.220
67186W        W32347  37.964   3.508  14.486
67187W        W32348  35.074   5.404   1.494
67188W        W32349  38.347  23.483   1.231
67189W        W32350  28.914  41.962  12.552
67190W        W32351  32.662   2.596  10.973
67191W        W32352  41.392  39.410  12.045
67192W        W32353  40.530  41.998   1.658
67193W        W32354   0.775  39.357   2.836
67194W        W32355   5.188  23.208   3.307
67195W        W32356  18.286  23.688  12.547
67196W        W32357  16.034  14.177  14.685
67197W        W32358   4.496   9.830   3.548
67198W        W32359  35.401  25.130  12.024
67199W        W32360   7.618  12.156   0.916
67200W        W32361  24.948   0.839   2.787
67201W        W32362  42.955  23.570   2.170
67202W        W32363   2.191  42.815  11.141
67203W        W32364  15.230   3.245   4.537
67204W        W32365  10.345  16.365   2.313
67205W        W32366  26.434  21.218  14.824
67206W        W32367   9.373  42.095  13.923
67207W        W32368  39.877  41.775  11.879
67208W        W32369  37.027  33.498  13.053
67209W        W32370  38.403  39.943   1.631
67210W        W32371  17.146  12.933  11.183
67211W        W32372  21.178   9.205  13.121
67212W        W32373  27.966   1.930   3.722
67213W        W32374   8.760  29.659   2.465
67214W        W32375   5.875  21.513   2.628
67215W        W32376   2.951   1.816  11.376
67216W        W32377  19.380  17.248   4.070
67217W        W32378  12.272  40.989  11.984
67218W        W32379  14.967  36.798   2.706
67219W        W32380  43.769  15.775   1.207
67220W        W32381  19.657  25.213   0.679
67221W        W32382  39.277  10.337   4.643
67222W        W32383  25.912   7.068   4.201
67223W        W32384  21.284  33.933   4.378
67224W        W32385  12.936  25.929  14.525
67225W        W32386  18.102  31.882  11.159
67226W        W32387  39.108  17.488   2.708
67227W        W32388  20.711   8.636  10.723
67228W        W32389   0.489  13.158   1.755
67229W        W32390  14.307   7.684   3.935
67230W        W32391  34.902  14.930   4.231
67231W        W32392  19.377   7.493   4.422
67232W        W32393  39.695  27.530  12.040
67233W        W32394  40.640  37.790   0.196
67234W        W32395   6.917  43.762   3.396
67235W        W32396  38.731  16.732  11.102
67236W        W32397   6.830  23.441   4.542
67237W        W32398  17.395  19.143   1.707
67238W        W32399  15.184  29.501  14.997
67239W        W32400   0.341  26.250   4.056
67240W        W32401  15.830  23.007   1.276
67241W        W32402  17.332  30.442   2.307
67242W        W32403  10.886  25.988   4.251
67243W        W32404  32.403  13.570  11.201
67244W        W32405  11.114   1.692   3.758
67245W        W32406  41.595   5.251  11.974
67246W        W32407  10.757  22.578   2.128
67247W        W32408  28.472  13.267  14.752
67248W        W32409   9.374   2.454  14.513
67249W        W32410   5.222  18.675   0.670
67250W        W32411  26.155  41.410   3.739
67251W        W32412  44.815  26.542  11.641
67252W        W32413  17.190  36.378   4.157
67253W        W32414   1.767  17.903  14.510
67254W        W32415  24.906  35.972  13.565
67255W        W32416   9.684   0.469   1.176
67256W        W32417  18.765  15.746   0.010
67257W        W32418  20.344  23.547   0.913
67258W        W32419  18.105  16.963   2.815
67259W        W32420   3.778  38.002   0.826
67260W        W32421  18.332  37.909   0.382
67261W        W32422  30.650  41.975   3.690
67262W        W32423  10.196  18.481  14.433
67263W        W32424  36.990  36.805  11.636
67264W        W32425   6.073   6.720  11.672
67265W        W32426   7.325   8.792  11.223
67266W        W32427  33.787  33.608   2.641
67267W        W32428  10.360  23.086   3.933
67268W        W32429  29.085   2.433  12.467
67269W        W32430  32.815  30.467  13.319
67270W        W32431  11.214  21.739  14.931
67271W        W32432  31.309  15.176   3.216
67272W        W32433   0.174  15.369  13.003
67273W        W32434  44.779  33.427   4.052
67274W        W32435  40.042  39.550   2.199
67275W        W32436  29.060   8.085   1.765
67276W        W32437  14.655  36.530  11.552
67277W        W32438   1.314   3.346  13.349
67278W        W32439  13.765  35.083   3.294
67279W        W32440   2.922  28.009  13.289
67280W        W32441   9.686  20.507  12.653
67281W        W32442  39.214  26.581   3.749
67282W        W32443  22.056  31.465  11.986
67283W        W32444  23.021  12.911  14.826
67284W        W32445   3.898  13.471  13.041
67285W        W32446  19.031   1.707  13.028
67286W        W32447  22.566   0.424   1.998
67287W        W32448  13.561   2.380  12.941
67288W        W32449  30.762   8.064   3.644
67289W        W32450  15.065  26.081   0.347
67290W        W32451  11.374  32.210   3.700
67291W        W32452   3.122  26.481   4.965
67292W        W32453   1.418   5.399  10.677
67293W        W32454  32.617  29.081   3.649
67294W        W32455  26.760  44.845   3.181
67295W        W32456  38.588  41.968   0.352
67296W        W32457  19.991  23.184   1.065
67297W        W32458  43.526   9.787  10.625
67298W        W32459  41.401  29.932  11.677
67299W        W32460   0.380   9.967  11.100
67300W        W32461  44.324  37.835   2.212
67301W        W32462  40.411  41.439   0.856
67302W        W32463  23.977  41.487  14.460
67303W        W32464  37.323   0.885  10.538
67304W        W32465  31.416  20.084  10.630
67305W        W32466  20.656  33.364  14.921
67306W        W32467  40.805  12.154   0.675
67307W        W32468  22.685  31.110  11.410
67308W        W32469  29.654  24.786  10.877
67309W        W32470   5.715  24.982  12.516
67310W        W32471  44.045  35.370   2.397
67311W        W32472  44.880  31.560  14.506
67312W        W32473  21.175  20.667   4.570
67313W        W32474   7.239  11.307  12.797
67314W        W32475  35.456  43.515  12.001
67315W        W32476  41.782  33.395   2.103
67316W        W32477  29.573   5.687   4.198
67317W        W32478   7.142  39.422   0.986
67318W        W32479   9.878  35.699  11.076
67319W        W32480  26.586  21.712  12.640
67320W        W32481  41.131  18.711   1.677
67321W        W32482  10.935   4.231  13.905
67322W        W32483  22.468   2.931  13.513
67323W        W32484  21.681   6.441  11.490
67324W        W32485  27.676  38.965  14.464
67325W        W32486  10.185   2.919  11.709
67326W        W32487  21.542  15.173   2.695
67327W        W32488  41.958  20.223  10.789
67328W        W32489  28.886   3.945  11.455
67329W        W32490   7.344  39.814   1.325
67330W        W32491  39.818  22.112  11.967
67331W        W32492  33.661  19.850  11.181
67332W        W32493  18.239   6.267  12.861
67333W        W32494  11.851  27.902   2.789
67334W        W32495  29.705   9.883   3.403
67335W        W32496  10.381  30.785  11.852
67336W        W32497  33.588   1.745   4.383
67337W        W32498  27.131  15.169  14.389
67338W        W32499  13.065   6.720   2.936
67339W        W32500  30.453  33.878  12.246
67340W        W32501  43.775  29.963   0.855
67341W        W32502   7.608  41.031   2.787
67342W        W32503   4.901   3.274   3.773
67343W        W32504  34.981  38.102   3.949
67344W        W32505  18.812  12.163   4.637
67345W        W32506   2.909  15.710  12.943
67346W        W32507   7.712  36.990  10.527
67347W        W32508  15.779   0.965   2.911
67348W        W32509  44.217  32.153  13.441
67349W        W32510  41.778  15.074   1.372
67350W        W32511  42.384  42.051   1.617
67351W        W32512   9.730  24.053  14.687
67352W        W32513   7.383  13.580   0.793
67353W        W32514   4.756   4.729   3.506
67354W        W32515  15.717  42.997  10.879
67355W        W32516   4.196  13.880   3.234
67356W        W32517  32.600  12.236  12.921
67357W        W32518   2.131  37.445  14.124
67358W        W32519  31.135  12.135  13.189
67359W        W32520   2.370  28.448  14.459
67360W        W32521   6.341   8.229   0.694
67361W        W32522  21.270  44.234   2.196
67362W        W32523  37.571  24.715   1.661
67363W        W32524  35.986   3.264  14.328
67364W        W32525  44.197  35.026  11.114
67365W        W32526  24.412  33.039   2.359
67366W        W32527   5.997  39.623  14.926
67367W        W32528  40.758  22.150   1.539
67368W        W32529   7.201  31.038   0.842
67369W        W32530  29.725   8.240   0.977
67370W        W32531  41.014  18.285  11.560
67371W        W32532  41.473  22.250   3.484
67372W        W32533   9.245  15.521  13.350
67373W        W32534  36.189   9.777  13.862
67374W        W32535  26.546  25.624  11.104
67375W        W32536  34.257  21.896  10.181
67376W        W32537   2.977  40.491   0.404
67377W        W32538  30.093   9.149  13.060
67378W        W32539   0.771  27.444   1.347
67379W        W32540  19.152  34.381  12.871
67380W        W32541  26.799  34.920  12.435
67381W        W32542  36.369   8.793   0.864
67382W        W32543  23.525  38.591  11.707
67383W        W32544  30.994  44.402  13.326
67384W        W32545  41.808  38.785   0.487
67385W        W32546  28.715   0.831   3.038
67386W        W32547  41.850  20.249   2.414
67387W        W32548  36.538  32.897  12.959
67388W        W32549   4.393   6.701   1.826
67389W        W32550  12.231   3.018   1.671
67390W        W32551  14.303  11.663   3.726
67391W        W32552  18.436  38.013  12.895
67392W        W32553  25.610  44.649  14.958
67393W        W32554  23.629   4.872   2.618
67394W        W32555  11.257  36.353  11.900
67395W        W32556  19.334  44.278   1.752
67396W        W32557   6.749   2.622   0.115
67397W        W32558  20.146  38.730   1.866
67398W        W32559  12.843  34.913  11.570
67399W        W32560  18.113  17.063  13.885
67400W        W32561   9.330  10.021  14.739
67401W        W32562  30.110  30.447  10.571
67402W        W32563   4.708   1.439  13.895
67403W        W32564  22.219  42.444   4.619
67404W        W32565  16.902  18.464   4.540
67405W        W32566  19.827  18.451   0.748
67406W        W32567   8.156  41.085   4.534
67407W        W32568  28.004   2.895   2.314
67408W        W32569  36.442  35.514   2.718
67409W        W32570  43.483  32.529   4.124
67410W        W32571   6.343   8.597   0.268
67411W        W32572  15.149  38.270   3.783
67412W        W32573  19.785  34.674  12.806
67413W        W32574  36.831  17.210   4.020
67414W        W32575   4.533   0.309  13.088
67415W        W32576  23.931  42.652   4.985
67416W        W32577   5.326  16.037  11.091
67417W        W32578  33.133  28.347   2.641
67418W        W32579   4.467  14.962   4.105
67419W        W32580   5.009  24.700  12.010
67420W        W32581  18.582  10.978  10.757
67421W        W32582  40.288  18.662   0.201
67422W        W32583  39.918  38.629   3.165
67423W        W32584  11.237  18.128  11.563
67424W        W32585   4.309   7.259  10.486
67425W        W32586  29.009  18.101  12.866
67426W        W32587  28.713  15.106   4.702
67427W        W32588   0.723   3.369  14.078
67428W        W32589  33.589  22.761  12.997
67429W        W32590  35.532  19.918  12.542
67430W        W32591  31.952  20.989   4.241
67431W        W32592  39.148  24.001  10.667
67432W        W32593  21.958  14.204   1.273
67433W        W32594  41.565  31.803  13.941
67434W        W32595   8.755  35.163  11.219
67435W        W32596  37.276  14.549  12.986
67436W        W32597  26.736   7.347   0.668
67437W        W32598   6.430  19.622   2.634
67438W        W32599  10.794  42.082  14.516
67439W        W32600  42.521  30.577  12.880
67440W        W32601  25.989  12.615   0.215
67441W        W32602   2.373   7.873  12.059
67442W        W32603   1.503  12.796  11.161
67443W        W32604  32.377  24.130  14.418
67444W        W32605  34.893  20.135   2.800
67445W        W32606  32.864  28.628   4.322
67446W        W32607   6.398  19.505   0.842
67447W        W32608  10.972  17.082   3.559
67448W        W32609  11.859  21.136   4.084
67449W        W32610   6.170  11.750  13.828
67450W        W32611  29.535  37.873  10.594
67451W        W32612  30.787  20.179  10.107
67452W        W32613   4.097  20.701  12.002
67453W        W32614  30.027  34.549   4.260
67454W        W32615  27.164   9.517   0.362
67455W        W32616  29.035  28.471   3.149
67456W        W32617  35.999  16.459  12.460
67457W        W32618  28.101  31.754   4.180
67458W        W32619  20.808  12.588   3.813
67459W        W32620  44.019  21.236   9.894
67460W        W32621  11.759  17.739  12.091
67461W        W32622  39.899  39.850  11.573
67462W        W32623  38.385  29.869  10.767
67463W        W32624  29.265  20.996   3.049
67464W        W32625  12.276   0.184  14.846
67465W        W32626  18.587  42.905   4.288
67466W        W32627  36.389   6.863  11.606
67467W        W32628  28.069   7.276  14.888
67468W        W32629  27.978  15.555   3.282
67469W        W32630  36.547  37.401  14.993
67470W        W32631  42.400  32.491   0.722
67471W        W32632  21.797   8.582  13.305
67472W        W32633  31.681   4.469  11.996
67473W        W32634  12.163  13.161   4.585
67474W        W32635  26.105  23.415   3.031
67475W        W32636  20.944   7.774   3.743
67476W        W32637  12.884  15.045   3.707
67477W        W32638  29.918  16.643   4.708
67478W        W32639  14.183  22.174  10.369
67479W        W32640  36.008  40.544  13.625
67480W        W32641  12.888  33.146  12.989
67481W        W32642  16.262   1.406  12.953
67482W        W32643  20.973  15.638   2.376
67483W        W32644  20.014  19.552   1.714
67484W        W32645  24.828  40.504  12.108
67485W        W32646  17.801   0.040  14.181
67486W        W32647  26.612  36.578   3.747
67487W        W32648  44.903  12.525  14.207
67488W        W32649  38.250  33.979   4.314
67489W        W32650  15.305  40.939  13.200
67490W        W32651  18.523  44.103   1.176
67491W        W32652  25.454  18.547  13.947
67492W        W32653  29.953  33.923  13.018
67493W        W32654  10.844  40.065  14.437
67494W        W32655  18.500   9.409  13.632
67495W        W32656   4.943  38.392  12.216
67496W        W32657   2.048  27.784   9.937
67497W        W32658  33.532  14.838   4.101
67498W        W32659   6.481  15.264   1.247
67499W        W32660   0.447  30.657   1.737
67500W        W32661  29.229   8.375   0.828
67501W        W32662  26.263  32.152  14.689
67502W        W32663  35.116  21.064  14.887
67503W        W32664  11.971   6.902  12.168
67504W        W32665  43.764  11.243   2.387
67505W        W32666  22.675   5.701  10.731
67506W        W32667  37.930  24.181   3.687
67507W        W32668   2.328   7.806   3.216
67508W        W32669  12.236   0.426   3.235
67509W        W32670  36.433  25.610   4.862
67510W        W32671  16.610  21.041   3.206
67511W        W32672  23.422  12.208  14.619
67512W        W32673  14.674   5.316   2.351
67513W        W32674   7.243   3.958  12.504
67514W        W32675  23.221  34.731   2.389
67515W        W32676  19.103  18.825   0.379
67516W        W32677  28.138   0.521   2.246
67517W        W32678   7.918  34.360  14.009
67518W        W32679  36.892  43.541   0.044
67519W        W32680  17.648  28.316   2.835
67520W        W32681  29.637   7.673  10.686
67521W        W32682  35.126  23.472   2.786
67522W        W32683  38.817  12.470   1.990
67523W        W32684  25.611  37.248  10.316
67524W        W32685  21.667  18.546   0.742
67525W        W32686   4.517   0.983   0.739
67526W        W32687  25.597  13.350   4.224
67527W        W32688  37.080  38.051  13.562
67528W        W32689  30.821  16.736   3.096
67529W        W32690  28.464   2.953   3.222
67530W        W32691  19.923  17.159   3.200
67531W        W32692  26.800  27.734  12.596
67532W        W32693  17.196  31.197  12.839
67533W        W32694  40.979  32.582   3.972
67534W        W32695   6.436   8.866   0.724
67535W        W32696  30.805  26.350  10.347
67536W        W32697  15.260  10.217   2.735
67537W        W32698   4.310  19.904  11.692
67538W        W32699  24.596  18.570  13.575
67539W        W32700   4.848  30.421   5.028
67540W        W32701   1.730  38.357   1.218
67541W        W32702   6.394  38.429   1.298
67542W        W32703   1.266  37.853   2.832
67543W        W32704  12.753  35.652  13.797
67544W        W32705   7.719   6.245   2.755
67545W        W32706  25.548   5.211  12.624
67546W        W32707  42.353   7.452   1.162
67547W        W32708  17.229   2.749  12.999
67548W        W32709   5.049  37.333  14.912
67549W        W32710  24.770  42.837   2.362
67550W        W32711  28.103  10.415   0.438
67551W        W32712  29.266  13.182  14.780
67552W        W32713  37.028  36.118  11.117
67553W        W32714  37.439  36.083  13.600
67554W        W32715   1.692  38.089   3.352
67555W        W32716  39.343  42.066  10.575
67556W        W32717  37.545  42.023   1.812
67557W        W32718   6.199  27.614   4.655
67558W        W32719   5.049  17.548  12.119
67559W        W32720   5.537  40.097  13.430
67560W        W32721  16.021  22.792  14.063
67561W        W32722  26.962   0.366   2.749
67562W        W32723  23.734  16.244  13.533
67563W        W32724  11.202  14.026   5.059
67564W        W32725   3.679  28.971   0.274
67565W        W32726  26.730   9.227  12.035
67566W        W32727  24.636  34.088   4.526
67567W        W32728   2.720  16.558   0.914
67568W        W32729   4.831  32.878  11.583
67569W        W32730  17.790   6.713   3.493
67570W        W32731  24.285  31.868  13.577
67571W        W32732  10.681  23.607   3.238
67572W        W32733   2.313  31.591   1.022
67573W        W32734   2.847  18.486   3.160
67574W        W32735   2.770  27.007   4.589
67575W        W32736  42.963  28.304  11.095
67576W        W32737   8.503  44.793  10.556
67577W        W32738   5.365   6.466  13.969
67578W        W32739   7.294  36.574   1.031
67579W        W32740  13.558  20.167  10.527
67580W        W32741  20.679  18.270  12.735
67581W        W32742  31.350  35.560  12.173
67582W        W32743  36.506  15.585  11.198
67583W        W32744   0.768  41.868  12.898
67584W        W32745  19.093  34.961  13.385
67585W        W32746  19.370  28.613  12.017
67586W        W32747  18.778  12.411  14.840
67587W        W32748  28.589  37.567  13.433
67588W        W32749  24.751  18.610   3.798
67589W        W32750  24.025  18.654   3.200
67590W        W32751  27.568  28.621   1.256
67591W        W32752  37.692  17.050   2.859
67592W        W32753  35.121  21.187   4.744
67593W        W32754  44.833  41.321  13.244
67594W        W32755   7.670  25.895   3.632
67595W        W32756  29.161  43.014  14.725
67596W        W32757   3.364   1.826   1.753
67597W        W32758  21.543   8.393  14.384
67598W        W32759   7.052  23.182   0.298
67599W        W32760   5.902  10.625   1.972
67600W        W32761   2.454  35.359   4.614
67601W        W32762   9.269  27.380   5.653
67602W        W32763  42.286  32.551  10.596
67603W        W32764  44.251  35.793  11.698
67604W        W32765  11.293  43.248  13.349
67605W        W32766  40.659  32.275  11.857
67606W        W32767  31.243  10.614   3.965
67607W        W32768  44.681  30.661   9.703
67608W        W32769  28.333  29.848   1.235
67609W        W32770  16.001  38.857  12.892
67610W        W32771  10.716  29.000  14.765
67611W        W32772  15.137  32.895  13.447
67612W        W32773   3.457  16.608  13.172
67613W        W32774  27.150  34.337   1.872
67614W        W32775  40.391  29.405   5.056
67615W        W32776  14.976  44.344   0.260
67616W        W32777  10.381  11.735  10.304
67617W        W32778   0.641  15.562  13.011
67618W        W32779  31.597  16.277   2.684
67619W        W32780   2.405  33.381   1.457
67620W        W32781  40.905  29.231  14.510
67621W        W32782  35.494  26.420   1.743
67622W        W32783  29.755  29.836   1.788
67623W        W32784  15.237  14.578  14.856
67624W        W32785   1.725   7.250   2.721
67625W        W32786  11.078  11.583  14.237
67626W        W32787  24.847  37.566  12.926
67627W        W32788  20.677   4.829   4.884
67628W        W32789  38.472  24.714  12.573
67629W        W32790   0.747  30.386  12.872
67630W        W32791  41.533  27.578  13.976
67631W        W32792   0.385  15.797  14.931
67632W        W32793  13.079   2.731  14.328
67633W        W32794  29.964  33.110   2.782
67634W        W32795  29.871  24.618   1.206
67635W        W32796  41.080   2.007  11.542
67636W        W32797  17.822  30.250  12.456
67637W        W32798   4.192  36.188   4.198
67638W        W32799  28.120   7.753   3.257
67639W        W32800   1.363  41.158  12.756
67640W        W32801  10.726   2.047  13.048
67641W        W32802  32.121  22.484   2.270
67642W        W32803  17.437  14.477  11.982
67643W        W32804  36.790  31.243  12.447
67644W        W32805  32.680   9.159   4.497
67645W        W32806  26.292  11.795  11.915
67646W        W32807  18.548  38.976  10.871
67647W        W32808  21.941  18.007   1.238
67648W        W32809  34.477  22.045   3.298
67649W        W32810  20.749  21.615   0.891
67650W        W32811  40.044  26.245  11.840
67651W        W32812  20.008  23.603   2.339
67652W        W32813  25.564  41.372  10.291
67653W        W32814  32.460  34.484   2.912
67654W        W32815  32.050  16.641   2.744
67655W        W32816  36.634  15.806   0.865
67656W        W32817  34.946  31.892   1.197
67657W        W32818  26.708  23.817   0.367
67658W        W32819  41.001  37.070  14.770
67659W        W32820  18.216   8.404  14.784
67660W        W32821   3.265  29.600  13.846
67661W        W32822  34.873  15.716  12.053
67662W        W32823  28.487  22.419   3.245
67663W        W32824   6.124  21.910  11.144
67664W        W32825   1.228   9.234  13.556
67665W        W32826  10.852   8.699  13.015
67666W        W32827  38.522  14.044   1.304
67667W        W32828   0.685  31.934   1.813
67668W        W32829  18.139   4.023   2.325
67669W        W32830  41.352  30.482  14.899
67670W        W32831  29.649  32.574  12.913
67671W        W32832   8.512  31.381  14.248
67672W        W32833  34.669  22.089   5.308
67673W        W32834  32.616   1.815  13.086
67674W        W32835  19.758  35.402  14.045
67675W        W32836   2.735  29.607  13.322
67676W        W32837   2.886  30.122   2.623
67677W        W32838  21.648   3.775  12.414
67678W        W32839  37.924  32.909  13.970
67679W        W32840  22.266  17.717   0.947
67680W        W32841   1.566  34.851  13.381
67681W        W32842   6.418  38.447  13.487
67682W        W32843  38.247   1.178   0.019
67683W        W32844  37.995  25.349   3.168
67684W        W32845   2.786  31.922   0.916
67685W        W32846  14.253  44.189  14.315
67686W        W32847  33.896  29.026   3.233
67687W        W32848  29.676   9.695   0.461
67688W        W32849  40.320  13.163   2.657
67689W        W32850  44.836  13.026  12.583
67690W        W32851  33.902   6.834  11.126
67691W        W32852  38.200   8.157   4.634
67692W        W32853  24.520   6.658  14.953
67693W        W32854  12.339   1.852  12.691
67694W        W32855  25.692  17.768  14.243
67695W        W32856  34.503   8.747  12.912
67696W        W32857  38.945  29.288  13.746
67697W        W32858  25.481   4.320  14.017
67698W        W32859  24.323  18.322  14.529
67699W        W32860  43.332  14.048   4.271
67700W        W32861  39.077  39.071   3.856
67701W        W32862  28.605  13.618  11.240
67702W        W32863  43.397  38.991  14.370
67703W        W32864  41.102  39.369   0.219
67704W        W32865  20.065  41.517  11.259
67705W        W32866  30.071  21.621   9.886
67706W        W32867  24.662  44.709   3.176
67707W        W32868  23.262  19.254   0.767
67708W        W32869   8.898  26.674  12.042
67709W        W32870  27.358  27.118   2.709
67710W        W32871   8.197   3.235  10.677
67711W        W32872  43.541  24.451  11.284
67712W        W32873  24.298  22.993  10.255
67713W        W32874  38.264  23.803   4.562
67714W        W32875  31.748   5.472   2.242
67715W        W32876   2.444   2.982   2.582
67716W        W32877   3.764  11.179  12.878
67717W        W32878  13.306  18.178   1.482
67718W        W32879  38.201   2.470   3.059
67719W        W32880  26.938  42.922   1.416
67720W        W32881   5.508  14.747  12.487
67721W        W32882   1.927  26.428   4.500
67722W        W32883  25.314  32.535   3.873
67723W        W32884  18.473  18.705   3.102
67724W        W32885  42.966  14.647  10.525
67725W        W32886  43.081  43.431   0.276
67726W        W32887  26.097  40.884   5.016
67727W        W32888  26.127  44.957  12.425
67728W        W32889  20.495  40.072  13.688
67729W        W32890  35.892  17.495  13.707
67730W        W32891  14.901  18.370  10.682
67731W        W32892  10.759  19.793  11.955
67732W        W32893  11.119  14.798  11.658
67733W        W32894  40.547  34.822   2.245
67734W        W32895  21.441   7.121  13.464
67735W        W32896   8.088   7.365   3.186
67736W        W32897   6.260  32.342  13.407
67737W        W32898  18.301  35.143  12.888
67738W        W32899  44.086  29.039   3.259
67739W        W32900  28.440  28.180   3.626
67740W        W32901  15.179  36.503  11.555
67741W        W32902  28.647   1.401   4.719
67742W        W32903  29.379   3.558  13.033
67743W        W32904  41.187  15.820  11.203
67744W        W32905  30.674  44.810   0.915
67745W        W32906  26.955  26.092   4.175
67746W        W32907  13.812   4.464  14.242
67747W        W32908  13.711  31.142   4.567
67748W        W32909  19.243   4.259   4.230
67749W        W32910   6.245   5.804   2.176
67750W        W32911  17.583  24.090   0.753
67751W        W32912   4.362   4.375   3.542
67752W        W32913  23.084  36.289   3.158
67753W        W32914  20.043   1.741  11.582
67754W        W32915  27.325  14.254   0.442
67755W        W32916  36.172   9.312   1.824
67756W        W32917  13.256  17.365   0.040
67757W        W32918  25.708   0.367  12.141
67758W        W32919  10.341  19.132  14.886
67759W        W32920  14.686  33.070  14.133
67760W        W32921  16.831  28.470  13.440
67761W        W32922  35.219  13.651   1.819
67762W        W32923   6.233  39.554  14.000
67763W        W32924  35.938  35.647   2.391
67764W        W32925  12.261   6.699   4.484
67765W        W32926   9.941  38.196   3.181
67766W        W32927   9.317  13.216   0.899
67767W        W32928  15.050   9.904  14.868
67768W        W32929  27.996  32.126   0.726
67769W        W32930  23.493   4.978  11.002
67770W        W32931  25.174  41.733  12.416
67771W        W32932   5.804  11.880  14.556
67772W        W32933   9.020   3.940   0.272
67773W        W32934  26.661  20.029   3.650
67774W        W32935   7.481  23.120   2.663
67775W        W32936  32.579  32.138  12.009
67776W        W32937  41.756   0.815   1.311
67777W        W32938  32.976  12.315   0.792
67778W        W32939  12.284  31.020   0.223
67779W        W32940   2.883  43.855  12.463
67780W        W32941  14.646  25.101  12.959
67781W        W32942  21.753  25.444  14.521
67782W        W32943  14.451   5.641  13.469
67783W        W32944  30.707  27.934  14.908
67784W        W32945  26.174  41.991   1.653
67785W        W32946  19.808   3.941   0.344
67786W        W32947  19.175  37.097   2.748
67787W        W32948   4.701  22.910  12.625
67788W        W32949  22.067   1.933   2.917
67789W        W32950   3.159  39.875   2.232
67790W        W32951   1.480  27.671  11.407
67791W        W32952  36.982   1.647   1.646
67792W        W32953  17.751  36.319  11.077
67793W        W32954  25.568  44.294  11.513
67794W        W32955  27.467  37.294  14.857
67795W        W32956  41.291  15.862   1.170
67796W        W32957  13.352   2.046   2.560
67797W        W32958   9.709  12.355  13.088
67798W        W32959  33.974   8.629  11.432
67799W        W32960  10.105   7.842   0.771
67800W        W32961  20.648  13.083   3.757
67801W        W32962  19.284  14.766  13.830
67802W        W32963  10.372  26.701   3.880
67803W        W32964  41.063  11.940   1.349
67804W        W32965  14.876  39.394   5.155
67805W        W32966  14.731  10.180   2.820
67806W        W32967  41.831  33.131  13.671
67807W        W32968  15.861  14.220  14.143
67808W        W32969  21.961  40.497  12.326
67809W        W32970  34.429  11.147  14.916
67810W        W32971  13.111  43.331  14.329
67811W        W32972  39.947   8.621   4.708
67812W        W32973  18.188  41.595  14.511
67813W        W32974  28.580   0.888   4.568
67814W        W32975  13.577  38.752   4.151
67815W        W32976  17.098   8.248  13.031
67816W        W32977   5.575  39.941  14.919
67817W        W32978  13.479  22.536  11.641
67818W        W32979  28.939  44.605  12.635
67819W        W32980   9.163   1.291   0.926
67820W        W32981  22.015  40.378   4.197
67821W        W32982  14.274  37.377   0.019
67822W        W32983  41.817  22.689   4.051
67823W        W32984  30.259   9.455  12.105
67824W        W32985  22.479   6.505   0.401
67825W        W32986   2.513   0.227   0.510
67826W        W32987  19.983  43.191  14.606
67827W        W32988  34.559  10.428   4.151
67828W        W32989  13.895  43.008  14.260
67829W        W32990   0.365   9.291   0.183
67830W        W32991  18.172  39.840   1.706
67831W        W32992  34.576  18.069   4.655
67832W        W32993  35.551  38.884  11.625
67833W        W32994   5.812  43.575  12.848
67834W        W32995  13.680  40.881   5.096
67835W        W32996  15.880  32.078   0.715
67836W        W32997  43.584  41.298   2.789
67837W        W32998  13.165  31.581  10.706
67838W        W32999   9.670  23.247   2.575
67839W        W33000  26.021  41.122  10.348
67840W        W33001  37.995   4.489  11.413
67841W        W33002   4.172  16.430  10.038
67842W        W33003  22.302   4.677   3.205
67843W        W33004  11.403  38.380  11.551
67844W        W33005  12.906   4.198   1.205
67845W        W33006  10.877  44.520   2.613
67846W        W33007  19.576  37.681   0.680
67847W        W33008  14.024  39.565   5.498
67848W        W33009  24.115  24.433   1.393
67849W        W33010  12.356  43.503   2.624
67850W        W33011   8.182  40.059   4.556
67851W        W33012  24.622   0.706   2.010
67852W        W33013  35.495   7.856   3.650
67853W        W33014  19.731  40.286   4.104
67854W        W33015  13.659  36.128   3.375
67855W        W33016  14.291  14.340  14.067
67856W        W33017  34.793   9.677   3.826
67857W        W33018  28.935  33.941   2.354
67858W        W33019  24.586  42.354   1.698
67859W        W33020   1.015  31.822  14.362
67860W        W33021  20.181   9.687  13.788
67861W        W33022  25.202  36.577   5.452
67862W        W33023   8.885   9.155   4.451
67863W        W33024  22.434   7.796  12.028
67864W        W33025   5.838   0.379  14.047
67865W        W33026  21.320  27.690   0.440
67866W        W33027  33.684  17.565  13.321
67867W        W33028  41.898  30.117  10.964
67868W        W33029  29.635   2.160  13.538
67869W        W33030   0.268  21.931   3.793
67870W        W33031   6.996   2.991   1.057
67871W        W33032   4.203  15.571  10.813
67872W        W33033  17.965  15.214  13.830
67873W        W33034  36.309   4.898  12.527
67874W        W33035  37.953   7.189   3.740
67875W        W33036  35.519   9.461   0.323
67876W        W33037  41.788   4.424   0.467
67877W        W33038  31.614  44.365   4.180
67878W        W33039  15.982  18.864   3.780
67879W        W33040  31.123  36.182  13.774
67880W        W33041  17.522  30.086  13.317
67881W        W33042  10.945   9.749  14.020
67882W        W33043   5.701   6.680   3.200
67883W        W33044   8.878   0.490   3.597
67884W        W33045  11.111  31.430   4.141
67885W        W33046  13.366  16.827  12.085
67886W        W33047  31.508  38.362   2.329
67887W        W33048  43.460   7.221   1.965
67888W        W33049  41.508  11.304   0.466
67889W        W33050  19.668  10.581   3.402
67890W        W33051  44.878  19.828  13.069
67891W        W33052   6.801  39.519   0.591
67892W        W33053  17.725  26.669   4.933
67893W        W33054  29.368  28.681   3.753
67894W        W33055   5.333  29.857  11.220
67895W        W33056   7.395  23.421  10.349
67896W        W33057  44.500  19.275  13.499
67897W        W33058   4.022  19.805   5.303
67898W        W33059   3.460  28.489   3.558
67899W        W33060  26.644  38.998  13.037
67900W        W33061  34.577   1.984   0.727
67901W        W33062  30.672  35.378   2.393
67902W        W33063  43.737  37.816  14.530
67903W        W33064   2.756  28.218  12.837
67904W        W33065   6.257   9.038  12.596
67905W        W33066  38.881  43.838   0.597
67906W        W33067  10.308  29.608   3.649
67907W        W33068  30.791  24.634   1.217
67908W        W33069   7.382   1.307   0.392
67909W        W33070  36.005  38.807   5.033
67910W        W33071  36.042  20.972   4.324
67911W        W33072  13.364   4.052   3.095
67912W        W33073  40.870  35.362   9.649
67913W        W33074   9.555  12.171  10.716
67914W        W33075   1.637  30.285  14.965
67915W        W33076  35.956  10.914  13.449
67916W        W33077  26.488  16.017  12.431
67917W        W33078   5.839  43.721   3.173
67918W        W33079   3.732  20.761  11.037
67919W        W33080  26.988   2.566  14.749
67920W        W33081  44.561  28.116  14.320
67921W        W33082  33.378  29.655  11.684
67922W        W33083  19.487  27.979   2.341
67923W        W33084  26.696  32.550   3.524
67924W        W33085  38.067   8.696  11.607
67925W        W33086   2.917  17.538  13.470
67926W        W33087  42.902   6.221  10.577
67927W        W33088  14.122  25.574  14.781
67928W        W33089  29.556  27.219   0.212
67929W        W33090  38.876  41.986   4.438
67930W        W33091  40.954  14.239   1.688
67931W        W33092  25.684  27.976  10.786
67932W        W33093   1.095  16.707  12.134
67933W        W33094  33.293  27.967  14.798
67934W        W33095  39.611  39.937   2.130
67935W        W33096   4.616  30.880  14.367
67936W        W33097  17.758  42.924  13.914
67937W        W33098  12.808  25.509  10.783
67938W        W33099  31.474   8.804   3.239
67939W        W33100  39.518  34.381  14.460
67940W        W33101  29.497  28.065   3.284
67941W        W33102  21.198  43.660  14.396
67942W        W33103   3.759  33.871  13.886
67943W        W33104  37.644  21.491   2.757
67944W        W33105  35.555  17.077   4.544
67945W        W33106   0.564  42.002  13.840
67946W        W33107   7.189  30.990  11.099
67947W        W33108  39.946   1.025   1.781
67948W        W33109   7.848  31.173   3.838
67949W        W33110  30.915  13.745   4.088
67950W        W33111   9.611  13.638   2.132
67951W        W33112  20.738  12.819   0.745
67952W        W33113   3.038  27.326   3.179
67953W        W33114   8.680   2.763   4.745
67954W        W33115  29.496  43.484   0.517
67955W        W33116  32.456   6.512  11.748
67956W        W33117  36.590  21.377  10.312
67957W        W33118  25.528  28.594  13.934
67958W        W33119  23.570   5.868  12.170
67959W        W33120   8.790   2.116  11.589
67960W        W33121  21.283  42.365  12.113
67961W        W33122  18.222  19.344  12.975
67962W        W33123  42.527  34.859  12.214
67963W        W33124  26.462  23.026   2.749
67964W        W33125  10.830  25.076  11.231
67965W        W33126  22.282  14.156  11.002
67966W        W33127   8.897  42.878  12.337
67967W        W33128  35.679   3.516  12.939
67968W        W33129  34.396  44.445   3.639
67969W        W33130   6.977  22.195   3.189
67970W        W33131   6.266   4.255  11.861
67971W        W33132  12.874  26.389  11.212
67972W        W33133   0.328  28.437   0.521
67973W        W33134  19.749  40.738   3.879
67974W        W33135  13.785  43.819   0.292
67975W        W33136  22.481  34.609  12.471
67976W        W33137  25.294   0.898  14.033
67977W        W33138   9.594  20.735  14.959
67978W        W33139  36.836  14.866   3.280
67979W        W33140  20.554  19.608  13.107
67980W        W33141  21.031   3.464   1.927
67981W        W33142   8.151  35.038  14.123
67982W        W33143  41.242  33.081   4.152
67983W        W33144   1.858  11.381  11.096
67984W        W33145  37.163  27.083  11.645
67985W        W33146  23.929   1.852  12.838
67986W        W33147   9.190  13.371   2.901
67987W        W33148  15.541  30.018  12.452
67988W        W33149  32.893  13.810  11.135
67989W        W33150  12.740  30.849  12.419
67990W        W33151  13.495   2.905  10.623
67991W        W33152  25.928  34.046  12.843
67992W        W33153  11.830  42.464   4.551
67993W        W33154  43.418  26.314  12.348
67994W        W33155  31.167   3.233  12.075
67995W        W33156  22.159  27.399   1.183
67996W        W33157  43.519  30.230  11.157
67997W        W33158  32.201  13.819   2.776
67998W        W33159  31.004  24.175   4.661
67999W        W33160  36.070  31.508  13.370
68000W        W33161  20.735  32.092  10.148
68001W        W33162  39.529  32.374  10.005
68002W        W33163  37.109   2.035  14.921
68003W        W33164  38.790  32.796   0.406
68004W        W33165  22.649  41.591   0.898
68005W        W33166  32.014  29.575  12.285
68006W        W33167  29.616   4.584  14.875
68007W        W33168  25.925  27.074   1.955
68008W        W33169  43.483  28.016   1.284
68009W        W33170  32.843  33.762   1.316
68010W        W33171  25.092  20.566   2.361
68011W        W33172  17.772   9.684  13.370
68012W        W33173  20.238  10.244  12.736
68013W        W33174  17.057   5.302  14.720
68014W        W33175  32.495  36.161  14.707
68015W        W33176  41.491  18.266   2.912
68016W        W33177  28.556  30.956   0.046
68017W        W33178  38.582   0.917   1.824
68018W        W33179  33.000   5.127   0.412
68019W        W33180   3.476  36.473  11.143
68020W        W33181  14.419  17.149  13.030
68021W        W33182   0.304   6.305  14.009
68022W        W33183  41.760  12.768  12.510
68023W        W33184  27.943  19.396   3.095
68024W        W33185   8.086  24.064   3.643
68025W        W33186   0.334  32.383   3.572
68026W        W33187  35.318  10.241   2.128
68027W        W33188   9.857  40.923  12.445
68028W        W33189  27.523  28.123   3.282
68029W        W33190  42.077  43.036  14.441
68030W        W33191  43.428   8.516  11.219
68031W        W33192  18.374  31.063  11.591
68032W        W33193   2.449   9.375  11.024
68033W        W33194   4.983  15.081  10.485
68034W        W33195  33.546  43.600  13.415
68035W        W33196  23.555   6.494  14.881
68036W        W33197  28.521  28.654   1.816
68037W        W33198  40.832  20.950   0.570
68038W        W33199   8.610  20.962   3.183
68039W        W33200  16.732  21.125  14.058
68040W        W33201  35.374  36.781   1.284
68041W        W33202  27.348  27.706  12.443
68042W        W33203  33.879  37.250  13.563
68043W        W33204  37.082  24.122   3.301
68044W        W33205  33.575  13.671  13.782
68045W        W33206  19.883   5.243   1.403
68046W        W33207  19.182  19.641  12.570
68047W        W33208  37.952  14.264  11.202
68048W        W33209   8.479  29.214   4.570
68049W        W33210  35.583  31.602  12.052
68050W        W33211  29.373  34.535   1.712
68051W        W33212  44.942   2.639   1.724
68052W        W33213   0.587  17.857   0.835
68053W        W33214  14.874  28.424   0.850
68054W        W33215   3.571  15.799   1.752
68055W        W33216  11.630  21.642  13.514
68056W        W33217  28.247  14.193  12.930
68057W        W33218  22.998  16.299  14.237
68058W        W33219   9.453  18.363   1.637
68059W        W33220   0.810  16.628   1.035
68060W        W33221  11.616  16.203   0.864
68061W        W33222  26.487  36.726  12.486
68062W        W33223   7.154  21.059  12.528
68063W        W33224  41.898   3.412   1.309
68064W        W33225  10.719  22.787  11.174
68065W        W33226  30.201   7.379   1.122
68066W        W33227  44.434   2.558  12.483
68067W        W33228   7.158  18.001   3.710
68068W        W33229  24.678   5.187  11.604
68069W        W33230  35.387  27.436   2.597
68070W        W33231   7.398   0.915  12.939
68071W        W33232  24.465   1.862  12.876
68072W        W33233   4.178  12.729   5.049
68073W        W33234   7.832  38.584  14.512
68074W        W33235   8.984  32.082   2.643
68075W        W33236  16.758  18.545   2.689
68076W        W33237  18.300  44.951   1.017
68077W        W33238  13.083   8.887  12.038
68078W        W33239   0.874  44.780   4.549
68079W        W33240  34.136  22.256   1.729
68080W        W33241   2.310   7.945  13.511
68081W        W33242  16.219   1.277   4.128
68082W        W33243  20.781  15.402  14.940
68083W        W33244  35.757  18.609  11.129
68084W        W33245   9.368  16.727   4.291
68085W        W33246  32.550  24.373   2.806
68086W        W33247  26.465  25.529   4.696
68087W        W33248   4.678  11.943   1.465
68088W        W33249   6.616  21.770  11.000
68089W        W33250  19.796   2.072   2.744
68090W        W33251  25.686  31.073  11.212
68091W        W33252  10.659  41.765   3.394
68092W        W33253  18.624   2.068  14.294
68093W        W33254  22.251  18.017  12.557
68094W        W33255  32.965  36.841   4.392
68095W        W33256  21.009  25.170  13.402
68096W        W33257  24.329   6.076  10.082
68097W        W33258  39.982   6.333  13.473
68098W        W33259  27.143   3.816  12.044
68099W        W33260  39.900  40.999   3.920
68100W        W33261  30.568  27.930   4.643
68101W        W33262  21.478  28.881   3.553
68102W        W33263  40.743   3.478  12.477
68103W        W33264  23.849  12.124  14.881
68104W        W33265  42.374  34.860  11.698
68105W        W33266  41.916   9.103  12.490
68106W        W33267  32.117  14.711   4.491
68107W        W33268  20.556  42.825   1.612
68108W        W33269  26.948   2.927  10.711
68109W        W33270  39.751  35.000   3.099
68110W        W33271  19.622  15.073  12.110
68111W        W33272  40.237   0.953   4.911
68112W        W33273  16.362  39.124  13.440
68113W        W33274  29.335  19.792   1.139
68114W        W33275   9.179  11.184  12.493
68115W        W33276  40.374  44.116  11.763
68116W        W33277   9.862  40.055   3.649
68117W        W33278  21.222   9.255  11.096
68118W        W33279  44.198  13.078   3.359
68119W        W33280   2.865  23.749  13.005
68120W        W33281  26.031  24.650   0.811
68121W        W33282  25.746  26.381   1.218
68122W        W33283  35.116  15.095  13.809
68123W        W33284  19.024   1.592   0.935
68124W        W33285   7.271  31.958   2.584
68125W        W33286   9.401  22.096   0.200
68126W        W33287  30.914  44.425  11.536
68127W        W33288  16.029  40.246   2.880
68128W        W33289  37.845  38.940   0.316
68129W        W33290  36.012   9.351  12.958
68130W        W33291  29.509   9.462  13.681
68131W        W33292  38.569   3.212  10.299
68132W        W33293  44.457   3.089  11.541
68133W        W33294  42.539  36.912   3.306
68134W        W33295  42.421  14.269   0.312
68135W        W33296   0.810  22.737  13.360
68136W        W33297  40.096  35.961  14.513
68137W        W33298  35.554  31.205  14.125
68138W        W33299  34.317  26.277   0.710
68139W        W33300  35.866  19.036   1.329
68140W        W33301  39.528   8.159   0.806
68141W        W33302   5.004   4.819  14.155
68142W        W33303  16.251   0.788   4.317
68143W        W33304  38.407  21.530  14.534
68144W        W33305  24.511   6.340   2.670
68145W        W33306  25.979   2.223  11.839
68146W        W33307  35.116  37.467  11.556
68147W        W33308   1.734  26.727   3.194
68148W        W33309  25.601   3.218  13.024
68149W        W33310  27.503  16.998  10.564
68150W        W33311  14.283  25.423   3.299
68151W        W33312  14.113  36.817  12.876
68152W        W33313  42.269  22.384   2.438
68153W        W33314   9.862  17.005   1.862
68154W        W33315  24.846   6.214  13.380
68155W        W33316  42.317  37.976  11.430
68156W        W33317   3.836  27.295   4.565
68157W        W33318  37.489  24.292  13.484
68158W        W33319   2.593  26.151  14.476
68159W        W33320  11.701  23.551   0.062
68160W        W33321  27.963  33.200  14.285
68161W        W33322  24.376  34.404   1.504
68162W        W33323  42.341  34.090   1.290
68163W        W33324   6.848  20.277   0.453
68164W        W33325  34.018   2.237  14.869
68165W        W33326  41.252  25.625   2.373
68166W        W33327  40.025  29.410  12.095
68167W        W33328  24.503  31.903  14.857
68168W        W33329  17.909  37.555   3.601
68169W        W33330   5.491  20.339   2.474
68170W        W33331   8.359   3.989   4.853
68171W        W33332  35.513   0.816  10.510
68172W        W33333  23.392  13.027  14.466
68173W        W33334  34.519  41.946  14.483
68174W        W33335  42.889  33.632  11.928
68175W        W33336  30.920  28.679   1.401
68176W        W33337  21.801  17.102   4.957
68177W        W33338  25.077  22.304   3.108
68178W        W33339  21.535  35.817   2.855
68179W        W33340  16.752  19.811  10.335
68180W        W33341  29.536  33.622  12.957
68181W        W33342  44.660  27.685   0.578
68182W        W33343  31.274  33.467   2.654
68183W        W33344   9.302   1.768   3.106
68184W        W33345   0.354   7.294  13.507
68185W        W33346  35.104  20.634   3.727
68186W        W33347  20.836   9.754   2.800
68187W        W33348  40.214  30.601  11.593
68188W        W33349  21.953  40.316  12.817
68189W        W33350  39.475  38.636   1.915
68190W        W33351  43.976  38.678   0.223
68191W        W33352  33.802   7.668  12.908
68192W        W33353  19.725  21.457  11.937
68193W        W33354  33.914  43.580  14.028
68194W        W33355  40.727  19.919   5.145
68195W        W33356   4.970  32.480  13.896
68196W        W33357  11.724  21.255  10.636
68197W        W33358  42.869  25.956   1.867
68198W        W33359   3.737  14.509   1.324
68199W        W33360  36.584  42.332   0.263
68200W        W33361  21.543  42.700  11.590
68201W        W33362  13.247  32.983   0.234
68202W        W33363   0.194  32.748  14.044
68203W        W33364  15.052  22.350  10.300
68204W        W33365  30.644  16.912  11.173
68205W        W33366  37.995   3.896   3.852
68206W        W33367  38.926  13.673   0.394
68207W        W33368  29.432  10.455  14.981
68208W        W33369  19.575  18.241   5.078
68209W        W33370  17.563  21.078  12.115
68210W        W33371  28.095  20.157  12.057
68211W        W33372  16.329   5.937   2.023
68212W        W33373  28.652  15.803   1.305
68213W        W33374  13.649  22.701  13.827
68214W        W33375  31.483  32.654  12.542
68215W        W33376  25.620  22.088   2.165
68216W        W33377   9.646  21.340  10.402
68217W        W33378   6.715  23.618   1.452
68218W        W33379  10.169  33.541   4.332
68219W        W33380  10.061   9.468  11.069
68220W        W33381  34.353   4.949  12.504
68221W        W33382  36.443  23.008   2.301
68222W        W33383  32.228   4.532   2.873
68223W        W33384   5.209   5.195   2.219
68224W        W33385   4.513  41.146  13.951
68225W        W33386   0.318  16.270  11.935
68226W        W33387  32.875   0.664  11.251
68227W        W33388  30.960  22.067  13.444
68228W        W33389  37.449   8.542   1.796
68229W        W33390  26.616  20.245   4.128
68230W        W33391  11.599  31.752  11.644
68231W        W33392   6.593  13.273   2.707
68232W        W33393  42.181  10.845   3.244
68233W        W33394   7.232   8.419   3.210
68234W        W33395  17.743   1.379  12.800
68235W        W33396  37.361  24.907  11.191
68236W        W33397  11.458   9.840  14.062
68237W        W33398  42.802  24.556   0.892
68238W        W33399  29.174  42.461   0.461
68239W        W33400  41.042  39.785   1.713
68240W        W33401  16.620  40.411   1.442
68241W        W33402  16.237   0.257   4.353
68242W        W33403  44.327  21.392  14.144
68243W        W33404  29.696  11.628   1.784
68244W        W33405  20.527  38.881  11.975
68245W        W33406  40.446  20.303   4.098
68246W        W33407   2.683  16.958   1.832
68247W        W33408   6.725  13.529  14.366
68248W        W33409  10.871  12.777  14.810
68249W        W33410   3.319  25.669  13.048
68250W        W33411   3.932  18.659  10.739
68251W        W33412  10.580  36.965   4.583
68252W        W33413  39.619  36.864  13.550
68253W        W33414  17.539  25.955  11.582
68254W        W33415  22.654  15.782  10.911
68255W        W33416  19.111  39.411   0.083
68256W        W33417  30.562  17.375   3.625
68257W        W33418  32.594  38.063  12.003
68258W        W33419  20.678  31.329  12.530
68259W        W33420   8.220   3.741  13.835
68260W        W33421  26.622  21.126   1.318
68261W        W33422  39.968  26.910  10.736
68262W        W33423  42.855  20.242  12.498
68263W        W33424   3.241  33.805   3.971
68264W        W33425   6.969  33.934   0.875
68265W        W33426  26.874  21.219  10.979
68266W        W33427  13.766  33.379  13.021
68267W        W33428  33.427  22.172   4.739
68268W        W33429  12.867   7.197   1.110
68269W        W33430  22.700  32.555  11.554
68270W        W33431  38.064  28.681  11.200
68271W        W33432  20.709  20.233  14.946
68272W        W33433  32.592  20.171  13.376
68273W        W33434   3.225  34.565   0.643
68274W        W33435   9.399  13.220  10.776
68275W        W33436  26.443  32.763  10.844
68276W        W33437  19.838  23.079   3.026
68277W        W33438  18.499  15.378  14.783
68278W        W33439  17.371  11.269   0.728
68279W        W33440  28.314   7.505   4.060
68280W        W33441   4.789  33.669   1.529
68281W        W33442  32.200   1.817  12.754
68282W        W33443   6.918  41.722   0.417
68283W        W33444   8.879  12.414  14.798
68284W        W33445  10.346  38.111   0.786
68285W        W33446   1.736  20.165  13.710
68286W        W33447   5.517  35.070   1.371
68287W        W33448   3.044  28.868  12.174
68288W        W33449  11.237  44.089   0.303
68289W        W33450  20.071   6.905  10.738
68290W        W33451  44.418  27.931  11.214
68291W        W33452   0.920  21.222   1.253
68292W        W33453  23.858  39.101  13.391
68293W        W33454  40.187  22.049  11.597
68294W        W33455  24.868  13.894   3.420
68295W        W33456  11.537  30.460  11.923
68296W        W33457  25.371   5.202  13.999
68297W        W33458  19.189  37.357   0.561
68298W        W33459  37.020  44.868  11.378
68299W        W33460  44.982  44.274   4.546
68300W        W33461  33.904  19.786  14.790
68301W        W33462  34.991  35.585   4.245
68302W        W33463  25.594  36.147   1.255
68303W        W33464  35.157  44.497  12.064
68304W        W33465  43.795  34.345   4.195
68305W        W33466   7.890  34.569  12.351
68306W        W33467   2.886  17.795  13.964
68307W        W33468  35.873  41.384   3.873
68308W        W33469  23.333  23.245   3.673
68309W        W33470  28.419  35.539   2.499
68310W        W33471  37.938  14.151   4.816
68311W        W33472  40.381   0.966   2.681
68312W        W33473   5.690  34.954   3.707
68313W        W33474  36.847   0.427   4.526
68314W        W33475  28.091   4.772   0.911
68315W        W33476  43.866   1.030  10.620
68316W        W33477   3.945  19.307   0.821
68317W        W33478   8.441  34.640  11.603
68318W        W33479  39.532  30.886  13.053
68319W        W33480  25.766  23.342  11.833
68320W        W33481  42.840   2.600  12.079
68321W        W33482  20.289  38.149  11.927
68322W        W33483  38.047  19.571  12.477
68323W        W33484  16.049  34.574   1.867
68324W        W33485   9.746  42.559  14.960
68325W        W33486  25.645  29.428   0.771
68326W        W33487   2.219   6.386   1.442
68327W        W33488  41.207   3.381  14.371
68328W        W33489  40.993  12.704   3.077
68329W        W33490   8.199   3.771   1.242
68330W        W33491  36.993  25.737   3.233
68331W        W33492  20.319  28.328   1.084
68332W        W33493   1.316  37.329   0.395
68333W        W33494  12.402  28.488  12.425
68334W        W33495   2.619  32.579   3.249
68335W        W33496  15.842   3.284   0.400
68336W        W33497  16.930  31.173   1.791
68337W        W33498  15.052  44.877   2.300
68338W        W33499   4.566  14.012  11.611
68339W        W33500  29.108   4.416   4.260
68340W        W33501   0.864  23.998   4.182
68341W        W33502  42.948  11.931   3.736
68342W        W33503  15.725  23.193   0.771
68343W        W33504   0.834   9.163   3.720
68344W        W33505   4.788  35.090  10.775
68345W        W33506  15.407  19.602   0.266
68346W        W33507  44.174  35.414  10.763
68347W        W33508  28.468  25.119   1.573
68348W        W33509  10.237   6.636  11.741
68349W        W33510  43.454  39.698  11.465
68350W        W33511  33.936  11.389   4.796
68351W        W33512  43.108   6.086   9.893
68352W        W33513  41.368   9.676   1.941
68353W        W33514  10.818   4.885  10.406
68354W        W33515  34.609   7.207   0.875
68355W        W33516  37.521  31.168   4.249
68356W        W33517  18.184  37.908   2.790
68357W        W33518  27.468   2.857  12.082
68358W        W33519  14.313  10.599  14.372
68359W        W33520   7.434  35.347   1.439
68360W        W33521  43.970  43.120  11.187
68361W        W33522  19.615  32.441  14.357
68362W        W33523  11.370  41.248   3.643
68363W        W33524  21.196  20.568   0.338
68364W        W33525  16.344  23.370  11.208
68365W        W33526  40.621  29.395  11.050
68366W        W33527  16.327   8.755   2.709
68367W        W33528  30.850  29.160  14.932
68368W        W33529  43.875  33.085  13.913
68369W        W33530   3.711  31.095  12.472
68370W        W33531  25.406  27.456  12.504
68371W        W33532  35.206  29.666   2.404
68372W        W33533  34.981   5.026   2.390
68373W        W33534   9.680  43.550  14.766
68374W        W33535  38.680  19.155   0.501
68375W        W33536  28.762   0.582  12.067
68376W        W33537  34.577   3.907   1.682
68377W        W33538  13.889   1.000   2.323
68378W        W33539   1.285  14.092   1.258
68379W        W33540  24.607  42.081  13.954
68380W        W33541  44.504  30.663  13.208
68381W        W33542  30.885  13.543   2.760
68382W        W33543  15.092   0.964   4.752
68383W        W33544  36.388  13.442  12.819
68384W        W33545  35.041  43.269   5.290
68385W        W33546   5.446  41.854  14.404
68386W        W33547  40.412  31.457   0.991
68387W        W33548  20.466  41.112  10.606
68388W        W33549  22.546  20.692  14.924
68389W        W33550  23.620  19.211  11.483
68390W        W33551  42.787  34.334  14.953
68391W        W33552  12.082  38.092  13.309
68392W        W33553  29.670   0.048  14.481
68393W        W33554   3.986  22.162  12.675
68394W        W33555   1.025  23.506  13.745
68395W        W33556  42.621  24.745  11.193
68396W        W33557   5.841  43.488  14.982
68397W        W33558  18.043  18.760   2.332
68398W        W33559  30.609  30.547   0.807
68399W        W33560   2.289   9.719   2.552
68400W        W33561  31.405   4.480   3.643
68401W        W33562  22.759  35.903   3.088
68402W        W33563  22.493  24.262  14.783
68403W        W33564  10.770  37.522  13.076
68404W        W33565  41.424   2.862   0.973
68405W        W33566   6.832   0.751  13.984
68406W        W33567  42.786  29.947   2.243
68407W        W33568  44.774   6.399   1.592
68408W        W33569  35.090  38.076  14.213
68409W        W33570  11.328  33.096  13.342
68410W        W33571  41.976  38.797   2.789
68411W        W33572   9.226   5.430   3.576
68412W        W33573  28.537  43.977  14.500
68413W        W33574  40.703  16.513  11.530
68414W        W33575  41.069   9.181   4.373
68415W        W33576  30.927  13.085   4.806
68416W        W33577  16.538   2.659   1.828
68417W        W33578  31.971  16.422   1.238
68418W        W33579   1.050  27.901   1.331
68419W        W33580  34.384  32.717   1.361
68420W        W33581  18.621  10.074   4.928
68421W        W33582  43.767  19.552   1.590
68422W        W33583   9.787   8.802   3.886
68423W        W33584  44.639  38.989   3.463
68424W        W33585  40.009   6.304   0.445
68425W        W33586  31.118  18.114   0.965
68426W        W33587  30.922   5.290   3.500
68427W        W33588  35.515  11.652   3.400
68428W        W33589  19.166  26.123   0.490
68429W        W33590  25.729  41.252  10.752
68430W        W33591  32.561  24.152  12.398
68431W        W33592  37.272   2.626  10.719
68432W        W33593  44.700  17.269   1.324
68433W        W33594   2.366  35.295   1.598
68434W        W33595   4.260   8.917  11.580
68435W        W33596   3.031   1.820   1.253
68436W        W33597   1.368  15.072  14.350
68437W        W33598  21.159  19.903   2.788
68438W        W33599  26.499  37.968   2.462
68439W        W33600  18.405  41.975  11.738
68440W        W33601  42.981  19.642   4.831
68441W        W33602  37.181  33.147  14.758
68442W        W33603   3.244  27.589  11.606
68443W        W33604  37.322   3.429  12.036
68444W        W33605   9.188  28.464  13.855
68445W        W33606   3.319  26.634  14.506
68446W        W33607  22.569  12.104   4.834
68447W        W33608  32.201  22.130  10.123
68448W        W33609  37.704  36.834   4.543
68449W        W33610  28.228  17.656  10.705
68450W        W33611  10.225  27.043  11.950
68451W        W33612  29.436  11.145   1.748
68452W        W33613   4.618  23.141   5.520
68453W        W33614  37.861  25.638  12.274
68454W        W33615   2.291  21.993  13.240
68455W        W33616  22.683  38.791  12.583
68456W        W33617  14.172   6.524  13.368
68457W        W33618   9.287  40.620  13.778
68458W        W33619  36.064  32.181   4.545
68459W        W33620  29.138   2.342   1.829
68460W        W33621  21.493   1.243   1.699
68461W        W33622   4.956  21.389  11.518
68462W        W33623   9.415  34.011  10.507
68463W        W33624  18.561  25.560  10.783
68464W        W33625  40.491  33.976   0.717
68465W        W33626   6.593  20.005   0.948
68466W        W33627  42.571  22.814  10.717
68467W        W33628   1.549  42.949   0.767
68468W        W33629  24.931  30.920  13.257
68469W        W33630   6.259  36.090  11.995
68470W        W33631  22.076  35.112  10.878
68471W        W33632  26.904  37.059  12.391
68472W        W33633   1.249  16.092  13.578
68473W        W33634  19.604  21.771   3.657
68474W        W33635   8.349  16.382  12.976
68475W        W33636  12.843  15.720   4.416
68476W        W33637  20.531  10.238   3.647
68477W        W33638   6.040   9.931  14.016
68478W        W33639  26.230  16.126   1.412
68479W        W33640   7.262  19.745  13.310
68480W        W33641  24.121  42.970  11.612
68481W        W33642  36.735  32.666   4.155
68482W        W33643  22.751  38.342   1.654
68483W        W33644  40.059   3.677  13.328
68484W        W33645  15.636  28.166   1.282
68485W        W33646   6.218  11.798  14.828
68486W        W33647  40.453  38.835  12.080
68487W        W33648   1.454  17.341  14.856
68488W        W33649  41.246  20.490   1.738
68489W        W33650  28.233  24.378   5.665
68490W        W33651  18.302   3.098   0.387
68491W        W33652  15.780  24.412  12.696
68492W        W33653  38.102  44.993  11.058
68493W        W33654  34.805   0.997   0.078
68494W        W33655   7.837  31.513   0.483
68495W        W33656  22.216   1.941   1.761
68496W        W33657   8.916  34.655  12.597
68497W        W33658  15.384  40.731   1.714
68498W        W33659  23.627   6.766  10.653
68499W        W33660  28.112   7.653   4.748
68500W        W33661  32.937  31.878  13.297
68501W        W33662  22.184  32.056   2.938
68502W        W33663  42.967  10.333  11.041
68503W        W33664  18.487   8.779  12.278
68504W        W33665  34.970  28.919  14.391
68505W        W33666  23.537   3.662  14.408
68506W        W33667  26.084  40.845   4.489
68507W        W33668   2.720   7.645   0.946
68508W        W33669  24.567   0.488   4.619
68509W        W33670  40.052  35.869  10.709
68510W        W33671   3.411  25.519   5.097
68511W        W33672  24.228  25.717   4.535
68512W        W33673  35.439  12.903   2.285
68513W        W33674  35.157  36.061  10.446
68514W        W33675  25.995  13.594   3.039
68515W        W33676  35.409   4.934  12.922
68516W        W33677  29.270  10.733   3.639
68517W        W33678   6.482  22.915   2.878
68518W        W33679  19.351  17.858  12.427
68519W        W33680  26.115  36.819  11.065
68520W        W33681  31.060   4.892   2.657
68521W        W33682   3.696  21.300   1.891
68522W        W33683   2.030  38.107   2.310
68523W        W33684  44.897  43.005  14.900
68524W        W33685  19.229  36.536  11.265
68525W        W33686  21.037  24.155   3.512
68526W        W33687   2.908  13.131   2.007
68527W        W33688  14.673  28.001   3.083
68528W        W33689  30.043  32.997   1.460
68529W        W33690  20.671   2.516   1.864
68530W        W33691  16.891  12.128   0.971
68531W        W33692  31.110  42.804   4.502
68532W        W33693  12.822  23.398  14.513
68533W        W33694  30.975  35.047  11.654
68534W        W33695  31.351  13.114  12.148
68535W        W33696  34.856  29.976   1.717
68536W        W33697  38.030  19.256  13.045
68537W        W33698  43.777  17.675   4.437
68538W        W33699   7.650   3.913   0.251
68539W        W33700  24.019  33.453   2.870
68540W        W33701   5.496  17.755  13.023
68541W        W33702  21.263  15.790  13.373
68542W        W33703  39.997  39.216   0.983
68543W        W33704  42.332  23.449   1.428
68544W        W33705  28.204  26.418  11.238
68545W        W33706  12.231  42.933  10.825
68546W        W33707   3.928  31.500   4.356
68547W        W33708  13.268  39.261   2.651
68548W        W33709  17.212   6.623   0.740
68549W        W33710   8.227  12.337   2.185
68550W        W33711  41.300   0.517   2.798
68551W        W33712   9.658  32.476   1.535
68552W        W33713  20.518  44.324  14.358
68553W        W33714   4.011   7.381   2.263
68554W        W33715  14.852  30.218  11.904
68555W        W33716  13.837  12.100  10.478
68556W        W33717  22.934   3.177  12.299
68557W        W33718  24.592   8.224   3.141
68558W        W33719   4.306  25.601   3.276
68559W        W33720  39.478  37.516   2.725
68560W        W33721  11.891  31.472   2.784
68561W        W33722  11.376  13.283   2.277
68562W        W33723  20.994  44.951  11.429
68563W        W33724  14.769   3.268  13.034
68564W        W33725  13.206  23.767   0.855
68565W        W33726   5.491   9.883  14.260
68566W        W33727   2.493  28.518   3.720
68567W        W33728   5.875  14.077  13.505
68568W        W33729  13.099  26.464  13.833
68569W        W33730  36.907  26.453   1.934
68570W        W33731  13.506  16.001  10.617
68571W        W33732  20.192  25.225  14.073
68572W        W33733  43.098   4.433  13.018
68573W        W33734   6.479  17.685  13.952
68574W        W33735  14.832  29.474  10.773
68575W        W33736  17.990  43.381   0.739
68576W        W33737  20.189  31.938   3.636
68577W        W33738  20.747   9.319   1.882
68578W        W33739  13.597  25.881  12.515
68579W        W33740  14.399  30.359  11.701
68580W        W33741  26.237  28.252  12.326
68581W        W33742  36.146   0.223  12.590
68582W        W33743   1.741  39.579   4.665
68583W        W33744   9.255   9.638  11.612
68584W        W33745  30.037  38.544   9.931
68585W        W33746   1.237  22.003   2.469
68586W        W33747  38.350  16.585  13.233
68587W        W33748  14.822   1.865   1.180
68588W        W33749  28.316   1.910  12.466
68589W        W33750  12.089  27.696   1.319
68590W        W33751  41.814   5.856   3.716
68591W        W33752   1.194  42.702  11.781
68592W        W33753   2.193  24.912   3.653
68593W        W33754  43.516  16.242   1.382
68594W        W33755  30.934  33.422  13.808
68595W        W33756  41.805  29.616  11.639
68596W        W33757   1.712  32.656  13.076
68597W        W33758   4.481   6.362  11.158
68598W        W33759  39.537  24.968   3.830
68599W        W33760  17.133  41.620   0.853
68600W        W33761  22.166  30.845  13.757
68601W        W33762  23.374  19.826   1.389
68602W        W33763  32.421  20.658  13.305
68603W        W33764   5.558  19.501  10.398
68604W        W33765  17.268  13.948   0.484
68605W        W33766  26.023  43.945  12.457
68606W        W33767  14.595  33.311   3.310
68607W        W33768  17.253   2.151   1.679
68608W        W33769  14.195  18.213  14.911
68609W        W33770  22.741  29.601   2.634
68610W        W33771  24.477  33.400   1.711
68611W        W33772  20.286  17.769  11.990
68612W        W33773  26.476   7.785  14.013
68613W        W33774  36.856  24.085   2.493
68614W        W33775   8.388  40.367  13.047
68615W        W33776  27.596  15.029  11.544
68616W        W33777  12.875   8.170  11.982
68617W        W33778   0.500  27.468   3.717
68618W        W33779   4.544  17.991   2.939
68619W        W33780  28.157   1.421  11.984
68620W        W33781  28.628  31.014  13.087
68621W        W33782   8.939  19.253   1.703
68622W        W33783  15.225  20.204   4.437
68623W        W33784  28.441   2.247   2.721
68624W        W33785  28.127  28.470  11.583
68625W        W33786   3.946   5.829   2.712
68626W        W33787  32.502   3.686   2.636
68627W        W33788  22.234  42.906  12.946
68628W        W33789  15.056   9.584   2.326
68629W        W33790  26.148   7.211   3.305
68630W        W33791  25.696  43.943  12.874
68631W        W33792  27.289  24.633   3.233
68632W        W33793  42.766   9.656  13.877
68633W        W33794  10.188  11.880   3.179
68634W        W33795   9.543  32.291   2.793
68635W        W33796   6.231  16.070  12.995
68636W        W33797  31.199   6.656  14.529
68637W        W33798  27.657  32.606   3.108
68638W        W33799  35.334  15.182   2.551
68639W        W33800  33.132   5.674  13.798
68640W        W33801   4.787  35.542  11.107
68641W        W33802   2.084  17.390  11.516
68642W        W33803  11.746  42.782   0.411
68643W        W33804  25.936  35.862  11.097
68644W        W33805  44.799   2.314   4.265
68645W        W33806  10.722  17.602   2.764
68646W        W33807  34.004  20.634  12.086
68647W        W33808   7.622  35.044  14.051
68648W        W33809  27.873  27.367   1.732
68649W        W33810  16.284  29.335   2.734
68650W        W33811   1.242  22.712   1.043
68651W        W33812  23.901   5.680   3.167
68652W        W33813  40.715  40.543   3.922
68653W        W33814   3.492  35.237  13.926
68654W        W33815   3.708  10.323   2.142
68655W        W33816  20.646  40.139  12.478
68656W        W33817  38.089  12.869   3.536
68657W        W33818  21.690  13.551   3.466
68658W        W33819  14.060  18.229  10.938
68659W        W33820  33.914  36.089   3.366
68660W        W33821  27.092  12.640   5.436
68661W        W33822   2.367  26.156   4.460
68662W        W33823   3.510  40.475  12.904
68663W        W33824  12.835  11.397  14.756
68664W        W33825  27.493  39.611  11.488
68665W        W33826  19.078  10.355  12.526
68666W        W33827  35.348   9.437   4.629
68667W        W33828  35.555   2.306  14.855
68668W        W33829  16.225   1.351   1.237
68669W        W33830  24.830   8.393  12.489
68670W        W33831  11.363  11.307   4.221
68671W        W33832  29.988  41.656   2.358
68672W        W33833   6.709   3.567  10.224
68673W        W33834  23.469   4.884  13.532
68674W        W33835  39.245  12.290   3.757
68675W        W33836   5.475  26.815   4.079
68676W        W33837  38.763  10.129  10.774
68677W        W33838  43.103  31.955  14.031
68678W        W33839  39.540  26.465   4.716
68679W        W33840  32.185  31.329  14.921
68680W        W33841  36.060  35.807   3.699
68681W        W33842  27.700  26.467  11.497
68682W        W33843  42.516  13.379   2.338
68683W        W33844  43.656  39.919   4.408
68684W        W33845  22.164   3.765   2.251
68685W        W33846   7.405   6.633   3.580
68686W        W33847   5.990  19.786  14.072
68687W        W33848  33.982  23.340   2.367
68688W        W33849  30.669  25.211   3.073
68689W        W33850  38.989   8.220  14.800
68690W        W33851  31.882  33.458  14.048
68691W        W33852  24.481  11.416   0.786
68692W        W33853  33.640   0.302  13.305
68693W        W33854   2.796  13.100   0.029
68694W        W33855   5.285  43.781  12.829
68695W        W33856  40.986  23.789   0.116
68696W        W33857  24.570  33.353  13.397
68697W        W33858  44.208  44.398   5.097
68698W        W33859  41.872  23.915  14.463
68699W        W33860   2.974  34.462   3.402
68700W        W33861  41.779  25.759   2.279
68701W        W33862   6.355  14.819   1.532
68702W        W33863  33.010   0.376   4.902
68703W        W33864  37.960  20.543  13.481
68704W        W33865  42.502   0.433   4.615
68705W        W33866  37.992   2.723  14.131
68706W        W33867  23.890  11.329  13.103
68707W        W33868  25.522   7.382   4.027
68708W        W33869  17.048  19.204   3.101
68709W        W33870  27.878   7.687   2.780
68710W        W33871  36.459  20.532   0.731
68711W        W33872  29.387  14.326   4.649
68712W        W33873   6.833  37.003  11.028
68713W        W33874  19.465  43.955  11.095
68714W        W33875   0.940  43.898  10.556
68715W        W33876  12.716  27.104  13.002
68716W        W33877  43.689  20.698  14.423
68717W        W33878   1.913  43.863  10.715
68718W        W33879   1.305  38.390  12.576
68719W        W33880  14.776  37.880  12.652
68720W        W33881  23.237  27.651   0.689
68721W        W33882  34.520  36.689  12.168
68722W        W33883  11.437  28.751  11.568
68723W        W33884  15.153  18.317  11.920
68724W        W33885   8.650   1.785   2.464
68725W        W33886  20.275   6.801  13.011
68726W        W33887   5.003  24.882   0.023
68727W        W33888  34.023  41.527   4.655
68728W        W33889   8.257  37.235   1.919
68729W        W33890  12.424  32.112  12.598
68730W        W33891  33.394  18.234   2.387
68731W        W33892   1.065  22.968  10.846
68732W        W33893  15.400  42.263  12.347
68733W        W33894  16.341  41.521   2.778
68734W        W33895  35.314  28.267  13.469
68735W        W33896  39.946  11.789   2.718
68736W        W33897  26.711   0.516  11.103
68737W        W33898  31.492  40.835  14.618
68738W        W33899  27.204  32.471  11.166
68739W        W33900  28.640  42.198   2.211
68740W        W33901  27.119  19.188   4.705
68741W        W33902  40.942  35.810  11.548
68742W        W33903  30.547  39.944  10.814
68743W        W33904  34.097  30.648  10.503
68744W        W33905   6.378  29.266  10.575
68745W        W33906   1.353  40.775  12.378
68746W        W33907  10.871  30.595   0.199
68747W        W33908  22.737   9.739   3.643
68748W        W33909  14.169  41.584   2.786
68749W        W33910  12.681  12.411   4.527
68750W        W33911  22.545  40.198  14.865
68751W        W33912  33.689  18.560  10.807
68752W        W33913  28.064  12.916   0.951
68753W        W33914  40.381  20.302  11.618
68754W        W33915  10.845  28.543   1.276
68755W        W33916  44.956  16.083   3.114
68756W        W33917  23.206  34.518  13.758
68757W        W33918  44.242   3.757  13.913
68758W        W33919  16.274  20.961  10.704
68759W        W33920  12.828  34.493  14.242
68760W        W33921   8.920  36.327   4.096
68761W        W33922   5.214  25.091   3.071
68762W        W33923  13.462  38.104  11.736
68763W        W33924  14.226   3.672  14.894
68764W        W33925  11.207   0.237   3.920
68765W        W33926  37.616   1.187   4.360
68766W        W33927  40.445  28.012  12.171
68767W        W33928  19.374  18.417   0.502
68768W        W33929  44.007   5.980  14.977
68769W        W33930   8.924  31.992   4.057
68770W        W33931  16.846  36.086  14.965
68771W        W33932  19.983  22.422  11.296
68772W        W33933  37.843  11.826   4.336
68773W        W33934   6.844  40.218   4.148
68774W        W33935  29.164  17.796  10.529
68775W        W33936   8.360  41.459   4.202
68776W        W33937  41.029  14.164   4.435
68777W        W33938  44.009  15.775   1.681
68778W        W33939   5.569  22.910  12.007
68779W        W33940   8.930   9.879  13.760
68780W        W33941  12.295  16.211  14.993
68781W        W33942   6.880  32.043  12.414
68782W        W33943  27.656  35.064  13.466
68783W        W33944  25.167  43.747  10.700
68784W        W33945   7.471  40.727   2.285
68785W        W33946   4.982   0.746   4.585
68786W        W33947  41.310  32.753  11.510
68787W        W33948   1.701  38.119  13.444
68788W        W33949   7.397  21.974   4.435
68789W        W33950   0.635  18.284  11.130
68790W        W33951  29.197  10.699  10.300
68791W        W33952  23.476  25.276  12.985
68792W        W33953  28.192   2.031   4.560
68793W        W33954  29.250  44.300  14.694
68794W        W33955   3.925   8.606   4.689
68795W        W33956  23.214   2.712   3.350
68796W        W33957  44.420  42.263   1.941
68797W        W33958  44.586  31.289   2.174
68798W        W33959  14.734  43.775   3.283
68799W        W33960  34.909   0.225  10.802
68800W        W33961  27.122  29.146   0.711
68801W        W33962   7.246  14.642  11.064
68802W        W33963  37.888   6.664  11.581
68803W        W33964  44.708  23.587   4.684
68804W        W33965  40.128  28.983   4.721
68805W        W33966  40.295  10.678   1.931
68806W        W33967  44.323  18.369   3.658
68807W        W33968  12.280  12.850  13.759
68808W        W33969  34.952  18.718   3.815
68809W        W33970  32.529  21.505  14.559
68810W        W33971   2.548   8.196   3.778
68811W        W33972   4.451   7.861   3.292
68812W        W33973  29.997  33.631   2.715
68813W        W33974  32.649  36.790   4.797
68814W        W33975  31.493  29.923   4.446
68815W        W33976  19.499  12.682   5.044
68816W        W33977  42.259   0.298  11.560
68817W        W33978  31.075  14.225   1.575
68818W        W33979  37.496   9.769  10.683
68819W        W33980  28.509   8.580  11.624
68820W        W33981  16.166   4.617   3.290
68821W        W33982  37.615  40.821   2.541
68822W        W33983  11.634  38.547  11.127
68823W        W33984  42.041  17.562   0.263
68824W        W33985  16.994  40.181  13.525
68825W        W33986   5.519  10.836   2.261
68826W        W33987   1.037  33.083  12.530
68827W        W33988  30.529  34.670   3.175
68828W        W33989  35.473   0.398   2.341
68829W        W33990  18.594  41.043   1.263
68830W        W33991  38.057   5.194   2.105
68831W        W33992  39.336  11.730  10.802
68832W        W33993  25.601  20.923   1.128
68833W        W33994  26.458  25.017   3.227
68834W        W33995  25.658  39.478   1.339
68835W        W33996  28.084  37.093  12.972
68836W        W33997  17.202  36.332   3.211
68837W        W33998   3.908  14.168   0.024
68838W        W33999   5.500   5.319   1.799
68839W        W34000  37.725   7.783   2.276
68840W        W34001  39.549  22.321   2.751
68841W        W34002   3.362  41.021  11.547
68842W        W34003  18.314  41.257   2.912
68843W        W34004  36.118  15.611   3.195
68844W        W34005  38.154   6.307   3.038
68845W        W34006  17.167   4.823  11.170
68846W        W34007  19.113  41.844   3.279
68847W        W34008  42.903  15.192   0.319
68848W        W34009  24.485  28.038  13.447
68849W        W34010   3.741   0.924  12.612
68850W        W34011  15.877  21.670  12.579
68851W        W34012  27.016  10.185   3.192
68852W        W34013  43.327  17.767  13.398
68853W        W34014  16.642   8.881  13.423
68854W        W34015   9.301  11.727   4.404
68855W        W34016   6.670  35.633  10.627
68856W        W34017  29.655  28.527   2.260
68857W        W34018   2.939   0.326  10.576
68858W        W34019   1.912   0.926   1.021
68859W        W34020  33.073  33.447   1.660
68860W        W34021  41.814  35.290   2.644
68861W        W34022  13.244   9.084   2.388
68862W        W34023   0.203  33.471  10.598
68863W        W34024  11.340  42.283   1.872
68864W        W34025  34.541   9.547   0.803
68865W        W34026   7.284  39.997  12.986
68866W        W34027  29.596   0.738   2.707
68867W        W34028  35.114  28.177   1.421
68868W        W34029  30.426  19.963   3.383
68869W        W34030  33.160  37.787   3.203
68870W        W34031  40.638  23.963  10.779
68871W        W34032  31.310  15.344   4.666
68872W        W34033  43.170  14.624   0.852
68873W        W34034  32.146  25.297  11.425
68874W        W34035  35.563   3.369   0.750
68875W        W34036  29.031  31.608   1.834
68876W        W34037  44.747   8.667   2.626
68877W        W34038  14.195  16.545  11.670
68878W        W34039  39.434  16.934   4.883
68879W        W34040  26.680  10.462  14.299
68880W        W34041  28.367  39.589   4.329
68881W        W34042  35.837   6.750  13.035
68882W        W34043  28.353  23.420  10.232
68883W        W34044  39.739  29.437  14.361
68884W        W34045  11.356   4.422   2.679
68885W        W34046  15.642  35.193   1.234
68886W        W34047  43.591  12.976   9.620
68887W        W34048  14.704  21.286   0.264
68888W        W34049  39.209   2.814  12.036
68889W        W34050  34.915  36.387  12.266
68890W        W34051  33.444  22.361  13.333
68891W        W34052  31.912  28.645   2.320
68892W        W34053  37.393  11.185  12.975
68893W        W34054   8.290  14.599   4.225
68894W        W34055  12.364  16.715  11.202
68895W        W34056   1.271  11.560   2.327
68896W        W34057  28.447  10.263  13.893
68897W        W34058  43.378  11.501   0.196
68898W        W34059  24.708  28.132  12.973
68899W        W34060  30.433   7.201  10.446
68900W        W34061  39.017  21.678  12.107
68901W        W34062   2.678  41.553  10.892
68902W        W34063  37.599   8.695   4.732
68903W        W34064  15.697   1.726  14.610
68904W        W34065   7.903  26.248  14.832
68905W        W34066  11.414  14.426  11.867
68906W        W34067   0.549  43.385   4.283
68907W        W34068   2.859   3.355  14.804
68908W        W34069  30.683   6.785  13.631
68909W        W34070  16.248  29.056   4.855
68910W        W34071  20.074  27.060   2.946
68911W        W34072  18.080   6.122  11.309
68912W        W34073   9.103  12.677   2.351
68913W        W34074  18.685   2.820   0.051
68914W        W34075  18.134  13.205  12.087
68915W        W34076  16.968  10.886   1.323
68916W        W34077   3.860   6.197   2.335
68917W        W34078  26.827  19.009   4.290
68918W        W34079   6.630  14.562   0.255
68919W        W34080  10.406  23.801   1.709
68920W        W34081   5.462  14.680   3.659
68921W        W34082  29.478  10.711   2.106
68922W        W34083  31.642  34.722  14.934
68923W        W34084  38.580  38.660  13.839
68924W        W34085  30.701  10.861  12.764
68925W        W34086  27.665  24.052  11.983
68926W        W34087  33.759  41.159   4.425
68927W        W34088  33.329   4.203  13.110
68928W        W34089   1.317  40.318   2.250
68929W        W34090  36.134   2.540   0.739
68930W        W34091  36.338  28.053   3.481
68931W        W34092   5.343  32.142  14.082
68932W        W34093  15.646  14.107   4.572
68933W        W34094  22.090  32.186  10.627
68934W        W34095  23.457  16.379  14.482
68935W        W34096  29.642  41.529  14.993
68936W        W34097  13.340   3.521   2.161
68937W        W34098  13.537  41.934  11.034
68938W        W34099  40.571   9.156   4.240
68939W        W34100  25.751  21.548  13.032
68940W        W34101  28.286   9.427   1.257
68941W        W34102   6.488  44.751  11.567
68942W        W34103   7.858  16.084   3.361
68943W        W34104   5.386  28.684   3.632
68944W        W34105  43.806  23.669   3.716
68945W        W34106  15.184  39.024   1.057
68946W        W34107  44.364  41.930   2.795
68947W        W34108   6.371   9.049  10.395
68948W        W34109  30.511  15.493  13.999
68949W        W34110  18.833  17.575  10.397
68950W        W34111  28.058  39.874  14.388
68951W        W34112  38.065  10.717   4.108
68952W        W34113  33.808  42.339   2.165
68953W        W34114  33.683  27.020  10.893
68954W        W34115  32.080  12.062   4.491
68955W        W34116  37.556  29.446   2.490
68956W        W34117  22.434  26.298   2.692
68957W        W34118  33.989  42.525  11.594
68958W        W34119  26.084  19.242   4.614
68959W        W34120  14.157  22.717  13.907
68960W        W34121  33.941  35.398   2.968
68961W        W34122  26.014   5.078  13.159
68962W        W34123  42.854   7.964   3.671
68963W        W34124  14.685   6.663  13.399
68964W        W34125  33.654   7.661   1.848
68965W        W34126  27.843   7.719  14.721
68966W        W34127  31.599   3.584   0.722
68967W        W34128  21.152  38.913   1.474
68968W        W34129   5.353   9.675   2.585
68969W        W34130  43.317  26.111  10.591
68970W        W34131  26.996  21.664  10.677
68971W        W34132  24.656  14.084   1.679
68972W        W34133  25.167  34.748  12.100
68973W        W34134   4.363  42.749   2.223
68974W        W34135  42.297  37.527   0.845
68975W        W34136   1.681  34.960   2.100
68976W        W34137  13.373  37.782   2.792
68977W        W34138  18.658  40.793   3.114
68978W        W34139  15.936  30.977   4.130
68979W        W34140  25.785  18.001   1.883
68980W        W34141  16.692  15.047   2.165
68981W        W34142   8.668  42.383  11.963
68982W        W34143   3.324  10.564   0.289
68983W        W34144   4.497  27.648   1.288
68984W        W34145  11.142  43.586   0.319
68985W        W34146  41.916  12.613   1.452
68986W        W34147  16.600  41.824  11.120
68987W        W34148   2.911   9.620   1.816
68988W        W34149  16.647  42.568   5.413
68989W        W34150  14.611  37.763   1.204
68990W        W34151  19.576   1.262  14.789
68991W        W34152  39.774  43.009  13.955
68992W        W34153  43.321   5.209  12.720
68993W        W34154  41.261  24.820   2.237
68994W        W34155   6.552  18.120  10.782
68995W        W34156  22.724   6.103  14.382
68996W        W34157   9.680  26.195  13.338
68997W        W34158  39.986  27.541  13.361
68998W        W34159  30.557   0.162  14.502
68999W        W34160  20.094   0.485  13.862
69000W        W34161   8.244  21.048  11.170
69001W        W34162   1.158  44.761  11.177
69002W        W34163   7.892   2.033   1.301
69003W        W34164  39.737   3.320  10.924
69004W        W34165   7.373   4.194   3.320
69005W        W34166  37.360  44.729  14.854
69006W        W34167  44.694   5.885  11.315
69007W        W34168  41.076   4.452  11.560
69008W        W34169  39.794  40.212   0.970
69009W        W34170  19.038  34.603  14.382
69010W        W34171  21.913  32.904   3.558
69011W        W34172  42.388  21.856   0.311
69012W        W34173   2.328  11.052  14.349
69013W        W34174   1.970  26.543   5.363
69014W        W34175   5.511  26.590   0.894
69015W        W34176  11.286  35.862  11.096
69016W        W34177  36.047  33.208   1.294
69017W        W34178  17.173  10.175  12.339
69018W        W34179  19.158   3.509   3.713
69019W        W34180  24.741  19.160  13.073
69020W        W34181  32.069  16.154  13.530
69021W        W34182  23.109  38.875  12.864
69022W        W34183  19.090   7.480  14.938
69023W        W34184  43.196   2.231   1.817
69024W        W34185  37.600   3.137  12.968
69025W        W34186  33.080  37.847   5.337
69026W        W34187  36.452   5.966  13.021
69027W        W34188  41.414  25.021  10.709
69028W        W34189   0.072  16.613   1.726
69029W        W34190  23.820  37.406  11.998
69030W        W34191   1.105   2.861  13.434
69031W        W34192   2.755  29.627  11.607
69032W        W34193  24.300  31.345   3.133
69033W        W34194  20.011  28.628   1.748
69034W        W34195  19.090   4.929  14.965
69035W        W34196  12.185  27.191  12.960
69036W        W34197  27.503  24.299  13.267
69037W        W34198  21.302  37.585   3.773
69038W        W34199  32.967  41.562   2.679
69039W        W34200  24.530  16.394  11.627
69040W        W34201  15.333  38.529   1.104
69041W        W34202  40.039  31.410   2.861
69042W        W34203  13.931  30.624   4.543
69043W        W34204  10.184  27.357  10.720
69044W        W34205  22.523  41.994   3.568
69045W        W34206  37.108  38.965   0.937
69046W        W34207  14.099   4.194  14.800
69047W        W34208  12.436  35.948   1.446
69048W        W34209   0.469  32.690  12.349
69049W        W34210  36.964  25.949   1.920
69050W        W34211  34.840  27.084   0.693
69051W        W34212  10.190  20.976   3.702
69052W        W34213  32.149  13.874   4.644
69053W        W34214  26.075  30.862  13.862
69054W        W34215  10.818  22.888   3.830
69055W        W34216  14.327  12.111  13.895
69056W        W34217  10.531  41.554  11.218
69057W        W34218   8.308   0.934  14.477
69058W        W34219  42.913   6.689   4.923
69059W        W34220  10.830  30.133   1.697
69060W        W34221  39.249  34.178   4.227
69061W        W34222   0.235  12.520   1.380
69062W        W34223   6.283   2.825  13.582
69063W        W34224   3.021  28.053  11.583
69064W        W34225  11.996  23.733  11.713
69065W        W34226  10.468  18.009   4.728
69066W        W34227  24.687  12.909   4.473
69067W        W34228  17.595  29.702   3.031
69068W        W34229  12.258  39.012  10.713
69069W        W34230  29.655  14.620   0.754
69070W        W34231  22.573  17.158  13.032
69071W        W34232  34.084   6.242  13.024
69072W        W34233  12.917  17.626  14.730
69073W        W34234  29.569  44.677  14.001
69074W        W34235   6.683  18.595   4.079
69075W        W34236  32.072   4.552   5.151
69076W        W34237  27.552   3.790  13.769
69077W        W34238  30.592   5.814   2.707
69078W        W34239  17.282  11.498   4.097
69079W        W34240  26.803  37.041   1.989
69080W        W34241  29.371   5.698   1.776
69081W        W34242  42.887  22.505  13.018
69082W        W34243  32.475  28.996   4.747
69083W        W34244  24.686  44.302   4.379
69084W        W34245  28.112  37.825  13.395
69085W        W34246  11.646  43.881   4.367
69086W        W34247  10.716  12.029   2.248
69087W        W34248  23.663  33.511   3.233
69088W        W34249   7.803  37.013  14.064
69089W        W34250  35.720   3.735   2.904
69090W        W34251  20.728  28.008   1.793
69091W        W34252  30.956   9.907  14.903
69092W        W34253  40.170  35.919   3.100
69093W        W34254   8.111   9.295  13.041
69094W        W34255  10.144  33.993   3.214
69095W        W34256  37.320   6.651   0.918
69096W        W34257   9.726  43.854   4.579
69097W        W34258   1.232  24.955   3.396
69098W        W34259  12.468  16.065   3.704
69099W        W34260   1.692  36.833  14.958
69100W        W34261  28.502  41.957   1.548
69101W        W34262  25.980  16.859   1.835
69102W        W34263  32.557   4.915  14.219
69103W        W34264  20.067  39.793   2.834
69104W        W34265  20.342  32.527   4.534
69105W        W34266   8.766  11.922   2.717
69106W        W34267   3.533  22.160  11.155
69107W        W34268  34.593  29.211   4.167
69108W        W34269  20.029   3.499   0.000
69109W        W34270  34.443  39.822   0.786
69110W        W34271  44.816  37.649   0.196
69111W        W34272  42.488  44.384  10.727
69112W        W34273  31.413   2.260  14.737
69113W        W34274  39.050  32.371   3.238
69114W        W34275  12.601  10.888   4.602
69115W        W34276   1.280  15.868  10.362
69116W        W34277  28.934  34.972   0.338
69117W        W34278  16.631   8.618   0.348
69118W        W34279  18.454   7.693   4.151
69119W        W34280  31.399  30.862   3.340
69120W        W34281  38.353  29.922  11.517
69121W        W34282  16.339  33.841   0.324
69122W        W34283  33.532  10.698  12.415
69123W        W34284   6.520  29.437   4.960
69124W        W34285  12.197  41.844   0.864
69125W        W34286  26.689   5.074  11.974
69126W        W34287  23.497  11.849   2.638
69127W        W34288   7.269   5.623   0.771
69128W        W34289  10.533  27.256  11.549
69129W        W34290  11.858  36.104   1.379
69130W        W34291  17.085  32.992   2.261
69131W        W34292   3.659  28.116   3.277
69132W        W34293   1.674  39.393   2.780
69133W        W34294  15.072  43.470   1.996
69134W        W34295  20.025   6.987   4.831
69135W        W34296  33.136  37.313   4.296
69136W        W34297  18.098   1.317  10.662
69137W        W34298   9.994  14.876  11.998
69138W        W34299  34.463  12.570  11.576
69139W        W34300   3.810   6.235   2.989
69140W        W34301  11.190  22.004  11.549
69141W        W34302  40.114  35.404   1.790
69142W        W34303  34.110  43.841   3.130
69143W        W34304  31.068   2.865   3.700
69144W        W34305  22.472  30.126  11.230
69145W        W34306  19.601   2.905  13.910
69146W        W34307  41.056  14.644  12.634
69147W        W34308  31.563  40.338   0.668
69148W        W34309  43.842  18.096  11.631
69149W        W34310  39.731  28.190   3.179
69150W        W34311  33.012  29.636  13.404
69151W        W34312   1.457  22.306   4.312
69152W        W34313  26.002  13.571   5.460
69153W        W34314   4.651  39.873  12.344
69154W        W34315  21.451  22.932   1.255
69155W        W34316  17.694   9.506   3.187
69156W        W34317  35.648  30.510   0.338
69157W        W34318   9.301  26.851   5.003
69158W        W34319  33.866  37.029  10.303
69159W        W34320  28.634  12.711   4.161
69160W        W34321  32.053  25.195   2.793
69161W        W34322  19.530  33.936  13.305
69162W        W34323  13.254  10.027   3.679
69163W        W34324   4.589  13.152  13.911
69164W        W34325   1.196  25.727   3.677
69165W        W34326   9.784   1.932   1.764
69166W        W34327   1.532  15.316  11.038
69167W        W34328  37.478  30.975   0.237
69168W        W34329  30.522  30.950   5.094
69169W        W34330   4.105  18.289   2.024
69170W        W34331   0.181  39.859   3.549
69171W        W34332  37.317  10.280   2.285
69172W        W34333  33.847  21.119  12.011
69173W        W34334  18.180  19.787   3.129
69174W        W34335  33.909  27.072   0.243
69175W        W34336   2.566  19.657   5.015
69176W        W34337  34.968  12.220   3.573
69177W        W34338  13.290  42.471   4.939
69178W        W34339   1.477   0.438  11.902
69179W        W34340   7.220  41.487   4.529
69180W        W34341  37.737  27.178   3.838
69181W        W34342  42.353  13.823  10.690
69182W        W34343  24.136  17.208   4.992
69183W        W34344  32.351  21.469   2.931
69184W        W34345  34.444  13.282  12.043
69185W        W34346  33.851  10.232  14.295
69186W        W34347  40.599  38.115  14.789
69187W        W34348  31.964  36.305  12.009
69188W        W34349  27.684   4.135   4.047
69189W        W34350   9.225   6.954  11.482
69190W        W34351   9.647   8.151  10.779
69191W        W34352  36.177   7.876  13.988
69192W        W34353  28.926  35.501   1.728
69193W        W34354  23.026  18.471   3.110
69194W        W34355  35.879  32.555  12.378
69195W        W34356  36.471  26.705   1.894
69196W        W34357  26.213  29.431  12.921
69197W        W34358   5.731  23.020   2.272
69198W        W34359  40.796  20.516  10.832
69199W        W34360   4.464  10.693  10.006
69200W        W34361   5.413  38.644  11.584
69201W        W34362   3.224  30.045  13.090
69202W        W34363  39.878  40.533  10.340
69203W        W34364  31.140  42.536  11.107
69204W        W34365  21.203  43.739   4.599
69205W        W34366  44.373  44.939  13.619
69206W        W34367  16.141  28.629  11.835
69207W        W34368  28.453  44.360  14.038
69208W        W34369  32.625  40.099   0.688
69209W        W34370  24.927  34.794   1.936
69210W        W34371   7.983  30.239   3.327
69211W        W34372  43.687  31.619   3.603
69212W        W34373  16.253  36.306   1.735
69213W        W34374  30.689  12.319   4.810
69214W        W34375   1.456  14.911  11.983
69215W        W34376  30.996  18.705  14.794
69216W        W34377  27.811  41.068  10.976
69217W        W34378  37.841   0.245   3.422
69218W        W34379  20.383  14.223   4.214
69219W        W34380  21.259   5.486  13.481
69220W        W34381  13.732  41.841   2.640
69221W        W34382  35.574  32.484   3.226
69222W        W34383  40.766  31.196   0.376
69223W        W34384  44.862  22.055  14.569
69224W        W34385  33.072  34.417   3.684
69225W        W34386  20.749  43.258  10.176
69226W        W34387  28.980  43.915   4.643
69227W        W34388  23.768   5.310  10.649
69228W        W34389  13.745  18.712   1.336
69229W        W34390  43.081  24.661   2.817
69230W        W34391  32.074  17.461  10.985
69231W        W34392  38.953  16.702   4.970
69232W        W34393  30.703  42.827   1.842
69233W        W34394   3.367  17.067   4.341
69234W        W34395  12.203  19.527  12.495
69235W        W34396   1.792   0.352  13.584
69236W        W34397  16.806  42.641  10.670
69237W        W34398  18.251   2.262  10.671
69238W        W34399  31.506  39.749   1.150
69239W        W34400  22.918  18.030  13.005
69240W        W34401   8.845  14.338   2.089
69241W        W34402  24.278  31.483   1.764
69242W        W34403   4.703  23.381   5.046
69243W        W34404   9.019   2.459   3.823
69244W        W34405  20.110  44.926  13.832
69245W        W34406   4.647   9.534  13.830
69246W        W34407  27.181   0.276   2.148
69247W        W34408   1.501   1.901   4.537
69248W        W34409  36.747  15.998  13.756
69249W        W34410  43.389  30.650   2.648
69250W        W34411  22.642   7.275   4.664
69251W        W34412  11.245   6.848   3.196
69252W        W34413  15.096   1.732   4.247
69253W        W34414   3.834  23.017  13.201
69254W        W34415  17.449   3.872  11.337
69255W        W34416   7.580  25.735   9.808
69256W        W34417  41.068  16.699  13.018
69257W        W34418  39.063  14.823   1.310
69258W        W34419  18.549  21.656  14.133
69259W        W34420   9.079  17.695   4.592
69260W        W34421  35.964  42.320  12.462
69261W        W34422  36.060  10.395  11.309
69262W        W34423  20.664  32.817  11.748
69263W        W34424  28.694  29.278  12.577
69264W        W34425  41.319  31.591   4.697
69265W        W34426  32.424  30.062   3.812
69266W        W34427  34.508  23.995   3.310
69267W        W34428  10.330   7.761  13.017
69268W        W34429  18.538  35.628  11.811
69269W        W34430  29.455  17.762   1.255
69270W        W34431  28.071   0.312   4.921
69271W        W34432  17.225   2.324  10.630
69272W        W34433  44.462   9.646  14.917
69273W        W34434   1.198  25.111  14.944
69274W        W34435  35.305  25.946   4.180
69275W        W34436  40.395  31.492  14.084
69276W        W34437  30.910  12.815  10.585
69277W        W34438  13.861  35.507   2.343
69278W        W34439   2.558  25.644   1.460
69279W        W34440   9.087  40.791   0.424
69280W        W34441  28.146  21.925  13.477
69281W        W34442  17.181   7.914   4.496
69282W        W34443   2.529  36.029   4.738
69283W        W34444  25.031   7.950   0.823
69284W        W34445  23.079  32.528  11.910
69285W        W34446  33.583   7.179  12.931
69286W        W34447  12.856  11.605   1.071
69287W        W34448   2.371   4.698   0.545
69288W        W34449  30.660   5.861  10.880
69289W        W34450  33.452  41.818  11.991
69290W        W34451  40.901  32.548  13.592
69291W        W34452  15.441  27.010   2.758
69292W        W34453   0.160   1.995   3.444
69293W        W34454  40.533  24.171   4.597
69294W        W34455  15.446   7.211   3.121
69295W        W34456  42.958  16.575   0.581
69296W        W34457  32.567  17.755  12.032
69297W        W34458  36.364  38.019  11.530
69298W        W34459  31.573  13.141  12.753
69299W        W34460  21.505  12.035  14.451
69300W        W34461  11.812   2.755  10.688
69301W        W34462  17.460   4.559  14.536
69302W        W34463  19.583  29.092  13.590
69303W        W34464   1.323  42.504   4.643
69304W        W34465  29.454  41.784  11.036
69305W        W34466  31.641  42.166   0.005
69306W        W34467  16.695  28.558  12.442
69307W        W34468  38.070  14.928   4.211
69308W        W34469  40.372  14.590  12.864
69309W        W34470  13.396   2.224  11.184
69310W        W34471  20.439  18.311  13.195
69311W        W34472  29.997   1.458   4.345
69312W        W34473  32.370  15.603   1.171
69313W        W34474   4.571  12.256  10.853
69314W        W34475   1.434   0.301   2.246
69315W        W34476  23.326  14.210   3.124
69316W        W34477   8.980  30.849   0.906
69317W        W34478  17.199   5.372   2.758
69318W        W34479  16.975  15.852  14.381
69319W        W34480  22.444  11.359   3.483
69320W        W34481  28.419  35.475   1.991
69321W        W34482  44.613  39.805  13.019
69322W        W34483   2.209  11.902   4.005
69323W        W34484  15.081  19.832  14.339
69324W        W34485  31.072  26.727  11.991
69325W        W34486  32.722  19.196  14.992
69326W        W34487  21.961   7.971  12.029
69327W        W34488  13.219  42.329  11.165
69328W        W34489   6.744  30.867   1.829
69329W        W34490  10.689  29.623  13.160
69330W        W34491  31.602   4.970  10.287
69331W        W34492  39.942   9.203  14.023
69332W        W34493  17.576  27.960   2.478
69333W        W34494  21.527  30.003  10.743
69334W        W34495  11.711  13.682  10.380
69335W        W34496  32.068  19.793  10.365
69336W        W34497  40.992   7.625   1.056
69337W        W34498  30.619   5.884   0.906
69338W        W34499  21.954   1.697   2.180
69339W        W34500  19.325  39.153   0.943
69340W        W34501  18.634   6.405  14.195
69341W        W34502  44.531  25.941  13.922
69342W        W34503  26.990  43.025  14.491
69343W        W34504   9.834  31.203   2.174
69344W        W34505  15.059   5.405  14.814
69345W        W34506  43.690  29.205   2.942
69346W        W34507   7.973  37.883   2.329
69347W        W34508  29.403   6.443  11.591
69348W        W34509  38.970  41.814  10.306
69349W        W34510  37.102   5.811  12.363
69350W        W34511  41.277   5.911   3.004
69351W        W34512   0.543  11.068   2.480
69352W        W34513  12.453   2.350   0.235
69353W        W34514  32.430  15.705  14.729
69354W        W34515  31.926   5.674   1.746
69355W        W34516  37.876  35.122  12.135
69356W        W34517  14.764   4.726   3.179
69357W        W34518  42.493  23.965  13.858
69358W        W34519  13.781  15.692   2.836
69359W        W34520  33.197  39.863   0.236
69360W        W34521  33.490  40.410  12.663
69361W        W34522  16.750  37.416   1.879
69362W        W34523  30.066  15.683  13.829
69363W        W34524   6.800  16.829   2.346
69364W        W34525  16.178  42.341   2.382
69365W        W34526  30.951   0.334  13.274
69366W        W34527  13.371  18.301  12.031
69367W        W34528  42.954  31.937  14.888
69368W        W34529  21.128  20.594  12.326
69369W        W34530   2.801  20.128  10.702
69370W        W34531   8.110  20.481   1.663
69371W        W34532  27.500  17.652   2.684
69372W        W34533  41.734  36.643   3.772
69373W        W34534  40.368  34.980   4.964
69374W        W34535  19.311  32.762   1.848
69375W        W34536  40.693   6.391   2.600
69376W        W34537  42.530  10.156   2.222
69377W        W34538  16.137  24.752   3.660
69378W        W34539  24.842   9.178  11.942
69379W        W34540  35.958   5.946  13.997
69380W        W34541   1.850  11.485   1.459
69381W        W34542  26.655  26.971   2.179
69382W        W34543  40.459  37.402   4.102
69383W        W34544  40.571  33.993  10.634
69384W        W34545  37.652  42.002   3.707
69385W        W34546   0.977  28.130   0.380
69386W        W34547  16.204  42.581  14.569
69387W        W34548  36.205  14.152  12.404
69388W        W34549  18.216  33.179   4.098
69389W        W34550   2.934   5.275   4.638
69390W        W34551  32.553  31.510   1.350
69391W        W34552   7.473  11.671  10.478
69392W        W34553  38.218  25.564   4.722
69393W        W34554  13.662  41.331   4.380
69394W        W34555  34.940  40.187   9.720
69395W        W34556   0.363  32.597   0.338
69396W        W34557  40.560  32.690   1.437
69397W        W34558  18.252  25.447   4.270
69398W        W34559  39.078  37.250   4.648
69399W        W34560  13.680  40.394   0.932
69400W        W34561  26.006  37.973   1.306
69401W        W34562  15.131   0.866  10.777
69402W        W34563  34.466   8.347   2.249
69403W        W34564  40.887   0.970  12.968
69404W        W34565  24.802  30.905  11.002
69405W        W34566  17.488  15.656  11.714
69406W        W34567   8.311  37.637   2.878
69407W        W34568  26.025   3.290   4.198
69408W        W34569  11.101  21.510  11.012
69409W        W34570  16.130  21.270   1.766
69410W        W34571   3.524   5.940   1.382
69411W        W34572  21.746   2.916  10.775
69412W        W34573  15.489   8.446   4.491
69413W        W34574  23.248  29.636   0.200
69414W        W34575  39.657  31.964  13.739
69415W        W34576  16.327  42.478  12.480
69416W        W34577   7.611  34.100   0.314
69417W        W34578  31.209  35.425   3.277
69418W        W34579  14.238  36.189  11.630
69419W        W34580  39.458   0.842   0.962
69420W        W34581   0.460  33.121  13.097
69421W        W34582  22.648  36.252  12.687
69422W        W34583   8.816  44.694   4.189
69423W        W34584  25.113  38.834   1.738
69424W        W34585  40.285   8.952   3.807
69425W        W34586  26.558   0.789  11.515
69426W        W34587  44.991  44.259   0.479
69427W        W34588  35.666  17.574  12.817
69428W        W34589  34.412  44.068   1.760
69429W        W34590  44.944  12.309  10.240
69430W        W34591  24.561   1.766  14.014
69431W        W34592  19.057   9.067  14.435
69432W        W34593  15.054  22.744  12.687
69433W        W34594  12.192  22.556   4.359
69434W        W34595   2.851   9.386   4.559
69435W        W34596   4.829  19.823  11.695
69436W        W34597   9.355  18.136  12.016
69437W        W34598   3.446  41.271  10.311
69438W        W34599  34.014  12.745   3.223
69439W        W34600  23.531   0.833   4.382
69440W        W34601  19.628  35.466   1.827
69441W        W34602  39.503   8.360  14.857
69442W        W34603  23.135   4.637   3.735
69443W        W34604  34.154  23.517  11.076
69444W        W34605   9.913  42.619  12.931
69445W        W34606  43.277  31.415   3.328
69446W        W34607   8.237   9.836   1.204
69447W        W34608  26.440  34.689   0.449
69448W        W34609  24.881  19.746  12.480
69449W        W34610  34.584  44.256  12.900
69450W        W34611   9.775  29.560  12.561
69451W        W34612  19.267  22.661  13.970
69452W        W34613  16.846  13.157  12.995
69453W        W34614  41.899  19.456  11.312
69454W        W34615  13.381  40.878  13.497
69455W        W34616  21.818   7.429  14.345
69456W        W34617  14.772  28.204   1.303
69457W        W34618  20.984  15.832  14.720
69458W        W34619   3.732  32.646  14.586
69459W        W34620  38.697  18.646  11.173
69460W        W34621   9.795   7.765  12.929
69461W        W34622  44.165  30.431   1.277
69462W        W34623  38.356   4.975   4.545
69463W        W34624  35.613   0.863  13.122
69464W        W34625  22.349   1.380  11.436
69465W        W34626  43.347  35.722  13.104
69466W        W34627   7.511  35.307  12.981
69467W        W34628   9.716   7.322   1.772
69468W        W34629  30.091  37.378  14.934
69469W        W34630  25.087  36.502   3.146
69470W        W34631  30.631  37.134   2.662
69471W        W34632  30.063  13.831   4.126
69472W        W34633  22.292  13.933  10.004
69473W        W34634  17.284  35.115  12.038
69474W        W34635  33.595  34.119  11.132
69475W        W34636  36.853  23.719   0.424
69476W        W34637  29.546  37.353   2.251
69477W        W34638  38.084  20.298  13.020
69478W        W34639  40.006  14.114  14.063
69479W        W34640  15.951  17.183  13.650
69480W        W34641  37.041  36.146  10.510
69481W        W34642  27.873   1.290  10.563
69482W        W34643  19.322  29.576   0.438
69483W        W34644  36.946  37.036   2.771
69484W        W34645  37.736  10.123   3.866
69485W        W34646  40.919  27.205   4.713
69486W        W34647  24.453   9.375  14.393
69487W        W34648  18.212  16.525  12.839
69488W        W34649  19.535   2.495  14.393
69489W        W34650  14.541   7.931  11.404
69490W        W34651  14.089  27.501  12.088
69491W        W34652  41.777  40.166   4.133
69492W        W34653  41.516  30.861  12.447
69493W        W34654   9.113  43.478   5.125
69494W        W34655   5.252  39.853  13.852
69495W        W34656  36.370  29.134  10.277
69496W        W34657  15.763   2.235  14.555
69497W        W34658  18.667  41.454   4.375
69498W        W34659   4.979   3.275   2.300
69499W        W34660  40.977  42.096   1.397
69500W        W34661  20.650  24.478  11.724
69501W        W34662  35.491  13.401  13.588
69502W        W34663  12.802  28.159   3.162
69503W        W34664  25.295  17.366   3.242
69504W        W34665  44.477  22.306   4.042
69505W        W34666  20.781  13.707  12.845
69506W        W34667  44.987   8.772   0.880
69507W        W34668  38.353  35.979   0.947
69508W        W34669  38.531  20.020  13.045
69509W        W34670   4.259   8.912  13.802
69510W        W34671  33.776  37.662   2.648
69511W        W34672  36.845   2.982  10.687
69512W        W34673   2.893  13.184  12.457
69513W        W34674   6.405  21.805  12.213
69514W        W34675  21.599  18.759   1.225
69515W        W34676   4.719  42.288   0.498
69516W        W34677  29.088  43.550   3.619
69517W        W34678  37.888  17.520  11.862
69518W        W34679  20.116  13.785  13.362
69519W        W34680  15.946  42.667   0.253
69520W        W34681  12.152  20.561   3.193
69521W        W34682  23.006  10.928   2.700
69522W        W34683  40.628  26.577   2.445
69523W        W34684  31.998   9.408   2.509
69524W        W34685  23.574  41.834   1.071
69525W        W34686   4.071  14.645  10.489
69526W        W34687  23.284  27.519   4.541
69527W        W34688   0.740  41.173   1.065
69528W        W34689  43.773  26.609   0.828
69529W        W34690  42.866  22.896  14.290
69530W        W34691  14.206  39.791  14.732
69531W        W34692  18.188  43.965  10.376
69532W        W34693  15.695  16.208   2.698
69533W        W34694  35.315  11.624   3.876
69534W        W34695  23.004   3.592  14.550
69535W        W34696  14.243  34.008  13.419
69536W        W34697  15.558   1.998  11.700
69537W        W34698   5.202   0.969   0.560
69538W        W34699   2.241  17.701  12.519
69539W        W34700  44.058  13.340   4.679
69540W        W34701  21.253  26.696  13.385
69541W        W34702   2.005   1.508   0.290
69542W        W34703  16.645   0.530   4.090
69543W        W34704  34.910  40.843  13.825
69544W        W34705  43.654  29.386  11.842
69545W        W34706  37.408   8.595  13.823
69546W        W34707  26.609  40.534   4.508
69547W        W34708  42.573  16.582  10.479
69548W        W34709  33.896  19.104   3.684
69549W        W34710  13.536  41.357  14.094
69550W        W34711  12.630  17.768  13.067
69551W        W34712  20.029  42.132   3.733
69552W        W34713  20.590  31.474   4.210
69553W        W34714  24.264   2.420  13.981
69554W        W34715  16.368  21.555   4.523
69555W        W34716  19.233   5.928   3.644
69556W        W34717  37.421  30.762  14.765
69557W        W34718  11.527  26.677  11.791
69558W        W34719  36.091  37.351   2.642
69559W        W34720  21.699   4.120  13.402
69560W        W34721  32.508  33.563   0.951
69561W        W34722  40.661  40.327  13.148
69562W        W34723  32.596   1.289   0.414
69563W        W34724   7.280  34.068  13.935
69564W        W34725  40.824  31.600  14.351
69565W        W34726  41.583  36.172  13.232
69566W        W34727  18.057  27.615   0.784
69567W        W34728   8.411  14.916  12.905
69568W        W34729  31.619  23.446  13.278
69569W        W34730  11.143  44.777   1.757
69570W        W34731  24.515  36.845  10.561
69571W        W34732   8.171  20.811  14.953
69572W        W34733  33.006  40.860  12.179
69573W        W34734  34.127  36.185   2.895
69574W        W34735  14.690  12.753  13.511
69575W        W34736  43.169   4.676   2.787
69576W        W34737  16.930   0.964  13.252
69577W        W34738  13.027   5.902  14.721
69578W        W34739   2.801  26.379   5.769
69579W        W34740  28.269   2.271  14.439
69580W        W34741  17.328  22.651   4.028
69581W        W34742  35.258  28.001  12.356
69582W        W34743   6.397  41.536   0.002
69583W        W34744  41.788  22.316   2.117
69584W        W34745  26.150  34.961   3.270
69585W        W34746  14.648  18.208  13.920
69586W        W34747  26.502  33.257  11.074
69587W        W34748   0.356  36.948   0.216
69588W        W34749  44.218  27.188  13.370
69589W        W34750  39.807   9.695   0.251
69590W        W34751  27.657  28.175   1.507
69591W        W34752  37.596  17.034   1.274
69592W        W34753  33.518   9.651   2.679
69593W        W34754  37.609  30.232  14.468
69594W        W34755  18.044  29.509   0.093
69595W        W34756   8.935  28.005   2.176
69596W        W34757  38.906  22.166   0.369
69597W        W34758  36.031  12.253   0.765
69598W        W34759  14.785  20.546   3.229
69599W        W34760  21.561  24.306  14.782
69600W        W34761  31.686   5.770  11.387
69601W        W34762   1.787  10.766  10.177
69602W        W34763  24.026  39.470   0.400
69603W        W34764  11.346  37.415  10.617
69604W        W34765  35.520  15.241  10.803
69605W        W34766  17.797   0.879   1.473
69606W        W34767  17.447  13.754  11.723
69607W        W34768   1.343  43.989   0.092
69608W        W34769  32.072  13.790   3.668
69609W        W34770  40.514   8.401  14.826
69610W        W34771  18.065  25.994  11.591
69611W        W34772  15.093  27.913  12.900
69612W        W34773  21.748  31.508  11.590
69613W        W34774  32.631  42.827   3.197
69614W        W34775  38.539   8.395   0.043
69615W        W34776  15.639  14.039   3.668
69616W        W34777   0.717   4.465  11.242
69617W        W34778  20.535  23.945  11.815
69618W        W34779  12.722  23.202   0.163
69619W        W34780  36.685  34.841   4.392
69620W        W34781  31.962  32.535  13.879
69621W        W34782   3.892  41.931  13.354
69622W        W34783  31.561   1.788  14.537
69623W        W34784  36.319  34.465   0.154
69624W        W34785  40.339  33.077   1.708
69625W        W34786  25.654  33.578  12.186
69626W        W34787  21.821  28.209  14.260
69627W        W34788   4.800   3.453   0.217
69628W        W34789  11.822  18.019  13.824
69629W        W34790   7.758  24.467  11.532
69630W        W34791  34.511  31.738  13.562
69631W        W34792  41.793  16.104  10.630
69632W        W34793  36.220  20.138  12.883
69633W        W34794  34.425   3.369   2.899
69634W        W34795  26.409  13.213   2.297
69635W        W34796   9.334  38.981   0.708
69636W        W34797  11.829  13.262  10.676
69637W        W34798  13.624  31.986   0.374
69638W        W34799  31.507   7.941   3.686
69639W        W34800   0.844  27.061  13.653
69640W        W34801  34.494  13.199   1.156
69641W        W34802  25.615   6.177   2.862
69642W        W34803  22.137  34.667   1.177
69643W        W34804  29.938  43.415  12.251
69644W        W34805  22.748  11.074  13.503
69645W        W34806  14.616   3.216  12.543
69646W        W34807  29.977  39.003  10.136
69647W        W34808  26.244  33.113   2.756
69648W        W34809  37.906  27.170   1.213
69649W        W34810  23.138  37.957  14.000
69650W        W34811  17.837  27.169   0.724
69651W        W34812   4.214   9.454   0.748
69652W        W34813   4.484  29.928  11.489
69653W        W34814  39.466  31.212  12.127
69654W        W34815  15.665   5.128   0.807
69655W        W34816  42.838  22.018  13.954
69656W        W34817  41.902  11.723   0.339
69657W        W34818  22.245  43.442  13.730
69658W        W34819  32.971  44.726  13.939
69659W        W34820  22.623  27.927   0.407
69660W        W34821  43.788  14.598   4.172
69661W        W34822  13.804  26.377  13.429
69662W        W34823   4.645  37.484  14.606
69663W        W34824  25.743  12.267   2.839
69664W        W34825  23.728   0.783  14.444
69665W        W34826  17.704  40.402   3.627
69666W        W34827  18.013   2.821   1.737
69667W        W34828  42.912   6.594  13.339
69668W        W34829  41.754  33.161   0.801
69669W        W34830  44.500  22.160   1.355
69670W        W34831  17.281  35.353  10.693
69671W        W34832  35.978  27.692   4.241
69672W        W34833  36.333  37.892   1.814
69673W        W34834  21.320   1.003   9.980
69674W        W34835  20.509  30.163   0.234
69675W        W34836  30.339  23.371  11.998
69676W        W34837  18.883  24.115   0.539
69677W        W34838   6.137   6.113   1.751
69678W        W34839  33.495  30.652  13.743
69679W        W34840  44.911   1.145   1.122
69680W        W34841   9.933  35.976  13.587
69681W        W34842  18.697  42.245   1.783
69682W        W34843  20.846   1.363   0.219
69683W        W34844   3.482  28.849   2.129
69684W        W34845  10.450  15.559   4.169
69685W        W34846  12.527  24.603   0.905
69686W        W34847  44.855   4.492   0.414
69687W        W34848  33.140   2.014   0.408
69688W        W34849  35.936  26.730   4.970
69689W        W34850  40.339  36.000   0.865
69690W        W34851   9.942  42.348   2.690
69691W        W34852   4.190  25.050   4.903
69692W        W34853  24.708  16.230  14.245
69693W        W34854  41.796   9.855   2.407
69694W        W34855  14.071   4.140   2.163
69695W        W34856  10.690  12.388   3.586
69696W        W34857  33.610   8.966   0.055
69697W        W34858  33.937   6.044  12.115
69698W        W34859   5.000  20.619   0.392
69699W        W34860  26.507  42.863   4.793
69700W        W34861  16.370  12.257   0.912
69701W        W34862  17.706  13.131   4.513
69702W        W34863  21.292  28.981   1.161
69703W        W34864  16.017  27.518  10.397
69704W        W34865   3.261  33.335  12.461
69705W        W34866   5.363  38.493   1.227
69706W        W34867  33.148   9.901   0.915
69707W        W34868  36.299  25.486   0.382
69708W        W34869  21.999  27.403  11.151
69709W        W34870  43.927  19.706   4.597
69710W        W34871  26.764   7.310   3.833
69711W        W34872  27.952  44.479   1.182
69712W        W34873  14.719  34.402  11.622
69713W        W34874  35.558   2.448  12.444
69714W        W34875  24.964  20.063   2.180
69715W        W34876  31.746   3.951  12.870
69716W        W34877   4.282   4.696  11.453
69717W        W34878  19.750  43.728  11.870
69718W        W34879  40.811  36.860  11.282
69719W        W34880   7.419   6.262   5.119
69720W        W34881  39.012  12.222  12.529
69721W        W34882  36.444  25.164  13.585
69722W        W34883  19.927  12.368   3.818
69723W        W34884  24.679  38.380   1.389
69724W        W34885  41.052  22.507  11.652
69725W        W34886  42.973  25.577   5.015
69726W        W34887  35.316  34.431  14.689
69727W        W34888  16.114  30.072   4.115
69728W        W34889  11.671   0.337   3.220
69729W        W34890   6.766  15.233  12.547
69730W        W34891  19.879  34.074  12.448
69731W        W34892  42.035  23.957   3.725
69732W        W34893   2.704  40.603  10.802
69733W        W34894  41.816   2.349  11.663
69734W        W34895  12.720  38.537   0.559
69735W        W34896  18.943  13.698   2.659
69736W        W34897  27.196   8.375  14.343
69737W        W34898   9.877  23.574  12.378
69738W        W34899  35.296  14.414   3.793
69739W        W34900  29.938  38.280   1.423
69740W        W34901  42.662  31.816   4.620
69741W        W34902  36.642   3.656  10.743
69742W        W34903   7.877  21.008  10.327
69743W        W34904  30.432  21.756   1.708
69744W        W34905  25.904  37.278   3.973
69745W        W34906  37.397  12.110   1.915
69746W        W34907  14.625   0.195   4.972
69747W        W34908  11.289   5.365   1.394
69748W        W34909  34.509  37.093   3.856
69749W        W34910  41.830   5.545   4.943
69750W        W34911  32.004  23.783  12.915
69751W        W34912  14.846  28.527   0.362
69752W        W34913  39.730   4.455   2.806
69753W        W34914  36.873  23.686   3.064
69754W        W34915  19.708  25.953  10.754
69755W        W34916   6.272  23.308  13.611
69756W        W34917  22.135  19.784   4.557
69757W        W34918  17.185  11.623  10.634
69758W        W34919  12.625  33.502   2.733
69759W        W34920   0.420  10.796   3.383
69760W        W34921  34.261  44.738  13.614
69761W        W34922  38.912  26.584   5.112
69762W        W34923   3.487  29.076  10.688
69763W        W34924  19.998  12.142   0.944
69764W        W34925  34.384  11.412   1.699
69765W        W34926  26.734  34.314   3.293
69766W        W34927  28.440  43.842  13.993
69767W        W34928   7.703  12.449   2.289
69768W        W34929  13.683  24.608   2.616
69769W        W34930  22.116   3.669   3.328
69770W        W34931  23.715  11.144  14.539
69771W        W34932  38.658   7.825  12.180
69772W        W34933   7.761   1.494   3.342
69773W        W34934  17.078  20.279   4.120
69774W        W34935  15.531  43.429  13.963
69775W        W34936  32.889   6.639  11.532
69776W        W34937   4.339  40.900  10.718
69777W        W34938   6.031   2.438  12.791
69778W        W34939  32.436  22.055   2.221
69779W        W34940   2.966  26.020   2.326
69780W        W34941   0.262  22.969  13.346
69781W        W34942  11.360  37.512   4.600
69782W        W34943  28.860  42.331   4.495
69783W        W34944   5.470  39.473   2.383
69784W        W34945   7.199  26.445   2.889
69785W        W34946  41.897  29.224  14.469
69786W        W34947  16.036  20.733  11.097
69787W        W34948  18.802  38.340  14.017
69788W        W34949  30.785  15.758   2.797
69789W        W34950  22.683  36.983  14.804
69790W        W34951  28.025  33.117   2.346
69791W        W34952  26.273  21.560   4.965
69792W        W34953  36.395  43.590   0.904
69793W        W34954  33.948  39.140   0.801
69794W        W34955  18.187  26.476   1.288
69795W        W34956  24.519  29.147   3.612
69796W        W34957   1.813   1.502  11.124
69797W        W34958  13.956  15.232  12.982
69798W        W34959  26.679  28.943   4.313
69799W        W34960   6.185  24.831  10.271
69800W        W34961  15.753  12.094   3.215
69801W        W34962  22.550  31.992  10.834
69802W        W34963   2.304   9.664   4.560
69803W        W34964   4.975  18.811  11.613
69804W        W34965  36.517  30.158  13.483
69805W        W34966  29.528  35.506  14.195
69806W        W34967   2.840  36.025   3.252
69807W        W34968  21.114  24.886   2.929
69808W        W34969  27.745  33.838  11.215
69809W        W34970  25.008  13.693  13.868
69810W        W34971   6.850  15.289  13.797
69811W        W34972  15.341  35.498  13.415
69812W        W34973  34.540  12.689   3.103
69813W        W34974   1.462  30.644  10.559
69814W        W34975  23.737  16.113  10.353
69815W        W34976  23.710  18.595  14.045
69816W        W34977  35.316  40.575   3.767
69817W        W34978   6.794  33.977  14.162
69818W        W34979  14.227   6.932  12.173
69819W        W34980  32.388  38.188  10.830
69820W        W34981  32.025  41.951   2.577
69821W        W34982  26.168  13.162  11.934
69822W        W34983  41.522  30.993  10.796
69823W        W34984  37.999  34.014  12.885
69824W        W34985  32.280  40.868   3.180
69825W        W34986  42.587  33.034  11.376
69826W        W34987  43.993  24.598   2.319
69827W        W34988  20.534   5.872  10.655
69828W        W34989  39.394  10.737  10.632
69829W        W34990  13.287  33.062  13.631
69830W        W34991  35.838   9.091  12.542
69831W        W34992  19.748  44.196   2.840
69832W        W34993  11.642  36.269   1.818
69833W        W34994  17.258  15.153   2.326
69834W        W34995  17.326  27.943  12.583
69835W        W34996  28.498  35.829   3.426
69836W        W34997  13.634  32.327   0.788
69837W        W34998  12.740   6.885   4.516
69838W        W34999  37.929  32.699  10.660
69839W        W35000  29.981  19.066   0.711
69840W        W35001  20.393  43.938  14.057
69841W        W35002  20.903   0.595   2.944
69842W        W35003   0.209  12.054  10.956
69843W        W35004  40.880  38.005   4.536
69844W        W35005   0.441  31.030   0.178
69845W        W35006  38.413  21.370   0.045
69846W        W35007  21.280  38.910  12.660
69847W        W35008  14.085  15.742  12.985
69848W        W35009  12.900   2.333   0.516
69849W        W35010   6.404  20.273   4.005
69850W        W35011  22.411  17.100  10.627
69851W        W35012   5.414  32.958   1.298
69852W        W35013  28.991  30.067   3.884
69853W        W35014  26.412  35.484   5.386
69854W        W35015  36.467  20.124  11.110
69855W        W35016  43.295  22.737   4.193
69856W        W35017  28.594  29.951  13.353
69857W        W35018  41.157  21.215  11.598
69858W        W35019  15.875  11.253  10.705
69859W        W35020  37.320  32.917   3.955
69860W        W35021  26.162  38.807  12.928
69861W        W35022   6.223  10.142   0.390
69862W        W35023   9.644  42.004   2.402
69863W        W35024  22.709  37.641  13.092
69864W        W35025  25.426  23.266   1.414
69865W        W35026   5.498  24.595  11.903
69866W        W35027  22.557  34.922  10.970
69867W        W35028   0.521  23.706   3.261
69868W        W35029  35.454  14.581  10.741
69869W        W35030  34.152  41.393   4.174
69870W        W35031  26.949  36.918  14.252
69871W        W35032  42.044  41.952   1.234
69872W        W35033  39.908  20.219   2.410
69873W        W35034  41.993   8.687   5.024
69874W        W35035  30.114  17.819   1.791
69875W        W35036   3.413  17.001   4.849
69876W        W35037  29.426   0.355   4.602
69877W        W35038  27.192  15.123  11.127
69878W        W35039  24.617  26.729   1.761
69879W        W35040   3.398  22.993  12.925
69880W        W35041  16.986   4.862  10.273
69881W        W35042  19.095  20.261   1.594
69882W        W35043  31.135   5.801   4.680
69883W        W35044  27.137  24.849   4.530
69884W        W35045  23.786   7.368   4.672
69885W        W35046  42.900   7.806   0.980
69886W        W35047  22.037  34.582   4.182
69887W        W35048  27.027  19.688   3.778
69888W        W35049  39.740  11.765  13.616
69889W        W35050  22.106   9.236   2.147
69890W        W35051  40.862  37.317   3.720
69891W        W35052  28.896   1.211   0.860
69892W        W35053  31.198   4.678   0.752
69893W        W35054  38.392  30.832  14.834
69894W        W35055  34.592  24.624   3.648
69895W        W35056  37.947  43.026  14.651
69896W        W35057  25.972   5.712  10.553
69897W        W35058   4.929   3.019  13.589
69898W        W35059  33.669  44.114  14.314
69899W        W35060  19.805  29.020   0.977
69900W        W35061   7.266  43.434   2.338
69901W        W35062  38.879  19.341   3.193
69902W        W35063  17.072   3.362   1.986
69903W        W35064   2.698  22.916  13.552
69904W        W35065  41.015   3.017  13.029
69905W        W35066  28.059  31.358  12.391
69906W        W35067  24.920  23.665  14.486
69907W        W35068  23.428  18.592  13.097
69908W        W35069  12.390  26.241  11.159
69909W        W35070   9.027  36.114   4.553
69910W        W35071  28.193   0.477  13.946
69911W        W35072  29.936   0.776  13.463
69912W        W35073  39.390  36.549   4.102
69913W        W35074  41.885  43.515  13.958
69914W        W35075   7.804  29.777   3.469
69915W        W35076   1.204  34.433  13.896
69916W        W35077  29.458  25.515   1.835
69917W        W35078  33.617   6.857  12.541
69918W        W35079  18.616  41.503  13.407
69919W        W35080  22.203  37.416  14.953
69920W        W35081  19.197  37.399  12.019
69921W        W35082  22.310   2.448  14.228
69922W        W35083   3.207  12.809  13.586
69923W        W35084  11.603  11.691  14.242
69924W        W35085  19.895   0.383   4.667
69925W        W35086   5.847  24.619   3.722
69926W        W35087   5.557  18.552   0.311
69927W        W35088  25.797  23.633   1.254
69928W        W35089  29.945   3.289  10.824
69929W        W35090  23.669  30.170   1.002
69930W        W35091  33.864   5.853   2.642
69931W        W35092  43.786  14.856   3.682
69932W        W35093   3.306  33.649  12.020
69933W        W35094  28.951   9.445  10.478
69934W        W35095  10.707  15.263   1.404
69935W        W35096  10.560  43.494   1.847
69936W        W35097  38.119  21.004  11.183
69937W        W35098  30.067  32.676  14.898
69938W        W35099  10.151  18.654   1.186
69939W        W35100   4.349   5.507   0.113
69940W        W35101  13.907  30.387  11.565
69941W        W35102  21.872  44.913  12.099
69942W        W35103   9.202   8.177  11.779
69943W        W35104  24.975  15.654  14.858
69944W        W35105   2.020   7.229  11.654
69945W        W35106  40.455  32.352  13.757
69946W        W35107  28.860  23.712   1.739
69947W        W35108  33.799  14.600  14.021
69948W        W35109   4.648  26.602   2.236
69949W        W35110  17.057  30.604   9.804
69950W        W35111  26.292  14.794  11.172
69951W        W35112  18.734  22.220   3.716
69952W        W35113  29.371  42.054  13.494
69953W        W35114  20.131   7.181   1.039
69954W        W35115  36.961   6.747  13.876
69955W        W35116   4.487  40.271   1.687
69956W        W35117  44.510  31.092  11.149
69957W        W35118  35.618   2.926   0.474
69958W        W35119   9.958  32.096   2.164
69959W        W35120  41.477   8.590  11.202
69960W        W35121   9.291  21.191  10.026
69961W        W35122  29.032  13.617  12.133
69962W        W35123  34.329  17.961  13.881
69963W        W35124  20.542   7.243  12.816
69964W        W35125   7.816  30.575   4.656
69965W        W35126  30.590  38.831  14.229
69966W        W35127  40.061   5.675   1.704
69967W        W35128  34.572  35.811   4.499
69968W        W35129   9.876  19.764  11.550
69969W        W35130  39.119   9.544  14.640
69970W        W35131  35.107  19.618   1.207
69971W        W35132  44.971  20.450   3.178
69972W        W35133  30.165  41.443   4.590
69973W        W35134  35.367  11.902   5.120
69974W        W35135  34.749  16.628   2.882
69975W        W35136   5.285  22.271   1.025
69976W        W35137  42.698  43.995  13.501
69977W        W35138   4.320  33.397  11.012
69978W        W35139  20.539  36.589  10.748
69979W        W35140  40.135   0.492  12.813
69980W        W35141  28.160  36.517   4.484
69981W        W35142  28.022  30.542   1.773
69982W        W35143  19.863  39.599  14.330
69983W        W35144  39.323  17.345  12.539
69984W        W35145  37.317  15.791  10.741
69985W        W35146  32.598   9.878   0.814
69986W        W35147   4.216  37.222   3.759
69987W        W35148  26.598  42.775   2.826
69988W        W35149  15.755   5.155   0.286
69989W        W35150   4.034   2.801   2.290
69990W        W35151   1.293   2.333  11.363
69991W        W35152   4.780  30.098  13.730
69992W        W35153  33.600  35.610   4.775
69993W        W35154  24.992  15.379   5.042
69994W        W35155  17.571  43.029   2.700
69995W        W35156   1.841  33.943   4.003
69996W        W35157  23.296   3.794  14.923
69997W        W35158   6.197  16.153  11.133
69998W        W35159  41.636  35.021  13.905
69999W        W35160  24.638   2.536  11.115
70000W        W35161   7.330  31.057  10.609
70001W        W35162  42.892  38.539   9.432
70002W        W35163  14.180  12.859  14.401
70003W        W35164   4.696  16.751   3.665
70004W        W35165  31.710  13.112   0.939
70005W        W35166  12.728   4.673   1.342
70006W        W35167   3.788  27.619   3.189
70007W        W35168   0.294  23.642   0.693
70008W        W35169  15.879  15.236  12.142
70009W        W35170   8.086   0.736   0.488
70010W        W35171   0.649   0.424  11.087
70011W        W35172  31.617  35.127   3.990
70012W        W35173  41.407  36.474  13.977
70013W        W35174   2.957  20.153  13.067
70014W        W35175  36.178  39.388   0.928
70015W        W35176  42.120  23.355  11.991
70016W        W35177   5.697  19.103  10.690
70017W        W35178  30.248  19.089  13.344
70018W        W35179   9.288  17.198   4.036
70019W        W35180  22.076  13.083   2.162
70020W        W35181  43.363  40.979   3.137
70021W        W35182  25.521  43.346   0.481
70022W        W35183  40.781   8.794   0.019
70023W        W35184  40.320  16.288   3.233
70024W        W35185  18.986  22.184  10.888
70025W        W35186  17.435   7.596   3.156
70026W        W35187  28.051  17.728  14.225
70027W        W35188  21.518  31.404  13.139
70028W        W35189  44.039   4.277   4.736
70029W        W35190  14.803  15.291  12.787
70030W        W35191  36.439   2.950  12.042
70031W        W35192  28.780  41.029   4.414
70032W        W35193   4.184  37.532   3.293
70033W        W35194  28.503  41.959  12.187
70034W        W35195  32.459   4.401  14.166
70035W        W35196   2.289  32.017   4.015
70036W        W35197   6.895  34.111   4.040
70037W        W35198   6.236  28.688  14.522
70038W        W35199  27.504  29.997   0.778
70039W        W35200  31.061  42.891   3.172
70040W        W35201  14.412  25.514   4.837
70041W        W35202  14.783  16.948   4.446
70042W        W35203  30.060  18.714  14.654
70043W        W35204  33.334  13.494  12.559
70044W        W35205   7.225  10.858  13.064
70045W        W35206  31.095  30.004  11.653
70046W        W35207  39.457   5.583  14.290
70047W        W35208  43.444  11.836   3.562
70048W        W35209  26.805  15.050   4.597
70049W        W35210  43.972  42.062   3.270
70050W        W35211  43.557  31.062   0.384
70051W        W35212  20.120  22.541  12.766
70052W        W35213  27.402  20.636  10.579
70053W        W35214  25.929  26.780   2.375
70054W        W35215  14.580  31.536  14.311
70055W        W35216  36.070  16.067   0.377
70056W        W35217   4.701  12.763   3.622
70057W        W35218  13.165   0.739  10.727
70058W        W35219  15.221  28.415   1.464
70059W        W35220  36.415  33.725  10.165
70060W        W35221  30.602   0.380  11.044
70061W        W35222  25.485  23.088   5.021
70062W        W35223  22.633  34.544   1.239
70063W        W35224  36.979  36.403  13.416
70064W        W35225   4.434   5.730  10.687
70065W        W35226  43.814  35.160   0.238
70066W        W35227  41.770   3.917  13.143
70067W        W35228  23.260  34.223  10.697
70068W        W35229  39.426   9.824  13.276
70069W        W35230  17.831  16.533   1.045
70070W        W35231  41.436  34.108   1.265
70071W        W35232  34.799  37.982  11.139
70072W        W35233  27.736  27.660  11.542
70073W        W35234  11.590  33.073  11.088
70074W        W35235   2.579  38.205   0.697
70075W        W35236   9.195  15.542   4.591
70076W        W35237  36.096  40.079   2.891
70077W        W35238  36.817  18.268   0.159
70078W        W35239  26.386  27.558   4.087
70079W        W35240  32.832  37.814  12.430
70080W        W35241  12.886   1.933   2.766
70081W        W35242   1.814  26.106  13.037
70082W        W35243  29.345  42.269  11.185
70083W        W35244  31.128  16.394   4.373
70084W        W35245  28.016   9.353  14.478
70085W        W35246   4.889   2.240  12.089
70086W        W35247  30.018  20.002  10.183
70087W        W35248  39.393  18.192  11.286
70088W        W35249  24.942  19.223   4.538
70089W        W35250  24.724  17.740  12.064
70090W        W35251  39.403  27.604  11.580
70091W        W35252  30.208  11.527   1.825
70092W        W35253  32.068  38.009   2.733
70093W        W35254  11.219  30.827  12.769
70094W        W35255  20.673  25.760  12.790
70095W        W35256  29.478  27.127  12.357
70096W        W35257  29.880  21.225   1.244
70097W        W35258  17.494  18.036   3.250
70098W        W35259  14.926  23.643  10.764
70099W        W35260  39.751   6.255  10.637
70100W        W35261  10.322  21.153   4.182
70101W        W35262  37.847  41.313  10.411
70102W        W35263  42.515  24.940  14.937
70103W        W35264  20.880  39.678  12.364
70104W        W35265  34.583  30.015  12.557
70105W        W35266   7.788  38.115  12.930
70106W        W35267  14.204  32.496  13.069
70107W        W35268  10.742  11.662   1.835
70108W        W35269   6.100  23.254  12.797
70109W        W35270  29.520  12.502  13.058
70110W        W35271  20.417  16.359   1.559
70111W        W35272  31.699  43.120  11.519
70112W        W35273   5.972  31.976   4.149
70113W        W35274  15.404  29.588  12.170
70114W        W35275  31.639  43.790  13.502
70115W        W35276  20.451  23.525  12.884
70116W        W35277  34.966   9.164   4.447
70117W        W35278  43.042  16.732   1.928
70118W        W35279  31.169   0.861   2.324
70119W        W35280   5.304  29.231  14.598
70120W        W35281  19.349  27.650   2.921
70121W        W35282   7.364   3.770   3.601
70122W        W35283  39.846  29.547  11.591
70123W        W35284  15.322   9.419  11.534
70124W        W35285  39.575  34.843  12.964
70125W        W35286  39.412  34.087   1.256
70126W        W35287   7.184  43.951   1.889
70127W        W35288  42.531  25.965  12.085
70128W        W35289  13.916  30.000  13.927
70129W        W35290  35.849   2.262   4.089
70130W        W35291  19.469  18.172   1.690
70131W        W35292   2.822  14.691   1.755
70132W        W35293   5.145  16.648   3.411
70133W        W35294   3.418  16.288   5.277
70134W        W35295  39.097  31.863   0.462
70135W        W35296   2.580  21.147   2.555
70136W        W35297  21.944  31.651  12.953
70137W        W35298   3.433  10.062   0.985
70138W        W35299  14.515  40.644   5.641
70139W        W35300  34.054  31.125  10.770
70140W        W35301   2.834  11.646  12.052
70141W        W35302  13.269  17.072  12.522
70142W        W35303  24.835   6.463  14.567
70143W        W35304  14.183  33.506   3.590
70144W        W35305   7.898  29.380   2.686
70145W        W35306  24.001  34.487   3.171
70146W        W35307   4.024   7.660  14.565
70147W        W35308  14.928  43.871   0.544
70148W        W35309  34.073  32.980  13.401
70149W        W35310  31.596  31.275  12.480
70150W        W35311  32.137  10.093  12.510
70151W        W35312  27.928  21.400  12.484
70152W        W35313  39.913  41.614  14.795
70153W        W35314  22.172  33.657   2.627
70154W        W35315  40.328  41.546  11.985
70155W        W35316  17.610  29.732  10.639
70156W        W35317  37.405  44.342   1.698
70157W        W35318  36.954  10.313  11.059
70158W        W35319  16.089  21.757   3.533
70159W        W35320  27.574  15.704   2.707
70160W        W35321   6.967   6.746   2.718
70161W        W35322  14.618  39.849  14.440
70162W        W35323  30.693  10.804  10.349
70163W        W35324  17.842  43.355   1.295
70164W        W35325  40.791  35.411  11.186
70165W        W35326  11.329  42.412   4.376
70166W        W35327  37.887  34.911  13.092
70167W        W35328  30.585  28.706  11.072
70168W        W35329  44.279  27.740   3.189
70169W        W35330  18.761  12.918   0.014
70170W        W35331   8.601  17.193   2.744
70171W        W35332  24.979  17.230  13.865
70172W        W35333  32.096   2.827   1.702
70173W        W35334  27.991  44.585  14.142
70174W        W35335  12.162  23.005   0.338
70175W        W35336  30.370  33.087  10.591
70176W        W35337  33.231  15.529   1.820
70177W        W35338   7.727   5.384  13.507
70178W        W35339  18.192  36.075   2.718
70179W        W35340  40.972  37.964  14.461
70180W        W35341   3.085  42.780   1.405
70181W        W35342  14.067  11.256   3.230
70182W        W35343  22.087  15.235   4.167
70183W        W35344  44.837  44.521   3.187
70184W        W35345  36.909  43.508   0.953
70185W        W35346  22.585  36.388  10.688
70186W        W35347  13.248   3.624   0.871
70187W        W35348  42.941  24.626  14.859
70188W        W35349   8.657  39.272  11.988
70189W        W35350   4.033   3.754  11.406
70190W        W35351  11.234   5.163  13.902
70191W        W35352   2.402   0.358   2.732
70192W        W35353   0.605  43.097   3.846
70193W        W35354   4.333  36.080  13.333
70194W        W35355  42.878   1.765   0.718
70195W        W35356  15.493  18.997   1.257
70196W        W35357   5.771   8.730  12.526
70197W        W35358  42.777  41.575  11.438
70198W        W35359   3.789   6.000   1.829
70199W        W35360   8.961  20.572  11.511
70200W        W35361  18.101  24.188   3.408
70201W        W35362  42.944  42.083  13.920
70202W        W35363  43.444  35.427  13.519
70203W        W35364  12.845  37.996  12.564
70204W        W35365  35.348  23.923   2.790
70205W        W35366  30.842  37.580  13.877
70206W        W35367  30.063  37.427   2.989
70207W        W35368   5.774   1.858   1.138
70208W        W35369  14.962   7.312  14.677
70209W        W35370   1.878  25.722   3.127
70210W        W35371  34.648  33.277  13.062
70211W        W35372  21.701  22.542   0.422
70212W        W35373  42.811  36.554   0.392
70213W        W35374  19.949  18.947   0.920
70214W        W35375  15.504   4.564   4.233
70215W        W35376  27.568  24.701   1.428
70216W        W35377  44.971  16.523   3.426
70217W        W35378  33.161  41.050   0.463
70218W        W35379   6.710  38.874  12.601
70219W        W35380  44.019  37.920  12.020
70220W        W35381  42.747  42.895  13.545
70221W        W35382  27.987   1.994  13.677
70222W        W35383   4.996   8.830  10.295
70223W        W35384   1.882   9.313   0.281
70224W        W35385  31.584  10.608  13.953
70225W        W35386  40.568  14.231   2.401
70226W        W35387  27.535   0.636   4.994
70227W        W35388  13.697  26.687   4.243
70228W        W35389  17.556  35.108  14.903
70229W        W35390  42.697  21.663  14.468
70230W        W35391  32.170  40.356  12.468
70231W        W35392  21.382   5.175   1.304
70232W        W35393  21.228   0.612   5.102
70233W        W35394  20.543  36.024   4.634
70234W        W35395  36.370  22.542  14.821
70235W        W35396   0.813  40.588   3.918
70236W        W35397  39.610  35.313   1.902
70237W        W35398  37.356  13.161   1.896
70238W        W35399   0.767   8.291  12.504
70239W        W35400   1.374  10.358  12.741
70240W        W35401   8.681  18.167   4.646
70241W        W35402  32.296  10.491  12.177
70242W        W35403  39.520  44.019  12.533
70243W        W35404  27.536   4.435   1.312
70244W        W35405   5.458  33.971   4.209
70245W        W35406  10.231  29.605   4.140
70246W        W35407  42.761  39.689  11.165
70247W        W35408  39.830  35.038  13.371
70248W        W35409  13.297   1.737   1.065
70249W        W35410  34.296  24.236   3.759
70250W        W35411   0.727  31.739   9.870
70251W        W35412  41.799   6.629  12.319
70252W        W35413  25.153  27.289   2.986
70253W        W35414  35.072  17.963   0.755
70254W        W35415  16.871  35.062  10.581
70255W        W35416   4.664  15.787   2.296
70256W        W35417  21.297   9.643   2.558
70257W        W35418  19.698   0.980  11.005
70258W        W35419  26.001  16.340   0.505
70259W        W35420   6.461   4.450   4.266
70260W        W35421   0.404  39.601   9.950
70261W        W35422  23.950  35.533   1.731
70262W        W35423   5.161  20.497   1.230
70263W        W35424   6.682  35.753  11.404
70264W        W35425  28.922  18.611  10.726
70265W        W35426   3.291  31.471  10.969
70266W        W35427  38.048  29.152  12.453
70267W        W35428  34.940  32.426   4.410
70268W        W35429  35.415   2.420   1.223
70269W        W35430  30.377   1.300   2.184
70270W        W35431   0.895  13.604   0.924
70271W        W35432  37.521  26.016   2.822
70272W        W35433  27.628  30.555   2.979
70273W        W35434  33.584  15.511  14.015
70274W        W35435  44.932   4.970   0.204
70275W        W35436  29.565  25.769  13.767
70276W        W35437  17.806  21.429   1.399
70277W        W35438   5.160  43.328  13.476
70278W        W35439  16.072   4.445   1.394
70279W        W35440  10.240  33.406   0.941
70280W        W35441  42.215  39.074   1.324
70281W        W35442   0.644  37.757  14.844
70282W        W35443  38.273  41.535   2.624
70283W        W35444  33.512  30.920   3.152
70284W        W35445   7.292  13.649  13.508
70285W        W35446   8.803  12.718   0.276
70286W        W35447  10.616  24.246   1.517
70287W        W35448   3.978  17.083  10.671
70288W        W35449  22.520  40.804  13.513
70289W        W35450  10.225  30.171  14.833
70290W        W35451  14.874  17.470   1.710
70291W        W35452  25.098  34.176  10.583
70292W        W35453  42.282  15.210  10.753
70293W        W35454   6.218  40.085  14.875
70294W        W35455  26.196   2.921  14.833
70295W        W35456   2.481  31.479   1.505
70296W        W35457  21.628  36.347   1.712
70297W        W35458  16.088  20.696   3.720
70298W        W35459  31.696  25.634   4.100
70299W        W35460  13.293   5.704   4.587
70300W        W35461  16.034   0.484   4.764
70301W        W35462  31.212  31.233   0.804
70302W        W35463   0.418  39.927  11.875
70303W        W35464  12.405  42.650  14.591
70304W        W35465   3.323  39.364  10.759
70305W        W35466  38.320  10.399  12.873
70306W        W35467  23.712  27.405   0.797
70307W        W35468  35.954   2.408  13.892
70308W        W35469  21.547  18.178  11.588
70309W        W35470  41.093  26.068  14.502
70310W        W35471  27.216  14.170   1.931
70311W        W35472  41.407  10.638  12.021
70312W        W35473  10.173  37.781  12.961
70313W        W35474   4.001   0.933   0.886
70314W        W35475  27.113  21.689  13.438
70315W        W35476  16.186  39.239   2.712
70316W        W35477  10.850  38.792  12.489
70317W        W35478  30.324  24.424   1.096
70318W        W35479  30.030  21.768   2.757
70319W        W35480  25.679   0.868  12.539
70320W        W35481  27.117   8.871  11.984
70321W        W35482  27.350  33.804  13.025
70322W        W35483   3.740   4.264  12.159
70323W        W35484  42.457   8.715   0.707
70324W        W35485  22.546  20.100   2.788
70325W        W35486  42.943  19.714  13.859
70326W        W35487  18.546  20.803  13.916
70327W        W35488   6.012  33.065  13.436
70328W        W35489   3.241   3.562   3.758
70329W        W35490   7.860  35.948   0.461
70330W        W35491  40.013  20.514   2.827
70331W        W35492  40.470  37.524  12.460
70332W        W35493  36.799  22.646   4.472
70333W        W35494  28.931  28.086  12.433
70334W        W35495  41.002  17.301   0.024
70335W        W35496  29.979   1.995   4.311
70336W        W35497  21.323   6.078  11.617
70337W        W35498   8.130  20.795   4.508
70338W        W35499  33.908   8.332  13.015
70339W        W35500  43.314  13.113   5.023
70340W        W35501   7.496   3.934  14.350
70341W        W35502  31.684  21.109  10.735
70342W        W35503  14.588   0.800  12.457
70343W        W35504  20.909  28.552   1.753
70344W        W35505  13.841  10.252  11.211
70345W        W35506  43.788  31.019  10.301
70346W        W35507  27.447  38.990   2.237
70347W        W35508   2.252  22.572   1.759
70348W        W35509  25.717  25.798  12.914
70349W        W35510  39.508  10.749  13.318
70350W        W35511  19.574  16.599  11.571
70351W        W35512  17.609  16.813  12.229
70352W        W35513   0.236  27.955  12.957
70353W        W35514   6.044  31.700   1.907
70354W        W35515  25.683  22.789   0.311
70355W        W35516  26.661  16.676   3.249
70356W        W35517  43.209   4.221  14.307
70357W        W35518  41.755  22.729   1.805
70358W        W35519  20.601  36.916  11.571
70359W        W35520  24.999  10.394  10.585
70360W        W35521  21.603  27.968   3.502
70361W        W35522  18.126  20.549   4.394
70362W        W35523  20.306   7.003  14.006
70363W        W35524  24.145   4.908  14.352
70364W        W35525  25.459  14.408  14.957
70365W        W35526  24.592  31.765   2.963
70366W        W35527  26.432  25.963   4.373
70367W        W35528  10.142   2.255  13.080
70368W        W35529   8.133  29.050  13.267
70369W        W35530  22.631  19.581  12.971
70370W        W35531   0.408  20.468   4.923
70371W        W35532  16.539   0.674   2.549
70372W        W35533  23.518  18.581   0.811
70373W        W35534  16.894  12.343  10.753
70374W        W35535  37.847   5.010   1.530
70375W        W35536  41.098  34.401   2.267
70376W        W35537   6.420  41.044  11.100
70377W        W35538   4.453  38.589   1.243
70378W        W35539  24.556  33.439  10.615
70379W        W35540  29.965   6.829  10.776
70380W        W35541  22.240   5.457  10.598
70381W        W35542  40.303  16.824   1.327
70382W        W35543  32.305  23.231   3.297
70383W        W35544  30.119   3.751  10.720
70384W        W35545  11.318  42.947   3.129
70385W        W35546   4.345   6.350   4.159
70386W        W35547  42.359  27.965   1.347
70387W        W35548   1.820  23.972  13.384
70388W        W35549  33.466  42.466  10.827
70389W        W35550  26.658  35.847   3.276
70390W        W35551  22.527   8.646   0.970
70391W        W35552  31.681  35.794  12.473
70392W        W35553  27.123  23.887  12.825
70393W        W35554  38.620  20.448   2.304
70394W        W35555  24.572  37.007  12.031
70395W        W35556  23.637  43.888  11.622
70396W        W35557  15.105   7.661  12.875
70397W        W35558   8.082  25.798   9.967
70398W        W35559   2.186  27.441  12.539
70399W        W35560  32.978  10.785   1.928
70400W        W35561  28.682  32.403  12.101
70401W        W35562   5.310  43.078   1.013
70402W        W35563  27.091  30.684   0.683
70403W        W35564  41.028  18.565   5.057
70404W        W35565  21.521  18.726   4.095
70405W        W35566  32.966  35.549   2.252
70406W        W35567  30.715  18.388   3.696
70407W        W35568  23.087  36.386  11.926
70408W        W35569   6.322   2.493   3.565
70409W        W35570  14.332  25.121   0.059
70410W        W35571  35.407  21.143  13.519
70411W        W35572  29.516  41.498  11.635
70412W        W35573   1.091  31.382  10.211
70413W        W35574  15.507  23.921  13.214
70414W        W35575   5.468  17.282   0.703
70415W        W35576  34.600  27.956   2.160
70416W        W35577  41.073  25.287  13.798
70417W        W35578  32.000   3.874  13.732
70418W        W35579  12.085  11.447   1.239
70419W        W35580  44.482  25.769   2.201
70420W        W35581  40.753  26.436  14.718
70421W        W35582   0.314  18.214   4.140
70422W        W35583  30.164   9.759   3.639
70423W        W35584  18.830  20.058   4.615
70424W        W35585  27.955   4.549  14.520
70425W        W35586  26.181   3.120  12.122
70426W        W35587  34.330  22.611   1.357
70427W        W35588  31.337  31.726   0.963
70428W        W35589   6.610  13.795   1.234
70429W        W35590  21.003   7.311   1.950
70430W        W35591  31.350  23.947  12.506
70431W        W35592  21.722  33.287  10.380
70432W        W35593  43.998  25.604   3.027
70433W        W35594   3.655  36.392   4.212
70434W        W35595  24.303  26.023  14.968
70435W        W35596  40.990  28.491   3.084
70436W        W35597  18.280  27.920   3.302
70437W        W35598   5.881  16.969  14.381
70438W        W35599  34.614  33.817  14.913
70439W        W35600   7.573  33.158  11.114
70440W        W35601  23.033  38.507   4.284
70441W        W35602  14.639  34.461  13.031
70442W        W35603  31.738  44.505  11.959
70443W        W35604  40.748  42.820  11.906
70444W        W35605  37.627  14.628   1.766
70445W        W35606  18.080  13.648  14.872
70446W        W35607  14.650  36.071  14.309
70447W        W35608  33.088  30.886   1.986
70448W        W35609   8.913   7.472  14.487
70449W        W35610  29.520  19.469  14.854
70450W        W35611  17.222  18.165  14.498
70451W        W35612   7.946  16.688  13.064
70452W        W35613  37.735   0.494  13.220
70453W        W35614  31.256  26.109  10.292
70454W        W35615  34.875  32.020  10.225
70455W        W35616  25.508   5.196   0.308
70456W        W35617  17.208  37.076  10.227
70457W        W35618   0.761   1.941   1.799
70458W        W35619  34.945  13.725   3.271
70459W        W35620  30.435  41.937   2.367
70460W        W35621  29.187  44.712  10.952
70461W        W35622  10.219  43.493   2.249
70462W        W35623  34.509  31.311  14.673
70463W        W35624  32.858  13.338  12.622
70464W        W35625  43.949  36.323  13.584
70465W        W35626   3.003  18.269   1.241
70466W        W35627  44.281  34.979  12.862
70467W        W35628  12.236  21.970   0.307
70468W        W35629   2.840  34.483  10.302
70469W        W35630   7.708  34.082  12.593
70470W        W35631  34.452   8.634   0.576
70471W        W35632  26.611  30.613   2.369
70472W        W35633  39.861  18.288   2.207
70473W        W35634  18.116  42.241  13.792
70474W        W35635  12.228  43.707  11.985
70475W        W35636  24.399  37.403   3.652
70476W        W35637  10.837  30.641   2.965
70477W        W35638  16.141  33.395   1.109
70478W        W35639  20.376  36.103  11.974
70479W        W35640  43.450  44.013   2.634
70480W        W35641   5.698   7.022  11.911
70481W        W35642  13.687  11.037  11.599
70482W        W35643  44.337  21.731  12.109
70483W        W35644   5.903   7.468  11.536
70484W        W35645  14.902  37.549   2.155
70485W        W35646  42.164  32.048  10.693
70486W        W35647   5.202  12.727   2.688
70487W        W35648   5.731   2.287   0.357
70488W        W35649  10.627  36.537   0.772
70489W        W35650  42.267  29.506  14.753
70490W        W35651  36.387  32.614   4.539
70491W        W35652  39.845  22.201   4.071
70492W        W35653  35.693  16.326   2.867
70493W        W35654   3.716  24.558   2.249
70494W        W35655  22.624  30.541   2.115
70495W        W35656  17.797   8.924   1.844
70496W        W35657  26.520  30.361   3.677
70497W        W35658   9.861  14.819   4.585
70498W        W35659  20.178   8.463   1.884
70499W        W35660  34.849  12.755  13.976
70500W        W35661  20.152   3.745  11.530
70501W        W35662  16.590  11.725   4.160
70502W        W35663  37.988  15.877  13.901
70503W        W35664   1.802  13.865   2.423
70504W        W35665  27.032  27.952  13.848
70505W        W35666  28.203  32.835   1.207
70506W        W35667  13.085  21.036   4.129
70507W        W35668  31.997  28.117  11.315
70508W        W35669  44.457  11.659   2.792
70509W        W35670  13.406   2.897  12.872
70510W        W35671   1.860  34.420   0.732
70511W        W35672  42.912  24.188   0.427
70512W        W35673   7.641  12.400  11.344
70513W        W35674  31.477  22.977  13.490
70514W        W35675  17.067  37.643   4.599
70515W        W35676  43.256  35.520   0.738
70516W        W35677   4.204  41.523   4.113
70517W        W35678   7.465   7.950   1.356
70518W        W35679  37.351  39.510  10.277
70519W        W35680  44.745  14.873  14.360
70520W        W35681  22.487  25.522  10.489
70521W        W35682  40.034   7.430   1.903
70522W        W35683  21.513  10.767   1.519
70523W        W35684  41.793  18.823  14.008
70524W        W35685  27.124  15.503  13.002
70525W        W35686  26.217  20.547   4.423
70526W        W35687  15.109   1.676   3.242
70527W        W35688  12.250  41.184  12.977
70528ION    NA+35689   7.145   0.863   0.500
70529ION    NA+35690  10.181  11.333  14.801
70530ION    NA+35691  35.517  24.603   0.069
70531ION    NA+35692  20.717   2.002   0.636
70532ION    NA+35693  14.510  39.444   4.799
70533ION    NA+35694   0.443   8.535   0.078
70534ION    NA+35695  17.743  11.238  14.839
70535ION    NA+35696  43.864   6.100  14.495
70536ION    NA+35697  26.026  25.992  11.051
70537ION    NA+35698  40.309   2.067  12.547
70538ION    NA+35699   7.709  33.305   3.582
70539ION    NA+35700  33.160   5.241   1.809
70540ION    NA+35701  34.909  22.698  10.956
70541ION    NA+35702  41.909  44.556  13.794
70542ION    NA+35703  31.074  39.455   1.739
70543ION    NA+35704  31.474  28.912  13.340
70544ION    NA+35705  13.782  32.594   4.130
70545ION    NA+35706  37.631  11.787   2.236
70546ION    NA+35707  23.313   2.904  13.965
70547ION    NA+35708  27.229   7.249   3.534
70548ION    NA+35709   5.195  11.065   9.866
70549ION    NA+35710   7.043  22.574  11.180
70550ION    NA+35711  20.168  23.449  14.450
70551ION    NA+35712   9.781  44.963   0.059
70552ION    NA+35713  19.003  28.630   1.996
70553ION    NA+35714  39.936   4.189   4.438
70554ION    NA+35715  35.677  11.711  11.692
70555ION    NA+35716  30.885  18.119  14.161
70556ION    NA+35717  11.626   5.906  13.341
70557ION    NA+35718  30.763  27.046  10.742
70558ION    NA+35719  19.983  26.640  13.910
70559ION    NA+35720  30.557  13.797   1.168
70560ION    NA+35721  11.360  10.683   2.565
70561ION    NA+35722  38.015  21.194   4.414
70562ION    NA+35723  34.400  18.993  11.283
70563ION    NA+35724  19.198  29.529   1.838
70564ION    NA+35725  33.139  39.191  13.148
70565ION    NA+35726  39.565  32.623   0.464
70566ION    NA+35727  41.674   2.290  12.676
70567ION    NA+35728  35.284  28.435  12.671
70568ION    NA+35729  18.804  24.701   3.436
70569ION    NA+35730   8.057  38.890   3.222
70570ION    NA+35731   3.135  41.506   5.027
70571ION    NA+35732  14.843  13.951   4.540
70572ION    NA+35733  28.465   7.785   3.666
70573ION    NA+35734  14.148   1.767   3.071
70574ION    NA+35735  21.595   7.862  14.507
70575ION    NA+35736  24.117   2.748  12.666
70576ION    NA+35737  37.281   9.378  14.934
70577ION    NA+35738  40.977  27.284   4.192
70578ION    NA+35739  38.304  37.302  11.512
70579ION    NA+35740  36.137  36.375   2.822
70580ION    NA+35741  18.946  24.806  11.112
70581ION    NA+35742   1.605  10.744  13.893
70582ION    NA+35743  14.151  36.935  12.065
70583ION    NA+35744  41.080  22.172  12.555
70584ION    NA+35745   4.622   8.210  13.566
70585ION    NA+35746  19.011  38.433  11.612
70586ION    NA+35747  40.268  40.516   3.638
70587ION    NA+35748  24.687  24.650  11.172
70588ION    NA+35749  18.420  35.663   1.768
70589ION    NA+35750  20.770   2.854  13.069
70590ION    NA+35751   1.036  42.542  10.861
70591ION    NA+35752  37.913   0.878  13.933
70592ION    NA+35753  14.207  43.987  13.790
70593ION    NA+35754  36.372  32.610   2.786
70594ION    NA+35755  26.791  27.735  11.558
70595ION    NA+35756  39.321   4.524  14.781
70596ION    NA+35757  29.462  22.964  14.256
70597ION    NA+35758  17.206   8.868  11.485
70598ION    NA+35759  37.284  37.431  14.231
70599ION    NA+35760  16.408   5.407   3.677
70600ION    NA+35761   2.987  22.555   1.297
70601ION    NA+35762  40.267  10.400  10.792
70602ION    NA+35763  18.591  21.464   0.162
70603ION    NA+35764  24.826  40.468  12.725
70604ION    NA+35765  17.555  41.998  12.678
70605ION    NA+35766  44.255  18.484   0.257
70606ION    NA+35767  42.303   3.779  11.076
70607ION    NA+35768  26.973  15.988  13.070
70608ION    NA+35769  33.125  12.360  11.132
70609ION    NA+35770  39.046  29.347  11.175
70610ION    NA+35771  17.718  36.868  13.289
70611ION    NA+35772   2.499  27.815   5.391
70612ION    NA+35773  36.461  41.493  14.540
70613ION    NA+35774   3.954   6.291   4.938
70614ION    NA+35775  36.926  40.380  11.133
70615ION    NA+35776  44.795   7.715   2.789
70616ION    NA+35777   6.165  15.135  11.974
70617ION    NA+35778  19.135  34.082  14.477
70618ION    NA+35779  41.865  29.512   2.646
70619ION    NA+35780  22.726  39.198   2.602
70620ION    NA+35781   9.720  29.542  10.007
70621ION    NA+35782  15.238  10.625   3.791
70622ION    NA+35783  18.850  28.370  13.381
70623ION    NA+35784   3.772  13.032   1.885
70624ION    NA+35785  35.515  40.070   3.796
70625ION    NA+35786  43.900  34.048   1.942
70626ION    NA+35787   8.179   4.536  10.701
70627ION    NA+35788  28.796  12.558   2.171
70628ION    NA+35789   2.870   0.341   3.655
70629ION    NA+35790   8.871  25.679   2.325
70630ION    NA+35791  28.516  23.762   2.241
70631ION    NA+35792  44.740  34.273   3.061
70632ION    NA+35793  22.701   1.372   4.149
70633ION    NA+35794  23.493  42.570  12.088
70634ION    NA+35795  14.849  17.744  14.678
70635ION    NA+35796  27.264  27.674   3.160
70636ION    NA+35797  39.981  13.629   0.494
70637ION    NA+35798  41.945  26.574  11.715
70638ION    NA+35799  33.002  14.828  12.590
70639ION    NA+35800  19.625  22.443  12.031
70640ION    NA+35801  25.947   9.883  13.989
70641ION    NA+35802   5.660  38.334   1.906
70642ION    NA+35803  32.078  16.567  13.813
70643ION    NA+35804  13.938  17.659   2.200
70644ION    NA+35805  44.522   0.491   0.821
70645ION    NA+35806   5.995  12.130  13.319
70646ION    NA+35807  15.128  30.401  13.078
70647ION    NA+35808  26.968   0.975  14.400
70648ION    NA+35809  24.068  15.371   0.955
70649ION    NA+35810  41.460  33.623   3.345
70650ION    NA+35811  32.190  36.965   3.917
70651ION    NA+35812   4.650   0.858  10.489
70652ION    NA+35813  38.046  42.966   3.694
70653ION    NA+35814   9.605  30.210   2.291
70654ION    NA+35815   2.238  34.957   2.924
70655ION    NA+35816  20.050   5.435  12.961
70656ION    NA+35817  13.371  18.110  11.533
70657ION    NA+35818  12.894  42.804  12.571
70658ION    NA+35819  41.002  23.159  14.390
70659ION    NA+35820   4.284  13.639  14.292
70660ION    NA+35821  11.331  25.746  12.041
70661ION    NA+35822  12.392   7.192   4.294
70662ION    NA+35823  40.204   3.402   4.719
70663ION    NA+35824  31.590   1.769   3.641
70664ION    NA+35825  39.025  40.390  12.220
70665ION    NA+35826  18.585  13.062  14.164
70666ION    NA+35827   1.540  27.205  14.398
70667ION    NA+35828   4.886  22.203  14.639
70668ION    NA+35829  16.910   4.435  12.796
70669ION    NA+35830   8.647  31.351  11.718
70670ION    NA+35831  19.566  41.994  14.421
70671ION    NA+35832  38.340  37.010   2.013
70672ION    NA+35833  25.253  14.553   2.727
70673ION    NA+35834  29.065  40.376  13.531
70674ION    NA+35835  18.474  42.374  12.556
70675ION    NA+35836  40.374  34.656   1.347
70676ION    NA+35837   0.489  30.219   1.470
70677ION    NA+35838  20.731  10.327  14.452
70678ION    NA+35839   0.740  27.739  11.202
70679ION    NA+35840  39.081  39.815  10.637
70680ION    NA+35841  28.141  20.541  12.915
70681ION    NA+35842  27.568  37.759   0.988
70682ION    NA+35843  27.188  15.689   4.523
70683ION    NA+35844  21.146  27.449   0.872
70684ION    NA+35845  34.176  31.332   0.428
70685ION    NA+35846   0.195  38.858   1.239
70686ION    NA+35847  21.515  25.722   0.288
70687ION    NA+35848  39.443  40.582   4.747
70688ION    NA+35849  27.041  39.443  11.689
70689ION    NA+35850  19.507  33.692  11.667
70690ION    NA+35851  33.200   1.947  10.905
70691ION    NA+35852  40.138  22.640  13.498
70692ION    NA+35853  23.048  29.313  11.002
70693ION    NA+35854  10.975  27.827   2.855
70694ION    NA+35855  33.419  17.568   0.684
70695ION    NA+35856  30.663   9.381   4.393
70696ION    NA+35857  31.573  10.781   4.872
70697ION    NA+35858  15.634   0.420  12.134
70698ION    NA+35859  25.632  19.251   0.299
70699ION    NA+35860   0.181  38.885   3.450
70700ION    NA+35861  14.748  17.097   2.033
70701ION    NA+35862  23.177   8.460   3.820
70702ION    NA+35863   9.752  39.718   2.126
70703ION    NA+35864  14.416  23.176  14.865
70704ION    NA+35865   5.238  42.721   0.634
70705ION    NA+35866  34.477  17.385   1.343
70706ION    NA+35867  28.430  13.218   3.643
70707ION    NA+35868  26.580  27.620   3.618
70708ION    NA+35869  11.249   7.361  12.143
70709ION    NA+35870  20.483  40.777  11.052
70710ION    NA+35871   4.909  15.250   4.125
70711ION    NA+35872  44.282  21.259  13.038
70712ION    NA+35873  32.882  35.331  12.157
70713ION    NA+35874  15.065  22.450   0.156
70714ION    NA+35875  12.004   8.442   0.485
70715ION    NA+35876  40.180  27.094   0.305
70716ION    NA+35877  21.892   5.676   3.231
70717ION    NA+35878  18.962  43.275  14.540
70718ION    NA+35879  17.776  35.493  10.673
70719ION    NA+35880  28.656  37.466  12.073
70720ION    NA+35881  43.870  30.599  13.851
70721ION    NA+35882   2.569  11.873  10.320
70722ION    NA+35883  25.504  36.693   3.349
70723ION    NA+35884  37.058  19.339   2.402
70724ION    NA+35885  15.052  27.154  12.195
70725ION    NA+35886   9.512  22.609  10.421
70726ION    NA+35887   2.949  35.126  14.418
70727ION    NA+35888  25.016  13.537   3.804
70728ION    NA+35889  10.939  28.538  14.870
70729ION    NA+35890   2.873  28.556  11.360
70730ION    NA+35891   5.515  38.724  14.704
70731ION    NA+35892  35.289  35.481  12.491
70732ION    NA+35893   7.993  13.667  14.066
70733ION    NA+35894  28.178  22.312   3.630
70734ION    NA+35895  31.120   9.605  11.959
70735ION    NA+35896  20.830   0.145   3.205
70736ION    NA+35897  22.631  24.282   4.002
70737ION    NA+35898  39.161  12.986   4.756
70738ION    NA+35899  34.858  17.299   0.267
70739ION    NA+35900  44.330   2.343   2.484
70740ION    NA+35901  23.016  34.080  13.991
70741ION    NA+35902  32.586  24.647   2.362
70742ION    NA+35903  44.791   4.912  14.706
70743ION    NA+35904  40.242  18.522  13.092
70744ION    NA+35905  42.966  22.310   1.863
70745ION    NA+35906  32.901  35.996   2.001
70746ION    NA+35907   7.074   0.273   3.597
70747ION    NA+35908  39.419  14.150   1.763
70748ION    NA+35909  21.998  32.782   1.333
70749ION    NA+35910   2.224  19.679   0.738
70750ION    NA+35911  31.085   3.382   3.765
70751ION    NA+35912   8.867  39.308   3.635
70752ION    NA+35913   1.886   1.993   0.182
70753ION    NA+35914  11.594  15.374   4.620
70754ION    NA+35915   7.979  23.926   0.051
70755ION    NA+35916   5.821  38.061   3.837
70756ION    NA+35917  39.971   9.075  10.234
70757ION    NA+35918  15.756  37.867   1.928
70758ION    NA+35919   4.861  18.510  12.058
70759ION    NA+35920  39.268  24.408  13.523
70760ION    NA+35921  37.730   1.992  11.527
70761ION    NA+35922  17.642  21.370  14.496
70762ION    NA+35923  17.301  14.112   2.868
70763ION    NA+35924   2.275  38.713   3.142
70764ION    NA+35925   1.238  44.503  14.993
70765ION    NA+35926   1.679  24.338  11.339
70766ION    NA+35927   3.643   3.035   1.370
70767ION    NA+35928  44.776   3.973   0.362
70768ION    NA+35929  22.044   9.620   3.123
70769ION    NA+35930  20.840  28.010   2.302
70770ION    NA+35931  42.571  37.572  11.615
70771ION    NA+35932  31.978  31.046  11.950
70772ION    NA+35933  20.849  39.016  12.383
70773ION    NA+35934   1.830  18.915   3.048
70774ION    NA+35935   5.995  36.725  10.818
70775ION    NA+35936  43.925  42.720   4.037
70776ION    NA+35937  16.704  19.756  14.859
70777ION    NA+35938   1.190   0.569   2.691
70778ION    NA+35939  43.869   3.634   0.630
70779ION    NA+35940  19.091  35.376   4.570
70780ION    NA+35941   7.289  37.594   4.882
70781ION    NA+35942  42.808  20.449   0.475
70782ION    NA+35943  30.523  12.254   4.336
70783ION    NA+35944  36.423  33.605   3.347
70784ION    NA+35945   8.083   1.926  13.449
70785ION    NA+35946  27.817  44.057   0.430
70786ION    NA+35947   4.931   0.970  13.804
70787ION    NA+35948  29.270   8.962   2.154
70788ION    NA+35949   4.799  28.227  11.615
70789ION    NA+35950  29.661  12.105  10.727
70790ION    NA+35951  25.967  42.864   1.676
70791ION    NA+35952  20.535  20.989  11.962
70792ION    NA+35953   5.988  41.290  12.924
70793ION    NA+35954  25.630  11.885  14.953
70794ION    NA+35955  19.094  19.443  14.846
70795ION    NA+35956  33.920   1.283   1.987
70796ION    NA+35957  20.731  38.922  14.392
70797ION    NA+35958  43.393  24.296  14.755
70798ION    NA+35959   0.326  29.298  13.437
70799ION    NA+35960  17.444  22.455  12.600
70800ION    NA+35961   0.577  40.965  14.757
70801ION    NA+35962  14.514   7.961   4.542
70802ION    NA+35963   9.299  34.926   4.527
70803ION    NA+35964  34.430  22.585   5.493
70804ION    NA+35965  21.656  14.769  11.285
70805ION    NA+35966  35.398  34.913  14.889
70806ION    NA+35967  12.432   9.357  11.962
70807ION    NA+35968   1.540  27.459  13.605
70808ION    NA+35969  15.138  28.253   5.022
70809ION    NA+35970   5.931  33.065   2.203
70810ION    NA+35971  26.680  24.158  12.798
70811ION    NA+35972  10.152  15.896   2.414
70812ION    NA+35973  17.805  33.667  11.317
70813ION    NA+35974  39.600  11.323   0.384
70814ION    NA+35975  41.032  27.437   0.700
70815ION    NA+35976   0.872   1.898   0.312
70816ION    NA+35977  12.974  37.135   0.772
70817ION    NA+35978   9.157   7.251   0.844
70818ION    NA+35979   5.182  30.890  13.106
70819ION    NA+35980   0.530  40.787   1.825
70820ION    NA+35981  37.026  27.952   1.373
70821ION    NA+35982  13.738  37.692  10.842
70822ION    NA+35983  30.922  16.078  14.409
70823ION    NA+35984   7.763   2.994   0.260
70824ION    NA+35985   2.749  20.644  13.006
70825ION    NA+35986  14.065  11.774   3.186
70826ION    NA+35987   0.620  33.048   4.692
70827ION    NA+35988  19.222  10.707   3.059
70828ION    NA+35989   8.654  31.159   0.412
70829ION    NA+35990  44.297   5.262  13.111
70830ION    NA+35991  30.367  39.712  11.709
70831ION    NA+35992  42.102  17.669   3.374
70832ION    NA+35993  27.688  43.386  14.700
70833ION    NA+35994  39.491  34.662   4.204
70834ION    NA+35995  36.660  21.140  13.631
70835ION    NA+35996  18.709  37.082   2.495
70836ION    NA+35997  35.672  20.506   0.969
70837ION    NA+35998   9.403   0.591  14.321
70838ION    NA+35999  42.189  19.029   4.551
70839ION    NA+36000  41.006  40.037   1.236
70840ION    NA+36001  41.600  41.798  11.708
70841ION    NA+36002  35.733  27.737  12.502
70842ION    NA+36003  24.172   5.147   2.103
70843ION    NA+36004  38.245  18.730   0.854
70844ION    NA+36005   6.340  11.664  14.323
70845ION    NA+36006  37.529  19.937   3.328
70846ION    NA+36007  22.086   8.220   4.780
70847ION    NA+36008  26.141  16.299   4.389
70848ION    NA+36009   6.451   7.029  12.558
70849ION    NA+36010  37.030  41.947  11.605
70850ION    NA+36011  13.041  42.230   9.446
70851ION    NA+36012  15.017  40.495  13.290
70852ION    NA+36013  24.167  18.568  11.842
70853ION    NA+36014  10.521  32.272  12.165
70854ION    NA+36015  22.174   8.078   2.919
70855ION    NA+36016  41.423   1.773   1.510
70856ION    NA+36017  15.560  15.078  10.553
70857ION    NA+36018  28.709  10.234   4.279
70858ION    NA+36019   1.912   8.423   3.263
70859ION    NA+36020  19.301  40.101  12.773
70860ION    NA+36021   2.522   8.874   4.025
70861ION    NA+36022  28.527  17.573   2.860
70862ION    NA+36023  21.934   0.325  14.246
70863ION    NA+36024   6.041  32.421  11.584
70864ION    NA+36025  33.501  10.684   2.708
70865ION    NA+36026  32.837  29.587   0.594
70866ION    NA+36027  11.350  34.080   4.538
70867ION    NA+36028  35.300   8.777   0.805
70868ION    NA+36029  11.897  30.150   1.761
70869ION    NA+36030  15.383  40.142   2.137
70870ION    NA+36031  29.931  31.838  10.914
70871ION    NA+36032   8.633  14.190   3.644
70872ION    NA+36033  23.979  26.603   4.644
70873ION    NA+36034   7.652  39.354   0.929
70874ION    NA+36035  32.182  14.527   3.280
70875ION    NA+36036  42.570  16.191  12.523
70876ION    NA+36037  19.400  40.049   5.519
70877ION    NA+36038  20.293  34.031   3.116
70878ION    NA+36039  37.537  18.035   3.612
70879ION    NA+36040  43.834   3.720   2.072
70880ION    NA+36041  23.034  34.845   1.775
70881ION    NA+36042  10.158  14.569  11.600
70882ION    NA+36043  44.386   9.477   1.344
70883ION    NA+36044  34.217  38.108  11.138
70884ION    NA+36045  29.666   3.612   0.857
70885ION    NA+36046   5.378  26.901  13.036
70886ION    NA+36047  27.224  27.137  12.233
70887ION    NA+36048  21.886   5.708  12.297
70888ION    NA+36049  10.617   3.462   3.229
70889ION    NA+36050  10.292  26.341   1.904
70890ION    NA+36051  14.587  34.256   4.176
70891ION    NA+36052  22.935   7.801  13.779
70892ION    NA+36053  16.037  29.367   1.247
70893ION    NA+36054  25.270  16.006  10.713
70894ION    NA+36055  30.587   4.142   0.736
70895ION    NA+36056  35.681  31.569   1.743
70896ION    NA+36057   7.762  10.758   3.181
70897ION    NA+36058   0.410  30.665   4.786
70898ION    NA+36059  41.936  21.000  11.230
70899ION    NA+36060   1.491  21.618  12.871
70900ION    NA+36061  24.583  13.529   0.432
70901ION    NA+36062  43.777  17.918  13.203
70902ION    NA+36063  16.697   4.177   1.698
70903ION    NA+36064  15.894  35.185   4.267
70904ION    NA+36065   8.439  24.911   1.851
70905ION    NA+36066  12.325  28.987  11.687
70906ION    NA+36067  24.091  33.614   0.894
70907ION    NA+36068  26.403  35.325  13.931
70908ION    NA+36069  25.580  38.656   1.930
70909ION    NA+36070  41.271  23.118   0.255
70910ION    NA+36071  10.663   5.634   4.648
70911ION    NA+36072  14.284   2.884  13.345
70912ION    NA+36073   7.881   8.047  11.242
70913ION    NA+36074   3.435  24.637   0.436
70914ION    NA+36075  33.988   4.706   2.377
70915ION    NA+36076  17.370  32.897   1.838
70916ION    NA+36077  32.740  29.509   4.450
70917ION    NA+36078  11.786  24.113  10.947
70918ION    NA+36079  24.541  24.422   0.364
70919ION    NA+36080  15.541   5.235  14.809
70920ION    NA+36081  40.005   9.158  11.235
70921ION    NA+36082  37.141  42.821  11.133
70922ION    NA+36083  27.191  29.998   4.655
70923ION    NA+36084  13.496  13.232  13.933
70924ION    NA+36085  29.828  22.816   0.711
70925ION    NA+36086  39.735  39.503   1.790
70926ION    NA+36087  37.163   0.107  10.936
70927ION    NA+36088  38.742  19.412   1.391
70928ION    NA+36089  43.621   2.761   1.468
70929ION    NA+36090  32.931   8.210   3.708
70930ION    NA+36091   9.222   0.011   4.084
70931ION    NA+36092  30.910   5.810   0.461
70932ION    NA+36093  23.912   3.429   1.216
70933ION    NA+36094  40.526  25.140   4.968
70934ION    NA+36095  20.047  27.892   4.073
70935ION    NA+36096  24.188   6.744   2.782
70936ION    NA+36097  20.286   8.849  12.647
70937ION    NA+36098  40.656  29.557  13.881
70938ION    NA+36099  27.151  42.453   2.145
70939ION    NA+36100  44.091   8.577  14.863
70940ION    NA+36101  16.781  32.073   3.180
70941ION    NA+36102  36.967   3.491  14.370
70942ION    NA+36103  25.665  33.692   0.965
70943ION    NA+36104   3.724   7.424  14.918
70944ION    NA+36105  13.992  40.614  13.537
70945ION    NA+36106  42.488  39.622  13.350
70946ION    NA+36107  32.741  31.629   1.804
70947ION    NA+36108  31.399  29.314   1.705
70948ION    NA+36109   5.469   4.487  13.297
70949ION    NA+36110  18.646  41.898   3.075
70950ION    NA+36111  13.079  33.363   4.540
70951ION    NA+36112  42.312  25.157  14.204
70952ION    NA+36113  37.485  42.303   2.614
70953ION    NA+36114  28.808  36.271   3.261
70954ION    NA+36115  38.551  36.174   2.003
70955ION    NA+36116  15.356   9.725   0.468
70956ION    NA+36117  42.578  42.454  12.343
70957ION    NA+36118   0.901  29.924  14.411
70958ION    NA+36119  22.575  34.951  13.772
70959ION    NA+36120  38.497  12.614   2.719
70960ION    NA+36121  19.971   1.761   1.001
70961ION    NA+36122  30.580   2.442   2.700
70962ION    NA+36123  41.060   3.899   2.698
70963ION    NA+36124  18.726  14.530   2.880
70964ION    NA+36125  33.920  19.292  14.510
70965ION    NA+36126  32.848   5.197  13.811
70966ION    NA+36127  43.419  17.775   4.985
70967ION    NA+36128   5.062   5.197   0.837
70968ION    NA+36129   4.316  43.957   0.188
70969ION    NA+36130  31.276   3.305   1.654
70970ION    NA+36131  27.256  27.165   3.792
70971ION    NA+36132  28.756  32.753   4.776
70972ION    NA+36133  26.293  32.822   0.296
70973ION    NA+36134  43.098  28.002   9.873
70974ION    NA+36135  24.998  10.482   1.722
70975ION    NA+36136  42.880  13.692  10.800
70976ION    NA+36137  43.841  31.353   2.314
70977ION    NA+36138  41.001  18.803  12.422
70978ION    NA+36139  30.728  34.515  13.869
70979ION    NA+36140  24.952  17.759   0.116
70980ION    NA+36141  20.832  31.153   2.785
70981ION    NA+36142  41.285  35.587  11.197
70982ION    NA+36143   7.496  40.380   0.494
70983ION    NA+36144  28.159  26.944  11.550
70984ION    NA+36145   2.680  18.512  12.125
70985ION    NA+36146  20.371  21.861  11.178
70986ION    NA+36147   8.728   4.963  13.934
70987ION    NA+36148  28.391  11.789  10.562
70988ION    NA+36149   2.754   4.127  11.158
70989ION    NA+36150  13.849   2.531  12.060
70990ION    NA+36151  26.762  30.210  12.150
70991ION    NA+36152  39.770  14.096   3.357
70992ION    NA+36153  34.383   7.731  14.342
70993ION    NA+36154   4.938  24.173  14.288
70994ION    NA+36155  18.904  36.029   3.717
70995ION    NA+36156   5.525  22.389  12.074
70996ION    NA+36157  30.521  15.775  13.544
70997ION    NA+36158  20.832  15.176  14.463
70998ION    NA+36159  20.141  27.617  14.497
70999ION    NA+36160  12.780  44.828   2.799
71000ION    NA+36161  31.691  24.176  10.334
71001ION    NA+36162  39.745  26.400   1.625
71002ION    NA+36163  23.168  39.628   1.997
71003ION    NA+36164  17.957  16.792  11.871
71004ION    NA+36165   8.735  36.598   3.242
71005ION    NA+36166  40.719  27.452  13.074
71006ION    NA+36167  19.507  14.369   9.658
71007ION    NA+36168  44.860  24.922  10.768
71008ION    NA+36169   6.924  25.563  13.837
71009ION    NA+36170  43.265  22.051   0.099
71010ION    NA+36171   4.941  27.695  12.613
71011ION    NA+36172  27.577  31.583  13.138
71012ION    NA+36173  43.163   6.882   2.241
71013ION    NA+36174   8.630  21.470   3.240
71014ION    NA+36175  32.426   7.363   2.098
71015ION    NA+36176  14.362   7.988  13.570
71016ION    NA+36177  25.244   1.995  13.834
71017ION    NA+36178  44.247  16.090   0.860
71018ION    NA+36179  36.464  28.561  14.541
71019ION    NA+36180  35.756  39.724   3.125
71020ION    NA+36181  14.405  34.541  14.870
71021ION    NA+36182  22.651   8.619  14.309
71022ION    NA+36183   5.198  24.458   4.579
71023ION    NA+36184  16.273  16.366   2.585
71024ION    NA+36185  14.177   0.938   4.535
71025ION    NA+36186  25.691  44.671   0.784
71026ION    NA+36187  37.403  31.838   9.808
71027ION    NA+36188  29.118  39.542   0.499
71028ION    NA+36189  31.655   5.366   1.406
71029ION    NA+36190  41.943   3.370   3.653
71030ION    NA+36191  12.019  11.396   0.121
71031ION    NA+36192  27.489  27.056  10.815
71032ION    NA+36193  13.479  21.067   1.400
71033ION    NA+36194  35.823  19.274   2.501
71034ION    NA+36195   1.676   1.236   5.141
71035ION    NA+36196  41.128  32.344  14.775
71036ION    NA+36197  29.752  15.193   3.122
71037ION    NA+36198  39.321  35.358  14.125
71038ION    NA+36199  27.994  17.097  11.092
71039ION    NA+36200  10.194   8.124  13.386
71040ION    NA+36201  31.542  32.195   1.105
71041ION    NA+36202  10.633  28.067   1.947
71042ION    NA+36203  25.759  17.522   2.092
71043ION    NA+36204  11.011  42.937   1.786
71044ION    NA+36205  14.596   0.302   0.288
71045ION    NA+36206  39.396  21.024  14.553
71046ION    NA+36207  27.181  41.238  12.059
71047ION    NA+36208  10.126  33.957  13.983
71048ION    NA+36209   1.010  43.890  14.219
71049ION    NA+36210  24.609  11.403   1.714
71050ION    NA+36211  37.568  22.521   0.545
71051ION    NA+36212   3.871  25.436   0.445
71052ION    NA+36213  44.270  12.287  14.454
71053ION    NA+36214  27.647   6.372   0.330
71054ION    NA+36215  17.877  12.062   0.390
71055ION    NA+36216  36.273  39.724   3.773
71056ION    NA+36217  11.718  38.300  13.643
71057ION    NA+36218  23.783  30.706  12.764
71058ION    NA+36219  11.929  11.337  12.458
71059ION    NA+36220   5.244  30.187   0.991
71060ION    NA+36221  44.739  30.636   3.783
71061ION    NA+36222  34.885  20.844   1.486
71062ION    NA+36223  10.150   4.603  13.906
71063ION    NA+36224  16.595  27.541   0.980
71064ION    NA+36225   3.014  42.225   0.630
71065ION    NA+36226  21.291   6.000  13.470
71066ION    NA+36227  15.113  18.648  11.478
71067ION    NA+36228  20.600  20.947   4.426
71068ION    NA+36229  31.519  36.563  12.044
71069ION    NA+36230   1.654  12.608   0.281
71070ION    NA+36231  34.788  10.315   2.154
71071ION    NA+36232   6.403   7.743  10.771
71072ION    NA+36233  41.738   4.983  11.100
71073ION    NA+36234   4.769  30.027  14.267
71074ION    NA+36235  40.251  43.753   0.254
71075ION    NA+36236   0.195  11.742  11.942
71076ION    NA+36237  41.775  37.765  10.307
71077ION    NA+36238  11.329   8.335  11.929
71078ION    NA+36239  23.853  28.541   9.981
71079ION    NA+36240  18.295   6.112  14.456
71080ION    NA+36241  16.764  18.123  12.150
71081ION    NA+36242   9.590  36.737  11.424
71082ION    NA+36243   7.963  10.675  11.768
71083ION    NA+36244  15.874  17.490   0.823
71084ION    NA+36245  43.611   9.445  14.739
71085ION    NA+36246  27.871  25.082  10.931
71086ION    NA+36247  26.986  18.676   3.536
71087ION    NA+36248   5.453   7.972  12.117
71088ION    NA+36249  37.150  35.622   3.065
71089ION    NA+36250  29.158  13.575   9.694
71090ION    NA+36251  23.346  10.845  12.386
71091ION    NA+36252  30.182  27.299  13.586
71092ION    NA+36253  44.654  36.111   0.360
71093ION    NA+36254  13.537  28.781   0.883
71094ION    NA+36255  36.742  42.662   4.572
71095ION    NA+36256  29.116  23.744  12.464
71096ION    NA+36257   1.074  35.341  13.859
71097ION    NA+36258  35.520   3.404   3.826
71098ION    NA+36259  12.567  42.313   1.382
71099ION    NA+36260  27.476   8.238  13.512
71100ION    NA+36261  14.918  42.425   1.184
71101ION    NA+36262  30.294  26.113   2.709
71102ION    NA+36263  16.923  13.870  11.009
71103ION    NA+36264  40.347  28.245   1.805
71104ION    NA+36265  35.589  14.090  10.503
71105ION    NA+36266  28.665   9.759   1.165
71106ION    NA+36267  32.141  15.342   9.662
71107ION    NA+36268   3.434  20.590   2.116
71108ION    NA+36269   4.326  21.326  13.097
71109ION    NA+36270  17.792  12.622   1.707
71110ION    NA+36271  21.198  32.202   1.481
71111ION    NA+36272  41.734  23.501  12.333
71112ION    NA+36273  27.164   1.062   3.147
71113ION    NA+36274  10.352  38.578   2.451
71114ION    NA+36275  22.815   2.545   3.876
71115ION    NA+36276  17.821   9.144   4.103
71116ION    NA+36277  21.598  20.185   2.916
71117ION    NA+36278  29.962   3.192  12.761
71118ION    NA+36279  13.450  23.860  11.594
71119ION    NA+36280  30.447   3.784  12.028
71120ION    NA+36281  28.003  44.113  13.877
71121ION    NA+36282   0.425  18.497   1.953
71122ION    NA+36283   0.290  34.171   4.206
71123ION    NA+36284   6.241  34.860  10.679
71124ION    NA+36285  13.423  40.342  12.761
71125ION    NA+36286   4.705  16.178  12.991
71126ION    NA+36287  29.663  17.584  11.865
71127ION    NA+36288  42.575  32.694   4.458
71128ION    NA+36289  32.434  27.682  10.927
71129ION    NA+36290  17.262   6.708  14.359
71130ION    NA+36291  16.159  18.009  11.355
71131ION    NA+36292  43.508  18.677   1.705
71132ION    NA+36293   4.699   1.809  14.692
71133ION    NA+36294  11.963  37.227  14.465
71134ION    NA+36295  41.501  38.864   2.618
71135ION    NA+36296  17.541  35.873   1.893
71136ION    NA+36297  19.880  43.393   4.436
71137ION    NA+36298  10.460   7.840   2.592
71138ION    NA+36299  14.394  31.458   2.022
71139ION    NA+36300  43.350  21.045  14.883
71140ION    NA+36301  14.303  20.919   4.932
71141ION    NA+36302  29.672  34.126   1.893
71142ION    NA+36303  35.956  30.169   4.944
71143ION    NA+36304  10.076  14.311   3.131
71144ION    NA+36305   1.225   3.198  14.756
71145ION    NA+36306   5.924  44.799   4.044
71146ION    NA+36307   8.000   4.270   1.014
71147ION    NA+36308  28.762  12.478  14.552
71148ION    NA+36309   7.074  23.796   0.821
71149ION    NA+36310  41.798  13.708   1.943
71150ION    NA+36311  44.815  12.390  12.393
71151ION    NA+36312  17.227  39.803   3.238
71152ION    NA+36313  25.018  30.097   3.363
71153ION    NA+36314  44.465  38.693   0.877
71154ION    NA+36315  39.484   7.863  10.648
71155ION    NA+36316  14.753  11.242  12.689
71156ION    NA+36317  20.290   9.571   1.866
71157ION    NA+36318   6.438  14.573   0.736
71158ION    NA+36319  13.325  30.982  14.312
71159ION    NA+36320  27.324  28.445   1.847
71160ION    NA+36321   0.792  38.982   0.567
71161ION    NA+36322  35.109  13.388   2.759
71162ION    NA+36323   1.511  29.253  14.936
71163ION    NA+36324  29.205   8.924   1.271
71164ION    NA+36325  11.540  26.865   4.605
71165ION    NA+36326  24.642  16.111   1.955
71166ION    NA+36327  34.152  41.643  11.739
71167ION    NA+36328  17.499  32.178   4.607
71168ION    NA+36329  39.372  14.599  11.100
71169ION    NA+36330   1.652  33.561   0.959
71170ION    NA+36331  41.215   3.689  12.479
71171ION    NA+36332  32.255  16.815   1.472
71172ION    NA+36333  25.449  40.244   0.019
71173ION    NA+36334  23.161  40.630  11.487
71174ION    NA+36335   4.366  38.110  14.001
71175ION    NA+36336  18.180   6.274   4.728
71176ION    NA+36337  11.027  36.428  13.606
71177ION    NA+36338  34.477   3.884   4.525
71178ION    NA+36339   2.143  23.544   0.910
71179ION    NA+36340  26.364  30.023  13.977
71180ION    NA+36341  43.998  12.740   1.739
71181ION    NA+36342  14.593   1.231  13.634
71182ION    NA+36343   3.808  22.314   2.731
71183ION    NA+36344  18.520  21.334  11.943
71184ION    NA+36345  34.125  16.508   0.440
71185ION    NA+36346   0.783   9.350  14.804
71186ION    NA+36347  29.276  29.449   2.724
71187ION    NA+36348  10.160  38.872   5.058
71188ION    NA+36349  40.961   2.670  12.087
71189ION    NA+36350  12.831   8.234   1.007
71190ION    NA+36351   0.802   5.413   4.282
71191ION    NA+36352   0.424  30.626  13.612
71192ION    NA+36353  13.183  34.198  14.510
71193ION    NA+36354  22.842  16.408   5.471
71194ION    NA+36355   6.030   5.439   0.762
71195ION    NA+36356   9.175  29.152   1.282
71196ION    NA+36357  21.341  37.718   2.712
71197ION    NA+36358  31.077   7.725   2.318
71198ION    NA+36359  21.868  25.913   9.537
71199ION    NA+36360   6.506  19.762   3.953
71200ION    NA+36361  26.957  42.514   3.578
71201ION    NA+36362  36.421   8.667  14.982
71202ION    NA+36363  10.104   0.817   5.407
71203ION    NA+36364  30.442  23.034  14.444
71204ION    NA+36365  30.550  27.416   0.902
71205ION    NA+36366  16.352  18.723  14.206
71206ION    NA+36367   4.544   9.421   0.129
71207ION    NA+36368  29.441  28.072   5.584
71208ION    NA+36369  20.640   3.450   1.214
71209ION    NA+36370  18.627  19.910   5.514
71210ION    NA+36371   1.734  18.981   1.556
71211ION    NA+36372  12.320  33.802  13.623
71212ION    NA+36373  20.238  13.729   4.146
71213ION    NA+36374  21.235  14.333  13.286
71214ION    NA+36375   3.112  43.481  13.652
71215ION    NA+36376  29.059  11.544   2.318
71216ION    NA+36377  33.934   1.886   2.738
71217ION    NA+36378  20.997  11.330   3.554
71218ION    NA+36379  42.444  28.132   3.657
71219ION    NA+36380  19.545  23.417   2.112
71220ION    NA+36381  44.221  11.016  14.206
71221ION    NA+36382   0.300  23.502  13.215
71222ION    NA+36383  33.633  20.637   1.942
71223ION    NA+36384   9.211  20.315   4.147
71224ION    NA+36385  20.430  40.709   1.226
71225ION    NA+36386  15.242  17.766   3.196
71226ION    NA+36387   0.817  25.427  10.517
71227ION    NA+36388   6.891  43.299  14.521
71228ION    NA+36389   8.935  42.864  10.614
71229ION    NA+36390  35.454   1.292  11.858
71230ION    NA+36391   0.829  42.095  14.850
71231ION    NA+36392  31.057  27.534  13.770
71232ION    NA+36393   1.057  41.190  11.641
71233ION    NA+36394   0.800  12.661   0.853
71234ION    NA+36395  11.317  13.114  12.888
71235ION    NA+36396   3.237   8.460   3.835
71236ION    NA+36397  22.771  38.369  14.960
71237ION    NA+36398  10.441   1.926   2.246
71238ION    NA+36399  22.277  13.686   0.564
71239ION    NA+36400  12.652  38.599   2.717
71240ION    NA+36401  40.752  15.031  12.806
71241ION    NA+36402  31.685  37.548   1.069
71242ION    NA+36403  28.707  15.513  12.908
71243ION    NA+36404  29.370  35.601   3.506
71244ION    NA+36405  38.983  19.959  11.555
71245ION    NA+36406  27.939   8.750   3.237
71246ION    NA+36407  37.337  16.053  14.928
71247ION    NA+36408  13.158  20.212   1.857
71248ION    NA+36409  39.175  23.500   5.446
71249ION    NA+36410  37.181  14.121   1.794
71250ION    NA+36411  42.450  15.245   2.475
71251ION    NA+36412  24.230   5.341  14.888
71252ION    NA+36413  29.876  40.980  14.585
71253ION    NA+36414  27.700   6.848   4.169
71254ION    NA+36415  23.572  24.468   2.723
71255ION    NA+36416   3.578  41.661   0.193
71256ION    NA+36417   9.769  14.048   2.408
71257ION    NA+36418  34.804  18.344  12.167
71258ION    NA+36419  41.233  21.712  11.094
71259ION    NA+36420   0.402  22.964   0.321
71260ION    NA+36421  17.087   6.182   4.277
71261ION    NA+36422  24.096   6.637  13.467
71262ION    NA+36423  26.981  37.275   4.033
71263ION    NA+36424  33.581  24.714   2.431
71264ION    NA+36425  40.249  26.405  14.556
71265ION    NA+36426  16.070  16.111   4.315
71266ION    NA+36427   3.204   3.943  13.335
71267ION    NA+36428  32.348   4.693  11.322
71268ION    NA+36429  42.960  37.645  12.622
71269ION    NA+36430  22.252  33.741   1.202
71270ION    NA+36431   2.347  25.729   4.758
71271ION    NA+36432  28.197  32.467  13.859
71272ION    NA+36433  34.936  40.258   0.009
71273ION    NA+36434  39.257  35.289   2.829
71274ION    NA+36435  19.263  42.007  10.689
71275ION    NA+36436  43.279  41.387  10.704
71276ION    NA+36437  20.727  16.117   2.245
71277ION    NA+36438  26.965  20.260  11.673
71278ION    NA+36439  19.613  34.934  14.196
71279ION    NA+36440   7.103  15.806   0.865
71280ION    NA+36441  38.384  16.078  10.329
71281ION    NA+36442  30.004  36.503   9.826
71282ION    NA+36443  17.255  36.349  13.857
71283ION    NA+36444   2.874  34.308  10.774
71284ION    NA+36445  29.031  24.195   4.524
71285ION    NA+36446   3.903   6.501   1.902
71286ION    NA+36447  19.370  38.506  14.756
71287ION    NA+36448   9.344  36.770   1.972
71288ION    NA+36449  29.895  17.571  14.919
71289ION    NA+36450  18.214  37.720  13.544
71290ION    NA+36451   4.387  10.017  14.462
71291ION    NA+36452  16.700  33.645  13.401
71292ION    NA+36453  30.709  14.226  11.105
71293ION    NA+36454  40.149  23.611  13.937
71294ION    NA+36455  22.434   6.938   4.306
71295ION    NA+36456  10.434  42.290   2.833
71296ION    NA+36457  22.690  39.759   0.115
71297ION    NA+36458  41.067  36.307   1.744
71298ION    NA+36459   1.979  21.025   0.284
71299ION    NA+36460  30.052  24.682   2.619
71300ION    NA+36461  27.232   3.808  14.793
71301ION    NA+36462  33.580  10.735   3.993
71302ION    NA+36463   2.823  34.108  14.361
71303ION    NA+36464   1.190  24.709   2.069
71304ION    NA+36465  32.192  10.626  11.196
71305ION    NA+36466  40.301  13.202  13.425
71306ION    NA+36467  42.914  28.593   1.309
71307ION    NA+36468   9.924  42.582   0.866
71308ION    NA+36469  40.996   7.811  12.882
71309ION    NA+36470   9.810   2.703  11.390
71310ION    NA+36471  21.900  24.018   2.422
71311ION    NA+36472  29.105  41.480  10.313
71312ION    NA+36473  19.880  13.587  12.558
71313ION    NA+36474  16.471  32.694   1.075
71314ION    NA+36475  44.674  22.894  14.639
71315ION    NA+36476  33.237   9.069  13.691
71316ION    NA+36477  14.818  23.652   2.830
71317ION    NA+36478  42.651  42.528   4.624
71318ION    NA+36479  33.147  29.622  14.644
71319ION    NA+36480  30.379  37.551  12.054
71320ION    NA+36481   3.676  14.769  14.415
71321ION    NA+36482  43.261  41.621   1.767
71322ION    NA+36483  34.655   0.668   3.111
71323ION    NA+36484  23.721  28.256  14.894
71324ION    NA+36485  21.134  41.714   3.123
71325ION    NA+36486  34.598  28.641  14.055
71326ION    NA+36487  27.758  10.303   1.254
71327ION    NA+36488  26.966  30.420   0.232
71328ION    NA+36489  13.787  24.451   1.226
71329ION    NA+36490  32.298  26.387   4.028
71330ION    NA+36491  23.157   6.439  12.708
71331ION    NA+36492  14.600   9.321   4.362
71332ION    NA+36493  41.908  44.390  11.462
71333ION    NA+36494  12.803   7.119   0.272
71334ION    NA+36495  36.598   9.519  14.029
71335ION    NA+36496  38.324  16.794   0.269
71336ION    NA+36497  14.951   2.240   4.239
71337ION    NA+36498  17.383  25.979   1.000
71338ION    NA+36499  38.368  43.737   0.729
71339ION    NA+36500  39.453  41.303   4.054
71340ION    NA+36501  10.376  15.130   1.811
71341ION    NA+36502  32.152  35.550   2.346
71342ION    NA+36503   6.866   0.957   4.343
71343ION    NA+36504  16.109  10.332  10.841
71344ION    NA+36505  42.701   3.599  13.383
71345ION    NA+36506  32.968  15.648  14.840
71346ION    NA+36507  34.428  12.701   1.371
71347ION    NA+36508  21.297  21.062   3.956
71348ION    NA+36509   0.670  10.997  12.522
71349ION    NA+36510  22.801  19.710   0.165
71350ION    NA+36511  30.892   5.091   0.821
71351ION    NA+36512  36.583  24.291   3.277
71352ION    NA+36513  14.311  16.120   4.948
71353ION    NA+36514  40.943  11.199  11.219
71354ION    NA+36515  23.224  29.897   1.001
71355ION    NA+36516   5.784   6.904  10.860
71356ION    NA+36517  44.989  12.764   2.671
71357ION    NA+36518  18.018  25.957   1.772
71358ION    NA+36519  19.741  39.601  10.160
71359ION    NA+36520  29.638  42.940   3.090
71360ION    NA+36521  29.974  38.805   3.609
71361ION    NA+36522  43.045  35.392   2.204
71362ION    NA+36523   4.360  40.137   2.161
71363ION    NA+36524  29.559   5.119   0.058
71364ION    NA+36525  15.262  41.957  14.004
71365ION    NA+36526  17.598   4.818  11.469
71366ION    NA+36527   4.559   4.223  13.616
71367ION    NA+36528  40.204   2.883  12.088
71368ION    NA+36529  33.869  38.556   2.103
71369ION    NA+36530  23.223  33.679   2.918
71370ION    NA+36531  28.498  14.610  10.395
71371ION    NA+36532  40.917  24.055   1.916
71372ION    NA+36533  36.221  25.785   1.969
71373ION    NA+36534  29.446   0.879  11.204
71374ION    NA+36535  42.752  23.012  12.973
71375ION    NA+36536  32.402  15.423  13.265
71376ION    NA+36537   4.728  30.980  12.349
71377ION    NA+36538  12.848  23.544   3.919
71378ION    NA+36539  36.025  32.036   4.058
71379ION    NA+36540  34.396   7.332  12.447
71380ION    NA+36541   7.243  22.183   2.731
71381ION    NA+36542  15.382  23.387   0.012
71382ION    NA+36543  33.465  16.901   2.419
71383ION    NA+36544  18.184   2.147  11.538
71384ION    NA+36545   4.600  30.921   4.255
71385ION    NA+36546   5.415  27.602  10.799
71386ION    NA+36547   2.261  13.920  11.552
71387ION    NA+36548   4.397  38.695  13.006
71388ION    NA+36549  44.071  27.448  14.827
71389ION    NA+36550  42.179  31.493  10.361
71390ION    NA+36551  28.573  18.249   0.785
71391ION    NA+36552  19.274  19.708  11.626
71392ION    NA+36553  28.732  13.703   4.464
71393ION    NA+36554  13.419   5.882   0.073
71394ION    NA+36555   2.421   1.451  13.883
71395ION    NA+36556  39.080  27.704   1.716
71396ION    NA+36557  34.909  32.766   1.357
71397ION    NA+36558  36.552  19.263   1.128
71398ION    NA+36559  17.106  16.275  12.399
71399ION    NA+36560  11.284  30.934   1.387
71400ION    NA+36561  19.577  34.553   0.492
71401ION    NA+36562   1.781  22.725   4.146
71402ION    NA+36563  12.111  38.633  14.013
71403ION    NA+36564  16.315  10.978   2.594
71404ION    NA+36565  18.181  41.363  12.163
71405ION    NA+36566  21.706   4.036   2.100
71406ION    NA+36567   2.008  23.927  12.080
71407ION    NA+36568  22.503  33.183   3.008
71408ION    NA+36569  11.381  22.393  13.831
71409ION    NA+36570  15.032  18.356   0.651
71410ION    NA+36571  34.203  26.968   4.161
71411ION    NA+36572  34.951  31.187  13.716
71412ION    NA+36573  38.964  33.305  11.058
71413ION    NA+36574   7.837  10.538  12.750
71414ION    NA+36575  12.795  38.478   0.054
71415ION    NA+36576  36.298  36.103  12.258
71416ION    NA+36577  38.059   3.912   4.384
71417ION    NA+36578  35.505  44.047  11.083
71418ION    NA+36579  28.544  42.896   3.924
71419ION    NA+36580  21.543  31.647  11.163
71420ION    NA+36581  32.034  25.234   1.770
71421ION    NA+36582  37.072  26.977   2.728
71422ION    NA+36583   9.138  13.606   1.219
71423ION    NA+36584  26.557  13.752   4.686
71424ION    NA+36585  39.182  35.941   4.577
71425ION    NA+36586   4.199  22.155   0.664
71426ION    NA+36587  35.969  33.543  13.142
71427ION    NA+36588  15.537  40.944  13.874
71428ION    NA+36589   5.400  17.056  12.511
71429ION    NA+36590   4.779   5.283  14.242
71430ION    NA+36591  10.678   1.003  11.148
71431ION    NA+36592  12.037  10.539  14.870
71432ION    NA+36593  29.688  36.994  11.105
71433ION    NA+36594  42.213  42.190  13.029
71434ION    NA+36595   4.801  15.718   0.789
71435ION    NA+36596  13.537  18.784   2.864
71436ION    NA+36597  41.068   9.129  11.931
71437ION    NA+36598  21.011   6.470  14.306
71438ION    NA+36599  41.274  42.991  11.459
71439ION    NA+36600  40.673  17.026  12.243
71440ION    NA+36601  16.213  36.409  14.528
71441ION    NA+36602  20.318  36.501  11.432
71442ION    NA+36603  34.567  33.085  13.554
71443ION    NA+36604  43.764  34.098   2.932
71444ION    NA+36605   0.478  16.279  13.883
71445ION    NA+36606   3.725  21.534   1.396
71446ION    NA+36607   1.959  18.036  13.831
71447ION    NA+36608  24.633  40.886   1.785
71448ION    NA+36609  13.507  18.360   4.897
71449ION    NA+36610   0.138   3.103   1.453
71450ION    NA+36611  41.355  22.517   2.693
71451ION    NA+36612  21.049  37.501   0.708
71452ION    NA+36613  28.917  41.453   4.129
71453ION    NA+36614   1.288   0.210  11.447
71454ION    NA+36615  15.882  24.097   3.630
71455ION    NA+36616  10.612  40.282   4.329
71456ION    NA+36617  44.984  15.196   4.104
71457ION    NA+36618  10.634  12.366   2.631
71458ION    NA+36619  20.546   9.952  13.061
71459ION    NA+36620  17.588  33.537   3.954
71460ION    NA+36621  10.575  33.146   2.704
71461ION    NA+36622  13.591  41.527  13.618
71462ION    NA+36623  29.962  37.371   1.394
71463ION    NA+36624  24.501  40.854   3.038
71464ION    NA+36625   2.179   3.724   0.485
71465ION    NA+36626  36.889  30.955  12.851
71466ION    NA+36627  16.961  33.439  11.281
71467ION    NA+36628   2.762   3.010   2.179
71468ION    NA+36629   1.350  37.804   1.347
71469ION    NA+36630  10.796  28.083  13.076
71470ION    NA+36631  25.786  26.477   4.133
71471ION    NA+36632  38.367  42.889   1.283
71472ION    NA+36633  44.241  38.166   0.131
71473ION    NA+36634  25.454   8.129  13.571
71474ION    NA+36635   5.824  18.256  13.834
71475ION    NA+36636  40.313  33.356  11.344
71476ION    NA+36637  26.917  24.612   4.126
71477ION    NA+36638  36.655  29.136   4.304
71478ION    NA+36639  31.073  32.707   4.036
71479ION    NA+36640  21.439   8.681   4.172
71480ION    NA+36641  31.319  30.857  12.678
71481ION    NA+36642   5.284  44.035   3.969
71482ION    NA+36643  42.325  36.664  12.944
71483ION    NA+36644   9.778  19.635   1.823
71484ION    NA+36645  14.738  14.798  14.794
71485ION    NA+36646  37.125   2.512  14.237
71486ION    NA+36647  40.502   8.114   3.765
71487ION    NA+36648  21.139  15.293   4.103
71488ION    NA+36649   4.529  33.868   3.537
71489ION    NA+36650   4.638  28.100  13.476
71490ION    NA+36651  38.766  30.876  10.787
71491ION    NA+36652   1.876  38.214   4.425
71492ION    NA+36653   7.410  15.255  13.888
71493ION    NA+36654  38.044  13.260   0.280
71494ION    NA+36655  24.171  43.732  13.045
71495ION    NA+36656  28.166  39.297   3.726
71496ION    NA+36657  21.304  44.858  13.572
71497ION    NA+36658  14.114  39.032  12.249
71498ION    NA+36659   2.303   7.444  14.759
71499ION    NA+36660   3.168  11.915   0.732
71500ION    NA+36661  28.472  19.776  10.665
71501ION    NA+36662   3.995  20.878   2.891
71502ION    NA+36663  44.575  26.392  12.642
71503ION    NA+36664  15.799   2.451   0.533
71504ION    NA+36665   6.360  41.861  12.137
71505ION    NA+36666  32.696  11.702  10.682
71506ION    NA+36667  20.696  34.379  12.436
71507ION    NA+36668  40.251  12.031   4.857
71508ION    NA+36669  28.623  36.044   0.888
71509ION    NA+36670  23.451   2.036  12.338
71510ION    NA+36671  15.050  13.514   0.027
71511ION    NA+36672   6.637  19.640   4.711
71512ION    NA+36673  33.194  13.537   4.506
71513ION    NA+36674  17.600   5.031  14.299
71514ION    NA+36675  32.335   6.412  12.236
71515ION    NA+36676  22.868  13.250   1.946
71516ION    NA+36677   5.184   1.587  13.173
71517ION    NA+36678  12.740  35.162  12.919
71518ION    NA+36679  41.820   8.402  12.932
71519ION    NA+36680  28.321  29.565   4.731
71520ION    NA+36681  16.187  43.390   1.865
71521ION    NA+36682   6.986  40.957  12.033
71522ION    NA+36683   6.786  28.328  14.122
71523ION    NA+36684  39.384  34.777   0.285
71524ION    NA+36685   5.520   5.375   3.696
71525ION    NA+36686  31.478  33.831  13.950
71526ION    NA+36687  11.436  22.254  11.922
71527ION    NA+36688  36.534   4.548  11.607
71528ION    NA+36689  42.788  25.982  11.631
71529ION    NA+36690  29.625  16.987  12.761
71530ION    NA+36691  23.043  17.300   3.164
71531ION    NA+36692  15.480  43.965   2.655
71532ION    NA+36693   9.359   1.230  12.495
71533ION    NA+36694  29.436  28.237  11.062
71534ION    NA+36695  27.818  29.214   2.622
71535ION    NA+36696  30.067  34.975   0.921
71536ION    NA+36697  24.201  16.567   0.512
71537ION    NA+36698  44.223  11.153   2.163
71538ION    NA+36699  33.958  23.357  11.554
71539ION    NA+36700  38.310  12.798  11.210
71540ION    NA+36701  42.303  15.302  12.119
71541ION    NA+36702   1.392  19.143  11.435
71542ION    NA+36703  22.229  41.199   2.759
71543ION    NA+36704  26.050  26.049   1.827
71544ION    NA+36705  20.540  21.142  13.856
71545ION    NA+36706  10.720  35.457  11.516
71546ION    NA+36707  44.638  18.094   2.952
71547ION    NA+36708  14.193  23.648   0.718
71548ION    NA+36709  29.903  42.667   2.166
71549ION    NA+36710  44.818  44.405  14.524
71550ION    NA+36711  12.049  39.348  10.118
71551ION    NA+36712  22.194  32.454  13.493
71552ION    NA+36713  21.245  41.877   2.143
71553ION    NA+36714   0.961  22.478  12.936
71554ION    NA+36715  42.287   2.894   2.177
71555ION    NA+36716  28.212   9.360  12.651
71556ION    NA+36717  27.076  30.918  11.053
71557ION    NA+36718  36.735  18.227   2.459
71558ION    NA+36719  30.965  28.290   4.619
71559ION    NA+36720  20.016  20.052  13.958
71560ION    NA+36721  42.211  27.586   2.308
71561ION    NA+36722  27.439  30.751   3.852
71562ION    NA+36723  13.101  12.620  11.926
71563ION    NA+36724  30.639  14.851  12.000
71564ION    NA+36725  34.254  40.850  14.527
71565ION    NA+36726  30.070  44.434  14.246
71566ION    NA+36727  17.224  41.936   3.583
71567ION    NA+36728  12.419  31.046   1.721
71568ION    NA+36729  12.134  44.439  10.743
71569ION    NA+36730   0.497  22.860  14.331
71570ION    NA+36731   0.471  13.505   2.203
71571ION    NA+36732   5.182  16.640  14.280
71572ION    NA+36733   0.843   0.809  12.112
71573ION    NA+36734  14.071  44.234   0.399
71574ION    NA+36735  43.050   9.786  10.819
71575ION    NA+36736  30.807  16.600   1.877
71576ION    NA+36737  10.002  40.596   2.125
71577ION    NA+36738  17.043  34.507   2.903
71578ION    NA+36739  13.773   6.610  10.908
71579ION    NA+36740  40.602   6.069  14.383
71580ION    NA+36741   8.566  20.609  11.849
71581ION    NA+36742  37.365   7.423   2.368
71582ION    NA+36743   2.434  44.009   1.447
71583ION    NA+36744   0.091  28.784   1.588
71584ION    NA+36745  37.139   3.858  12.997
71585ION    NA+36746  32.024  29.781   2.335
71586ION    NA+36747  20.512  11.725   2.176
71587ION    NA+36748  43.786  30.895   1.318
71588ION    NA+36749  23.556  37.833  12.104
71589ION    NA+36750   9.716  27.637  10.801
71590ION    NA+36751  14.273  32.963  12.806
71591ION    NA+36752  13.449  16.045   2.960
71592ION    NA+36753  28.223  17.264   4.550
71593ION    NA+36754  11.200  17.006  14.454
71594ION    NA+36755  19.488  44.087   0.504
71595ION    NA+36756   9.610  41.344  13.761
71596ION    NA+36757   6.612   9.348   4.562
71597ION    NA+36758  42.662   9.161  14.878
71598ION    NA+36759  17.050  43.179   1.151
71599ION    NA+36760  29.473   9.323  12.045
71600ION    NA+36761   7.605  33.965  10.927
71601ION    NA+36762  11.798  25.452   3.737
71602ION    NA+36763  32.644   0.936  13.129
71603ION    NA+36764   5.771  10.106  11.619
71604ION    NA+36765  15.025  43.273  14.033
71605ION    NA+36766  16.782  27.748   1.940
71606ION    NA+36767  31.414  34.738  13.176
71607ION    NA+36768  17.891  16.600   3.135
71608ION    NA+36769   0.433  32.313  12.804
71609ION    NA+36770   7.864  26.638  10.320
71610ION    NA+36771  26.627   7.556   5.044
71611ION    NA+36772  30.341  29.620  11.031
71612ION    NA+36773  30.088  40.581   0.486
71613ION    NA+36774  26.001   6.340  13.015
71614ION    NA+36775  20.017  25.644  11.989
71615ION    NA+36776  34.693  41.651   1.194
71616ION    NA+36777  40.098  26.710   2.508
71617ION    NA+36778  13.425  20.021   0.620
71618ION    NA+36779  26.491  32.031   2.201
71619ION    NA+36780   4.792  38.567  11.758
71620ION    NA+36781   5.260  32.166  12.792
71621ION    NA+36782  37.893  38.878   9.620
71622ION    NA+36783   9.797   2.848   3.237
71623ION    NA+36784  38.676  31.976  14.109
71624ION    NA+36785  14.628   6.584   0.383
71625ION    NA+36786  38.212   7.242   1.841
71626ION    NA+36787  34.857   9.693   4.326
71627ION    NA+36788  31.211   2.601  14.416
71628ION    NA+36789  14.453  39.289   1.436
71629ION    NA+36790   9.396  21.639   1.089
71630ION    NA+36791  21.701   1.602  12.066
71631ION    NA+36792  33.458   6.857   4.692
71632ION    NA+36793   4.259  20.767   0.564
71633ION    NA+36794   9.452   5.532  12.965
71634ION    NA+36795  29.395  40.635  10.764
71635ION    NA+36796  31.358  44.630   5.206
71636ION    NA+36797   5.391  27.552   3.025
71637ION    NA+36798  29.646   1.104   4.133
71638ION    NA+36799  28.032  23.951   5.438
71639ION    NA+36800  26.146  24.937  14.818
71640ION    NA+36801  37.413  10.165  12.824
71641ION    NA+36802  39.430   3.660  11.191
71642ION    NA+36803  36.462  21.105  12.652
71643ION    NA+36804  36.908  32.251  12.446
71644ION    NA+36805   6.559  21.559  13.354
71645ION    NA+36806  39.049  36.036  13.376
71646ION    NA+36807  43.630  40.880   3.861
71647ION    NA+36808  25.551  30.339  14.467
71648ION    NA+36809  25.687  21.779  10.376
71649ION    NA+36810  10.387   5.931   0.086
71650ION    NA+36811  19.750  33.568   0.075
71651ION    NA+36812  32.618   5.560  11.743
71652ION    NA+36813  39.867  36.440  11.713
71653ION    NA+36814   0.114   6.170   1.923
71654ION    NA+36815  21.798  30.584  14.781
71655ION    NA+36816   4.919  26.473   0.413
71656ION    NA+36817  19.824  22.370  13.916
71657ION    NA+36818  18.525  11.923  10.983
71658ION    NA+36819  34.106  26.744  10.729
71659ION    NA+36820  28.182   5.599   4.122
71660ION    NA+36821   6.149   2.148  11.939
71661ION    NA+36822  20.141  36.475  14.767
71662ION    NA+36823  28.551  24.441  12.021
71663ION    NA+36824  10.979  34.381  14.365
71664ION    NA+36825  34.385  27.917  13.399
71665ION    NA+36826  24.332  32.676   3.242
71666ION    NA+36827  32.339  38.818  13.619
71667ION    NA+36828  30.725  35.034   4.136
71668ION    NA+36829   8.199   5.086   3.505
71669ION    NA+36830  23.296   0.395  11.141
71670ION    NA+36831  19.275  24.060   2.829
71671ION    NA+36832   0.727  19.945   1.938
71672ION    NA+36833  39.958   4.930  13.252
71673ION    NA+36834   7.367  15.211   0.106
71674ION    NA+36835  29.440   9.192  10.518
71675ION    NA+36836  27.122  25.088   0.085
71676ION    NA+36837  33.744  43.227  13.094
71677ION    NA+36838   6.484   7.972  11.742
71678ION    NA+36839   8.813  22.205   2.587
71679ION    NA+36840  41.665  37.095   4.679
71680ION    NA+36841   7.302  42.432   0.685
71681ION    NA+36842   7.974  30.385  11.158
71682ION    NA+36843  34.201   6.442  13.893
71683ION    NA+36844  36.052  34.956  11.119
71684ION    NA+36845  26.227   5.965  10.921
71685ION    NA+36846  31.559  24.059  12.032
71686ION    NA+36847   6.797  44.704  11.138
71687ION    NA+36848  35.412  20.091   0.097
71688ION    NA+36849  14.229  20.073   2.061
71689ION    NA+36850  34.109  38.746  11.767
71690ION    NA+36851  37.345  21.476  10.720
71691ION    NA+36852  26.654  24.217  11.115
71692ION    NA+36853   1.926  29.396   2.780
71693ION    NA+36854  39.353  17.923  14.766
71694ION    NA+36855  24.733  42.469   4.647
71695ION    NA+36856   0.466  41.956  11.245
71696ION    NA+36857  43.289   0.382  13.359
71697ION    NA+36858  12.349   0.054  12.318
71698ION    NA+36859   3.726  25.448   9.802
71699ION    NA+36860  43.133   3.694  14.954
71700ION    NA+36861  18.886  30.952  12.477
71701ION    NA+36862  44.768  13.350  13.027
71702ION    NA+36863  32.985  27.154  13.476
71703ION    NA+36864  25.496  44.161   3.500
71704ION    NA+36865  24.838  37.286  13.699
71705ION    NA+36866   7.171  42.484  12.209
71706ION    NA+36867  19.951  43.846  13.811
71707ION    NA+36868  41.698  43.386   1.427
71708ION    NA+36869   4.999  32.824  13.498
71709ION    NA+36870  27.975  39.149  14.868
71710ION    NA+36871  24.040  16.998   3.395
71711ION    NA+36872  35.912  21.670  10.655
71712ION    NA+36873  40.568  28.007  11.664
71713ION    NA+36874   2.820  36.826   2.827
71714ION    NA+36875   7.839  40.354   3.814
71715ION    NA+36876   7.886  42.817   1.401
71716ION    NA+36877  34.474  20.692   4.643
71717ION    NA+36878  18.151  14.977   1.840
71718ION    NA+36879   5.831  37.042   2.595
71719ION    NA+36880   4.226  22.660  12.724
71720ION    NA+36881  40.344  12.050  10.705
71721ION    NA+36882  27.566   3.622  11.781
71722ION    NA+36883  36.575  10.362  11.412
71723ION    NA+36884  39.533  26.351  11.735
71724ION    NA+36885  22.915  31.452   3.608
71725ION    NA+36886   1.387  13.223   1.835
71726ION    NA+36887   5.233   6.886  11.694
71727ION    NA+36888  17.482  23.648  12.989
71728ION    NA+36889  17.578   8.905  14.973
71729ION    NA+36890  17.611  20.603   1.362
71730ION    NA+36891  20.079  10.865   3.190
71731ION    NA+36892  25.416  35.895   2.676
71732ION    NA+36893  25.354  33.207  13.377
71733ION    NA+36894  24.827  42.457   1.185
71734ION    NA+36895  37.038  16.889   0.386
71735ION    NA+36896   9.737  13.558   3.051
71736ION    NA+36897  37.738  25.093  10.591
71737ION    NA+36898  43.922  30.344  12.525
71738ION    NA+36899  40.407  10.096  12.095
71739ION    NA+36900  34.304   1.144   2.377
71740ION    NA+36901   2.449  36.432  12.241
71741ION    NA+36902   2.158  16.406  14.693
71742ION    NA+36903  34.393  39.359   0.577
71743ION    NA+36904  18.807  28.529  14.755
71744ION    NA+36905  30.650  21.044  10.572
71745ION    NA+36906  17.779   0.480  13.887
71746ION    NA+36907  42.991  41.796  12.752
71747ION    NA+36908  41.261  32.473  12.632
71748ION    NA+36909  19.013  16.134  14.724
71749ION    NA+36910  16.522  22.810  12.443
71750ION    NA+36911  26.663  19.359  14.417
71751ION    NA+36912   2.711  11.167  11.088
71752ION    NA+36913  24.899  10.597   0.733
71753ION    NA+36914  10.928  20.290   0.337
71754ION    NA+36915   2.742  33.048  11.573
71755ION    NA+36916   5.688  13.105  12.146
71756ION    NA+36917  14.987  31.950   2.507
71757ION    NA+36918  41.611  25.105  11.697
71758ION    NA+36919   5.267  26.524   3.271
71759ION    NA+36920  10.395  20.254  13.082
71760ION    NA+36921  29.374  21.227   1.424
71761ION    NA+36922  38.570  10.686   0.948
71762ION    NA+36923   3.338   2.672   2.775
71763ION    NA+36924  15.864  15.629  13.332
71764ION    NA+36925   2.080  22.606  11.643
71765ION    NA+36926  37.546  10.512   2.760
71766ION    NA+36927   3.710  23.391  12.772
71767ION    NA+36928   6.668  18.541   3.111
71768ION    NA+36929  16.405  23.685   1.147
71769ION    NA+36930  26.525  23.964   1.888
71770ION    NA+36931  17.496   1.417   5.078
71771ION    NA+36932  42.887   4.468   1.399
71772ION    NA+36933  32.489  13.987   3.948
71773ION    NA+36934   8.777  24.625   3.864
71774ION    NA+36935  30.470  40.423  12.973
71775ION    NA+36936  35.007  34.485   1.433
71776ION    NA+36937   5.812   8.391   0.767
71777ION    NA+36938   2.019  19.193  14.888
71778ION    NA+36939  19.224   5.167   2.152
71779ION    NA+36940  41.006  33.595  10.662
71780ION    NA+36941   6.755  22.746   0.346
71781ION    NA+36942  14.190   2.957   4.249
71782ION    NA+36943  10.811  16.586   0.768
71783ION    NA+36944  11.243   9.789   0.738
71784ION    NA+36945  17.696   8.443   4.903
71785ION    NA+36946  34.897  15.869  13.483
71786ION    NA+36947  28.131  33.367   0.255
71787ION    NA+36948   1.692  18.599  12.253
71788ION    NA+36949  16.108   9.574  13.953
71789ION    NA+36950  35.898  42.108   1.179
71790ION    NA+36951  19.715   8.632   1.776
71791ION    NA+36952  16.858  19.264  13.534
71792ION    NA+36953   1.392  13.293   3.702
71793ION    NA+36954  10.201   1.147   4.510
71794ION    NA+36955  16.677  34.925   2.072
71795ION    NA+36956  40.036  27.521   4.492
71796ION    NA+36957  25.469  37.815   2.229
71797ION    NA+36958  32.634  42.285  14.985
71798ION    NA+36959   5.872  35.565  14.612
71799ION    NA+36960  11.287  36.265   3.322
71800ION    NA+36961  12.265  26.687   2.759
71801ION    NA+36962  12.432   3.492   1.715
71802ION    NA+36963  21.632  16.947   2.044
71803ION    NA+36964  32.568  23.058  11.997
71804ION    NA+36965   5.887  31.089  10.869
71805ION    NA+36966  27.918  24.860   1.871
71806ION    NA+36967  30.243  12.443  14.510
71807ION    NA+36968  23.456   7.751   4.786
71808ION    NA+36969  32.320  14.099  12.535
71809ION    NA+36970  18.842  23.665  14.297
71810ION    NA+36971  44.850   1.258  12.643
71811ION    NA+36972  28.033  41.779  12.506
71812ION    NA+36973  43.096   7.593  11.618
71813ION    NA+36974  34.694  37.806   0.151
71814ION    NA+36975  19.622  23.069  12.819
71815ION    NA+36976  29.563  34.237   3.383
71816ION    NA+36977  37.291   0.907   5.457
71817ION    NA+36978  16.550  40.748  14.279
71818ION    NA+36979  14.347  13.059   1.839
71819ION    NA+36980  39.280   5.346  10.744
71820ION    NA+36981  11.830  35.608   3.066
71821ION    NA+36982  20.587   3.032  12.092
71822ION    NA+36983  25.344   6.876  11.800
71823ION    NA+36984  10.919   0.472   4.339
71824ION    NA+36985  40.205   6.362   2.684
71825ION    NA+36986  26.709  22.612   2.544
71826ION    NA+36987  15.881  21.516   1.391
71827ION    NA+36988  16.072  37.913  11.575
71828ION    NA+36989  14.417  33.541  13.609
71829ION    NA+36990   3.279  15.301   2.815
71830ION    NA+36991  16.627  10.181   0.363
71831ION    NA+36992  24.468   5.434  13.921
71832ION    NA+36993  35.051  16.698  14.401
71833ION    NA+36994  43.268  27.527   3.917
71834ION    NA+36995  41.024  10.921   1.273
71835ION    NA+36996  17.300  26.652  14.438
71836ION    NA+36997   6.184  40.263   2.975
71837ION    NA+36998  15.579  20.649   3.732
71838ION    NA+36999   5.419  35.893   0.831
71839ION    NA+37000  36.395  42.501  13.126
71840ION    NA+37001  19.122  36.751  10.660
71841ION    NA+37002  11.174  31.783   0.869
71842ION    NA+37003  23.532   9.162   4.699
71843ION    NA+37004   5.554  22.767  12.999
71844ION    NA+37005  37.598  32.485   3.205
71845ION    NA+37006  11.341  39.281  14.224
71846ION    NA+37007   2.672  23.443  12.651
71847ION    NA+37008  42.413   0.307  13.115
71848ION    NA+37009  44.467   9.363   0.354
71849ION    NA+37010  29.498  18.072   2.347
71850ION    NA+37011  27.164  16.594   2.601
71851ION    NA+37012  42.445  11.145  14.959
71852ION    NA+37013  41.190   5.370  14.331
71853ION    NA+37014  17.716  24.170  11.090
71854ION    NA+37015   8.187   9.925  10.771
71855ION    NA+37016   3.772  42.151  14.096
71856ION    NA+37017   4.184  44.890  14.874
71857ION    NA+37018  25.900  10.890   0.905
71858ION    NA+37019  27.340  43.846  11.697
71859ION    NA+37020  28.414   8.276  14.110
71860ION    NA+37021   7.198  37.687   2.619
71861ION    NA+37022   8.004  20.791   9.719
71862ION    NA+37023  37.646  23.752  10.657
71863ION    NA+37024   4.043  33.063  13.323
71864ION    NA+37025  44.247  14.088  11.152
71865ION    NA+37026  44.240  39.413   0.221
71866ION    NA+37027  20.553   1.385   2.788
71867ION    NA+37028   7.242  40.224   2.143
71868ION    NA+37029  27.219  36.055   2.171
71869ION    NA+37030  17.745  24.420   3.703
71870ION    NA+37031   1.424  21.545  14.504
71871ION    NA+37032  20.416  37.496  14.291
71872ION    NA+37033   3.979   5.097  11.753
71873ION    NA+37034  25.443   8.170   4.413
71874ION    NA+37035  12.317  32.389  11.187
71875ION    NA+37036  33.936  30.014   1.645
71876ION    NA+37037  39.237  32.126   5.099
71877ION    NA+37038  27.646  14.005   1.681
71878ION    NA+37039   7.123  39.003  11.158
71879ION    NA+37040   1.968  13.785  14.445
71880ION    NA+37041   1.245  18.778   4.166
71881ION    NA+37042  17.773  27.054   3.182
71882ION    NA+37043   2.314  39.389   2.095
71883ION    NA+37044  14.067  32.822  11.077
71884ION    NA+37045   1.973   2.897   1.574
71885ION    NA+37046   7.967  43.986   0.698
71886ION    NA+37047  33.350  43.565   3.375
71887ION    NA+37048   8.042   5.318   4.634
71888ION    NA+37049  25.367  37.875   0.912
71889ION    NA+37050   2.537   6.550  11.187
71890ION    NA+37051  41.403  37.877   1.334
71891ION    NA+37052  32.598  19.713  14.172
71892ION    NA+37053  28.690  38.579  10.760
71893ION    NA+37054  31.743   1.969   1.829
71894ION    NA+37055   3.149   5.754   4.634
71895ION    NA+37056  10.949  23.345   3.610
71896ION    NA+37057  35.427  16.025  10.482
71897ION    NA+37058  15.311  17.718  13.536
71898ION    NA+37059  17.263  40.671   1.976
71899ION    NA+37060  38.057  15.562  14.329
71900ION    NA+37061  31.646   1.924   0.026
71901ION    NA+37062   2.323   2.882   3.582
71902ION    NA+37063  44.509  15.862   2.999
71903ION    NA+37064  19.689  27.476  11.163
71904ION    NA+37065  15.570   8.369  13.117
71905ION    NA+37066  20.859  41.645   0.550
71906ION    NA+37067   2.985  34.183   4.996
71907ION    NA+37068  40.023   6.863   1.039
71908ION    NA+37069  28.564   0.915   0.493
71909ION    NA+37070  37.069  43.831   4.685
71910ION    NA+37071  23.111  26.664  13.452
71911ION    NA+37072  33.868  14.698  14.527
71912ION    NA+37073  29.457  17.571  13.555
71913ION    NA+37074  23.848  43.582  10.830
71914ION    NA+37075  10.798   8.374   3.862
71915ION    NA+37076  34.407  30.161   3.729
71916ION    NA+37077  35.507  37.725   1.109
71917ION    NA+37078  42.909  35.998  12.976
71918ION    NA+37079  21.308  25.642  13.469
71919ION    NA+37080  40.006  32.253  14.647
71920ION    NA+37081  39.012  30.397   2.968
71921ION    NA+37082  26.307  37.836   9.462
71922ION    NA+37083   6.053  12.174  12.147
71923ION    NA+37084  36.265  28.508  12.853
71924ION    NA+37085   5.135  33.971  12.635
71925ION    NA+37086   1.199  44.041  12.725
71926ION    NA+37087   1.725  23.037  13.384
71927ION    NA+37088  34.982  23.789  10.770
71928ION    NA+37089   8.997   7.567   2.426
71929ION    NA+37090  13.299   8.760   4.147
71930ION    NA+37091  36.183  13.224   4.145
71931ION    NA+37092   2.008  17.992   2.705
71932ION    NA+37093   4.481   4.781   2.851
71933ION    NA+37094   5.134  31.591   2.533
71934ION    NA+37095  31.066  11.359  13.797
71935ION    NA+37096  17.576  10.115   4.370
71936ION    NA+37097   8.630   0.778   2.312
71937ION    NA+37098  25.277  32.382   3.388
71938ION    NA+37099  10.791  23.002  12.212
71939ION    NA+37100   0.678  28.793  14.630
71940ION    NA+37101   1.425  18.490  13.118
71941ION    NA+37102   5.842  37.080   4.377
71942ION    NA+37103  10.861  32.855   0.298
71943ION    NA+37104  31.104   6.920   1.322
71944ION    NA+37105  16.256  14.586  14.976
71945ION    NA+37106  29.624  22.151   3.721
71946ION    NA+37107  36.062  31.505  11.581
71947ION    NA+37108   8.677  29.186   2.246
71948ION    NA+37109   3.914  17.372  14.440
71949ION    NA+37110  15.062  16.265   3.548
71950ION    NA+37111  33.107  37.432  12.670
71951ION    NA+37112  25.281  17.158   2.782
71952ION    NA+37113   8.560   0.280  14.761
71953ION    NA+37114  37.466  15.642   3.469
71954ION    NA+37115  33.067  18.704   2.721
71955ION    NA+37116  37.800  41.943   4.476
71956ION    NA+37117  16.297  38.263   0.936
71957ION    NA+37118   3.450   8.354   1.391
71958ION    NA+37119  12.376  23.107   3.117
71959ION    NA+37120  30.856  32.316   0.515
71960ION    NA+37121   5.459  29.373   1.531
71961ION    NA+37122  27.594  23.791   4.782
71962ION    NA+37123   8.016  13.083  10.729
71963ION    NA+37124  31.522  13.534   1.170
71964ION    NA+37125  11.541   7.464  13.360
71965ION    NA+37126  38.811  33.566   3.315
71966ION    NA+37127  20.453  27.863   0.897
71967ION    NA+37128  20.288   8.782  13.551
71968ION    NA+37129  43.774  41.427  12.447
71969ION    NA+37130  10.095   5.191  12.396
71970ION    NA+37131  11.829  16.949   0.097
71971ION    NA+37132  28.239  28.315   2.744
71972ION    NA+37133  25.958  27.694   0.220
71973ION    NA+37134  13.358  38.769   5.319
71974ION    NA+37135  29.189  11.750   9.389
71975ION    NA+37136  28.411  26.160   1.766
71976ION    NA+37137  23.104  41.620   1.197
71977ION    NA+37138  16.180  24.957  12.024
71978ION    NA+37139   2.067  28.029  14.234
71979ION    NA+37140  10.246  31.510   1.556
71980ION    NA+37141  27.905  18.293   4.192
71981ION    NA+37142  19.246  21.680  10.085
71982ION    NA+37143   9.233  19.503  12.320
71983ION    NA+37144  26.770  23.573  14.885
71984ION    NA+37145  15.509  16.905  13.630
71985ION    NA+37146  12.382  13.249   1.194
71986ION    NA+37147   2.287  37.310  11.678
71987ION    NA+37148  36.242  22.033   0.536
71988ION    NA+37149  43.298   6.368  13.715
71989ION    NA+37150  33.359  23.469  14.083
71990ION    NA+37151  34.574  13.418   0.690
71991ION    NA+37152  40.732  13.167   3.192
71992ION    NA+37153  33.747  15.670   1.719
71993ION    NA+37154   4.640  34.818   3.830
71994ION    NA+37155  44.565  24.451  12.258
71995ION    NA+37156  31.624  15.756   0.299
71996ION    NA+37157  36.059  40.010  14.431
71997ION    NA+37158  43.964  31.379  14.470
71998ION    NA+37159  16.884  30.320  14.324
71999ION    NA+37160   3.554  38.339  10.751
72000ION    NA+37161  10.785  18.669   2.916
72001ION    NA+37162  15.036   9.111   1.189
72002ION    NA+37163  35.333  26.797  10.294
72003ION    NA+37164  29.710  27.318  10.755
72004ION    NA+37165   4.551  20.464   1.560
72005ION    NA+37166  43.879  17.036  13.245
72006ION    NA+37167  16.294   0.195  13.885
72007ION    NA+37168   5.318  43.668   3.039
72008ION    NA+37169   6.595   1.671   2.054
72009ION    NA+37170  23.925  42.577   0.769
72010ION    NA+37171  14.133  34.451  13.912
72011ION    NA+37172  39.512  15.207   2.869
72012ION    NA+37173  38.659  29.936   0.880
72013ION    NA+37174  28.877   7.764   2.742
72014ION    NA+37175  31.033  13.595   4.891
72015ION    NA+37176  35.879  12.129  14.769
72016ION    NA+37177  12.551  22.221   3.547
72017ION    NA+37178  24.237  36.626   1.646
72018ION    NA+37179  11.954  23.421   4.586
72019ION    NA+37180  28.530   0.367   3.202
72020ION    NA+37181   0.386  14.326  13.966
72021ION    NA+37182  33.024   3.408  10.734
72022ION    NA+37183  30.515  21.250   0.009
72023ION    NA+37184  22.649   0.263  14.781
72024ION    NA+37185  14.060  16.077   0.349
72025ION    NA+37186  12.308  17.769   0.525
72026ION    NA+37187  20.456  10.158  10.387
72027ION    NA+37188  41.903   7.877   1.260
72028ION    NA+37189   9.397   8.709  12.690
72029ION    NA+37190  34.961  26.674  12.967
72030ION    NA+37191  25.399  15.576   2.795
72031ION    NA+37192  35.836  26.587   1.316
72032ION    NA+37193  31.353   8.655  12.168
72033ION    NA+37194   7.930  37.021   2.825
72034ION    NA+37195  18.624  10.027   3.227
72035ION    NA+37196   2.830  43.695   3.066
72036ION    NA+37197   2.199  36.906  13.416
72037ION    NA+37198  43.394   7.428   4.502
72038ION    NA+37199  36.866   9.918  13.530
72039ION    NA+37200  35.803   5.192  10.676
72040ION    NA+37201  29.754  42.960  14.914
72041ION    NA+37202   6.426  39.545   3.744
72042ION    NA+37203  29.691   5.215   4.017
72043ION    NA+37204  43.944  27.842  13.916
72044ION    NA+37205   6.301  20.364   4.508
72045ION    NA+37206  21.591  15.650   2.057
72046ION    NA+37207  28.521  36.861   0.493
72047ION    NA+37208  14.330  17.473   0.489
72048ION    NA+37209   2.563  17.856   5.427
72049ION    NA+37210  22.445  28.061  11.661
72050ION    NA+37211  43.501  41.525   4.454
72051ION    NA+37212   1.799   8.199   0.178
72052ION    NA+37213   2.627   8.116   4.300
72053ION    NA+37214  44.537   3.878  11.204
72054ION    NA+37215  14.555   2.629   3.373
72055ION    NA+37216  30.441   3.055  13.968
72056ION    NA+37217  27.614  40.544   3.640
72057ION    NA+37218  41.631   5.338   1.674
72058ION    NA+37219  18.960  38.419   0.574
72059ION    NA+37220  44.158  21.816  13.859
72060ION    NA+37221  26.235   8.472   0.513
72061ION    NA+37222  41.213  33.427  14.505
72062ION    NA+37223  25.296  34.489  12.537
72063ION    NA+37224  19.723  35.429   2.722
72064ION    NA+37225  21.060  34.644  13.425
72065ION    NA+37226  11.026  26.734  11.165
72066ION    NA+37227  30.201  11.574   3.677
72067ION    NA+37228  43.339  31.280  13.566
72068ION    NA+37229  36.388   1.656  11.670
72069ION    NA+37230  41.768  13.714   4.368
72070ION    NA+37231   2.217  41.346  13.447
72071ION    NA+37232  44.606  39.758   1.824
72072ION    NA+37233   5.569  34.330  11.921
72073ION    NA+37234  29.976  23.752  11.927
72074ION    NA+37235   2.368  23.906   3.642
72075ION    NA+37236  43.969  23.995   0.396
72076ION    NA+37237   2.026   3.614   4.644
72077ION    NA+37238  32.570  24.061   3.225
72078ION    NA+37239  30.422  44.243   2.565
72079ION    NA+37240   9.769   3.436  12.068
72080ION    NA+37241  26.215  19.252  13.439
72081ION    NA+37242  36.319  44.842  11.995
72082ION    NA+37243  22.876  44.597  11.572
72083ION    NA+37244  25.835  30.273   3.678
72084ION    NA+37245  13.557  41.538   3.931
72085ION    NA+37246  13.147  39.377   3.191
72086ION    NA+37247   0.439   5.819  10.698
72087ION    NA+37248  32.255  17.481   3.398
72088ION    NA+37249  33.016  43.677  11.200
72089ION    NA+37250  41.120  23.134  13.473
72090ION    NA+37251  28.060  38.232   0.256
72091ION    NA+37252  14.851  38.668   0.865
72092ION    NA+37253  24.166   7.348   4.127
72093ION    NA+37254  40.581  19.454   1.305
72094ION    NA+37255  15.354  24.205   2.184
72095ION    NA+37256  32.177   5.110   0.592
72096ION    NA+37257  22.563   1.014  10.765
72097ION    NA+37258   1.009  40.943   4.212
72098ION    NA+37259  24.725  36.622  13.095
72099ION    NA+37260   9.013   8.017   4.483
72100ION    NA+37261  16.100  27.703  14.841
72101ION    NA+37262   2.544  33.544   1.940
72102ION    NA+37263   1.451  17.909  11.147
72103ION    NA+37264  20.878   4.789  12.990
72104ION    NA+37265   2.241   4.161  14.687
72105ION    NA+37266   7.910  22.006  11.287
72106ION    NA+37267  26.108  13.085  13.369
72107ION    NA+37268  18.820  10.202   1.709
72108ION    NA+37269  18.836  35.326   2.612
72109ION    NA+37270  34.899   6.682  13.018
72110ION    NA+37271  33.644   9.029  10.360
72111ION    NA+37272  40.837  10.885   2.673
72112ION    NA+37273  15.567   6.765   3.368
72113ION    NA+37274  40.385  31.984   1.894
72114ION    NA+37275  14.451   9.452   0.065
72115ION    NA+37276  33.184  37.106   4.781
72116ION    NA+37277   2.682  44.263  14.102
72117ION    NA+37278   0.178   0.420   4.197
72118ION    NA+37279   5.887   9.996  14.560
72119ION    NA+37280  42.859  26.032   0.323
72120ION    NA+37281  32.034  27.408   4.041
72121ION    NA+37282   6.471  25.332   3.278
72122ION    NA+37283  30.449  19.783   0.003
72123ION    NA+37284  44.210  25.544  13.908
72124ION    NA+37285   2.878  13.236   1.487
72125ION    NA+37286  14.410   5.907  11.225
72126ION    NA+37287  14.877   3.317   2.952
72127ION    NA+37288   3.404   1.183   2.920
72128ION    NA+37289  36.314  29.824   0.014
72129ION    NA+37290  42.102  14.312  10.703
72130ION    NA+37291  36.475   6.154   4.244
72131ION    NA+37292  38.809  17.555  12.529
72132ION    NA+37293   6.517  34.652  11.626
72133ION    NA+37294  29.927  41.813   3.251
72134ION    NA+37295   9.353  23.212  10.910
72135ION    NA+37296  41.936  31.657   0.731
72136ION    NA+37297  41.313  36.371   3.909
72137ION    NA+37298  43.649  20.475  12.939
72138ION    NA+37299  40.649  11.795  11.967
72139ION    NA+37300  13.689  36.751  14.160
72140ION    NA+37301   8.883  11.920   0.024
72141ION    NA+37302  38.410  43.110  12.472
72142ION    NA+37303  20.990  26.535   3.749
72143ION    NA+37304   6.346   4.741  11.140
72144ION    NA+37305  24.483  34.530   0.806
72145ION    NA+37306  40.759  31.639  11.594
72146ION    NA+37307  17.136   8.384  13.892
72147ION    NA+37308  27.428  39.420  13.397
72148ION    NA+37309   4.829   9.366  14.307
72149ION    NA+37310   5.757  29.180   0.340
72150ION    NA+37311  29.582   7.627  14.398
72151ION    NA+37312  32.017  27.313   2.758
72152ION    NA+37313  25.246  28.528  12.489
72153ION    NA+37314   2.149  20.186   3.621
72154ION    NA+37315  12.201  12.257   4.682
72155ION    NA+37316  41.309  31.249   3.003
72156ION    NA+37317  42.696   1.159  11.767
72157ION    NA+37318  43.215  15.403   1.816
72158ION    NA+37319  12.773  33.009   1.401
72159ION    NA+37320  15.601  15.683   2.871
72160ION    NA+37321  32.398  43.652  13.986
72161ION    NA+37322   3.384   9.499  10.218
72162ION    NA+37323  36.323  39.831   2.180
72163ION    NA+37324   0.889  24.519  13.940
72164ION    NA+37325  39.060  16.317  12.002
72165ION    NA+37326  17.652  12.621   4.686
72166ION    NA+37327  21.462   4.951  14.307
72167ION    NA+37328   0.203   4.098   4.003
72168ION    NA+37329  42.805  19.294   5.155
72169ION    NA+37330   2.708  39.623   4.244
72170ION    NA+37331  39.088   5.880  10.002
72171ION    NA+37332   8.715   3.014   1.223
72172ION    NA+37333  35.737  13.562   1.561
72173ION    NA+37334  10.601   4.548  12.146
72174ION    NA+37335  22.271  15.599   0.787
72175ION    NA+37336  24.462   7.476  12.605
72176ION    NA+37337  25.330  44.733   4.646
72177ION    NA+37338  24.973   4.781   4.312
72178ION    NA+37339  21.172  32.988   1.830
72179ION    NA+37340  18.528   1.606   0.188
72180ION    NA+37341  37.146  34.413  10.724
72181ION    NA+37342  25.030  31.532   4.514
72182ION    NA+37343   3.080  21.580  12.005
72183ION    NA+37344   4.815  16.699  11.035
72184ION    NA+37345  29.073   6.348   4.193
72185ION    NA+37346  38.188   0.708   4.532
72186ION    NA+37347  17.385  44.261  10.606
72187ION    NA+37348  13.426  29.288   1.683
72188ION    NA+37349  24.468  10.134  12.441
72189ION    NA+37350   1.117  11.856   1.898
72190ION    NA+37351  43.555  32.902   0.970
72191ION    NA+37352   5.232  28.451   2.614
72192ION    NA+37353  24.668  39.845   1.816
72193ION    NA+37354  26.426  12.553   0.494
72194ION    NA+37355  11.148  31.427   3.144
72195ION    NA+37356  37.314   7.839  14.336
72196ION    NA+37357  41.688   2.871  11.045
72197ION    NA+37358  32.616   2.089  14.844
72198ION    NA+37359  44.327  22.999   3.048
72199ION    NA+37360  21.190  42.909  10.923
72200ION    NA+37361   9.780  32.508  12.545
72201ION    NA+37362  11.825   2.280   3.360
72202ION    NA+37363  10.773  17.750  11.691
72203ION    NA+37364  31.793  15.652  11.799
72204ION    NA+37365  44.423   0.952   2.455
72205ION    NA+37366  43.495  22.597  13.564
72206ION    NA+37367   4.047   1.325  12.516
72207ION    NA+37368  16.838  42.746  14.077
72208ION    NA+37369   0.953   7.904  13.386
72209ION    NA+37370  12.814  25.045   0.838
72210ION    NA+37371   1.109   4.894   3.484
72211ION    NA+37372  20.259  43.967   0.931
72212ION    NA+37373  40.793  35.059   4.075
72213ION    NA+37374  36.373   1.349  12.881
72214ION    NA+37375  32.351  22.541   0.936
72215ION    NA+37376  13.960  15.941   4.143
72216ION    NA+37377   7.927  36.913   4.522
72217ION    NA+37378  31.062  22.976  12.433
72218ION    NA+37379  15.211  17.036   1.269
72219ION    NA+37380  13.856  31.924  14.339
72220ION    NA+37381   1.392   4.795  11.176
72221ION    NA+37382  16.582  10.543   1.357
72222ION    NA+37383  30.302   8.947  12.058
72223ION    NA+37384   7.326  14.627  11.941
72224ION    NA+37385  23.833  44.880  11.623
72225ION    NA+37386  15.149   2.561  12.365
72226ION    NA+37387  19.478  38.011   1.073
72227ION    NA+37388  14.680   3.273   1.967
72228ION    NA+37389  12.133  17.952  11.705
72229ION    NA+37390  30.421  17.304   3.140
72230ION    NA+37391  26.408   1.400   0.807
72231ION    NA+37392  36.928  15.185   4.763
72232ION    NA+37393  19.720   6.798  13.048
72233ION    NA+37394  44.728  24.309   2.256
72234ION    NA+37395   3.210  21.933   4.600
72235ION    NA+37396  29.015  39.817   3.630
72236ION    NA+37397  35.390  29.327  13.308
72237ION    NA+37398  11.242  34.684  13.449
72238ION    NA+37399   2.525  10.308   1.341
72239ION    NA+37400  34.801  28.742   2.220
72240ION    NA+37401  19.692  37.962  11.205
72241ION    NA+37402  43.051   1.732   0.213
72242ION    NA+37403  34.465   4.691  12.070
72243ION    NA+37404  26.014   5.426   2.705
72244ION    NA+37405  17.647  30.715  11.549
72245ION    NA+37406  40.712  23.698   4.504
72246ION    NA+37407  15.246   7.134  13.886
72247ION    NA+37408   2.166   0.909  11.629
72248ION    NA+37409  34.651  33.159   0.571
72249ION    NA+37410   4.536  26.080  12.621
72250ION    NA+37411  10.373   0.119   3.569
72251ION    NA+37412   0.854  37.041   0.391
72252ION    NA+37413  28.042  11.864  11.955
72253ION    NA+37414  26.465  44.954   2.188
72254ION    NA+37415   2.260  44.648  14.752
72255ION    NA+37416  21.097   1.926  12.893
72256ION    NA+37417  38.137  12.616   9.516
72257ION    NA+37418  39.614  27.610  13.773
72258ION    NA+37419  30.084  18.545   0.551
72259ION    NA+37420  12.266  28.676   3.712
72260ION    NA+37421  33.870  29.320   3.666
72261ION    NA+37422  23.992  24.014  12.595
72262ION    NA+37423  40.540  26.499   1.024
72263ION    NA+37424  10.195  28.507  13.865
72264ION    NA+37425  19.839   0.830   2.362
72265ION    NA+37426  39.335  28.374  10.550
72266ION    NA+37427  39.264  26.373  14.723
72267ION    NA+37428  16.022   4.964   1.423
72268ION    NA+37429  40.681  18.352   0.319
72269ION    NA+37430  44.756  34.121   5.504
72270ION    NA+37431   3.990  26.332   2.565
72271ION    NA+37432  21.660  34.473   0.434
72272ION    NA+37433  25.137  23.657   0.974
72273ION    NA+37434  14.304   0.525  11.598
72274ION    NA+37435  26.835  27.399  13.015
72275ION    NA+37436  32.583  12.013   3.673
72276ION    NA+37437  20.921   4.544   2.646
72277ION    NA+37438  12.858   9.419  12.702
72278ION    NA+37439   0.560   2.837   0.675
72279ION    NA+37440  36.117   1.221  14.923
72280ION    NA+37441  36.785  39.990   1.123
72281ION    NA+37442  24.790  11.060  12.642
72282ION    NA+37443  11.235  16.401  12.413
72283ION    NA+37444  18.505  44.525  14.282
72284ION    NA+37445  34.928   0.316   0.512
72285ION    NA+37446  12.365   2.231   1.212
72286ION    NA+37447  13.273  43.421   1.014
72287ION    NA+37448  24.066  17.888   2.899
72288ION    NA+37449  38.565  29.398  10.083
72289ION    NA+37450  20.561  19.153  11.443
72290ION    NA+37451  10.353  11.401   1.255
72291ION    NA+37452  19.649  35.291   1.344
72292ION    NA+37453  31.720   8.445   2.055
72293ION    NA+37454  22.159  26.023  12.657
72294ION    NA+37455  44.434   1.939   4.150
72295ION    NA+37456  15.133  22.202   3.583
72296ION    NA+37457  36.655   1.881   4.298
72297ION    NA+37458  39.899  30.886   2.976
72298ION    NA+37459  31.649  23.249   0.341
72299ION    NA+37460  11.432  38.182   2.547
72300ION    NA+37461  27.736  23.079   4.094
72301ION    NA+37462  30.552  12.657   2.169
72302ION    NA+37463  33.935   3.402   1.276
72303ION    NA+37464  29.494   7.089   2.148
72304ION    NA+37465  10.199  22.182  10.802
72305ION    NA+37466  43.228  28.416   2.422
72306ION    NA+37467   9.125   7.394  13.100
72307ION    NA+37468  41.577  14.573   4.136
72308ION    NA+37469  12.622  25.020  10.594
72309ION    NA+37470  30.580  25.228   5.456
72310ION    NA+37471  41.446  44.209   3.202
72311ION    NA+37472  19.808   7.639   1.702
72312ION    NA+37473  40.450  31.863   4.111
72313ION    NA+37474  44.807  36.504  13.960
72314ION    NA+37475   0.839   8.444   4.162
72315ION    NA+37476  29.403  44.709  14.976
72316ION    NA+37477  32.713  18.193  14.143
72317ION    NA+37478  19.941  41.371   0.837
72318ION    NA+37479  33.309  34.284   1.977
72319ION    NA+37480  11.660  27.506   1.539
72320ION    NA+37481  13.682   0.613   1.012
72321ION    NA+37482  36.665  26.197  12.582
72322ION    NA+37483  17.759  44.010   9.476
72323ION    NA+37484   1.900  13.455   2.739
72324ION    NA+37485   6.970  13.714   4.698
72325ION    NA+37486  34.743   4.877   1.743
72326ION    NA+37487  21.447   8.671  12.548
72327ION    NA+37488   6.218   5.895  13.728
72328ION    NA+37489  36.476  31.404   4.541
72329ION    NA+37490   0.905  36.918  13.524
72330ION    NA+37491  26.126   7.909  12.838
72331ION    NA+37492  38.722  27.911  11.209
72332ION    NA+37493  12.996   0.311  10.260
72333ION    NA+37494  25.701  28.374   2.270
72334ION    NA+37495  14.618  24.552   0.678
72335ION    NA+37496  11.882  16.510  11.200
72336ION    NA+37497  10.354   0.721  10.221
72337ION    NA+37498  36.694  27.859  11.259
72338ION    NA+37499  31.002  31.003   1.243
72339ION    NA+37500  42.379  30.638   2.650
72340ION    NA+37501  15.973  18.485   0.963
72341ION    NA+37502  16.327  35.107   0.735
72342ION    NA+37503  32.258   0.745  11.728
72343ION    NA+37504  31.073  19.481   2.759
72344ION    NA+37505  17.275  21.048   4.630
72345ION    NA+37506  36.699  16.152   1.900
72346ION    CL-37507   7.084   1.769  13.800
72347ION    CL-37508   7.050  11.300  13.311
72348ION    CL-37509  22.666   4.894  12.192
72349ION    CL-37510  37.422   1.897   1.737
72350ION    CL-37511  17.993  35.758   1.887
72351ION    CL-37512  11.206  29.190   1.805
72352ION    CL-37513   3.869  35.121  13.342
72353ION    CL-37514  25.435  40.608   0.279
72354ION    CL-37515  12.184  29.807   1.745
72355ION    CL-37516  32.107  17.957   4.632
72356ION    CL-37517   0.336   2.966   1.051
72357ION    CL-37518  33.580  39.537  14.454
72358ION    CL-37519  43.215  41.217   1.577
72359ION    CL-37520  15.171  43.381   0.496
72360ION    CL-37521  32.118  24.947   4.057
72361ION    CL-37522   4.980  28.924   9.835
72362ION    CL-37523  17.682  29.475  11.981
72363ION    CL-37524  26.015  39.055  13.805
72364ION    CL-37525  24.886  13.375   3.408
72365ION    CL-37526   4.678  13.434  14.332
72366ION    CL-37527   4.963  20.550   1.710
72367ION    CL-37528  21.767  24.401   2.234
72368ION    CL-37529   6.836   8.152  11.949
72369ION    CL-37530  41.634  37.909   1.716
72370ION    CL-37531  27.472   6.940   3.785
72371ION    CL-37532  16.692  42.770  14.497
72372ION    CL-37533   3.485  12.898  12.283
72373ION    CL-37534  34.886   6.917   1.282
72374ION    CL-37535   3.454  37.276   4.853
72375ION    CL-37536  20.940  22.745   1.153
72376ION    CL-37537  16.077   9.900   3.280
72377ION    CL-37538  36.936  29.906  13.312
72378ION    CL-37539  28.590  27.004  14.872
72379ION    CL-37540  40.066   3.756   4.463
72380ION    CL-37541  25.580  14.480   3.022
72381ION    CL-37542  21.026  42.760  10.528
72382ION    CL-37543   5.417   0.189   1.196
72383ION    CL-37544  27.287  20.009   2.922
72384ION    CL-37545  37.220  30.968  12.549
72385ION    CL-37546  28.838  32.647   1.217
72386ION    CL-37547  27.457  13.101   2.409
72387ION    CL-37548   5.663  22.562  13.395
72388ION    CL-37549   3.240  41.925   0.376
72389ION    CL-37550  10.348  18.778   3.008
72390ION    CL-37551  38.458   1.016   4.728
72391ION    CL-37552  29.880   1.009  11.134
72392ION    CL-37553  15.813  20.271  11.100
72393ION    CL-37554   7.938  37.324  11.714
72394ION    CL-37555  20.604  34.150  12.063
72395ION    CL-37556  41.055  42.114  13.115
72396ION    CL-37557  14.814  40.739  10.053
72397ION    CL-37558  32.031  36.337  11.132
72398ION    CL-37559  34.148  21.036  11.569
72399ION    CL-37560  41.999  28.505  12.180
72400ION    CL-37561  13.192  36.909   2.444
72401ION    CL-37562  21.211  31.137   3.036
72402ION    CL-37563  22.375  18.626  14.102
72403ION    CL-37564   3.997  44.515   0.038
72404ION    CL-37565   3.080   2.917   2.490
72405ION    CL-37566  13.957  18.917   2.935
72406ION    CL-37567  29.139  15.961  14.653
72407ION    CL-37568  41.279  24.261   2.098
72408ION    CL-37569  36.908  30.483   4.009
72409ION    CL-37570  39.956  33.623  12.189
72410ION    CL-37571  19.045  26.012  11.446
72411ION    CL-37572  13.841  29.489  12.446
72412ION    CL-37573   8.475  32.249   4.079
72413ION    CL-37574  40.604   8.793   5.024
72414ION    CL-37575  35.347  41.799  12.068
72415ION    CL-37576  14.216  41.003  11.977
72416ION    CL-37577  21.942  19.018  11.183
72417ION    CL-37578  34.415  31.655   0.219
72418ION    CL-37579  10.453  25.928   1.831
72419ION    CL-37580  27.248  10.513   4.898
72420ION    CL-37581  30.823  24.897   5.264
72421ION    CL-37582  12.147  34.484   3.672
72422ION    CL-37583  24.090  13.850  13.344
72423ION    CL-37584  38.501  37.255   1.660
72424ION    CL-37585  31.473  40.981   0.481
72425ION    CL-37586   9.336   6.528   0.004
72426ION    CL-37587  42.924   5.290  13.101
72427ION    CL-37588  20.074  14.779   0.301
72428ION    CL-37589   0.305   6.790  14.197
72429ION    CL-37590   1.508  11.181  13.905
72430ION    CL-37591  36.237  31.730   4.317
72431ION    CL-37592  35.802   3.872   0.620
72432ION    CL-37593  32.727   7.356   2.442
72433ION    CL-37594  14.262  14.793  11.978
72434ION    CL-37595   1.768  37.800   4.275
72435ION    CL-37596   5.367  26.123   1.832
72436ION    CL-37597  26.144   2.906   4.511
72437ION    CL-37598  26.607  42.726  10.512
72438ION    CL-37599  44.030   2.890   1.345
72439ION    CL-37600  27.850   5.295   4.118
72440ION    CL-37601  20.184  39.990   4.181
72441ION    CL-37602  19.206   6.771   2.661
72442ION    CL-37603  38.853  10.111  12.016
72443ION    CL-37604   5.775  27.232   1.328
72444ION    CL-37605  21.297  11.743   1.386
72445ION    CL-37606  18.737  14.253   4.043
72446ION    CL-37607  32.676  33.772  14.395
72447ION    CL-37608  19.781  29.957  11.081
72448ION    CL-37609  36.877   3.420   2.112
72449ION    CL-37610  17.228  30.969   5.058
72450ION    CL-37611  33.141   8.908  13.283
72451ION    CL-37612  37.080  24.537  14.970
72452ION    CL-37613  35.835  39.793   3.585
72453ION    CL-37614  22.021  15.268   0.952
72454ION    CL-37615  21.832  15.917  10.892
72455ION    CL-37616  24.888  31.801   4.179
72456ION    CL-37617  30.443   5.090   1.845
72457ION    CL-37618   9.751  21.379   2.700
72458ION    CL-37619  27.448  30.429   4.170
72459ION    CL-37620   3.360   8.691   1.673
72460ION    CL-37621   5.759  17.379   2.630
72461ION    CL-37622  10.680  26.449  11.102
72462ION    CL-37623   5.048  35.771   4.694
72463ION    CL-37624  14.199  33.835   1.342
72464ION    CL-37625  14.800  34.632  12.552
72465ION    CL-37626  26.471  27.386  13.289
72466ION    CL-37627  27.058   9.342  14.317
72467ION    CL-37628  32.624  29.588   4.898
72468ION    CL-37629  15.944  35.536   3.980
72469ION    CL-37630   3.005  36.120   4.884
72470ION    CL-37631  44.732  35.376   4.066
72471ION    CL-37632  29.046  35.881   3.353
72472ION    CL-37633  12.623   0.411  12.375
72473ION    CL-37634  19.339  38.170  11.405
72474ION    CL-37635   4.886   8.166   3.317
72475ION    CL-37636  11.913  15.289   0.457
72476ION    CL-37637  34.148  41.223  11.908
72477ION    CL-37638  23.145  29.669  10.737
72478ION    CL-37639  35.940   2.690  14.778
72479ION    CL-37640  43.366  33.798  10.617
72480ION    CL-37641  15.092  11.364  12.953
72481ION    CL-37642  33.325  41.130  12.943
72482ION    CL-37643  34.766  32.990   0.977
72483ION    CL-37644   9.257  36.325   2.026
72484ION    CL-37645  29.999  42.645  12.391
72485ION    CL-37646  40.498   6.481  14.556
72486ION    CL-37647  26.110  32.929   4.091
72487ION    CL-37648  28.475  29.069  13.022
72488ION    CL-37649  15.466  17.079   9.769
72489ION    CL-37650  42.926  32.156   2.260
72490ION    CL-37651  20.786  15.716  13.620
72491ION    CL-37652  25.230  30.714  11.263
72492ION    CL-37653  12.265  19.001   1.382
72493ION    CL-37654  16.500  14.769   1.430
72494ION    CL-37655  28.681  14.552   3.592
72495ION    CL-37656  36.183  17.709  11.383
72496ION    CL-37657  37.041  22.896   3.579
72497ION    CL-37658  30.659  25.142  13.504
72498ION    CL-37659  20.486  34.225   2.762
72499ION    CL-37660  29.875   9.110  12.083
72500ION    CL-37661  41.578  28.671  14.511
72501ION    CL-37662  13.110  14.599   1.741
72502ION    CL-37663  30.956  20.940  10.247
72503ION    CL-37664   7.608   4.284   1.232
72504ION    CL-37665  16.041  22.256  11.172
72505ION    CL-37666  31.678   1.811   2.243
72506ION    CL-37667  40.254  11.855  13.591
72507ION    CL-37668   7.686  34.639  11.855
72508ION    CL-37669  17.719  14.691  12.377
72509ION    CL-37670  18.218  42.937   3.876
72510ION    CL-37671  44.339  13.200   5.471
72511ION    CL-37672  42.261  27.069  13.851
72512ION    CL-37673  42.596  25.868   0.645
72513ION    CL-37674   7.958  41.465   2.660
72514ION    CL-37675  41.610  20.056   1.779
72515ION    CL-37676  23.106  41.591   4.108
72516ION    CL-37677  11.954   7.291  13.336
72517ION    CL-37678   6.612   4.897   4.864
72518ION    CL-37679  15.419  43.436  11.637
72519ION    CL-37680  40.507  23.905   1.780
72520ION    CL-37681  11.866  15.287   2.719
72521ION    CL-37682  25.750  15.791   2.618
72522ION    CL-37683  29.002   1.012  11.207
72523ION    CL-37684  34.966  44.515   1.710
72524ION    CL-37685  28.204  44.805  12.854
72525ION    CL-37686   3.810  22.119   0.445
72526ION    CL-37687  41.242  22.586  12.541
72527ION    CL-37688   3.736  18.127   3.186
72528ION    CL-37689   3.417  24.284   4.343
72529ION    CL-37690  22.929  33.329   2.933
72530ION    CL-37691  29.758  24.998   2.736
72531ION    CL-37692  39.938   9.691   1.355
72532ION    CL-37693  15.561  17.233   1.029
72533ION    CL-37694  16.938   4.038  12.573
72534ION    CL-37695  23.899  12.182  11.653
72535ION    CL-37696  37.986  34.343   2.596
72536ION    CL-37697  44.751  18.881  14.390
72537ION    CL-37698   1.605   4.916  10.801
72538ION    CL-37699  33.514  42.852  13.006
72539ION    CL-37700  16.351   1.741   1.700
72540ION    CL-37701   7.488  29.819   1.388
72541ION    CL-37702  11.240  36.153   4.069
72542ION    CL-37703  21.911  16.601   2.089
72543ION    CL-37704   0.131  12.092  12.250
72544ION    CL-37705  41.918  23.814  12.073
72545ION    CL-37706  15.823  34.828   4.572
72546ION    CL-37707  32.719  18.650  14.155
72547ION    CL-37708  13.130  15.295  11.298
72548ION    CL-37709   3.508  14.839   0.728
72549ION    CL-37710  37.007  30.368   1.230
72550ION    CL-37711  39.354  16.317  11.666
72551ION    CL-37712  38.745  30.729   2.806
72552ION    CL-37713  19.981  15.713   9.245
72553ION    CL-37714   2.271   1.925  12.581
72554ION    CL-37715   7.055  43.028   5.146
72555ION    CL-37716   9.131  17.992  13.330
72556ION    CL-37717  26.476  15.601  14.237
72557ION    CL-37718  29.701  28.477   4.149
72558ION    CL-37719  25.031  44.803   1.868
72559ION    CL-37720  28.472  25.767  12.416
72560ION    CL-37721  30.657  28.016   2.256
72561ION    CL-37722  43.456  41.206   4.131
72562ION    CL-37723  28.517  25.167  13.268
72563ION    CL-37724  22.256  27.588   4.146
72564ION    CL-37725   8.280  30.122  14.722
72565ION    CL-37726   4.225  20.842  11.167
72566ION    CL-37727  31.825   8.794   1.800
72567ION    CL-37728   1.085  11.413   1.866
72568ION    CL-37729   9.858  22.468  10.708
72569ION    CL-37730  26.548  40.873  12.948
72570ION    CL-37731  39.392   3.225  11.283
72571ION    CL-37732  25.480  38.201   1.990
72572ION    CL-37733  23.187  41.744   0.749
72573ION    CL-37734  14.187   9.330  13.809
72574ION    CL-37735   5.062   1.280  13.500
72575ION    CL-37736  42.468  19.351  13.754
72576ION    CL-37737  10.897  36.090  13.877
72577ION    CL-37738   1.986   3.129   3.422
72578ION    CL-37739  18.799  23.854  12.015
72579ION    CL-37740  43.567   0.473  12.984
72580ION    CL-37741  40.809  18.776   0.249
72581ION    CL-37742  21.309  38.646  10.957
72582ION    CL-37743  15.214  39.627  11.806
72583ION    CL-37744  18.612  44.535   3.019
72584ION    CL-37745  20.356   1.361  11.738
72585ION    CL-37746  15.568  29.504  13.520
72586ION    CL-37747  20.273  37.337   1.956
72587ION    CL-37748  38.821   6.267   2.476
72588ION    CL-37749  31.547  19.524   0.927
72589ION    CL-37750  12.039  38.619  13.557
72590ION    CL-37751  15.399  25.210  13.419
72591ION    CL-37752  21.889  22.479   1.319
72592ION    CL-37753  34.480  42.684   1.298
72593ION    CL-37754  38.253  25.747   2.336
72594ION    CL-37755  22.834   0.234   0.195
72595ION    CL-37756   7.704  18.873  13.680
72596ION    CL-37757   0.744  42.287  11.105
72597ION    CL-37758   7.377  41.865   3.458
72598ION    CL-37759  37.704  21.217  10.667
72599ION    CL-37760  25.532  26.638  14.189
72600ION    CL-37761  31.198  25.795  11.186
72601ION    CL-37762  17.575   9.120   0.362
72602ION    CL-37763  36.788  18.740  13.142
72603ION    CL-37764  40.489  29.334   0.828
72604ION    CL-37765  32.537  15.803   4.448
72605ION    CL-37766  15.985  39.551  13.523
72606ION    CL-37767  42.726   3.653   0.135
72607ION    CL-37768  39.194  42.038  11.077
72608ION    CL-37769   0.501  28.856   1.749
72609ION    CL-37770  16.852   7.810   0.018
72610ION    CL-37771  28.309   1.774   1.825
72611ION    CL-37772  33.552  27.915   1.836
72612ION    CL-37773  26.243   7.646   1.805
72613ION    CL-37774   6.643   4.272   0.870
72614ION    CL-37775  25.094  21.073  12.659
72615ION    CL-37776   6.173  12.081   0.646
72616ION    CL-37777  42.821  16.112  10.588
72617ION    CL-37778  32.260  16.397   1.657
72618ION    CL-37779  24.534   9.188   5.378
72619ION    CL-37780  21.488  43.054  11.228
72620ION    CL-37781  43.531   6.006  14.779
72621ION    CL-37782  35.880  44.274  11.164
72622ION    CL-37783   8.583  34.757  10.208
72623ION    CL-37784  36.994   2.152  14.008
72624ION    CL-37785  28.556  41.422  13.560
72625ION    CL-37786  18.542   4.652   4.796
72626ION    CL-37787  38.141  17.890  11.623
72627ION    CL-37788  23.289  13.284   2.098
72628ION    CL-37789  42.187  28.656  10.912
72629ION    CL-37790  28.708  16.817  14.367
72630ION    CL-37791  38.939  24.257  13.785
72631ION    CL-37792  12.186  19.778  14.039
72632ION    CL-37793  41.909   2.471  13.010
72633ION    CL-37794   5.181  17.500   4.187
72634ION    CL-37795  31.818  15.956  11.471
72635ION    CL-37796  37.442   2.870   1.478
72636ION    CL-37797  38.033  21.755   2.180
72637ION    CL-37798  15.948  44.950  13.741
72638ION    CL-37799  32.643   0.814   3.888
72639ION    CL-37800   3.763  39.632  10.685
72640ION    CL-37801  24.154  43.907  10.855
72641ION    CL-37802   2.668  25.711  10.397
72642ION    CL-37803  33.483  30.995  10.764
72643ION    CL-37804  22.629  19.262   3.286
72644ION    CL-37805  40.851   5.674  14.300
72645ION    CL-37806  14.396  15.833   2.235
72646ION    CL-37807  11.106  31.384  13.486
72647ION    CL-37808   8.822  22.340  13.121
72648ION    CL-37809   0.715  14.811   0.871
72649ION    CL-37810  19.674  22.357   0.254
72650ION    CL-37811   0.189  15.593   4.129
72651ION    CL-37812   0.672  28.490  14.302
72652ION    CL-37813   3.308  11.589   0.457
72653ION    CL-37814  24.702  20.798   2.633
72654ION    CL-37815  44.329  44.635  10.826
72655ION    CL-37816  44.717  27.859  14.925
72656ION    CL-37817  25.117  23.286  11.152
72657ION    CL-37818   1.323   8.879  11.112
72658ION    CL-37819  15.186   7.098  11.988
72659ION    CL-37820  36.558  14.935   4.880
72660ION    CL-37821  35.056  32.549   1.727
72661ION    CL-37822   3.297   9.071  10.356
72662ION    CL-37823   6.402   2.906   0.569
72663ION    CL-37824  18.844   5.027   1.962
72664ION    CL-37825  20.184  31.382  14.120
72665ION    CL-37826  11.472  26.737  11.287
72666ION    CL-37827  32.874  19.689  13.819
72667ION    CL-37828   4.730  13.746   3.309
72668ION    CL-37829  13.928  17.520   0.676
72669ION    CL-37830  29.321  23.456   3.495
72670ION    CL-37831  16.613  28.356  10.612
72671ION    CL-37832  41.046  26.868   4.343
72672ION    CL-37833  33.535   3.187   2.574
72673ION    CL-37834   7.501  41.551   1.728
72674ION    CL-37835  14.830  37.293  13.397
72675ION    CL-37836  44.557  26.793  12.847
72676ION    CL-37837  43.991  32.474  13.962
72677ION    CL-37838  30.904  40.880   3.258
72678ION    CL-37839   6.814  42.960   4.178
72679ION    CL-37840   7.895  31.218   2.466
72680ION    CL-37841  42.513  17.740   3.214
72681ION    CL-37842  43.462   0.273  13.783
72682ION    CL-37843  38.317  26.000   3.684
72683ION    CL-37844  34.308   6.218   2.148
72684ION    CL-37845  40.991  15.268  13.117
72685ION    CL-37846  20.488  13.574   3.810
72686ION    CL-37847  43.254  31.698  13.411
72687ION    CL-37848   9.655  21.879  12.451
72688ION    CL-37849   6.920  42.734  11.938
72689ION    CL-37850  11.147  39.450  13.860
72690ION    CL-37851  13.465  16.445   2.765
72691ION    CL-37852  42.325  10.292  12.840
72692ION    CL-37853  44.598  21.741  13.855
72693ION    CL-37854   3.163  36.376   0.570
72694ION    CL-37855  32.632  26.376   4.338
72695ION    CL-37856  38.380  29.572   0.862
72696ION    CL-37857  18.292   7.733   1.884
72697ION    CL-37858   2.896  22.307  14.550
72698ION    CL-37859  17.144  39.111   0.836
72699ION    CL-37860  17.209  15.204   0.875
72700ION    CL-37861   9.308  33.219  13.399
72701ION    CL-37862  31.233  23.152  12.806
72702ION    CL-37863  26.441  20.589   1.211
72703ION    CL-37864   0.017   3.332   1.827
72704ION    CL-37865   7.269   2.869   3.816
72705ION    CL-37866  33.407   4.731  12.981
72706ION    CL-37867  38.416  39.041   2.095
72707ION    CL-37868  40.029   4.897  13.693
72708ION    CL-37869  26.226  31.425   4.416
72709ION    CL-37870  18.920  24.362  11.155
72710ION    CL-37871  13.204   9.259   1.900
72711ION    CL-37872  25.290  32.123   0.273
72712ION    CL-37873  41.463  32.511   1.904
72713ION    CL-37874   3.838   2.894   1.761
72714ION    CL-37875   8.412  16.818  11.832
72715ION    CL-37876  23.990  19.146   3.579
72716ION    CL-37877  40.743  26.140   1.198
72717ION    CL-37878  43.814  17.472  13.120
72718ION    CL-37879  19.523   1.694   0.952
72719ION    CL-37880  14.228   4.651  14.497
72720ION    CL-37881  40.922  20.089   3.367
72721ION    CL-37882  28.582   1.213   0.160
72722ION    CL-37883  19.702  26.288   0.417
72723ION    CL-37884   7.237  17.995   4.629
72724ION    CL-37885  26.958  34.275   3.792
72725ION    CL-37886  41.085  33.806  12.549
72726ION    CL-37887  40.997   5.792  10.669
72727ION    CL-37888  43.547  19.154   2.845
72728ION    CL-37889  13.296  19.068  11.198
72729ION    CL-37890   5.362  34.141  12.281
72730ION    CL-37891  31.324  28.874   1.701
72731ION    CL-37892  24.159   0.376   2.021
72732ION    CL-37893  14.302  34.809   1.142
72733ION    CL-37894  13.416  17.137  10.390
72734ION    CL-37895  30.039   9.364   0.339
72735ION    CL-37896  39.298  19.249  13.513
72736ION    CL-37897  27.731  44.247   9.835
72737ION    CL-37898  28.622  31.952  11.629
72738ION    CL-37899   0.950   6.012  12.937
72739ION    CL-37900  25.998  27.725  14.769
72740ION    CL-37901   8.676  25.180  13.465
72741ION    CL-37902  11.708  44.393   3.654
72742ION    CL-37903   9.712   0.078   1.525
72743ION    CL-37904  13.657  42.450  10.906
72744ION    CL-37905  11.610  35.994   3.154
72745ION    CL-37906  10.670   1.981   3.691
72746ION    CL-37907  15.940  15.616  11.513
72747ION    CL-37908  22.841  39.348   2.175
72748ION    CL-37909  16.814  25.663  10.743
72749ION    CL-37910  38.126  10.731   0.978
72750ION    CL-37911  15.573   8.009  11.604
72751ION    CL-37912  42.452  18.732   3.317
72752ION    CL-37913  39.084  30.085   0.774
72753ION    CL-37914  44.974  36.100  14.043
72754ION    CL-37915   7.471  40.521   0.925
72755ION    CL-37916   7.870   0.356  13.309
72756ION    CL-37917  25.625  30.190   1.415
72757ION    CL-37918  26.183   1.150   0.510
72758ION    CL-37919   1.485  16.236   3.720
72759ION    CL-37920  26.463  24.601  11.236
72760ION    CL-37921  40.451  35.444   0.147
72761ION    CL-37922  23.116   6.971  10.636
72762ION    CL-37923   0.531  38.895   3.723
72763ION    CL-37924  39.180  27.511  13.826
72764ION    CL-37925  41.531   9.358   2.527
72765ION    CL-37926  13.033  25.243  11.680
72766ION    CL-37927  11.746  22.553  13.627
72767ION    CL-37928  26.418  25.532  13.724
72768ION    CL-37929  22.172   8.257   2.510
72769ION    CL-37930  32.353  14.253   3.605
72770ION    CL-37931  26.921   1.255   3.480
72771ION    CL-37932  41.085  34.531   2.757
72772ION    CL-37933  11.348  37.983   2.155
72773ION    CL-37934  34.415  12.692  13.090
72774ION    CL-37935  30.172  38.770   4.022
72775ION    CL-37936  39.259  30.051   3.138
72776ION    CL-37937  13.155  11.398  10.609
72777ION    CL-37938   8.185  32.089  10.755
72778ION    CL-37939  20.394  31.993  11.747
72779ION    CL-37940  10.629  20.742   1.928
72780ION    CL-37941  35.766  37.708   1.489
72781ION    CL-37942  21.863  25.692   0.008
72782ION    CL-37943   1.260  43.628  12.564
72783ION    CL-37944   9.468  23.520  11.216
72784ION    CL-37945  11.661  44.819   4.558
72785ION    CL-37946  35.032  23.283   0.990
72786ION    CL-37947  41.174  32.128   0.165
72787ION    CL-37948  24.816   9.445  11.235
72788ION    CL-37949  37.957  35.647  12.091
72789ION    CL-37950  30.987   3.562   1.883
72790ION    CL-37951  27.308  27.446   1.647
72791ION    CL-37952  36.934  40.330  11.575
72792ION    CL-37953  27.485   3.302   2.861
72793ION    CL-37954  26.392  14.097  13.400
72794ION    CL-37955  25.724  10.637   3.199
72795ION    CL-37956   3.656  37.266  11.689
72796ION    CL-37957   8.946  25.558   9.628
72797ION    CL-37958   3.457  16.284   1.853
72798ION    CL-37959  19.359  36.476  10.379
72799ION    CL-37960  44.882  24.660   2.486
72800ION    CL-37961  37.160  10.161  13.205
72801ION    CL-37962  19.165  19.005  14.890
72802ION    CL-37963  32.762  43.375  13.933
72803ION    CL-37964  44.694  20.139   2.836
72804ION    CL-37965  22.140   7.023   3.019
72805ION    CL-37966  38.712  35.757   1.907
72806ION    CL-37967  25.653  20.577  10.945
72807ION    CL-37968  43.455  24.887   1.465
72808ION    CL-37969  15.084   9.137  11.169
72809ION    CL-37970   8.380  29.193  11.618
72810ION    CL-37971  26.588  14.995   3.704
72811ION    CL-37972  43.279  39.868   2.055
72812ION    CL-37973   3.004   6.739  12.471
72813ION    CL-37974  34.197  42.058  11.565
72814ION    CL-37975  43.156   5.443  11.078
72815ION    CL-37976  39.042   1.729  13.038
72816ION    CL-37977  27.178  22.344   0.307
72817ION    CL-37978  24.037   7.073  13.546
72818ION    CL-37979  20.172  28.928  11.833
72819ION    CL-37980  38.101  34.307  13.386
72820ION    CL-37981  25.223  13.917  14.401
72821ION    CL-37982  36.278  11.740  13.320
72822ION    CL-37983  31.178  41.642   2.672
72823ION    CL-37984  22.120  42.394  12.833
72824ION    CL-37985  25.947   0.919  12.994
72825ION    CL-37986  44.406  26.028   4.551
72826ION    CL-37987   6.541  22.512  12.818
72827ION    CL-37988  18.897  28.343   2.335
72828ION    CL-37989  18.862  14.863   3.152
72829ION    CL-37990  44.955  15.267  13.459
72830ION    CL-37991  42.262   5.884  11.159
72831ION    CL-37992  21.132  27.140  10.850
72832ION    CL-37993   1.574  18.571  12.695
72833ION    CL-37994   3.470   8.317   3.469
72834ION    CL-37995  38.248  32.498  11.917
72835ION    CL-37996  38.937  22.676   0.559
72836ION    CL-37997   4.570   9.608  14.608
72837ION    CL-37998  22.381  41.619   2.807
72838ION    CL-37999  32.314  27.258  10.852
72839ION    CL-38000   2.221   3.943   0.087
72840ION    CL-38001  14.926  14.133   4.953
72841ION    CL-38002   5.870   1.815  12.052
72842ION    CL-38003  42.733  36.409   3.383
72843ION    CL-38004  25.664  25.764  11.180
72844ION    CL-38005  42.911  16.172  12.813
72845ION    CL-38006  37.127   7.927  12.977
72846ION    CL-38007  38.357   9.823  14.303
72847ION    CL-38008   4.218  40.374  14.819
72848ION    CL-38009  13.573  11.140   2.482
72849ION    CL-38010  40.868  17.014  11.828
72850ION    CL-38011  18.572  43.080   9.907
72851ION    CL-38012  37.097  32.581   1.699
72852ION    CL-38013  24.670  20.359  11.354
72853ION    CL-38014   3.989  23.615   3.469
72854ION    CL-38015  23.495   0.058  11.375
72855ION    CL-38016  12.526  37.138   0.771
72856ION    CL-38017  22.875  14.544   9.765
72857ION    CL-38018  25.836  35.904  12.375
72858ION    CL-38019  10.465   8.204   2.328
72859ION    CL-38020  28.956   4.186   1.868
72860ION    CL-38021  38.778  35.873   4.394
72861ION    CL-38022  25.437  16.338   1.164
72862ION    CL-38023  19.988  38.777   5.073
72863ION    CL-38024  15.133  39.358  13.036
72864ION    CL-38025  34.122  17.817   3.669
72865ION    CL-38026  13.837  27.312  14.373
72866ION    CL-38027  14.656   7.371   1.804
72867ION    CL-38028  25.684   0.160  13.590
72868ION    CL-38029  34.005   1.551   2.421
72869ION    CL-38030  19.797  12.826   3.624
72870ION    CL-38031  42.260  40.237   1.446
72871ION    CL-38032  30.241  26.381   0.384
72872ION    CL-38033  37.314  42.050   2.291
72873ION    CL-38034  15.352  40.096  14.523
72874ION    CL-38035  36.870  14.029   2.118
72875ION    CL-38036   6.873  43.920   4.453
72876ION    CL-38037  17.425  33.404  11.225
72877ION    CL-38038   8.432  18.226   3.207
72878ION    CL-38039  25.428   4.602  14.868
72879ION    CL-38040  44.757  38.693   1.253
72880ION    CL-38041  28.970  41.300   1.658
72881ION    CL-38042   0.548   1.000  10.958
72882ION    CL-38043   2.100  10.265   1.472
72883ION    CL-38044   0.452  29.398  13.022
72884ION    CL-38045  14.642  31.652   2.353
72885ION    CL-38046  16.731  30.195  14.725
72886ION    CL-38047  25.152  29.141   0.388
72887ION    CL-38048  20.438  31.115   2.561
72888ION    CL-38049  21.058   3.871   4.096
72889ION    CL-38050  25.482  18.541  12.547
72890ION    CL-38051  22.415  13.648  13.806
72891ION    CL-38052  23.200   6.871  12.820
72892ION    CL-38053  36.429  31.468  11.837
72893ION    CL-38054  11.632  40.307   4.995
72894ION    CL-38055  16.150  15.319  13.477
72895ION    CL-38056  41.787  15.764   3.644
72896ION    CL-38057   1.465  35.128  11.626
72897ION    CL-38058  31.994   8.298   4.984
72898ION    CL-38059  21.563  26.182   1.220
72899ION    CL-38060  35.580   8.921   4.627
72900ION    CL-38061  41.518  33.433  13.384
72901ION    CL-38062  39.752  34.301   4.245
72902ION    CL-38063  28.327  25.571  14.759
72903ION    CL-38064   7.808   8.771   5.097
72904ION    CL-38065   9.015   9.132   3.609
72905ION    CL-38066  28.673  36.705   3.211
72906ION    CL-38067  16.335  12.938  12.167
72907ION    CL-38068  42.232  44.240   4.800
72908ION    CL-38069  21.129   5.988   9.759
72909ION    CL-38070  13.489   5.902  13.408
72910ION    CL-38071  29.742  27.204  13.660
72911ION    CL-38072  42.627  42.681  11.954
72912ION    CL-38073  40.797  34.521  11.810
72913ION    CL-38074   2.944  23.032   2.609
72914ION    CL-38075  23.365   5.385   1.402
72915ION    CL-38076  39.159   5.663  10.438
72916ION    CL-38077  43.845  16.005  10.666
72917ION    CL-38078  29.518   5.168  14.608
72918ION    CL-38079  11.783  40.538  14.393
72919ION    CL-38080  20.344   9.695   0.247
72920ION    CL-38081  36.124   8.959  12.102
72921ION    CL-38082  28.890  37.181   4.984
72922ION    CL-38083  32.366  12.019   1.285
72923ION    CL-38084  44.351   9.030   1.363
72924ION    CL-38085   6.295   5.978   2.662
72925ION    CL-38086   7.963   2.242  13.740
72926ION    CL-38087  36.360   9.147   1.362
72927ION    CL-38088  40.573  14.805  12.452
72928ION    CL-38089  14.522  12.113  11.113
72929ION    CL-38090  43.616  18.494   2.098
72930ION    CL-38091  21.280  20.085  12.437
72931ION    CL-38092  38.696  12.677  11.397
72932ION    CL-38093   3.216  26.057  12.673
72933ION    CL-38094  12.100   7.165   4.634
72934ION    CL-38095  12.601   5.771  14.437
72935ION    CL-38096  33.574  19.360  14.794
72936ION    CL-38097   3.983  12.257  13.555
72937ION    CL-38098  39.175  32.958  11.245
72938ION    CL-38099  24.924   1.644  13.161
72939ION    CL-38100  26.299  14.098   4.543
72940ION    CL-38101  22.552  34.913   4.083
72941ION    CL-38102  22.267  20.601   1.242
72942ION    CL-38103   4.895   0.413   2.886
72943ION    CL-38104  31.394  44.599   2.366
72944ION    CL-38105  16.947  44.190  10.663
72945ION    CL-38106   0.815  16.075  14.810
72946ION    CL-38107  24.890  17.316   0.157
72947ION    CL-38108  39.262   1.498  11.630
72948ION    CL-38109  34.780  37.541   1.469
72949ION    CL-38110  13.524   7.856  10.836
72950ION    CL-38111  41.703  17.304  11.100
72951ION    CL-38112  36.756  35.402   3.123
72952ION    CL-38113  27.367   3.873   4.708
72953ION    CL-38114  29.954  22.416   0.550
72954ION    CL-38115   1.536   8.666   3.252
72955ION    CL-38116  13.012  10.160   4.180
72956ION    CL-38117  43.450  10.037   1.897
72957ION    CL-38118   0.833  11.669  14.479
72958ION    CL-38119  41.817  25.167   9.641
72959ION    CL-38120  11.780  38.327  14.097
72960ION    CL-38121  23.586   4.436   3.310
72961ION    CL-38122  10.435  31.531  14.323
72962ION    CL-38123  28.953  37.920   2.768
72963ION    CL-38124  30.414  39.759  11.268
72964ION    CL-38125  16.237  31.088   5.137
72965ION    CL-38126  40.166  30.714   0.562
72966ION    CL-38127  20.913  39.161   2.769
72967ION    CL-38128  26.362  11.708  11.168
72968ION    CL-38129  31.499  10.101   2.780
72969ION    CL-38130   8.387  32.555   5.026
72970ION    CL-38131  34.776  17.542   1.637
72971ION    CL-38132  35.352  29.179  14.813
72972ION    CL-38133   4.349   6.120   3.662
72973ION    CL-38134  26.484   7.969  12.575
72974ION    CL-38135   4.662  38.149  11.868
72975ION    CL-38136   6.573  36.029   3.063
72976ION    CL-38137  32.292  44.091  13.913
72977ION    CL-38138  40.463  25.600   4.818
72978ION    CL-38139  26.931  20.269   2.024
72979ION    CL-38140  35.884  10.125  12.613
72980ION    CL-38141  21.449  43.207  14.335
72981ION    CL-38142  22.452  43.271  11.386
72982ION    CL-38143  27.083  37.489  13.052
72983ION    CL-38144  30.579  17.028  14.074
72984ION    CL-38145  32.360  26.471  14.272
72985ION    CL-38146  35.748   1.491   1.581
72986ION    CL-38147  38.493   3.926   4.496
72987ION    CL-38148  36.137  38.559   2.603
72988ION    CL-38149  42.900  38.981  11.721
72989ION    CL-38150  35.665  28.169  12.656
72990ION    CL-38151   0.525  14.095  13.609
72991ION    CL-38152  31.085  34.777   4.204
72992ION    CL-38153  21.788   1.183   2.116
72993ION    CL-38154  42.737  44.375   3.866
72994ION    CL-38155  43.256  16.473   5.075
72995ION    CL-38156   8.495   7.873  14.552
72996ION    CL-38157  28.837  12.910  14.670
72997ION    CL-38158  43.685  24.126   0.065
72998ION    CL-38159  13.515  14.149  14.746
72999ION    CL-38160  16.640  14.344   4.092
73000ION    CL-38161   6.267  17.788  11.693
73001ION    CL-38162  43.079  41.704  10.949
73002ION    CL-38163  15.027   0.217   0.361
73003ION    CL-38164   7.822   0.511  11.573
73004ION    CL-38165   5.955  31.062  14.270
73005ION    CL-38166  11.967  29.228  11.570
73006ION    CL-38167  12.735  18.109  10.725
73007ION    CL-38168  25.830  17.391   1.662
73008ION    CL-38169  36.534  28.829  12.686
73009ION    CL-38170   5.045  20.198  10.424
73010ION    CL-38171  44.541  44.764  11.795
73011ION    CL-38172  27.621  23.213  12.417
73012ION    CL-38173  20.265  30.681   4.790
73013ION    CL-38174  14.671  42.942  14.720
73014ION    CL-38175   8.619  37.033  13.471
73015ION    CL-38176   2.772  36.485  12.546
73016ION    CL-38177  30.711   5.872   0.053
73017ION    CL-38178  28.635  22.233   4.773
73018ION    CL-38179  15.273  42.816   3.176
73019ION    CL-38180  40.057  10.011  12.362
73020ION    CL-38181   3.734  43.388  14.576
73021ION    CL-38182   0.984   4.853   3.055
73022ION    CL-38183   0.988   5.778  14.000
73023ION    CL-38184  10.588   4.647  13.982
73024ION    CL-38185   1.520  28.043   2.243
73025ION    CL-38186  42.238   0.891  14.543
73026ION    CL-38187  10.346  41.608   1.330
73027ION    CL-38188   2.783  44.175   1.223
73028ION    CL-38189   9.651   5.613   3.220
73029ION    CL-38190   8.150  11.396  13.878
73030ION    CL-38191  16.116   7.137  11.479
73031ION    CL-38192  17.321  34.863   4.124
73032ION    CL-38193  10.921  12.389   4.506
73033ION    CL-38194   8.613  22.472   3.888
73034ION    CL-38195  30.625  27.430  13.663
73035ION    CL-38196   5.189  31.702  14.338
73036ION    CL-38197  17.855   3.375  11.981
73037ION    CL-38198  22.564  24.042  14.018
73038ION    CL-38199  18.299  32.065  12.901
73039ION    CL-38200   8.308  43.534  12.149
73040ION    CL-38201  22.035  15.004  11.343
73041ION    CL-38202  27.136  28.258   2.207
73042ION    CL-38203  19.827  16.354  12.916
73043ION    CL-38204  23.399  33.890   4.006
73044ION    CL-38205  37.461  39.723  12.853
73045ION    CL-38206  26.371   4.394   3.562
73046ION    CL-38207  22.902  15.796   3.882
73047ION    CL-38208  28.471  10.134   0.211
73048ION    CL-38209   2.514   2.935  12.507
73049ION    CL-38210  36.613  23.881   3.452
73050ION    CL-38211  32.782  17.771  14.308
73051ION    CL-38212  19.642  27.180   1.943
73052ION    CL-38213   0.978  23.674   2.328
73053ION    CL-38214   1.200  41.568  11.832
73054ION    CL-38215  11.259  19.633  10.652
73055ION    CL-38216   9.861  13.973   2.868
73056ION    CL-38217  29.979  43.604  12.735
73057ION    CL-38218  21.158  28.244   2.095
73058ION    CL-38219   6.421  19.238   0.385
73059ION    CL-38220   3.434  33.556   4.723
73060ION    CL-38221  25.791  37.741   0.873
73061ION    CL-38222  32.810   2.109  11.052
73062ION    CL-38223   5.479   8.329  12.381
73063ION    CL-38224  22.049  19.488   5.427
73064ION    CL-38225  39.088   9.087   3.459
73065ION    CL-38226  39.313  19.833  11.823
73066ION    CL-38227   8.241   6.773  11.498
73067ION    CL-38228  36.248  27.907  11.272
73068ION    CL-38229  37.529   4.032  13.154
73069ION    CL-38230   8.777  31.245  12.131
73070ION    CL-38231  38.663   5.143   4.908
73071ION    CL-38232   0.647  17.075  12.889
73072ION    CL-38233  34.378   1.248   1.917
73073ION    CL-38234  20.058  32.965  10.340
73074ION    CL-38235  44.660  34.669   2.871
73075ION    CL-38236  37.628  24.057  10.315
73076ION    CL-38237  12.532   9.469  12.388
73077ION    CL-38238  37.594  21.132   1.243
73078ION    CL-38239  25.060  35.878   0.462
73079ION    CL-38240  40.455   6.110   2.955
73080ION    CL-38241  43.381   1.631  13.341
73081ION    CL-38242  19.657  10.883   3.018
73082ION    CL-38243   9.605  35.244   4.377
73083ION    CL-38244  35.314  43.826   2.346
73084ION    CL-38245  15.239   3.439  14.648
73085ION    CL-38246   9.903  17.889   0.879
73086ION    CL-38247   0.223  38.790   4.943
73087ION    CL-38248  30.448  13.609   0.780
73088ION    CL-38249  28.123  19.501  10.712
73089ION    CL-38250  15.472  17.346  13.738
73090ION    CL-38251  14.437  11.985   3.053
73091ION    CL-38252  44.272  42.445   3.973
73092ION    CL-38253  10.218  24.517   4.095
73093ION    CL-38254   6.113  35.242   3.477
73094ION    CL-38255  10.670  42.342  12.564
73095ION    CL-38256  35.993   8.534   3.463
73096ION    CL-38257   1.079  17.064   4.107
73097ION    CL-38258  13.622  37.164  13.996
73098ION    CL-38259  33.231  19.532   5.292
73099ION    CL-38260  43.580  37.097  13.984
73100ION    CL-38261   3.812  41.313  11.545
73101ION    CL-38262  42.682  44.587   1.565
73102ION    CL-38263   3.787  17.683  12.465
73103ION    CL-38264   0.858   4.619   5.104
73104ION    CL-38265  23.021  10.547  12.477
73105ION    CL-38266  13.765   7.313   2.255
73106ION    CL-38267  21.067  38.629  12.286
73107ION    CL-38268  33.596  31.757  14.654
73108ION    CL-38269  29.036  21.135  13.377
73109ION    CL-38270  18.551  20.162  10.741
73110ION    CL-38271  21.489  16.455  10.122
73111ION    CL-38272  42.186  13.831   0.532
73112ION    CL-38273   6.304  31.264   3.205
73113ION    CL-38274  12.419  14.349  13.034
73114ION    CL-38275  13.368  29.756   1.734
73115ION    CL-38276  22.082   1.551  12.317
73116ION    CL-38277   4.414  13.760  11.160
73117ION    CL-38278  34.021  32.946   2.329
73118ION    CL-38279   8.137  23.745  14.669
73119ION    CL-38280  33.372  21.154   2.599
73120ION    CL-38281   5.139  37.492  14.417
73121ION    CL-38282  22.216  19.274  12.940
73122ION    CL-38283   7.738  18.484  12.759
73123ION    CL-38284  13.314  36.923   4.988
73124ION    CL-38285  29.775   4.813  11.556
73125ION    CL-38286  26.148  36.790   0.838
73126ION    CL-38287   8.131  37.188   4.233
73127ION    CL-38288  32.462  16.675   4.965
73128ION    CL-38289  15.679  43.596  10.302
73129ION    CL-38290  21.455   7.635   2.181
73130ION    CL-38291  20.185  10.102  13.276
73131ION    CL-38292   4.809  31.096   0.326
73132ION    CL-38293  42.493  42.399   5.033
73133ION    CL-38294   4.085   8.321   2.665
73134ION    CL-38295  12.769  42.935  12.163
73135ION    CL-38296  41.292   1.087  14.286
73136ION    CL-38297  44.224  41.159  14.768
73137ION    CL-38298   8.762  38.011  10.729
73138ION    CL-38299  33.317  24.489   3.772
73139ION    CL-38300   8.300  32.615  11.599
73140ION    CL-38301  25.167  29.481  13.554
73141ION    CL-38302  13.563   5.940  14.653
73142ION    CL-38303  35.972  28.156   1.830
73143ION    CL-38304  33.024  34.098   2.269
73144ION    CL-38305   1.380   6.851   3.790
73145ION    CL-38306  39.750  43.275   3.202
73146ION    CL-38307  22.684  35.353  13.608
73147ION    CL-38308  19.659  43.608   4.773
73148ION    CL-38309  21.480  37.557   3.105
73149ION    CL-38310  22.116  10.708  11.939
73150ION    CL-38311  34.519  18.971  12.943
73151ION    CL-38312  13.927  13.133  14.018
73152ION    CL-38313  34.915  15.534  11.573
73153ION    CL-38314  10.142  10.102   1.585
73154ION    CL-38315  22.683  35.763   3.574
73155ION    CL-38316  12.361  23.184   0.806
73156ION    CL-38317   9.994  30.050  14.371
73157ION    CL-38318   2.560  44.403  14.517
73158ION    CL-38319  31.913   1.201   0.856
73159ION    CL-38320  42.867  22.526   1.483
73160ION    CL-38321  22.309  28.457  11.819
73161ION    CL-38322  30.272  43.160   4.974
73162ION    CL-38323  41.671  14.140   4.243
73163ION    CL-38324  21.983   0.817  12.989
73164ION    CL-38325  42.027  12.392  13.091
73165ION    CL-38326   7.438   6.858  13.312
73166ION    CL-38327  44.249   8.907  11.718
73167ION    CL-38328  42.878  23.559   5.070
73168ION    CL-38329   2.800   8.501   4.091
73169ION    CL-38330   1.439  40.543  14.292
73170ION    CL-38331  16.608   3.179  10.771
73171ION    CL-38332  35.309  15.976  13.614
73172ION    CL-38333  24.909   9.317  13.024
73173ION    CL-38334  26.719  44.577   2.145
73174ION    CL-38335  31.194  42.419  12.859
73175ION    CL-38336  40.040  38.227   1.350
73176ION    CL-38337   0.337  35.616  10.005
73177ION    CL-38338   5.738  30.049   4.068
73178ION    CL-38339   1.237  15.683   1.144
73179ION    CL-38340  21.229  44.324   1.132
73180ION    CL-38341  22.977  29.036  11.352
73181ION    CL-38342  28.228  32.714  12.143
73182ION    CL-38343  44.021  33.161  11.023
73183ION    CL-38344  13.414   8.332   2.840
73184ION    CL-38345  33.489  25.707   0.867
73185ION    CL-38346  26.728  34.342   1.585
73186ION    CL-38347   9.365  33.446   3.947
73187ION    CL-38348  16.600  17.551   3.260
73188ION    CL-38349  25.461   3.283   1.821
73189ION    CL-38350  40.744  32.799   0.912
73190ION    CL-38351  37.236  15.916   4.731
73191ION    CL-38352   3.213  28.928   4.251
73192ION    CL-38353   0.218  17.364   3.696
73193ION    CL-38354  41.468  26.020   3.340
73194ION    CL-38355   2.027  38.626   4.589
73195ION    CL-38356  15.203  32.276   2.742
73196ION    CL-38357  43.796  16.823   3.343
73197ION    CL-38358   1.192  29.966  14.062
73198ION    CL-38359  22.755  35.008  11.431
73199ION    CL-38360  24.270  26.365   4.384
73200ION    CL-38361  25.698  24.922   3.704
73201ION    CL-38362  14.215  38.198  13.298
73202ION    CL-38363  20.157   3.127   9.910
73203ION    CL-38364   6.211  36.744   0.408
73204ION    CL-38365  29.690  34.742   0.868
73205ION    CL-38366  26.782  33.270  13.411
73206ION    CL-38367  11.416  38.630   4.867
73207ION    CL-38368   6.972  31.095  14.408
73208ION    CL-38369  40.063  13.297  10.704
73209ION    CL-38370  40.344  18.296  13.464
73210ION    CL-38371  43.973  22.013   2.649
73211ION    CL-38372  43.883  25.243  13.870
73212ION    CL-38373  42.379  32.359  11.075
73213ION    CL-38374  37.762  37.137   3.363
73214ION    CL-38375   8.959  28.032   3.282
73215ION    CL-38376  37.426  28.103   4.858
73216ION    CL-38377  17.723  31.371  13.333
73217ION    CL-38378  43.367   2.488  12.407
73218ION    CL-38379  17.909  20.926   1.448
73219ION    CL-38380  27.981  20.675   4.510
73220ION    CL-38381  39.880  42.680   1.253
73221ION    CL-38382  27.826  26.536  14.355
73222ION    CL-38383   3.768  25.597  11.664
73223ION    CL-38384  13.070  10.884  14.141
73224ION    CL-38385  16.573  19.709   3.715
73225ION    CL-38386  13.657  28.641  12.945
73226ION    CL-38387  39.554  37.420   4.556
73227ION    CL-38388  44.418  27.497   2.744
73228ION    CL-38389   6.767  40.422  13.093
73229ION    CL-38390  20.466   0.401  11.993
73230ION    CL-38391  12.346  18.344  11.668
73231ION    CL-38392  14.381   5.176   1.419
73232ION    CL-38393  29.326   4.454  13.935
73233ION    CL-38394   7.736  26.887  11.553
73234ION    CL-38395  33.406  23.805   0.522
73235ION    CL-38396  22.293   9.639   4.597
73236ION    CL-38397   6.351  42.532   1.273
73237ION    CL-38398  32.052  16.025   3.437
73238ION    CL-38399  32.143  12.857   2.732
73239ION    CL-38400  34.956  25.018   4.218
73240ION    CL-38401   5.587   5.675   3.370
73241ION    CL-38402  37.496  19.315   2.310
73242ION    CL-38403   0.732   5.107  13.303
73243ION    CL-38404  43.225  44.520  10.258
73244ION    CL-38405  20.018  36.595   1.335
73245ION    CL-38406  20.583  39.294  12.624
73246ION    CL-38407   9.054  27.883   5.057
73247ION    CL-38408  25.058  25.149   1.671
73248ION    CL-38409  44.844  42.574  12.562
73249ION    CL-38410  33.742   0.869   2.077
73250ION    CL-38411  22.807  41.268   1.280
73251ION    CL-38412  37.923  11.870  11.699
73252ION    CL-38413  25.381  31.360   4.774
73253ION    CL-38414  19.134   9.869  12.665
73254ION    CL-38415  21.362  24.424   3.842
73255ION    CL-38416   5.892   6.856  13.397
73256ION    CL-38417  27.229  43.453  11.516
73257ION    CL-38418  27.015   7.648   3.506
73258ION    CL-38419  23.285  41.874   1.554
73259ION    CL-38420  36.312   3.977  13.655
73260ION    CL-38421   0.062  11.485  11.589
73261ION    CL-38422  14.918  16.960   1.628
73262ION    CL-38423  34.183  38.392  11.491
73263ION    CL-38424  42.560   3.204   2.347
73264ION    CL-38425  32.396  16.822  13.631
73265ION    CL-38426  34.406  27.074   1.053
73266ION    CL-38427  42.799   0.440  13.310
73267ION    CL-38428   5.303   1.938  12.914
73268ION    CL-38429  28.104  23.871   2.103
73269ION    CL-38430  13.450  29.062   1.228
73270ION    CL-38431  18.796  41.178   5.166
73271ION    CL-38432  17.536   0.924  12.585
73272ION    CL-38433  36.212   6.775  12.090
73273ION    CL-38434  11.517  18.561   0.138
73274ION    CL-38435   6.680  35.647   4.195
73275ION    CL-38436  28.960  12.088  14.427
73276ION    CL-38437  33.977  35.303   2.208
73277ION    CL-38438  12.082  41.242   1.434
73278ION    CL-38439  40.743   8.116  12.677
73279ION    CL-38440  28.745  28.110  12.936
73280ION    CL-38441  17.439  36.591  13.516
73281ION    CL-38442  33.962  17.139  13.343
73282ION    CL-38443   5.724  30.450   3.152
73283ION    CL-38444  36.791  10.202   9.952
73284ION    CL-38445  36.551   1.818   3.868
73285ION    CL-38446  30.690  28.418   3.919
73286ION    CL-38447   5.306  25.092  10.192
73287ION    CL-38448  11.149   0.839   2.890
73288ION    CL-38449   4.900  20.228  12.022
73289ION    CL-38450  30.121  44.122   0.782
73290ION    CL-38451  18.220  23.636   4.268
73291ION    CL-38452  36.689  42.816   1.223
73292ION    CL-38453   5.844   7.182   3.285
73293ION    CL-38454   2.775  10.960  11.479
73294ION    CL-38455  37.357  12.347  14.476
73295ION    CL-38456  21.346  32.626   1.595
73296ION    CL-38457  22.418  39.753   5.453
73297ION    CL-38458  44.381  41.406   2.356
73298ION    CL-38459  17.407  38.327   1.399
73299ION    CL-38460   2.310   7.124   1.867
73300ION    CL-38461  27.281  32.187  14.910
73301ION    CL-38462  25.987  41.312  11.214
73302ION    CL-38463  42.993   9.527   2.678
73303ION    CL-38464  14.994  37.317   2.771
73304ION    CL-38465  36.327  39.386  11.191
73305ION    CL-38466  31.963  26.254   3.747
73306ION    CL-38467  11.582  12.832  12.664
73307ION    CL-38468  44.366  30.626  11.376
73308ION    CL-38469  42.542  41.507  14.481
73309ION    CL-38470  10.964  32.109  12.773
73310ION    CL-38471  35.260  34.139   1.587
73311ION    CL-38472  37.598  35.703   3.035
73312ION    CL-38473  26.392  18.868  13.583
73313ION    CL-38474  29.124  10.284   5.333
73314ION    CL-38475   8.801  16.662  13.595
73315ION    CL-38476  37.555  15.622   0.911
73316ION    CL-38477  43.672  11.224  11.524
73317ION    CL-38478  21.250  28.654  12.569
73318ION    CL-38479   9.736   5.366  12.648
73319ION    CL-38480  32.627  40.419   2.001
73320ION    CL-38481  11.511  10.671   2.987
73321ION    CL-38482  15.406  37.590   1.901
73322ION    CL-38483   7.712  31.435   4.408
73323ION    CL-38484  18.780  14.390   0.023
73324ION    CL-38485  29.413  24.644  10.232
73325ION    CL-38486  33.121  38.370   0.298
73326ION    CL-38487  42.565  32.862   5.079
73327ION    CL-38488   9.335  34.508   2.365
73328ION    CL-38489  32.125  27.497  14.695
73329ION    CL-38490  23.567  28.337  14.482
73330ION    CL-38491  34.945  44.660  12.952
73331ION    CL-38492   1.464   1.912   2.987
73332ION    CL-38493  44.177  37.996  14.712
73333ION    CL-38494  35.316  23.985  10.999
73334ION    CL-38495   8.421   3.931   2.883
73335ION    CL-38496  10.378  27.000  14.082
73336ION    CL-38497  16.026  12.998  13.116
73337ION    CL-38498  21.204  25.280   3.349
73338ION    CL-38499  44.995   5.733   0.833
73339ION    CL-38500  41.055  23.161  14.857
73340ION    CL-38501  40.888  34.594  13.855
73341ION    CL-38502  13.318  21.415  11.170
73342ION    CL-38503   4.189  38.596  12.627
73343ION    CL-38504  11.977  10.985  14.931
73344ION    CL-38505  42.686  11.219   5.029
73345ION    CL-38506  13.668  19.694   0.418
73346ION    CL-38507  14.651  33.150   0.409
73347ION    CL-38508   2.443  18.272   3.899
73348ION    CL-38509  42.469  15.341   4.532
73349ION    CL-38510  10.353  10.477  12.000
73350ION    CL-38511  27.117  13.657  14.305
73351ION    CL-38512  27.008   1.765  13.599
73352ION    CL-38513  34.727  43.346   3.518
73353ION    CL-38514  44.593  27.381  11.930
73354ION    CL-38515  18.096  16.425   3.490
73355ION    CL-38516  22.308  37.102  12.090
73356ION    CL-38517  20.182  41.031   1.019
73357ION    CL-38518   4.005  23.549   2.152
73358ION    CL-38519   6.965  15.285  14.919
73359ION    CL-38520  15.371  26.056   2.273
73360ION    CL-38521  14.209  39.592   1.669
73361ION    CL-38522   1.896   7.700  10.734
73362ION    CL-38523  18.783   4.490   0.959
73363ION    CL-38524  38.781   9.201  11.608
73364ION    CL-38525  12.461  21.890   3.834
73365ION    CL-38526  36.110  19.618  11.649
73366ION    CL-38527  37.575  37.773   0.375
73367ION    CL-38528  41.381  38.261  14.513
73368ION    CL-38529  32.348  17.373   3.825
73369ION    CL-38530  12.378  37.298  14.316
73370ION    CL-38531  15.039   5.473   3.580
73371ION    CL-38532  44.697  21.094  13.028
73372ION    CL-38533  15.620  12.675   1.121
73373ION    CL-38534  27.454  34.520   2.959
73374ION    CL-38535  33.604  30.260   1.477
73375ION    CL-38536  20.073  43.555   9.777
73376ION    CL-38537  33.156  11.927   2.204
73377ION    CL-38538   6.132  10.253   3.208
73378ION    CL-38539  18.800  12.579   0.410
73379ION    CL-38540   8.916  34.781   4.297
73380ION    CL-38541  38.896  44.485   1.894
73381ION    CL-38542   9.508  36.757  11.870
73382ION    CL-38543   0.621  20.856  12.028
73383ION    CL-38544  44.390  14.008  14.383
73384ION    CL-38545  33.008   6.820  14.387
73385ION    CL-38546  10.138   3.212   2.120
73386ION    CL-38547   0.822  31.389   0.062
73387ION    CL-38548  25.985  42.945  10.088
73388ION    CL-38549   8.690   7.309   2.621
73389ION    CL-38550  33.818  20.263  10.322
73390ION    CL-38551  21.393   1.477  11.751
73391ION    CL-38552  23.127   7.895  13.386
73392ION    CL-38553  14.799  19.135   1.920
73393ION    CL-38554  11.134  38.940  12.944
73394ION    CL-38555   3.607  34.488  12.005
73395ION    CL-38556  23.206  23.767  14.824
73396ION    CL-38557  36.407  35.039   3.992
73397ION    CL-38558  42.846  12.312   1.405
73398ION    CL-38559  38.830   9.420   2.552
73399ION    CL-38560  25.653  42.087  11.751
73400ION    CL-38561  30.112  27.666  12.191
73401ION    CL-38562   2.271  23.071  14.996
73402ION    CL-38563  22.550  28.112   1.499
73403ION    CL-38564  23.155  10.351   1.284
73404ION    CL-38565  32.265  27.187   5.151
73405ION    CL-38566  19.418  18.021  11.953
73406ION    CL-38567  18.984   9.004  13.145
73407ION    CL-38568   2.707  39.433   1.879
73408ION    CL-38569  10.821  26.489   0.209
73409ION    CL-38570  34.801  20.168  13.725
73410ION    CL-38571  24.527  44.136  14.458
73411ION    CL-38572  26.220  35.022  11.585
73412ION    CL-38573  16.424   1.947  10.736
73413ION    CL-38574  27.015  17.817  12.479
73414ION    CL-38575  18.571  43.722   2.150
73415ION    CL-38576   3.571   7.368  14.504
73416ION    CL-38577   0.837   9.724  14.549
73417ION    CL-38578   8.309  10.881   0.311
73418ION    CL-38579   3.280  21.540   4.810
73419ION    CL-38580   9.904  36.717  11.098
73420ION    CL-38581  18.827   8.228   0.423
73421ION    CL-38582   4.946  14.659  10.184
73422ION    CL-38583  29.700  19.206   2.591
73423ION    CL-38584  14.538  26.720   2.739
73424ION    CL-38585  40.521   2.563  12.169
73425ION    CL-38586  35.581  17.167  11.999
73426ION    CL-38587   2.636  40.632   2.153
73427ION    CL-38588  36.406  10.641   0.280
73428ION    CL-38589   5.572  23.194  12.821
73429ION    CL-38590  17.221  33.773   4.051
73430ION    CL-38591  16.258  10.538   2.531
73431ION    CL-38592  42.011   4.645   9.586
73432ION    CL-38593  19.483  22.980   3.426
73433ION    CL-38594   1.771  42.490   0.817
73434ION    CL-38595  19.948  22.185   5.095
73435ION    CL-38596   1.295  35.619  14.451
73436ION    CL-38597   4.320  24.695   3.331
73437ION    CL-38598   6.503  33.561   4.830
73438ION    CL-38599  37.822   2.746   3.263
73439ION    CL-38600  40.249  39.330  13.387
73440ION    CL-38601   6.466  19.940   4.381
73441ION    CL-38602   9.466  36.848   3.897
73442ION    CL-38603  32.940  12.018  10.897
73443ION    CL-38604  12.472  26.451   0.644
73444ION    CL-38605  18.393   2.015   0.310
73445ION    CL-38606  28.254  13.838  13.575
73446ION    CL-38607  29.490   0.140  11.161
73447ION    CL-38608  28.327  27.642   1.695
73448ION    CL-38609  33.136  32.671  12.684
73449ION    CL-38610  42.327   5.667  14.797
73450ION    CL-38611   8.440   4.716   3.625
73451ION    CL-38612  20.949  24.448   0.957
73452ION    CL-38613  23.032  44.185  11.638
73453ION    CL-38614  24.141  13.203   2.763
73454ION    CL-38615  30.228  29.390   1.148
73455ION    CL-38616  29.498  31.647   1.654
73456ION    CL-38617  12.664  41.990   3.765
73457ION    CL-38618  32.434   7.913  13.080
73458ION    CL-38619  21.740  33.489  12.545
73459ION    CL-38620   0.627  29.918  14.774
73460ION    CL-38621  17.118  36.038   1.885
73461ION    CL-38622  26.669  36.588  12.038
73462ION    CL-38623  20.094  32.033  12.701
73463ION    CL-38624  43.662  32.277  11.324
73464ION    CL-38625  10.166  29.566   0.449
73465ION    CL-38626   3.315   0.809  14.545
73466ION    CL-38627  10.268  38.200   2.679
73467ION    CL-38628   3.246  29.475  10.185
73468ION    CL-38629  33.185   3.693  13.012
73469ION    CL-38630  25.121  16.895   3.120
73470ION    CL-38631  33.650  15.293   3.384
73471ION    CL-38632  44.418  41.546  13.599
73472ION    CL-38633  13.300  33.510   4.908
73473ION    CL-38634  34.852  30.143   3.741
73474ION    CL-38635  26.326  31.742   1.899
73475ION    CL-38636   1.374  28.549   5.005
73476ION    CL-38637   9.202  22.903  10.607
73477ION    CL-38638   7.404  41.342   4.984
73478ION    CL-38639   3.671  25.027   0.441
73479ION    CL-38640   2.652  35.667   9.739
73480ION    CL-38641  40.078  16.289   1.264
73481ION    CL-38642  19.120  38.463   0.134
73482ION    CL-38643  35.375  22.691   4.859
73483ION    CL-38644   7.406  37.920  13.932
73484ION    CL-38645  19.220  15.796   3.196
73485ION    CL-38646  40.962  27.143  13.280
73486ION    CL-38647  37.154  34.463  13.070
73487ION    CL-38648   2.480   6.108  11.155
73488ION    CL-38649  24.371  33.500   1.220
73489ION    CL-38650  41.327  12.321   3.126
73490ION    CL-38651   2.584  29.911  14.976
73491ION    CL-38652  18.888  41.056   4.102
73492ION    CL-38653  42.579  42.163  12.738
73493ION    CL-38654  14.527  15.307  11.162
73494ION    CL-38655   6.151  36.919  10.438
73495ION    CL-38656  11.532  21.064   3.672
73496ION    CL-38657  36.332  29.422   0.210
73497ION    CL-38658  20.412   1.896   0.954
73498ION    CL-38659  12.568  11.218  11.398
73499ION    CL-38660   5.457  10.144  13.618
73500ION    CL-38661  24.100  38.234   0.041
73501ION    CL-38662   2.982  17.837  13.037
73502ION    CL-38663  37.172  22.850   2.034
73503ION    CL-38664  26.237  28.638   3.207
73504ION    CL-38665   8.333   9.771  11.163
73505ION    CL-38666  29.582  18.004  12.000
73506ION    CL-38667   0.384  42.889  13.951
73507ION    CL-38668   2.549  39.192  11.972
73508ION    CL-38669  36.503   1.733   2.370
73509ION    CL-38670  11.672  27.427   1.099
73510ION    CL-38671  14.773  38.826  11.236
73511ION    CL-38672   7.476  33.805  11.322
73512ION    CL-38673  43.399  41.600  12.634
73513ION    CL-38674  11.626  23.235   4.841
73514ION    CL-38675  28.909  26.483  13.377
73515ION    CL-38676  23.984   5.733  10.271
73516ION    CL-38677  19.714  11.128  11.601
73517ION    CL-38678  28.667   5.793  10.069
73518ION    CL-38679   2.654  12.678  11.772
73519ION    CL-38680  26.681  13.406   4.953
73520ION    CL-38681  16.741  31.092  11.186
73521ION    CL-38682   0.639  10.552  12.480
73522ION    CL-38683  21.956   1.967   0.945
73523ION    CL-38684  38.080  28.814   0.176
73524ION    CL-38685  38.082   0.349  11.893
73525ION    CL-38686  33.350  20.818  12.756
73526ION    CL-38687  24.305  40.612   2.714
73527ION    CL-38688   3.050  41.917   4.812
73528ION    CL-38689  11.338  36.643  13.354
73529ION    CL-38690  17.681  14.185   4.158
73530ION    CL-38691   3.237  30.844   2.668
73531ION    CL-38692   6.204  43.930  12.619
73532ION    CL-38693  32.830  15.596  14.408
73533ION    CL-38694  20.343   8.842  13.103
73534ION    CL-38695  16.049   7.667   1.873
73535ION    CL-38696  12.611  26.401   2.754
73536ION    CL-38697   2.049  23.895   3.320
73537ION    CL-38698  40.585  36.335   9.890
73538ION    CL-38699  16.368  28.606  13.821
73539ION    CL-38700  38.586  39.846   3.306
73540ION    CL-38701  32.138  38.809   2.098
73541ION    CL-38702  11.804  15.677  13.330
73542ION    CL-38703   8.721   8.259   3.219
73543ION    CL-38704  38.423  32.185   4.879
73544ION    CL-38705   2.037  35.650  13.782
73545ION    CL-38706  14.346  28.027   1.541
73546ION    CL-38707   3.729  44.705  11.799
73547ION    CL-38708  12.210  32.149   9.786
73548ION    CL-38709  18.600  28.759  11.576
73549ION    CL-38710  13.681  24.246   4.972
73550ION    CL-38711  14.635   3.048   3.222
73551ION    CL-38712  34.412  18.932   2.984
73552ION    CL-38713  11.037  18.625   2.538
73553ION    CL-38714  33.306  36.111   1.831
73554ION    CL-38715  27.032  27.487   3.531
73555ION    CL-38716  15.525  10.649   1.860
73556ION    CL-38717  28.377   0.264  11.565
73557ION    CL-38718  44.177  31.615   3.803
73558ION    CL-38719  30.595  22.464   5.380
73559ION    CL-38720  12.193  44.637  12.425
73560ION    CL-38721  13.535  18.785   4.698
73561ION    CL-38722   2.646  19.651   0.585
73562ION    CL-38723  18.630  38.053   3.467
73563ION    CL-38724  18.498   1.135  12.414
73564ION    CL-38725  13.079  10.549  13.199
73565ION    CL-38726   5.815  29.206   1.744
73566ION    CL-38727  33.515   3.517  14.883
73567ION    CL-38728  13.857  37.655   2.467
73568ION    CL-38729  37.820  44.113  11.025
73569ION    CL-38730  35.957   6.960   1.010
73570ION    CL-38731  21.025  21.074   4.324
73571ION    CL-38732  42.964  39.158   0.978
73572ION    CL-38733  25.761  21.096   3.954
73573ION    CL-38734  18.518   7.076   3.320
73574ION    CL-38735  24.893  20.093   4.059
73575ION    CL-38736   4.669   3.208  11.675
73576ION    CL-38737  19.457  18.459  10.172
73577ION    CL-38738  30.133  39.922   2.892
73578ION    CL-38739  27.612  39.498  13.795
73579ION    CL-38740  25.526  17.416   2.482
73580ION    CL-38741  33.463  19.339  12.043
73581ION    CL-38742  22.568  36.707   5.309
73582ION    CL-38743  13.354  27.628  12.549
73583ION    CL-38744  43.342  10.865   4.113
73584ION    CL-38745  11.641   6.611   0.493
73585ION    CL-38746  23.533  25.004  14.416
73586ION    CL-38747  43.260  35.994  12.680
73587ION    CL-38748  16.335  13.947  13.187
73588ION    CL-38749   4.483   1.768  14.302
73589ION    CL-38750  12.325  25.321  10.736
73590ION    CL-38751  41.510  13.226  12.584
73591ION    CL-38752  14.667  38.993   1.149
73592ION    CL-38753  31.075   7.729   3.918
73593ION    CL-38754  18.062  20.099   2.631
73594ION    CL-38755  29.965  15.175   2.730
73595ION    CL-38756   5.493  39.061  14.405
73596ION    CL-38757   1.174  34.917  13.749
73597ION    CL-38758  31.567  36.597  14.925
73598ION    CL-38759  27.070  27.290  12.630
73599ION    CL-38760  30.761  32.224   0.075
73600ION    CL-38761  43.017  14.343  14.273
73601ION    CL-38762   9.266  28.978   3.179
73602ION    CL-38763  12.840  27.348   0.264
73603ION    CL-38764  23.575  39.836   2.010
73604ION    CL-38765  32.521  35.794   2.190
73605ION    CL-38766  23.705  27.466  12.628
73606ION    CL-38767  35.636  22.562  13.421
73607ION    CL-38768  33.345  12.411   1.349
73608ION    CL-38769   3.459   5.410   4.643
73609ION    CL-38770  44.398  18.730   4.175
73610ION    CL-38771  26.991  32.745  12.327
73611ION    CL-38772  32.256  26.728  12.541
73612ION    CL-38773  22.352   0.268  14.418
73613ION    CL-38774  27.362   0.983   2.745
73614ION    CL-38775  35.479   0.112  14.417
73615ION    CL-38776   4.291   4.850  11.956
73616ION    CL-38777  28.652  34.978  11.053
73617ION    CL-38778  41.526  26.222   2.362
73618ION    CL-38779  21.774  37.947  12.094
73619ION    CL-38780   9.299   4.408   1.895
73620ION    CL-38781   8.875  31.190  13.333
73621ION    CL-38782   3.961  10.634   3.650
73622ION    CL-38783  40.326  38.544  14.914
73623ION    CL-38784  32.418  12.992   1.510
73624ION    CL-38785  19.859  43.062   2.211
73625ION    CL-38786   9.401   6.890   0.935
73626ION    CL-38787  37.640  34.783   3.425
73627ION    CL-38788  25.492  43.492  14.054
73628ION    CL-38789  31.971   6.167  12.322
73629ION    CL-38790  15.274  40.664  13.628
73630ION    CL-38791  10.113  27.533   3.738
73631ION    CL-38792  30.292  29.442  11.441
73632ION    CL-38793   8.393  15.251   2.961
73633ION    CL-38794   0.651  23.645  12.978
73634ION    CL-38795  34.753  38.242   0.063
73635ION    CL-38796  31.161  32.278   0.871
73636ION    CL-38797  23.634  37.588   4.909
73637ION    CL-38798   4.856   7.197   0.518
73638ION    CL-38799  18.867  10.400   3.118
73639ION    CL-38800  14.336  19.975   1.637
73640ION    CL-38801  34.492   0.867   2.739
73641ION    CL-38802  15.068  38.299   0.711
73642ION    CL-38803  35.605  13.259   1.861
73643ION    CL-38804  15.686   6.613  14.684
73644ION    CL-38805  19.841  40.517   3.121
73645ION    CL-38806   3.937  41.388   0.130
73646ION    CL-38807  19.196  42.006   4.300
73647ION    CL-38808  29.809   1.542   1.039
73648ION    CL-38809  12.146  34.220  13.659
73649ION    CL-38810  27.248  31.842  13.296
73650ION    CL-38811  12.386  33.359  13.710
73651ION    CL-38812  23.578  10.892   4.593
73652ION    CL-38813  44.377  10.886  14.606
73653ION    CL-38814  18.669  38.713  11.732
73654ION    CL-38815  44.699  21.287  12.047
73655ION    CL-38816  11.266  24.225  12.955
73656ION    CL-38817  12.015  20.053  12.153
73657ION    CL-38818  27.631   5.695  11.973
73658ION    CL-38819  38.331  31.019   4.031
73659ION    CL-38820  25.413  30.269   3.503
73660ION    CL-38821  27.737  14.464   3.176
73661ION    CL-38822  38.551  33.202   3.314
73662ION    CL-38823  18.796  11.993  11.356
73663ION    CL-38824  36.829  24.114   1.956
73664ION    CL-38825  39.541  16.105  13.439
73665ION    CL-38826   2.785  23.252   4.787
73666ION    CL-38827  20.869  27.771   0.721
73667ION    CL-38828  11.051  16.233   0.905
73668ION    CL-38829  44.638  44.070   0.953
73669ION    CL-38830  36.133  44.509   2.620
73670ION    CL-38831  17.458  11.731   3.648
73671ION    CL-38832  18.760  19.231   9.821
73672ION    CL-38833  42.347   9.286   1.953
73673ION    CL-38834   1.346  27.225  14.807
73674ION    CL-38835  28.727  26.064  11.088
73675ION    CL-38836  39.958  11.587   0.433
73676ION    CL-38837  20.965  20.876  11.912
73677ION    CL-38838  20.975  41.909   0.208
73678ION    CL-38839   3.489  11.986  11.819
73679ION    CL-38840   1.441   7.116   1.362
73680ION    CL-38841   5.993  14.564   0.722
73681ION    CL-38842  33.506  36.957   5.052
73682ION    CL-38843  26.583  13.808   1.560
73683ION    CL-38844  40.491   9.307   2.205
73684ION    CL-38845  18.903  17.807   3.812
73685ION    CL-38846  28.923  15.315  12.570
73686ION    CL-38847  44.370  29.514   2.332
73687ION    CL-38848  10.737   5.815  14.833
73688ION    CL-38849  33.131  13.789  14.702
73689ION    CL-38850   7.684   6.596   2.345
73690ION    CL-38851  19.272  35.395   2.723
73691ION    CL-38852  18.419  10.221   1.508
73692ION    CL-38853  24.897   0.816  13.721
73693ION    CL-38854  34.094   3.915  13.365
73694ION    CL-38855  22.752   3.760  13.083
73695ION    CL-38856  41.079   1.506   1.402
73696ION    CL-38857  22.467  28.930   3.974
73697ION    CL-38858  16.421  10.173   1.551
73698ION    CL-38859  28.600  36.461   0.703
73699ION    CL-38860  15.205  15.830  14.485
73700ION    CL-38861  31.212  20.933  12.639
73701ION    CL-38862  11.813  38.522   0.411
73702ION    CL-38863  36.402  12.833  12.031
73703ION    CL-38864   5.294   4.290   3.659
73704ION    CL-38865  16.660   4.924   0.433
73705ION    CL-38866  23.834  42.291  12.201
73706ION    CL-38867  20.303  27.755   1.309
73707ION    CL-38868   4.451  21.695  13.316
73708ION    CL-38869  34.864  31.474   9.884
73709ION    CL-38870  33.095  20.538  11.150
73710ION    CL-38871  35.640  24.722  14.654
73711ION    CL-38872  12.327  11.152  12.367
73712ION    CL-38873   7.543   5.549  11.181
73713ION    CL-38874  36.981  43.920  12.521
73714ION    CL-38875   4.549  13.425   0.623
73715ION    CL-38876  16.140   0.817   0.421
73716ION    CL-38877  25.500   0.161  14.908
73717ION    CL-38878  12.867  22.860  12.886
73718ION    CL-38879  11.836  22.373  11.759
73719ION    CL-38880  10.734  40.001   4.670
73720ION    CL-38881  33.870  40.478   0.412
73721ION    CL-38882  38.328  15.221   3.768
73722ION    CL-38883   5.246  16.570   2.918
73723ION    CL-38884   4.477  10.697  12.933
73724ION    CL-38885  23.800  44.746   5.020
73725ION    CL-38886  40.337  15.543  11.180
73726ION    CL-38887   7.983  13.371  14.403
73727ION    CL-38888  39.578  26.260  11.301
73728ION    CL-38889  28.218  44.393   4.570
73729ION    CL-38890  11.527  16.909  14.756
73730ION    CL-38891  37.043  37.122  14.018
73731ION    CL-38892  25.479   5.119  13.111
73732ION    CL-38893  26.072   0.116   2.347
73733ION    CL-38894  18.904  15.969  12.894
73734ION    CL-38895  14.746  39.555  13.939
73735ION    CL-38896  42.815  10.507   2.758
73736ION    CL-38897  30.048  39.661   4.997
73737ION    CL-38898   6.295   1.351   2.151
73738ION    CL-38899  14.208   3.819  10.847
73739ION    CL-38900  21.559  34.805   4.119
73740ION    CL-38901  11.791  28.717  13.636
73741ION    CL-38902  11.666  39.394   0.879
73742ION    CL-38903   3.355   9.269   0.857
73743ION    CL-38904   4.224  23.398  11.454
73744ION    CL-38905  32.380  20.571   4.647
73745ION    CL-38906  22.271   5.754  12.517
73746ION    CL-38907  18.431  11.538  10.757
73747ION    CL-38908  14.462  32.841  10.874
73748ION    CL-38909  40.758  20.555   1.940
73749ION    CL-38910  25.874  27.688   0.667
73750ION    CL-38911  33.947  38.249   3.362
73751ION    CL-38912  11.647  15.866  14.362
73752ION    CL-38913   9.249  24.081  14.884
73753ION    CL-38914  32.580  24.686   4.921
73754ION    CL-38915   9.087  42.872  12.850
73755ION    CL-38916  19.879  44.125   0.735
73756ION    CL-38917  17.789  39.058  11.194
73757ION    CL-38918  36.545   9.567  13.573
73758ION    CL-38919  42.309  12.892   2.410
73759ION    CL-38920  15.436  32.842   0.946
73760ION    CL-38921   0.487  39.021   0.904
73761ION    CL-38922  24.074  17.797   2.461
73762ION    CL-38923  41.553  33.692  14.626
73763ION    CL-38924  21.575  35.816   1.762
73764ION    CL-38925   5.415  22.284  12.497
73765ION    CL-38926  40.522  17.136  12.658
73766ION    CL-38927   0.435  21.284   1.650
73767ION    CL-38928  19.518   0.837  13.072
73768ION    CL-38929  44.496  39.390   0.585
73769ION    CL-38930  11.373  18.525  13.337
73770ION    CL-38931  27.213  34.923   0.919
73771ION    CL-38932   6.313  14.679   3.439
73772ION    CL-38933  11.837   7.685  14.585
73773ION    CL-38934  24.792  36.956  13.391
73774ION    CL-38935  38.105  10.728  10.471
73775ION    CL-38936  11.429  24.159   5.147
73776ION    CL-38937  44.670  37.191   3.575
73777ION    CL-38938  24.720  26.763   0.724
73778ION    CL-38939  26.810  42.317   3.952
73779ION    CL-38940  40.525  33.660   2.944
73780ION    CL-38941  18.125  37.433   0.450
73781ION    CL-38942  26.777  24.254   2.111
73782ION    CL-38943  16.905  40.984  14.138
73783ION    CL-38944  17.576   5.015  14.747
73784ION    CL-38945  34.841  13.249   3.090
73785ION    CL-38946  19.161  32.508   4.540
73786ION    CL-38947   3.170  24.986  11.134
73787ION    CL-38948  22.639  16.102  12.107
73788ION    CL-38949  20.083  17.055   0.295
73789ION    CL-38950  37.369  13.195  11.960
73790ION    CL-38951   8.170   0.476  14.671
73791ION    CL-38952   9.776  41.768  13.685
73792ION    CL-38953  17.506  10.865   2.205
73793ION    CL-38954  34.291  38.650   2.223
73794ION    CL-38955  34.692   3.913   4.135
73795ION    CL-38956  42.464   1.521  11.605
73796ION    CL-38957   1.611  39.168  11.091
73797ION    CL-38958   6.916  42.554   2.607
73798ION    CL-38959   6.830  28.738   0.130
73799ION    CL-38960   3.630  44.317  10.882
73800ION    CL-38961  13.246  20.440   0.646
73801ION    CL-38962  26.515   5.898   1.913
73802ION    CL-38963  17.697   1.915   1.446
73803ION    CL-38964   0.332  40.569  13.538
73804ION    CL-38965   8.431  17.653   1.546
73805ION    CL-38966   5.203   2.756   4.789
73806ION    CL-38967  19.261  42.862   3.598
73807ION    CL-38968  35.504   3.242   4.239
73808ION    CL-38969  43.080   7.626   3.311
73809ION    CL-38970   1.851  24.152  11.716
73810ION    CL-38971   6.865  10.798  10.516
73811ION    CL-38972  33.940  23.801  11.528
73812ION    CL-38973  15.920   2.741  14.271
73813ION    CL-38974   0.133  22.889  14.613
73814ION    CL-38975  14.188  21.612  13.330
73815ION    CL-38976  36.625  13.244   4.073
73816ION    CL-38977  41.057  23.139  13.925
73817ION    CL-38978  20.018  42.067   5.455
73818ION    CL-38979  31.091  20.728   4.141
73819ION    CL-38980  37.307  26.039  11.085
73820ION    CL-38981  20.320  18.619  12.560
73821ION    CL-38982  28.464  28.462  12.043
73822ION    CL-38983  20.907  35.980  12.870
73823ION    CL-38984  13.292   3.934   3.584
73824ION    CL-38985  36.867   9.889  14.006
73825ION    CL-38986   4.258  43.233  12.379
73826ION    CL-38987  16.594   5.459   2.339
73827ION    CL-38988  20.677  24.944   2.394
73828ION    CL-38989  36.238   5.163  10.784
73829ION    CL-38990  41.978  43.661   1.646
73830ION    CL-38991   4.950  30.840  12.718
73831ION    CL-38992   9.878  41.011   1.982
73832ION    CL-38993  31.677  30.646  12.839
73833ION    CL-38994  22.395   2.492   4.022
73834ION    CL-38995   2.493  37.335   0.815
73835ION    CL-38996  42.864   0.809  12.004
73836ION    CL-38997  34.520   7.995   4.953
73837ION    CL-38998   2.296  17.127  13.536
73838ION    CL-38999  32.293   7.454   1.672
73839ION    CL-39000  31.778  40.058   0.245
73840ION    CL-39001  29.747  38.836   3.215
73841ION    CL-39002   4.655  34.137  11.071
73842ION    CL-39003  37.727  27.869  14.952
73843ION    CL-39004  23.978   2.346  14.900
73844ION    CL-39005  12.138  38.449  11.102
73845ION    CL-39006  28.587  27.171   4.184
73846ION    CL-39007  31.036   5.521   0.807
73847ION    CL-39008  43.370  40.812   2.644
73848ION    CL-39009  28.076  16.989   0.937
73849ION    CL-39010  19.809  28.155   3.800
73850ION    CL-39011   4.831  10.834   0.379
73851ION    CL-39012  42.733  33.299   3.560
73852ION    CL-39013  11.729  38.566   1.437
73853ION    CL-39014  13.272  20.636   3.819
73854ION    CL-39015  21.266   5.877   4.118
73855ION    CL-39016  17.268  13.741  10.758
73856ION    CL-39017  17.978   1.844  11.807
73857ION    CL-39018   7.541   0.661   0.464
73858ION    CL-39019   2.389   6.030   4.956
73859ION    CL-39020  38.580  28.015  11.619
73860ION    CL-39021   2.770   8.821  12.573
73861ION    CL-39022   7.202  28.349  14.287
73862ION    CL-39023  12.055   8.347   1.798
73863ION    CL-39024  22.041   8.714   1.410
73864ION    CL-39025  35.662   4.884   3.342
73865ION    CL-39026   1.729  27.442  14.025
73866ION    CL-39027  10.976   7.183  14.662
73867ION    CL-39028  21.041  44.998   1.845
73868ION    CL-39029   7.737  38.118   0.360
73869ION    CL-39030  24.683  25.863   0.289
73870ION    CL-39031   4.001   7.483   3.313
73871ION    CL-39032   8.789  41.358   1.242
73872ION    CL-39033  41.147  35.894   1.899
73873ION    CL-39034  16.902   4.788  13.088
73874ION    CL-39035  23.227  42.876  11.879
73875ION    CL-39036  14.555  41.493   2.382
73876ION    CL-39037   6.343  27.641   3.321
73877ION    CL-39038  40.552   1.733  12.725
73878ION    CL-39039   7.789  33.743   3.549
73879ION    CL-39040  33.772  16.984   4.098
73880ION    CL-39041   4.677  24.134  11.965
73881ION    CL-39042  43.892   0.526  10.696
73882ION    CL-39043  31.072  35.842   0.891
73883ION    CL-39044   9.256  41.110  13.596
73884ION    CL-39045  28.980  14.253   0.561
73885ION    CL-39046   2.416  30.981   0.747
73886ION    CL-39047  19.188  44.507   2.201
73887ION    CL-39048  21.599   2.183   2.345
73888ION    CL-39049  28.803  43.781  11.954
73889ION    CL-39050  25.760  42.899   3.310
73890ION    CL-39051   6.669  34.796   2.775
73891ION    CL-39052  22.290  36.289  13.074
73892ION    CL-39053  30.141  35.511   2.360
73893ION    CL-39054  28.149  15.831  14.589
73894ION    CL-39055   9.254  29.574  12.490
73895ION    CL-39056  19.324  11.751   3.446
73896ION    CL-39057  26.710   0.704  12.385
73897ION    CL-39058  11.240  43.275   0.753
73898ION    CL-39059  10.812  37.062  10.864
73899ION    CL-39060  18.540  37.091   2.908
73900ION    CL-39061   2.684  23.746   3.924
73901ION    CL-39062  18.216  34.148  13.099
73902ION    CL-39063  38.231  31.000  14.312
73903ION    CL-39064   5.270  16.153   2.009
73904ION    CL-39065  35.892  14.707   3.189
73905ION    CL-39066  29.282   9.030   1.706
73906ION    CL-39067  19.055  32.448  10.928
73907ION    CL-39068   7.920   7.729  11.556
73908ION    CL-39069  23.747   4.236   1.796
73909ION    CL-39070  38.386  30.406   1.414
73910ION    CL-39071  23.179  26.048   3.303
73911ION    CL-39072  21.195  22.420   2.691
73912ION    CL-39073  34.032  20.202  12.361
73913ION    CL-39074  43.344  23.741   4.204
73914ION    CL-39075  25.616  37.007   3.645
73915ION    CL-39076  34.134  32.417  11.492
73916ION    CL-39077  20.959  42.973   4.206
73917ION    CL-39078   8.812  14.818  13.471
73918ION    CL-39079   2.007  19.538  13.535
73919ION    CL-39080  34.217  19.200  14.182
73920ION    CL-39081  25.885   8.136   4.341
73921ION    CL-39082  38.109   1.758  11.602
73922ION    CL-39083  16.083  23.990   1.217
73923ION    CL-39084  28.136  32.099  10.766
73924ION    CL-39085  34.786   9.550   4.754
73925ION    CL-39086  34.034  11.583  11.646
73926ION    CL-39087  17.125  40.572   1.562
73927ION    CL-39088  29.612   5.321   0.461
73928ION    CL-39089   7.452  17.810   2.859
73929ION    CL-39090  28.448  18.565  11.612
73930ION    CL-39091   2.184  38.278   3.181
73931ION    CL-39092   2.565  19.364   4.197
73932ION    CL-39093  37.234   5.898   3.169
73933ION    CL-39094   9.124  24.121  12.935
73934ION    CL-39095  36.502  13.260  13.287
73935ION    CL-39096  10.886  41.572   4.238
73936ION    CL-39097  35.099  20.729  12.952
73937ION    CL-39098  29.671  29.267   2.826
73938ION    CL-39099  39.878  17.794   1.184
73939ION    CL-39100  14.211  37.901   0.385
73940ION    CL-39101   7.410  35.981   1.879
73941ION    CL-39102  26.401  20.762  14.097
73942ION    CL-39103  12.353  44.558  13.595
73943ION    CL-39104  44.034  12.309  14.833
73944ION    CL-39105  30.017  17.566   4.967
73945ION    CL-39106  39.210  21.038  14.144
73946ION    CL-39107  42.777   1.865   3.603
73947ION    CL-39108  19.304  24.712  12.400
73948ION    CL-39109  12.677  25.211  13.943
73949ION    CL-39110  10.815  32.480  11.874
73950ION    CL-39111   3.449  28.445   0.227
73951ION    CL-39112  23.607  19.327  10.522
73952ION    CL-39113  23.050   2.053  12.138
73953ION    CL-39114  22.248  15.031  13.890
73954ION    CL-39115  38.413  17.348  12.537
73955ION    CL-39116  27.630  11.436   1.882
73956ION    CL-39117  44.334  38.405   0.523
73957ION    CL-39118  32.205  43.649   4.470
73958ION    CL-39119  37.255  29.609   5.167
73959ION    CL-39120  22.236  20.291  13.383
73960ION    CL-39121   7.637   4.755   2.659
73961ION    CL-39122   6.357   0.397   2.444
73962ION    CL-39123  23.833  11.590  14.303
73963ION    CL-39124  27.733  27.678  14.849
73964ION    CL-39125   6.842  13.074   3.198
73965ION    CL-39126  22.400  17.829   1.442
73966ION    CL-39127  38.164  37.725  11.546
73967ION    CL-39128   2.209  22.259  11.897
73968ION    CL-39129  42.529  36.268  13.053
73969ION    CL-39130   7.674   4.755  13.027
73970ION    CL-39131  30.297  34.063   0.452
73971ION    CL-39132  19.568  26.118   3.815
73972ION    CL-39133  21.724   5.542   0.334
73973ION    CL-39134   3.706  31.067   1.707
73974ION    CL-39135   3.412   3.262   1.050
73975ION    CL-39136   4.596  22.382   4.898
73976ION    CL-39137  39.867  32.493  12.862
73977ION    CL-39138   8.479  17.167   5.078
73978ION    CL-39139  27.623  13.580   1.540
73979ION    CL-39140   7.526  40.247   0.059
73980ION    CL-39141   5.487   2.741  11.090
73981ION    CL-39142   5.945  32.046  10.531
73982ION    CL-39143  22.505  22.077   3.201
73983ION    CL-39144   7.871  26.644   0.819
73984ION    CL-39145  18.277   2.552  11.352
73985ION    CL-39146  30.624   8.953   4.539
73986ION    CL-39147  27.467  29.559  14.907
73987ION    CL-39148  38.946   0.963  14.723
73988ION    CL-39149   3.951  23.019  12.664
73989ION    CL-39150  42.395  42.775  14.006
73990ION    CL-39151  35.533  18.950   2.395
73991ION    CL-39152  23.607  17.641  13.742
73992ION    CL-39153  31.983   0.184  14.914
73993ION    CL-39154  16.759  43.728   0.167
73994ION    CL-39155  32.659  16.457  11.675
73995ION    CL-39156  21.586  44.224   4.138
73996ION    CL-39157  20.753  15.407   3.120
73997ION    CL-39158  44.263  28.264   0.904
73998ION    CL-39159  34.648  34.752   1.365
73999ION    CL-39160  16.749  44.437   0.895
74000ION    CL-39161  13.487  28.982   2.034
74001ION    CL-39162  34.511  31.238  13.666
74002ION    CL-39163  39.390  19.142  10.336
74003ION    CL-39164  13.759  19.624   5.053
74004ION    CL-39165  22.119   6.733   2.063
74005ION    CL-39166  21.063  36.952  13.048
74006ION    CL-39167  42.722   5.231   4.580
74007ION    CL-39168  17.164  40.263  10.694
74008ION    CL-39169  24.070   7.382   1.596
74009ION    CL-39170  37.237  14.434   1.465
74010ION    CL-39171  17.929  33.963  11.644
74011ION    CL-39172  16.717   1.188   2.653
74012ION    CL-39173  22.652  39.150   3.051
74013ION    CL-39174  37.527  21.255  14.459
74014ION    CL-39175   9.386  37.217   1.892
74015ION    CL-39176  14.126  15.901   4.571
74016ION    CL-39177  33.500  38.952  13.037
74017ION    CL-39178  18.059  28.052  12.047
74018ION    CL-39179  18.126   4.145   4.041
74019ION    CL-39180  40.265  19.174  14.466
74020ION    CL-39181  10.118  31.587   1.979
74021ION    CL-39182  37.454  41.262   9.969
74022ION    CL-39183  16.568   3.837   4.152
74023ION    CL-39184  28.513  39.972   5.379
74024ION    CL-39185  25.518  21.767   4.703
74025ION    CL-39186  10.631  12.656   2.289
74026ION    CL-39187  16.588  33.661  11.423
74027ION    CL-39188  37.960   8.523   3.314
74028ION    CL-39189  35.650  19.591  13.417
74029ION    CL-39190  22.900  23.893  11.362
74030ION    CL-39191   6.723  21.206  13.572
74031ION    CL-39192  38.055   3.438  12.384
74032ION    CL-39193  43.542  34.277   1.804
74033ION    CL-39194  36.763   3.675  12.815
74034ION    CL-39195  11.387   2.542   2.088
74035ION    CL-39196  25.495  26.434   0.168
74036ION    CL-39197  31.437  25.770  14.760
74037ION    CL-39198   0.584  19.603  13.883
74038ION    CL-39199   3.811  30.867   0.700
74039ION    CL-39200  34.982  38.197  12.060
74040ION    CL-39201  42.291  38.877   0.290
74041ION    CL-39202  20.225  24.450   4.532
74042ION    CL-39203  15.379  33.454  11.982
74043ION    CL-39204   8.320   2.238  10.696
74044ION    CL-39205  14.257  31.925  14.141
74045ION    CL-39206  44.141  29.570   0.692
74046ION    CL-39207  38.978   2.055   1.780
74047ION    CL-39208   3.043  20.768   2.242
74048ION    CL-39209  31.723  35.432   2.448
74049ION    CL-39210  41.324   9.305   1.393
74050ION    CL-39211  34.594  36.649  14.515
74051ION    CL-39212  25.809   9.206  10.683
74052ION    CL-39213  23.510  30.881  11.639
74053ION    CL-39214  32.632  34.622  14.969
74054ION    CL-39215  18.172  17.722   0.182
74055ION    CL-39216   5.291  19.520  14.258
74056ION    CL-39217   7.391  22.744  12.344
74057ION    CL-39218  23.237  31.860  12.136
74058ION    CL-39219  32.142  17.237   1.339
74059ION    CL-39220  18.998  40.207  13.087
74060ION    CL-39221  35.433   8.147   2.247
74061ION    CL-39222  38.295  36.553   2.119
74062ION    CL-39223  10.164  39.122  10.640
74063ION    CL-39224  40.919  38.995   0.581
74064ION    CL-39225  20.172  21.680   0.811
74065ION    CL-39226  34.248  32.529   5.175
74066ION    CL-39227  19.108  34.991  10.730
74067ION    CL-39228  23.226  17.872   0.881
74068ION    CL-39229  36.594  31.841  10.706
74069ION    CL-39230  34.357  18.660   0.798
74070ION    CL-39231   7.642  17.819   0.939
74071ION    CL-39232  15.034  26.970   1.838
74072ION    CL-39233  15.429   1.839  10.744
74073ION    CL-39234  23.127  42.085  13.814
74074ION    CL-39235  37.959  34.019   5.111
74075ION    CL-39236  22.120  22.135  12.324
74076ION    CL-39237  39.509  31.907  11.465
74077ION    CL-39238   0.498   2.517  11.144
74078ION    CL-39239  24.659  41.789  11.939
74079ION    CL-39240  16.969  35.989  12.225
74080ION    CL-39241  40.209  14.066   3.273
74081ION    CL-39242  30.706   1.521   0.598
74082ION    CL-39243  25.494  22.972  12.092
74083ION    CL-39244  40.778  20.233  12.528
74084ION    CL-39245  25.944  26.061   4.169
74085ION    CL-39246  16.170  15.934   4.720
74086ION    CL-39247  29.930  28.354   3.142
74087ION    CL-39248  44.535  16.287   2.856
74088ION    CL-39249   0.655  40.368   5.495
74089ION    CL-39250   9.733  30.705   3.633
74090ION    CL-39251   0.569   3.853   4.080
74091ION    CL-39252  31.475  27.948   0.372
74092ION    CL-39253  23.886  15.817   3.677
74093ION    CL-39254  35.688   0.397  12.830
74094ION    CL-39255  25.746  33.356  13.223
74095ION    CL-39256  32.067  38.770   4.123
74096ION    CL-39257  20.170   7.485   1.490
74097ION    CL-39258  24.095   7.704  12.489
74098ION    CL-39259  16.078  37.052   3.732
74099ION    CL-39260  27.224  34.401  11.099
74100ION    CL-39261  30.419  42.963  11.271
74101ION    CL-39262   4.575  31.345   1.299
74102ION    CL-39263  10.141  21.630   4.272
74103ION    CL-39264  41.568   5.651   1.989
74104ION    CL-39265   0.638   8.923  14.939
74105ION    CL-39266  26.186  13.356  12.570
74106ION    CL-39267  32.550  13.887   0.582
74107ION    CL-39268  34.388  19.410  11.449
74108ION    CL-39269  43.561  30.883  13.670
74109ION    CL-39270  44.480   8.662   9.736
74110ION    CL-39271   2.853  32.041  10.478
74111ION    CL-39272  33.128  15.859   0.212
74112ION    CL-39273  40.752   0.206  14.057
74113ION    CL-39274  17.668  18.871  14.839
74114ION    CL-39275  40.264  33.832  13.120
74115ION    CL-39276  10.243  15.001  11.541
74116ION    CL-39277  25.803  39.022   2.091
74117ION    CL-39278  20.632   8.793   2.764
74118ION    CL-39279  36.177  25.360   1.834
74119ION    CL-39280  17.319  21.488   4.556
74120ION    CL-39281  10.138  40.254  14.940
74121ION    CL-39282  41.521  16.863  13.956
74122ION    CL-39283   5.642   2.901  12.939
74123ION    CL-39284  29.118  20.896   5.229
74124ION    CL-39285  35.140   0.994  11.972
74125ION    CL-39286  19.180  23.263   0.893
74126ION    CL-39287  27.186   9.219  11.516
74127ION    CL-39288  25.687  33.153   4.969
74128ION    CL-39289  10.470   4.981  12.206
74129ION    CL-39290   5.044  39.882  13.363
74130ION    CL-39291  17.302  30.980  10.315
74131ION    CL-39292  14.742  28.656   2.299
74132ION    CL-39293   3.157  30.000  12.152
74133ION    CL-39294   6.852  30.246   5.461
74134ION    CL-39295  21.157  12.888   0.424
74135ION    CL-39296  32.923  15.961  12.502
74136ION    CL-39297  10.076  32.235  12.331
74137ION    CL-39298  30.656  36.562   0.336
74138ION    CL-39299  17.335   8.278  12.581
74139ION    CL-39300  31.400  39.968   3.799
74140ION    CL-39301  19.107  38.268   0.994
74141ION    CL-39302  14.505  12.861   2.207
74142ION    CL-39303  42.904   7.017  14.760
74143ION    CL-39304  24.140  33.729  11.173
74144ION    CL-39305   2.218  25.037  14.987
74145ION    CL-39306   9.225  19.527  11.871
74146ION    CL-39307  18.019  11.777   2.253
74147ION    CL-39308   9.939  40.132   2.160
74148ION    CL-39309  12.123  18.766  13.954
74149ION    CL-39310  34.606  24.591  14.463
74150ION    CL-39311   9.721  18.400   2.102
74151ION    CL-39312  19.074  29.098   1.925
74152ION    CL-39313   5.330  36.504  13.800
74153ION    CL-39314   2.230  29.854   0.910
74154ION    CL-39315   0.489  40.555  14.602
74155ION    CL-39316   6.393   8.648   2.365
74156ION    CL-39317   0.983  25.768   4.577
74157ION    CL-39318  13.324  24.286  11.648
74158ION    CL-39319  35.360  37.740   0.678
74159ION    CL-39320  18.289  10.693   3.901
74160ION    CL-39321  26.208  12.555  11.678
74161ION    CL-39322  34.115   4.866  13.675
74162ION    CL-39323  38.107   8.706  12.529
74163ION    CL-39324   7.911   5.413   3.361
  45.00000  45.00000  15.00000
